G1.5cooh-PAMAM in water
 8453
    1aaa     N1    1   0.887   2.202   4.256  0.3605  0.6670 -0.0925
    1aaa     C1    2   0.770   2.293   4.244 -0.0478  0.1178 -0.0481
    1aaa     C2    3   0.628   2.222   4.236 -0.5629  0.1518  0.2515
    1aaa     N2    4   0.506   2.304   4.279 -0.0785 -0.5504  0.2426
    1aaa     C3    5   0.497   2.433   4.203 -0.3996 -0.2322  0.0515
    1aaa     C4    6   0.498   2.332   4.425  0.3652 -0.2381 -0.3418
    1aaa     C5    7   1.020   2.267   4.297 -0.1139  0.8583  0.8684
    1aaa     C6    8   0.905   2.142   4.121  0.0414  0.0140  0.3615
    1aaa     C7    9   0.533   2.208   4.513 -0.6980 -0.0986 -0.4654
    1aaa     C8   10   0.500   2.229   4.660 -1.0691  0.0361 -0.2983
    1aaa     C9   11   0.465   2.414   4.057 -0.6939  0.8033  0.3242
    1aaa    C10   12   0.317   2.388   4.036  0.1253 -0.4902  0.2520
    1aaa    C11   13   1.073   2.232   4.434  0.2872 -0.5619 -0.4814
    1aaa    C12   14   0.985   2.278   4.556 -0.2950 -0.3140 -0.4673
    1aaa    C13   15   0.998   2.022   4.114 -0.0148 -0.1555 -0.3977
    1aaa    C14   16   1.130   2.052   4.051 -0.7285 -0.5626 -0.1284
    1aaa     O1   17   0.241   2.329   4.114 -0.3601 -0.1279 -0.4215
    1aaa     O2   18   0.540   2.329   4.713  0.4592  0.0705 -0.1507
    1aaa     O3   19   1.170   2.166   4.034 -0.4312  0.4510 -0.3742
    1aaa     O4   20   0.888   2.352   4.544  0.4037 -0.4247 -0.4048
    1aaa     H1   21   0.794   2.367   4.167 -1.9741 -1.6965 -2.5804
    1aaa     H2   22   0.773   2.355   4.333 -0.5553  0.2481 -0.1151
    1aaa     H3   23   0.626   2.131   4.297 -1.3136 -1.1684 -1.6392
    1aaa     H4   24   0.619   2.201   4.129 -2.2412  0.4940  0.3078
    1aaa     H5   25   0.588   2.491   4.222 -0.4188 -0.2929  0.3233
    1aaa     H6   26   0.421   2.494   4.254  1.1450 -0.0187  2.2236
    1aaa     H7   27   0.564   2.416   4.448  1.3942 -1.4112  1.2011
    1aaa     H8   28   0.392   2.357   4.435 -0.1060 -1.9767 -0.6876
    1aaa     H9   29   1.093   2.237   4.222  0.1886  3.4423  0.0583
    1aaa    H10   30   1.010   2.375   4.304 -0.9489  0.9504 -1.1716
    1aaa    H11   31   0.810   2.106   4.084  0.4354  1.7619 -2.7172
    1aaa    H12   32   0.945   2.225   4.063 -0.1304 -0.3783 -0.3300
    1aaa    H13   33   0.483   2.119   4.473  0.6361 -0.4640 -1.3940
    1aaa    H14   34   0.639   2.180   4.511 -0.5132  0.3231  1.5504
    1aaa    H15   35   0.526   2.337   4.010  1.2259  1.7275  1.1708
    1aaa    H16   36   0.483   2.510   4.007 -0.2901  0.7962  0.4579
    1aaa    H17   37   1.102   2.127   4.444 -0.2618 -0.5181  2.3178
    1aaa    H18   38   1.169   2.283   4.447 -0.3921  0.8338 -0.6641
    1aaa    H19   39   1.025   1.982   4.212  0.0930  1.2232  0.1563
    1aaa    H20   40   0.951   1.931   4.074 -0.6429 -0.9404  1.9580
    1aaa    H37   41   0.865   2.122   4.317  1.7422 -1.3434 -2.0231
    1aaa    H38   42   0.423   2.250   4.251  0.1477  0.0879 -1.8884
    2bbb     N1   43   0.202   2.042   5.024 -0.0580  0.1849  0.4031
    2bbb     C1   44   0.106   1.926   5.035 -0.0764 -0.0493 -0.2660
    2bbb     C2   45   0.129   2.172   5.044 -0.5514  0.2061 -0.3709
    2bbb     C3   46   0.155   1.782   5.053 -0.3312 -0.0095  0.3056
    2bbb     C4   47   0.042   1.687   5.099  0.0885 -0.1275  0.1340
    2bbb     C5   48   0.167   2.234   5.176 -0.7009 -0.8870 -0.1897
    2bbb     C6   49   0.158   2.382   5.175 -0.5547  0.0144  0.6284
    2bbb     C7   50   0.262   2.038   4.881  0.4254 -0.2008 -1.1984
    2bbb     C8   51   0.383   2.129   4.861 -0.3646 -0.1006  0.5170
    2bbb     N2   52   0.422   2.130   4.718 -0.1152 -0.0028  0.3887
    2bbb     O1   53  -0.074   1.707   5.073 -0.0221  0.7985 -0.1615
    2bbb     O2   54   0.102   2.445   5.087 -0.4850 -0.0959  0.1309
    2bbb     H1   55   0.044   1.949   5.122 -3.6863 -3.1702 -1.7393
    2bbb     H2   56   0.039   1.939   4.950  1.3198 -0.2639 -1.4504
    2bbb     H3   57   0.024   2.156   5.019 -0.3513 -2.6953  0.2649
    2bbb     H4   58   0.157   2.241   4.964 -1.9949  2.1483  0.6906
    2bbb     H5   59   0.194   1.741   4.959 -0.7336  0.5006 -0.0945
    2bbb     H6   60   0.243   1.781   5.118  3.0085 -1.5260 -3.7835
    2bbb     H7   61   0.272   2.207   5.190 -1.1040 -3.1220 -1.1258
    2bbb     H8   62   0.112   2.189   5.260 -0.7518 -1.2217 -0.4007
    2bbb     H9   63   0.183   2.055   4.808 -0.1660  0.1496 -0.4924
    2bbb    H10   64   0.289   1.933   4.872 -2.6189 -1.2774  0.6465
    2bbb    H11   65   0.469   2.099   4.923  0.3514 -1.5890 -1.1058
    2bbb    H12   66   0.351   2.230   4.889 -0.3770  0.2342 -0.6433
    2bbb    H13   67   0.401   2.048   4.661 -0.1089 -0.6658  1.3209
    2bbb    H25   68   0.277   2.033   5.094 -0.9260 -0.1916  1.3097
    3bbb     N1   69   0.161   2.486   3.621  0.4365  0.2625 -1.0558
    3bbb     C1   70   0.125   2.589   3.514  0.2560  0.4945 -0.2586
    3bbb     C2   71   0.095   2.354   3.581 -0.2394  0.0919 -0.1254
    3bbb     C3   72   0.243   2.686   3.490  0.3951  0.1873  0.4704
    3bbb     C4   73   0.376   2.619   3.455  0.0349 -1.4168 -0.1870
    3bbb     C5   74   0.153   2.279   3.462 -0.5045  0.0004  0.1981
    3bbb     C6   75   0.280   2.198   3.493  0.4559 -0.4351 -0.9521
    3bbb     C7   76   0.103   2.532   3.758  0.1043  0.2208 -0.9035
    3bbb     C8   77   0.131   2.446   3.880  0.3605  0.0467 -0.3949
    3bbb     N2   78   0.277   2.431   3.910  0.6055 -0.5234  0.2507
    3bbb     O1   79   0.406   2.502   3.468 -0.2873  0.3892  0.1740
    3bbb     O2   80   0.343   2.228   3.592 -0.1011  0.2236 -0.5467
    3bbb     H1   81   0.086   2.530   3.431 -1.1592 -1.5770  1.7522
    3bbb     H2   82   0.046   2.649   3.560  1.1989  1.2172  0.4636
    3bbb     H3   83  -0.013   2.373   3.580 -0.3491 -0.1588 -3.1980
    3bbb     H4   84   0.104   2.301   3.676  0.2533  0.1935 -0.1154
    3bbb     H5   85   0.212   2.752   3.409 -0.5975 -0.3357  0.4116
    3bbb     H6   86   0.260   2.742   3.583 -2.0585 -0.4245  1.3612
    3bbb     H7   87   0.167   2.341   3.373  2.1542  0.4239  0.8249
    3bbb     H8   88   0.081   2.200   3.435  1.6415 -1.7929 -0.6289
    3bbb     H9   89  -0.006   2.535   3.751 -0.0742 -1.7533  0.4692
    3bbb    H10   90   0.137   2.634   3.779  0.4662 -0.1934  0.6231
    3bbb    H11   91   0.094   2.345   3.857  1.1389 -0.0980 -1.0442
    3bbb    H12   92   0.075   2.494   3.962  1.5453  4.2184 -1.7852
    3bbb    H13   93   0.340   2.495   3.863  0.3674  0.5972  1.4251
    3bbb    H25   94   0.263   2.475   3.624  0.8418  2.8031 -2.3971
    4bbb     N1   95   0.822   2.236   5.002  0.6622  0.0087 -1.0623
    4bbb     C1   96   0.779   2.112   5.080 -0.1009 -0.7074 -0.6417
    4bbb     C2   97   0.709   2.322   4.961  0.0057 -0.0000  0.1216
    4bbb     C3   98   0.890   2.017   5.130  0.2184  0.4370 -0.0733
    4bbb     C4   99   0.839   1.884   5.178  0.4570 -0.2000  0.4705
    4bbb     C5  100   0.636   2.396   5.073  0.1148  0.2245 -0.2541
    4bbb     C6  101   0.529   2.494   5.021  1.2876  0.2689 -0.2126
    4bbb     C7  102   0.883   2.186   4.874 -0.3764  0.5712  0.0741
    4bbb     C8  103   0.981   2.286   4.805 -0.9795  0.3919 -0.5015
    4bbb     N2  104   1.032   2.239   4.678 -0.1343  0.0542  0.7695
    4bbb     O1  105   0.731   1.838   5.139 -0.5876 -0.8879 -0.0324
    4bbb     O2  106   0.407   2.472   5.013  0.0148  0.1114 -0.4748
    4bbb     H1  107   0.719   2.151   5.162  2.1059  1.3429  0.1100
    4bbb     H2  108   0.712   2.059   5.012 -0.3943  0.4600 -1.2844
    4bbb     H3  109   0.639   2.252   4.915 -0.2977  0.1455  0.3577
    4bbb     H4  110   0.728   2.396   4.883 -3.3977  0.4764 -0.4062
    4bbb     H5  111   0.960   1.997   5.048  1.2757  2.1839  0.3424
    4bbb     H6  112   0.948   2.060   5.213 -0.1994 -1.9475  1.5474
    4bbb     H7  113   0.708   2.463   5.122  1.1565 -2.0885  1.5473
    4bbb     H8  114   0.596   2.328   5.149 -0.5440 -2.9978 -3.2458
    4bbb     H9  115   0.802   2.162   4.804  0.5081  1.7536 -1.4234
    4bbb    H10  116   0.934   2.091   4.893  0.6952  0.6521 -2.0684
    4bbb    H11  117   1.066   2.290   4.875 -2.5732  2.7551  1.4758
    4bbb    H12  118   0.929   2.381   4.792 -0.8456  0.6535  0.7295
    4bbb    H13  119   1.104   2.169   4.668  0.4343  0.6659  0.5386
    4bbb    H25  120   0.896   2.284   5.056 -0.8938 -1.0092  2.2721
    5bbb     N1  121   1.522   2.025   3.798  0.0891 -0.0608  0.0436
    5bbb     C1  122   1.675   2.034   3.830 -0.1063  0.4013 -0.4532
    5bbb     C2  123   1.475   2.157   3.736  0.2161 -0.3193  0.5264
    5bbb     C3  124   1.755   1.915   3.888 -0.3076  0.4695 -0.0775
    5bbb     C4  125   1.902   1.909   3.847 -0.1120 -0.2369  0.6049
    5bbb     C5  126   1.496   2.166   3.583 -0.4778  0.1752  0.3858
    5bbb     C6  127   1.409   2.065   3.507 -0.4505  0.3330 -0.5267
    5bbb     C7  128   1.435   1.987   3.917 -0.7388  0.1800  0.5177
    5bbb     C8  129   1.287   1.958   3.882 -0.1507 -0.3140 -0.2951
    5bbb     N2  130   1.194   1.942   3.992 -0.2745  0.1953 -0.6048
    5bbb     O1  131   1.971   2.006   3.852 -0.0196 -0.2210  0.4614
    5bbb     O2  132   1.339   1.993   3.571 -0.3893 -0.3604  0.2802
    5bbb     H1  133   1.711   2.050   3.728  0.0350  0.6138 -0.3704
    5bbb     H2  134   1.688   2.128   3.883  1.6803 -0.1464  0.1627
    5bbb     H3  135   1.520   2.242   3.789 -0.7696  1.1603 -0.8909
    5bbb     H4  136   1.367   2.166   3.748  0.2353  0.6703  0.0751
    5bbb     H5  137   1.748   1.904   3.997  1.2199  1.4801  0.1580
    5bbb     H6  138   1.718   1.818   3.853  0.1384  0.3170 -0.1414
    5bbb     H7  139   1.598   2.137   3.553 -0.3978  1.3394 -0.5325
    5bbb     H8  140   1.483   2.265   3.539  0.7256  0.2594  0.1818
    5bbb     H9  141   1.440   2.067   3.991 -0.4626 -0.5563  1.3135
    5bbb    H10  142   1.480   1.898   3.960  1.3324  0.8910 -0.0591
    5bbb    H11  143   1.285   1.872   3.814  0.4532 -1.1850  0.7554
    5bbb    H12  144   1.250   2.043   3.822 -1.9082 -0.1720  0.9322
    5bbb    H13  145   1.162   1.847   4.005 -0.5866  0.3881  0.1060
    5bbb    H25  146   1.511   1.954   3.725 -0.8119  1.0311 -0.9332
    6ccc     N1  147   0.084   1.573   5.173  0.4233 -0.3795 -0.0865
    6ccc     H1  148   0.184   1.569   5.184  0.7055  1.7281 -1.3022
    6ccc     C1  149  -0.004   1.481   5.246 -0.1951  0.3169  0.7080
    6ccc     H2  150  -0.060   1.538   5.321 -1.1258  0.9892 -0.4635
    6ccc     C2  151   0.079   1.368   5.308 -0.2922  0.3011 -0.0479
    6ccc     H3  152  -0.073   1.432   5.176 -1.2568  1.0942  1.1729
    6ccc     H4  153   0.004   1.298   5.344  0.1869 -0.2719 -0.1524
    6ccc     H5  154   0.144   1.405   5.388  1.9397 -3.5748  0.2105
    6ccc     N2  155   0.167   1.292   5.214  0.0312  0.3326 -0.2062
    6ccc     C3  156   0.090   1.223   5.091  0.3197 -0.2087 -0.3514
    6ccc     C4  157   0.241   1.192   5.299 -0.3139  0.4724 -0.5611
    6ccc     H6  158   0.274   1.231   5.396  1.2802 -0.4563 -0.6974
    6ccc     C5  159   0.362   1.118   5.231 -0.4945 -0.4184  0.0238
    6ccc     H7  160   0.169   1.119   5.336 -0.3797  1.1320  0.6753
    6ccc     H8  161   0.438   1.184   5.186 -0.8582  0.4217  0.6297
    6ccc     H9  162   0.322   1.061   5.146 -0.0691  0.9450 -1.1329
    6ccc     C6  163   0.423   1.023   5.328 -0.4450 -0.4663  0.0417
    6ccc     O1  164   0.476   0.915   5.269 -0.0385 -0.0589 -0.1577
    6ccc     O2  165   0.400   1.020   5.446 -0.2469  0.3019 -0.0228
    6ccc    H10  166   0.155   1.149   5.044 -0.7365 -2.4886  1.5679
    6ccc    H11  167   0.067   1.300   5.017 -0.3484  1.0265  1.0998
    6ccc     C7  168  -0.035   1.133   5.124 -0.6094  0.1799  0.0245
    6ccc    H12  169  -0.116   1.192   5.169 -1.0965  0.4977 -1.2244
    6ccc    H13  170  -0.009   1.062   5.203 -0.3918 -1.2245 -1.2800
    6ccc     C8  171  -0.079   1.052   5.004  0.7203 -0.2742  0.3161
    6ccc     O3  172  -0.015   1.016   4.909 -0.0653 -0.5085 -0.2588
    6ccc     O4  173  -0.203   1.017   5.009  0.4100  0.3737 -1.3045
    6ccc    H14  174   0.482   0.924   5.173  0.3390 -1.8770 -0.3384
    6ccc    H15  175  -0.239   1.060   5.089 -0.5286 -0.1228 -1.4483
    6ccc    H16  176   0.234   1.358   5.173 -0.0782 -0.4278 -1.6975
    7ccc     N1  177   0.205   2.438   5.288 -0.1940 -0.5837 -0.1103
    7ccc     H1  178   0.245   2.370   5.352 -0.1553 -1.0715 -0.6473
    7ccc     C1  179   0.215   2.586   5.323  0.4055  0.5088  0.1811
    7ccc     H2  180   0.315   2.603   5.366  0.6327 -0.8104  0.2327
    7ccc     C2  181   0.097   2.638   5.410 -0.0470 -0.0942  0.7207
    7ccc     H3  182   0.218   2.628   5.222  1.2399 -0.2292 -0.1157
    7ccc     H4  183   0.112   2.743   5.434  0.7224 -0.2305  0.8577
    7ccc     H5  184   0.087   2.581   5.502  0.2413 -1.3468 -0.0039
    7ccc     N2  185  -0.045   2.611   5.350  0.4565  0.3393  0.1102
    7ccc     C3  186  -0.065   2.679   5.217 -0.1159  0.0059 -0.4190
    7ccc     C4  187  -0.160   2.623   5.454 -0.0646 -0.3582 -0.6813
    7ccc     H6  188  -0.256   2.589   5.413  1.2174 -5.3360 -0.2041
    7ccc     C5  189  -0.179   2.756   5.513  0.4575 -0.3212  0.1568
    7ccc     H7  190  -0.123   2.566   5.539  0.3225  2.2027  0.9639
    7ccc     H8  191  -0.208   2.828   5.435 -0.1669  1.0076  1.5772
    7ccc     H9  192  -0.082   2.788   5.554  0.6482  0.4140 -0.8141
    7ccc     C6  193  -0.274   2.732   5.626 -0.2191 -0.8340  0.7716
    7ccc     O1  194  -0.329   2.844   5.671 -0.2965 -0.1838 -0.6216
    7ccc     O2  195  -0.279   2.634   5.698 -0.2679 -0.0038 -1.0916
    7ccc    H10  196   0.020   2.678   5.149 -0.2867  1.3398 -0.6982
    7ccc    H11  197  -0.081   2.783   5.248  0.2753 -0.5188  1.6865
    7ccc     C7  198  -0.193   2.630   5.141  0.3063 -0.2596 -0.2246
    7ccc    H12  199  -0.284   2.635   5.201  0.4261  0.1224 -0.0687
    7ccc    H13  200  -0.171   2.525   5.121 -0.1789 -0.0986 -1.7370
    7ccc     C8  201  -0.213   2.707   5.011 -0.0628 -0.5463  0.1701
    7ccc     O3  202  -0.124   2.770   4.960  0.4881 -0.5525  0.7833
    7ccc     O4  203  -0.338   2.720   4.972  0.0024  0.3293 -0.0166
    7ccc    H14  204  -0.294   2.908   5.606 -1.3761  2.5848  1.3643
    7ccc    H15  205  -0.393   2.660   5.026 -0.7986  1.4930  0.5150
    7ccc    H16  206  -0.047   2.510   5.326  0.1975  0.2812  0.3643
    8ccc     N1  207   0.477   2.710   3.416 -0.0648  0.5475  0.0697
    8ccc     H1  208   0.449   2.807   3.415 -2.1820 -0.0045 -1.3202
    8ccc     C1  209   0.623   2.669   3.393  1.6176  0.1051 -0.4627
    8ccc     H2  210   0.689   2.746   3.435  2.8000 -0.8509 -0.5284
    8ccc     C2  211   0.647   2.669   3.243 -0.2398 -0.1268 -0.4692
    8ccc     H3  212   0.642   2.573   3.442 -0.2541  0.0667  0.2822
    8ccc     H4  213   0.750   2.644   3.219  0.3378  3.0227 -1.7131
    8ccc     H5  214   0.639   2.776   3.225 -1.4758  0.5350  3.0792
    8ccc     N2  215   0.552   2.593   3.165  0.0431 -0.3229 -0.0636
    8ccc     C3  216   0.574   2.445   3.195  0.2586  0.3249 -0.5839
    8ccc     C4  217   0.577   2.624   3.016 -0.1855  0.4102 -0.1948
    8ccc     H6  218   0.682   2.606   2.994 -0.5920  0.5640 -2.4845
    8ccc     C5  219   0.534   2.763   2.958  0.8115 -0.4188  0.1652
    8ccc     H7  220   0.533   2.541   2.962  0.7779 -1.6716  2.0213
    8ccc     H8  221   0.589   2.835   3.019  0.4597  0.2026 -0.2436
    8ccc     H9  222   0.429   2.793   2.969  0.9754  0.3324 -0.2701
    8ccc     C6  223   0.557   2.773   2.810  0.0838 -0.1381 -0.6482
    8ccc     O1  224   0.599   2.889   2.762 -0.9292 -0.7813  0.1737
    8ccc     O2  225   0.527   2.684   2.734 -0.2135 -0.0552  0.2207
    8ccc    H10  226   0.533   2.432   3.295  2.3904 -1.2732  0.1603
    8ccc    H11  227   0.683   2.437   3.204  0.6818  3.2591 -1.8318
    8ccc     C7  228   0.508   2.347   3.096 -0.0833 -0.0310  0.2530
    8ccc    H12  229   0.560   2.343   3.000 -0.2162 -0.7677  0.2016
    8ccc    H13  230   0.404   2.375   3.072 -0.5423 -2.0926 -0.3721
    8ccc     C8  231   0.514   2.204   3.153  0.0015 -0.0895 -0.1655
    8ccc     O3  232   0.597   2.172   3.239  0.0292 -0.5798  0.0484
    8ccc     O4  233   0.441   2.108   3.088 -0.2189 -0.3408  0.2579
    8ccc    H14  234   0.609   2.876   2.666 -1.6824 -0.3712  0.0278
    8ccc    H15  235   0.403   2.163   3.017 -3.0946  0.0626  1.9541
    8ccc    H16  236   0.452   2.609   3.185 -0.0768 -3.0729  2.2234
    9ccc     N1  237   0.321   2.090   3.421 -0.2865 -0.3988 -0.4170
    9ccc     H1  238   0.268   2.071   3.337  1.1597  0.6128 -1.6141
    9ccc     C1  239   0.433   1.995   3.472  0.8901  0.0949 -0.2609
    9ccc     H2  240   0.499   1.968   3.388  0.9030 -0.8551  0.0487
    9ccc     C2  241   0.365   1.871   3.534 -0.2677 -0.4529  0.4137
    9ccc     H3  242   0.483   2.054   3.549 -2.4044 -0.2475  2.3687
    9ccc     H4  243   0.318   1.898   3.629  1.1511 -0.9312  1.2784
    9ccc     H5  244   0.442   1.801   3.567  1.1286 -1.4366 -4.2199
    9ccc     N2  245   0.273   1.782   3.443 -0.2524  0.3051  0.3508
    9ccc     C3  246   0.217   1.678   3.538 -0.7813  0.5681 -0.0665
    9ccc     C4  247   0.346   1.712   3.328  0.0991 -0.0892 -0.1165
    9ccc     H6  248   0.393   1.787   3.264  1.3600 -0.5500  0.2384
    9ccc     C5  249   0.250   1.634   3.245 -0.3817 -0.0120  0.0203
    9ccc     H7  250   0.419   1.639   3.364  2.1790  1.9119 -0.1076
    9ccc     H8  251   0.166   1.700   3.221 -0.0346  0.5454  0.3196
    9ccc     H9  252   0.209   1.545   3.295  1.9910  0.4560  3.0380
    9ccc     C6  253   0.328   1.587   3.121  0.3849  0.3923 -0.5776
    9ccc     O1  254   0.247   1.559   3.022 -0.4265 -0.2931  0.1453
    9ccc     O2  255   0.442   1.553   3.117  0.1646 -0.0598  0.1986
    9ccc    H10  256   0.300   1.629   3.588 -0.9294  1.2247  0.8481
    9ccc    H11  257   0.162   1.602   3.482  1.8637  0.0010 -2.0966
    9ccc     C7  258   0.138   1.730   3.662 -0.0746  0.1325 -0.6434
    9ccc    H12  259   0.039   1.753   3.622 -0.4542  0.8438  0.6636
    9ccc    H13  260   0.175   1.818   3.716  0.6892 -0.8315  0.4442
    9ccc     C8  261   0.117   1.621   3.765 -0.5899 -0.5715  0.2537
    9ccc     O3  262   0.011   1.567   3.789  0.6552 -0.6796 -1.2441
    9ccc     O4  263   0.212   1.610   3.858 -0.2529  0.2765 -0.4447
    9ccc    H14  264   0.310   1.519   2.960 -0.8986  0.3184 -0.7473
    9ccc    H15  265   0.274   1.682   3.839 -2.0797  1.4426 -2.3493
    9ccc    H16  266   0.186   1.830   3.413 -1.5355 -1.4007  1.1477
   10ccc     N1  267   0.914   1.809   5.260 -0.1221 -0.4324  0.0471
   10ccc     H1  268   1.008   1.841   5.281 -0.2045 -0.3103  0.2357
   10ccc     C1  269   0.886   1.675   5.291  0.0735 -0.0433  0.1513
   10ccc     H2  270   0.793   1.635   5.249 -0.2129  1.3141 -0.5321
   10ccc     C2  271   0.863   1.660   5.440  0.5684 -0.0608  0.6685
   10ccc     H3  272   0.977   1.623   5.258 -0.5782 -0.2695 -1.3641
   10ccc     H4  273   0.956   1.701   5.479  1.5860 -1.1170 -0.5677
   10ccc     H5  274   0.845   1.555   5.462 -0.1569 -0.4574 -1.5210
   10ccc     N2  275   0.730   1.720   5.487  0.5165 -0.0889 -0.2751
   10ccc     C3  276   0.724   1.729   5.643 -0.2267  0.6624  0.5790
   10ccc     C4  277   0.608   1.641   5.443 -0.3858  0.2553  0.6989
   10ccc     H6  278   0.515   1.695   5.462 -0.1340  0.7018  0.6892
   10ccc     C5  279   0.598   1.499   5.504 -0.3429  0.3288  0.0645
   10ccc     H7  280   0.617   1.621   5.336  0.6732  0.5612  0.7189
   10ccc     H8  281   0.579   1.512   5.611  1.3772 -1.0261  0.5719
   10ccc     H9  282   0.691   1.442   5.498  0.1643  1.0071  1.1716
   10ccc     C6  283   0.489   1.417   5.430 -0.1820  0.0551 -0.6037
   10ccc     O1  284   0.468   1.296   5.486 -0.6133 -0.5410  0.0076
   10ccc     O2  285   0.433   1.444   5.325  0.1316 -0.0885  0.2474
   10ccc    H10  286   0.787   1.649   5.682 -0.8852 -0.4229 -0.5073
   10ccc    H11  287   0.622   1.720   5.680 -0.4630  1.7126  0.2070
   10ccc     C7  288   0.788   1.863   5.685 -0.3355  0.1918 -0.4334
   10ccc    H12  289   0.713   1.940   5.663 -0.3222  0.0487 -1.0081
   10ccc    H13  290   0.885   1.877   5.636  0.6447 -3.5877  0.1081
   10ccc     C8  291   0.808   1.853   5.837  0.4302  0.2691  0.0335
   10ccc     O3  292   0.754   1.767   5.907 -0.1624 -0.6895 -0.8027
   10ccc     O4  293   0.905   1.933   5.884 -0.0978 -0.1373 -0.2639
   10ccc    H14  294   0.542   1.294   5.548 -1.1755 -1.8095  0.6608
   10ccc    H15  295   0.917   2.004   5.819 -1.4918  1.3292  1.0030
   10ccc    H16  296   0.722   1.818   5.456 -0.0777 -0.3465 -0.9567
   11ccc     N1  297   0.577   2.607   4.974 -0.3259 -0.6233  0.1955
   11ccc     H1  298   0.679   2.612   4.969 -0.3296 -0.6874  0.0635
   11ccc     C1  299   0.503   2.733   4.974  0.3009 -1.0569 -0.0202
   11ccc     H2  300   0.425   2.726   4.897 -0.4648  0.9228  0.5097
   11ccc     C2  301   0.591   2.851   4.923  0.0422 -0.6865  0.1756
   11ccc     H3  302   0.460   2.759   5.071 -0.9326  1.0703 -1.0645
   11ccc     H4  303   0.646   2.891   5.008  0.8612 -1.8269  0.1952
   11ccc     H5  304   0.533   2.937   4.890  3.0378  1.7290  0.7095
   11ccc     N2  305   0.693   2.810   4.810  0.7978  0.5456 -0.3072
   11ccc     C3  306   0.770   2.928   4.759 -0.3245  0.4052 -0.6200
   11ccc     C4  307   0.616   2.742   4.693 -0.7488  0.1144 -0.6992
   11ccc     H6  308   0.562   2.661   4.742  0.5379  1.1539  2.7723
   11ccc     C5  309   0.711   2.714   4.569 -0.5199 -0.1417 -0.3702
   11ccc     H7  310   0.535   2.802   4.652 -1.1409 -0.7479 -1.2012
   11ccc     H8  311   0.803   2.668   4.607 -0.4097 -0.0008 -0.4682
   11ccc     H9  312   0.744   2.811   4.530 -2.0569  0.4646 -0.2242
   11ccc     C6  313   0.654   2.634   4.457 -0.5898 -0.0167  0.0166
   11ccc     O1  314   0.740   2.580   4.373  0.4633 -0.3539 -0.0224
   11ccc     O2  315   0.533   2.622   4.445  0.1370 -0.1943  0.0793
   11ccc    H10  316   0.697   2.999   4.720 -0.8419  0.1248 -0.1731
   11ccc    H11  317   0.836   2.892   4.679 -0.7616 -0.0079 -0.8038
   11ccc     C7  318   0.858   2.994   4.873  0.7880  0.0828 -0.6681
   11ccc    H12  319   0.933   2.926   4.916  0.3484 -1.1177 -1.7354
   11ccc    H13  320   0.801   3.031   4.959 -1.9911 -2.1081 -1.4197
   11ccc     C8  321   0.931   3.117   4.823  0.5458  0.1566 -0.2156
   11ccc     O3  322   0.944   3.141   4.703 -0.6771 -0.1698 -0.0187
   11ccc     O4  323   1.010   3.177   4.919 -0.1287  0.8742 -0.0805
   11ccc    H14  324   0.823   2.618   4.405  0.2329 -0.1025  0.2795
   11ccc    H15  325   0.995   3.126   5.000  2.8859 -0.5012 -0.2662
   11ccc    H16  326   0.760   2.746   4.855  1.3621  1.0342 -0.4317
   12ccc     N1  327   1.948   1.788   3.798 -0.1198  0.2997  0.0186
   12ccc     H1  328   1.880   1.713   3.798 -0.7244  0.8404 -0.3208
   12ccc     C1  329   2.081   1.763   3.741  0.1771  0.5963 -1.0936
   12ccc     H2  330   2.068   1.701   3.651 -1.1971 -1.2809  0.3196
   12ccc     C2  331   2.167   1.673   3.837  0.0133  0.0919  0.2221
   12ccc     H3  332   2.128   1.861   3.727  0.6222  1.0848  2.7002
   12ccc     H4  333   2.260   1.647   3.786  0.2676  1.8772 -0.3076
   12ccc     H5  334   2.113   1.582   3.860 -0.2051 -0.3349 -1.7934
   12ccc     N2  335   2.200   1.734   3.969 -0.4061 -0.4049  0.9680
   12ccc     C3  336   2.273   1.870   3.957  0.0421 -0.0770  0.3768
   12ccc     C4  337   2.286   1.625   4.040  0.7173  0.2285  0.0112
   12ccc     H6  338   2.362   1.590   3.971 -1.2203 -0.7561 -1.7166
   12ccc     C5  339   2.213   1.505   4.110 -0.6898  0.6271  0.1935
   12ccc     H7  340   2.329   1.694   4.113 -1.3660  1.4399  0.2061
   12ccc     H8  341   2.130   1.544   4.170  0.0386  0.5498  1.2831
   12ccc     H9  342   2.284   1.462   4.182 -2.2694 -1.1279  0.7654
   12ccc     C6  343   2.166   1.388   4.014 -0.4840  0.2201 -0.2947
   12ccc     O1  344   2.106   1.297   4.094 -0.0019  0.1274 -0.1873
   12ccc     O2  345   2.209   1.372   3.901 -0.2068  0.0749 -0.8295
   12ccc    H10  346   2.211   1.951   3.919 -0.3696 -0.5014  0.1379
   12ccc    H11  347   2.359   1.860   3.891  1.1892  1.3590  1.5741
   12ccc     C7  348   2.322   1.931   4.087  0.2565  0.2418  0.7704
   12ccc    H12  349   2.398   1.870   4.137  1.0326 -0.5536 -1.2840
   12ccc    H13  350   2.231   1.933   4.149  0.0401  0.1165  0.4601
   12ccc     C8  351   2.380   2.077   4.075 -0.1588  0.3019  0.5446
   12ccc     O3  352   2.310   2.174   4.069  0.1898 -0.0787 -0.4039
   12ccc     O4  353   2.513   2.087   4.089 -0.1840 -0.1664 -0.0460
   12ccc    H14  354   2.122   1.335   4.182  3.3130 -0.8361 -0.2572
   12ccc    H15  355   2.557   2.002   4.070 -1.5467 -1.0186  0.4952
   12ccc    H16  356   2.111   1.747   4.018 -2.1908 -0.6613 -1.9747
   13ccc     N1  357   1.412   2.064   3.372 -0.3203  0.0014 -0.3656
   13ccc     H1  358   1.465   2.138   3.326 -1.2673  1.4526  0.7619
   13ccc     C1  359   1.348   1.958   3.288 -0.1542 -0.2962 -0.1870
   13ccc     H2  360   1.408   1.951   3.196 -1.0530 -1.7055 -0.6999
   13ccc     C2  361   1.204   1.999   3.229 -0.1306 -0.9297 -0.0187
   13ccc     H3  362   1.347   1.858   3.332  0.0390  0.4509  1.5929
   13ccc     H4  363   1.159   1.916   3.175 -0.1113 -0.1939 -1.2208
   13ccc     H5  364   1.227   2.073   3.152  2.8666 -0.8244  0.8407
   13ccc     N2  365   1.099   2.063   3.324  0.5532 -0.0513 -0.3857
   13ccc     C3  366   1.063   1.957   3.428 -0.3241  0.6286 -0.1211
   13ccc     C4  367   0.973   2.121   3.246  0.2344 -0.1033 -0.0331
   13ccc     H6  368   0.908   2.167   3.321  0.3393 -0.5979  0.3649
   13ccc     C5  369   0.886   2.040   3.145  0.2061  0.0052  0.2035
   13ccc     H7  370   1.024   2.202   3.193  1.8886 -0.5378  0.8229
   13ccc     H8  371   0.944   2.007   3.058  0.3882  0.0989  0.2890
   13ccc     H9  372   0.807   2.102   3.101 -0.1017 -1.4293 -1.3604
   13ccc     C6  373   0.813   1.931   3.216  0.3435  0.1491  0.1384
   13ccc     O1  374   0.778   1.833   3.133  0.4509  0.0395 -0.1723
   13ccc     O2  375   0.793   1.924   3.333  0.0439 -0.2464  0.3753
   13ccc    H10  376   1.145   1.892   3.459 -0.4925  0.5778  0.2256
   13ccc    H11  377   0.985   1.893   3.387 -0.9807  0.7259  0.9334
   13ccc     C7  378   0.995   2.032   3.547 -0.0990 -0.1616 -0.0610
   13ccc    H12  379   0.896   2.073   3.522 -0.7166 -2.3284 -1.4636
   13ccc    H13  380   1.061   2.112   3.583 -2.3745  1.1533  1.3924
   13ccc     C8  381   0.977   1.931   3.664  0.4941 -0.3741  0.8525
   13ccc     O3  382   1.015   1.812   3.663 -0.3615 -0.1182 -0.1672
   13ccc     O4  383   0.937   1.986   3.778  0.5068 -0.1875 -0.3790
   13ccc    H14  384   0.792   1.869   3.044 -0.1148  0.6848 -0.0095
   13ccc    H15  385   0.909   2.076   3.755  1.1938 -0.5094 -2.6692
   13ccc    H16  386   1.144   2.140   3.376  1.2396 -0.3285 -0.5537
   14SOL     OW  387   1.046   3.275   2.068  0.1430  0.2418  0.0545
   14SOL    HW1  388   1.008   3.325   1.996  0.6419 -0.2882 -0.5861
   14SOL    HW2  389   0.970   3.237   2.113 -0.1231 -1.3616 -1.6162
   15SOL     OW  390   1.386   3.015   0.443  0.1712 -0.6680 -0.1679
   15SOL    HW1  391   1.345   2.955   0.505  0.5284 -0.7223  0.0206
   15SOL    HW2  392   1.478   3.017   0.469  0.2294 -0.3081 -0.3930
   16SOL     OW  393   4.028   0.363   0.444  0.3187 -0.3621 -0.1938
   16SOL    HW1  394   4.109   0.413   0.439  0.5039 -0.5967  0.4365
   16SOL    HW2  395   4.031   0.319   0.529 -0.6038 -0.1452 -0.0371
   17SOL     OW  396   1.031   2.706   1.120 -0.4984  0.1081  0.0916
   17SOL    HW1  397   1.095   2.770   1.150 -0.9085  0.3735  0.4008
   17SOL    HW2  398   0.949   2.731   1.163 -1.1154  0.5301 -1.2737
   18SOL     OW  399   2.753   1.108   1.755  0.2775 -0.1228 -0.8842
   18SOL    HW1  400   2.785   1.023   1.724 -1.4801 -0.9126 -0.6387
   18SOL    HW2  401   2.673   1.123   1.705  0.5314  1.3737 -0.8774
   19SOL     OW  402   4.052   1.398   1.706 -0.0313 -0.0591  0.1586
   19SOL    HW1  403   4.140   1.380   1.737  0.1330 -0.2904 -0.4342
   19SOL    HW2  404   4.007   1.436   1.782  0.3432 -0.6592  0.6854
   20SOL     OW  405   4.172   1.692   3.499 -0.4429 -0.6105  0.9033
   20SOL    HW1  406   4.174   1.597   3.489 -1.9453 -0.6153  0.5026
   20SOL    HW2  407   4.080   1.713   3.513 -1.4028  1.3654 -5.4353
   21SOL     OW  408   0.466   3.624   0.006  0.5679  0.1113 -0.3119
   21SOL    HW1  409   0.458   3.718  -0.006  0.2819 -0.1899 -3.5326
   21SOL    HW2  410   0.383   3.588  -0.024  1.8526 -1.2722 -2.5434
   22SOL     OW  411   1.823   0.440   3.925 -0.1806 -0.2093 -0.1131
   22SOL    HW1  412   1.762   0.380   3.883 -0.1327 -0.1589 -0.2552
   22SOL    HW2  413   1.879   0.471   3.854  0.1969 -0.4822  0.0635
   23SOL     OW  414   1.575   0.390   3.807  0.0954 -0.2913 -0.7144
   23SOL    HW1  415   1.560   0.330   3.734 -2.2483  0.0097 -0.5420
   23SOL    HW2  416   1.572   0.477   3.768 -0.3629 -0.1550 -0.3790
   24SOL     OW  417   2.783   1.380   2.664  0.0545 -0.0673  0.0520
   24SOL    HW1  418   2.809   1.471   2.679 -0.3015 -0.3262  2.5438
   24SOL    HW2  419   2.856   1.343   2.613  0.9758  1.1715  0.4229
   25SOL     OW  420   3.990   2.053   0.800  0.1110 -0.5962 -0.2266
   25SOL    HW1  421   4.044   2.130   0.781  0.0917 -0.4258  0.3551
   25SOL    HW2  422   3.903   2.075   0.766  0.2285 -0.5586 -0.4958
   26SOL     OW  423   0.692   1.861   2.420 -0.0920  0.7661  0.4177
   26SOL    HW1  424   0.743   1.874   2.500  0.3541  0.7475  0.1369
   26SOL    HW2  425   0.639   1.783   2.439  1.9014 -0.8419 -0.2272
   27SOL     OW  426   1.492   0.919   3.195  0.4842 -0.4643  0.4874
   27SOL    HW1  427   1.442   0.984   3.244  0.5890 -0.1541  0.1823
   27SOL    HW2  428   1.437   0.841   3.197  0.4830 -0.4516  1.0909
   28SOL     OW  429   3.451   1.185   3.539  0.0618  0.6781 -0.3812
   28SOL    HW1  430   3.412   1.104   3.508  0.5709 -0.7512  2.4031
   28SOL    HW2  431   3.383   1.251   3.527 -0.6754 -0.3109 -1.9103
   29SOL     OW  432   2.653   1.108   3.590 -0.0229 -0.5264  0.5036
   29SOL    HW1  433   2.727   1.080   3.535  2.5193  2.6873  1.9536
   29SOL    HW2  434   2.617   1.185   3.545 -0.9459 -0.6247  1.0420
   30SOL     OW  435   1.522   4.214   0.725  0.1618 -0.3534  0.5676
   30SOL    HW1  436   1.537   4.304   0.754  0.2091 -0.3504  0.5345
   30SOL    HW2  437   1.567   4.208   0.641 -1.2232  0.0768 -0.2336
   31SOL     OW  438   0.387   2.332   2.066  0.1701  0.6188  0.0485
   31SOL    HW1  439   0.299   2.363   2.043 -0.7242 -1.3172  0.6300
   31SOL    HW2  440   0.391   2.341   2.161  0.2509 -0.1082  0.1171
   32SOL     OW  441   2.504   3.892   1.254 -0.1275 -0.1974 -0.2067
   32SOL    HW1  442   2.523   3.969   1.307  0.4370 -0.5614  0.1443
   32SOL    HW2  443   2.432   3.848   1.299  0.3647 -0.5166  0.2886
   33SOL     OW  444   1.878   2.637   4.181  0.1511 -0.5431 -0.1211
   33SOL    HW1  445   1.959   2.687   4.180  0.3273 -0.8367 -1.0786
   33SOL    HW2  446   1.887   2.578   4.257  0.0920  0.6046  0.7970
   34SOL     OW  447   1.265   1.212   1.042  0.1011 -0.6652  0.2507
   34SOL    HW1  448   1.249   1.163   1.123  0.2015 -0.2179  0.5464
   34SOL    HW2  449   1.314   1.289   1.071  0.4323 -0.6734 -0.2840
   35SOL     OW  450   3.632   2.407   2.181 -0.1687  0.0424  0.2331
   35SOL    HW1  451   3.706   2.359   2.219 -0.3410  0.2016  0.7730
   35SOL    HW2  452   3.581   2.437   2.257 -0.0692  1.0720 -0.0894
   36SOL     OW  453   1.906   2.881   2.806 -0.7421 -0.2001  0.1536
   36SOL    HW1  454   1.959   2.877   2.726 -0.5485  0.2558  0.2563
   36SOL    HW2  455   1.852   2.802   2.803 -1.2112  0.1369 -0.7578
   37SOL     OW  456   4.124   1.551   3.913 -0.1360 -0.6940 -0.5752
   37SOL    HW1  457   4.068   1.509   3.848 -2.3202  0.1229  0.6853
   37SOL    HW2  458   4.207   1.567   3.867 -0.8923 -1.9887 -2.4952
   38SOL     OW  459   1.113   0.988   1.563 -0.0590 -0.1460 -0.3420
   38SOL    HW1  460   1.202   0.969   1.534  0.1427 -0.0147  0.1719
   38SOL    HW2  461   1.100   1.080   1.542 -0.1931 -0.2468 -0.7100
   39SOL     OW  462   1.256   0.764   3.182 -0.0121 -0.1972 -0.5844
   39SOL    HW1  463   1.189   0.712   3.136  2.0575 -1.3608 -2.5429
   39SOL    HW2  464   1.236   0.753   3.275 -3.0515  0.3265 -1.0710
   40SOL     OW  465   2.141   1.980   3.498  0.0617 -0.1979 -0.2639
   40SOL    HW1  466   2.149   1.970   3.403 -1.1951 -0.5865 -0.3474
   40SOL    HW2  467   2.123   2.073   3.511  1.0455  0.0104 -0.3335
   41SOL     OW  468   1.614   3.759   1.705  0.1988 -0.1666 -1.1146
   41SOL    HW1  469   1.611   3.698   1.779 -0.0364 -0.5670 -1.4469
   41SOL    HW2  470   1.670   3.830   1.735  1.3488 -1.0517 -1.0753
   42SOL     OW  471   4.147   2.919   2.908  0.5650 -0.3630  0.5562
   42SOL    HW1  472   4.147   2.824   2.920  0.0543 -0.4082  0.2331
   42SOL    HW2  473   4.236   2.946   2.930  1.4747 -1.2309 -1.7555
   43SOL     OW  474   1.352   1.162   2.380  0.4268  0.4933 -1.1324
   43SOL    HW1  475   1.407   1.113   2.441 -1.1004  0.0004 -0.0781
   43SOL    HW2  476   1.408   1.177   2.304  1.4147 -1.6624 -0.9244
   44SOL     OW  477   3.369   3.409   3.566 -0.0952 -0.2502  0.4828
   44SOL    HW1  478   3.281   3.423   3.599 -0.7539 -2.2714 -0.3268
   44SOL    HW2  479   3.402   3.333   3.614  1.2922  0.5524  0.8805
   45SOL     OW  480   4.273   0.503   0.432 -0.1035 -0.1206 -0.3084
   45SOL    HW1  481   4.319   0.439   0.377  2.1960 -0.3883  1.7734
   45SOL    HW2  482   4.287   0.587   0.387  3.3205 -0.0575  0.6375
   46SOL     OW  483   2.601   1.692   0.540  0.5285 -0.2799  0.2893
   46SOL    HW1  484   2.621   1.604   0.509  0.0139 -0.5087  0.5885
   46SOL    HW2  485   2.558   1.734   0.466 -0.6921 -0.8226  0.6443
   47SOL     OW  486   4.346   0.935   2.716 -1.2511 -0.8086 -0.2436
   47SOL    HW1  487   4.284   0.864   2.699  1.4964 -3.7507  1.0046
   47SOL    HW2  488   4.422   0.914   2.661 -0.2297  1.0120  0.3850
   48SOL     OW  489   0.222   0.439   4.025 -0.1915 -0.2977 -0.0674
   48SOL    HW1  490   0.216   0.343   4.031  1.6403 -0.3653  3.1934
   48SOL    HW2  491   0.253   0.466   4.111  1.2481  3.0983 -1.4659
   49SOL     OW  492   3.977   4.257   3.200 -0.0157 -0.0192  0.0531
   49SOL    HW1  493   3.963   4.335   3.254  0.2965 -0.5927  0.9873
   49SOL    HW2  494   4.064   4.226   3.224  0.6913  0.4388 -1.7509
   50SOL     OW  495   3.602   3.017   1.899 -1.0602  0.0553  0.0706
   50SOL    HW1  496   3.630   3.072   1.826  1.5118 -0.9839  0.1854
   50SOL    HW2  497   3.556   3.077   1.958 -2.5072  1.0701 -1.9639
   51SOL     OW  498   2.113   0.003   2.565  0.5327  0.4150  0.4169
   51SOL    HW1  499   2.094   0.045   2.481 -0.5873  1.3000  1.0795
   51SOL    HW2  500   2.196   0.041   2.593  0.3079  1.0329  0.2664
   52SOL     OW  501   1.035   2.735   2.365  0.1591 -0.2030 -0.3820
   52SOL    HW1  502   1.028   2.830   2.370  1.8657 -0.1142  1.9043
   52SOL    HW2  503   0.960   2.703   2.415 -1.0018 -0.1351 -2.0165
   53SOL     OW  504   0.029   1.310   2.074  0.0417 -0.0031  0.1132
   53SOL    HW1  505  -0.017   1.231   2.048  0.5877 -0.0615 -0.7245
   53SOL    HW2  506   0.117   1.300   2.037 -0.2846  1.6015 -1.1871
   54SOL     OW  507   3.252   0.065   1.332  0.1045 -0.3196  0.1117
   54SOL    HW1  508   3.269  -0.022   1.297  0.9350 -0.5004  0.9377
   54SOL    HW2  509   3.219   0.049   1.421  0.9873  0.2147  0.5506
   55SOL     OW  510   2.894   3.648   1.044 -0.5406  0.1056  0.2924
   55SOL    HW1  511   2.863   3.677   0.959  0.0926 -0.8967 -0.3069
   55SOL    HW2  512   2.817   3.649   1.100 -0.9422  0.8545 -0.2717
   56SOL     OW  513   3.428   3.509   2.119  0.4034  0.0004 -0.2227
   56SOL    HW1  514   3.506   3.564   2.113 -0.1070  0.6863 -0.7379
   56SOL    HW2  515   3.385   3.519   2.033  0.0363 -0.7960 -0.1401
   57SOL     OW  516   0.475   1.386   2.332  0.3155 -0.1313  0.0614
   57SOL    HW1  517   0.516   1.356   2.251 -0.0567 -0.9298  0.1548
   57SOL    HW2  518   0.396   1.332   2.340 -0.3961  0.9032  0.2378
   58SOL     OW  519   1.577   2.053   2.057 -0.5601  0.3306  0.0120
   58SOL    HW1  520   1.498   2.022   2.014 -0.7224  0.0673  0.4977
   58SOL    HW2  521   1.564   2.034   2.150  0.9619 -1.7319 -0.1185
   59SOL     OW  522   3.673   0.859   2.632  0.1933 -0.2055  0.3273
   59SOL    HW1  523   3.637   0.775   2.604 -0.4180 -0.6806  2.3690
   59SOL    HW2  524   3.727   0.838   2.708  0.6310  1.1689  0.4295
   60SOL     OW  525   0.797   2.197   1.033 -0.3879  0.1306  0.3941
   60SOL    HW1  526   0.729   2.261   1.053 -0.6793 -0.4246  1.2430
   60SOL    HW2  527   0.861   2.208   1.103 -0.5860 -0.6888  0.7175
   61SOL     OW  528   3.654   3.163   3.408  0.5361  0.2942 -1.0560
   61SOL    HW1  529   3.564   3.182   3.384  0.3371  1.2363  0.3626
   61SOL    HW2  530   3.656   3.170   3.503  1.9031 -0.6457 -0.9801
   62SOL     OW  531   1.888   1.455   3.073 -0.5662 -0.1388 -0.3711
   62SOL    HW1  532   1.807   1.493   3.039 -0.4594 -0.2660 -0.7652
   62SOL    HW2  533   1.934   1.423   2.996 -0.2027 -0.1925 -0.1333
   63SOL     OW  534   1.166   3.663   1.927  0.3218 -0.1173 -0.1428
   63SOL    HW1  535   1.177   3.721   2.003  0.5396 -2.5243  1.7878
   63SOL    HW2  536   1.255   3.638   1.903  0.4403  2.3598 -2.7635
   64SOL     OW  537   2.296   4.217   2.807  0.1896 -0.2368  0.1255
   64SOL    HW1  538   2.376   4.265   2.826  0.8189 -1.4712  0.6858
   64SOL    HW2  539   2.300   4.199   2.713 -0.0608  0.7841 -0.0952
   65SOL     OW  540   0.207   3.957   3.785 -0.2277  0.0043  0.4212
   65SOL    HW1  541   0.180   3.978   3.874  1.1079 -1.2779  1.1521
   65SOL    HW2  542   0.228   3.863   3.787  3.4270  0.6584 -0.2557
   66SOL     OW  543   1.337   2.104   1.153 -0.0491  0.5082  0.2657
   66SOL    HW1  544   1.396   2.162   1.105 -0.9341  0.6356 -0.6976
   66SOL    HW2  545   1.376   2.017   1.143  0.0876  0.6173 -0.1713
   67SOL     OW  546   0.323   0.106   3.588 -0.7469 -0.6065  0.5739
   67SOL    HW1  547   0.352   0.131   3.675 -0.4741 -0.0434  0.3326
   67SOL    HW2  548   0.397   0.056   3.551 -0.8601 -0.8400  0.6640
   68SOL     OW  549   3.956   4.306   1.276 -0.1717 -0.8962  0.0833
   68SOL    HW1  550   4.043   4.337   1.249 -0.4682 -0.1599 -0.0666
   68SOL    HW2  551   3.895   4.364   1.229 -0.7568 -1.8065 -0.3065
   69SOL     OW  552   2.408   2.805   2.192  0.3903 -0.2372 -0.0397
   69SOL    HW1  553   2.487   2.801   2.246 -0.4152 -0.3922  1.1686
   69SOL    HW2  554   2.404   2.897   2.163  0.2286  0.1389  1.1307
   70SOL     OW  555   3.881   3.989   0.877  0.2621 -0.1596 -0.4973
   70SOL    HW1  556   3.933   3.924   0.831  1.8199  0.5138  0.2641
   70SOL    HW2  557   3.807   3.940   0.912  1.0000 -1.3696 -0.5928
   71SOL     OW  558   1.448   2.970   1.299 -0.4131 -0.2403 -0.0367
   71SOL    HW1  559   1.441   2.911   1.374  0.7987 -1.3219 -0.7303
   71SOL    HW2  560   1.509   3.038   1.327 -1.0082  0.1191  0.4074
   72SOL     OW  561   3.018   1.073   1.526  0.4151  0.8252 -0.2640
   72SOL    HW1  562   3.058   1.156   1.552  2.4832 -0.5547  1.2515
   72SOL    HW2  563   2.962   1.050   1.600  0.5841  0.4040 -0.2669
   73SOL     OW  564   3.727   3.116   1.400 -0.0926 -0.1251  0.7302
   73SOL    HW1  565   3.748   3.027   1.429  0.9940 -0.6868 -1.5606
   73SOL    HW2  566   3.811   3.160   1.394  0.2630 -0.9173 -3.9250
   74SOL     OW  567   0.735   2.356   3.889  0.1859  0.7908 -0.0826
   74SOL    HW1  568   0.725   2.448   3.866  3.2347  1.0859 -0.5928
   74SOL    HW2  569   0.678   2.310   3.828  0.4275  2.2161 -1.4375
   75SOL     OW  570   3.982   3.655   3.922 -0.0827  0.6715  0.1546
   75SOL    HW1  571   4.018   3.566   3.921  0.5737  0.9273  0.3159
   75SOL    HW2  572   3.904   3.649   3.977 -1.4271 -0.3164 -1.7254
   76SOL     OW  573   2.438   0.620   0.799 -0.1953 -0.5737  0.0797
   76SOL    HW1  574   2.411   0.592   0.711 -1.2921 -1.0987  0.5623
   76SOL    HW2  575   2.356   0.632   0.846  0.3616  0.4093  0.8306
   77SOL     OW  576   3.149   4.337   1.950  0.6043  0.0462 -0.4650
   77SOL    HW1  577   3.125   4.246   1.966  0.6384 -0.0865 -1.1642
   77SOL    HW2  578   3.200   4.335   1.869 -1.3594  0.9720 -1.8015
   78SOL     OW  579   3.405   0.082   3.416 -0.1015 -0.8181  0.0519
   78SOL    HW1  580   3.388   0.044   3.330  0.2121  0.0229 -0.3974
   78SOL    HW2  581   3.499   0.096   3.419 -0.4504  5.0524 -2.1749
   79SOL     OW  582   4.146   3.885   3.939  0.4787  0.1080 -0.4011
   79SOL    HW1  583   4.064   3.836   3.939 -0.5376  1.7318 -0.9925
   79SOL    HW2  584   4.166   3.899   3.847  2.0167 -1.1528 -0.3043
   80SOL     OW  585   1.398   2.433   1.131  0.1851  0.4824  0.0392
   80SOL    HW1  586   1.388   2.506   1.193  0.0449  0.7988 -0.3530
   80SOL    HW2  587   1.347   2.460   1.055 -1.6603 -0.9637  0.6958
   81SOL     OW  588   3.721   3.458   2.003 -0.2230  0.1566  0.3804
   81SOL    HW1  589   3.722   3.477   1.909  1.7554  2.6868  0.7920
   81SOL    HW2  590   3.772   3.378   2.011 -1.6433 -0.9318 -0.7606
   82SOL     OW  591   4.015   0.884   3.259 -0.2828  0.0523  0.0893
   82SOL    HW1  592   3.928   0.898   3.222  0.8703  0.1644 -2.9331
   82SOL    HW2  593   4.025   0.788   3.260 -0.5156  0.0329  0.6450
   83SOL     OW  594   4.191   3.528   0.261 -0.2435 -0.3888 -0.0017
   83SOL    HW1  595   4.223   3.602   0.209 -0.3071 -0.1038  0.3570
   83SOL    HW2  596   4.111   3.500   0.217 -0.1368 -0.3373 -0.2253
   84SOL     OW  597   0.540   2.155   3.825 -0.3797 -0.1360 -0.4662
   84SOL    HW1  598   0.471   2.116   3.878  1.1780 -0.5800  1.3609
   84SOL    HW2  599   0.498   2.174   3.741 -2.9171  0.3984  0.8233
   85SOL     OW  600   2.277   4.027   2.994 -0.7661 -0.0741 -0.2959
   85SOL    HW1  601   2.303   4.084   2.922  1.8315  0.1293  0.6927
   85SOL    HW2  602   2.280   4.083   3.071  1.0284 -1.2607  0.5790
   86SOL     OW  603   2.581   1.422   0.977  0.2670  0.1304  0.4020
   86SOL    HW1  604   2.579   1.407   1.072  0.9581 -0.0882  0.3898
   86SOL    HW2  605   2.528   1.352   0.941 -0.7585  0.7415  0.6790
   87SOL     OW  606   1.684   1.510   4.283 -0.0410 -0.4241  0.0776
   87SOL    HW1  607   1.673   1.453   4.359 -0.0683  0.4342  0.7272
   87SOL    HW2  608   1.712   1.451   4.213  0.9633 -1.0891  1.0021
   88SOL     OW  609   3.408   0.189   0.100  0.0130  0.1816  0.4602
   88SOL    HW1  610   3.393   0.231   0.015  1.6709 -0.6206 -0.2894
   88SOL    HW2  611   3.493   0.223   0.129  1.3711 -2.4227 -0.1369
   89SOL     OW  612   0.918   0.779   3.742 -0.0544 -0.3174  0.0087
   89SOL    HW1  613   0.849   0.778   3.808  0.5173 -0.2855  0.6161
   89SOL    HW2  614   0.878   0.819   3.665 -0.6150 -0.0120  0.4615
   90SOL     OW  615   3.540   3.158   2.356  0.4898 -0.3562 -0.4057
   90SOL    HW1  616   3.630   3.168   2.328  0.1962  0.7883 -0.9846
   90SOL    HW2  617   3.495   3.121   2.280  0.4518 -0.8775 -0.1360
   91SOL     OW  618   0.453   2.084   2.435 -0.8926  0.5688  0.5303
   91SOL    HW1  619   0.513   2.049   2.370 -2.1101 -0.0049 -0.3297
   91SOL    HW2  620   0.425   2.007   2.485 -2.2771  0.5145 -0.2631
   92SOL     OW  621   3.700   2.438   1.782  0.0107 -0.3715 -0.0847
   92SOL    HW1  622   3.771   2.423   1.845  0.2803 -1.9005 -0.7238
   92SOL    HW2  623   3.712   2.529   1.755  0.5502 -0.0224  1.2512
   93SOL     OW  624   4.265   2.394   1.859 -0.0470  0.4627 -0.2685
   93SOL    HW1  625   4.228   2.358   1.779 -0.4311  2.4793 -1.0568
   93SOL    HW2  626   4.214   2.473   1.876  2.8818  2.6171 -0.6281
   94SOL     OW  627   2.641   1.822   3.688  0.3942  0.0486  0.0798
   94SOL    HW1  628   2.631   1.733   3.654  0.2451 -0.7400  2.0576
   94SOL    HW2  629   2.559   1.866   3.666  0.0522 -0.6260  0.0043
   95SOL     OW  630   4.194   2.493   2.286  0.8082 -0.4329 -0.3691
   95SOL    HW1  631   4.133   2.539   2.344  1.5259 -1.1957  1.0187
   95SOL    HW2  632   4.267   2.468   2.342  1.6865 -0.9126 -1.6784
   96SOL     OW  633   1.751   2.849   0.808  0.2663 -0.4082 -0.0147
   96SOL    HW1  634   1.789   2.829   0.894  2.0242 -0.1573 -0.6886
   96SOL    HW2  635   1.721   2.939   0.815  1.2210 -0.0859  0.0891
   97SOL     OW  636   1.412   4.209   2.285  0.3357 -0.5974  0.2599
   97SOL    HW1  637   1.409   4.178   2.194 -0.1962 -0.4923  0.2364
   97SOL    HW2  638   1.490   4.168   2.322  1.7848  1.0534 -0.8350
   98SOL     OW  639   4.222   3.070   0.331  0.2418  0.2583 -0.1242
   98SOL    HW1  640   4.213   3.128   0.255  1.5782  1.2179  0.4042
   98SOL    HW2  641   4.132   3.053   0.358 -0.2145  1.6908 -0.6163
   99SOL     OW  642   0.314   3.517   0.621 -0.4704 -0.0717 -0.1500
   99SOL    HW1  643   0.376   3.450   0.593  0.6378  0.4291  1.0031
   99SOL    HW2  644   0.242   3.469   0.661 -1.3109 -0.7116 -2.2643
  100SOL     OW  645   3.864   2.768   3.784 -0.1950 -0.2368 -0.2245
  100SOL    HW1  646   3.846   2.732   3.697  1.2162 -1.5254 -0.0341
  100SOL    HW2  647   3.923   2.704   3.824 -0.4953  0.5390  1.5328
  101SOL     OW  648   0.104   4.228   3.262 -0.3900 -0.5068 -0.5633
  101SOL    HW1  649   0.050   4.277   3.324  0.5150 -0.3647  0.1345
  101SOL    HW2  650   0.192   4.261   3.275 -0.1658 -0.5108 -1.9166
  102SOL     OW  651   2.685   3.862   0.786  0.1009 -0.0534  0.0304
  102SOL    HW1  652   2.608   3.872   0.841  0.4981  0.8056  0.4458
  102SOL    HW2  653   2.662   3.905   0.704  1.1786  3.0279  1.2059
  103SOL     OW  654   2.343   0.138   2.041  0.0099 -0.1569  0.1194
  103SOL    HW1  655   2.378   0.226   2.049 -1.7208  0.4035  3.6572
  103SOL    HW2  656   2.388   0.088   2.109  0.2282 -1.7689 -1.1492
  104SOL     OW  657   0.282   1.002   2.030  0.3857  0.4626  0.0429
  104SOL    HW1  658   0.238   1.020   1.947  0.5584  0.4246 -0.0582
  104SOL    HW2  659   0.308   0.910   2.023  2.5361  1.0805 -0.8744
  105SOL     OW  660   2.993   2.125   4.287 -0.1322  0.2260  0.2516
  105SOL    HW1  661   2.992   2.151   4.195 -0.6760  4.7335  1.2917
  105SOL    HW2  662   2.902   2.103   4.306 -0.6690  2.1863  0.2473
  106SOL     OW  663   1.118   2.481   3.015 -0.2873 -0.0055 -0.2144
  106SOL    HW1  664   1.050   2.493   2.948 -0.2405 -0.6733 -0.3884
  106SOL    HW2  665   1.075   2.507   3.096 -0.9378 -0.9366 -0.2414
  107SOL     OW  666   1.810   3.524   0.673  0.1193  0.2855 -0.2419
  107SOL    HW1  667   1.744   3.474   0.626 -1.0505  0.9759  0.6091
  107SOL    HW2  668   1.849   3.462   0.734  0.5972 -0.2388 -1.0645
  108SOL     OW  669   3.672   4.339   4.271  0.2769  0.0590  0.2689
  108SOL    HW1  670   3.597   4.306   4.320  0.9621 -0.8143  0.7528
  108SOL    HW2  671   3.643   4.423   4.235 -1.5300 -1.0502 -1.0040
  109SOL     OW  672   1.344   1.475   1.494  0.5550 -0.6289 -0.1554
  109SOL    HW1  673   1.361   1.567   1.474 -0.8603 -0.2325  0.3240
  109SOL    HW2  674   1.426   1.430   1.476  1.1678  0.6818 -0.7113
  110SOL     OW  675   0.262   1.267   1.955  0.1080 -0.6569 -0.3705
  110SOL    HW1  676   0.344   1.218   1.947 -0.2412 -1.1423 -1.1187
  110SOL    HW2  677   0.267   1.333   1.886  0.1080 -0.3226 -0.0543
  111SOL     OW  678   1.095   2.808   3.848  0.3878  0.2126  0.0054
  111SOL    HW1  679   1.060   2.760   3.773 -0.0528 -1.5010  1.2471
  111SOL    HW2  680   1.190   2.805   3.837  0.3520 -0.6431 -0.1379
  112SOL     OW  681   3.904   3.973   3.168  0.2303  0.0521  0.1985
  112SOL    HW1  682   3.972   3.905   3.169  0.9740  0.7583 -0.9830
  112SOL    HW2  683   3.952   4.055   3.155 -0.7216  0.7414  0.8871
  113SOL     OW  684   3.094   2.665   2.293  0.0611 -0.2271 -0.2141
  113SOL    HW1  685   3.129   2.602   2.355 -1.5738 -1.3206 -0.3454
  113SOL    HW2  686   3.075   2.743   2.345 -0.3984 -0.7977  0.4884
  114SOL     OW  687   2.949   3.293   2.429 -0.4470 -0.1132  0.7049
  114SOL    HW1  688   2.978   3.383   2.443 -1.8711  0.2139  1.8102
  114SOL    HW2  689   2.982   3.245   2.505  1.5262 -0.8753 -0.5760
  115SOL     OW  690   4.314   3.436   0.514  0.7030 -0.0220 -0.5925
  115SOL    HW1  691   4.391   3.391   0.476  0.9986  0.4827 -0.6003
  115SOL    HW2  692   4.266   3.468   0.438  1.5349  1.3895 -0.5682
  116SOL     OW  693   3.438   3.316   3.308 -0.0943 -0.0811  0.4099
  116SOL    HW1  694   3.480   3.389   3.262  3.6274 -1.3575  1.4219
  116SOL    HW2  695   3.404   3.355   3.388  0.1024  0.8830  0.0355
  117SOL     OW  696   1.724   4.199   1.021  0.2376 -0.4140 -0.1187
  117SOL    HW1  697   1.813   4.234   1.032  0.5338 -0.6080 -1.6661
  117SOL    HW2  698   1.735   4.104   1.019  0.0553 -0.4292 -0.6827
  118SOL     OW  699   2.489   2.864   2.609  0.4040 -0.0236  0.2976
  118SOL    HW1  700   2.518   2.932   2.670  3.1633 -2.4821  1.9782
  118SOL    HW2  701   2.568   2.840   2.559 -1.1249 -0.1231 -2.2792
  119SOL     OW  702   4.081   2.206   0.205 -0.1411 -0.7937 -0.4928
  119SOL    HW1  703   4.078   2.134   0.268  0.2903 -0.1868  0.2328
  119SOL    HW2  704   3.990   2.215   0.176 -0.1746 -1.7205 -0.6990
  120SOL     OW  705   1.746   4.097   3.801  0.3638  0.4689  0.0557
  120SOL    HW1  706   1.684   4.105   3.729 -0.1359  1.0807  0.5415
  120SOL    HW2  707   1.828   4.068   3.760  0.8433  3.1671 -1.1480
  121SOL     OW  708   1.454   3.751   0.858 -0.4164  0.7074 -0.0592
  121SOL    HW1  709   1.538   3.772   0.818 -0.3983  0.5921 -0.0812
  121SOL    HW2  710   1.476   3.697   0.934 -0.4642  0.7526 -0.0133
  122SOL     OW  711   3.290   0.005   3.941  0.1690  0.3607  0.1814
  122SOL    HW1  712   3.197  -0.007   3.921 -0.2315  1.6716  1.0708
  122SOL    HW2  713   3.290   0.052   4.024  1.5437  2.5080 -0.9261
  123SOL     OW  714   4.119   1.117   3.353  0.5154 -0.5217  0.3397
  123SOL    HW1  715   4.084   1.038   3.313  2.0458 -0.8794 -0.3211
  123SOL    HW2  716   4.076   1.121   3.438 -0.8457 -1.1349 -0.2848
  124SOL     OW  717   4.242   0.116   2.907  0.2456  0.0403 -0.2217
  124SOL    HW1  718   4.265   0.089   2.996  2.7120 -0.4855 -0.9397
  124SOL    HW2  719   4.314   0.172   2.880 -2.1810  3.2199 -0.7038
  125SOL     OW  720   3.874   1.912   0.097  0.5201 -0.3815  0.1033
  125SOL    HW1  721   3.891   1.853   0.171  1.1649 -1.0939 -0.5913
  125SOL    HW2  722   3.948   1.897   0.038  0.0167  0.1849 -0.6810
  126SOL     OW  723   0.947   4.150   0.731 -0.7261 -0.0716 -0.0118
  126SOL    HW1  724   0.961   4.242   0.754 -0.7701 -0.3518  1.2133
  126SOL    HW2  725   1.030   4.107   0.754 -0.8025 -0.3842 -0.3200
  127SOL     OW  726   1.840   3.874   1.530  0.2375 -0.3613 -0.2851
  127SOL    HW1  727   1.910   3.922   1.575  0.3932 -0.7263 -0.1291
  127SOL    HW2  728   1.765   3.879   1.590 -0.3424  1.2936 -1.1094
  128SOL     OW  729   2.109   1.207   1.425 -0.5923 -0.1865 -0.6525
  128SOL    HW1  730   2.050   1.230   1.354  0.4026  0.1828 -1.3939
  128SOL    HW2  731   2.134   1.291   1.464 -0.5877 -0.3406 -0.3145
  129SOL     OW  732   0.957   1.940   2.543  0.4476  0.2402  0.4865
  129SOL    HW1  733   0.976   1.952   2.450  0.1542 -0.2688  0.3596
  129SOL    HW2  734   0.989   1.852   2.563 -0.0284  0.1200  0.7298
  130SOL     OW  735   0.995   4.343   3.439 -0.4995  0.0884 -0.2775
  130SOL    HW1  736   1.064   4.409   3.447 -1.0012  0.7905 -1.4882
  130SOL    HW2  737   1.026   4.282   3.373 -0.4671 -0.3572  0.1399
  131SOL     OW  738   3.474   1.636   3.122 -0.0170  1.1075  0.0870
  131SOL    HW1  739   3.455   1.683   3.041 -1.1806 -0.2877 -0.4971
  131SOL    HW2  740   3.431   1.551   3.111  0.2001  0.7077  1.9789
  132SOL     OW  741   0.825   2.827   1.225 -0.0994 -0.0655  0.1815
  132SOL    HW1  742   0.841   2.916   1.195  0.0125  0.2032  1.0058
  132SOL    HW2  743   0.754   2.835   1.289 -1.0017 -0.7511 -0.6930
  133SOL     OW  744   0.492   0.117   1.750  0.0772  0.4592 -0.4358
  133SOL    HW1  745   0.426   0.177   1.714  0.2082  0.9462  0.1088
  133SOL    HW2  746   0.573   0.168   1.750  0.4032 -0.0553 -0.8736
  134SOL     OW  747   3.304   2.421   2.711 -0.2248  0.4084 -0.4511
  134SOL    HW1  748   3.229   2.422   2.770  0.1781  1.4343  0.0528
  134SOL    HW2  749   3.342   2.334   2.723  0.7841  1.1224  1.9922
  135SOL     OW  750   3.267   3.918   1.038  0.4961 -0.3385 -0.4441
  135SOL    HW1  751   3.217   3.942   0.959 -1.2272  1.8758  1.1768
  135SOL    HW2  752   3.200   3.895   1.102  1.6326  1.0168  1.3107
  136SOL     OW  753   0.631   3.650   2.503 -0.2289 -0.6284 -0.4842
  136SOL    HW1  754   0.649   3.596   2.426 -1.1093  0.0344 -1.1798
  136SOL    HW2  755   0.676   3.605   2.575  1.6849 -0.5827 -1.5795
  137SOL     OW  756   1.877   1.918   2.318  0.1763 -0.1205 -0.2510
  137SOL    HW1  757   1.863   1.971   2.239  0.8720  0.0286 -0.2824
  137SOL    HW2  758   1.953   1.957   2.360 -0.3587 -0.0184  0.6576
  138SOL     OW  759   1.651   2.196   0.652 -0.3872  0.2431  0.1052
  138SOL    HW1  760   1.735   2.207   0.697 -1.3570  0.9203  1.8376
  138SOL    HW2  761   1.661   2.114   0.603  1.3059  0.3668  0.1720
  139SOL     OW  762   2.270   3.902   3.605  0.2232  0.3753 -0.0917
  139SOL    HW1  763   2.271   3.984   3.653  1.0910  1.0366 -1.1838
  139SOL    HW2  764   2.333   3.847   3.651  0.2881  0.6343  0.1310
  140SOL     OW  765   3.552   3.959   0.733 -0.0498 -0.1164  0.3510
  140SOL    HW1  766   3.533   3.866   0.718 -0.1096 -0.1584  0.6613
  140SOL    HW2  767   3.613   3.983   0.664 -0.4707 -0.2421 -0.0718
  141SOL     OW  768   1.483   0.296   3.538 -0.0493  0.0299 -0.3641
  141SOL    HW1  769   1.399   0.338   3.520 -0.0056  0.2763  0.0078
  141SOL    HW2  770   1.521   0.281   3.451 -1.1789 -1.5504 -0.6324
  142SOL     OW  771   0.650   2.918   1.409 -0.1473 -0.4053 -0.4748
  142SOL    HW1  772   0.676   2.995   1.459 -0.1395  0.1391 -1.3023
  142SOL    HW2  773   0.612   2.859   1.474 -2.1901  1.1769 -0.1075
  143SOL     OW  774   4.211   1.793   1.188  0.1630 -0.6228 -0.5940
  143SOL    HW1  775   4.144   1.747   1.138  0.0479  0.6569 -1.6732
  143SOL    HW2  776   4.174   1.880   1.204  0.7020 -0.5995  0.6738
  144SOL     OW  777   2.468   1.062   1.945 -0.4085 -0.2287  0.2892
  144SOL    HW1  778   2.501   1.085   2.032  0.4731 -3.0507  0.8192
  144SOL    HW2  779   2.420   0.980   1.958 -0.9277 -0.3140 -1.7672
  145SOL     OW  780   1.780   1.186   3.032  0.0388 -0.2117  0.4798
  145SOL    HW1  781   1.848   1.176   3.098 -0.2657  0.4138  0.8987
  145SOL    HW2  782   1.786   1.278   3.005 -1.4059  0.1843  1.3874
  146SOL     OW  783   1.909   2.973   1.632  0.4896 -0.0302  0.2013
  146SOL    HW1  784   1.947   3.004   1.550 -0.8404  1.0046 -0.0476
  146SOL    HW2  785   1.831   3.027   1.645 -0.0241 -1.0258  1.5034
  147SOL     OW  786   3.827   4.243   1.506  0.0139  0.0775  0.0493
  147SOL    HW1  787   3.902   4.277   1.555 -0.1241  1.6310 -0.7634
  147SOL    HW2  788   3.860   4.231   1.417 -0.3423 -0.5448 -0.0025
  148SOL     OW  789   1.181   1.467   0.455  0.1089  0.2974 -0.6895
  148SOL    HW1  790   1.177   1.441   0.363 -1.8103 -0.0796 -0.5476
  148SOL    HW2  791   1.233   1.399   0.497 -2.7426 -2.1502 -0.7631
  149SOL     OW  792   0.507   1.864   2.823 -0.0462 -0.1250  0.0136
  149SOL    HW1  793   0.498   1.875   2.729 -0.9036  0.8402  0.1931
  149SOL    HW2  794   0.418   1.850   2.855  0.2797 -0.8103  0.6392
  150SOL     OW  795   4.077   1.219   1.483 -0.3557  0.1681 -0.2444
  150SOL    HW1  796   4.053   1.272   1.559 -1.8253 -1.1502  0.2559
  150SOL    HW2  797   4.165   1.249   1.459 -0.2902  1.3186  1.3338
  151SOL     OW  798   1.983   2.541   1.039  0.3652  0.4702  0.0708
  151SOL    HW1  799   2.055   2.579   0.989 -0.0205 -0.7336 -1.4784
  151SOL    HW2  800   2.017   2.456   1.067  0.1198  0.6059  0.7900
  152SOL     OW  801   1.718   2.579   2.278 -0.0130  0.3655 -0.2091
  152SOL    HW1  802   1.787   2.565   2.213 -1.2116  0.1727 -1.4886
  152SOL    HW2  803   1.638   2.588   2.226 -0.9449  0.6728  1.2302
  153SOL     OW  804   0.226   3.302   2.466 -0.2335  0.2820 -0.2696
  153SOL    HW1  805   0.221   3.351   2.384 -0.3211  1.8203  0.6271
  153SOL    HW2  806   0.220   3.368   2.535 -0.0613 -0.9618  0.9964
  154SOL     OW  807   3.149   1.600   3.279  0.2021 -0.3655  0.5697
  154SOL    HW1  808   3.238   1.631   3.297  0.3876 -0.2711 -0.4281
  154SOL    HW2  809   3.109   1.590   3.365  0.2989  2.1894  0.9993
  155SOL     OW  810   0.612   2.363   3.626  0.0999 -0.1444 -0.8532
  155SOL    HW1  811   0.690   2.367   3.571  0.2659 -0.6589 -0.6639
  155SOL    HW2  812   0.539   2.357   3.564  0.1892  0.6069 -1.0325
  156SOL     OW  813   1.438   1.338   4.346  0.2839 -0.4520  0.3923
  156SOL    HW1  814   1.464   1.301   4.262  2.8027  0.7463  0.5618
  156SOL    HW2  815   1.456   1.268   4.409 -2.9257 -1.8906 -0.0605
  157SOL     OW  816   4.051   3.230   2.405  0.1997 -0.0848  0.2455
  157SOL    HW1  817   4.095   3.313   2.424  1.5672 -0.6319 -0.3955
  157SOL    HW2  818   4.112   3.182   2.349 -1.1261 -0.9945 -0.4929
  158SOL     OW  819   4.026   2.550   4.341  0.1041 -0.3317 -0.0590
  158SOL    HW1  820   4.058   2.520   4.426 -2.7315  0.7411  1.4961
  158SOL    HW2  821   3.945   2.502   4.327 -2.1831  3.0778  0.3803
  159SOL     OW  822   3.728   0.793   1.075 -0.6261 -0.2840 -0.3854
  159SOL    HW1  823   3.649   0.742   1.059 -1.0396  0.5758 -1.1939
  159SOL    HW2  824   3.800   0.733   1.056 -1.1018 -0.5721 -1.3245
  160SOL     OW  825   2.498   0.461   2.951 -0.3878  0.1017  0.6320
  160SOL    HW1  826   2.476   0.368   2.956 -2.3815  0.5825  2.2299
  160SOL    HW2  827   2.557   0.476   3.025  2.2193 -0.3313 -1.1989
  161SOL     OW  828   0.105   1.685   1.153 -0.2276 -0.1175 -0.1071
  161SOL    HW1  829   0.016   1.713   1.174 -0.6828 -0.3386 -1.6154
  161SOL    HW2  830   0.107   1.592   1.177 -1.0380 -0.6121 -1.7912
  162SOL     OW  831   3.544   0.657   0.634  0.5815 -0.1612 -0.4895
  162SOL    HW1  832   3.460   0.696   0.658  1.3395  0.9642  0.4594
  162SOL    HW2  833   3.553   0.580   0.690  0.6932  0.3796  0.2509
  163SOL     OW  834   0.738   3.858   0.032  0.3354 -0.1832  0.1418
  163SOL    HW1  835   0.761   3.818  -0.052  1.0673 -0.4699  0.4665
  163SOL    HW2  836   0.722   3.783   0.090 -0.7187  0.0110  0.1247
  164SOL     OW  837   0.788   0.293   2.939  0.1463  0.4391 -0.0287
  164SOL    HW1  838   0.761   0.369   2.991 -1.3724 -0.6944  0.9031
  164SOL    HW2  839   0.860   0.254   2.989 -1.2954 -0.6365  1.3062
  165SOL     OW  840   1.343   2.069   2.358  0.0794  0.3480 -0.3355
  165SOL    HW1  841   1.411   2.135   2.365  0.4820  0.1602 -1.9300
  165SOL    HW2  842   1.276   2.109   2.302 -0.9650  0.3953  0.9159
  166SOL     OW  843   1.939   1.651   4.345 -0.3128  0.2388  0.1794
  166SOL    HW1  844   1.844   1.644   4.336 -0.2819 -0.8934  0.6088
  166SOL    HW2  845   1.966   1.566   4.379  0.7783  0.7935  0.7301
  167SOL     OW  846   4.066   3.844   1.149 -0.0382  0.1236  0.2288
  167SOL    HW1  847   4.149   3.826   1.193  0.5137  1.3789 -0.2491
  167SOL    HW2  848   4.078   3.812   1.060  0.0638  0.5753  0.0730
  168SOL     OW  849   0.144   3.519   2.871  0.5497  0.3215 -0.3550
  168SOL    HW1  850   0.095   3.478   2.800 -1.9639  2.9811 -0.3193
  168SOL    HW2  851   0.212   3.571   2.827 -0.3763  1.1844 -0.7900
  169SOL     OW  852   0.203   3.111   0.043 -0.3009  0.2926 -0.2484
  169SOL    HW1  853   0.278   3.053   0.057  0.8071  1.3846 -1.3315
  169SOL    HW2  854   0.141   3.058  -0.007 -0.5546 -0.8353  1.2275
  170SOL     OW  855   1.774   2.514   3.001 -0.1829 -0.4501 -0.5488
  170SOL    HW1  856   1.744   2.565   2.926 -0.5895  1.6363  0.9614
  170SOL    HW2  857   1.850   2.561   3.034 -1.7066  0.4195  2.0508
  171SOL     OW  858   1.839   3.382   2.440 -0.0782 -1.0579  0.0910
  171SOL    HW1  859   1.824   3.449   2.506 -0.8914 -0.0350 -1.0804
  171SOL    HW2  860   1.881   3.428   2.367  0.3857 -2.0608 -0.3107
  172SOL     OW  861   2.093   1.362   1.779  0.7517 -0.0167  0.0115
  172SOL    HW1  862   2.174   1.319   1.806  0.3391  0.2325  1.7968
  172SOL    HW2  863   2.113   1.401   1.694  2.5380  0.1390  0.4720
  173SOL     OW  864   0.605   1.893   4.146  0.4384  0.5131 -0.5989
  173SOL    HW1  865   0.607   1.870   4.053  1.8286  1.6617 -0.8879
  173SOL    HW2  866   0.675   1.840   4.185 -0.9389 -0.8992  0.0722
  174SOL     OW  867   3.081   4.062   1.989 -0.1062 -0.1827  0.2552
  174SOL    HW1  868   3.008   4.039   2.046  0.0759 -1.1511  0.1170
  174SOL    HW2  869   3.150   4.000   2.012  0.8242  0.9628  0.6475
  175SOL     OW  870   3.925   4.205   4.240 -0.1250  0.2387 -0.1296
  175SOL    HW1  871   3.948   4.271   4.174  0.7319  0.0748  0.0004
  175SOL    HW2  872   3.831   4.219   4.256 -0.2091  0.6597 -0.9541
  176SOL     OW  873   3.333   3.228   2.910  0.2454  0.3873  0.5565
  176SOL    HW1  874   3.278   3.203   2.836  0.5141 -1.4091  0.9176
  176SOL    HW2  875   3.310   3.320   2.927 -1.2590  0.2443 -0.4789
  177SOL     OW  876   0.494   2.857   1.662  0.3875 -0.5466 -0.0315
  177SOL    HW1  877   0.443   2.906   1.726 -1.2300 -1.5844 -0.4834
  177SOL    HW2  878   0.579   2.842   1.705  0.7464  2.0950  0.3257
  178SOL     OW  879   2.256   3.021   4.034  0.2778 -0.1459 -0.0360
  178SOL    HW1  880   2.311   3.048   4.107  0.9263 -0.3972 -0.4279
  178SOL    HW2  881   2.190   3.091   4.026  0.0727 -0.2216  0.9109
  179SOL     OW  882   2.541   2.835   3.356  0.5491 -0.5910 -0.6567
  179SOL    HW1  883   2.541   2.855   3.262  1.7577 -1.9248 -0.9763
  179SOL    HW2  884   2.529   2.920   3.398 -1.2005 -0.0934 -2.0086
  180SOL     OW  885   1.983   2.369   0.266 -0.4008  0.5639 -0.1789
  180SOL    HW1  886   2.035   2.294   0.293  1.2522  1.6295 -0.2356
  180SOL    HW2  887   1.895   2.351   0.299  0.0560 -1.1550  0.2008
  181SOL     OW  888   2.122   2.978   1.843 -0.2679  0.0344 -0.1978
  181SOL    HW1  889   2.045   2.987   1.786 -0.8035 -1.9925  0.1264
  181SOL    HW2  890   2.193   3.020   1.795 -1.7386  3.0457 -0.0034
  182SOL     OW  891   1.568   3.578   3.523  0.0341 -0.1456 -0.0485
  182SOL    HW1  892   1.637   3.540   3.469 -0.4571  1.4817 -1.9429
  182SOL    HW2  893   1.559   3.668   3.491 -2.9167 -0.2571  0.1658
  183SOL     OW  894   1.435   2.782   4.326  0.1196  0.3898  0.5379
  183SOL    HW1  895   1.486   2.854   4.363 -1.2436  0.8608  1.5909
  183SOL    HW2  896   1.500   2.720   4.295  1.3975 -0.0337  3.7243
  184SOL     OW  897   0.156   1.198   3.779 -0.0288  0.2066 -0.5630
  184SOL    HW1  898   0.147   1.129   3.714 -1.6664  1.0152 -1.2348
  184SOL    HW2  899   0.157   1.151   3.863 -0.4975 -0.6708 -1.0356
  185SOL     OW  900   3.384   2.536   2.971 -0.1328 -0.3412 -0.1236
  185SOL    HW1  901   3.401   2.443   2.985  0.5909 -0.1880  0.0838
  185SOL    HW2  902   3.471   2.576   2.974 -0.3929  0.2792 -0.6827
  186SOL     OW  903   2.566   2.914   1.000 -0.8634 -0.2680  0.5733
  186SOL    HW1  904   2.580   2.939   1.091  2.4569 -1.1958  0.4435
  186SOL    HW2  905   2.538   2.823   1.004  1.4937 -1.0709  0.7400
  187SOL     OW  906   2.869   1.052   3.402  0.1108 -0.1135  0.1172
  187SOL    HW1  907   2.894   1.138   3.368 -1.5776  0.6000  0.5432
  187SOL    HW2  908   2.950   1.014   3.435  0.8368  1.5019  0.2928
  188SOL     OW  909   2.819   1.721   0.234 -0.3196  0.2803  0.5968
  188SOL    HW1  910   2.906   1.747   0.264 -0.1182  2.0090 -1.2834
  188SOL    HW2  911   2.825   1.723   0.139 -1.4483 -3.0977  0.3093
  189SOL     OW  912   3.997   0.253   3.127  0.3376 -0.0171  0.0836
  189SOL    HW1  913   4.079   0.204   3.135  0.6588  0.4862 -0.0472
  189SOL    HW2  914   4.007   0.303   3.046  0.1552  0.5149  0.3824
  190SOL     OW  915   0.583   0.289   0.451 -0.2952  0.3968  0.1220
  190SOL    HW1  916   0.587   0.244   0.535  0.9230  1.8693  0.8970
  190SOL    HW2  917   0.649   0.358   0.457 -0.2524  0.6209 -2.0072
  191SOL     OW  918   3.698   0.288   2.109  0.4470  0.1179 -0.3874
  191SOL    HW1  919   3.694   0.216   2.172 -0.0261 -0.3855 -0.9722
  191SOL    HW2  920   3.791   0.300   2.092  0.5018 -1.7235 -1.7689
  192SOL     OW  921   3.872   2.948   2.521 -0.6080  0.1802  0.8384
  192SOL    HW1  922   3.795   3.005   2.524 -0.5480  0.2851  0.4261
  192SOL    HW2  923   3.840   2.864   2.556 -1.2417 -0.1462 -0.4441
  193SOL     OW  924   2.804   1.001   2.584 -0.0861  0.5612  0.0652
  193SOL    HW1  925   2.791   0.926   2.642  2.2423 -1.1732 -1.4607
  193SOL    HW2  926   2.716   1.027   2.558 -1.0170 -2.5742 -0.3688
  194SOL     OW  927   4.056   1.832   0.678 -0.3486  0.4058 -0.3213
  194SOL    HW1  928   4.136   1.805   0.723  0.2594  1.0973 -0.9534
  194SOL    HW2  929   4.033   1.915   0.719 -0.6143  0.3189 -0.2940
  195SOL     OW  930   1.086   2.165   2.106  0.6116  0.3413 -0.1021
  195SOL    HW1  931   1.102   2.258   2.122  2.5627 -0.1676  1.3221
  195SOL    HW2  932   1.108   2.153   2.014 -1.0525  1.5117 -0.7040
  196SOL     OW  933   1.422   1.750   0.445  0.2748 -0.4884 -0.3015
  196SOL    HW1  934   1.357   1.766   0.377  1.7500  1.2970 -1.3965
  196SOL    HW2  935   1.371   1.725   0.522 -2.0044  3.0454 -0.3987
  197SOL     OW  936   4.100   4.245   1.619 -0.0164 -0.2044 -0.3292
  197SOL    HW1  937   4.124   4.242   1.527 -0.4287 -0.7861 -0.4199
  197SOL    HW2  938   4.113   4.156   1.651  3.5011  0.6286  1.0641
  198SOL     OW  939   3.504   0.214   1.664  0.3022 -0.4895 -0.6689
  198SOL    HW1  940   3.595   0.243   1.663  0.5305 -1.1885 -0.4048
  198SOL    HW2  941   3.508   0.119   1.664 -0.3844 -0.5649  1.5348
  199SOL     OW  942   0.879   3.886   1.299 -0.7491 -0.3479  0.0501
  199SOL    HW1  943   0.965   3.929   1.295 -0.5589 -0.1593  3.3308
  199SOL    HW2  944   0.816   3.957   1.291 -0.5083 -0.0591  0.5969
  200SOL     OW  945   0.720   1.098   2.271 -0.0393  0.4502  0.5980
  200SOL    HW1  946   0.787   1.031   2.285  1.9449  2.2667  0.4353
  200SOL    HW2  947   0.725   1.153   2.350 -0.5669  1.2448  0.0865
  201SOL     OW  948   1.288   3.035   2.514 -0.2688 -0.0276  0.0200
  201SOL    HW1  949   1.255   3.109   2.565 -0.0664 -0.6006  1.0246
  201SOL    HW2  950   1.235   3.035   2.434 -1.3143  0.2996  0.6871
  202SOL     OW  951   2.997   4.070   1.716 -0.0978 -0.1295 -0.0382
  202SOL    HW1  952   3.004   4.077   1.812 -0.4966  1.2631 -0.0905
  202SOL    HW2  953   2.963   3.982   1.701 -1.1383  0.0358  1.1632
  203SOL     OW  954   3.907   3.339   2.880  0.3979 -0.3917 -0.0573
  203SOL    HW1  955   3.999   3.318   2.870  0.5018 -0.0808  0.2090
  203SOL    HW2  956   3.893   3.344   2.975  0.4523  0.9848 -0.0890
  204SOL     OW  957   1.129   2.453   1.020 -0.1577 -0.4289  0.5362
  204SOL    HW1  958   1.090   2.528   1.066 -1.6127 -0.3332 -0.7502
  204SOL    HW2  959   1.100   2.464   0.929 -0.0881 -2.3662  0.2490
  205SOL     OW  960   0.547   0.896   0.143 -0.4034  0.3812  0.1208
  205SOL    HW1  961   0.527   0.967   0.083 -0.9298 -0.1164 -0.3004
  205SOL    HW2  962   0.573   0.823   0.087 -0.5609  0.0176  0.5143
  206SOL     OW  963   1.544   2.287   0.115  0.0570 -0.0321 -0.9548
  206SOL    HW1  964   1.485   2.259   0.045  1.0803 -0.7946 -1.5563
  206SOL    HW2  965   1.597   2.356   0.076 -0.4290  0.6649 -0.4111
  207SOL     OW  966   2.965   3.272   1.922 -0.2054 -0.0584 -0.0583
  207SOL    HW1  967   2.951   3.358   1.963 -1.3227 -0.4587  0.4273
  207SOL    HW2  968   2.898   3.216   1.960 -1.6325 -0.3572 -2.7764
  208SOL     OW  969   1.292   4.159   3.483  0.0999 -0.1593 -0.0066
  208SOL    HW1  970   1.240   4.116   3.550 -2.2690  3.4129  0.7541
  208SOL    HW2  971   1.239   4.153   3.404  0.1268  0.6090 -0.0879
  209SOL     OW  972   1.289   3.451   3.701  0.0551 -0.1108 -0.0125
  209SOL    HW1  973   1.356   3.412   3.644  0.4745 -0.9559  1.0159
  209SOL    HW2  974   1.308   3.545   3.700  1.3795 -0.3530  0.3960
  210SOL     OW  975   3.216   3.088   2.431 -0.2753  0.3593  0.0110
  210SOL    HW1  976   3.307   3.061   2.418  0.6201  1.6734  2.7633
  210SOL    HW2  977   3.212   3.177   2.397 -0.5741  0.2561 -0.2266
  211SOL     OW  978   2.779   2.646   1.319  0.2054  0.1394  0.3561
  211SOL    HW1  979   2.781   2.741   1.314 -2.7581  0.4505  2.5814
  211SOL    HW2  980   2.773   2.627   1.412 -0.7327 -2.1584 -0.1061
  212SOL     OW  981   1.161   0.130   0.612 -0.9733 -0.4685  0.7924
  212SOL    HW1  982   1.083   0.159   0.564 -0.2413  0.2845 -0.0016
  212SOL    HW2  983   1.216   0.209   0.616  0.2645 -1.2731  0.2539
  213SOL     OW  984   0.749   0.606   3.045 -0.6550 -0.4361 -0.0224
  213SOL    HW1  985   0.692   0.653   3.106  0.1579  0.4052  0.1091
  213SOL    HW2  986   0.737   0.652   2.961 -1.0859 -1.0252 -0.2935
  214SOL     OW  987   3.916   2.974   3.575  0.0374 -0.2371  0.0407
  214SOL    HW1  988   3.867   3.052   3.603 -1.1916 -1.6281  2.0131
  214SOL    HW2  989   3.857   2.930   3.514  0.9040  0.5494 -1.3999
  215SOL     OW  990   4.276   3.450   1.675 -0.4578  0.2079  0.9219
  215SOL    HW1  991   4.300   3.414   1.761  2.1505  1.1704  0.6755
  215SOL    HW2  992   4.353   3.435   1.621 -1.9978 -0.2291 -1.2671
  216SOL     OW  993   1.187   3.755   4.268 -0.2168  0.0789  0.2394
  216SOL    HW1  994   1.211   3.748   4.360 -0.9722  0.4900  0.4753
  216SOL    HW2  995   1.222   3.675   4.228 -0.2126 -0.2882  0.9565
  217SOL     OW  996   4.118   4.016   1.773 -0.4723 -0.2030 -0.4784
  217SOL    HW1  997   4.199   4.004   1.823 -0.3012  0.5352 -0.5551
  217SOL    HW2  998   4.097   3.930   1.738 -0.6940 -0.7814  1.0074
  218SOL     OW  999   3.656   4.073   0.477  0.1094 -0.3293  0.4193
  218SOL    HW1 1000   3.738   4.045   0.436  0.0668 -0.5940  0.5122
  218SOL    HW2 1001   3.603   4.107   0.405 -1.0585 -3.2812 -0.2698
  219SOL     OW 1002   1.209   1.154   3.913 -0.4412 -0.1588 -0.2437
  219SOL    HW1 1003   1.282   1.143   3.974 -1.0170 -0.0833  0.4804
  219SOL    HW2 1004   1.175   1.065   3.901  0.4558 -0.3558 -1.4726
  220SOL     OW 1005   4.076   2.246   3.077  0.8978  0.3641  0.0977
  220SOL    HW1 1006   4.099   2.292   2.997 -0.7272 -0.7980 -1.0954
  220SOL    HW2 1007   3.995   2.288   3.106  1.0036  0.1973  0.6447
  221SOL     OW 1008   2.945   2.859   4.087  0.0413 -0.2914 -0.2227
  221SOL    HW1 1009   2.931   2.887   3.996 -4.0067 -0.0018  0.3102
  221SOL    HW2 1010   2.957   2.764   4.080  0.5255 -0.1855 -1.0754
  222SOL     OW 1011   3.720   2.793   1.173 -0.1935 -0.0605 -0.3869
  222SOL    HW1 1012   3.780   2.805   1.247  0.0177 -0.2694 -0.5258
  222SOL    HW2 1013   3.721   2.878   1.128 -1.0926  0.3946  0.4199
  223SOL     OW 1014   1.911   3.148   0.278  0.6712 -0.2505 -0.1533
  223SOL    HW1 1015   1.845   3.213   0.252 -1.0310 -1.5046  0.7966
  223SOL    HW2 1016   1.921   3.161   0.373  0.6624 -1.0495 -0.0369
  224SOL     OW 1017   2.955   2.124   1.156  0.0924 -0.2776 -0.1488
  224SOL    HW1 1018   2.985   2.065   1.087 -2.8491 -1.7366 -0.3146
  224SOL    HW2 1019   2.922   2.201   1.110 -0.1791 -0.4417 -0.2246
  225SOL     OW 1020   3.736   1.544   3.329  0.2488 -0.5168  0.3647
  225SOL    HW1 1021   3.642   1.530   3.328 -0.0142  1.1044  0.1456
  225SOL    HW2 1022   3.772   1.462   3.364 -1.2902 -0.8542  1.2470
  226SOL     OW 1023   1.265   3.253   0.116 -0.3285 -0.6841  0.2447
  226SOL    HW1 1024   1.278   3.273   0.209 -0.7347  1.0652 -0.0373
  226SOL    HW2 1025   1.352   3.252   0.079 -0.2997  1.1140  0.2010
  227SOL     OW 1026   1.678   3.007   4.014  0.0411  0.3006  0.5900
  227SOL    HW1 1027   1.666   2.984   3.922  0.8306 -0.5278  0.6813
  227SOL    HW2 1028   1.747   3.073   4.012  0.8554 -0.5201  0.6517
  228SOL     OW 1029   1.233   1.624   1.010 -0.0873 -0.6496  0.3389
  228SOL    HW1 1030   1.228   1.594   1.101  1.8893  0.1639  0.7779
  228SOL    HW2 1031   1.299   1.694   1.012 -1.5919  0.9217 -1.3487
  229SOL     OW 1032   3.848   3.375   2.583  0.2722  0.3733  0.3079
  229SOL    HW1 1033   3.902   3.335   2.515  2.1793  0.2854  1.7995
  229SOL    HW2 1034   3.872   3.467   2.582 -0.1878  0.4990  0.4276
  230SOL     OW 1035   3.450   2.299   3.041  0.5578  0.3395  0.0513
  230SOL    HW1 1036   3.494   2.277   3.123  0.6392 -0.2739 -0.1507
  230SOL    HW2 1037   3.391   2.226   3.025  0.6264  0.3980 -0.4947
  231SOL     OW 1038   1.416   3.191   0.720  0.0740 -0.8194  0.0508
  231SOL    HW1 1039   1.416   3.095   0.722  0.6031 -0.8182  0.4439
  231SOL    HW2 1040   1.391   3.216   0.809  0.3654 -0.5978  0.0713
  232SOL     OW 1041   2.904   3.898   3.076 -0.6835  0.6462  0.2311
  232SOL    HW1 1042   2.903   3.985   3.035 -0.6629 -0.2924 -1.8615
  232SOL    HW2 1043   2.825   3.897   3.130 -1.6222  1.3645 -1.0639
  233SOL     OW 1044   2.037   1.874   2.642 -0.1422 -0.0263  0.1862
  233SOL    HW1 1045   2.015   1.959   2.604 -2.1702 -0.8173 -0.5891
  233SOL    HW2 1046   2.061   1.820   2.568  0.7364 -0.2710  0.6337
  234SOL     OW 1047   2.593   0.447   3.862  0.6327 -0.0081 -0.3369
  234SOL    HW1 1048   2.513   0.465   3.912  0.3263  0.0911 -0.8488
  234SOL    HW2 1049   2.664   0.472   3.920  0.2706  0.6139 -0.1550
  235SOL     OW 1050   4.204   1.176   3.099 -0.0751  0.5867  0.0429
  235SOL    HW1 1051   4.166   1.150   3.183  2.3779 -0.0923  1.0066
  235SOL    HW2 1052   4.138   1.149   3.034 -0.8382 -1.4320  1.5510
  236SOL     OW 1053   0.611   0.927   3.696 -0.2606  0.6504  0.5629
  236SOL    HW1 1054   0.574   0.898   3.779  1.0986 -0.2182  0.9056
  236SOL    HW2 1055   0.546   0.902   3.631  0.4497 -2.6120  0.9199
  237SOL     OW 1056   4.262   0.264   1.952 -0.0401  0.2175 -0.2683
  237SOL    HW1 1057   4.217   0.344   1.925 -4.5844 -2.0140 -0.2744
  237SOL    HW2 1058   4.297   0.228   1.871  1.0568  1.5799 -0.4338
  238SOL     OW 1059   1.793   2.561   0.411 -0.3794 -0.4384 -0.1290
  238SOL    HW1 1060   1.749   2.479   0.388  1.2325 -1.7781  1.3619
  238SOL    HW2 1061   1.742   2.595   0.484  0.0574 -1.1012  0.4894
  239SOL     OW 1062   1.685   2.002   2.939  0.6730 -0.2881  0.5165
  239SOL    HW1 1063   1.729   1.929   2.897 -0.0644 -0.7008  0.4515
  239SOL    HW2 1064   1.727   2.080   2.902 -0.4462 -0.6059 -1.5944
  240SOL     OW 1065   0.376   1.265   1.454 -0.1250  0.6552 -0.0917
  240SOL    HW1 1066   0.305   1.277   1.516  0.2703 -2.2168  1.0351
  240SOL    HW2 1067   0.336   1.218   1.381  0.4826 -0.5675  0.3438
  241SOL     OW 1068   0.395   1.813   3.849  0.1295  0.4680  0.5467
  241SOL    HW1 1069   0.490   1.799   3.851  0.1969  0.9237  0.4773
  241SOL    HW2 1070   0.383   1.902   3.882 -0.3427  0.0808  1.4486
  242SOL     OW 1071   4.290   3.297   1.266  0.8355 -0.1283  0.2790
  242SOL    HW1 1072   4.271   3.295   1.172  1.9514  0.4705  0.0221
  242SOL    HW2 1073   4.375   3.340   1.272  0.4644  0.4626  1.6179
  243SOL     OW 1074   0.877   3.856   1.983  0.0183 -0.3183  0.2451
  243SOL    HW1 1075   0.951   3.893   2.032 -0.7691  2.0853 -0.2177
  243SOL    HW2 1076   0.905   3.859   1.892 -0.1746 -0.5726  0.1792
  244SOL     OW 1077   3.024   1.021   2.456 -0.0308  0.7151 -0.2952
  244SOL    HW1 1078   2.951   1.024   2.517 -0.5988 -1.0174 -0.8176
  244SOL    HW2 1079   3.066   0.936   2.473  0.6291  0.8050 -1.3674
  245SOL     OW 1080   3.877   4.103   3.807  0.3202 -0.0074  0.3912
  245SOL    HW1 1081   3.863   4.034   3.742  2.3666  0.9279 -1.1459
  245SOL    HW2 1082   3.832   4.179   3.770  1.9808  0.6852 -0.3073
  246SOL     OW 1083   0.164   2.844   0.604 -0.1335 -0.0995  0.3277
  246SOL    HW1 1084   0.137   2.761   0.564  1.7009 -0.1341 -0.9586
  246SOL    HW2 1085   0.092   2.904   0.586 -0.1952 -0.6439 -1.3696
  247SOL     OW 1086   2.459   0.682   3.234  0.3762  0.4417 -0.1658
  247SOL    HW1 1087   2.451   0.611   3.297  0.2915  0.1774 -0.4741
  247SOL    HW2 1088   2.546   0.670   3.195  0.3989  0.5605 -0.1531
  248SOL     OW 1089   1.655   2.701   0.592 -0.3569  0.0824  0.1906
  248SOL    HW1 1090   1.685   2.787   0.624 -0.6543  0.9384 -1.6953
  248SOL    HW2 1091   1.598   2.668   0.661  0.8441  0.7681  1.5644
  249SOL     OW 1092   1.305   0.087   2.993 -1.0478 -0.0475  0.2789
  249SOL    HW1 1093   1.348   0.172   2.983 -2.4077  0.6916  0.5110
  249SOL    HW2 1094   1.337   0.053   3.076 -1.8815  1.1047  1.1107
  250SOL     OW 1095   4.159   1.002   3.869 -0.3243  0.0221  0.4441
  250SOL    HW1 1096   4.244   0.958   3.862  0.3906  1.3071  0.7857
  250SOL    HW2 1097   4.170   1.082   3.819 -1.9281 -0.6037 -1.0008
  251SOL     OW 1098   2.524   3.623   4.084  0.6148  0.0168  0.4682
  251SOL    HW1 1099   2.474   3.552   4.125  1.6649 -2.0617 -1.6280
  251SOL    HW2 1100   2.610   3.585   4.066  0.2950  0.7581 -3.4206
  252SOL     OW 1101   3.224   0.397   1.819  0.6549  0.7156  0.4045
  252SOL    HW1 1102   3.152   0.339   1.795  1.8148 -0.3444 -0.6023
  252SOL    HW2 1103   3.182   0.483   1.830 -0.5981  0.3505 -1.1762
  253SOL     OW 1104   2.814   3.630   0.738 -0.2969  0.3562 -0.0731
  253SOL    HW1 1105   2.763   3.711   0.734 -1.5293 -0.4417 -2.3929
  253SOL    HW2 1106   2.796   3.586   0.656  2.5883 -0.9849 -0.1283
  254SOL     OW 1107   3.499   3.401   0.313 -0.2119 -0.1568  0.1393
  254SOL    HW1 1108   3.444   3.473   0.347  0.8750  1.2572 -0.9763
  254SOL    HW2 1109   3.459   3.322   0.350 -1.8847  0.9462  0.8556
  255SOL     OW 1110   0.455   4.179   1.032 -0.1593 -0.5776  0.0079
  255SOL    HW1 1111   0.374   4.168   1.083 -1.4531 -2.0543 -2.2045
  255SOL    HW2 1112   0.500   4.252   1.075 -3.6785  1.7875  0.0797
  256SOL     OW 1113   4.291   1.217   1.144 -0.1306  0.0241  0.3762
  256SOL    HW1 1114   4.202   1.233   1.110  0.7142  0.0487 -2.0567
  256SOL    HW2 1115   4.289   1.125   1.171 -0.8610 -0.0138  0.2229
  257SOL     OW 1116   2.727   2.159   0.932 -0.4249 -0.3496  0.1391
  257SOL    HW1 1117   2.669   2.088   0.904  0.0967 -0.4466 -0.7324
  257SOL    HW2 1118   2.814   2.119   0.935  0.0112  0.4329 -1.1868
  258SOL     OW 1119   0.916   0.848   0.651  0.1085  0.5356  0.4759
  258SOL    HW1 1120   0.837   0.814   0.693  0.1483  0.1649  0.2571
  258SOL    HW2 1121   0.889   0.867   0.561 -0.6739  3.7735  1.2664
  259SOL     OW 1122   2.805   0.018   0.067  0.0488 -0.2095  0.0030
  259SOL    HW1 1123   2.810   0.033   0.161  0.4147 -1.6355  0.2450
  259SOL    HW2 1124   2.888   0.051   0.032  0.3186 -0.5514  0.3219
  260SOL     OW 1125   3.583   3.536   2.597  0.1174 -0.3408  0.1987
  260SOL    HW1 1126   3.613   3.490   2.518  0.0065  1.6693 -1.0806
  260SOL    HW2 1127   3.658   3.589   2.624 -0.5886  0.7602  0.0455
  261SOL     OW 1128   0.503   3.497   3.717  0.1427 -0.0075 -0.6189
  261SOL    HW1 1129   0.533   3.538   3.636  2.7165  0.0063  0.2487
  261SOL    HW2 1130   0.575   3.440   3.743 -2.1219 -2.9199 -0.2509
  262SOL     OW 1131   2.359   0.691   0.371 -0.5803  0.0000 -0.4569
  262SOL    HW1 1132   2.296   0.662   0.304 -0.1322  1.2304 -1.4549
  262SOL    HW2 1133   2.362   0.786   0.361 -0.7283  0.2483  1.5571
  263SOL     OW 1134   0.501   2.478   2.548 -0.2190 -0.2994  0.0151
  263SOL    HW1 1135   0.520   2.551   2.608 -0.6124 -0.8725  0.8520
  263SOL    HW2 1136   0.498   2.401   2.604  0.1816 -0.9685 -0.8674
  264SOL     OW 1137   1.200   2.404   3.802 -0.1804 -0.0500  0.1673
  264SOL    HW1 1138   1.164   2.445   3.880 -0.6397  1.1888 -0.6567
  264SOL    HW2 1139   1.140   2.331   3.784 -1.7597  1.3379 -0.5699
  265SOL     OW 1140   2.295   1.686   1.081  0.0761 -0.0133  0.2042
  265SOL    HW1 1141   2.367   1.682   1.018  0.9801  0.2752  1.1772
  265SOL    HW2 1142   2.268   1.595   1.092  0.9975 -0.2554  0.5801
  266SOL     OW 1143   2.597   2.658   4.361  0.1137 -0.0739 -1.0614
  266SOL    HW1 1144   2.566   2.661   4.451 -0.3292  2.7623 -1.2082
  266SOL    HW2 1145   2.530   2.609   4.314 -1.4038  1.2912 -0.4056
  267SOL     OW 1146   1.766   0.886   0.356  0.2374 -0.5390  0.0959
  267SOL    HW1 1147   1.723   0.805   0.384 -1.2857  0.1341 -0.1585
  267SOL    HW2 1148   1.737   0.897   0.265  1.7055 -0.5127 -0.3837
  268SOL     OW 1149   3.102   1.410   2.027  0.2259  0.2369  0.7174
  268SOL    HW1 1150   3.109   1.428   2.121 -0.4825  0.7100  0.6861
  268SOL    HW2 1151   3.062   1.489   1.991  1.5507  0.5301 -0.1579
  269SOL     OW 1152   3.267   1.576   2.251  0.3906 -0.0880 -0.0424
  269SOL    HW1 1153   3.245   1.659   2.208 -1.0069  0.0819  0.9030
  269SOL    HW2 1154   3.184   1.548   2.292  1.4694 -0.5323  1.9724
  270SOL     OW 1155   2.791   3.077   2.937  0.0885  0.0829  0.4473
  270SOL    HW1 1156   2.777   3.004   2.997  1.3882 -1.1522 -0.6887
  270SOL    HW2 1157   2.787   3.155   2.993 -1.2785 -0.8261  1.6863
  271SOL     OW 1158   3.467   4.184   0.297  0.2301  0.1348  0.1735
  271SOL    HW1 1159   3.473   4.230   0.213  3.8620 -0.8872 -0.3338
  271SOL    HW2 1160   3.422   4.102   0.277  0.3070  0.2775 -0.6138
  272SOL     OW 1161   2.607   2.357   1.052  0.1336  0.2396 -0.0245
  272SOL    HW1 1162   2.672   2.357   1.122 -0.1549 -1.2835  0.2805
  272SOL    HW2 1163   2.656   2.328   0.975 -0.2384 -1.3705  0.3067
  273SOL     OW 1164   1.618   4.165   2.902 -0.2511 -0.1043  0.3745
  273SOL    HW1 1165   1.528   4.134   2.913  0.0377 -1.2810 -0.4310
  273SOL    HW2 1166   1.652   4.115   2.828  0.4852  1.6483 -0.5451
  274SOL     OW 1167   1.826   2.848   1.071  0.2959 -0.5025 -0.0427
  274SOL    HW1 1168   1.864   2.766   1.102  1.4013 -0.2625 -0.7270
  274SOL    HW2 1169   1.839   2.910   1.143 -0.4653 -0.8893  0.4417
  275SOL     OW 1170   0.117   2.808   1.326 -0.1025  0.1123 -0.0833
  275SOL    HW1 1171   0.185   2.857   1.281  1.4465 -1.0125  0.9400
  275SOL    HW2 1172   0.160   2.770   1.402 -2.3172  0.8245  1.6392
  276SOL     OW 1173   0.447   0.362   0.226  0.3957  0.1796 -0.2499
  276SOL    HW1 1174   0.509   0.342   0.296  0.2103 -1.8105 -0.5907
  276SOL    HW2 1175   0.397   0.436   0.258  0.6981 -0.3381  1.4913
  277SOL     OW 1176   3.011   3.930   4.160 -0.1600 -0.1070  0.2654
  277SOL    HW1 1177   3.012   4.026   4.163  1.3660 -0.0817  0.1461
  277SOL    HW2 1178   2.966   3.909   4.079  2.1976  0.6441 -1.3408
  278SOL     OW 1179   1.318   0.521   1.610  0.1273  0.2032  0.6699
  278SOL    HW1 1180   1.252   0.544   1.544 -0.1698  0.3991  1.0289
  278SOL    HW2 1181   1.328   0.601   1.662 -1.0723 -0.5052  2.0723
  279SOL     OW 1182   0.550   2.163   2.675 -0.1325 -0.3511 -0.7053
  279SOL    HW1 1183   0.515   2.124   2.595  0.4479  0.9060 -1.6046
  279SOL    HW2 1184   0.630   2.113   2.694 -0.7396 -1.2216 -0.3944
  280SOL     OW 1185   1.993   0.640   1.927  0.1052 -0.0389  0.2552
  280SOL    HW1 1186   2.059   0.705   1.903 -0.5659  0.2298 -1.0045
  280SOL    HW2 1187   1.924   0.652   1.861 -0.8914 -0.7498  1.1417
  281SOL     OW 1188   2.271   1.452   3.632 -0.4051  0.2058 -0.5166
  281SOL    HW1 1189   2.297   1.523   3.573 -1.2138  1.8235  0.9861
  281SOL    HW2 1190   2.221   1.392   3.577  2.1799 -0.4229 -2.3340
  282SOL     OW 1191   2.674   0.891   2.292  0.3368 -0.2617  0.4599
  282SOL    HW1 1192   2.585   0.867   2.268 -0.5176  1.7738  1.3812
  282SOL    HW2 1193   2.688   0.850   2.378  0.0515 -0.0568  0.6042
  283SOL     OW 1194   0.084   0.188   0.586  0.0528  0.1900  0.2250
  283SOL    HW1 1195   0.163   0.144   0.554  0.0434  1.4749 -1.6729
  283SOL    HW2 1196   0.117   0.265   0.632 -0.0860  0.2511  0.2210
  284SOL     OW 1197   1.330   2.654   0.783  0.0994 -0.0066 -0.7978
  284SOL    HW1 1198   1.371   2.568   0.793 -1.9910 -0.8194  2.3123
  284SOL    HW2 1199   1.240   2.634   0.756  0.1521  1.4001 -2.1796
  285SOL     OW 1200   3.136   3.082   0.330  0.3024 -0.3122  0.0200
  285SOL    HW1 1201   3.106   3.173   0.323  0.9711 -0.1475 -0.9387
  285SOL    HW2 1202   3.056   3.030   0.333 -0.0946  0.3443  1.2075
  286SOL     OW 1203   1.019   0.460   4.028 -0.5261 -1.1967 -0.0039
  286SOL    HW1 1204   1.009   0.516   3.950  0.6356 -0.7603  0.1358
  286SOL    HW2 1205   0.958   0.388   4.014 -2.1935  0.1722 -0.1248
  287SOL     OW 1206   0.700   0.173   2.010  0.4287  0.1010  1.1132
  287SOL    HW1 1207   0.676   0.226   1.934 -0.7555 -1.2715  0.4764
  287SOL    HW2 1208   0.796   0.181   2.016  0.4404  0.9673  0.0352
  288SOL     OW 1209   0.308   3.987   1.439 -0.2003 -0.2673  0.1900
  288SOL    HW1 1210   0.375   4.010   1.503 -0.6551 -0.7313  0.8514
  288SOL    HW2 1211   0.241   4.055   1.448  0.8561  1.0984 -1.5699
  289SOL     OW 1212   2.900   3.791   1.645 -0.4623 -0.1088 -0.5824
  289SOL    HW1 1213   2.966   3.736   1.687 -1.2780 -0.2859  0.4977
  289SOL    HW2 1214   2.832   3.730   1.616  0.5486 -0.1159 -3.1352
  290SOL     OW 1215   4.169   3.277   2.918 -0.2744  0.1337 -0.7542
  290SOL    HW1 1216   4.250   3.310   2.956  0.4142 -1.1193 -1.0966
  290SOL    HW2 1217   4.194   3.244   2.832 -1.2711  0.3114 -1.1263
  291SOL     OW 1218   1.418   2.623   4.070  0.1344  0.4437 -0.0337
  291SOL    HW1 1219   1.380   2.649   3.986 -0.2771  1.6610  0.5083
  291SOL    HW2 1220   1.494   2.679   4.081 -0.3402  0.9407  0.8183
  292SOL     OW 1221   0.533   4.042   3.744 -0.0409  0.4679 -0.4983
  292SOL    HW1 1222   0.451   4.082   3.772  0.2170  0.2504  0.5899
  292SOL    HW2 1223   0.571   4.006   3.824  1.1373  0.6105 -0.9792
  293SOL     OW 1224   2.545   3.591   1.410  0.4289 -0.3027 -0.1906
  293SOL    HW1 1225   2.624   3.554   1.369  0.9040 -0.2223  0.6339
  293SOL    HW2 1226   2.575   3.623   1.495 -0.6352 -0.8384  0.4001
  294SOL     OW 1227   0.960   2.268   3.777  0.0062  0.0756  0.6275
  294SOL    HW1 1228   0.938   2.314   3.696 -0.9078 -1.4499 -0.0208
  294SOL    HW2 1229   0.920   2.321   3.846  0.2416  1.0413  0.0531
  295SOL     OW 1230   0.454   0.794   2.956 -0.6169  0.2401  0.3897
  295SOL    HW1 1231   0.539   0.789   2.910 -1.5017 -2.2298 -1.1710
  295SOL    HW2 1232   0.412   0.871   2.918 -0.2210 -0.1987 -1.0290
  296SOL     OW 1233   2.066   1.214   0.492 -0.1606  0.3769  0.5570
  296SOL    HW1 1234   2.113   1.227   0.575 -2.2942 -0.8653  2.0590
  296SOL    HW2 1235   2.067   1.299   0.450  2.5714  0.6259  0.9252
  297SOL     OW 1236   2.424   1.206   0.888  0.0689  0.4252 -0.0253
  297SOL    HW1 1237   2.414   1.120   0.847 -0.3367 -0.0141  0.9764
  297SOL    HW2 1238   2.344   1.253   0.865  0.7018  0.8958 -1.3736
  298SOL     OW 1239   3.464   0.698   2.973 -0.3686  0.3207 -0.0043
  298SOL    HW1 1240   3.463   0.791   2.996 -0.2260  0.1560  0.6930
  298SOL    HW2 1241   3.472   0.697   2.878 -1.3241  1.0351 -0.1110
  299SOL     OW 1242   2.196   0.626   3.096 -0.0101 -0.4335  0.1304
  299SOL    HW1 1243   2.264   0.674   3.144 -1.8253  1.7152  0.7369
  299SOL    HW2 1244   2.237   0.604   3.012  1.1907  1.5530  0.1231
  300SOL     OW 1245   2.848   2.687   1.865  0.4091  0.4210 -0.1337
  300SOL    HW1 1246   2.828   2.615   1.925  1.6723  1.7312  1.9851
  300SOL    HW2 1247   2.843   2.648   1.778 -0.0823 -1.9180  0.8723
  301SOL     OW 1248   3.105   3.529   0.228  0.3481  0.2362 -0.7773
  301SOL    HW1 1249   3.082   3.445   0.267 -1.9272  0.7026 -0.9828
  301SOL    HW2 1250   3.164   3.507   0.156  0.2013 -1.1266 -0.4949
  302SOL     OW 1251   0.747   3.099   1.793 -0.1374  0.1261  0.8282
  302SOL    HW1 1252   0.706   3.139   1.716  1.1543  2.6178  1.3325
  302SOL    HW2 1253   0.841   3.101   1.773  0.0563 -1.6140  1.4275
  303SOL     OW 1254   0.216   3.510   0.213  0.3238  0.0060  0.0091
  303SOL    HW1 1255   0.152   3.440   0.200 -1.3132  1.8626 -2.9462
  303SOL    HW2 1256   0.182   3.559   0.288  0.0571 -0.7891  0.4266
  304SOL     OW 1257   2.781   1.908   2.890  0.2509  0.8347 -0.6042
  304SOL    HW1 1258   2.767   1.961   2.969 -0.7926 -0.4541  0.1118
  304SOL    HW2 1259   2.695   1.870   2.872  0.9281 -0.4474 -1.2186
  305SOL     OW 1260   3.420   0.430   2.592  0.6001  0.2763  0.2230
  305SOL    HW1 1261   3.437   0.350   2.543 -0.3489  1.2799 -1.8770
  305SOL    HW2 1262   3.504   0.450   2.634  0.7637 -1.9624  1.1001
  306SOL     OW 1263   2.642   2.306   2.264  0.1891 -0.5487 -0.1548
  306SOL    HW1 1264   2.613   2.259   2.342 -0.7189 -0.5450 -0.4796
  306SOL    HW2 1265   2.651   2.397   2.294 -2.1282 -0.1445 -0.4901
  307SOL     OW 1266   0.370   4.096   2.555  0.0990 -0.2326  0.0502
  307SOL    HW1 1267   0.432   4.027   2.532  0.9874  0.2300  0.9493
  307SOL    HW2 1268   0.401   4.128   2.640  0.9418  2.6684 -1.2661
  308SOL     OW 1269   3.125   2.048   1.541 -0.4153 -0.0053 -0.1511
  308SOL    HW1 1270   3.053   2.032   1.480 -0.7995  2.0998 -0.3395
  308SOL    HW2 1271   3.160   1.961   1.560 -2.5497 -1.0320 -0.5876
  309SOL     OW 1272   0.033   0.336   0.988 -0.0078  0.2795 -0.4736
  309SOL    HW1 1273   0.048   0.406   1.051 -0.2514  0.0609 -0.1683
  309SOL    HW2 1274  -0.062   0.334   0.976  0.1626  1.7730 -2.5249
  310SOL     OW 1275   3.483   4.082   1.386 -0.1568 -0.0373  0.5731
  310SOL    HW1 1276   3.481   3.990   1.361 -1.0376  0.2427 -0.4607
  310SOL    HW2 1277   3.427   4.126   1.322  0.6733  1.2971  0.7075
  311SOL     OW 1278   2.531   3.082   1.212 -0.1053  0.1048  0.0347
  311SOL    HW1 1279   2.553   3.174   1.229  0.1807  0.7058 -2.9989
  311SOL    HW2 1280   2.439   3.075   1.236 -0.8875  1.9695 -2.0724
  312SOL     OW 1281   1.222   3.321   3.020 -0.5983  0.2536 -0.0569
  312SOL    HW1 1282   1.200   3.400   3.069 -3.0758  0.7342 -1.7933
  312SOL    HW2 1283   1.138   3.281   3.000  0.5097 -1.6428 -1.1676
  313SOL     OW 1284   2.954   1.966   0.925  0.7575  0.0179  0.1734
  313SOL    HW1 1285   2.941   1.873   0.941  2.8027 -0.2645  0.4655
  313SOL    HW2 1286   3.008   1.970   0.846  0.8468  0.9581  0.2663
  314SOL     OW 1287   0.602   3.940   1.050  0.3834 -0.5029 -0.2819
  314SOL    HW1 1288   0.651   3.966   1.128  1.9857  0.4455 -1.5577
  314SOL    HW2 1289   0.557   4.020   1.022 -0.8516 -1.0325  0.0842
  315SOL     OW 1290   1.879   4.304   0.422 -0.4672  0.1073 -0.2339
  315SOL    HW1 1291   1.967   4.314   0.386 -0.2358 -1.3190 -0.1530
  315SOL    HW2 1292   1.823   4.357   0.366  0.0718 -1.0607 -1.9500
  316SOL     OW 1293   3.925   0.697   2.124  0.0283  0.4592  0.0755
  316SOL    HW1 1294   3.875   0.682   2.044  1.0830  1.7930 -0.8820
  316SOL    HW2 1295   3.864   0.741   2.183 -0.4366  0.4718 -0.4139
  317SOL     OW 1296   1.121   1.794   1.323  0.1530  0.5921  0.1905
  317SOL    HW1 1297   1.105   1.702   1.344 -1.4113  0.7386 -0.2578
  317SOL    HW2 1298   1.155   1.832   1.404  0.7715 -0.3584  0.3956
  318SOL     OW 1299   0.683   4.141   2.944 -0.3442  0.3948  0.4146
  318SOL    HW1 1300   0.735   4.082   2.889  0.0257 -0.8422  2.0222
  318SOL    HW2 1301   0.721   4.228   2.928 -0.2386  0.0822 -1.2317
  319SOL     OW 1302   3.987   3.704   0.137 -0.3461  0.1337 -0.0401
  319SOL    HW1 1303   3.971   3.613   0.112  2.0718 -0.4254  0.1878
  319SOL    HW2 1304   4.074   3.723   0.101 -0.0727  1.7793  1.3809
  320SOL     OW 1305   0.615   3.324   0.875 -0.1562 -0.4093 -0.4230
  320SOL    HW1 1306   0.567   3.391   0.826  0.1258  0.1585  0.0635
  320SOL    HW2 1307   0.703   3.360   0.885  0.1492 -1.0871 -0.6081
  321SOL     OW 1308   3.020   2.436   3.107  0.2344  0.0493 -0.4807
  321SOL    HW1 1309   2.943   2.392   3.145  0.2197  1.1885  0.8925
  321SOL    HW2 1310   3.094   2.381   3.134  0.1319  0.3563  0.4909
  322SOL     OW 1311   0.296   1.480   0.223 -0.3999 -0.4350  0.5069
  322SOL    HW1 1312   0.359   1.421   0.181  0.3555  0.0578  0.9234
  322SOL    HW2 1313   0.214   1.465   0.176 -0.0732 -1.3727  0.2100
  323SOL     OW 1314   1.171   4.002   3.675  0.4355 -0.3571 -0.1391
  323SOL    HW1 1315   1.176   3.995   3.771  0.2271  0.0007 -0.1025
  323SOL    HW2 1316   1.104   4.068   3.659 -0.5601 -1.4555 -0.5645
  324SOL     OW 1317   4.226   1.461   3.086  0.3986 -0.1070  0.1147
  324SOL    HW1 1318   4.149   1.484   3.137 -2.2395  0.9601 -3.8882
  324SOL    HW2 1319   4.210   1.372   3.055  0.0871  0.5180 -1.6688
  325SOL     OW 1320   2.682   2.728   3.686 -0.0271 -0.2049 -0.1813
  325SOL    HW1 1321   2.724   2.722   3.601 -0.0114  0.2583 -0.2060
  325SOL    HW2 1322   2.599   2.773   3.668  1.4215  3.0235  0.5377
  326SOL     OW 1323   1.938   1.684   2.427  0.7493 -0.5801  0.3423
  326SOL    HW1 1324   2.007   1.690   2.361  0.1767 -0.0334 -0.2198
  326SOL    HW2 1325   1.873   1.748   2.399 -1.2178 -2.8279 -0.6014
  327SOL     OW 1326   1.578   1.134   1.264  0.0039  0.2841 -0.1756
  327SOL    HW1 1327   1.562   1.150   1.171 -0.8505  0.5900  0.0153
  327SOL    HW2 1328   1.551   1.044   1.278  1.1484 -0.1177 -0.4361
  328SOL     OW 1329   2.658   1.667   2.669  0.1282 -0.4767 -0.2276
  328SOL    HW1 1330   2.705   1.636   2.746  1.1270 -0.8166 -0.9581
  328SOL    HW2 1331   2.601   1.737   2.702  1.4184  0.2105  0.6262
  329SOL     OW 1332   2.436   0.524   3.667  0.0236 -0.2509 -0.4858
  329SOL    HW1 1333   2.488   0.513   3.587  0.4726  0.0963 -0.2494
  329SOL    HW2 1334   2.499   0.511   3.738  0.6393  3.5846 -0.1443
  330SOL     OW 1335   3.394   1.197   4.012  0.1208 -0.1938  0.1520
  330SOL    HW1 1336   3.474   1.168   4.057  1.3882  1.6133 -0.8005
  330SOL    HW2 1337   3.340   1.233   4.082 -0.0497 -1.7470  0.8617
  331SOL     OW 1338   0.767   4.020   2.677 -0.1264  0.4228 -0.0661
  331SOL    HW1 1339   0.783   4.102   2.630 -0.5422  0.3805 -0.2951
  331SOL    HW2 1340   0.682   3.991   2.644 -0.2326  0.1788  0.4159
  332SOL     OW 1341   3.193   1.183   2.943 -0.1731 -0.1204  0.4375
  332SOL    HW1 1342   3.251   1.108   2.933 -2.0951 -1.5640 -0.5688
  332SOL    HW2 1343   3.135   1.179   2.866 -2.3591  0.5253  1.9553
  333SOL     OW 1344   1.495   1.680   4.197  1.1786  0.2996  0.1748
  333SOL    HW1 1345   1.447   1.664   4.116  1.5003  0.9374 -0.1553
  333SOL    HW2 1346   1.563   1.614   4.198  0.5471 -0.3568  0.4440
  334SOL     OW 1347   3.048   3.109   3.921 -0.1227 -0.5469 -0.0636
  334SOL    HW1 1348   2.968   3.069   3.888  0.1853 -1.7216  0.5538
  334SOL    HW2 1349   3.117   3.076   3.863  0.2961 -1.9174  1.1290
  335SOL     OW 1350   3.803   1.717   2.567  0.7104 -0.9965  0.1077
  335SOL    HW1 1351   3.749   1.639   2.576  2.6286 -2.3805  0.1829
  335SOL    HW2 1352   3.854   1.701   2.488  0.2527  0.7961 -0.6109
  336SOL     OW 1353   3.498   3.083   0.843 -0.0634 -0.0189 -0.1093
  336SOL    HW1 1354   3.449   3.037   0.911 -0.6478  0.9869  0.1782
  336SOL    HW2 1355   3.431   3.114   0.782  0.4318 -0.6500 -0.9870
  337SOL     OW 1356   3.678   0.314   0.046 -0.4223 -0.2364 -0.3500
  337SOL    HW1 1357   3.719   0.320  -0.040 -1.5066  1.2036 -0.8038
  337SOL    HW2 1358   3.740   0.357   0.105 -0.0304 -0.5289 -0.5471
  338SOL     OW 1359   2.914   3.246   2.757  0.1848  0.0888  0.1487
  338SOL    HW1 1360   2.869   3.190   2.820  0.6195  0.2018  0.5673
  338SOL    HW2 1361   2.873   3.331   2.766  1.1976  0.4922  1.3399
  339SOL     OW 1362   1.469   1.803   1.058 -0.0931 -0.5646  0.4008
  339SOL    HW1 1363   1.515   1.872   1.009 -1.6782  1.5109  1.6957
  339SOL    HW2 1364   1.540   1.747   1.092  1.2302  0.2185 -0.9356
  340SOL     OW 1365   1.275   2.780   3.382 -0.1686 -0.0820  0.4132
  340SOL    HW1 1366   1.342   2.831   3.336 -0.2172  3.3269  3.6553
  340SOL    HW2 1367   1.192   2.816   3.349 -0.2324  0.6214  1.3070
  341SOL     OW 1368   1.491   0.251   0.363 -0.8586  0.2462 -0.1834
  341SOL    HW1 1369   1.531   0.283   0.444 -0.6391 -2.4942  0.9153
  341SOL    HW2 1370   1.556   0.190   0.327 -1.5523  0.3554 -1.6949
  342SOL     OW 1371   2.521   4.153   0.785 -0.1070 -0.3206  0.0297
  342SOL    HW1 1372   2.472   4.160   0.703  0.7667  0.5264 -0.4427
  342SOL    HW2 1373   2.538   4.244   0.810 -1.3223 -0.5355  1.7486
  343SOL     OW 1374   4.075   0.170   0.662  0.3425 -0.0923 -0.0141
  343SOL    HW1 1375   4.043   0.093   0.710  0.5699 -0.5523 -0.5903
  343SOL    HW2 1376   4.149   0.137   0.611 -1.5407 -0.2839 -2.8286
  344SOL     OW 1377   3.083   3.102   3.100  0.3436  0.4086  0.1769
  344SOL    HW1 1378   3.041   3.175   3.145  0.0291  0.6622 -0.5119
  344SOL    HW2 1379   3.176   3.124   3.100  0.5094 -0.1656  1.7211
  345SOL     OW 1380   4.042   2.547   3.835  0.1669 -0.4220 -0.4858
  345SOL    HW1 1381   4.037   2.455   3.810  1.6169 -1.3522  2.2537
  345SOL    HW2 1382   4.007   2.549   3.924 -0.4237  1.8354 -0.7079
  346SOL     OW 1383   1.456   4.065   0.972  0.4094  0.6931 -0.0104
  346SOL    HW1 1384   1.495   4.127   0.910  0.8623 -0.2677 -0.7298
  346SOL    HW2 1385   1.524   3.998   0.985 -1.1229 -1.3851 -1.8101
  347SOL     OW 1386   1.087   1.285   4.142 -0.2128  0.4664  0.0788
  347SOL    HW1 1387   1.016   1.222   4.156 -1.3532  1.6298 -0.2807
  347SOL    HW2 1388   1.118   1.266   4.053 -0.2267  0.1108  0.1477
  348SOL     OW 1389   2.845   0.683   1.065 -0.0168  0.5390 -0.0810
  348SOL    HW1 1390   2.878   0.626   1.134 -1.2625 -0.3913 -0.2160
  348SOL    HW2 1391   2.780   0.738   1.108 -2.2401 -1.3577 -0.7858
  349SOL     OW 1392   3.186   1.763   0.976  0.1035 -0.2320 -0.1853
  349SOL    HW1 1393   3.137   1.686   0.948  0.7392 -1.1625  1.1762
  349SOL    HW2 1394   3.249   1.778   0.905  0.6026 -1.5527 -0.0488
  350SOL     OW 1395   2.250   0.220   0.564  0.2030  0.1231  0.1853
  350SOL    HW1 1396   2.181   0.261   0.617  0.8634  0.5201  0.7565
  350SOL    HW2 1397   2.285   0.291   0.510  1.3144  0.3341  1.1391
  351SOL     OW 1398   3.615   4.280   0.628 -0.5418  0.0343 -0.3819
  351SOL    HW1 1399   3.630   4.205   0.571 -1.0767 -0.3940  0.0247
  351SOL    HW2 1400   3.522   4.276   0.649 -0.2946  0.0034  0.7668
  352SOL     OW 1401   1.797   0.820   2.463  0.5744  0.2508 -0.7283
  352SOL    HW1 1402   1.830   0.798   2.376  2.2910 -0.2156 -0.0046
  352SOL    HW2 1403   1.823   0.746   2.518 -1.5291 -0.0219 -0.0339
  353SOL     OW 1404   1.928   4.147   2.580 -0.1940 -0.3591 -0.7788
  353SOL    HW1 1405   1.903   4.101   2.500  0.0432 -1.6640 -0.1464
  353SOL    HW2 1406   1.998   4.206   2.554 -0.8378 -0.0029 -1.7183
  354SOL     OW 1407   2.715   0.347   0.018 -0.0361  0.0128 -0.7207
  354SOL    HW1 1408   2.742   0.277  -0.042  1.0345  0.1528 -0.4231
  354SOL    HW2 1409   2.797   0.391   0.041 -0.3474 -0.4153  1.3294
  355SOL     OW 1410   3.155   0.068   0.991 -0.3771 -0.2017 -0.1642
  355SOL    HW1 1411   3.228   0.025   1.035  0.0745  0.4087 -0.3001
  355SOL    HW2 1412   3.078   0.019   1.018  0.0149 -0.4766  0.4675
  356SOL     OW 1413   4.231   2.492   4.162 -0.1652  0.0119 -0.1969
  356SOL    HW1 1414   4.145   2.508   4.199  0.6462 -1.3909  2.5537
  356SOL    HW2 1415   4.252   2.401   4.186  2.1621  0.3589 -0.5864
  357SOL     OW 1416   2.522   0.804   3.496  0.5638  0.4303  0.3889
  357SOL    HW1 1417   2.567   0.807   3.580  1.0647 -0.1769  0.1512
  357SOL    HW2 1418   2.554   0.724   3.454 -1.4743 -0.5632  0.6096
  358SOL     OW 1419   3.503   2.521   2.391 -0.0408  0.4426 -0.3117
  358SOL    HW1 1420   3.501   2.533   2.486 -0.5898 -0.1237 -0.2465
  358SOL    HW2 1421   3.514   2.610   2.355 -0.9899  0.7929  0.2418
  359SOL     OW 1422   4.136   3.090   3.163 -0.7116 -0.1089  0.8543
  359SOL    HW1 1423   4.069   3.023   3.174  0.7607 -1.3500  2.8781
  359SOL    HW2 1424   4.143   3.102   3.068 -2.7723 -0.9230  0.5413
  360SOL     OW 1425   1.992   0.147   4.196 -0.1167 -0.2660 -0.3063
  360SOL    HW1 1426   1.979   0.211   4.266 -2.1189 -0.1270 -0.7547
  360SOL    HW2 1427   2.043   0.195   4.130 -0.0467  0.2783  0.1373
  361SOL     OW 1428   2.573   0.892   1.722 -0.0123  0.2410  0.0830
  361SOL    HW1 1429   2.510   0.820   1.719 -0.3107  0.5006  0.0713
  361SOL    HW2 1430   2.544   0.945   1.797 -1.1898  1.6124 -1.2612
  362SOL     OW 1431   3.519   2.683   4.259  1.0601  0.3482  0.9005
  362SOL    HW1 1432   3.609   2.653   4.265  1.6397  1.9305  0.4884
  362SOL    HW2 1433   3.525   2.774   4.229 -0.6982  0.2394  0.0644
  363SOL     OW 1434   1.049   3.099   1.845 -0.0637  0.3649 -0.0765
  363SOL    HW1 1435   1.095   3.149   1.912  0.6862  1.0286 -1.0641
  363SOL    HW2 1436   1.078   3.137   1.762 -3.0542  1.4134 -0.7588
  364SOL     OW 1437   0.847   0.720   2.569 -0.4679 -0.3156  0.0566
  364SOL    HW1 1438   0.916   0.778   2.600  1.2244 -1.8942 -0.6081
  364SOL    HW2 1439   0.879   0.685   2.487 -3.1533  0.7306 -1.6013
  365SOL     OW 1440   3.139   0.444   0.255 -0.4746 -0.3383  0.0754
  365SOL    HW1 1441   3.233   0.456   0.241 -0.4034 -0.7216  0.2126
  365SOL    HW2 1442   3.133   0.398   0.339 -0.8863  1.6943  1.2178
  366SOL     OW 1443   4.347   4.142   1.012 -0.4633 -0.2593 -0.2152
  366SOL    HW1 1444   4.333   4.092   0.931  0.1006  1.3024 -1.3397
  366SOL    HW2 1445   4.298   4.223   0.997  0.6029  0.5372  0.5327
  367SOL     OW 1446   1.407   2.367   3.072 -0.4085  0.6792  0.3293
  367SOL    HW1 1447   1.448   2.407   2.995 -0.1424  2.4325  1.3389
  367SOL    HW2 1448   1.319   2.405   3.074  0.2337  2.1775  1.9556
  368SOL     OW 1449   1.800   1.938   3.170 -0.0689 -0.4785 -0.2432
  368SOL    HW1 1450   1.838   2.026   3.161 -0.8957  0.1804  1.9920
  368SOL    HW2 1451   1.732   1.934   3.103 -0.3890  0.8132 -0.0245
  369SOL     OW 1452   3.163   1.314   1.341 -0.3142 -0.5977  0.1592
  369SOL    HW1 1453   3.163   1.328   1.435 -0.0194 -0.0887  0.0833
  369SOL    HW2 1454   3.089   1.365   1.309 -0.0158 -0.2397  0.0368
  370SOL     OW 1455   1.225   0.002   2.410  0.1453 -0.0328  0.1452
  370SOL    HW1 1456   1.292  -0.040   2.357 -0.1513 -0.2489 -0.0621
  370SOL    HW2 1457   1.264   0.008   2.497  0.2698 -0.5589  0.1310
  371SOL     OW 1458   1.833   1.247   2.340  0.6541  0.7752  0.1790
  371SOL    HW1 1459   1.835   1.312   2.270  2.2690 -0.0375 -0.6071
  371SOL    HW2 1460   1.800   1.167   2.298  2.2050  0.1124  0.1281
  372SOL     OW 1461   4.218   4.002   0.107 -0.1107  0.2763  0.0025
  372SOL    HW1 1462   4.194   3.957   0.188  0.7591  0.8661  0.6026
  372SOL    HW2 1463   4.136   4.006   0.057 -0.5416 -0.5599  0.6124
  373SOL     OW 1464   0.027   0.863   4.161  0.3897  0.0002 -0.0221
  373SOL    HW1 1465   0.122   0.855   4.156  0.4562  1.4587 -2.6074
  373SOL    HW2 1466   0.012   0.952   4.193 -0.0503  0.2647 -0.9132
  374SOL     OW 1467   1.042   2.830   1.434  0.2601  0.1206 -0.4563
  374SOL    HW1 1468   0.994   2.898   1.387  1.8905  2.2343  0.7426
  374SOL    HW2 1469   0.982   2.756   1.436 -2.1594  1.9342 -0.7042
  375SOL     OW 1470   3.533   1.936   1.205 -0.6036  0.3906  0.4884
  375SOL    HW1 1471   3.530   1.867   1.138 -1.0317  0.7716  0.1143
  375SOL    HW2 1472   3.541   1.888   1.287 -0.0381 -0.0841  0.1715
  376SOL     OW 1473   2.632   0.857   3.721 -0.2849 -0.4338 -0.2743
  376SOL    HW1 1474   2.610   0.859   3.814 -2.1483 -0.2559 -0.6792
  376SOL    HW2 1475   2.633   0.949   3.694  0.7983 -0.4507 -0.3269
  377SOL     OW 1476   2.736   3.342   1.712 -0.0148 -0.4507  0.5204
  377SOL    HW1 1477   2.814   3.287   1.704 -0.0615 -0.8083  2.1705
  377SOL    HW2 1478   2.668   3.295   1.665  1.1988  0.9371 -2.9572
  378SOL     OW 1479   3.624   1.631   0.190 -0.0451 -0.4045 -0.0533
  378SOL    HW1 1480   3.633   1.553   0.244 -0.1030 -0.6441 -0.3886
  378SOL    HW2 1481   3.710   1.675   0.196  0.6045 -1.4353 -1.3156
  379SOL     OW 1482   0.339   2.019   4.242 -0.7020 -1.0494  0.1192
  379SOL    HW1 1483   0.415   1.972   4.276 -1.0133 -0.2518  2.0787
  379SOL    HW2 1484   0.264   1.975   4.280 -1.1401 -0.7701 -0.4026
  380SOL     OW 1485   3.447   2.294   2.029  0.3049  0.3821  0.6787
  380SOL    HW1 1486   3.460   2.339   1.946 -1.3157 -0.1089  0.1303
  380SOL    HW2 1487   3.507   2.337   2.090  2.0264  0.3097 -0.8836
  381SOL     OW 1488   3.088   3.836   0.442 -0.7266  0.2523  0.2514
  381SOL    HW1 1489   3.011   3.865   0.491 -1.0099  0.3451 -0.2380
  381SOL    HW2 1490   3.155   3.900   0.463 -0.4073 -0.4766  1.6152
  382SOL     OW 1491   1.071   3.156   2.669 -0.2211  0.5722  0.3594
  382SOL    HW1 1492   1.085   3.121   2.757 -0.5382 -0.4524  0.0215
  382SOL    HW2 1493   1.074   3.251   2.679 -1.3942  0.4902  1.6760
  383SOL     OW 1494   3.270   4.299   1.715  0.1680 -1.1878  0.0962
  383SOL    HW1 1495   3.232   4.278   1.629 -0.0403 -0.9899  0.1373
  383SOL    HW2 1496   3.360   4.268   1.710 -0.1115 -2.0672  0.1413
  384SOL     OW 1497   2.502   2.031   1.959  0.4986  0.0395 -0.2185
  384SOL    HW1 1498   2.584   2.075   1.981  0.8048 -1.0748  0.9486
  384SOL    HW2 1499   2.512   2.008   1.866  2.2082 -1.4766  0.2800
  385SOL     OW 1500   1.570   3.340   3.653 -0.4456 -0.1168  0.2826
  385SOL    HW1 1501   1.570   3.428   3.615 -0.8262 -0.5143 -0.6471
  385SOL    HW2 1502   1.663   3.320   3.667 -0.2302 -0.3214 -1.2914
  386SOL     OW 1503   1.592   2.271   1.666  0.0222  0.2598  0.0371
  386SOL    HW1 1504   1.512   2.309   1.704 -0.2587  0.9973 -1.2487
  386SOL    HW2 1505   1.663   2.320   1.707 -0.1518 -0.4148  1.2072
  387SOL     OW 1506   0.277   0.580   0.319  0.0793  0.7152 -0.2323
  387SOL    HW1 1507   0.199   0.557   0.269 -0.7402  1.7432  0.5096
  387SOL    HW2 1508   0.271   0.675   0.331  1.5910  0.8609 -0.3789
  388SOL     OW 1509   2.425   0.170   0.165  0.9887  0.0999 -0.1878
  388SOL    HW1 1510   2.462   0.084   0.147  2.2244  0.8983 -1.6460
  388SOL    HW2 1511   2.360   0.183   0.096 -0.6515 -0.4291  1.1691
  389SOL     OW 1512   2.254   2.968   0.357 -0.3389 -0.2869 -0.9490
  389SOL    HW1 1513   2.260   3.024   0.434 -1.4973 -1.3776 -0.0338
  389SOL    HW2 1514   2.340   2.927   0.349 -1.0768 -2.6029  1.6992
  390SOL     OW 1515   2.905   3.177   0.592 -0.1205  0.1810 -0.3361
  390SOL    HW1 1516   2.874   3.230   0.666 -1.1379  0.7152 -1.1204
  390SOL    HW2 1517   2.869   3.090   0.607 -1.4513  0.6252 -0.8785
  391SOL     OW 1518   3.848   1.032   2.095 -0.1353  0.3361 -0.1667
  391SOL    HW1 1519   3.873   1.076   2.177  0.1470  0.0581 -0.1033
  391SOL    HW2 1520   3.770   0.982   2.118  1.2900 -1.6636  0.5626
  392SOL     OW 1521   2.144   4.315   2.041 -0.1817  0.0268 -0.0542
  392SOL    HW1 1522   2.174   4.268   1.963 -1.1327 -0.3269 -0.2115
  392SOL    HW2 1523   2.221   4.366   2.069  0.1360  0.2473 -1.2738
  393SOL     OW 1524   0.471   3.727   1.053  0.1397 -0.2699  0.3901
  393SOL    HW1 1525   0.447   3.711   0.962  0.2751 -1.4128  0.5363
  393SOL    HW2 1526   0.524   3.806   1.051 -0.8779  0.4259 -0.3610
  394SOL     OW 1527   3.190   3.207   2.674  1.1427  0.6898  0.2292
  394SOL    HW1 1528   3.192   3.157   2.593 -0.2109 -0.3474  0.7938
  394SOL    HW2 1529   3.097   3.215   2.695  1.4263  1.6858  1.2387
  395SOL     OW 1530   1.850   2.061   2.088 -0.6243  0.1340 -0.6527
  395SOL    HW1 1531   1.755   2.063   2.087 -0.6313  0.2144  0.0988
  395SOL    HW2 1532   1.874   2.045   1.996 -1.3309  1.2404 -1.0618
  396SOL     OW 1533   1.485   1.191   3.029  0.8242  0.3311 -0.1821
  396SOL    HW1 1534   1.581   1.201   3.030  1.2770 -2.9180  0.9377
  396SOL    HW2 1535   1.460   1.195   3.121  0.1497 -0.7030 -0.3082
  397SOL     OW 1536   0.682   4.321   3.262 -0.0661  0.3512  0.0521
  397SOL    HW1 1537   0.773   4.325   3.234  0.6391  2.8856  2.2470
  397SOL    HW2 1538   0.635   4.373   3.197  0.7716  2.2741  0.8931
  398SOL     OW 1539   0.019   1.836   4.061 -0.1845 -0.0169 -0.3370
  398SOL    HW1 1540   0.063   1.764   4.106 -0.5814  0.9683  1.7638
  398SOL    HW2 1541  -0.067   1.840   4.103 -0.3620  1.3112 -0.7984
  399SOL     OW 1542   1.897   2.171   0.817 -0.1780  0.2437  0.2642
  399SOL    HW1 1543   1.873   2.080   0.836 -2.2980  0.3440 -1.5148
  399SOL    HW2 1544   1.968   2.165   0.754  0.5025 -0.1383  1.0481
  400SOL     OW 1545   1.044   1.854   0.250  0.3280  0.0006 -0.7285
  400SOL    HW1 1546   1.132   1.824   0.228  1.3106  2.7738 -1.0334
  400SOL    HW2 1547   1.053   1.893   0.337 -0.8123 -0.4069 -0.4092
  401SOL     OW 1548   4.295   2.812   1.891 -0.4835 -0.4710 -0.8163
  401SOL    HW1 1549   4.222   2.850   1.939  0.3862  0.8552 -0.4905
  401SOL    HW2 1550   4.283   2.841   1.800  1.4769  2.8822 -0.1877
  402SOL     OW 1551   1.539   1.782   2.680 -0.0447 -0.2639 -0.4917
  402SOL    HW1 1552   1.568   1.854   2.624 -0.8457  0.7200  0.3150
  402SOL    HW2 1553   1.607   1.715   2.670  0.5933  0.4919 -1.4531
  403SOL     OW 1554   3.830   1.215   1.334 -0.4818 -1.1600  0.3413
  403SOL    HW1 1555   3.913   1.182   1.368  0.3087 -0.0940 -0.5001
  403SOL    HW2 1556   3.834   1.309   1.347 -1.9814 -1.1765  1.1426
  404SOL     OW 1557   3.726   3.846   1.859 -0.2239  0.2389 -0.5540
  404SOL    HW1 1558   3.816   3.864   1.836  1.1624 -3.1342  1.4253
  404SOL    HW2 1559   3.697   3.781   1.795 -0.1331 -0.9711  0.5984
  405SOL     OW 1560   1.523   1.423   2.669 -0.0916  0.2096 -0.1509
  405SOL    HW1 1561   1.602   1.370   2.675 -0.6800 -0.5659  1.2453
  405SOL    HW2 1562   1.528   1.464   2.583  1.7386  0.0566 -0.1529
  406SOL     OW 1563   0.831   2.157   2.746  0.0683  0.1561 -0.0243
  406SOL    HW1 1564   0.868   2.158   2.658 -0.5017  0.3058 -0.2675
  406SOL    HW2 1565   0.869   2.234   2.789 -1.5245  1.5334 -0.9468
  407SOL     OW 1566   1.558   2.389   2.796 -0.4662  0.3090 -0.3693
  407SOL    HW1 1567   1.605   2.458   2.750 -1.6385  1.1482 -0.3625
  407SOL    HW2 1568   1.477   2.378   2.745  0.4605 -2.3390 -1.4416
  408SOL     OW 1569   3.943   0.853   3.802 -0.1466  0.4265 -0.2613
  408SOL    HW1 1570   4.004   0.911   3.848 -2.0925  2.1084  0.3203
  408SOL    HW2 1571   3.957   0.873   3.709  0.5013  0.4698 -0.1581
  409SOL     OW 1572   3.969   1.164   4.319 -0.6759 -0.5836  0.1505
  409SOL    HW1 1573   3.992   1.165   4.226 -0.0843  1.7875  0.2447
  409SOL    HW2 1574   4.048   1.133   4.363 -0.2671  0.1794 -0.0301
  410SOL     OW 1575   3.338   0.763   2.235  0.1876  0.6667  0.1836
  410SOL    HW1 1576   3.404   0.810   2.286  0.4669  0.6334 -0.1475
  410SOL    HW2 1577   3.387   0.715   2.169  0.0723 -1.4458  1.5383
  411SOL     OW 1578   2.915   1.554   1.698  0.5989  0.3991 -0.0440
  411SOL    HW1 1579   2.870   1.482   1.741  2.1717 -1.3384 -1.1523
  411SOL    HW2 1580   2.955   1.604   1.769 -0.0298 -0.1507  0.7125
  412SOL     OW 1581   1.697   3.653   0.257 -0.1221 -0.0638  0.0120
  412SOL    HW1 1582   1.785   3.666   0.223  0.1106 -1.2690  0.1090
  412SOL    HW2 1583   1.639   3.677   0.184  0.1482  2.8653  0.6124
  413SOL     OW 1584   4.295   1.973   2.674  0.2767  0.4411 -0.0510
  413SOL    HW1 1585   4.223   1.915   2.652 -0.1468  0.7795  0.4243
  413SOL    HW2 1586   4.322   1.946   2.762  0.4946  0.5519 -0.0824
  414SOL     OW 1587   1.529   0.574   0.770 -0.1710 -0.1979  0.1064
  414SOL    HW1 1588   1.452   0.579   0.826 -0.6236  0.8434 -0.5952
  414SOL    HW2 1589   1.526   0.652   0.716  0.6308 -0.8342 -0.9115
  415SOL     OW 1590   0.927   2.147   1.356  0.2867  0.6083 -0.3327
  415SOL    HW1 1591   1.001   2.172   1.301  0.2337  1.7111  0.0812
  415SOL    HW2 1592   0.861   2.215   1.342 -0.0759  0.4338  0.4183
  416SOL     OW 1593   3.313   0.565   0.492  0.1575  0.5401 -0.6954
  416SOL    HW1 1594   3.374   0.526   0.430 -0.2893 -1.4120 -0.0162
  416SOL    HW2 1595   3.296   0.494   0.555 -2.7650  0.9815 -0.8491
  417SOL     OW 1596   3.403   2.195   3.390  0.0810 -0.0537 -0.8495
  417SOL    HW1 1597   3.376   2.125   3.450  1.5533  0.3120  0.2787
  417SOL    HW2 1598   3.386   2.276   3.438 -1.5595  0.4161 -2.1260
  418SOL     OW 1599   2.869   2.968   3.512 -0.6374 -0.2265 -0.3095
  418SOL    HW1 1600   2.887   2.963   3.605 -2.4402  0.4681  0.1166
  418SOL    HW2 1601   2.856   2.878   3.484  0.4603 -0.4798 -0.0256
  419SOL     OW 1602   4.334   2.135   2.187 -0.1048 -0.3222  0.2334
  419SOL    HW1 1603   4.326   2.142   2.282  2.2326 -1.5543  0.6097
  419SOL    HW2 1604   4.424   2.106   2.173 -0.4520 -0.3834 -2.3639
  420SOL     OW 1605   3.339   2.619   1.511 -0.2573 -0.4057  0.4488
  420SOL    HW1 1606   3.341   2.524   1.520  3.3502 -0.4452  0.7585
  420SOL    HW2 1607   3.351   2.635   1.418  0.3535 -0.2829  0.5451
  421SOL     OW 1608   2.228   2.456   1.247 -0.0881  0.0982 -0.1076
  421SOL    HW1 1609   2.235   2.409   1.330  0.8216  2.2673  1.0991
  421SOL    HW2 1610   2.248   2.547   1.268 -1.3146  1.0047 -2.4377
  422SOL     OW 1611   3.263   3.976   3.330 -0.1557  1.3923 -0.5685
  422SOL    HW1 1612   3.298   3.934   3.408  0.0822  0.2372 -1.2726
  422SOL    HW2 1613   3.170   3.991   3.350  0.0126  1.5438  0.1038
  423SOL     OW 1614   2.042   4.080   3.490  0.6386 -0.2110 -0.0238
  423SOL    HW1 1615   2.017   4.026   3.564  1.0078 -2.8246 -1.7002
  423SOL    HW2 1616   2.135   4.100   3.504  0.4361  0.2408  0.7199
  424SOL     OW 1617   1.438   2.109   2.965 -0.5293  0.0608  0.0042
  424SOL    HW1 1618   1.444   2.182   3.027 -2.3326  0.2810 -0.0303
  424SOL    HW2 1619   1.529   2.084   2.949  0.0244  0.4858  2.1555
  425SOL     OW 1620   2.887   4.329   1.710 -0.5256 -0.1330 -0.1864
  425SOL    HW1 1621   2.815   4.328   1.773 -0.5251  0.4323 -0.1689
  425SOL    HW2 1622   2.933   4.247   1.725 -0.8845 -0.2823  0.1302
  426SOL     OW 1623   1.875   3.060   3.166  0.1255  0.1185 -0.2605
  426SOL    HW1 1624   1.916   3.116   3.232 -0.3011 -0.4340  0.4840
  426SOL    HW2 1625   1.810   3.116   3.124 -0.4115  0.1434  0.5881
  427SOL     OW 1626   4.191   0.996   2.381 -0.0054 -0.2675  0.5990
  427SOL    HW1 1627   4.278   0.961   2.400 -0.7532 -1.0301  2.8358
  427SOL    HW2 1628   4.173   0.967   2.291  1.2854 -1.7033  0.7619
  428SOL     OW 1629   2.471   3.170   1.647  0.0460  0.4723 -0.4679
  428SOL    HW1 1630   2.485   3.150   1.739 -0.4921  1.3924 -0.1782
  428SOL    HW2 1631   2.518   3.100   1.600 -1.8065 -1.5282  0.4743
  429SOL     OW 1632   1.717   3.141   1.714 -0.0337 -0.0419  0.1840
  429SOL    HW1 1633   1.658   3.068   1.693  0.7548 -0.8720  0.7535
  429SOL    HW2 1634   1.681   3.216   1.667 -0.8022 -0.8288 -0.5148
  430SOL     OW 1635   3.632   2.107   2.458  0.3034  0.3553  0.3942
  430SOL    HW1 1636   3.638   2.167   2.533 -1.2239  1.2876 -0.1894
  430SOL    HW2 1637   3.711   2.123   2.408  1.0234  0.1998  1.4509
  431SOL     OW 1638   3.198   2.947   0.745 -0.1268  0.0241 -0.1231
  431SOL    HW1 1639   3.193   3.033   0.786 -1.8270 -0.5600  1.0067
  431SOL    HW2 1640   3.119   2.901   0.775  0.2968 -1.6347 -1.3724
  432SOL     OW 1641   0.816   2.773   0.791 -0.3647 -0.7541 -0.1370
  432SOL    HW1 1642   0.882   2.705   0.778 -0.0116 -0.0946 -2.3359
  432SOL    HW2 1643   0.867   2.853   0.806 -0.6335 -0.3495 -1.2466
  433SOL     OW 1644   2.656   3.354   3.366  0.7526 -0.2679 -0.0686
  433SOL    HW1 1645   2.618   3.441   3.378  0.8890  0.0259 -1.5644
  433SOL    HW2 1646   2.750   3.369   3.372  0.8041 -0.1820 -1.0584
  434SOL     OW 1647   0.135   1.993   3.228 -0.0228 -0.0188 -0.0518
  434SOL    HW1 1648   0.059   1.959   3.276  0.3440  0.0768  0.6159
  434SOL    HW2 1649   0.098   2.061   3.171 -0.8659 -1.9426 -1.9294
  435SOL     OW 1650   3.284   3.042   3.391 -0.0439 -0.5577 -0.3552
  435SOL    HW1 1651   3.286   2.962   3.444 -1.0107 -0.3837 -0.0288
  435SOL    HW2 1652   3.313   3.014   3.304 -0.0350 -1.1899 -0.1555
  436SOL     OW 1653   3.487   1.464   3.401 -0.0998  0.4756 -0.2754
  436SOL    HW1 1654   3.426   1.444   3.472  0.0508  1.3782  0.1175
  436SOL    HW2 1655   3.445   1.427   3.323 -1.1557  1.0761 -0.0152
  437SOL     OW 1656   3.754   2.137   0.707  0.3199  0.3139 -0.0754
  437SOL    HW1 1657   3.765   2.167   0.617  2.3774 -0.4589 -0.1295
  437SOL    HW2 1658   3.698   2.204   0.748 -3.0914 -0.7273 -2.5632
  438SOL     OW 1659   3.885   1.185   3.535  0.3315 -0.0077  0.2128
  438SOL    HW1 1660   3.802   1.217   3.500 -1.0295 -1.5776  1.8208
  438SOL    HW2 1661   3.879   1.090   3.526  1.2405 -0.2518  1.8440
  439SOL     OW 1662   0.672   1.221   1.281  0.8622 -0.7070 -0.3888
  439SOL    HW1 1663   0.766   1.235   1.281  1.1261 -2.2245  0.6905
  439SOL    HW2 1664   0.661   1.129   1.257 -0.2863 -0.7914  0.3407
  440SOL     OW 1665   1.401   3.093   3.579 -0.8898 -0.1591 -0.3197
  440SOL    HW1 1666   1.471   3.052   3.529  3.9931  2.2182  3.6156
  440SOL    HW2 1667   1.388   3.178   3.537 -0.8489 -0.3299 -0.6756
  441SOL     OW 1668   1.392   3.415   2.493  0.2994  0.0023  0.0717
  441SOL    HW1 1669   1.331   3.349   2.460  0.5068 -0.4242  0.5325
  441SOL    HW2 1670   1.342   3.496   2.493  0.1148 -0.1018 -0.7261
  442SOL     OW 1671   2.991   1.751   4.110  0.2715 -0.2842 -0.1628
  442SOL    HW1 1672   3.025   1.676   4.061  0.1592  0.1740 -0.9633
  442SOL    HW2 1673   3.068   1.790   4.151  0.6631  0.4046 -1.4930
  443SOL     OW 1674   1.249   1.584   0.009 -0.1959  0.1369 -0.2812
  443SOL    HW1 1675   1.316   1.524  -0.025 -0.9505 -1.3391  0.7302
  443SOL    HW2 1676   1.222   1.545   0.092 -2.8380  0.2583 -0.9870
  444SOL     OW 1677   2.282   3.812   2.601  0.0228 -0.6842 -0.0958
  444SOL    HW1 1678   2.215   3.823   2.669  0.3951  1.8529 -0.0587
  444SOL    HW2 1679   2.351   3.760   2.644 -0.8726 -1.3465  0.5939
  445SOL     OW 1680   2.428   2.665   0.780  0.2529 -0.0112  0.1923
  445SOL    HW1 1681   2.522   2.669   0.793  0.5695 -0.8170 -1.5595
  445SOL    HW2 1682   2.402   2.580   0.817  0.1137  0.4122  1.0977
  446SOL     OW 1683   2.652   3.954   3.211 -0.1391  0.9281 -0.1377
  446SOL    HW1 1684   2.608   4.034   3.183 -2.3878  0.1208  0.9287
  446SOL    HW2 1685   2.588   3.885   3.197  0.7600 -0.3020  1.5350
  447SOL     OW 1686   3.004   1.138   2.762  0.4316  0.1231  0.2559
  447SOL    HW1 1687   2.956   1.055   2.757  0.6651 -0.0150  0.2966
  447SOL    HW2 1688   2.951   1.199   2.710  0.7389 -0.2887 -0.5731
  448SOL     OW 1689   3.634   0.041   1.313 -0.1260 -0.4637  0.1375
  448SOL    HW1 1690   3.667  -0.008   1.239  0.2633 -0.1629  0.1088
  448SOL    HW2 1691   3.556  -0.006   1.341 -1.1657  0.2558 -1.4188
  449SOL     OW 1692   0.018   3.585   0.914 -0.3990  0.5750  0.0670
  449SOL    HW1 1693  -0.077   3.582   0.924 -0.3244  0.6001  0.9014
  449SOL    HW2 1694   0.038   3.517   0.850 -0.8803 -0.2210  0.7479
  450SOL     OW 1695   3.790   1.134   1.647  0.0269  0.1671 -0.2959
  450SOL    HW1 1696   3.812   1.182   1.567  0.4330  0.4434 -0.0258
  450SOL    HW2 1697   3.860   1.158   1.709  0.2651 -0.8099 -0.1722
  451SOL     OW 1698   2.274   2.102   0.899  0.5476  0.2463  0.3654
  451SOL    HW1 1699   2.242   2.135   0.814  1.9065 -1.5739 -0.9137
  451SOL    HW2 1700   2.296   2.181   0.948 -2.0747  1.4405 -0.1679
  452SOL     OW 1701   2.786   2.875   4.351  0.4273  0.2093  0.1230
  452SOL    HW1 1702   2.841   2.858   4.275 -1.3352 -0.3565 -1.0989
  452SOL    HW2 1703   2.748   2.790   4.374  0.5225  0.4649  1.3104
  453SOL     OW 1704   4.370   3.073   0.562  0.0246 -0.0297 -0.1546
  453SOL    HW1 1705   4.303   3.069   0.494  0.6841 -0.4159 -0.7933
  453SOL    HW2 1706   4.432   3.138   0.531  2.1314 -2.5277 -1.6623
  454SOL     OW 1707   1.323   0.036   3.361  0.0237  0.4339 -0.1437
  454SOL    HW1 1708   1.415   0.028   3.336  0.5700 -1.0712  2.0694
  454SOL    HW2 1709   1.305  -0.044   3.412 -2.1993  1.1936  0.3576
  455SOL     OW 1710   1.145   2.254   1.851 -0.1261 -0.0121 -0.0642
  455SOL    HW1 1711   1.212   2.322   1.860  1.6631 -1.5373 -1.1677
  455SOL    HW2 1712   1.111   2.266   1.763  0.7583 -0.9575 -0.5667
  456SOL     OW 1713   3.898   3.558   3.337  0.5791 -0.1218  0.6291
  456SOL    HW1 1714   3.957   3.493   3.299  1.0565  0.9402 -0.5335
  456SOL    HW2 1715   3.830   3.506   3.380 -1.0246 -1.6125 -3.1718
  457SOL     OW 1716   2.989   0.419   2.476 -0.5879 -0.4561  0.5619
  457SOL    HW1 1717   3.027   0.444   2.561  0.5613  2.3952 -0.6589
  457SOL    HW2 1718   3.060   0.431   2.413 -1.2973 -2.8943 -0.8344
  458SOL     OW 1719   2.999   2.834   3.128  0.4888 -0.0264 -0.5843
  458SOL    HW1 1720   2.904   2.837   3.138  0.1830 -1.2695 -2.6384
  458SOL    HW2 1721   3.024   2.925   3.110 -0.3310  0.2676 -0.2716
  459SOL     OW 1722   0.774   3.153   1.163  0.1000 -0.0453  0.0579
  459SOL    HW1 1723   0.775   3.178   1.071 -0.5467 -0.2347 -0.0026
  459SOL    HW2 1724   0.866   3.160   1.190  0.3961 -0.6295 -0.7646
  460SOL     OW 1725   3.163   1.286   0.919  0.6834 -0.4322  0.1353
  460SOL    HW1 1726   3.172   1.192   0.903 -0.4584 -0.4151 -0.7746
  460SOL    HW2 1727   3.085   1.294   0.975  2.1240 -0.1669  2.1933
  461SOL     OW 1728   4.000   0.954   1.392 -0.0905 -0.1542  0.2151
  461SOL    HW1 1729   4.074   0.899   1.417 -0.1577  0.8081  2.7865
  461SOL    HW2 1730   4.001   1.026   1.455 -3.0717  0.0031  0.2241
  462SOL     OW 1731   1.374   1.582   3.416  0.3183 -0.0735 -0.3541
  462SOL    HW1 1732   1.330   1.566   3.499 -1.1542 -0.4827 -1.1744
  462SOL    HW2 1733   1.463   1.549   3.429 -0.1068 -0.8293  0.8164
  463SOL     OW 1734   2.545   2.520   3.180  0.3501 -0.3775  0.0440
  463SOL    HW1 1735   2.469   2.572   3.207 -0.4072 -1.7621  0.7270
  463SOL    HW2 1736   2.598   2.511   3.259  0.6299 -0.3787 -0.1414
  464SOL     OW 1737   0.538   3.402   3.058 -0.1605  0.0093 -0.0144
  464SOL    HW1 1738   0.476   3.433   3.124 -0.6637 -0.2312 -0.3745
  464SOL    HW2 1739   0.507   3.315   3.034  0.6169 -0.3303  0.1842
  465SOL     OW 1740   3.551   3.767   3.835 -0.4237  0.5173  0.4619
  465SOL    HW1 1741   3.575   3.781   3.744  0.8628  1.3905  0.9059
  465SOL    HW2 1742   3.539   3.855   3.871  1.3190  0.3114  1.6787
  466SOL     OW 1743   0.170   0.018   2.275  0.0786  0.1248  0.2571
  466SOL    HW1 1744   0.133   0.099   2.240  0.1744  0.7398  1.4971
  466SOL    HW2 1745   0.102  -0.015   2.334  0.6206  0.1052  0.8850
  467SOL     OW 1746   3.613   3.790   3.554  0.3111  0.6942  0.0865
  467SOL    HW1 1747   3.679   3.720   3.547  0.7501  1.1805 -0.9357
  467SOL    HW2 1748   3.647   3.859   3.497 -1.5804  0.5630 -1.2741
  468SOL     OW 1749   2.118   1.581   0.752  0.1207 -0.1429 -0.1961
  468SOL    HW1 1750   2.116   1.487   0.765  0.7671 -0.1101  0.1840
  468SOL    HW2 1751   2.112   1.618   0.840  0.1529  0.1698 -0.3221
  469SOL     OW 1752   3.401   2.021   2.199 -0.3259 -0.4352  0.5805
  469SOL    HW1 1753   3.342   2.077   2.149  0.4803 -0.2370 -0.1616
  469SOL    HW2 1754   3.419   1.947   2.141  1.1786  0.1461  0.2716
  470SOL     OW 1755   4.323   1.675   2.328 -0.4159 -0.0042 -0.2662
  470SOL    HW1 1756   4.291   1.669   2.417  1.6544 -1.6752  0.4390
  470SOL    HW2 1757   4.274   1.608   2.280  0.6245 -1.2375  0.3577
  471SOL     OW 1758   3.367   3.563   1.838 -0.5598 -0.1710 -0.4265
  471SOL    HW1 1759   3.279   3.601   1.834 -1.9115 -3.1932 -1.5713
  471SOL    HW2 1760   3.417   3.613   1.774 -1.5765  1.1784 -0.2239
  472SOL     OW 1761   3.634   0.473   3.884  0.1603 -0.5543  0.1329
  472SOL    HW1 1762   3.657   0.560   3.851  2.1520 -1.3439 -0.7231
  472SOL    HW2 1763   3.677   0.467   3.969  0.9845 -1.0956 -0.3104
  473SOL     OW 1764   2.274   3.522   2.739 -0.4095  0.0288 -0.1544
  473SOL    HW1 1765   2.338   3.592   2.734 -2.0319  1.6492  0.6419
  473SOL    HW2 1766   2.281   3.476   2.655  0.0425  1.7484 -1.0880
  474SOL     OW 1767   3.513   4.243   1.602 -0.1759  0.3246 -0.3792
  474SOL    HW1 1768   3.510   4.165   1.547  1.0266 -1.1125  1.4931
  474SOL    HW2 1769   3.604   4.273   1.597 -0.3680  0.9653 -0.2073
  475SOL     OW 1770   2.487   1.505   3.790  0.0918 -0.3949  0.2870
  475SOL    HW1 1771   2.400   1.481   3.759  0.9649 -1.7723 -1.2654
  475SOL    HW2 1772   2.536   1.525   3.711  1.2827  0.0560  1.1100
  476SOL     OW 1773   3.328   1.456   0.068 -0.0974  0.1824  0.0493
  476SOL    HW1 1774   3.362   1.545   0.067 -0.3129  0.2658 -0.0735
  476SOL    HW2 1775   3.330   1.430   0.160 -1.4276  0.8619  0.2939
  477SOL     OW 1776   0.194   2.487   0.083  0.0702 -0.4038 -0.0163
  477SOL    HW1 1777   0.104   2.517   0.083  0.6893  1.6978  1.6214
  477SOL    HW2 1778   0.234   2.530   0.008  0.4612  1.4942  1.1910
  478SOL     OW 1779   3.850   1.376   2.782  0.3303 -0.4841  0.1290
  478SOL    HW1 1780   3.756   1.391   2.770  0.2326 -1.9840 -1.4930
  478SOL    HW2 1781   3.889   1.409   2.701  1.2069  0.0361  0.7527
  479SOL     OW 1782   1.935   2.269   4.014 -0.5043 -0.4625  0.2273
  479SOL    HW1 1783   1.938   2.364   4.016 -2.1253 -0.3509 -0.7230
  479SOL    HW2 1784   2.009   2.243   3.959  1.7708  0.0262  2.8879
  480SOL     OW 1785   2.094   0.311   3.976  0.2440 -0.3001  0.3727
  480SOL    HW1 1786   2.152   0.387   3.988  1.4235 -1.0482 -0.3788
  480SOL    HW2 1787   2.016   0.347   3.935  1.2943  0.3534 -1.1703
  481SOL     OW 1788   1.194   3.242   4.113  0.1555 -0.0373 -0.0081
  481SOL    HW1 1789   1.251   3.165   4.110  3.9651  2.5096  0.4885
  481SOL    HW2 1790   1.137   3.232   4.036  1.6841 -2.4628 -0.9519
  482SOL     OW 1791   0.900   1.347   1.590 -0.1661  0.1210 -0.1482
  482SOL    HW1 1792   0.986   1.304   1.585 -0.8964 -1.4989  0.5989
  482SOL    HW2 1793   0.913   1.418   1.652  0.2742 -1.1478  1.2857
  483SOL     OW 1794   0.697   4.061   3.544  0.4012  0.3617  0.4494
  483SOL    HW1 1795   0.644   4.027   3.471 -0.0139  2.8427 -0.5228
  483SOL    HW2 1796   0.662   4.017   3.621  1.1845 -2.7472 -0.7950
  484SOL     OW 1797   2.231   0.919   2.974  0.0324  0.1936 -0.1864
  484SOL    HW1 1798   2.263   0.863   2.903 -0.8120  0.4419 -0.7779
  484SOL    HW2 1799   2.171   0.863   3.024  0.1113  0.2164 -0.0659
  485SOL     OW 1800   2.525   4.086   3.775  0.2838 -0.6455 -0.1134
  485SOL    HW1 1801   2.479   4.053   3.852  1.9465  1.6494  2.0020
  485SOL    HW2 1802   2.465   4.152   3.738 -0.7317 -2.1018 -1.1623
  486SOL     OW 1803   1.157   4.007   0.854  0.1774 -0.1001  0.0827
  486SOL    HW1 1804   1.249   4.017   0.877  0.3117  0.5138 -0.7181
  486SOL    HW2 1805   1.113   3.994   0.939  0.7578  1.4382  0.6545
  487SOL     OW 1806   1.237   1.572   3.665  0.4738  0.3170  0.0997
  487SOL    HW1 1807   1.144   1.592   3.651  0.7774  1.1576 -0.8028
  487SOL    HW2 1808   1.238   1.478   3.683 -0.6869  0.5321  1.4973
  488SOL     OW 1809   1.780   1.371   0.143  0.4587 -0.3920  0.3282
  488SOL    HW1 1810   1.872   1.376   0.117  0.5719 -2.1017  0.2505
  488SOL    HW2 1811   1.780   1.315   0.221 -0.6944 -2.3727 -0.9885
  489SOL     OW 1812   0.705   0.784   2.806 -0.3441 -0.0462 -0.1381
  489SOL    HW1 1813   0.695   0.784   2.710  1.8736 -3.0908 -0.5510
  489SOL    HW2 1814   0.775   0.846   2.823 -0.9413  0.7218 -0.4371
  490SOL     OW 1815   4.316   1.307   1.408 -0.3405 -0.4227 -0.4798
  490SOL    HW1 1816   4.402   1.285   1.442  0.0280 -0.1155 -1.1969
  490SOL    HW2 1817   4.315   1.274   1.318 -0.0795  1.5952 -1.2987
  491SOL     OW 1818   3.301   3.355   2.344 -0.1005 -0.4220 -0.3160
  491SOL    HW1 1819   3.386   3.356   2.388  0.5796 -2.0992 -1.4591
  491SOL    HW2 1820   3.308   3.423   2.277 -1.0864  2.0340  1.8984
  492SOL     OW 1821   2.250   3.419   2.484 -0.2754 -0.3799 -0.3803
  492SOL    HW1 1822   2.220   3.341   2.437 -2.0295 -0.4976  0.8515
  492SOL    HW2 1823   2.219   3.492   2.430  0.1775 -0.5057 -0.8263
  493SOL     OW 1824   2.937   0.519   0.089 -0.0420  0.2652 -0.1072
  493SOL    HW1 1825   2.992   0.490   0.161 -0.2989  0.8369  0.3312
  493SOL    HW2 1826   2.890   0.595   0.124  0.7891  1.3603 -1.2853
  494SOL     OW 1827   0.519   0.608   4.274  0.4741  0.2269 -0.6147
  494SOL    HW1 1828   0.468   0.528   4.288  1.4565 -0.2764  0.1644
  494SOL    HW2 1829   0.589   0.583   4.215  2.1086 -0.1063  1.3333
  495SOL     OW 1830   1.587   4.354   3.280 -0.1369  0.3811  0.1173
  495SOL    HW1 1831   1.621   4.267   3.258 -1.0590  0.7103 -3.3214
  495SOL    HW2 1832   1.648   4.388   3.345  1.6802 -1.8902 -0.2565
  496SOL     OW 1833   2.221   4.210   1.794 -0.0841  0.7841  0.2266
  496SOL    HW1 1834   2.165   4.271   1.748  0.1289  0.2413 -0.7720
  496SOL    HW2 1835   2.308   4.249   1.791 -0.2818  1.3385  1.2580
  497SOL     OW 1836   1.228   0.971   3.015  0.6286  0.2784  0.4238
  497SOL    HW1 1837   1.233   0.907   3.086  1.5843  2.2941  2.3367
  497SOL    HW2 1838   1.294   1.037   3.038  1.1294  0.9386 -2.5072
  498SOL     OW 1839   4.257   2.657   3.961 -0.6703  0.1370 -0.0691
  498SOL    HW1 1840   4.252   2.601   4.038  1.2127 -0.1355 -0.0788
  498SOL    HW2 1841   4.184   2.630   3.906 -0.7077 -1.2454  0.6116
  499SOL     OW 1842   2.706   1.917   3.177 -0.6573  0.0860  0.0859
  499SOL    HW1 1843   2.628   1.871   3.207  0.4047 -1.4110  0.6822
  499SOL    HW2 1844   2.740   1.960   3.256 -0.0479 -0.5359  0.1647
  500SOL     OW 1845   4.262   3.905   3.691 -0.4442 -0.3446  0.3617
  500SOL    HW1 1846   4.261   3.826   3.638 -0.0833 -0.4375  0.4889
  500SOL    HW2 1847   4.342   3.898   3.743 -0.2224  0.2649  0.1214
  501SOL     OW 1848   0.251   4.333   1.165 -0.0017  0.1322  0.6186
  501SOL    HW1 1849   0.228   4.240   1.171  1.3664 -0.1406  2.4094
  501SOL    HW2 1850   0.257   4.363   1.256  0.9965  1.6042  0.1171
  502SOL     OW 1851   2.514   4.301   0.049 -0.0652 -0.3870  0.3901
  502SOL    HW1 1852   2.604   4.322   0.072  0.1956 -1.9108  0.8992
  502SOL    HW2 1853   2.508   4.317  -0.045  0.7378 -0.2693  0.3554
  503SOL     OW 1854   3.155   1.230   0.181 -1.3516  0.1395 -0.1113
  503SOL    HW1 1855   3.074   1.246   0.230 -1.6312 -1.9603  0.2016
  503SOL    HW2 1856   3.224   1.265   0.237 -1.8992  0.2678  0.4953
  504SOL     OW 1857   0.542   2.601   1.887 -0.4450 -0.0816  0.2191
  504SOL    HW1 1858   0.618   2.659   1.893 -0.7189  0.1425  2.2968
  504SOL    HW2 1859   0.580   2.513   1.886 -0.1146  0.0377  0.9793
  505SOL     OW 1860   3.170   0.712   0.289 -0.5632  0.1644  0.2416
  505SOL    HW1 1861   3.169   0.637   0.230 -1.1426 -0.0073  0.4555
  505SOL    HW2 1862   3.228   0.686   0.361 -1.5227 -0.4806  0.8056
  506SOL     OW 1863   2.625   3.070   2.723 -0.1227  0.0622  0.2231
  506SOL    HW1 1864   2.572   3.137   2.766 -0.5870  1.5578 -2.4739
  506SOL    HW2 1865   2.709   3.072   2.770 -0.1949  2.4158  0.3473
  507SOL     OW 1866   4.313   1.836   2.929  0.3731 -0.1742  0.3557
  507SOL    HW1 1867   4.250   1.801   2.992  0.2253  0.6425  0.6707
  507SOL    HW2 1868   4.388   1.776   2.934  0.3851 -0.0972  1.3551
  508SOL     OW 1869   3.023   3.324   0.385  0.4542 -0.0121 -0.2947
  508SOL    HW1 1870   2.960   3.395   0.396  0.3190 -0.1944  0.1453
  508SOL    HW2 1871   3.007   3.266   0.460 -0.5005 -1.3220 -1.4650
  509SOL     OW 1872   3.343   0.469   3.071  0.9210 -0.3928  0.4039
  509SOL    HW1 1873   3.384   0.408   3.009  1.8268  0.1152  0.4823
  509SOL    HW2 1874   3.385   0.553   3.053 -0.7771  0.3834 -0.1627
  510SOL     OW 1875   2.284   0.347   0.315  0.1025  0.0121  0.5215
  510SOL    HW1 1876   2.273   0.415   0.249  0.8461  0.4421  0.8244
  510SOL    HW2 1877   2.345   0.285   0.275 -0.3164 -0.3120  0.3755
  511SOL     OW 1878   2.911   3.073   0.122 -0.0742  0.1621  0.1800
  511SOL    HW1 1879   2.868   3.020   0.055  1.0577 -0.2245 -0.2503
  511SOL    HW2 1880   2.933   3.155   0.076  0.1171  0.1555  0.2634
  512SOL     OW 1881   3.697   4.163   2.217 -0.0672  0.3075  0.1118
  512SOL    HW1 1882   3.763   4.096   2.235 -2.5861 -2.2815  0.5178
  512SOL    HW2 1883   3.679   4.155   2.124  0.3709  1.2193 -0.0604
  513SOL     OW 1884   1.913   1.874   0.898  0.1204  0.2142 -0.3193
  513SOL    HW1 1885   1.961   1.878   0.980 -0.6374  1.3747  0.0983
  513SOL    HW2 1886   1.889   1.782   0.888  0.7714 -0.0478  0.4255
  514SOL     OW 1887   1.225   0.269   3.797  0.4298 -0.1698 -0.5135
  514SOL    HW1 1888   1.177   0.350   3.777 -0.7357 -0.6519  0.2006
  514SOL    HW2 1889   1.317   0.294   3.797  0.0238  1.6488  1.6743
  515SOL     OW 1890   0.294   1.194   2.243  0.2870  0.0103 -0.6446
  515SOL    HW1 1891   0.321   1.125   2.182 -0.4043  1.3151 -2.5102
  515SOL    HW2 1892   0.232   1.248   2.194  1.8957  2.8537  0.1720
  516SOL     OW 1893   3.063   2.496   4.278  0.3809  0.5889 -0.5428
  516SOL    HW1 1894   3.076   2.576   4.329  0.6339  0.8439 -1.0088
  516SOL    HW2 1895   3.019   2.526   4.198 -1.2489  0.0255  0.0870
  517SOL     OW 1896   3.307   2.725   2.696 -0.5742  0.1571 -0.1800
  517SOL    HW1 1897   3.249   2.742   2.770 -0.4098 -1.2875  0.3150
  517SOL    HW2 1898   3.308   2.629   2.688  0.2318  0.2446 -1.3928
  518SOL     OW 1899   0.885   1.088   3.161 -0.2214  0.7770 -0.1543
  518SOL    HW1 1900   0.959   1.044   3.204 -1.6011 -0.2914  1.2125
  518SOL    HW2 1901   0.898   1.181   3.182  2.1578  1.0298 -2.2023
  519SOL     OW 1902   2.385   4.217   2.536 -0.9561 -0.6316 -0.2589
  519SOL    HW1 1903   2.420   4.142   2.489 -1.2460  0.3374 -2.0906
  519SOL    HW2 1904   2.463   4.266   2.564 -0.7708  0.0139 -1.8230
  520SOL     OW 1905   3.519   2.192   1.101  0.0672 -0.3763 -0.5091
  520SOL    HW1 1906   3.432   2.220   1.131  0.2879 -0.6231  0.3836
  520SOL    HW2 1907   3.521   2.098   1.117  0.7963 -0.2413  0.2285
  521SOL     OW 1908   3.923   4.239   2.932 -0.0165  0.1776  0.2198
  521SOL    HW1 1909   3.931   4.260   3.025 -1.2651  2.7189 -0.1625
  521SOL    HW2 1910   3.978   4.161   2.921  1.4882  0.7520  2.7293
  522SOL     OW 1911   2.578   3.112   3.419  0.3462 -0.3568 -0.3572
  522SOL    HW1 1912   2.598   3.196   3.378 -0.8359  0.0625 -0.1041
  522SOL    HW2 1913   2.663   3.070   3.430  1.0338  1.1168  0.1792
  523SOL     OW 1914   2.626   2.636   2.944  0.3095  0.0798  0.7909
  523SOL    HW1 1915   2.549   2.677   2.906  0.3357 -1.1828 -0.7453
  523SOL    HW2 1916   2.591   2.573   3.007  0.0954 -0.0011  0.5957
  524SOL     OW 1917   4.051   1.452   0.364 -0.0516 -0.1379  0.1319
  524SOL    HW1 1918   4.092   1.506   0.296  1.0395 -1.0516  0.0299
  524SOL    HW2 1919   4.069   1.499   0.446  1.9987 -0.9195  0.1895
  525SOL     OW 1920   3.278   3.065   0.100  0.2010 -0.9373 -0.5377
  525SOL    HW1 1921   3.223   3.048   0.023  0.0813 -1.7118 -0.2936
  525SOL    HW2 1922   3.216   3.074   0.172  0.3621 -1.3260 -0.3451
  526SOL     OW 1923   2.161   0.014   1.162  0.6327  0.0124  0.4362
  526SOL    HW1 1924   2.223  -0.039   1.214  1.1919  0.2063 -0.0316
  526SOL    HW2 1925   2.216   0.066   1.104  0.0157 -0.0646 -0.2303
  527SOL     OW 1926   3.212   0.720   4.108 -0.0410  0.1012 -0.4401
  527SOL    HW1 1927   3.294   0.760   4.135  0.7566 -1.6584 -0.1026
  527SOL    HW2 1928   3.148   0.749   4.174  0.6488  0.2731  0.1646
  528SOL     OW 1929   3.098   2.466   2.045 -0.4297 -0.1610  0.9897
  528SOL    HW1 1930   3.120   2.519   2.122 -1.3875  0.6501  0.7265
  528SOL    HW2 1931   3.158   2.496   1.977  0.0671 -0.5113  1.2693
  529SOL     OW 1932   2.433   2.324   0.084  0.2752 -0.2178 -0.3706
  529SOL    HW1 1933   2.472   2.247   0.124 -1.7576 -1.5677 -0.8688
  529SOL    HW2 1934   2.410   2.381   0.158  0.3705 -0.7941  0.1078
  530SOL     OW 1935   0.911   2.794   4.080 -0.5152  0.1840  0.7427
  530SOL    HW1 1936   0.991   2.802   4.028  0.5014 -0.9104  2.0629
  530SOL    HW2 1937   0.914   2.869   4.140 -0.8983  0.5843  0.2684
  531SOL     OW 1938   0.991   0.915   0.266 -0.3154  0.2137 -0.7641
  531SOL    HW1 1939   0.916   0.905   0.325  0.0723 -2.2279 -0.5981
  531SOL    HW2 1940   0.959   0.886   0.181 -0.3327  1.9678 -1.4105
  532SOL     OW 1941   2.653   3.969   3.535 -0.1684 -0.2206 -0.6858
  532SOL    HW1 1942   2.715   3.903   3.568 -0.4853 -0.8381 -1.2897
  532SOL    HW2 1943   2.609   4.002   3.614  1.7073  1.0571 -0.1243
  533SOL     OW 1944   2.027   1.870   0.175 -0.0740 -0.1581  0.1908
  533SOL    HW1 1945   2.059   1.783   0.151  2.4333  0.3840  1.2377
  533SOL    HW2 1946   1.935   1.856   0.199  0.2040 -2.4768  0.1122
  534SOL     OW 1947   1.138   1.922   1.732 -0.0697 -0.1628 -0.4375
  534SOL    HW1 1948   1.142   1.831   1.702  2.0005 -0.2051 -0.1921
  534SOL    HW2 1949   1.180   1.972   1.662 -0.0310  0.4359  0.0073
  535SOL     OW 1950   2.823   2.709   3.462  0.3471  0.8933  0.3693
  535SOL    HW1 1951   2.799   2.621   3.433  0.0024  0.9010  0.6245
  535SOL    HW2 1952   2.916   2.716   3.442 -0.1931  1.5398 -2.3929
  536SOL     OW 1953   3.588   0.949   2.139 -0.2667  0.7879 -0.4044
  536SOL    HW1 1954   3.562   0.955   2.231 -2.8227 -3.1771 -0.6345
  536SOL    HW2 1955   3.531   1.012   2.095 -1.7017  0.1153  0.3950
  537SOL     OW 1956   0.099   2.818   4.020  0.2037  0.0983  0.0449
  537SOL    HW1 1957   0.145   2.848   3.942 -0.9666  2.4700  0.1810
  537SOL    HW2 1958   0.010   2.798   3.989 -0.7603  2.5957  0.9160
  538SOL     OW 1959   2.214   0.994   1.593  0.3553  0.1035  0.3270
  538SOL    HW1 1960   2.202   1.049   1.515  0.4764 -0.3911 -0.0453
  538SOL    HW2 1961   2.218   0.904   1.559  4.1171  0.0541  0.4586
  539SOL     OW 1962   0.208   3.583   4.287  0.3686  0.1416  0.3521
  539SOL    HW1 1963   0.175   3.549   4.370 -0.4570  1.0292  0.3987
  539SOL    HW2 1964   0.204   3.508   4.227 -0.2044 -0.1840  0.7881
  540SOL     OW 1965   2.734   2.854   3.084  0.2747 -0.2700 -0.1069
  540SOL    HW1 1966   2.701   2.770   3.050 -0.9471  0.1088  0.1032
  540SOL    HW2 1967   2.656   2.908   3.094  0.8856  0.4279  1.1007
  541SOL     OW 1968   2.455   0.049   2.284 -0.7366 -0.1896  0.3861
  541SOL    HW1 1969   2.486  -0.037   2.255 -3.7178 -0.7800 -1.4969
  541SOL    HW2 1970   2.386   0.029   2.347  0.3306  0.9596  1.9860
  542SOL     OW 1971   2.037   3.957   4.320 -0.4265 -0.1773 -0.1258
  542SOL    HW1 1972   2.060   3.865   4.306 -1.9759 -0.4840 -0.8624
  542SOL    HW2 1973   2.121   4.000   4.335  0.2539 -1.9040  1.4849
  543SOL     OW 1974   1.815   1.025   4.002  0.3454 -0.1148  0.1668
  543SOL    HW1 1975   1.838   1.113   3.971  1.1768 -0.0172  1.0342
  543SOL    HW2 1976   1.842   0.967   3.931 -0.5232  0.3393 -0.5604
  544SOL     OW 1977   1.819   3.496   1.710  0.0054 -0.2548  0.3427
  544SOL    HW1 1978   1.870   3.529   1.637 -0.5197  0.6008  0.3386
  544SOL    HW2 1979   1.739   3.460   1.670  0.1549 -0.6820  0.4224
  545SOL     OW 1980   3.758   2.627   3.547  0.6248  0.0232 -0.4180
  545SOL    HW1 1981   3.686   2.654   3.490  0.2101  0.6744  0.3906
  545SOL    HW2 1982   3.725   2.549   3.592  0.7452 -0.1733 -0.6711
  546SOL     OW 1983   0.004   2.138   3.037  0.0393 -0.3223 -0.2035
  546SOL    HW1 1984  -0.087   2.154   3.062 -0.1682 -0.4974 -0.8385
  546SOL    HW2 1985   0.022   2.204   2.969  0.6644  0.2850  0.5292
  547SOL     OW 1986   2.298   3.328   0.706  0.5458  0.2217  0.1685
  547SOL    HW1 1987   2.390   3.353   0.706  1.0331 -1.4031  1.3377
  547SOL    HW2 1988   2.254   3.396   0.757  1.0157  1.1621 -0.6420
  548SOL     OW 1989   2.069   0.085   1.670 -0.2291 -1.0826 -0.1204
  548SOL    HW1 1990   2.143   0.083   1.609 -0.3953 -0.6914 -0.3362
  548SOL    HW2 1991   1.992   0.094   1.614 -0.2592  1.2152  0.2242
  549SOL     OW 1992   2.206   2.401   0.598  0.1175  0.0378 -0.1326
  549SOL    HW1 1993   2.266   2.468   0.566  0.7386  1.2885  3.2331
  549SOL    HW2 1994   2.128   2.448   0.624 -1.1602 -1.1778 -1.5834
  550SOL     OW 1995   0.136   0.739   1.221  0.2585  0.1715  0.1453
  550SOL    HW1 1996   0.194   0.728   1.296 -0.6133  0.5636  0.9017
  550SOL    HW2 1997   0.092   0.654   1.213  1.1340 -0.2298 -0.6252
  551SOL     OW 1998   4.173   0.421   3.010  0.9399 -0.0061  0.2220
  551SOL    HW1 1999   4.184   0.504   2.963  2.0501  1.0358  2.1689
  551SOL    HW2 2000   4.261   0.402   3.044  0.7518 -2.1242 -0.3261
  552SOL     OW 2001   0.266   1.961   0.951  0.7434  0.0316  0.9784
  552SOL    HW1 2002   0.173   1.937   0.946  0.6089  0.7616 -1.1895
  552SOL    HW2 2003   0.278   1.991   1.041 -0.8004 -1.2462  1.6568
  553SOL     OW 2004   1.243   0.430   0.638  0.1683  0.1952  0.1607
  553SOL    HW1 2005   1.164   0.477   0.610 -1.6463 -1.6333  1.8709
  553SOL    HW2 2006   1.231   0.418   0.732  2.2554 -0.5919  0.3630
  554SOL     OW 2007   1.409   3.587   1.806  0.4122 -0.6321 -0.1232
  554SOL    HW1 2008   1.419   3.495   1.786  2.1752 -0.7714  1.1641
  554SOL    HW2 2009   1.452   3.633   1.734 -0.6827 -0.7700 -0.8918
  555SOL     OW 2010   3.190   1.157   2.019 -0.1814  0.1506  0.1873
  555SOL    HW1 2011   3.145   1.136   2.101  0.0999  1.8853  0.8448
  555SOL    HW2 2012   3.148   1.238   1.990  0.4798  0.1508 -0.7952
  556SOL     OW 2013   0.413   1.162   0.530  0.1706 -0.4968  0.0818
  556SOL    HW1 2014   0.500   1.190   0.500 -0.2874  0.6760 -0.1845
  556SOL    HW2 2015   0.353   1.193   0.463 -0.4555 -1.4941  0.1530
  557SOL     OW 2016   1.620   4.215   0.454 -0.2468 -0.4275 -0.4296
  557SOL    HW1 2017   1.582   4.253   0.375  0.0764  0.5797 -0.1044
  557SOL    HW2 2018   1.712   4.242   0.453  0.0990 -1.5381 -0.3964
  558SOL     OW 2019   0.124   0.454   0.741 -0.0953  0.0885 -0.1572
  558SOL    HW1 2020   0.045   0.465   0.687 -0.5250  0.2880  0.5016
  558SOL    HW2 2021   0.094   0.404   0.817  0.3240  0.5237  0.3007
  559SOL     OW 2022   4.223   0.136   3.193 -0.2479  0.8973  0.4733
  559SOL    HW1 2023   4.180   0.095   3.268 -2.3499  1.8654 -0.1582
  559SOL    HW2 2024   4.296   0.185   3.232  0.0462 -0.3620  1.6129
  560SOL     OW 2025   0.871   1.130   2.667  0.2191 -0.2680 -0.2930
  560SOL    HW1 2026   0.828   1.144   2.751 -0.6335 -2.1600 -0.3760
  560SOL    HW2 2027   0.964   1.129   2.687  0.0828  0.4602  0.4205
  561SOL     OW 2028   3.538   1.584   4.078 -0.7083 -0.2670 -0.5616
  561SOL    HW1 2029   3.586   1.542   4.149 -1.5386  1.0585  0.8343
  561SOL    HW2 2030   3.602   1.594   4.008  1.0681  1.2727  1.1638
  562SOL     OW 2031   3.129   2.462   1.656 -0.3768  0.3463 -0.3509
  562SOL    HW1 2032   3.113   2.478   1.749  0.2682  1.5714 -0.4215
  562SOL    HW2 2033   3.187   2.534   1.630 -0.2165 -0.2204 -1.6022
  563SOL     OW 2034   0.480   3.135   0.194  0.0548  0.4824  0.6210
  563SOL    HW1 2035   0.430   3.054   0.202  1.4633 -0.3313  1.7780
  563SOL    HW2 2036   0.481   3.171   0.282  1.1342  0.6854  0.5356
  564SOL     OW 2037   0.678   3.442   4.370 -0.1606  0.3986  0.6256
  564SOL    HW1 2038   0.632   3.525   4.359  1.7309  1.4557  0.1730
  564SOL    HW2 2039   0.658   3.414   4.460 -0.4760  1.5758  0.9335
  565SOL     OW 2040   1.526   1.577   0.780  0.0251 -0.2968  0.1874
  565SOL    HW1 2041   1.552   1.523   0.705  0.7993 -0.6191  0.6787
  565SOL    HW2 2042   1.452   1.629   0.748  1.9990  1.5535 -1.6487
  566SOL     OW 2043   2.163   2.739   0.960  0.0154  0.0268 -0.0005
  566SOL    HW1 2044   2.123   2.810   0.911 -1.6486 -0.1993  0.9406
  566SOL    HW2 2045   2.235   2.709   0.905  0.1248  1.7682 -0.8588
  567SOL     OW 2046   1.769   2.408   0.917  0.3501  0.7391 -0.1594
  567SOL    HW1 2047   1.833   2.339   0.900 -0.0128  0.3052  0.2198
  567SOL    HW2 2048   1.818   2.473   0.968  0.0373 -0.4383  1.7462
  568SOL     OW 2049   1.814   2.770   2.428  0.2567 -0.5157 -0.2862
  568SOL    HW1 2050   1.782   2.694   2.379 -0.4287 -1.7748  1.9615
  568SOL    HW2 2051   1.778   2.759   2.516  2.4224  0.9562  0.8835
  569SOL     OW 2052   0.250   2.957   0.828 -0.2820  0.3911 -0.1356
  569SOL    HW1 2053   0.216   2.932   0.742  0.3834 -2.0511  0.2357
  569SOL    HW2 2054   0.332   3.002   0.809 -0.1027 -0.1892 -0.7958
  570SOL     OW 2055   2.100   0.215   3.484 -0.7710 -0.1364  0.7461
  570SOL    HW1 2056   2.154   0.255   3.553  0.5121  1.3030 -0.9904
  570SOL    HW2 2057   2.041   0.284   3.456 -0.9885 -0.5676  0.1208
  571SOL     OW 2058   3.929   3.011   0.104 -0.4590  0.2214 -0.4881
  571SOL    HW1 2059   3.982   2.931   0.108  0.0532  0.5976  0.5986
  571SOL    HW2 2060   3.921   3.039   0.195 -2.2449  0.3796 -0.6593
  572SOL     OW 2061   0.356   3.703   2.769 -0.5329  0.5852  0.1602
  572SOL    HW1 2062   0.452   3.703   2.772 -0.5161  0.1005 -0.2206
  572SOL    HW2 2063   0.335   3.686   2.678 -0.9856  0.7653  0.2282
  573SOL     OW 2064   4.028   3.453   1.555 -0.4958 -0.7787 -1.1905
  573SOL    HW1 2065   4.100   3.455   1.618 -0.7202 -0.8322 -0.9278
  573SOL    HW2 2066   4.050   3.381   1.496 -0.4030 -0.8851 -1.0271
  574SOL     OW 2067   1.888   3.794   3.058  0.7743 -0.0358 -0.3552
  574SOL    HW1 2068   1.806   3.796   3.108 -0.4430  1.1059 -2.3180
  574SOL    HW2 2069   1.949   3.846   3.111 -0.6461  1.6558 -0.3069
  575SOL     OW 2070   3.394   1.956   0.865  0.0712  0.7665 -0.3044
  575SOL    HW1 2071   3.329   1.958   0.794  0.5234 -1.5245 -0.8635
  575SOL    HW2 2072   3.354   2.007   0.935 -2.1197 -0.1102 -0.8353
  576SOL     OW 2073   3.339   2.343   1.233  0.3136  0.0499  0.5527
  576SOL    HW1 2074   3.313   2.300   1.314  1.2017 -1.2107  0.2030
  576SOL    HW2 2075   3.383   2.423   1.261  0.6470 -0.3895  1.3244
  577SOL     OW 2076   2.459   3.062   0.782  0.4863  0.5204  0.2980
  577SOL    HW1 2077   2.493   3.016   0.859  2.2160 -0.0460 -0.7514
  577SOL    HW2 2078   2.516   3.139   0.774 -0.3826  1.1737  0.1944
  578SOL     OW 2079   2.075   2.713   1.882 -0.2380 -0.5409 -0.1044
  578SOL    HW1 2080   2.069   2.697   1.788  1.2028  0.6733 -0.4361
  578SOL    HW2 2081   2.099   2.806   1.889  0.7166 -0.8709  1.4263
  579SOL     OW 2082   4.053   2.327   0.771  0.2409  0.1375 -0.4172
  579SOL    HW1 2083   4.089   2.320   0.859 -1.8044 -2.5518  0.3300
  579SOL    HW2 2084   3.959   2.340   0.784 -0.0012  0.4862 -2.2222
  580SOL     OW 2085   4.335   0.629   2.292 -0.4108 -0.5071  0.4856
  580SOL    HW1 2086   4.274   0.657   2.360 -0.0211  0.6600  0.3830
  580SOL    HW2 2087   4.280   0.595   2.222 -1.0020  1.0268  0.1681
  581SOL     OW 2088   1.343   0.498   3.076  0.2799 -0.0600 -0.2214
  581SOL    HW1 2089   1.350   0.588   3.109  3.7261 -0.1075 -0.4716
  581SOL    HW2 2090   1.298   0.507   2.992  0.4995  1.4248 -0.2062
  582SOL     OW 2091   2.350   0.155   2.609 -0.0046 -0.3510 -0.1491
  582SOL    HW1 2092   2.330   0.246   2.631 -1.9484 -1.0242  1.1960
  582SOL    HW2 2093   2.399   0.122   2.684 -0.3479 -0.7293 -0.0866
  583SOL     OW 2094   1.986   3.151   2.853 -0.5025  0.0784  0.3013
  583SOL    HW1 2095   1.975   3.127   2.945  3.3415 -4.0802 -0.0098
  583SOL    HW2 2096   1.942   3.081   2.805  2.4331 -1.1013 -0.8472
  584SOL     OW 2097   3.712   1.257   4.109 -0.2641 -0.1578  0.2394
  584SOL    HW1 2098   3.749   1.322   4.169 -0.1437 -0.1404  0.1474
  584SOL    HW2 2099   3.759   1.271   4.026 -1.4914  0.8204 -0.3130
  585SOL     OW 2100   1.493   0.290   2.970  0.6761  0.2325  0.4649
  585SOL    HW1 2101   1.462   0.375   3.002  1.5814  0.7712 -0.0256
  585SOL    HW2 2102   1.582   0.283   3.005  0.5758 -0.5524  0.5612
  586SOL     OW 2103   0.937   4.166   3.636  0.2197 -0.2849  0.3310
  586SOL    HW1 2104   0.932   4.251   3.592 -0.4051  0.6693  2.1273
  586SOL    HW2 2105   0.851   4.127   3.621 -0.2306  0.3310  1.2126
  587SOL     OW 2106   4.055   0.788   0.076 -0.2130  0.2554 -0.0995
  587SOL    HW1 2107   3.988   0.720   0.077 -0.5925  0.6353  0.9234
  587SOL    HW2 2108   4.061   0.813  -0.016 -1.7507  0.4836 -0.1635
  588SOL     OW 2109   2.573   1.315   0.596 -0.0123  0.4383 -0.5177
  588SOL    HW1 2110   2.501   1.350   0.544  0.2388 -0.3811 -1.4305
  588SOL    HW2 2111   2.533   1.296   0.681 -0.8435  0.1124 -0.9719
  589SOL     OW 2112   3.517   2.982   4.200  0.3968 -0.0442  0.7582
  589SOL    HW1 2113   3.471   3.065   4.216 -0.4238 -0.8852  3.1422
  589SOL    HW2 2114   3.608   3.001   4.220  0.3684  0.4906  0.4193
  590SOL     OW 2115   3.252   1.431   2.507  0.1436 -0.4610  0.5317
  590SOL    HW1 2116   3.324   1.396   2.560  0.8102 -1.6377 -1.0630
  590SOL    HW2 2117   3.295   1.479   2.436 -0.5003 -2.3511 -1.2578
  591SOL     OW 2118   1.556   2.480   0.749  0.4401 -0.2624 -0.1598
  591SOL    HW1 2119   1.610   2.471   0.828 -1.2542 -2.2039  0.8882
  591SOL    HW2 2120   1.591   2.416   0.688  1.6686  1.1501 -0.9941
  592SOL     OW 2121   4.119   0.780   1.105  0.3022 -0.3706  0.0896
  592SOL    HW1 2122   4.121   0.875   1.091 -0.4604 -0.4044 -0.3045
  592SOL    HW2 2123   4.029   0.755   1.083  0.2693 -1.0642  0.9737
  593SOL     OW 2124   4.075   2.955   1.938 -0.3774 -0.3384  0.6213
  593SOL    HW1 2125   3.996   2.902   1.955 -0.7480 -0.3123 -0.8887
  593SOL    HW2 2126   4.055   3.001   1.857  0.6231  0.8309  1.0232
  594SOL     OW 2127   2.120   3.486   3.412 -0.5767 -0.3940  0.2936
  594SOL    HW1 2128   2.178   3.558   3.387 -1.2983 -0.4238 -1.5960
  594SOL    HW2 2129   2.033   3.524   3.413 -0.8000 -0.8962  0.8148
  595SOL     OW 2130   0.036   0.240   2.173 -0.2165 -0.3294  0.1687
  595SOL    HW1 2131  -0.023   0.235   2.097  2.0715 -0.3812 -1.7362
  595SOL    HW2 2132   0.045   0.334   2.189  0.7696 -0.2066 -0.9335
  596SOL     OW 2133   0.257   4.043   1.168 -0.3019  0.1296  0.1320
  596SOL    HW1 2134   0.249   4.004   1.255 -2.1581  1.5691  0.6741
  596SOL    HW2 2135   0.214   3.980   1.109  0.2911 -0.4987  0.3666
  597SOL     OW 2136   2.729   2.886   1.727  0.6436 -0.4973  0.2138
  597SOL    HW1 2137   2.671   2.919   1.795 -1.0164 -2.1026 -0.3250
  597SOL    HW2 2138   2.783   2.820   1.771  1.9215  0.7757  0.6441
  598SOL     OW 2139   1.551   4.143   2.507 -0.1336  0.0096 -0.2058
  598SOL    HW1 2140   1.600   4.224   2.493  0.8640 -0.5382 -0.0105
  598SOL    HW2 2141   1.587   4.108   2.589 -1.2164 -0.1590  0.2094
  599SOL     OW 2142   3.677   3.175   1.704  0.3927  0.1460  0.0248
  599SOL    HW1 2143   3.596   3.179   1.652  0.7950 -0.1787 -0.6423
  599SOL    HW2 2144   3.711   3.264   1.703 -0.9523  0.7605  1.9717
  600SOL     OW 2145   2.571   0.220   4.064 -0.0417 -0.3648  0.0104
  600SOL    HW1 2146   2.662   0.249   4.059 -0.0332 -0.2403  0.7008
  600SOL    HW2 2147   2.520   0.300   4.072 -0.3255 -0.3669 -1.5009
  601SOL     OW 2148   1.384   1.393   1.198 -0.3446 -0.0751 -0.1228
  601SOL    HW1 2149   1.414   1.469   1.247  2.9496 -1.0003 -0.4484
  601SOL    HW2 2150   1.363   1.328   1.266 -1.3686  0.4996  0.1215
  602SOL     OW 2151   3.232   2.541   0.970 -0.4483 -0.5017  0.2822
  602SOL    HW1 2152   3.292   2.614   0.957  0.1578 -1.2568 -1.5122
  602SOL    HW2 2153   3.278   2.465   0.933 -1.1765 -1.7590  1.7989
  603SOL     OW 2154   1.869   2.072   4.197  0.4677 -0.2983  0.3725
  603SOL    HW1 2155   1.856   2.132   4.123 -2.3443  0.6002  1.4444
  603SOL    HW2 2156   1.937   2.114   4.250  0.5458  0.4766 -0.3202
  604SOL     OW 2157   1.158   1.787   2.150 -0.3538 -0.1761  0.6491
  604SOL    HW1 2158   1.244   1.765   2.186  0.7907 -0.1783 -1.8468
  604SOL    HW2 2159   1.112   1.830   2.222  1.6588 -0.3327  2.1262
  605SOL     OW 2160   3.511   4.095   3.310  0.2704  0.6991  0.6480
  605SOL    HW1 2161   3.513   4.111   3.405  1.4899  1.8925  0.4539
  605SOL    HW2 2162   3.426   4.054   3.295  1.0618 -1.9353  2.5941
  606SOL     OW 2163   3.540   2.787   2.324 -0.0177  0.5124 -0.3880
  606SOL    HW1 2164   3.461   2.812   2.276 -0.8327 -1.5794 -0.2315
  606SOL    HW2 2165   3.530   2.829   2.410 -0.0006  1.8223 -1.0064
  607SOL     OW 2166   2.722   1.909   2.367 -0.2183  0.0974 -0.4108
  607SOL    HW1 2167   2.773   1.912   2.448  1.0384  0.9835 -1.1945
  607SOL    HW2 2168   2.686   1.997   2.358 -1.3119 -0.3231 -0.2390
  608SOL     OW 2169   1.736   1.762   1.140  0.0195  0.4952 -0.0011
  608SOL    HW1 2170   1.698   1.849   1.145  0.3729  0.6191  0.5455
  608SOL    HW2 2171   1.824   1.771   1.176  0.5608  0.1980 -1.1913
  609SOL     OW 2172   0.972   1.199   3.626 -0.4138 -0.1533  0.2905
  609SOL    HW1 2173   0.938   1.123   3.580 -1.1652 -0.5911  1.5515
  609SOL    HW2 2174   1.009   1.254   3.556 -1.8240 -0.6294 -0.8813
  610SOL     OW 2175   3.057   0.126   2.468  0.1088 -0.3689 -0.2285
  610SOL    HW1 2176   3.028   0.118   2.559  0.5646  0.8235  0.0313
  610SOL    HW2 2177   3.032   0.214   2.441  1.4492 -0.1141 -0.7228
  611SOL     OW 2178   2.529   2.041   3.453  0.4960  0.1199  0.3476
  611SOL    HW1 2179   2.475   2.077   3.382  1.5051  0.5125 -0.2455
  611SOL    HW2 2180   2.552   2.117   3.506  1.7497  0.2241 -0.3010
  612SOL     OW 2181   2.454   3.234   2.307 -0.0510  0.0181  0.5354
  612SOL    HW1 2182   2.517   3.228   2.379  0.5311  0.0836  0.0409
  612SOL    HW2 2183   2.372   3.202   2.344 -0.0914  1.2983  1.6144
  613SOL     OW 2184   0.209   2.645   4.212 -0.4062  0.1580  0.6388
  613SOL    HW1 2185   0.153   2.687   4.147 -0.0803  0.6276  0.6508
  613SOL    HW2 2186   0.293   2.691   4.204 -0.9909  1.8140  2.9143
  614SOL     OW 2187   0.670   2.990   4.090  0.0833  0.2929  1.0376
  614SOL    HW1 2188   0.727   3.014   4.018 -1.2968  0.5476 -0.0110
  614SOL    HW2 2189   0.729   2.977   4.165  1.4751  0.5900  0.0188
  615SOL     OW 2190   1.736   2.349   3.702 -0.5228 -0.4940 -0.0041
  615SOL    HW1 2191   1.769   2.405   3.772  0.1981 -0.1828 -0.5741
  615SOL    HW2 2192   1.652   2.387   3.678 -0.5868 -0.3643  0.4135
  616SOL     OW 2193   1.369   2.769   3.827  0.1858 -0.1800  0.1191
  616SOL    HW1 2194   1.385   2.725   3.743  0.2356  0.4478 -0.2079
  616SOL    HW2 2195   1.433   2.840   3.829 -1.0567  1.0020 -0.1987
  617SOL     OW 2196   1.253   0.793   0.108 -0.4479  0.1434  0.1404
  617SOL    HW1 2197   1.168   0.832   0.130 -0.0012  0.7987  0.7317
  617SOL    HW2 2198   1.254   0.792   0.012 -1.0216  0.3535  0.1261
  618SOL     OW 2199   0.466   3.107   0.755 -0.3510 -0.1196 -0.1422
  618SOL    HW1 2200   0.472   3.157   0.674 -0.6292 -0.5490 -0.4311
  618SOL    HW2 2201   0.543   3.134   0.805 -0.0222 -0.0646 -0.6676
  619SOL     OW 2202   1.991   0.494   3.722  0.3306 -0.2770 -0.3298
  619SOL    HW1 2203   2.029   0.581   3.707  3.3721 -1.3149  0.5938
  619SOL    HW2 2204   1.963   0.465   3.636  1.4149  0.7174 -1.0577
  620SOL     OW 2205   1.646   0.248   1.450  0.3863 -0.8977  0.1819
  620SOL    HW1 2206   1.615   0.188   1.383 -0.5146  1.1388 -1.3221
  620SOL    HW2 2207   1.569   0.301   1.474  1.5601  1.0597 -0.1210
  621SOL     OW 2208   2.516   3.548   0.843 -0.7522  0.0900  0.3784
  621SOL    HW1 2209   2.474   3.612   0.786 -1.5276 -0.2357  0.5656
  621SOL    HW2 2210   2.531   3.594   0.926 -1.8967 -0.1380  0.7290
  622SOL     OW 2211   1.475   0.862   0.969  0.0567  0.4671  0.0361
  622SOL    HW1 2212   1.440   0.775   0.954 -0.0370  0.3251  1.0353
  622SOL    HW2 2213   1.448   0.885   1.058  0.5162  1.3029 -0.0222
  623SOL     OW 2214   2.997   3.981   1.326  0.1531  0.2177  0.2960
  623SOL    HW1 2215   2.908   3.946   1.322  0.4996 -0.5520 -1.4756
  623SOL    HW2 2216   3.054   3.907   1.303  1.1102  1.1708 -0.5264
  624SOL     OW 2217   0.962   3.723   1.523  0.1123 -0.0254  0.3783
  624SOL    HW1 2218   0.914   3.742   1.443  1.2497 -2.0686 -0.8984
  624SOL    HW2 2219   0.934   3.634   1.548 -0.0384  0.4684  2.1334
  625SOL     OW 2220   1.332   2.975   2.237  0.5022  0.3477 -0.4184
  625SOL    HW1 2221   1.262   2.950   2.175 -1.2136  2.2404  0.6441
  625SOL    HW2 2222   1.350   2.894   2.285 -0.2228 -0.4349 -1.3947
  626SOL     OW 2223   3.766   1.133   2.600  0.3722 -0.2001  0.0396
  626SOL    HW1 2224   3.728   1.045   2.601  3.1775 -1.5244 -0.1033
  626SOL    HW2 2225   3.740   1.172   2.683 -1.3706 -0.9036 -0.1287
  627SOL     OW 2226   3.951   3.670   3.634 -0.2382  0.1719 -0.1744
  627SOL    HW1 2227   3.993   3.593   3.597  1.1880  1.0191 -0.3832
  627SOL    HW2 2228   3.922   3.643   3.721  0.5073 -0.5206 -0.1372
  628SOL     OW 2229   3.361   0.978   3.423  0.4511  0.6524 -0.3830
  628SOL    HW1 2230   3.316   1.010   3.345 -0.2952 -2.8569 -1.5503
  628SOL    HW2 2231   3.293   0.937   3.475  1.6216 -1.4289 -0.3701
  629SOL     OW 2232   3.118   1.363   1.623  0.4216 -1.0282 -0.0207
  629SOL    HW1 2233   3.200   1.377   1.669  0.6474 -0.5616 -0.5465
  629SOL    HW2 2234   3.059   1.429   1.659  0.3452 -1.2177  0.2001
  630SOL     OW 2235   1.543   1.040   4.075  0.0327  0.2441 -0.1452
  630SOL    HW1 2236   1.547   1.132   4.049  1.1948 -0.2184 -1.7813
  630SOL    HW2 2237   1.624   1.002   4.041  0.4446 -1.0351  2.0230
  631SOL     OW 2238   4.327   0.561   3.928 -0.0145 -0.6727  0.1275
  631SOL    HW1 2239   4.286   0.514   3.856  0.9512  0.5176 -1.2647
  631SOL    HW2 2240   4.362   0.492   3.985  1.0034 -1.6926 -1.6288
  632SOL     OW 2241   2.196   3.960   2.255 -0.5305  0.3638  0.2873
  632SOL    HW1 2242   2.115   4.002   2.285  0.0430  1.8504 -0.1535
  632SOL    HW2 2243   2.167   3.878   2.215 -1.7815  0.6812  0.5075
  633SOL     OW 2244   2.494   3.245   2.917  0.1204  0.2053  0.1099
  633SOL    HW1 2245   2.401   3.238   2.893  0.0843 -0.8762  0.4850
  633SOL    HW2 2246   2.497   3.314   2.982  0.1781  3.0448 -2.6759
  634SOL     OW 2247   2.879   4.139   0.472 -0.4908  0.2121  0.0776
  634SOL    HW1 2248   2.851   4.129   0.382  0.8779 -1.5446 -0.2105
  634SOL    HW2 2249   2.952   4.201   0.468 -0.4256  0.1284 -0.0447
  635SOL     OW 2250   1.996   0.795   1.304  0.6933 -0.2021  0.6858
  635SOL    HW1 2251   1.983   0.860   1.235  0.0550 -0.2499  0.7573
  635SOL    HW2 2252   1.908   0.776   1.337  0.6071 -2.5475 -0.6426
  636SOL     OW 2253   3.921   3.071   2.773  0.1175 -0.2790 -0.2379
  636SOL    HW1 2254   3.897   3.037   2.686 -2.6960 -2.8511  1.3292
  636SOL    HW2 2255   4.004   3.027   2.794 -0.4594 -1.6249 -0.6711
  637SOL     OW 2256   0.032   0.312   0.302  0.4019  0.0536 -0.2900
  637SOL    HW1 2257   0.042   0.236   0.245 -0.7579 -0.3833  0.0484
  637SOL    HW2 2258   0.103   0.305   0.366 -0.2536 -1.3003  0.3297
  638SOL     OW 2259   3.783   3.625   0.768 -0.3256  0.3601 -0.0304
  638SOL    HW1 2260   3.877   3.638   0.777 -0.3470  0.2191  0.4004
  638SOL    HW2 2261   3.750   3.620   0.858 -0.5420 -1.1063 -0.1677
  639SOL     OW 2262   3.361   0.943   0.214  0.5804 -0.5021  0.0765
  639SOL    HW1 2263   3.388   0.965   0.124 -0.3042  1.8260  0.3061
  639SOL    HW2 2264   3.428   0.881   0.244  2.7078  1.0358 -1.1362
  640SOL     OW 2265   2.181   3.814   0.189 -0.4557  0.3757  0.4651
  640SOL    HW1 2266   2.157   3.741   0.132 -1.5348 -0.9263  2.4799
  640SOL    HW2 2267   2.180   3.891   0.131 -2.2576 -0.7526 -1.1289
  641SOL     OW 2268   0.031   1.226   3.407  0.1271  0.8189  0.1487
  641SOL    HW1 2269  -0.041   1.169   3.381 -1.2834  1.7013  1.9029
  641SOL    HW2 2270   0.060   1.267   3.325 -0.7121 -0.2641 -0.7215
  642SOL     OW 2271   2.925   2.166   3.852 -0.1392  0.5486 -0.6630
  642SOL    HW1 2272   2.998   2.183   3.912  0.2557 -0.3583 -0.8619
  642SOL    HW2 2273   2.858   2.127   3.908  0.5524 -1.0972 -0.9293
  643SOL     OW 2274   3.533   2.960   0.141  0.6153 -0.5694  0.1444
  643SOL    HW1 2275   3.549   2.934   0.050  0.7624 -2.0938  0.5776
  643SOL    HW2 2276   3.445   2.997   0.141  0.0507 -1.8435 -0.3982
  644SOL     OW 2277   2.646   4.133   1.337 -0.8913  0.0621  0.0491
  644SOL    HW1 2278   2.580   4.174   1.393 -0.8252 -0.8063  0.7798
  644SOL    HW2 2279   2.729   4.167   1.371 -0.7635 -1.4544  1.3637
  645SOL     OW 2280   3.812   3.431   3.749  0.4152  0.2341 -0.0832
  645SOL    HW1 2281   3.779   3.341   3.742 -1.5479  0.5996  2.7754
  645SOL    HW2 2282   3.896   3.422   3.793  0.3792 -0.1948 -0.0929
  646SOL     OW 2283   0.671   0.302   3.352  0.0081  0.0243  0.0908
  646SOL    HW1 2284   0.680   0.396   3.366 -0.8823  0.1683 -0.1944
  646SOL    HW2 2285   0.713   0.287   3.267 -0.9803  0.4048 -0.4885
  647SOL     OW 2286   3.425   4.248   0.032 -0.0094 -0.2908  0.5110
  647SOL    HW1 2287   3.384   4.334   0.035 -0.6521 -0.6130  2.0210
  647SOL    HW2 2288   3.365   4.195  -0.021  0.3036  0.1315 -0.2804
  648SOL     OW 2289   1.102   0.511   2.080  0.3242  0.0039  0.7740
  648SOL    HW1 2290   1.180   0.556   2.115  0.2988  0.5492  0.1449
  648SOL    HW2 2291   1.131   0.477   1.995 -0.5084  1.4429 -0.1298
  649SOL     OW 2292   3.140   3.645   1.656  0.3024  0.4381  0.2672
  649SOL    HW1 2293   3.121   3.573   1.595 -0.5154  1.0113 -0.1653
  649SOL    HW2 2294   3.158   3.720   1.600 -1.8759  1.3446  0.6901
  650SOL     OW 2295   1.926   3.990   0.689 -0.1033 -0.0749  0.2347
  650SOL    HW1 2296   1.974   4.068   0.717 -1.0786  0.3247  0.8532
  650SOL    HW2 2297   1.834   4.016   0.692 -0.3749 -0.8329 -0.8736
  651SOL     OW 2298   0.605   2.661   0.921  0.3999 -0.6282 -0.1816
  651SOL    HW1 2299   0.560   2.713   0.987 -0.8625 -3.5490  1.4396
  651SOL    HW2 2300   0.657   2.724   0.872  1.2105  1.7769  3.4027
  652SOL     OW 2301   0.638   2.824   3.751  0.1031  0.0889  0.7789
  652SOL    HW1 2302   0.707   2.858   3.693  1.1374  0.0209  1.9296
  652SOL    HW2 2303   0.565   2.884   3.739  0.1541 -0.1326 -0.8598
  653SOL     OW 2304   2.072   2.252   1.844  0.2880 -0.1403  0.4759
  653SOL    HW1 2305   2.074   2.157   1.841  0.5603 -0.1219  0.0550
  653SOL    HW2 2306   2.145   2.280   1.789 -0.3221  0.3271 -0.1219
  654SOL     OW 2307   1.970   2.704   1.633  0.2342  0.5176 -0.4570
  654SOL    HW1 2308   1.954   2.795   1.609  0.2895  0.3798 -1.0200
  654SOL    HW2 2309   1.997   2.661   1.552  1.5924  0.3102  0.0588
  655SOL     OW 2310   2.333   3.111   4.286 -0.1109  0.2089  0.2584
  655SOL    HW1 2311   2.259   3.122   4.346  0.0415  0.1339  0.4613
  655SOL    HW2 2312   2.367   3.024   4.306 -0.2053  0.0885 -0.1039
  656SOL     OW 2313   3.551   2.206   3.809  0.5040 -0.1777 -0.5029
  656SOL    HW1 2314   3.572   2.206   3.902  1.3325 -0.5337 -0.6794
  656SOL    HW2 2315   3.455   2.199   3.806  0.3952  0.7992  0.3227
  657SOL     OW 2316   1.205   2.921   1.161  0.3366 -0.2689 -0.1167
  657SOL    HW1 2317   1.147   2.996   1.177  0.8837  0.3787 -1.0612
  657SOL    HW2 2318   1.279   2.935   1.220  1.3897  1.0353 -1.6623
  658SOL     OW 2319   3.967   2.060   2.781  0.0530  0.4045 -0.4181
  658SOL    HW1 2320   4.048   2.075   2.829 -0.5292  1.3573  0.3061
  658SOL    HW2 2321   3.965   2.128   2.714 -1.5237  2.3677  1.4591
  659SOL     OW 2322   2.807   3.562   3.971 -0.1506 -0.4887 -0.2949
  659SOL    HW1 2323   2.859   3.489   4.004  1.2023  0.9136  0.8147
  659SOL    HW2 2324   2.871   3.622   3.933 -1.2695 -0.0117 -1.5184
  660SOL     OW 2325   3.044   1.202   3.698  0.1364 -0.6232 -0.1574
  660SOL    HW1 2326   3.085   1.201   3.784 -0.1849  0.0090  0.0046
  660SOL    HW2 2327   3.089   1.133   3.649  1.5616  0.1933 -0.0517
  661SOL     OW 2328   2.425   0.674   1.708 -0.0651 -0.0961 -0.2293
  661SOL    HW1 2329   2.419   0.637   1.796 -1.3741 -0.8439 -0.5953
  661SOL    HW2 2330   2.394   0.604   1.650  0.0245  0.6454 -1.2078
  662SOL     OW 2331   1.252   0.859   0.729  0.1349 -0.8180  0.3089
  662SOL    HW1 2332   1.206   0.789   0.682 -2.0287  0.0143  1.0442
  662SOL    HW2 2333   1.282   0.919   0.661 -2.0030 -0.1782 -0.1374
  663SOL     OW 2334   0.100   0.906   2.311 -0.1963  0.0420 -0.3110
  663SOL    HW1 2335   0.069   0.817   2.292 -0.8341 -0.0798  1.1539
  663SOL    HW2 2336   0.134   0.938   2.227  0.8055 -1.8693 -0.7004
  664SOL     OW 2337   3.581   3.689   3.280 -0.1396  0.6811  0.2402
  664SOL    HW1 2338   3.569   3.780   3.308  0.7390  1.1431 -0.8093
  664SOL    HW2 2339   3.643   3.652   3.343 -0.7764  0.6760  0.8869
  665SOL     OW 2340   0.412   3.802   3.567 -0.0197 -0.1095  0.5277
  665SOL    HW1 2341   0.483   3.738   3.556 -1.5295 -2.1374  1.9302
  665SOL    HW2 2342   0.429   3.841   3.653  0.3684  0.7307  0.0808
  666SOL     OW 2343   2.788   0.060   1.196  0.1384  0.1654  0.2474
  666SOL    HW1 2344   2.779   0.029   1.286 -1.2010  1.9931  0.7991
  666SOL    HW2 2345   2.809   0.153   1.204 -2.7265  1.0580 -1.2713
  667SOL     OW 2346   1.087   0.997   1.835 -0.0562 -0.1932  0.1082
  667SOL    HW1 2347   1.088   0.972   1.743 -0.4672 -0.1869  0.1013
  667SOL    HW2 2348   0.995   1.017   1.854  0.1962  0.8541  0.2409
  668SOL     OW 2349   0.910   0.960   2.404  0.0813  0.4861 -0.0602
  668SOL    HW1 2350   0.841   0.907   2.443 -0.5902  0.1083 -1.6778
  668SOL    HW2 2351   0.921   1.033   2.465 -1.0296  0.0193  0.7380
  669SOL     OW 2352   3.899   2.130   2.359  0.4811  0.2131 -0.5823
  669SOL    HW1 2353   3.929   2.184   2.287 -0.6955 -1.4367 -2.4021
  669SOL    HW2 2354   3.901   2.041   2.325 -3.1517 -0.3311  0.2389
  670SOL     OW 2355   1.104   2.155   2.647  0.5156  0.2965  0.0124
  670SOL    HW1 2356   1.113   2.156   2.742  0.8218  0.7684 -0.0169
  670SOL    HW2 2357   1.086   2.063   2.625  2.5515 -0.2292  0.3411
  671SOL     OW 2358   2.516   1.777   2.894 -0.6051  0.0361 -0.5343
  671SOL    HW1 2359   2.438   1.824   2.865 -2.0283 -2.6297 -1.2935
  671SOL    HW2 2360   2.485   1.721   2.966  1.0340  0.2417  0.3820
  672SOL     OW 2361   2.939   0.079   0.300 -0.2867  0.6136 -0.3013
  672SOL    HW1 2362   2.933   0.069   0.395  2.2547 -1.3887 -0.2548
  672SOL    HW2 2363   3.029   0.106   0.284 -1.0777  2.4937 -2.1243
  673SOL     OW 2364   3.737   1.021   4.294  0.2716 -0.3722 -0.6314
  673SOL    HW1 2365   3.795   1.097   4.303 -1.1601  0.9577 -2.0836
  673SOL    HW2 2366   3.792   0.955   4.251  1.2538  0.1723 -0.2595
  674SOL     OW 2367   2.570   0.807   0.596 -0.5086  0.6746  0.1623
  674SOL    HW1 2368   2.558   0.712   0.599 -1.0326  0.6797 -1.0179
  674SOL    HW2 2369   2.487   0.841   0.561  1.0305  1.1677 -3.4821
  675SOL     OW 2370   1.425   1.821   2.916 -0.1669 -0.2029 -0.6603
  675SOL    HW1 2371   1.468   1.817   2.831 -0.4896 -0.5656 -0.8097
  675SOL    HW2 2372   1.417   1.915   2.935  1.1791 -0.1281 -0.3648
  676SOL     OW 2373   3.154   0.832   2.631  0.3931  0.1640  0.0340
  676SOL    HW1 2374   3.169   0.778   2.708  0.0215  0.1664  0.1078
  676SOL    HW2 2375   3.118   0.772   2.566 -0.6107  0.4443  0.3202
  677SOL     OW 2376   0.193   2.693   2.765  0.3674  0.2830 -0.0980
  677SOL    HW1 2377   0.222   2.641   2.690 -1.4871 -0.5417 -0.2815
  677SOL    HW2 2378   0.120   2.745   2.731  1.0161  1.6743  0.5620
  678SOL     OW 2379   1.101   4.329   4.306 -0.7063  0.1226 -0.4970
  678SOL    HW1 2380   1.154   4.314   4.227 -0.9235  0.8494 -0.7875
  678SOL    HW2 2381   1.149   4.283   4.375 -1.2754 -1.7775 -1.3029
  679SOL     OW 2382   0.057   2.821   0.065  0.3091  0.0738  0.9925
  679SOL    HW1 2383   0.017   2.736   0.049  0.0040  0.2738  0.6723
  679SOL    HW2 2384   0.045   2.836   0.158 -2.2183  1.0421  0.5780
  680SOL     OW 2385   2.912   4.137   2.985 -0.1126  0.0425  0.6367
  680SOL    HW1 2386   2.864   4.218   2.995  0.2667  0.2585  0.7422
  680SOL    HW2 2387   2.995   4.152   3.030  1.0541  0.5370 -1.5142
  681SOL     OW 2388   2.128   3.798   1.768 -0.2878  0.4117 -0.2543
  681SOL    HW1 2389   2.075   3.852   1.710  1.0704  0.3299 -1.6230
  681SOL    HW2 2390   2.193   3.757   1.711 -1.0898 -2.4859  0.7567
  682SOL     OW 2391   0.911   0.758   4.145 -0.5618  0.5557  0.3532
  682SOL    HW1 2392   0.919   0.663   4.158 -0.8197  0.6558  1.2863
  682SOL    HW2 2393   0.835   0.767   4.088 -0.5997  0.2063  0.3451
  683SOL     OW 2394   0.725   3.673   3.840 -0.2515  0.7975  0.4804
  683SOL    HW1 2395   0.695   3.764   3.846  1.1499  1.3274 -0.2586
  683SOL    HW2 2396   0.777   3.670   3.759 -1.3041 -0.9709 -0.1873
  684SOL     OW 2397   1.319   1.867   0.223  0.8455  0.3735 -0.3572
  684SOL    HW1 2398   1.343   1.957   0.245 -1.4993  1.3652 -1.4932
  684SOL    HW2 2399   1.353   1.854   0.135 -1.1817  1.1977 -1.3112
  685SOL     OW 2400   2.457   0.331   0.774 -0.0237  0.0048  0.1247
  685SOL    HW1 2401   2.383   0.348   0.716 -0.0733  1.4571  0.5826
  685SOL    HW2 2402   2.487   0.418   0.802  1.4374 -0.5689  0.4722
  686SOL     OW 2403   2.169   3.585   3.711 -0.1532 -0.2726  0.3328
  686SOL    HW1 2404   2.215   3.668   3.724 -1.4471  0.3382  1.2951
  686SOL    HW2 2405   2.087   3.610   3.669 -1.5139 -0.7545  2.5550
  687SOL     OW 2406   3.725   1.464   0.365 -0.5449  0.4988 -0.4539
  687SOL    HW1 2407   3.682   1.388   0.405 -0.5723  0.7162 -0.0664
  687SOL    HW2 2408   3.784   1.427   0.299 -1.7660  0.2222 -1.4239
  688SOL     OW 2409   3.326   0.351   0.668 -0.5871 -0.6059  0.3267
  688SOL    HW1 2410   3.290   0.327   0.754  1.4840  1.0583  1.7546
  688SOL    HW2 2411   3.416   0.378   0.687 -1.1302  3.2782 -1.7925
  689SOL     OW 2412   2.230   0.535   0.091  0.5054  0.2598 -0.0618
  689SOL    HW1 2413   2.312   0.545   0.043  1.2759 -0.8606  0.9553
  689SOL    HW2 2414   2.163   0.568   0.031  1.6148  0.6104 -1.1622
  690SOL     OW 2415   1.554   0.719   4.284 -0.3921 -0.7895  0.2582
  690SOL    HW1 2416   1.502   0.762   4.216  1.0802  0.4124 -0.1502
  690SOL    HW2 2417   1.513   0.633   4.294 -1.6683 -0.3569 -0.9361
  691SOL     OW 2418   0.655   1.920   0.464 -0.5908  0.3770  0.0274
  691SOL    HW1 2419   0.702   1.838   0.478 -1.3117  0.2696  2.2465
  691SOL    HW2 2420   0.577   1.895   0.415 -1.6766 -0.6352  2.1297
  692SOL     OW 2421   0.093   1.930   0.056 -0.2316 -0.0868  0.1851
  692SOL    HW1 2422   0.073   2.008   0.108  0.6085 -0.6514  1.3911
  692SOL    HW2 2423   0.007   1.895   0.034 -0.6478 -0.4229  2.1360
  693SOL     OW 2424   3.229   1.025   0.467  1.0098 -0.4354  0.1334
  693SOL    HW1 2425   3.322   1.037   0.448  1.1694 -1.1871  0.4355
  693SOL    HW2 2426   3.226   0.978   0.550  0.3831 -1.4072 -0.4148
  694SOL     OW 2427   3.224   1.233   4.260  0.7333 -0.0913  0.3953
  694SOL    HW1 2428   3.251   1.272   4.342  0.6098 -0.0967  0.4392
  694SOL    HW2 2429   3.135   1.202   4.276  0.0422  1.4260 -0.2355
  695SOL     OW 2430   3.580   1.675   1.683  0.2232 -0.1798  0.3609
  695SOL    HW1 2431   3.487   1.675   1.706  0.1622 -0.4575  0.1165
  695SOL    HW2 2432   3.620   1.735   1.746 -0.3983  1.3230 -0.5951
  696SOL     OW 2433   2.999   2.172   2.621 -0.0656  0.2490 -0.0494
  696SOL    HW1 2434   3.054   2.243   2.655  0.1008 -0.4640  1.2520
  696SOL    HW2 2435   3.037   2.151   2.536 -0.7300  2.3706 -0.9349
  697SOL     OW 2436   2.129   0.364   0.820  0.0305  0.3211  0.8341
  697SOL    HW1 2437   2.034   0.379   0.823 -0.1603 -0.6212  0.0282
  697SOL    HW2 2438   2.167   0.445   0.852 -1.0735  0.2480  2.5076
  698SOL     OW 2439   2.425   2.818   3.642 -0.3906  0.2863  0.0708
  698SOL    HW1 2440   2.393   2.900   3.678  0.4212  0.2508  0.8958
  698SOL    HW2 2441   2.378   2.808   3.559 -1.1414  1.1370  0.3819
  699SOL     OW 2442   1.438   3.965   1.606 -0.0974 -0.5144  0.2808
  699SOL    HW1 2443   1.415   4.031   1.672 -1.8575 -0.8268  0.0235
  699SOL    HW2 2444   1.456   3.886   1.657 -1.8312 -0.8605  0.4096
  700SOL     OW 2445   0.145   3.262   0.441 -0.4864  0.2729  0.5822
  700SOL    HW1 2446   0.116   3.263   0.350  0.2598  1.5337  0.3408
  700SOL    HW2 2447   0.240   3.249   0.437 -0.3939  0.7301  1.1610
  701SOL     OW 2448   1.822   0.940   2.902 -0.2045 -0.4817 -0.1486
  701SOL    HW1 2449   1.856   0.886   2.974 -0.2034  0.0203  0.2296
  701SOL    HW2 2450   1.816   1.028   2.939 -2.4088 -0.6180 -0.0069
  702SOL     OW 2451   4.031   3.969   4.257  0.0184  0.1724  0.3678
  702SOL    HW1 2452   3.936   3.968   4.267 -0.5831 -0.3877 -3.6822
  702SOL    HW2 2453   4.051   4.059   4.230  0.5760  0.1200  0.5998
  703SOL     OW 2454   2.399   2.314   2.071  0.0602  0.2407  0.0573
  703SOL    HW1 2455   2.488   2.297   2.103 -0.3755 -0.7594  0.8116
  703SOL    HW2 2456   2.376   2.398   2.110  0.6383  0.4620 -0.0639
  704SOL     OW 2457   4.237   4.088   3.157  0.0637  0.1778 -0.9537
  704SOL    HW1 2458   4.272   4.013   3.205 -0.2895  1.7346  1.9934
  704SOL    HW2 2459   4.300   4.158   3.172 -0.8095  1.1236 -1.5288
  705SOL     OW 2460   0.302   2.856   2.308  0.7200 -0.3647 -0.4160
  705SOL    HW1 2461   0.258   2.784   2.262  1.0911 -0.5895 -0.4275
  705SOL    HW2 2462   0.261   2.935   2.274 -0.1872 -0.5859  0.1054
  706SOL     OW 2463   3.495   1.253   1.336 -0.6769  0.0099 -0.5094
  706SOL    HW1 2464   3.507   1.266   1.430  0.7933  0.1353 -0.6850
  706SOL    HW2 2465   3.494   1.342   1.299  1.1643 -0.0707 -0.8402
  707SOL     OW 2466   2.980   2.292   0.654  0.6839  0.4770  0.5314
  707SOL    HW1 2467   2.909   2.233   0.626 -0.0755  0.9089  1.4785
  707SOL    HW2 2468   3.047   2.282   0.587 -1.0718  1.5302 -1.5191
  708SOL     OW 2469   2.554   0.865   3.065  0.7173  0.3921  0.2888
  708SOL    HW1 2470   2.476   0.845   3.116 -0.8117  2.5009 -1.0484
  708SOL    HW2 2471   2.623   0.880   3.130 -0.9175  2.0291  1.7397
  709SOL     OW 2472   3.971   2.583   2.414 -0.2064 -0.7370  0.0233
  709SOL    HW1 2473   3.896   2.613   2.363  0.9309 -0.4401 -1.5619
  709SOL    HW2 2474   3.949   2.604   2.504 -0.7227  2.2766 -0.6798
  710SOL     OW 2475   2.208   2.130   2.137  0.1426 -0.6109 -0.4152
  710SOL    HW1 2476   2.154   2.209   2.136 -0.7978 -1.2244  0.3067
  710SOL    HW2 2477   2.297   2.161   2.117  0.2906  1.0119  2.2615
  711SOL     OW 2478   0.060   0.099   3.530 -0.1259  0.1039 -0.3549
  711SOL    HW1 2479   0.042   0.193   3.531  1.3565  0.5403  3.4055
  711SOL    HW2 2480   0.154   0.092   3.546  0.0445 -2.0643 -1.8485
  712SOL     OW 2481   3.223   1.965   1.886  0.5956  0.4446 -0.4001
  712SOL    HW1 2482   3.275   1.977   1.807 -0.0883  0.8384 -0.8034
  712SOL    HW2 2483   3.213   2.053   1.922 -0.0768  0.4257 -0.5229
  713SOL     OW 2484   2.541   1.070   2.519  0.2369  0.1609 -0.6470
  713SOL    HW1 2485   2.535   1.093   2.426 -0.0886 -1.1332 -0.9612
  713SOL    HW2 2486   2.455   1.091   2.555  0.9365  2.5124 -0.1557
  714SOL     OW 2487   1.163   0.685   2.624 -0.5455  0.4620  0.5471
  714SOL    HW1 2488   1.171   0.624   2.550 -0.4179  0.5949  0.4508
  714SOL    HW2 2489   1.164   0.772   2.584 -1.9948  0.5151  0.5667
  715SOL     OW 2490   1.161   4.338   1.836 -0.8411  0.3600 -0.0604
  715SOL    HW1 2491   1.095   4.371   1.776 -1.3364  0.7045  0.6519
  715SOL    HW2 2492   1.120   4.345   1.923  0.0257  0.3302  0.3641
  716SOL     OW 2493   3.062   3.216   1.689  0.0126  0.0310 -0.0339
  716SOL    HW1 2494   3.156   3.234   1.693 -0.2680  1.5662  0.8110
  716SOL    HW2 2495   3.025   3.270   1.759 -1.3748 -1.5345  0.5065
  717SOL     OW 2496   0.648   2.155   2.209 -0.5738  0.1096  0.4587
  717SOL    HW1 2497   0.704   2.207   2.152  0.1376 -0.3152  0.7590
  717SOL    HW2 2498   0.605   2.093   2.151 -0.1303 -0.0801  0.3309
  718SOL     OW 2499   1.368   0.793   1.466  0.1184  0.0889 -0.1723
  718SOL    HW1 2500   1.432   0.751   1.523  0.2792  1.1913  0.5012
  718SOL    HW2 2501   1.333   0.722   1.413  0.5939 -0.8299  0.6975
  719SOL     OW 2502   1.512   4.299   0.227 -0.4100 -0.7086  0.1943
  719SOL    HW1 2503   1.515   4.278   0.133  0.0094  1.9246 -0.4419
  719SOL    HW2 2504   1.428   4.343   0.239 -0.8064 -1.6936  1.2697
  720SOL     OW 2505   1.018   3.724   3.002 -0.2524 -0.4046  0.2212
  720SOL    HW1 2506   1.104   3.732   2.960 -0.2288 -0.3925  0.2719
  720SOL    HW2 2507   0.956   3.750   2.934 -0.1986 -0.1335  0.2763
  721SOL     OW 2508   2.210   1.693   1.595  0.3474 -0.0029  0.3209
  721SOL    HW1 2509   2.225   1.773   1.544  3.2986 -0.9661 -0.5483
  721SOL    HW2 2510   2.158   1.722   1.670  0.4213  2.5264 -0.4955
  722SOL     OW 2511   1.664   1.924   0.599 -0.2922 -0.3387  0.1950
  722SOL    HW1 2512   1.573   1.896   0.600 -0.7297  0.7770 -1.9276
  722SOL    HW2 2513   1.711   1.854   0.554 -0.7428  0.5015 -1.7147
  723SOL     OW 2514   1.282   1.600   2.674  0.8469  0.2956 -0.2527
  723SOL    HW1 2515   1.338   1.633   2.604 -0.2886  1.2572 -0.7290
  723SOL    HW2 2516   1.318   1.640   2.754  1.8730 -0.4596 -0.3177
  724SOL     OW 2517   3.898   2.656   1.029  0.4248 -0.9193  0.5962
  724SOL    HW1 2518   3.922   2.734   0.978  1.3176  0.2902  2.7302
  724SOL    HW2 2519   3.816   2.679   1.072 -0.0161 -1.6957  0.1843
  725SOL     OW 2520   0.481   1.393   3.349  0.2339 -0.5406 -0.5428
  725SOL    HW1 2521   0.399   1.357   3.383  0.7704 -2.5335 -1.1835
  725SOL    HW2 2522   0.474   1.383   3.254  2.0529 -2.9139 -0.5320
  726SOL     OW 2523   3.335   4.210   1.185 -0.4216 -0.1527 -0.3052
  726SOL    HW1 2524   3.243   4.186   1.177 -0.1498 -1.3045 -0.1096
  726SOL    HW2 2525   3.380   4.158   1.119  0.0578  0.6561 -0.6352
  727SOL     OW 2526   3.589   2.903   3.558  0.4399  0.0740  0.6521
  727SOL    HW1 2527   3.621   2.917   3.469  0.8217 -1.2616  0.5548
  727SOL    HW2 2528   3.634   2.970   3.610 -0.8980  1.8331 -0.3532
  728SOL     OW 2529   0.722   1.390   3.447  0.0172  0.0554 -0.8577
  728SOL    HW1 2530   0.757   1.397   3.358  0.3801  0.9656 -0.6642
  728SOL    HW2 2531   0.627   1.389   3.436  0.0712 -0.4151 -1.2871
  729SOL     OW 2532   4.159   3.032   2.206 -0.3007  0.4611 -0.0876
  729SOL    HW1 2533   4.248   3.065   2.196 -0.3204  0.5744  0.1085
  729SOL    HW2 2534   4.129   3.018   2.116 -0.5661  1.6910 -0.2065
  730SOL     OW 2535   3.630   2.680   0.781 -0.2726 -0.3032 -0.5168
  730SOL    HW1 2536   3.554   2.698   0.836 -0.7051 -1.1078 -0.8457
  730SOL    HW2 2537   3.663   2.767   0.757 -0.0235  0.0741  1.0537
  731SOL     OW 2538   2.078   1.904   3.245 -0.3598 -0.0866 -0.2023
  731SOL    HW1 2539   2.136   1.853   3.189 -1.6317  0.6058 -2.2938
  731SOL    HW2 2540   1.995   1.908   3.196 -2.1136 -0.7916  2.4935
  732SOL     OW 2541   3.489   1.836   1.999  0.8667 -0.3892  0.7346
  732SOL    HW1 2542   3.437   1.788   1.935  1.0988 -0.1572  0.3644
  732SOL    HW2 2543   3.535   1.902   1.947 -0.7637  1.3968  1.4372
  733SOL     OW 2544   1.430   1.709   1.355  0.3114 -0.5075 -0.4598
  733SOL    HW1 2545   1.494   1.776   1.377 -1.7775  1.3097  0.4101
  733SOL    HW2 2546   1.361   1.756   1.307 -1.8954 -1.6653  1.3671
  734SOL     OW 2547   0.677   1.154   0.893  0.3496  0.0814  0.1543
  734SOL    HW1 2548   0.748   1.100   0.859  1.2835  0.4357  1.4751
  734SOL    HW2 2549   0.680   1.234   0.840  1.4798  0.4295  0.7083
  735SOL     OW 2550   1.195   1.667   1.652 -0.0092  0.3218 -0.3022
  735SOL    HW1 2551   1.110   1.632   1.677 -0.3705  1.6861  0.4610
  735SOL    HW2 2552   1.238   1.595   1.605 -1.0335 -0.8436  0.5000
  736SOL     OW 2553   2.174   1.598   2.009  0.7221 -0.2885 -0.3073
  736SOL    HW1 2554   2.243   1.541   1.976 -0.7826 -2.9029  0.7045
  736SOL    HW2 2555   2.220   1.674   2.044  2.8575 -0.8682 -1.6655
  737SOL     OW 2556   4.173   3.297   1.964  0.4043 -0.3384  0.5980
  737SOL    HW1 2557   4.105   3.240   1.927  0.0918  0.4337 -0.0414
  737SOL    HW2 2558   4.126   3.377   1.989  0.9298 -0.1477  0.9775
  738SOL     OW 2559   0.988   0.274   1.359 -0.3556  0.2621  0.5400
  738SOL    HW1 2560   1.083   0.264   1.352  0.0413  2.3414  1.9802
  738SOL    HW2 2561   0.969   0.359   1.318 -1.4272  0.4158  1.2951
  739SOL     OW 2562   3.866   3.002   3.055 -0.4359  0.1985 -0.4733
  739SOL    HW1 2563   3.852   3.096   3.057 -0.4774  0.2725 -2.2639
  739SOL    HW2 2564   3.904   2.985   2.968 -1.9796 -1.6076 -0.8638
  740SOL     OW 2565   3.850   4.354   0.141  0.3431  0.5625 -0.4700
  740SOL    HW1 2566   3.901   4.426   0.103  0.5983  0.3103 -0.5998
  740SOL    HW2 2567   3.780   4.339   0.077  0.7073  0.2134 -0.7857
  741SOL     OW 2568   3.849   2.381   1.401 -0.8662  0.1118 -0.3758
  741SOL    HW1 2569   3.832   2.341   1.486  0.9027 -1.0920 -0.5353
  741SOL    HW2 2570   3.771   2.435   1.384 -0.5501  1.7622  2.7432
  742SOL     OW 2571   1.463   1.113   3.566  0.0868 -0.0683 -0.6088
  742SOL    HW1 2572   1.456   1.145   3.475  0.0189  0.9596 -0.2577
  742SOL    HW2 2573   1.431   1.187   3.619  0.5228 -0.5097  0.2739
  743SOL     OW 2574   4.019   0.046   4.068  0.0121  0.0835  0.1008
  743SOL    HW1 2575   4.103   0.079   4.097  0.3825 -0.2058 -0.6228
  743SOL    HW2 2576   4.039  -0.011   3.993 -0.8847  0.6195 -0.5713
  744SOL     OW 2577   0.517   1.918   2.073  0.0235  0.6388 -0.3088
  744SOL    HW1 2578   0.491   1.881   1.989 -2.2753  0.2089  0.5033
  744SOL    HW2 2579   0.456   1.879   2.136  1.5545  1.0766  1.5439
  745SOL     OW 2580   2.786   2.286   3.186  0.3475  0.0629 -0.0230
  745SOL    HW1 2581   2.693   2.303   3.167  0.3555  0.3408  0.1951
  745SOL    HW2 2582   2.790   2.191   3.200  0.1494  0.0055 -0.3270
  746SOL     OW 2583   1.768   0.035   2.905 -0.3700  0.3557 -0.3510
  746SOL    HW1 2584   1.859   0.004   2.904 -0.7038 -0.6398 -1.2389
  746SOL    HW2 2585   1.715  -0.044   2.892 -1.3739  0.9142  0.2427
  747SOL     OW 2586   2.311   3.119   1.353 -0.0205  0.7865  0.0347
  747SOL    HW1 2587   2.321   3.213   1.366 -1.9055  0.9231  0.7506
  747SOL    HW2 2588   2.261   3.089   1.429  0.2942 -0.7505 -0.3295
  748SOL     OW 2589   2.017   0.520   2.597 -0.6009 -0.2159  0.0793
  748SOL    HW1 2590   1.946   0.456   2.591 -0.8394  0.1646 -2.3423
  748SOL    HW2 2591   1.977   0.597   2.638 -0.2536 -1.5895  3.2220
  749SOL     OW 2592   3.032   0.139   4.348 -0.1756  0.0821 -0.7682
  749SOL    HW1 2593   3.102   0.094   4.300 -0.2817  0.0378 -0.8812
  749SOL    HW2 2594   3.076   0.174   4.426  0.6746  2.6884 -2.2813
  750SOL     OW 2595   0.400   1.628   4.191 -0.3047  0.4003 -0.8826
  750SOL    HW1 2596   0.466   1.685   4.152  1.3872 -0.4812  0.5121
  750SOL    HW2 2597   0.435   1.540   4.180 -2.3721 -0.3361 -2.0902
  751SOL     OW 2598   0.963   2.495   4.091 -0.2318 -0.1072 -0.4141
  751SOL    HW1 2599   0.920   2.580   4.089 -0.2586 -0.1367 -1.5291
  751SOL    HW2 2600   1.048   2.512   4.130 -0.1086  0.5006 -0.9243
  752SOL     OW 2601   4.351   3.402   2.706  0.0435  0.7064 -0.6374
  752SOL    HW1 2602   4.305   3.330   2.662 -1.7463  0.7960  0.9848
  752SOL    HW2 2603   4.300   3.479   2.686  0.0041  0.9706  0.4284
  753SOL     OW 2604   2.947   0.536   1.263 -0.1861 -0.4058 -0.4031
  753SOL    HW1 2605   2.921   0.569   1.349  1.1021  0.1682 -0.2113
  753SOL    HW2 2606   3.039   0.511   1.274 -0.2890 -1.2533 -1.3546
  754SOL     OW 2607   0.589   4.327   2.149 -0.1659 -0.5385  0.1720
  754SOL    HW1 2608   0.634   4.397   2.102 -1.2184 -0.3164 -0.5405
  754SOL    HW2 2609   0.497   4.338   2.127 -0.5411 -1.2064  1.2971
  755SOL     OW 2610   1.659   0.085   2.251 -0.4876  0.3942 -0.4319
  755SOL    HW1 2611   1.588   0.149   2.244 -0.2402  0.6885 -0.2692
  755SOL    HW2 2612   1.648   0.046   2.338  1.1939  2.4284  0.7898
  756SOL     OW 2613   1.212   0.514   0.199  0.1779  0.1759  0.0007
  756SOL    HW1 2614   1.267   0.490   0.273  1.0464 -1.8039 -1.1959
  756SOL    HW2 2615   1.257   0.588   0.158  0.1439  0.7225  0.9084
  757SOL     OW 2616   0.478   3.194   1.982  0.3224 -0.5495 -0.1305
  757SOL    HW1 2617   0.449   3.283   1.964  1.0684  0.1758  1.9224
  757SOL    HW2 2618   0.570   3.193   1.956  0.3588 -0.6524 -0.0012
  758SOL     OW 2619   3.533   3.535   2.855  0.1891  0.5818 -0.2168
  758SOL    HW1 2620   3.440   3.513   2.862  0.1562  0.8417  0.1535
  758SOL    HW2 2621   3.548   3.544   2.760 -0.7706  3.0833 -0.2031
  759SOL     OW 2622   0.793   2.432   1.814 -0.0888 -0.7901 -0.0907
  759SOL    HW1 2623   0.880   2.464   1.791 -0.4316 -1.5513 -2.6890
  759SOL    HW2 2624   0.802   2.400   1.904  1.2210  2.9396  1.2968
  760SOL     OW 2625   3.524   2.019   0.614  0.3963 -0.0469  0.9680
  760SOL    HW1 2626   3.600   2.064   0.651  1.8651 -2.8963  1.7063
  760SOL    HW2 2627   3.477   1.986   0.691 -0.5459  0.0172  0.4396
  761SOL     OW 2628   1.646   2.043   0.361  0.1094  0.2941  0.0053
  761SOL    HW1 2629   1.578   1.986   0.397  0.9825  0.4385  1.9804
  761SOL    HW2 2630   1.702   1.983   0.311 -1.4097  0.1798 -1.6726
  762SOL     OW 2631   3.096   3.440   0.964 -0.0378  0.5127 -0.0433
  762SOL    HW1 2632   3.161   3.436   1.034 -0.5572 -1.0962  0.3816
  762SOL    HW2 2633   3.055   3.526   0.974  0.1289  0.4334  1.4190
  763SOL     OW 2634   0.403   4.296   3.822  0.2614  0.1440  0.1831
  763SOL    HW1 2635   0.390   4.313   3.916  1.2268  1.4848  0.0930
  763SOL    HW2 2636   0.498   4.296   3.811  0.2351 -2.0458 -0.4634
  764SOL     OW 2637   0.119   1.791   1.434  0.0648 -0.4030  0.2452
  764SOL    HW1 2638   0.034   1.782   1.392  0.7123 -1.1305 -0.9653
  764SOL    HW2 2639   0.135   1.885   1.437  1.1955 -0.2981 -3.7791
  765SOL     OW 2640   1.609   2.316   1.989  0.5457 -0.4539  0.2188
  765SOL    HW1 2641   1.527   2.354   1.958 -0.0852 -1.3695  0.7025
  765SOL    HW2 2642   1.585   2.227   2.016  1.8874 -1.0682 -0.5250
  766SOL     OW 2643   2.236   0.095   1.447  0.0557  0.4517  0.2135
  766SOL    HW1 2644   2.331   0.091   1.455 -0.0307  0.1597  1.2504
  766SOL    HW2 2645   2.219   0.170   1.389  0.8986  0.6292  0.1917
  767SOL     OW 2646   0.687   1.516   3.899 -0.3655 -0.2192  0.1407
  767SOL    HW1 2647   0.679   1.527   3.994 -2.4712  1.4062 -0.1496
  767SOL    HW2 2648   0.681   1.422   3.885  1.8440 -0.6799  1.6923
  768SOL     OW 2649   4.276   2.993   0.796 -0.3446  0.2223  0.2419
  768SOL    HW1 2650   4.315   3.009   0.710 -0.3442  0.1310  0.2246
  768SOL    HW2 2651   4.189   3.033   0.791 -0.4306  0.0249  0.1227
  769SOL     OW 2652   4.043   1.085   0.880 -0.1030  0.5797 -0.2288
  769SOL    HW1 2653   4.010   1.024   0.945  2.0290  1.7394  2.0846
  769SOL    HW2 2654   3.978   1.156   0.878 -0.4582  0.2702  0.2038
  770SOL     OW 2655   2.953   2.561   4.032  0.2924  0.0385 -0.0516
  770SOL    HW1 2656   2.994   2.504   3.968 -0.4878 -2.6553  1.6616
  770SOL    HW2 2657   2.865   2.576   3.997  0.7523  0.9085 -0.8860
  771SOL     OW 2658   2.215   1.290   3.381 -0.2566 -0.2267 -0.4135
  771SOL    HW1 2659   2.292   1.234   3.379 -1.5261 -2.0663 -0.3762
  771SOL    HW2 2660   2.222   1.344   3.302  1.0131 -0.4087 -0.4387
  772SOL     OW 2661   0.215   4.292   3.015  0.0108 -0.5788  0.0372
  772SOL    HW1 2662   0.137   4.268   3.064 -1.2894  0.0386 -1.6197
  772SOL    HW2 2663   0.288   4.272   3.074 -1.3932 -0.8642  1.7549
  773SOL     OW 2664   3.015   0.659   3.945  0.1484  0.3761 -0.3115
  773SOL    HW1 2665   2.976   0.746   3.952 -0.4521  0.0687  0.2443
  773SOL    HW2 2666   3.088   0.660   4.007 -1.1387 -0.1838  1.2751
  774SOL     OW 2667   0.920   0.413   3.521 -0.4245 -0.6287 -0.3191
  774SOL    HW1 2668   0.925   0.320   3.499 -2.1623 -0.8929  0.2061
  774SOL    HW2 2669   0.870   0.451   3.449 -2.2379 -0.6717  0.8614
  775SOL     OW 2670   3.322   1.657   1.843  0.1445  0.5612  0.7205
  775SOL    HW1 2671   3.260   1.609   1.898  0.5826 -0.8292  0.0579
  775SOL    HW2 2672   3.268   1.700   1.778 -0.2167  0.4085  0.9152
  776SOL     OW 2673   0.492   1.225   3.634 -0.0129  0.4340  0.7062
  776SOL    HW1 2674   0.490   1.182   3.549  1.2882  2.4544 -0.4461
  776SOL    HW2 2675   0.408   1.271   3.640 -1.1000 -1.5531  1.6247
  777SOL     OW 2676   0.812   4.184   1.482 -0.1640 -0.4291  0.4299
  777SOL    HW1 2677   0.795   4.149   1.569  1.6211  0.7975  1.3404
  777SOL    HW2 2678   0.905   4.168   1.467 -0.6326 -1.5671 -1.7509
  778SOL     OW 2679   1.803   1.422   4.026  0.3948  0.6158  0.3283
  778SOL    HW1 2680   1.788   1.476   3.949  2.3688  1.0365  0.1815
  778SOL    HW2 2681   1.867   1.357   3.998 -0.9391 -1.0141  0.8763
  779SOL     OW 2682   2.753   2.160   2.064 -0.2750  0.1908 -0.1873
  779SOL    HW1 2683   2.829   2.121   2.108 -0.6457  0.1635  0.4439
  779SOL    HW2 2684   2.708   2.208   2.133 -0.7860  0.2815 -0.5796
  780SOL     OW 2685   0.051   3.300   0.187 -0.4006  0.0752 -0.3381
  780SOL    HW1 2686   0.106   3.248   0.129  0.8448  0.7456  0.2005
  780SOL    HW2 2687  -0.039   3.274   0.165  0.1412 -1.8364 -0.5031
  781SOL     OW 2688   3.773   1.949   1.515 -0.2327  0.3282 -0.0731
  781SOL    HW1 2689   3.795   1.880   1.453 -1.7961  0.2942 -0.6402
  781SOL    HW2 2690   3.714   2.007   1.467  0.3383  1.5803  0.6752
  782SOL     OW 2691   1.998   3.933   0.425  0.1022 -1.1308 -0.8424
  782SOL    HW1 2692   1.948   3.987   0.365  0.0504 -0.5336 -0.2788
  782SOL    HW2 2693   1.951   3.940   0.508  1.0819 -0.5897 -0.3117
  783SOL     OW 2694   0.505   3.136   1.242 -0.2611 -0.1049 -0.5196
  783SOL    HW1 2695   0.594   3.123   1.209 -0.4771 -1.0727 -0.7265
  783SOL    HW2 2696   0.514   3.128   1.337 -0.5496 -3.0252 -0.6601
  784SOL     OW 2697   0.116   3.432   1.132  0.1823  0.2225 -0.3263
  784SOL    HW1 2698   0.182   3.461   1.195 -0.9796  2.5648 -0.0611
  784SOL    HW2 2699   0.121   3.496   1.061 -0.6530 -0.5592 -1.1198
  785SOL     OW 2700   1.040   4.117   2.922 -0.6921 -0.2126  0.2054
  785SOL    HW1 2701   0.984   4.192   2.938  3.0544  2.6428  1.3858
  785SOL    HW2 2702   1.076   4.132   2.835 -0.7139 -1.2793 -0.0056
  786SOL     OW 2703   2.697   3.556   1.922  0.6494  0.4937  0.0120
  786SOL    HW1 2704   2.790   3.546   1.939  0.6334 -2.1867 -0.8881
  786SOL    HW2 2705   2.660   3.470   1.941 -1.2981  0.9108 -1.5314
  787SOL     OW 2706   3.287   1.390   3.576  0.0262 -0.2003  0.2757
  787SOL    HW1 2707   3.255   1.351   3.658 -0.6752  0.2227  0.2153
  787SOL    HW2 2708   3.220   1.454   3.553  0.8392  0.5867  0.0350
  788SOL     OW 2709   0.189   0.010   0.868 -0.1940  0.6256 -0.1771
  788SOL    HW1 2710   0.244   0.004   0.947 -0.7043  0.4820  0.1735
  788SOL    HW2 2711   0.099   0.009   0.902 -0.5559 -2.6391 -0.8938
  789SOL     OW 2712   0.447   0.837   4.119  0.2350 -0.2346 -0.3166
  789SOL    HW1 2713   0.439   0.919   4.167  1.7871 -0.0439 -0.3623
  789SOL    HW2 2714   0.484   0.775   4.182 -1.0484 -0.9634 -0.2406
  790SOL     OW 2715   3.582   0.398   1.361  0.0332 -0.3095  0.8444
  790SOL    HW1 2716   3.538   0.326   1.317  1.4910 -1.1395  0.6905
  790SOL    HW2 2717   3.631   0.357   1.432 -0.1453  0.6987  1.5883
  791SOL     OW 2718   4.254   1.963   0.406 -0.6436  0.1901 -0.0227
  791SOL    HW1 2719   4.288   2.052   0.395 -0.9259  0.1491 -1.4393
  791SOL    HW2 2720   4.332   1.908   0.405 -0.4963  0.3909  0.4262
  792SOL     OW 2721   4.158   2.913   3.995  0.1000 -0.0697 -0.4153
  792SOL    HW1 2722   4.185   2.821   4.002  0.8884  0.1815 -0.0511
  792SOL    HW2 2723   4.147   2.942   4.086  1.9131  0.7651 -0.4027
  793SOL     OW 2724   0.851   0.584   1.610 -0.3971  0.1917 -0.0213
  793SOL    HW1 2725   0.869   0.651   1.544  1.0487  0.0068  0.1600
  793SOL    HW2 2726   0.757   0.594   1.629 -0.3769  1.6567 -0.5546
  794SOL     OW 2727   0.955   3.982   0.233  1.1009  0.4009 -0.2599
  794SOL    HW1 2728   0.912   4.010   0.314 -0.4365 -0.0022 -0.9058
  794SOL    HW2 2729   0.996   3.899   0.255  0.0188 -0.0946 -0.0991
  795SOL     OW 2730   0.305   3.281   0.922 -0.0350  0.5874  0.8559
  795SOL    HW1 2731   0.334   3.204   0.873  1.8289  0.8939  1.4130
  795SOL    HW2 2732   0.252   3.330   0.859 -1.0425 -0.9856  0.4077
  796SOL     OW 2733   2.275   3.901   0.493 -0.0275 -0.1994 -0.4206
  796SOL    HW1 2734   2.306   3.824   0.446 -0.6138 -1.6395  1.4369
  796SOL    HW2 2735   2.183   3.911   0.466  0.1253  0.0527 -0.8704
  797SOL     OW 2736   0.708   4.307   4.098  0.3713 -0.7552 -0.5881
  797SOL    HW1 2737   0.779   4.275   4.044  1.1853 -3.0720  1.6612
  797SOL    HW2 2738   0.653   4.230   4.114 -0.9921  0.3232  0.1605
  798SOL     OW 2739   0.259   2.234   1.121  0.1715 -0.6358 -0.2569
  798SOL    HW1 2740   0.187   2.263   1.176  0.2158  1.0702 -1.0143
  798SOL    HW2 2741   0.323   2.197   1.182 -0.0087  0.7033  0.7937
  799SOL     OW 2742   3.390   2.859   1.931 -0.2536 -0.3132  0.4199
  799SOL    HW1 2743   3.356   2.842   1.843 -0.2645  1.6795 -0.0107
  799SOL    HW2 2744   3.460   2.923   1.918 -0.1274 -0.1208  1.8458
  800SOL     OW 2745   0.916   1.528   3.622  0.0941  0.0542 -0.0652
  800SOL    HW1 2746   0.913   1.606   3.565 -0.7342  0.0227 -0.0790
  800SOL    HW2 2747   0.852   1.468   3.583 -0.6105  0.0960  0.9914
  801SOL     OW 2748   0.382   0.558   2.830 -0.1846  0.5311  0.2906
  801SOL    HW1 2749   0.379   0.492   2.900  2.4381 -0.3890 -0.3401
  801SOL    HW2 2750   0.402   0.640   2.875  0.5974  0.1150  0.7208
  802SOL     OW 2751   2.541   4.246   3.445  0.0640 -0.3640 -1.0508
  802SOL    HW1 2752   2.539   4.151   3.453 -0.2542 -0.2442  0.5362
  802SOL    HW2 2753   2.632   4.270   3.465 -0.5435 -0.1323  1.8212
  803SOL     OW 2754   3.618   2.526   1.428  0.3295 -0.0500  0.0855
  803SOL    HW1 2755   3.572   2.461   1.481 -0.7954 -0.9756 -1.9348
  803SOL    HW2 2756   3.646   2.593   1.491 -2.0724 -0.4318  1.6774
  804SOL     OW 2757   0.541   1.380   4.144 -0.2915  0.1277 -0.2203
  804SOL    HW1 2758   0.513   1.298   4.185 -0.7193  0.3131 -0.1468
  804SOL    HW2 2759   0.500   1.379   4.058 -1.6312  1.0263  0.3858
  805SOL     OW 2760   0.959   4.075   4.307 -0.0576  0.5049 -0.0235
  805SOL    HW1 2761   1.008   4.155   4.286  0.1338  0.4847  0.3309
  805SOL    HW2 2762   0.973   4.018   4.232  1.8921 -0.1734  0.7598
  806SOL     OW 2763   1.768   4.113   3.169  0.2257  0.3625 -0.6266
  806SOL    HW1 2764   1.759   4.024   3.202 -0.6992  0.6189 -0.1313
  806SOL    HW2 2765   1.758   4.104   3.074  2.1684 -0.2912 -0.8019
  807SOL     OW 2766   2.947   2.750   1.115  0.7160 -0.0176  0.4154
  807SOL    HW1 2767   2.917   2.790   1.196  1.3266  1.5089 -0.0754
  807SOL    HW2 2768   2.981   2.664   1.141 -4.2209 -2.1101  0.9957
  808SOL     OW 2769   1.071   1.715   4.224 -0.1530  0.2471  0.0144
  808SOL    HW1 2770   1.084   1.658   4.148  1.4442  0.8124 -0.1690
  808SOL    HW2 2771   1.138   1.689   4.286  0.7569  2.0137 -0.1561
  809SOL     OW 2772   3.277   2.611   1.865  0.0893  0.4566 -0.2948
  809SOL    HW1 2773   3.330   2.677   1.910 -0.2411 -0.1679  1.0488
  809SOL    HW2 2774   3.335   2.536   1.855 -0.8367 -0.6996  2.3271
  810SOL     OW 2775   2.351   0.407   1.100  0.3748 -0.6073 -0.6510
  810SOL    HW1 2776   2.440   0.441   1.096 -0.0241  0.4038 -2.3520
  810SOL    HW2 2777   2.295   0.484   1.089 -0.8891 -0.7353  3.3627
  811SOL     OW 2778   3.527   2.420   4.076 -0.2284 -0.2474 -0.1973
  811SOL    HW1 2779   3.563   2.485   4.016 -1.2961 -0.0306 -0.6333
  811SOL    HW2 2780   3.601   2.393   4.130  0.3186  1.0561 -0.2611
  812SOL     OW 2781   0.464   3.169   2.899 -0.2461  0.6801  0.0488
  812SOL    HW1 2782   0.369   3.172   2.908 -0.3352 -2.3244  1.1434
  812SOL    HW2 2783   0.484   3.078   2.876  2.4815  0.7204  1.7488
  813SOL     OW 2784   3.270   2.857   0.463  0.3692 -0.0266 -0.5575
  813SOL    HW1 2785   3.231   2.930   0.415 -0.2738 -0.3422 -0.5244
  813SOL    HW2 2786   3.269   2.885   0.554  1.7797  0.6585 -0.7344
  814SOL     OW 2787   2.683   2.508   0.302  0.4794 -0.0621 -0.1330
  814SOL    HW1 2788   2.709   2.417   0.313  0.8764  0.0769  0.0741
  814SOL    HW2 2789   2.587   2.506   0.304  0.4989 -0.3845  0.5955
  815SOL     OW 2790   1.093   0.688   1.787  0.5172 -0.2711 -0.6422
  815SOL    HW1 2791   1.056   0.644   1.710  0.5857  0.8154 -1.3227
  815SOL    HW2 2792   1.021   0.692   1.850  0.2707 -0.5856 -0.9016
  816SOL     OW 2793   0.174   3.197   2.811 -0.4861  0.3576  0.9071
  816SOL    HW1 2794   0.124   3.277   2.793 -1.8106 -0.1887  2.0516
  816SOL    HW2 2795   0.130   3.129   2.761 -1.1611 -0.2083  2.2554
  817SOL     OW 2796   3.552   3.472   3.820 -0.2917 -0.1442  0.1540
  817SOL    HW1 2797   3.526   3.562   3.840 -0.6451 -0.4635  1.2191
  817SOL    HW2 2798   3.648   3.475   3.815 -0.3799  0.5879 -1.4257
  818SOL     OW 2799   0.889   0.286   2.427  0.0865  0.1840  0.5631
  818SOL    HW1 2800   0.833   0.346   2.377 -0.4859 -1.0802 -0.3492
  818SOL    HW2 2801   0.842   0.273   2.510 -0.9379 -0.7684 -0.1482
  819SOL     OW 2802   2.814   3.017   0.897  0.3219 -0.1742  0.4542
  819SOL    HW1 2803   2.732   2.984   0.933 -0.1533  0.3832 -0.0657
  819SOL    HW2 2804   2.822   2.974   0.812 -0.9391  1.8315 -0.7931
  820SOL     OW 2805   0.162   0.661   3.306  0.7892  0.0187 -0.5941
  820SOL    HW1 2806   0.118   0.645   3.390 -0.2069  0.1216 -1.0788
  820SOL    HW2 2807   0.090   0.672   3.243  1.5170 -0.2523 -1.4996
  821SOL     OW 2808   1.772   2.730   1.849  0.0108 -0.0086  0.2750
  821SOL    HW1 2809   1.795   2.706   1.759  0.9237  0.5985  0.3382
  821SOL    HW2 2810   1.817   2.813   1.864 -0.4156  0.0706  1.1837
  822SOL     OW 2811   2.310   0.237   2.926  0.0858  0.2625 -0.3610
  822SOL    HW1 2812   2.285   0.206   3.013 -1.7078 -0.0016 -0.9173
  822SOL    HW2 2813   2.259   0.317   2.914 -0.2286 -0.0790 -1.4246
  823SOL     OW 2814   1.079   1.043   3.359 -0.0476 -0.3838 -0.3068
  823SOL    HW1 2815   1.148   1.101   3.328 -0.6242  0.4289 -0.1215
  823SOL    HW2 2816   1.107   1.017   3.447 -1.5661  2.8216  1.3054
  824SOL     OW 2817   2.768   4.372   3.058  0.4813  0.0497  1.1069
  824SOL    HW1 2818   2.755   4.442   2.994  0.2889 -1.2398 -0.3211
  824SOL    HW2 2819   2.808   4.415   3.133  1.6668  1.4421 -0.2658
  825SOL     OW 2820   3.807   4.288   0.838 -1.0943 -0.0443  0.2694
  825SOL    HW1 2821   3.746   4.285   0.764 -1.3267 -1.5875  0.4775
  825SOL    HW2 2822   3.856   4.206   0.831 -1.0672 -0.1746  1.7772
  826SOL     OW 2823   2.751   0.317   3.644  0.2154 -0.4549 -0.1708
  826SOL    HW1 2824   2.747   0.389   3.581  0.9257 -0.1697  0.1009
  826SOL    HW2 2825   2.712   0.353   3.724  0.0838 -0.5446 -0.1941
  827SOL     OW 2826   1.860   0.869   3.798 -0.5409 -0.3251  0.2267
  827SOL    HW1 2827   1.786   0.890   3.741  0.0766 -0.8838 -0.8260
  827SOL    HW2 2828   1.917   0.814   3.743  0.8802  0.4755  0.8374
  828SOL     OW 2829   0.999   3.204   0.086 -0.0157  0.1040  0.2835
  828SOL    HW1 2830   1.093   3.201   0.072 -0.1112 -0.2664 -0.2886
  828SOL    HW2 2831   0.985   3.154   0.167  0.3293  0.6257  0.6741
  829SOL     OW 2832   2.630   0.331   3.248 -0.2437  0.1576  0.7360
  829SOL    HW1 2833   2.578   0.258   3.282 -1.4185  0.3931 -0.4639
  829SOL    HW2 2834   2.721   0.300   3.252 -0.4803 -0.4425  2.4449
  830SOL     OW 2835   3.055   3.667   3.901  0.0354  0.0997 -0.4823
  830SOL    HW1 2836   3.123   3.707   3.956  0.1091 -2.1219  1.1699
  830SOL    HW2 2837   3.078   3.693   3.812 -0.1559  3.9608  0.4191
  831SOL     OW 2838   1.947   1.128   3.241 -0.7313 -0.0125  0.4757
  831SOL    HW1 2839   1.899   1.097   3.318 -0.3481  1.8217  1.5336
  831SOL    HW2 2840   1.985   1.211   3.270 -0.1720  0.4806 -1.5673
  832SOL     OW 2841   2.652   3.986   0.535 -0.4670  0.0434 -0.3743
  832SOL    HW1 2842   2.603   3.958   0.457 -1.0528 -0.7736  0.2756
  832SOL    HW2 2843   2.709   4.056   0.503 -0.5946 -0.3743 -1.5731
  833SOL     OW 2844   2.809   3.542   2.318 -0.0611 -0.7570 -0.4598
  833SOL    HW1 2845   2.753   3.613   2.350  0.9883  0.1456 -0.5546
  833SOL    HW2 2846   2.894   3.558   2.359  0.7107 -0.8604 -1.9348
  834SOL     OW 2847   4.327   4.271   1.414 -0.0339  0.3361 -0.2987
  834SOL    HW1 2848   4.299   4.191   1.369 -0.1581  0.3439 -0.2371
  834SOL    HW2 2849   4.314   4.340   1.349  0.5295  0.2441 -0.5167
  835SOL     OW 2850   0.840   2.404   2.951  0.9892 -0.9350  0.3072
  835SOL    HW1 2851   0.856   2.485   2.902 -2.3889  0.0628  0.5959
  835SOL    HW2 2852   0.886   2.416   3.034  0.0637  1.0415  0.5915
  836SOL     OW 2853   2.434   0.000   4.086 -0.1681  0.1405 -0.3646
  836SOL    HW1 2854   2.361   0.025   4.029  0.5685  2.2235 -0.4778
  836SOL    HW2 2855   2.482   0.082   4.100 -0.2823 -0.2558  3.2212
  837SOL     OW 2856   2.249   4.135   3.235 -0.0189 -0.4281  0.7053
  837SOL    HW1 2857   2.264   4.214   3.288 -1.3910 -0.8369  1.7502
  837SOL    HW2 2858   2.303   4.068   3.276  1.7483  0.0861 -0.6364
  838SOL     OW 2859   0.257   3.321   3.931  0.1067  0.4589  0.7749
  838SOL    HW1 2860   0.238   3.339   4.023  0.5459 -0.1268  0.9860
  838SOL    HW2 2861   0.348   3.347   3.919 -0.3307  1.8070  0.1508
  839SOL     OW 2862   0.552   4.295   3.503 -0.2210 -0.2974 -0.1537
  839SOL    HW1 2863   0.613   4.320   3.435  0.0552  0.2069  0.2689
  839SOL    HW2 2864   0.591   4.218   3.544  0.0124 -0.1269 -0.0515
  840SOL     OW 2865   0.199   3.971   2.130  0.2379  0.2508  0.5415
  840SOL    HW1 2866   0.189   4.031   2.204  0.5053  1.1654 -0.1465
  840SOL    HW2 2867   0.242   4.024   2.063  0.0639 -0.5910 -0.2374
  841SOL     OW 2868   0.618   0.123   0.101 -0.5165  0.9019  0.0338
  841SOL    HW1 2869   0.707   0.153   0.081 -0.1718 -0.5398 -0.6912
  841SOL    HW2 2870   0.583   0.191   0.158  0.9993  1.5705  0.2291
  842SOL     OW 2871   0.870   3.889   0.550 -0.6020  0.2361 -0.2812
  842SOL    HW1 2872   0.920   3.808   0.553 -1.2008 -0.1113  1.1805
  842SOL    HW2 2873   0.936   3.958   0.544  0.0408 -0.2573  0.7952
  843SOL     OW 2874   1.717   3.135   0.804 -0.1525 -0.0470  0.2443
  843SOL    HW1 2875   1.684   3.214   0.762 -1.3924 -1.4895 -1.6201
  843SOL    HW2 2876   1.667   3.129   0.886 -0.8505  0.5076 -0.1300
  844SOL     OW 2877   1.958   3.153   0.570 -0.4286  0.6632  0.1633
  844SOL    HW1 2878   1.972   3.220   0.637  1.1852 -0.1110  0.6366
  844SOL    HW2 2879   1.990   3.072   0.610  2.4058  0.4753 -2.1469
  845SOL     OW 2880   2.619   0.046   2.757 -0.2072 -0.4104 -0.6036
  845SOL    HW1 2881   2.553   0.011   2.818 -1.3063  0.4430 -1.2582
  845SOL    HW2 2882   2.663   0.114   2.806  0.6708 -1.4259  0.0610
  846SOL     OW 2883   0.582   0.921   1.649 -0.6505 -0.1887  0.3452
  846SOL    HW1 2884   0.595   0.864   1.724  0.5378  0.6576  0.8185
  846SOL    HW2 2885   0.623   0.875   1.576  0.2037 -0.0066  0.7024
  847SOL     OW 2886   3.181   0.843   3.107  0.3512  0.5923 -0.7856
  847SOL    HW1 2887   3.259   0.876   3.063  1.7871  0.0861  1.2233
  847SOL    HW2 2888   3.132   0.922   3.130  1.0539  1.0294 -0.7493
  848SOL     OW 2889   3.706   4.239   1.101  0.2998  0.4940 -0.1663
  848SOL    HW1 2890   3.624   4.204   1.066 -0.1844  2.2827 -0.9407
  848SOL    HW2 2891   3.762   4.253   1.025  1.7186 -1.5391  0.4305
  849SOL     OW 2892   2.210   0.067   3.970  0.0627 -0.0325  0.6757
  849SOL    HW1 2893   2.177   0.156   3.987 -0.0869 -0.0285  0.3570
  849SOL    HW2 2894   2.222   0.063   3.875  0.8287 -0.0882  0.7692
  850SOL     OW 2895   2.522   2.253   3.147  0.7792 -0.4056  0.3722
  850SOL    HW1 2896   2.524   2.348   3.151  1.5553 -0.4635  2.3366
  850SOL    HW2 2897   2.529   2.233   3.054 -1.3603  1.4433 -0.2906
  851SOL     OW 2898   0.719   1.094   0.244  0.2268 -1.4323  0.1251
  851SOL    HW1 2899   0.672   1.013   0.224 -0.1318 -1.0019 -0.8504
  851SOL    HW2 2900   0.768   1.114   0.163 -0.3675 -0.2293  0.0348
  852SOL     OW 2901   2.085   4.281   0.089 -0.5047 -0.3463  0.1984
  852SOL    HW1 2902   2.131   4.316   0.013 -1.0569 -2.3560 -1.1399
  852SOL    HW2 2903   1.997   4.261   0.057 -0.2491 -2.8462  0.8120
  853SOL     OW 2904   3.550   0.581   1.113 -0.0415 -0.5072  0.2264
  853SOL    HW1 2905   3.542   0.486   1.100 -0.8400 -0.2307 -1.6689
  853SOL    HW2 2906   3.483   0.602   1.178 -0.5898 -1.1110 -0.1313
  854SOL     OW 2907   1.523   3.572   2.203 -0.2324 -0.0255  0.3724
  854SOL    HW1 2908   1.535   3.479   2.184  1.9639  0.3637 -0.4907
  854SOL    HW2 2909   1.609   3.601   2.234 -0.9697  1.6443  0.9564
  855SOL     OW 2910   1.864   0.110   1.488 -0.7930 -0.6880 -0.0491
  855SOL    HW1 2911   1.782   0.158   1.488 -0.0776  0.5746 -0.5916
  855SOL    HW2 2912   1.882   0.093   1.395 -0.7935 -1.5880  0.1062
  856SOL     OW 2913   3.581   0.419   3.448 -0.1656  0.1600  0.2928
  856SOL    HW1 2914   3.502   0.438   3.398 -0.5824 -1.1788  0.3868
  856SOL    HW2 2915   3.638   0.373   3.387  0.0785  0.1468  0.5277
  857SOL     OW 2916   2.328   3.775   3.967  0.2890 -0.3419 -0.3503
  857SOL    HW1 2917   2.384   3.717   4.019  1.0429 -0.0536 -0.8290
  857SOL    HW2 2918   2.337   3.861   4.009  0.1704 -0.3043 -0.4027
  858SOL     OW 2919   2.595   1.827   3.994  0.1632  0.2312  0.2946
  858SOL    HW1 2920   2.606   1.803   3.902 -0.8119  0.6858  0.0404
  858SOL    HW2 2921   2.589   1.743   4.039  0.9277  0.0018 -0.0131
  859SOL     OW 2922   2.032   0.369   2.052  0.1604 -0.2365  0.6793
  859SOL    HW1 2923   2.007   0.461   2.042  3.5413  0.9678  1.8708
  859SOL    HW2 2924   2.064   0.344   1.965 -3.1508 -1.2506 -0.3773
  860SOL     OW 2925   4.227   3.926   0.373  0.7016  0.0563  0.1070
  860SOL    HW1 2926   4.217   3.864   0.445 -0.5375  1.8189  1.5234
  860SOL    HW2 2927   4.293   3.989   0.403 -1.6275  2.2703  0.8684
  861SOL     OW 2928   2.544   0.046   3.788 -0.3955  0.9221  0.1278
  861SOL    HW1 2929   2.603   0.026   3.715 -0.9562 -2.0582  0.3681
  861SOL    HW2 2930   2.597   0.100   3.846  0.8601  1.3906 -1.3800
  862SOL     OW 2931   0.196   0.836   0.411  0.1851  0.5752  0.1222
  862SOL    HW1 2932   0.190   0.917   0.361  0.1566  0.7699  0.4411
  862SOL    HW2 2933   0.150   0.854   0.493  1.5722  0.7695  0.8934
  863SOL     OW 2934   1.386   1.024   0.523 -0.2969  0.0865  0.2237
  863SOL    HW1 2935   1.402   0.973   0.444  1.4380  0.0959  0.5319
  863SOL    HW2 2936   1.471   1.064   0.544 -0.8118  0.4178  1.8451
  864SOL     OW 2937   4.120   4.269   0.732 -0.3847  0.2822 -0.7413
  864SOL    HW1 2938   4.129   4.180   0.765 -1.5316  0.7526  0.9220
  864SOL    HW2 2939   4.101   4.258   0.638 -3.9668 -1.4213  0.0289
  865SOL     OW 2940   0.651   3.079   3.181  0.4145 -0.3403  0.0447
  865SOL    HW1 2941   0.674   3.120   3.265  0.5571  1.5040 -0.8497
  865SOL    HW2 2942   0.617   3.151   3.128  1.9731 -1.0924 -2.1000
  866SOL     OW 2943   3.912   0.366   2.427 -0.2204 -0.0859 -0.2720
  866SOL    HW1 2944   3.968   0.303   2.471  0.3947 -0.4498 -1.5393
  866SOL    HW2 2945   3.825   0.352   2.465  0.6866  1.3668  2.6735
  867SOL     OW 2946   1.940   3.320   0.807  0.6570  0.2794  0.1466
  867SOL    HW1 2947   1.863   3.266   0.826 -1.1702  2.9325  0.8579
  867SOL    HW2 2948   1.984   3.328   0.892  0.7901  0.1315  0.0923
  868SOL     OW 2949   3.698   2.272   3.580  0.3073  0.1637  0.6251
  868SOL    HW1 2950   3.668   2.267   3.671 -1.1487 -0.4692  0.1398
  868SOL    HW2 2951   3.620   2.298   3.530  0.7618 -0.6732 -0.5785
  869SOL     OW 2952   2.410   1.737   4.349 -0.8454  0.1202 -0.0297
  869SOL    HW1 2953   2.399   1.677   4.423  2.5345 -1.2894 -0.4818
  869SOL    HW2 2954   2.479   1.697   4.297  0.6476  3.7668 -1.1134
  870SOL     OW 2955   2.626   3.289   0.799 -0.5410 -0.1836  0.3005
  870SOL    HW1 2956   2.581   3.372   0.817 -0.4547 -0.1301  0.2678
  870SOL    HW2 2957   2.719   3.310   0.806 -0.4371  0.1893 -1.5859
  871SOL     OW 2958   2.752   1.312   3.282  0.1038 -0.4527 -0.4618
  871SOL    HW1 2959   2.742   1.262   3.201  1.0147  1.4561 -1.8292
  871SOL    HW2 2960   2.666   1.351   3.297 -0.0245 -0.6844 -0.5906
  872SOL     OW 2961   1.827   1.561   1.767 -0.3781  0.3252 -0.1301
  872SOL    HW1 2962   1.784   1.532   1.847 -0.2106 -1.3174 -0.6005
  872SOL    HW2 2963   1.892   1.625   1.796  0.7522 -1.3641  1.2753
  873SOL     OW 2964   1.319   0.577   1.231  0.2053 -0.3844  0.2934
  873SOL    HW1 2965   1.251   0.509   1.235 -1.6802  1.4414  1.0114
  873SOL    HW2 2966   1.283   0.644   1.173  0.9102  1.1074  1.5010
  874SOL     OW 2967   3.391   1.063   1.708 -0.6151  0.1742  0.0050
  874SOL    HW1 2968   3.425   1.149   1.684 -0.6088 -0.4100 -2.3333
  874SOL    HW2 2969   3.356   1.027   1.626 -1.2732 -1.7530  1.0658
  875SOL     OW 2970   0.816   1.145   1.855  0.1451  0.2105 -0.3869
  875SOL    HW1 2971   0.843   1.227   1.898 -1.5052  0.7126 -0.2416
  875SOL    HW2 2972   0.812   1.168   1.762 -4.0473  1.5515 -0.0776
  876SOL     OW 2973   0.161   1.703   2.750  1.0333 -0.2161  0.5204
  876SOL    HW1 2974   0.181   1.611   2.732  0.4552 -0.4513  1.0423
  876SOL    HW2 2975   0.203   1.721   2.834  0.7647 -0.1377  0.6395
  877SOL     OW 2976   4.028   1.685   1.445 -0.2125 -0.4691  0.3906
  877SOL    HW1 2977   4.116   1.659   1.417 -0.5474 -2.0159  0.7034
  877SOL    HW2 2978   4.039   1.718   1.534  0.0871 -0.3281  0.3038
  878SOL     OW 2979   3.737   3.075   4.311  0.2480 -0.1756  0.2432
  878SOL    HW1 2980   3.672   3.137   4.344  0.3545 -0.7936  1.6948
  878SOL    HW2 2981   3.795   3.059   4.386  0.8241 -1.2347 -0.4064
  879SOL     OW 2982   0.043   0.809   2.045 -0.4642  0.6079  0.3496
  879SOL    HW1 2983  -0.012   0.738   2.012  0.0130  0.6954 -0.6717
  879SOL    HW2 2984   0.127   0.796   2.002  0.4510  0.2823  2.1239
  880SOL     OW 2985   3.040   3.066   1.458 -0.4482 -0.2428 -0.4098
  880SOL    HW1 2986   3.109   3.102   1.403 -1.4225 -0.9039 -2.1579
  880SOL    HW2 2987   3.050   3.111   1.542 -1.2792  3.8399 -2.2311
  881SOL     OW 2988   2.451   1.807   3.243 -0.2333 -0.2603  0.3791
  881SOL    HW1 2989   2.406   1.888   3.265 -1.4224 -0.3227 -1.5795
  881SOL    HW2 2990   2.382   1.749   3.211  0.6219 -2.0014  1.5126
  882SOL     OW 2991   2.620   2.572   2.379  0.6016 -0.3341  0.3313
  882SOL    HW1 2992   2.664   2.596   2.297 -0.3661  0.4991  0.0397
  882SOL    HW2 2993   2.675   2.610   2.448  0.6224  0.2603 -0.0028
  883SOL     OW 2994   1.922   3.599   4.071 -0.5017  0.1791  0.2408
  883SOL    HW1 2995   1.917   3.561   4.159 -1.2319 -2.3640 -0.8129
  883SOL    HW2 2996   1.994   3.552   4.028 -0.1630  1.3749 -0.5737
  884SOL     OW 2997   1.296   3.813   3.957  0.2680  0.1452  0.1698
  884SOL    HW1 2998   1.378   3.856   3.981 -0.2653  0.3991  1.6046
  884SOL    HW2 2999   1.312   3.720   3.974  0.1815  0.2249  0.7093
  885SOL     OW 3000   0.832   1.640   0.316 -0.4207 -0.7119 -0.5571
  885SOL    HW1 3001   0.763   1.633   0.251 -0.0830 -0.9244 -0.8991
  885SOL    HW2 3002   0.900   1.692   0.274  0.5053 -2.2196 -1.0192
  886SOL     OW 3003   0.960   0.275   2.073 -0.4400 -0.1671 -0.4090
  886SOL    HW1 3004   0.997   0.215   2.138 -3.0897  0.9670  2.4171
  886SOL    HW2 3005   1.019   0.351   2.073  0.2848 -0.7263 -0.3175
  887SOL     OW 3006   1.785   0.488   1.521  0.4309 -0.1117 -0.5911
  887SOL    HW1 3007   1.834   0.442   1.453  0.1596  0.0226 -0.8825
  887SOL    HW2 3008   1.721   0.424   1.552  0.1714  0.0091 -0.8714
  888SOL     OW 3009   2.301   0.118   3.727 -0.0666  0.4775  0.2601
  888SOL    HW1 3010   2.273   0.209   3.719 -0.2828  0.3370 -0.7193
  888SOL    HW2 3011   2.387   0.123   3.767 -0.9762  0.9798  2.2574
  889SOL     OW 3012   1.833   1.433   1.529 -0.4087 -0.4714 -0.2044
  889SOL    HW1 3013   1.842   1.526   1.506  2.0186 -0.7688 -0.7216
  889SOL    HW2 3014   1.864   1.428   1.620 -0.4030 -0.7999 -0.2230
  890SOL     OW 3015   3.644   1.199   2.836  0.0848 -0.0221  0.2337
  890SOL    HW1 3016   3.681   1.221   2.922 -0.7318  2.6604 -0.0216
  890SOL    HW2 3017   3.596   1.117   2.851  1.4554 -0.5877  1.8685
  891SOL     OW 3018   3.465   4.115   3.587 -0.1944 -0.6514  0.0592
  891SOL    HW1 3019   3.402   4.089   3.655  0.6887 -0.3864  1.0015
  891SOL    HW2 3020   3.493   4.202   3.613  0.9692 -0.9861 -0.0391
  892SOL     OW 3021   0.315   2.061   3.940  0.2938 -0.1828  0.2757
  892SOL    HW1 3022   0.313   2.078   4.034 -1.0741 -0.7414  0.3726
  892SOL    HW2 3023   0.223   2.057   3.914  0.6265 -1.2822 -0.8569
  893SOL     OW 3024   1.995   0.677   4.305 -1.0002 -0.5474 -0.3099
  893SOL    HW1 3025   1.991   0.766   4.270 -0.9970 -0.3665  0.1424
  893SOL    HW2 3026   1.956   0.683   4.392  0.8940 -0.5514  0.6014
  894SOL     OW 3027   3.220   1.121   3.238 -0.5682  0.5042 -0.3380
  894SOL    HW1 3028   3.142   1.172   3.260 -0.8254  1.6207 -3.3696
  894SOL    HW2 3029   3.222   1.120   3.142  0.2542 -4.0151 -0.5139
  895SOL     OW 3030   0.965   1.662   3.383  0.1929  0.7914 -0.4538
  895SOL    HW1 3031   1.043   1.683   3.332 -0.0573  0.1185 -1.1356
  895SOL    HW2 3032   0.915   1.603   3.326 -0.3854  0.5118  0.3357
  896SOL     OW 3033   2.720   2.591   0.817  0.0311 -0.6711  0.1346
  896SOL    HW1 3034   2.771   2.543   0.882  0.5778  0.8254  0.8543
  896SOL    HW2 3035   2.761   2.569   0.733 -0.5901 -2.5094  0.2721
  897SOL     OW 3036   0.427   4.104   0.765  0.1275  0.1092  0.3088
  897SOL    HW1 3037   0.440   4.150   0.848  0.3114  0.7571 -0.0739
  897SOL    HW2 3038   0.509   4.056   0.751 -0.2457 -0.7533  0.9518
  898SOL     OW 3039   1.766   3.269   3.930 -0.0248 -0.4489  0.2453
  898SOL    HW1 3040   1.788   3.300   3.842  1.9427 -1.6059  0.2847
  898SOL    HW2 3041   1.710   3.338   3.965  0.9181  1.1101 -1.1193
  899SOL     OW 3042   4.216   2.192   3.311 -0.3448  0.0980 -0.2053
  899SOL    HW1 3043   4.160   2.192   3.233 -1.0383  2.4998  0.1977
  899SOL    HW2 3044   4.204   2.105   3.349 -1.2352 -0.5719 -1.9106
  900SOL     OW 3045   3.572   0.283   3.687 -0.0324  0.6213 -0.1137
  900SOL    HW1 3046   3.580   0.332   3.604 -0.3821  0.8772  0.0019
  900SOL    HW2 3047   3.593   0.348   3.754  2.8923 -0.2211 -0.1020
  901SOL     OW 3048   3.584   2.275   0.014  0.2883  0.6635 -0.0411
  901SOL    HW1 3049   3.562   2.283   0.107 -0.1208 -0.6932  0.0072
  901SOL    HW2 3050   3.503   2.300  -0.032  0.3850  1.0094 -0.0229
  902SOL     OW 3051   3.708   2.296   2.684 -0.0333  0.3891  0.0428
  902SOL    HW1 3052   3.708   2.229   2.753  0.0587 -0.6836 -0.9704
  902SOL    HW2 3053   3.800   2.317   2.672 -0.1182  1.3337  0.9420
  903SOL     OW 3054   2.814   3.075   2.068 -0.1286  0.5713  0.0944
  903SOL    HW1 3055   2.766   3.043   2.144 -1.9538 -3.1187 -2.2976
  903SOL    HW2 3056   2.891   3.017   2.063 -0.6888 -0.0964 -1.4465
  904SOL     OW 3057   2.226   2.089   0.039 -0.0814 -0.3785 -0.4199
  904SOL    HW1 3058   2.264   2.106   0.126 -3.6033  2.7994  0.7497
  904SOL    HW2 3059   2.174   2.010   0.052 -0.4235 -0.0424  0.3340
  905SOL     OW 3060   3.373   3.669   3.519  0.0389 -0.2242  0.2914
  905SOL    HW1 3061   3.455   3.713   3.539  1.2972 -0.8722 -2.8287
  905SOL    HW2 3062   3.392   3.576   3.532  0.3001 -0.4889 -1.6357
  906SOL     OW 3063   2.161   0.464   2.277  0.1096  0.4495 -0.5928
  906SOL    HW1 3064   2.159   0.424   2.190  2.5406 -1.1068 -0.0086
  906SOL    HW2 3065   2.249   0.446   2.310 -0.7651  0.9332  2.2460
  907SOL     OW 3066   2.443   0.785   0.112  0.7011 -0.6949 -0.0723
  907SOL    HW1 3067   2.430   0.810   0.020  0.4705  0.1615  0.1848
  907SOL    HW2 3068   2.369   0.825   0.158  0.9407 -0.9266  0.5189
  908SOL     OW 3069   2.007   3.461   0.175 -0.4458  0.5227  0.4036
  908SOL    HW1 3070   2.095   3.427   0.159 -0.2478  1.3768 -0.4624
  908SOL    HW2 3071   1.989   3.439   0.266  0.8834  0.7687  0.7583
  909SOL     OW 3072   2.138   0.808   1.788  0.3919 -0.4062 -0.0663
  909SOL    HW1 3073   2.162   0.755   1.712  1.3283  0.2256 -0.2226
  909SOL    HW2 3074   2.161   0.897   1.764  0.6345 -0.1865  0.9369
  910SOL     OW 3075   1.058   3.632   2.274 -0.4237 -0.5189 -0.7182
  910SOL    HW1 3076   1.094   3.561   2.327 -0.9492 -0.3407 -0.1010
  910SOL    HW2 3077   1.128   3.657   2.215  0.4711 -0.1554  0.4673
  911SOL     OW 3078   2.008   2.279   3.366  0.5037 -0.4324  0.2510
  911SOL    HW1 3079   1.990   2.264   3.459 -0.7025  1.3488  0.3431
  911SOL    HW2 3080   2.071   2.351   3.365  0.8815 -0.7607 -0.3175
  912SOL     OW 3081   2.895   4.088   0.210 -0.1839 -0.3800 -0.0978
  912SOL    HW1 3082   2.985   4.054   0.213  1.0394  2.4257 -1.1827
  912SOL    HW2 3083   2.864   4.068   0.121  0.4216  0.8858 -0.6298
  913SOL     OW 3084   1.180   2.958   0.124  0.5772 -0.3750 -0.8332
  913SOL    HW1 3085   1.201   2.944   0.031  0.9631 -2.5662 -0.4662
  913SOL    HW2 3086   1.249   3.017   0.155 -1.4234  3.2272 -2.6137
  914SOL     OW 3087   0.505   2.805   1.128  0.2107  0.1219  0.7819
  914SOL    HW1 3088   0.508   2.891   1.170 -0.0802  1.7871 -2.3563
  914SOL    HW2 3089   0.446   2.754   1.184 -0.1080  2.1227  2.4121
  915SOL     OW 3090   3.234   2.777   1.233  0.0702  0.2661 -0.5020
  915SOL    HW1 3091   3.319   2.742   1.206 -0.3735 -1.5406  0.3483
  915SOL    HW2 3092   3.228   2.861   1.187  1.7578 -0.1422 -1.5694
  916SOL     OW 3093   1.407   3.344   1.211 -1.0364  0.3901  0.1776
  916SOL    HW1 3094   1.436   3.321   1.299  1.9607 -0.5903 -0.9486
  916SOL    HW2 3095   1.426   3.437   1.202  0.2743  0.1231  0.0368
  917SOL     OW 3096   4.187   2.136   4.158  0.0608  0.6898  0.6415
  917SOL    HW1 3097   4.178   2.048   4.194 -0.3529  0.5144  0.1212
  917SOL    HW2 3098   4.258   2.175   4.209  0.6311 -0.1374  0.5033
  918SOL     OW 3099   1.541   3.918   4.287 -0.2939  0.5760 -0.3348
  918SOL    HW1 3100   1.618   3.862   4.286  0.3225  1.3891 -1.9663
  918SOL    HW2 3101   1.533   3.947   4.378 -0.2286 -1.5533  0.4014
  919SOL     OW 3102   3.240   2.949   3.811  0.5093  0.1036  0.4407
  919SOL    HW1 3103   3.198   2.863   3.812 -0.5251  0.5583 -0.7959
  919SOL    HW2 3104   3.274   2.961   3.899  3.0524 -2.7049  0.0196
  920SOL     OW 3105   2.827   1.724   3.421 -0.5193  0.0156  0.2548
  920SOL    HW1 3106   2.874   1.716   3.504  2.9336 -1.0228 -1.5885
  920SOL    HW2 3107   2.811   1.818   3.411  0.3044  0.3017  1.4476
  921SOL     OW 3108   2.448   4.180   2.135 -0.7423 -0.0101 -0.0958
  921SOL    HW1 3109   2.449   4.180   2.039 -0.7179  0.4260 -0.1004
  921SOL    HW2 3110   2.403   4.100   2.159 -1.7875  0.4484 -0.4881
  922SOL     OW 3111   3.048   2.882   2.473 -0.7179  0.0458  0.3024
  922SOL    HW1 3112   3.105   2.955   2.452  0.8397 -0.8282  1.3010
  922SOL    HW2 3113   3.059   2.869   2.568  0.5328 -2.6423 -0.1177
  923SOL     OW 3114   0.689   2.198   1.717  0.2596 -0.6339  0.0351
  923SOL    HW1 3115   0.734   2.165   1.794  1.3637  0.7079  0.0105
  923SOL    HW2 3116   0.726   2.285   1.704  1.0745 -1.2903 -2.7457
  924SOL     OW 3117   2.839   1.301   2.141 -0.4231 -0.0815  0.2191
  924SOL    HW1 3118   2.866   1.338   2.057 -1.0880  0.0921  0.0760
  924SOL    HW2 3119   2.885   1.217   2.146 -0.1932  0.0147 -0.2079
  925SOL     OW 3120   1.421   1.905   4.340 -0.1614  0.0082 -0.0310
  925SOL    HW1 3121   1.451   1.827   4.294 -1.3502  0.4612 -1.6737
  925SOL    HW2 3122   1.501   1.950   4.367  0.5357 -1.5760  0.6348
  926SOL     OW 3123   2.950   1.291   0.348 -0.1726 -0.1308 -0.2600
  926SOL    HW1 3124   2.886   1.235   0.303 -1.7295  1.4551 -0.1388
  926SOL    HW2 3125   2.948   1.260   0.439 -1.3260  0.3426 -0.1034
  927SOL     OW 3126   0.516   0.067   1.182  0.0349 -0.4335  0.3591
  927SOL    HW1 3127   0.544   0.090   1.270  0.5333 -1.3084  0.4424
  927SOL    HW2 3128   0.430   0.026   1.194 -0.0346 -0.2767  0.4016
  928SOL     OW 3129   2.501   2.823   3.956  0.2401 -0.2522  0.2162
  928SOL    HW1 3130   2.545   2.861   3.880  1.6351 -0.6240  0.8128
  928SOL    HW2 3131   2.508   2.889   4.024 -0.8158 -0.0112  0.1145
  929SOL     OW 3132   1.578   3.670   1.462 -0.1599 -0.0548  0.3444
  929SOL    HW1 3133   1.607   3.699   1.549 -1.5602 -1.2505  1.2634
  929SOL    HW2 3134   1.556   3.577   1.474 -2.1528  0.2020 -0.7856
  930SOL     OW 3135   0.098   2.332   1.654 -0.5321  0.1331 -0.4981
  930SOL    HW1 3136   0.161   2.404   1.647 -0.7294  0.2340 -1.5172
  930SOL    HW2 3137   0.150   2.255   1.674 -0.2396  0.4516 -0.0356
  931SOL     OW 3138   3.312   0.810   0.694  0.3848  0.0530 -0.1529
  931SOL    HW1 3139   3.238   0.753   0.673 -1.2760  1.7593  0.9004
  931SOL    HW2 3140   3.330   0.794   0.786 -0.8117  1.9338  0.4622
  932SOL     OW 3141   1.245   3.655   2.507 -0.1717 -0.3475  0.0614
  932SOL    HW1 3142   1.225   3.737   2.552  1.2272 -0.7200  1.4446
  932SOL    HW2 3143   1.161   3.612   2.495 -0.7909  0.7434  0.3965
  933SOL     OW 3144   3.120   3.821   2.157 -0.6881  0.0282  0.3494
  933SOL    HW1 3145   3.053   3.806   2.090 -0.1462  1.7957 -0.6673
  933SOL    HW2 3146   3.079   3.884   2.217 -0.4223  0.0522  0.5058
  934SOL     OW 3147   3.965   0.305   2.158  0.1725  0.3897  0.2524
  934SOL    HW1 3148   3.981   0.375   2.094 -0.5918 -0.3909 -0.8206
  934SOL    HW2 3149   3.927   0.350   2.233 -2.3287  0.9052 -1.2228
  935SOL     OW 3150   2.514   2.343   3.893 -0.2665 -0.3507  0.1063
  935SOL    HW1 3151   2.528   2.255   3.926  0.8153 -0.1163  0.2979
  935SOL    HW2 3152   2.504   2.332   3.799 -0.6040 -0.7250  0.1834
  936SOL     OW 3153   0.711   0.431   4.142 -0.7145  0.2206  0.1883
  936SOL    HW1 3154   0.787   0.373   4.142 -0.7299  0.1998  0.3655
  936SOL    HW2 3155   0.667   0.414   4.059 -0.1488  0.7290 -0.2197
  937SOL     OW 3156   2.133   2.715   1.248  0.1419 -0.6167  0.1988
  937SOL    HW1 3157   2.207   2.775   1.237 -0.4406 -0.0068 -0.4809
  937SOL    HW2 3158   2.124   2.673   1.163 -0.1855 -0.8216  0.3345
  938SOL     OW 3159   1.353   2.378   2.621  0.4492  0.1012  0.3896
  938SOL    HW1 3160   1.299   2.452   2.650 -1.0032 -0.6552 -0.2537
  938SOL    HW2 3161   1.294   2.302   2.627  1.4229 -0.7524 -0.4402
  939SOL     OW 3162   2.927   3.929   0.653 -0.4297  0.3177  0.2020
  939SOL    HW1 3163   2.851   3.893   0.700 -1.1372  1.6985  0.1623
  939SOL    HW2 3164   2.895   4.011   0.616  0.8419  0.4692 -0.5955
  940SOL     OW 3165   1.927   0.733   3.045  0.1689 -0.5176 -0.1391
  940SOL    HW1 3166   1.872   0.731   3.123 -0.1280 -1.0407 -0.3591
  940SOL    HW2 3167   1.995   0.667   3.062 -0.0218 -0.7849 -0.4140
  941SOL     OW 3168   2.713   0.574   3.112  0.7854  0.4452 -0.0213
  941SOL    HW1 3169   2.755   0.636   3.171  0.9470 -0.8622  1.3141
  941SOL    HW2 3170   2.761   0.492   3.125 -0.9442 -0.6076  0.1691
  942SOL     OW 3171   3.418   2.439   3.565 -0.4868  0.0387 -0.4167
  942SOL    HW1 3172   3.379   2.439   3.653  0.6702  0.4566  0.1168
  942SOL    HW2 3173   3.377   2.513   3.521 -2.4538 -1.2537 -0.8986
  943SOL     OW 3174   2.660   4.345   0.402 -0.3097 -0.4361 -0.1686
  943SOL    HW1 3175   2.733   4.391   0.443 -2.1061  2.2224  0.4089
  943SOL    HW2 3176   2.598   4.331   0.473 -0.6029 -2.1735 -0.7263
  944SOL     OW 3177   3.859   0.814   4.158 -0.5830 -0.2361 -0.4510
  944SOL    HW1 3178   3.933   0.753   4.162 -1.7274 -1.6015  1.1669
  944SOL    HW2 3179   3.835   0.817   4.065 -0.1720 -1.8566 -0.6404
  945SOL     OW 3180   0.033   0.255   2.496 -0.2561 -0.4130  0.0627
  945SOL    HW1 3181  -0.053   0.233   2.462  0.4334 -0.0560 -2.0471
  945SOL    HW2 3182   0.068   0.172   2.528 -1.2049 -0.6235  0.6035
  946SOL     OW 3183   2.773   3.327   3.038  0.4889 -0.3144  0.4722
  946SOL    HW1 3184   2.774   3.360   2.948  0.2477 -0.1813  0.5178
  946SOL    HW2 3185   2.687   3.353   3.072 -0.3632 -2.3628  0.0120
  947SOL     OW 3186   2.322   4.333   0.653  0.4028  0.4567  0.0146
  947SOL    HW1 3187   2.321   4.278   0.575  1.1425  0.8042 -0.2450
  947SOL    HW2 3188   2.309   4.422   0.620 -0.0611  0.5231  0.3651
  948SOL     OW 3189   4.304   1.878   2.095 -0.2034  0.5198  0.3727
  948SOL    HW1 3190   4.318   1.836   2.180 -0.8332  0.1415  0.3038
  948SOL    HW2 3191   4.287   1.970   2.116  0.5437  0.6132  0.5798
  949SOL     OW 3192   1.207   3.953   1.288 -0.3036 -0.3650 -0.3711
  949SOL    HW1 3193   1.211   4.031   1.343  1.7110  0.3628 -1.4450
  949SOL    HW2 3194   1.195   3.987   1.199  0.6980 -1.2493 -0.8679
  950SOL     OW 3195   1.967   0.480   1.178  0.1495  0.3640  0.0052
  950SOL    HW1 3196   1.970   0.552   1.241  1.0770  0.2312  0.1221
  950SOL    HW2 3197   1.950   0.523   1.094  2.6619  0.9871 -0.2689
  951SOL     OW 3198   4.331   2.802   2.666 -0.0087  0.3158 -0.2054
  951SOL    HW1 3199   4.249   2.781   2.622  0.3681  0.5657 -1.0454
  951SOL    HW2 3200   4.306   2.861   2.737 -0.8136 -1.2357  0.8791
  952SOL     OW 3201   1.712   3.793   0.758 -0.1018 -0.2442 -0.3210
  952SOL    HW1 3202   1.753   3.720   0.712 -0.7509 -0.4944 -0.5164
  952SOL    HW2 3203   1.710   3.864   0.694 -1.1914 -0.6547 -0.7759
  953SOL     OW 3204   3.603   1.864   2.722  0.6504 -0.2167 -0.2793
  953SOL    HW1 3205   3.667   1.835   2.657  0.3307  0.3628 -0.8632
  953SOL    HW2 3206   3.638   1.947   2.756  0.1601  0.1641 -0.6867
  954SOL     OW 3207   3.128   0.350   1.440 -0.3854 -0.2198  0.0227
  954SOL    HW1 3208   3.109   0.283   1.506 -0.8405  0.4007  0.5332
  954SOL    HW2 3209   3.116   0.306   1.356 -0.2282 -0.8992  0.3497
  955SOL     OW 3210   2.540   1.693   1.393 -0.0933  0.2421  0.3038
  955SOL    HW1 3211   2.467   1.635   1.371 -0.7130  1.2386 -0.3289
  955SOL    HW2 3212   2.498   1.770   1.431  0.7405  0.1552  1.4221
  956SOL     OW 3213   3.967   3.486   1.121 -0.1451 -0.5640  0.6193
  956SOL    HW1 3214   3.962   3.559   1.184 -1.5535 -0.0191 -0.0818
  956SOL    HW2 3215   3.990   3.528   1.038 -1.5549 -0.8065  0.0821
  957SOL     OW 3216   3.409   0.473   0.205  0.3898 -0.3679  0.0727
  957SOL    HW1 3217   3.459   0.496   0.127  0.7097  0.6691  0.5585
  957SOL    HW2 3218   3.475   0.459   0.273  0.0787 -0.2022  0.4150
  958SOL     OW 3219   4.238   0.553   0.709 -0.3413 -0.1650  0.1484
  958SOL    HW1 3220   4.248   0.644   0.738 -0.1678 -0.6730  1.7885
  958SOL    HW2 3221   4.214   0.560   0.617  0.9898  1.5094 -0.1399
  959SOL     OW 3222   2.343   0.783   1.182  0.3738  0.0942 -0.6677
  959SOL    HW1 3223   2.291   0.864   1.187 -0.1694 -0.2069 -1.3264
  959SOL    HW2 3224   2.389   0.780   1.266 -2.8594 -1.0903  1.2815
  960SOL     OW 3225   1.124   1.131   2.768 -0.5283 -0.6523 -0.0471
  960SOL    HW1 3226   1.192   1.194   2.795 -1.2345 -0.2752  0.9499
  960SOL    HW2 3227   1.159   1.046   2.792 -0.1100 -0.5208 -0.1886
  961SOL     OW 3228   0.984   0.326   0.221 -0.2634 -0.1181 -0.4775
  961SOL    HW1 3229   0.959   0.270   0.148 -0.2992 -2.6776  1.3543
  961SOL    HW2 3230   1.073   0.354   0.201  0.0443 -1.4962 -1.1011
  962SOL     OW 3231   0.045   0.655   1.658  0.0353 -1.0507 -0.2203
  962SOL    HW1 3232   0.061   0.586   1.593 -0.6572  0.3514 -1.9476
  962SOL    HW2 3233  -0.049   0.652   1.674 -0.0662 -0.2344 -0.6351
  963SOL     OW 3234   2.034   3.529   3.117  0.1636  0.9234  0.4256
  963SOL    HW1 3235   2.001   3.619   3.125  0.7540  1.2999 -1.0544
  963SOL    HW2 3236   1.967   3.484   3.065  0.5438  0.9077 -0.0642
  964SOL     OW 3237   3.805   3.841   2.330 -0.0829 -0.1404 -0.3179
  964SOL    HW1 3238   3.733   3.891   2.290  0.2942  0.2399 -0.5344
  964SOL    HW2 3239   3.790   3.751   2.303 -0.9978 -0.2244  0.3949
  965SOL     OW 3240   2.555   0.257   2.427 -0.3791 -0.2469 -0.1994
  965SOL    HW1 3241   2.480   0.251   2.486 -1.2560 -2.4044 -1.4192
  965SOL    HW2 3242   2.530   0.205   2.351  1.7591  0.2475 -1.3243
  966SOL     OW 3243   1.184   1.189   0.635 -0.1068 -0.0902 -0.2756
  966SOL    HW1 3244   1.204   1.259   0.697 -0.1152 -0.4559  0.1471
  966SOL    HW2 3245   1.258   1.128   0.643  0.4838  0.4380 -1.4932
  967SOL     OW 3246   2.143   0.704   2.423  0.3572  0.1917 -0.1674
  967SOL    HW1 3247   2.133   0.630   2.363 -2.0912  0.4381 -0.1419
  967SOL    HW2 3248   2.095   0.679   2.501 -0.1484  1.6297  0.0068
  968SOL     OW 3249   0.122   1.271   1.614 -0.4589  0.1181  0.0575
  968SOL    HW1 3250   0.117   1.178   1.638  0.8822  0.3235  1.2635
  968SOL    HW2 3251   0.066   1.315   1.679 -0.1453  0.2664  0.2273
  969SOL     OW 3252   1.236   1.950   0.824  0.1509  0.2772  0.3382
  969SOL    HW1 3253   1.186   2.031   0.813  1.0232  0.7884  0.0619
  969SOL    HW2 3254   1.244   1.940   0.919 -1.4985 -0.4673  0.4287
  970SOL     OW 3255   3.761   0.212   1.481 -0.3711  0.0637  0.2167
  970SOL    HW1 3256   3.717   0.150   1.422  0.1337  1.0480 -1.2250
  970SOL    HW2 3257   3.767   0.164   1.564 -0.1575 -1.7604 -0.7961
  971SOL     OW 3258   2.767   1.912   0.637 -0.3666  0.4109 -0.1399
  971SOL    HW1 3259   2.751   1.934   0.729  0.9383  0.0393  0.1955
  971SOL    HW2 3260   2.711   1.836   0.620  0.3684 -0.3535  0.7502
  972SOL     OW 3261   1.469   0.285   2.210 -0.3791  0.3656  0.2725
  972SOL    HW1 3262   1.444   0.333   2.131 -0.8073 -1.9666 -1.0961
  972SOL    HW2 3263   1.386   0.251   2.245 -0.2880  1.9085  2.1915
  973SOL     OW 3264   0.984   0.852   2.180  0.3718  0.3272  0.5165
  973SOL    HW1 3265   0.962   0.893   2.264 -0.4779  1.4458 -0.2256
  973SOL    HW2 3266   1.013   0.924   2.125 -0.8183 -0.1054 -0.7234
  974SOL     OW 3267   1.784   2.310   2.200 -0.0561 -0.6584  0.0972
  974SOL    HW1 3268   1.858   2.254   2.176  1.1015  0.8396 -0.0332
  974SOL    HW2 3269   1.735   2.321   2.119 -0.3239 -1.5045  0.1365
  975SOL     OW 3270   2.391   2.467   4.201 -0.5269 -0.1152  0.0423
  975SOL    HW1 3271   2.434   2.406   4.140 -0.4292 -0.3954  0.3905
  975SOL    HW2 3272   2.362   2.412   4.274 -1.5994  0.0369 -0.2427
  976SOL     OW 3273   1.645   0.228   2.736  0.1110 -0.6665  0.3699
  976SOL    HW1 3274   1.562   0.242   2.781  0.0284  0.8083 -0.1741
  976SOL    HW2 3275   1.690   0.162   2.788 -0.6820 -0.2394  1.6523
  977SOL     OW 3276   0.530   4.348   0.638  0.3958 -0.1068  0.2498
  977SOL    HW1 3277   0.538   4.259   0.671  1.3365 -0.5859 -1.1657
  977SOL    HW2 3278   0.616   4.368   0.601 -0.5403  0.3786 -1.8171
  978SOL     OW 3279   2.731   0.573   2.778 -0.0958 -0.1678  0.3385
  978SOL    HW1 3280   2.729   0.555   2.872 -0.8847 -0.0213  0.3585
  978SOL    HW2 3281   2.741   0.488   2.737  0.9017 -0.1688  0.5734
  979SOL     OW 3282   0.786   3.254   3.978  0.3146  0.0012  0.1795
  979SOL    HW1 3283   0.864   3.289   4.021  1.9393 -1.7167 -1.1772
  979SOL    HW2 3284   0.812   3.165   3.951 -1.7528 -0.2259 -1.2583
  980SOL     OW 3285   1.691   2.306   0.348 -0.3928 -0.0718 -0.0091
  980SOL    HW1 3286   1.684   2.217   0.382 -0.6498  1.0638  3.2092
  980SOL    HW2 3287   1.646   2.302   0.263  0.0052 -3.0529 -0.1953
  981SOL     OW 3288   0.226   0.915   0.072 -0.0727 -0.5170  0.4670
  981SOL    HW1 3289   0.214   0.959   0.156 -1.6138  1.7333 -0.8072
  981SOL    HW2 3290   0.290   0.969   0.026 -0.6601 -0.6082 -0.4848
  982SOL     OW 3291   3.040   0.687   3.284 -0.2462 -0.1866  0.0962
  982SOL    HW1 3292   3.104   0.740   3.237 -0.6413  0.6985  0.5243
  982SOL    HW2 3293   3.035   0.605   3.234  1.1907 -0.2730  0.0472
  983SOL     OW 3294   2.409   0.846   2.268  0.6125  0.1929 -0.3396
  983SOL    HW1 3295   2.349   0.884   2.333  0.3679 -1.1457  0.2440
  983SOL    HW2 3296   2.368   0.867   2.184 -0.4947 -0.3722  0.0352
  984SOL     OW 3297   3.812   1.709   3.129 -0.0540  0.0578  0.5791
  984SOL    HW1 3298   3.758   1.682   3.203 -1.1390  0.2273 -0.1192
  984SOL    HW2 3299   3.803   1.804   3.125 -1.0878 -0.0665 -0.5466
  985SOL     OW 3300   3.187   1.819   2.107  0.0387 -0.8699 -0.2472
  985SOL    HW1 3301   3.146   1.888   2.159  0.2666 -0.9204  0.0046
  985SOL    HW2 3302   3.206   1.860   2.022  0.4639 -0.5274  0.0098
  986SOL     OW 3303   2.865   2.413   3.627 -0.2590 -0.1215  0.6594
  986SOL    HW1 3304   2.885   2.342   3.689 -1.5168  0.6723  2.0390
  986SOL    HW2 3305   2.913   2.488   3.660 -1.3530  0.4459  1.0058
  987SOL     OW 3306   3.870   1.510   1.895  0.2969  0.0643  0.1902
  987SOL    HW1 3307   3.801   1.568   1.927 -0.7594 -1.3117  0.5516
  987SOL    HW2 3308   3.931   1.502   1.969 -0.5567 -0.7509  0.8300
  988SOL     OW 3309   3.877   1.940   1.085  0.3147  0.4846  0.2343
  988SOL    HW1 3310   3.851   2.025   1.119  1.0113  0.4720  0.8322
  988SOL    HW2 3311   3.934   1.960   1.011 -2.8962  0.5375 -2.4928
  989SOL     OW 3312   0.258   3.545   1.326  0.1727  0.2850 -0.1534
  989SOL    HW1 3313   0.329   3.493   1.362  1.4661  0.1722 -2.6515
  989SOL    HW2 3314   0.233   3.604   1.397  2.0100 -0.3995  1.1431
  990SOL     OW 3315   3.985   0.545   3.822  0.1588  0.3664  0.0548
  990SOL    HW1 3316   3.992   0.513   3.912  0.4953  0.5048  0.0816
  990SOL    HW2 3317   3.927   0.621   3.827 -1.2887 -0.6925 -0.1323
  991SOL     OW 3318   0.203   0.177   4.002  0.1308 -0.0914  0.3769
  991SOL    HW1 3319   0.252   0.104   4.040 -0.0386  0.4783  1.7486
  991SOL    HW2 3320   0.114   0.144   3.992  0.6498 -1.0240 -1.8227
  992SOL     OW 3321   2.886   1.895   2.626 -0.5859 -0.3310  0.2853
  992SOL    HW1 3322   2.826   1.902   2.700 -1.4898  2.2247 -0.5910
  992SOL    HW2 3323   2.954   1.960   2.644 -0.3028 -0.3349 -0.7025
  993SOL     OW 3324   2.746   1.852   2.055 -0.0173 -0.0491  0.0407
  993SOL    HW1 3325   2.656   1.836   2.086  0.7746 -2.8550  1.1473
  993SOL    HW2 3326   2.796   1.868   2.135  1.2877 -3.2969  0.0150
  994SOL     OW 3327   3.686   1.838   0.440 -0.2482  0.0857 -0.2045
  994SOL    HW1 3328   3.630   1.883   0.377 -0.0390  2.1834  0.9919
  994SOL    HW2 3329   3.674   1.888   0.521  1.0037 -1.3058  0.8780
  995SOL     OW 3330   1.280   0.247   4.300 -0.4830  0.2901  0.3166
  995SOL    HW1 3331   1.307   0.155   4.292  0.1285  0.4957 -0.1449
  995SOL    HW2 3332   1.190   0.249   4.267  0.1300  0.1560 -1.5000
  996SOL     OW 3333   2.312   0.460   2.580 -0.0284  0.3745  0.8427
  996SOL    HW1 3334   2.224   0.463   2.617  0.0766 -1.0506  1.2686
  996SOL    HW2 3335   2.366   0.512   2.639 -0.2694 -0.1610  1.5422
  997SOL     OW 3336   3.485   1.018   4.367 -0.0273 -0.2674  0.1295
  997SOL    HW1 3337   3.569   0.990   4.331 -0.6874 -1.2653 -0.6877
  997SOL    HW2 3338   3.499   1.109   4.395  1.1758 -0.2679 -0.4361
  998SOL     OW 3339   2.090   2.487   2.632 -0.1400  0.5018  0.3158
  998SOL    HW1 3340   2.159   2.546   2.602  0.0728  0.0249 -0.1373
  998SOL    HW2 3341   2.068   2.434   2.555 -0.6471  0.2939  0.5959
  999SOL     OW 3342   1.859   2.548   3.927  0.0732 -0.3803 -0.0624
  999SOL    HW1 3343   1.868   2.581   4.016 -0.7286 -1.0043  0.2539
  999SOL    HW2 3344   1.872   2.626   3.872 -1.4073  0.4284  0.6585
 1000SOL     OW 3345   2.191   0.557   4.140  0.2913  0.2409 -0.2053
 1000SOL    HW1 3346   2.203   0.636   4.087 -0.2334  0.6998  0.3395
 1000SOL    HW2 3347   2.118   0.578   4.198  1.2552 -0.0021  1.1500
 1001SOL     OW 3348   3.662   1.920   1.772  0.6912 -0.6515  0.0212
 1001SOL    HW1 3349   3.705   1.933   1.687  0.1928  1.3057  0.0171
 1001SOL    HW2 3350   3.712   1.975   1.833 -1.6917  1.7270  0.0150
 1002SOL     OW 3351   1.020   3.707   0.315 -0.1616 -0.1890  0.4364
 1002SOL    HW1 3352   0.934   3.676   0.289 -0.4765  0.5875  0.5254
 1002SOL    HW2 3353   1.044   3.652   0.390 -0.0987 -1.1195 -0.2492
 1003SOL     OW 3354   3.508   1.740   1.035  0.0223 -0.3647 -0.1909
 1003SOL    HW1 3355   3.547   1.669   0.984  1.1495  0.1916 -0.1349
 1003SOL    HW2 3356   3.470   1.799   0.970 -1.7775 -1.4777 -0.1977
 1004SOL     OW 3357   2.672   4.085   1.681  0.4928  0.4099  0.0933
 1004SOL    HW1 3358   2.733   4.029   1.632  0.4309  0.7573 -0.3836
 1004SOL    HW2 3359   2.600   4.101   1.621  1.0598  1.9886 -0.2238
 1005SOL     OW 3360   1.555   0.394   4.096  0.1395  0.2332 -0.3397
 1005SOL    HW1 3361   1.600   0.314   4.123 -1.2731 -1.0365 -1.5956
 1005SOL    HW2 3362   1.587   0.411   4.008 -0.3453  0.4491 -0.4777
 1006SOL     OW 3363   0.153   1.890   2.558 -0.0719  0.6559 -0.6085
 1006SOL    HW1 3364   0.151   1.821   2.623  0.8331  2.2299  1.1858
 1006SOL    HW2 3365   0.064   1.927   2.558  0.5572  2.4170  1.8476
 1007SOL     OW 3366   2.891   2.900   2.748 -0.1777 -0.8149  0.2808
 1007SOL    HW1 3367   2.964   2.858   2.793 -0.4572 -0.7078  0.8384
 1007SOL    HW2 3368   2.871   2.978   2.800 -1.3124 -1.3553  0.6759
 1008SOL     OW 3369   2.230   1.034   1.209  0.3436  0.3250 -0.0246
 1008SOL    HW1 3370   2.160   1.030   1.143 -0.4431 -0.1010  0.8230
 1008SOL    HW2 3371   2.201   1.101   1.271  1.0194  0.6310 -0.0299
 1009SOL     OW 3372   3.401   2.794   0.887  0.6832 -0.1478  0.0218
 1009SOL    HW1 3373   3.405   2.850   0.964  1.8670 -0.1913  0.0177
 1009SOL    HW2 3374   3.323   2.821   0.840 -0.1465 -0.2278  1.3182
 1010SOL     OW 3375   1.698   3.864   1.301 -0.1678  0.1086  1.2277
 1010SOL    HW1 3376   1.765   3.879   1.368  0.6122 -1.0461  0.7347
 1010SOL    HW2 3377   1.644   3.794   1.337 -1.4289  1.3357  1.8218
 1011SOL     OW 3378   0.716   0.748   3.951 -0.5105  0.4610 -0.7719
 1011SOL    HW1 3379   0.633   0.784   3.982  0.1782  2.1849 -0.8444
 1011SOL    HW2 3380   0.709   0.654   3.969 -1.7046  0.8253  0.9953
 1012SOL     OW 3381   1.240   1.121   2.022 -0.0234 -0.3167 -0.0507
 1012SOL    HW1 3382   1.155   1.137   2.062 -0.4305  0.1381 -1.0710
 1012SOL    HW2 3383   1.220   1.067   1.946  0.4409  0.8276 -1.0090
 1013SOL     OW 3384   4.128   2.659   2.954 -0.0838 -0.1174 -0.1263
 1013SOL    HW1 3385   4.156   2.596   3.021 -0.4357  0.4143  0.5297
 1013SOL    HW2 3386   4.123   2.607   2.873  2.0348 -0.4159 -0.1372
 1014SOL     OW 3387   1.400   2.549   3.663 -0.4207  0.5395  0.5439
 1014SOL    HW1 3388   1.387   2.515   3.574  0.8213  0.3739  0.4061
 1014SOL    HW2 3389   1.349   2.489   3.718 -0.5500  0.1568  0.0277
 1015SOL     OW 3390   1.402   3.010   4.024  0.0455 -0.2470  0.2200
 1015SOL    HW1 3391   1.394   3.084   3.964  0.2265  1.8143  2.5607
 1015SOL    HW2 3392   1.496   2.990   4.024  0.0891 -0.0499  0.0594
 1016SOL     OW 3393   1.812   0.931   1.576  0.2010  0.0990  0.0904
 1016SOL    HW1 3394   1.772   0.976   1.501 -0.4103  0.5450  0.6717
 1016SOL    HW2 3395   1.848   1.002   1.630  1.8877 -0.2937 -0.4598
 1017SOL     OW 3396   0.626   3.229   3.706 -0.2181 -0.2199 -0.3595
 1017SOL    HW1 3397   0.680   3.221   3.785  1.2456 -2.4797 -1.4854
 1017SOL    HW2 3398   0.561   3.160   3.715 -0.1950 -0.3303 -1.0098
 1018SOL     OW 3399   3.854   4.235   3.465  0.6023  0.7380 -0.0064
 1018SOL    HW1 3400   3.914   4.160   3.461 -0.2587  0.0510 -2.4568
 1018SOL    HW2 3401   3.842   4.252   3.558  2.8460 -0.5001  0.5803
 1019SOL     OW 3402   0.975   2.684   0.036  0.0647  0.1230  0.1662
 1019SOL    HW1 3403   1.021   2.728  -0.035  0.4552  0.5622  0.6799
 1019SOL    HW2 3404   1.044   2.661   0.099 -0.2022 -0.7705  0.1443
 1020SOL     OW 3405   3.558   3.243   0.078 -0.0809  0.0542  0.1888
 1020SOL    HW1 3406   3.521   3.303   0.144 -0.1739 -1.2533  1.3877
 1020SOL    HW2 3407   3.501   3.254   0.002 -1.8211 -0.4727  1.3279
 1021SOL     OW 3408   3.314   4.065   4.225 -0.2508  0.2012  0.0312
 1021SOL    HW1 3409   3.296   3.991   4.283 -1.0010 -0.2338 -0.7399
 1021SOL    HW2 3410   3.234   4.117   4.227  0.2444  0.9683  0.5062
 1022SOL     OW 3411   4.067   3.705   2.287 -0.3313 -0.1580  0.3159
 1022SOL    HW1 3412   4.142   3.764   2.290 -0.4869  0.0831 -0.3778
 1022SOL    HW2 3413   3.991   3.762   2.276 -0.4156 -0.5179 -1.0542
 1023SOL     OW 3414   3.471   2.881   2.572 -0.0433  0.9405  0.1494
 1023SOL    HW1 3415   3.511   2.885   2.658  0.5100 -0.9592  0.0256
 1023SOL    HW2 3416   3.399   2.819   2.582 -1.0752  2.0013 -0.3712
 1024SOL     OW 3417   3.540   1.280   0.019  0.8250  0.0667 -0.8052
 1024SOL    HW1 3418   3.609   1.336  -0.016  2.4315 -0.4512  1.3431
 1024SOL    HW2 3419   3.460   1.332   0.012  1.7723  1.4770 -1.4612
 1025SOL     OW 3420   0.153   2.227   0.116 -0.1454  0.9477 -0.5929
 1025SOL    HW1 3421   0.131   2.200   0.205  2.0599  0.3049 -0.1632
 1025SOL    HW2 3422   0.167   2.322   0.122 -0.1400  0.9267 -0.2758
 1026SOL     OW 3423   0.457   4.136   2.800 -0.2424 -0.2583  0.0968
 1026SOL    HW1 3424   0.426   4.071   2.863 -0.4664 -0.3443 -0.1038
 1026SOL    HW2 3425   0.533   4.176   2.843 -0.3206 -0.4020  0.3698
 1027SOL     OW 3426   2.789   3.091   1.543 -0.0016 -0.1175  0.4173
 1027SOL    HW1 3427   2.765   3.017   1.599 -1.3710 -1.4359 -1.7796
 1027SOL    HW2 3428   2.878   3.072   1.514  0.0313 -0.3478  0.6657
 1028SOL     OW 3429   3.187   3.209   0.839  0.0476  0.1778 -0.0045
 1028SOL    HW1 3430   3.189   3.284   0.898 -1.5503  0.4744 -0.2912
 1028SOL    HW2 3431   3.199   3.247   0.752  2.8360 -0.3004  0.0831
 1029SOL     OW 3432   3.677   1.148   1.097  0.3827 -0.4266  0.2135
 1029SOL    HW1 3433   3.707   1.058   1.082  0.7917 -0.1661 -0.6423
 1029SOL    HW2 3434   3.737   1.182   1.163  0.1550 -0.8145  0.6242
 1030SOL     OW 3435   2.328   1.891   2.462 -0.4086 -0.6223 -0.3804
 1030SOL    HW1 3436   2.385   1.927   2.530  1.0776 -0.6870 -1.5375
 1030SOL    HW2 3437   2.359   1.802   2.449 -0.2702 -0.4240 -1.5285
 1031SOL     OW 3438   3.907   4.032   2.510  0.1101  0.0404 -0.3994
 1031SOL    HW1 3439   3.854   3.979   2.450 -0.5317 -0.4943  0.5991
 1031SOL    HW2 3440   3.885   3.998   2.597  0.3264  1.4075  0.2109
 1032SOL     OW 3441   1.307   1.332   2.810 -0.2052  0.0159 -0.1711
 1032SOL    HW1 3442   1.342   1.348   2.898  0.8928  0.4615 -0.6757
 1032SOL    HW2 3443   1.361   1.386   2.752 -0.7313 -0.4916 -1.1565
 1033SOL     OW 3444   4.281   3.537   3.230 -0.5698 -0.5026  0.1126
 1033SOL    HW1 3445   4.339   3.599   3.186 -1.2297  0.3536  0.4153
 1033SOL    HW2 3446   4.217   3.592   3.275 -1.1932 -1.4097  0.3627
 1034SOL     OW 3447   3.609   2.310   0.877 -0.2399  0.7381 -0.0810
 1034SOL    HW1 3448   3.573   2.262   0.951 -0.7780 -1.4415 -1.6392
 1034SOL    HW2 3449   3.534   2.359   0.842 -0.7158 -0.4180 -0.7653
 1035SOL     OW 3450   4.019   1.802   1.990  0.2932 -0.2430  1.0170
 1035SOL    HW1 3451   4.113   1.812   2.005  0.2220 -0.9852  1.9853
 1035SOL    HW2 3452   3.979   1.869   2.045  0.2921  1.1687 -0.6017
 1036SOL     OW 3453   3.787   3.895   0.088 -0.5328 -0.0562 -0.0464
 1036SOL    HW1 3454   3.857   3.832   0.105  1.2308  1.0976 -2.4724
 1036SOL    HW2 3455   3.785   3.949   0.167  1.5280 -0.0087  0.0514
 1037SOL     OW 3456   0.526   3.302   4.020 -0.3589 -0.7296  0.0651
 1037SOL    HW1 3457   0.487   3.296   4.108 -1.2104  1.4299 -0.0968
 1037SOL    HW2 3458   0.620   3.298   4.035 -0.3801  1.6583  1.3962
 1038SOL     OW 3459   3.011   0.221   1.939  0.4986 -0.5431 -0.7773
 1038SOL    HW1 3460   3.000   0.126   1.939 -1.7211 -0.3479  0.8615
 1038SOL    HW2 3461   3.081   0.236   2.003  0.6444 -1.0413 -0.8115
 1039SOL     OW 3462   2.985   0.763   4.240 -0.0554 -0.5409 -0.1190
 1039SOL    HW1 3463   2.922   0.790   4.173  0.1681  0.2965 -0.0062
 1039SOL    HW2 3464   2.951   0.680   4.273  0.6337 -1.7719 -2.3213
 1040SOL     OW 3465   2.343   2.379   1.003  0.2766  0.5155 -0.3062
 1040SOL    HW1 3466   2.436   2.364   1.022 -0.1585 -2.3511 -0.0801
 1040SOL    HW2 3467   2.309   2.423   1.081  1.2322  0.7363  0.0004
 1041SOL     OW 3468   0.686   2.687   3.983 -0.4257 -0.7791 -0.0734
 1041SOL    HW1 3469   0.673   2.746   3.909 -1.9274  3.1179  2.9196
 1041SOL    HW2 3470   0.763   2.721   4.028  0.3597 -2.9464  0.3430
 1042SOL     OW 3471   1.539   4.064   1.387 -0.7596 -0.1136  0.1006
 1042SOL    HW1 3472   1.579   4.002   1.326  0.7608  2.3131 -1.5075
 1042SOL    HW2 3473   1.535   4.016   1.470  4.2694 -1.1407  0.0642
 1043SOL     OW 3474   2.350   2.099   3.269  0.2420  0.3572  0.1202
 1043SOL    HW1 3475   2.270   2.149   3.253  0.9430  1.7063  0.6820
 1043SOL    HW2 3476   2.420   2.152   3.230  1.0435 -0.0328  0.9939
 1044SOL     OW 3477   4.210   0.692   2.619  0.4093 -0.3202  0.4224
 1044SOL    HW1 3478   4.148   0.688   2.546  1.6496 -1.3114 -0.6087
 1044SOL    HW2 3479   4.242   0.602   2.629  1.2005  0.0483  1.3516
 1045SOL     OW 3480   1.209   0.257   2.318  0.2443  0.6438 -0.1769
 1045SOL    HW1 3481   1.208   0.166   2.347  1.6235  0.1388 -1.5793
 1045SOL    HW2 3482   1.126   0.293   2.350 -0.6112 -1.2594 -0.1093
 1046SOL     OW 3483   1.709   3.929   1.019 -1.0227 -0.5178 -0.2239
 1046SOL    HW1 3484   1.710   3.869   0.945  2.8623 -0.4216 -0.4483
 1046SOL    HW2 3485   1.701   3.873   1.096 -3.0562 -0.7697 -0.5656
 1047SOL     OW 3486   1.290   0.293   1.445 -0.4585 -0.0924 -0.1332
 1047SOL    HW1 3487   1.264   0.204   1.468  3.1962 -1.0781  0.7796
 1047SOL    HW2 3488   1.288   0.341   1.528 -1.5953  0.4936 -0.4781
 1048SOL     OW 3489   4.104   0.954   1.702 -0.3554 -0.6725  0.8115
 1048SOL    HW1 3490   4.046   0.878   1.703 -1.0762 -0.1771 -0.7575
 1048SOL    HW2 3491   4.066   1.015   1.766 -1.7021 -0.2776 -0.3343
 1049SOL     OW 3492   2.851   2.915   3.813  0.0710  0.2639  0.0206
 1049SOL    HW1 3493   2.766   2.955   3.833 -1.0425 -1.4197 -1.0662
 1049SOL    HW2 3494   2.829   2.828   3.781  2.1793  0.1007 -1.1292
 1050SOL     OW 3495   4.255   1.703   2.591  0.1050 -0.4816 -0.2342
 1050SOL    HW1 3496   4.327   1.687   2.652 -0.2623  1.4964  0.8147
 1050SOL    HW2 3497   4.179   1.659   2.631  0.0871 -0.0418  0.2220
 1051SOL     OW 3498   2.011   3.292   1.121  0.3581  0.2331 -0.1940
 1051SOL    HW1 3499   2.072   3.349   1.168  0.1879 -0.3599  0.7913
 1051SOL    HW2 3500   2.049   3.204   1.130 -0.6775 -0.1600  0.5166
 1052SOL     OW 3501   0.391   3.936   0.386 -0.0734  0.0438 -0.3460
 1052SOL    HW1 3502   0.467   3.879   0.377 -0.0569  0.1239 -0.7377
 1052SOL    HW2 3503   0.383   3.951   0.480 -0.7961 -1.5632 -0.1158
 1053SOL     OW 3504   0.466   2.516   1.619 -0.4728 -0.4404  0.1721
 1053SOL    HW1 3505   0.425   2.515   1.706 -0.6546  0.3977  0.1009
 1053SOL    HW2 3506   0.533   2.584   1.625 -2.3021  1.5773 -1.1631
 1054SOL     OW 3507   2.601   3.363   1.183  0.0779  0.0707  0.2624
 1054SOL    HW1 3508   2.621   3.438   1.128 -0.8260 -0.2562 -0.5314
 1054SOL    HW2 3509   2.681   3.310   1.181  0.4861  0.6701  0.2915
 1055SOL     OW 3510   3.121   3.396   3.694  0.1942 -0.2491  0.1405
 1055SOL    HW1 3511   3.122   3.308   3.655  2.5740  0.5594 -1.8467
 1055SOL    HW2 3512   3.175   3.388   3.773 -0.3519 -0.7352  0.4781
 1056SOL     OW 3513   2.972   0.979   0.645  0.4414 -0.3962 -0.1494
 1056SOL    HW1 3514   3.006   0.978   0.555  3.1156  1.3743  0.7267
 1056SOL    HW2 3515   2.890   1.029   0.639  0.8339  0.1349 -1.5186
 1057SOL     OW 3516   2.602   3.058   1.906 -0.3627 -0.6904  0.5119
 1057SOL    HW1 3517   2.690   3.069   1.942  0.3753 -0.2355 -1.3176
 1057SOL    HW2 3518   2.544   3.092   1.975  1.1399  2.9741  0.2331
 1058SOL     OW 3519   2.255   3.383   1.370 -0.2313 -0.2778 -0.5344
 1058SOL    HW1 3520   2.323   3.434   1.414 -0.9934  0.3566 -0.0496
 1058SOL    HW2 3521   2.256   3.415   1.280 -1.0925  1.0843 -0.1100
 1059SOL     OW 3522   3.267   1.019   3.831 -0.3256 -0.3388  0.0332
 1059SOL    HW1 3523   3.318   1.064   3.898 -0.1130 -0.0146 -0.3384
 1059SOL    HW2 3524   3.305   0.931   3.826 -0.2486 -0.3171  0.2346
 1060SOL     OW 3525   3.279   2.333   2.282 -0.4590  0.1263  0.0245
 1060SOL    HW1 3526   3.289   2.321   2.188  0.7856 -2.2080  0.3851
 1060SOL    HW2 3527   3.341   2.402   2.305 -1.9371  1.8946 -1.0377
 1061SOL     OW 3528   1.826   0.397   0.605  0.3523 -0.1632  1.0470
 1061SOL    HW1 3529   1.735   0.385   0.576  1.1334 -0.0336 -1.7635
 1061SOL    HW2 3530   1.834   0.342   0.683 -1.5657 -1.8839  0.1175
 1062SOL     OW 3531   4.173   0.719   4.148 -0.7311  0.4220  0.2648
 1062SOL    HW1 3532   4.244   0.782   4.143 -0.4025  0.0376 -0.0116
 1062SOL    HW2 3533   4.208   0.640   4.106 -0.5701 -0.4722  1.9923
 1063SOL     OW 3534   2.755   0.250   2.858  0.4848  0.2386  0.0908
 1063SOL    HW1 3535   2.750   0.284   2.769  1.5048  1.3415  0.4216
 1063SOL    HW2 3536   2.846   0.220   2.867  0.3992  0.1494  0.7478
 1064SOL     OW 3537   2.799   1.162   0.170  0.0425  0.0284  0.5724
 1064SOL    HW1 3538   2.723   1.208   0.137 -0.7426 -2.1960 -0.9844
 1064SOL    HW2 3539   2.849   1.138   0.092  1.4571 -0.0522  1.4530
 1065SOL     OW 3540   1.277   1.563   2.316 -0.0079  0.6169 -0.0033
 1065SOL    HW1 3541   1.294   1.610   2.234  1.8806  0.4721  0.2522
 1065SOL    HW2 3542   1.360   1.520   2.336 -0.8484 -0.4673  1.2848
 1066SOL     OW 3543   4.185   1.421   2.282 -0.5801 -0.3151 -0.1492
 1066SOL    HW1 3544   4.136   1.376   2.352  0.4828  1.8475  2.1078
 1066SOL    HW2 3545   4.262   1.366   2.268 -0.7392 -0.7090  0.4669
 1067SOL     OW 3546   2.301   3.517   4.231 -0.3373  0.4036  0.5411
 1067SOL    HW1 3547   2.292   3.490   4.323 -0.2149  0.6249  0.6189
 1067SOL    HW2 3548   2.273   3.441   4.181  2.2102 -0.7433  0.7243
 1068SOL     OW 3549   0.091   2.859   3.745  0.0522 -0.3203  0.5090
 1068SOL    HW1 3550  -0.003   2.864   3.727 -0.2362  0.4256  2.0137
 1068SOL    HW2 3551   0.130   2.927   3.690 -0.5510  0.6703  1.2699
 1069SOL     OW 3552   3.418   4.289   2.497 -0.5240  0.0391 -0.1840
 1069SOL    HW1 3553   3.331   4.329   2.501  0.0023  1.2585 -0.2368
 1069SOL    HW2 3554   3.434   4.275   2.404  0.2244  1.9996 -0.4219
 1070SOL     OW 3555   3.700   3.426   4.246 -0.4866  0.1323  0.0277
 1070SOL    HW1 3556   3.712   3.382   4.161  3.6831 -0.2519  0.6185
 1070SOL    HW2 3557   3.768   3.494   4.247 -0.9391  0.6349  2.7575
 1071SOL     OW 3558   3.436   3.091   3.121 -0.9482 -0.1992 -0.0023
 1071SOL    HW1 3559   3.395   3.151   3.059  1.7442  0.5053 -1.2788
 1071SOL    HW2 3560   3.478   3.147   3.186 -1.2538 -0.8466  0.7774
 1072SOL     OW 3561   1.305   1.843   2.499 -0.0910  0.2095  0.7044
 1072SOL    HW1 3562   1.373   1.837   2.566 -0.9935  0.3198  1.6610
 1072SOL    HW2 3563   1.329   1.920   2.448  0.6647  0.0744  0.8390
 1073SOL     OW 3564   0.881   0.303   0.925 -0.4894  0.4611 -0.2144
 1073SOL    HW1 3565   0.869   0.265   1.012 -2.0089  1.1707 -0.0854
 1073SOL    HW2 3566   0.884   0.227   0.867  0.2056 -0.0064  0.4179
 1074SOL     OW 3567   2.940   2.896   0.324  0.3447 -0.2574  0.0333
 1074SOL    HW1 3568   2.933   2.948   0.244 -0.4990 -1.3090 -0.6114
 1074SOL    HW2 3569   2.849   2.877   0.348  0.5757 -3.1236 -0.9419
 1075SOL     OW 3570   2.951   2.378   0.942 -0.7728 -0.4238  0.3648
 1075SOL    HW1 3571   2.975   2.357   0.852  0.5197 -3.4993  1.3233
 1075SOL    HW2 3572   3.007   2.453   0.964  2.2691 -2.3643 -0.0879
 1076SOL     OW 3573   3.318   2.018   2.985  0.0648 -0.3514  0.5547
 1076SOL    HW1 3574   3.225   2.016   2.965  0.3277 -0.8548 -0.7090
 1076SOL    HW2 3575   3.349   1.929   2.970  0.9839  0.0894 -0.2986
 1077SOL     OW 3576   1.576   0.042   1.244  0.4598  0.3574  0.5789
 1077SOL    HW1 3577   1.531  -0.029   1.199 -0.9229  1.7828 -0.4146
 1077SOL    HW2 3578   1.663   0.046   1.203 -0.1403  0.4599 -0.7464
 1078SOL     OW 3579   0.335   1.827   2.238 -0.2312 -0.4150 -0.2429
 1078SOL    HW1 3580   0.283   1.908   2.236  0.3275 -0.0490 -0.2386
 1078SOL    HW2 3581   0.278   1.763   2.280 -0.4689  0.1314  0.2791
 1079SOL     OW 3582   0.821   3.498   2.293 -0.8439 -0.4683 -0.0714
 1079SOL    HW1 3583   0.821   3.511   2.198 -2.2880 -0.6553 -0.1252
 1079SOL    HW2 3584   0.894   3.552   2.325 -0.3193 -0.4347 -1.2819
 1080SOL     OW 3585   3.270   2.464   4.069 -0.6629 -0.2748 -0.1692
 1080SOL    HW1 3586   3.360   2.450   4.098 -0.4231 -1.5629 -1.4018
 1080SOL    HW2 3587   3.229   2.514   4.140  0.5540 -1.1281  1.1922
 1081SOL     OW 3588   2.455   3.791   3.132 -0.1829  0.3472 -0.1108
 1081SOL    HW1 3589   2.426   3.842   3.056  0.5655 -0.3443 -0.8808
 1081SOL    HW2 3590   2.398   3.715   3.134  2.0587 -1.5580 -2.2516
 1082SOL     OW 3591   3.441   3.261   4.210 -0.3956  0.5245  0.1371
 1082SOL    HW1 3592   3.510   3.263   4.144  0.7690 -1.6269  1.1862
 1082SOL    HW2 3593   3.379   3.328   4.182  0.6823  0.5617 -2.3981
 1083SOL     OW 3594   0.300   2.947   2.776 -0.6680 -0.9219 -0.8982
 1083SOL    HW1 3595   0.284   2.997   2.695  0.1866 -2.7855 -2.2985
 1083SOL    HW2 3596   0.258   2.862   2.760 -1.2510 -1.0465  1.0175
 1084SOL     OW 3597   2.543   1.965   0.854  0.2686  0.2657 -0.2329
 1084SOL    HW1 3598   2.532   1.879   0.814  0.7629  0.5380 -0.9759
 1084SOL    HW2 3599   2.458   2.007   0.843 -0.3801 -0.5704  1.2709
 1085SOL     OW 3600   4.174   3.666   2.692 -0.4827  0.1178 -0.5219
 1085SOL    HW1 3601   4.175   3.677   2.787 -0.2122 -0.1548 -0.4940
 1085SOL    HW2 3602   4.251   3.714   2.661 -0.4954  0.0936 -0.5910
 1086SOL     OW 3603   3.731   2.446   0.516 -0.3489 -0.2963  0.4679
 1086SOL    HW1 3604   3.746   2.361   0.475  0.5559 -0.2865  0.7619
 1086SOL    HW2 3605   3.637   2.462   0.504 -0.2497 -0.6273 -0.9268
 1087SOL     OW 3606   3.295   3.561   0.414  0.3015  0.1751  0.1521
 1087SOL    HW1 3607   3.273   3.509   0.490 -0.7005  0.0355 -0.2239
 1087SOL    HW2 3608   3.213   3.570   0.365  0.7772  0.8208 -0.5679
 1088SOL     OW 3609   4.023   3.388   3.909  0.5126  0.7627  0.4399
 1088SOL    HW1 3610   4.091   3.327   3.882 -0.0735 -0.1113  0.8941
 1088SOL    HW2 3611   3.954   3.333   3.945 -0.9401  1.5464 -1.0369
 1089SOL     OW 3612   3.518   3.562   0.048  0.6297  0.4018  0.5085
 1089SOL    HW1 3613   3.556   3.483   0.009 -0.3366  0.0746  0.2249
 1089SOL    HW2 3614   3.543   3.557   0.140  1.3836  0.2663  0.3105
 1090SOL     OW 3615   1.662   0.260   1.904 -0.0055 -0.0462  0.3617
 1090SOL    HW1 3616   1.635   0.317   1.833 -0.4358  0.0452  0.5895
 1090SOL    HW2 3617   1.629   0.304   1.983 -1.0483 -0.9943  0.4777
 1091SOL     OW 3618   0.777   0.553   0.960  0.0874  0.0891 -0.3522
 1091SOL    HW1 3619   0.854   0.557   1.017 -0.0971 -0.8098 -0.0150
 1091SOL    HW2 3620   0.787   0.470   0.914 -0.4381  0.1963 -0.6602
 1092SOL     OW 3621   1.795   0.066   3.494  0.5610 -0.0662 -0.4299
 1092SOL    HW1 3622   1.730   0.087   3.561  1.5678 -0.2287  0.6393
 1092SOL    HW2 3623   1.876   0.106   3.526  1.2379 -0.7944 -1.1671
 1093SOL     OW 3624   2.325   0.951   0.556  0.4073 -0.2688 -0.0566
 1093SOL    HW1 3625   2.335   0.966   0.650 -0.1653  0.2737 -0.0701
 1093SOL    HW2 3626   2.230   0.956   0.542  0.4913 -0.3648 -0.6587
 1094SOL     OW 3627   3.455   2.618   1.241  0.3989  0.1903  0.3700
 1094SOL    HW1 3628   3.515   2.650   1.173  1.1756  0.3661  1.1147
 1094SOL    HW2 3629   3.512   2.596   1.314 -0.1702 -2.2190  0.1775
 1095SOL     OW 3630   0.034   4.343   4.209 -0.0241  0.1422 -0.0234
 1095SOL    HW1 3631  -0.031   4.298   4.155  1.0672 -0.0839 -1.1751
 1095SOL    HW2 3632   0.069   4.274   4.266  0.5260 -0.1347 -0.6925
 1096SOL     OW 3633   1.546   2.641   3.187 -0.7161 -0.5200  0.2228
 1096SOL    HW1 3634   1.560   2.729   3.154 -2.1702  0.2817  1.6003
 1096SOL    HW2 3635   1.608   2.587   3.138 -2.6584  0.4917 -3.8917
 1097SOL     OW 3636   3.108   2.746   0.016 -0.1730 -0.6349  0.2700
 1097SOL    HW1 3637   3.176   2.703   0.068 -0.1386 -1.0805 -0.1430
 1097SOL    HW2 3638   3.116   2.838   0.039  0.8966 -0.6106 -0.1473
 1098SOL     OW 3639   3.408   3.201   0.477 -0.2273  0.0700 -0.2623
 1098SOL    HW1 3640   3.355   3.133   0.436  0.7694 -0.3041 -0.9540
 1098SOL    HW2 3641   3.345   3.252   0.529 -0.9602 -1.4877  0.4471
 1099SOL     OW 3642   0.738   1.757   1.852 -0.0276  0.0754  0.2761
 1099SOL    HW1 3643   0.785   1.726   1.930 -1.9189  0.2630  1.5718
 1099SOL    HW2 3644   0.776   1.842   1.833  1.1302 -0.4026  0.3955
 1100SOL     OW 3645   0.321   1.464   0.689  0.0650 -0.3605 -0.0366
 1100SOL    HW1 3646   0.397   1.495   0.739  0.9426 -0.9282 -0.9833
 1100SOL    HW2 3647   0.358   1.431   0.608 -1.0476 -1.9791  0.0752
 1101SOL     OW 3648   3.983   1.168   2.915 -0.2321  0.2481 -0.1253
 1101SOL    HW1 3649   3.979   1.239   2.850 -1.7878 -0.5176 -0.9264
 1101SOL    HW2 3650   3.906   1.182   2.970  0.7658  0.5491  1.2261
 1102SOL     OW 3651   2.347   2.343   1.467  0.0198 -0.1225  0.1191
 1102SOL    HW1 3652   2.396   2.423   1.450 -1.6564  0.8728 -0.2342
 1102SOL    HW2 3653   2.373   2.316   1.555 -0.3888  1.5739  0.7808
 1103SOL     OW 3654   2.734   3.465   2.816  0.3508 -0.4948  0.8823
 1103SOL    HW1 3655   2.726   3.555   2.847 -0.3099  0.5402 -2.0136
 1103SOL    HW2 3656   2.674   3.459   2.742  2.4369 -2.4628 -0.7993
 1104SOL     OW 3657   3.113   2.301   0.070  0.1765 -0.0616  0.0804
 1104SOL    HW1 3658   3.068   2.224   0.033 -0.7927  0.8156 -0.6412
 1104SOL    HW2 3659   3.085   2.374   0.014  0.9647  0.8453  0.8346
 1105SOL     OW 3660   4.309   0.768   3.743 -0.4276  0.1791 -0.2762
 1105SOL    HW1 3661   4.318   0.718   3.824  0.7276 -2.0202 -1.6696
 1105SOL    HW2 3662   4.228   0.735   3.704  0.3282 -0.6111 -1.1956
 1106SOL     OW 3663   1.080   3.295   1.620  0.2721  0.3812  0.2682
 1106SOL    HW1 3664   1.055   3.348   1.696 -2.4391  1.4692 -1.2096
 1106SOL    HW2 3665   1.147   3.347   1.575  0.2455  0.8213  0.7305
 1107SOL     OW 3666   3.014   0.510   3.686 -0.2641  0.0367 -0.0336
 1107SOL    HW1 3667   3.027   0.568   3.761 -0.4051  0.4278 -0.3069
 1107SOL    HW2 3668   3.086   0.448   3.691 -0.8166 -0.5376  0.9737
 1108SOL     OW 3669   2.444   2.014   2.687  0.2631 -0.7059 -0.3309
 1108SOL    HW1 3670   2.369   1.999   2.744 -1.5029  2.1998 -1.6817
 1108SOL    HW2 3671   2.502   2.070   2.739 -0.4125  0.2981 -0.6268
 1109SOL     OW 3672   2.832   1.668   3.131  0.2778 -0.1110  0.2017
 1109SOL    HW1 3673   2.846   1.647   3.224  2.7133  0.9156  0.1438
 1109SOL    HW2 3674   2.778   1.747   3.133  1.6461  0.8441  0.8452
 1110SOL     OW 3675   0.555   3.911   2.454  0.6035 -0.0340  0.3895
 1110SOL    HW1 3676   0.604   3.935   2.376 -0.8558 -0.5242 -0.7280
 1110SOL    HW2 3677   0.587   3.824   2.477 -0.7951 -1.0669 -1.3042
 1111SOL     OW 3678   1.131   2.978   3.146  0.1351 -0.0112 -0.3460
 1111SOL    HW1 3679   1.142   2.927   3.066 -0.7824  0.9722 -1.1146
 1111SOL    HW2 3680   1.215   2.970   3.191  0.9667  0.1503 -1.8236
 1112SOL     OW 3681   1.377   2.245   0.572 -0.6373  0.3458 -0.2228
 1112SOL    HW1 3682   1.386   2.340   0.567  1.3861  0.1240 -2.5594
 1112SOL    HW2 3683   1.464   2.214   0.596 -1.7700 -0.8983  2.6660
 1113SOL     OW 3684   2.830   1.227   3.008  0.3435  0.3084  0.1441
 1113SOL    HW1 3685   2.916   1.248   2.970  1.0200 -0.3510  1.2686
 1113SOL    HW2 3686   2.777   1.200   2.933  1.1415  0.6545 -0.5584
 1114SOL     OW 3687   2.201   3.045   0.896  0.1011  0.1536 -0.1933
 1114SOL    HW1 3688   2.138   3.029   0.825 -1.1703  1.2960  0.6227
 1114SOL    HW2 3689   2.286   3.034   0.855 -0.5534  1.8292 -2.1999
 1115SOL     OW 3690   4.010   0.115   1.922  0.2895 -0.0578 -0.4091
 1115SOL    HW1 3691   4.095   0.132   1.881  0.9683 -1.3542  0.4164
 1115SOL    HW2 3692   4.012   0.168   2.002  0.8030 -0.9537  0.1847
 1116SOL     OW 3693   4.287   3.779   1.287  0.3657 -0.4933  0.2965
 1116SOL    HW1 3694   4.366   3.758   1.236  0.5215  1.3417 -0.2893
 1116SOL    HW2 3695   4.298   3.730   1.369  0.6679 -2.5905 -0.9115
 1117SOL     OW 3696   3.350   2.070   4.340 -0.4139  0.0704 -0.2445
 1117SOL    HW1 3697   3.332   2.154   4.383  1.7362  1.6164 -2.1415
 1117SOL    HW2 3698   3.445   2.059   4.348 -0.4248 -1.2772 -1.6091
 1118SOL     OW 3699   3.586   1.243   2.214 -0.5579  0.3216 -0.2988
 1118SOL    HW1 3700   3.545   1.322   2.179  0.3600  0.4955 -1.0207
 1118SOL    HW2 3701   3.598   1.186   2.138 -1.3734 -0.5984  0.2425
 1119SOL     OW 3702   3.709   1.417   1.662  0.0415  0.1385 -0.1973
 1119SOL    HW1 3703   3.641   1.485   1.664  1.7992  2.1135 -1.9207
 1119SOL    HW2 3704   3.777   1.450   1.721  0.8298 -0.2170 -0.8866
 1120SOL     OW 3705   3.611   1.975   0.001 -0.3725 -0.2981  0.1167
 1120SOL    HW1 3706   3.693   1.948   0.042 -0.3222 -1.5802 -0.7652
 1120SOL    HW2 3707   3.637   2.012  -0.083 -0.6589 -0.1657  0.0839
 1121SOL     OW 3708   3.501   1.568   0.791  0.1982 -0.4073 -0.5623
 1121SOL    HW1 3709   3.517   1.594   0.700  2.1433  1.9581  0.3293
 1121SOL    HW2 3710   3.451   1.487   0.785 -0.3193  0.0271 -3.7232
 1122SOL     OW 3711   1.292   0.069   0.245 -0.1674  0.2124 -0.9355
 1122SOL    HW1 3712   1.254   0.136   0.188  0.3367  0.7081 -0.6882
 1122SOL    HW2 3713   1.345   0.117   0.308 -2.4873 -0.1075  1.4316
 1123SOL     OW 3714   2.370   1.612   2.425 -0.2243 -0.1039 -0.1421
 1123SOL    HW1 3715   2.318   1.546   2.470  0.3489 -1.3590 -1.2752
 1123SOL    HW2 3716   2.433   1.562   2.373  0.8007  1.3482 -0.3599
 1124SOL     OW 3717   3.621   3.292   4.010  0.2942  0.0716  0.0767
 1124SOL    HW1 3718   3.688   3.241   3.965 -0.7890 -2.0273  0.7098
 1124SOL    HW2 3719   3.574   3.338   3.941  0.6751 -0.5834 -0.6224
 1125SOL     OW 3720   3.920   3.991   2.085 -0.5779  0.3582  0.5017
 1125SOL    HW1 3721   3.963   3.928   2.028  1.8962 -0.0092  2.5888
 1125SOL    HW2 3722   3.913   4.070   2.032  1.0587 -0.1527 -0.5564
 1126SOL     OW 3723   1.188   0.409   1.842  0.3640  0.1610  0.3603
 1126SOL    HW1 3724   1.237   0.472   1.790 -1.2264  0.4121 -0.9025
 1126SOL    HW2 3725   1.240   0.329   1.837  1.5651  0.8854  0.6142
 1127SOL     OW 3726   0.030   4.260   2.560 -0.8231  0.4421 -0.7138
 1127SOL    HW1 3727  -0.047   4.273   2.617 -0.7463 -0.7269 -0.3037
 1127SOL    HW2 3728   0.102   4.299   2.608 -0.9305  0.3238 -0.4508
 1128SOL     OW 3729   0.395   4.230   3.237  0.0237  0.0142  0.3803
 1128SOL    HW1 3730   0.476   4.271   3.267 -1.5029  1.5472  2.6740
 1128SOL    HW2 3731   0.369   4.172   3.309 -1.0369 -0.2638 -0.2013
 1129SOL     OW 3732   0.262   3.572   1.707 -0.4148  0.0333  0.1841
 1129SOL    HW1 3733   0.261   3.623   1.788 -1.0295  0.0429  0.1703
 1129SOL    HW2 3734   0.201   3.617   1.649 -2.8575 -2.0173  0.9869
 1130SOL     OW 3735   2.311   1.250   2.580  0.6769  0.0552 -0.9632
 1130SOL    HW1 3736   2.237   1.280   2.528 -0.0872 -0.3214 -0.1266
 1130SOL    HW2 3737   2.361   1.329   2.600 -0.4819  0.5854 -0.0476
 1131SOL     OW 3738   0.463   0.601   3.752 -0.0759  0.5250 -0.5807
 1131SOL    HW1 3739   0.378   0.559   3.735 -0.3872  0.1633  1.5281
 1131SOL    HW2 3740   0.440   0.680   3.802  0.8194  0.1573  0.4577
 1132SOL     OW 3741   0.254   0.424   2.461 -0.3096 -0.6205  0.0275
 1132SOL    HW1 3742   0.186   0.357   2.459  0.0042 -0.9341 -1.9849
 1132SOL    HW2 3743   0.250   0.465   2.375  0.7596  0.6891  0.5691
 1133SOL     OW 3744   1.148   0.901   3.837 -0.4201 -0.3302  0.4361
 1133SOL    HW1 3745   1.163   0.848   3.916 -1.8923 -1.9534 -0.3034
 1133SOL    HW2 3746   1.078   0.855   3.790  0.0683  0.8670 -1.5839
 1134SOL     OW 3747   1.570   2.264   3.243 -0.3325  0.1922  0.4426
 1134SOL    HW1 3748   1.531   2.315   3.172  0.7904 -0.2926 -0.5581
 1134SOL    HW2 3749   1.660   2.297   3.249 -0.1155 -0.4729  0.9483
 1135SOL     OW 3750   3.719   0.702   3.793  0.2073 -0.5573 -0.5737
 1135SOL    HW1 3751   3.788   0.767   3.804 -0.0288 -0.3770 -0.1028
 1135SOL    HW2 3752   3.684   0.718   3.706 -0.2963  0.4009 -0.2154
 1136SOL     OW 3753   1.398   3.233   3.858  0.2580 -0.1224 -0.1310
 1136SOL    HW1 3754   1.466   3.211   3.794  0.7499 -0.0239  0.3510
 1136SOL    HW2 3755   1.340   3.294   3.811  0.8713  0.3120 -0.3353
 1137SOL     OW 3756   0.515   2.351   1.388 -0.7635 -0.1283 -0.0579
 1137SOL    HW1 3757   0.518   2.397   1.471  2.6026 -2.8762  1.6230
 1137SOL    HW2 3758   0.467   2.270   1.407 -1.3999 -0.0676 -1.2921
 1138SOL     OW 3759   1.521   2.899   2.512  0.5400  0.0688 -0.1021
 1138SOL    HW1 3760   1.442   2.951   2.521  0.3678 -0.2927  0.4713
 1138SOL    HW2 3761   1.490   2.809   2.498  0.8385 -0.2657  1.2266
 1139SOL     OW 3762   3.809   2.068   1.936 -0.2027 -0.1984 -0.5741
 1139SOL    HW1 3763   3.878   2.134   1.939  1.1264 -1.5615  0.3233
 1139SOL    HW2 3764   3.752   2.090   2.009  0.3145 -0.1232 -0.1875
 1140SOL     OW 3765   3.793   2.827   1.944 -0.2789  0.2346  0.1461
 1140SOL    HW1 3766   3.706   2.866   1.944 -0.2067  0.4035 -0.3328
 1140SOL    HW2 3767   3.800   2.782   2.029 -0.7643  0.3611  0.2529
 1141SOL     OW 3768   1.684   3.593   1.921 -0.3339  0.1109  0.0344
 1141SOL    HW1 3769   1.741   3.554   1.853 -0.9174 -0.7464  0.0135
 1141SOL    HW2 3770   1.640   3.517   1.961  0.3807  0.5516  1.7374
 1142SOL     OW 3771   0.446   2.747   4.135 -0.4313  0.1255 -0.0236
 1142SOL    HW1 3772   0.432   2.832   4.092  0.5323  0.0776 -0.4679
 1142SOL    HW2 3773   0.525   2.713   4.094 -1.6740 -1.7189 -0.9744
 1143SOL     OW 3774   0.179   1.083   0.287  0.1880  0.2296 -0.0312
 1143SOL    HW1 3775   0.106   1.135   0.321  0.4916  0.4886  0.2320
 1143SOL    HW2 3776   0.254   1.141   0.294  0.3842  0.0338 -0.4849
 1144SOL     OW 3777   1.803   2.712   0.189  0.3164 -0.5556 -0.2256
 1144SOL    HW1 3778   1.784   2.796   0.232  1.9384  0.2295 -0.9475
 1144SOL    HW2 3779   1.807   2.649   0.261  1.7747  0.5118  0.7114
 1145SOL     OW 3780   3.769   1.494   1.113 -0.5741  0.1680  0.0334
 1145SOL    HW1 3781   3.775   1.555   1.186 -2.6378  0.1949  0.2394
 1145SOL    HW2 3782   3.758   1.549   1.036 -0.4955  0.0962 -0.0297
 1146SOL     OW 3783   3.699   0.205   0.528  0.7435 -0.7600  0.4196
 1146SOL    HW1 3784   3.769   0.161   0.479 -0.1704 -1.6214 -0.1606
 1146SOL    HW2 3785   3.622   0.149   0.515  0.2897 -0.6027  2.2406
 1147SOL     OW 3786   2.070   1.161   2.975  0.3433  0.1338 -0.1705
 1147SOL    HW1 3787   2.053   1.163   3.070 -2.3001 -0.5373 -0.5497
 1147SOL    HW2 3788   2.107   1.074   2.959 -1.9317 -0.9450 -0.0465
 1148SOL     OW 3789   1.858   0.730   2.141  0.0082  0.3932 -0.1883
 1148SOL    HW1 3790   1.881   0.678   2.064  1.3735  1.5376 -0.6051
 1148SOL    HW2 3791   1.822   0.811   2.104 -1.4429  0.0638  0.4327
 1149SOL     OW 3792   3.361   0.073   2.106  0.6162 -0.1279  0.4141
 1149SOL    HW1 3793   3.401  -0.005   2.145  1.5721  1.2057  2.2794
 1149SOL    HW2 3794   3.284   0.040   2.059  1.1087 -2.1937  0.9523
 1150SOL     OW 3795   4.067   1.819   1.703  0.5913 -0.0115  0.1029
 1150SOL    HW1 3796   4.007   1.862   1.764  0.3611  0.3367 -0.3572
 1150SOL    HW2 3797   4.093   1.738   1.746  1.1602  0.6608  1.0687
 1151SOL     OW 3798   2.368   3.755   0.725 -0.0107  0.1321 -0.5594
 1151SOL    HW1 3799   2.410   3.815   0.786 -1.2851  0.3922  0.0740
 1151SOL    HW2 3800   2.327   3.812   0.659 -0.7062 -0.0526 -0.2942
 1152SOL     OW 3801   1.555   0.888   2.259  0.7840 -0.6909  0.8915
 1152SOL    HW1 3802   1.556   0.920   2.349  0.3442  0.7771  0.4051
 1152SOL    HW2 3803   1.622   0.939   2.215 -1.5703  1.4889 -0.4822
 1153SOL     OW 3804   2.140   4.295   0.348  0.3450  0.2011  0.2963
 1153SOL    HW1 3805   2.217   4.247   0.378  0.0414  0.3177  1.3033
 1153SOL    HW2 3806   2.154   4.307   0.254  2.2979  1.5836  0.7120
 1154SOL     OW 3807   2.402   4.146   0.468 -0.0444  0.4983 -0.0884
 1154SOL    HW1 3808   2.364   4.060   0.455  0.5349  0.2511 -0.1891
 1154SOL    HW2 3809   2.489   4.141   0.427  0.4962  0.7406  0.9812
 1155SOL     OW 3810   2.303   2.300   3.560 -0.2554 -0.1907 -0.2482
 1155SOL    HW1 3811   2.284   2.331   3.471 -1.7383 -0.7298 -0.1428
 1155SOL    HW2 3812   2.322   2.380   3.609  0.6992  0.1053 -1.0461
 1156SOL     OW 3813   2.870   0.605   3.491  0.1328  0.1436  0.7236
 1156SOL    HW1 3814   2.928   0.572   3.559 -0.0413 -0.1757  0.7186
 1156SOL    HW2 3815   2.929   0.626   3.418  0.1299 -1.4377  0.2228
 1157SOL     OW 3816   1.895   1.251   3.842  0.1013  0.1251 -0.5382
 1157SOL    HW1 3817   1.834   1.260   3.769 -0.1832  0.5626 -0.2519
 1157SOL    HW2 3818   1.975   1.217   3.802 -0.1005  0.2080 -1.0264
 1158SOL     OW 3819   3.996   2.300   2.185 -0.3240 -0.0584 -0.2145
 1158SOL    HW1 3820   4.065   2.353   2.223 -0.2891 -0.4626  0.2857
 1158SOL    HW2 3821   4.013   2.302   2.090  1.5804 -1.7962  0.0251
 1159SOL     OW 3822   2.095   1.577   0.224 -0.3356  0.1718 -0.3575
 1159SOL    HW1 3823   2.119   1.553   0.314  2.7801 -0.1755 -1.1546
 1159SOL    HW2 3824   2.083   1.493   0.179  2.2167  0.1332 -1.1438
 1160SOL     OW 3825   0.614   0.690   1.123  0.6811  0.0626 -0.4264
 1160SOL    HW1 3826   0.668   0.646   1.057 -0.6139 -1.6626 -0.3901
 1160SOL    HW2 3827   0.534   0.638   1.128  0.7007  0.1539  2.4696
 1161SOL     OW 3828   4.095   3.441   3.567 -0.4416  0.3942  0.4438
 1161SOL    HW1 3829   4.096   3.394   3.483  1.6230  2.2935 -0.7083
 1161SOL    HW2 3830   4.100   3.372   3.633  1.5305 -1.1074 -1.1374
 1162SOL     OW 3831   0.087   2.410   1.235 -0.3525  1.1589 -0.3580
 1162SOL    HW1 3832   0.027   2.364   1.294 -0.6124 -0.6842 -1.9663
 1162SOL    HW2 3833   0.133   2.472   1.291  0.6149 -1.6160  2.1610
 1163SOL     OW 3834   2.811   2.924   1.318  0.2634  0.1118  0.3261
 1163SOL    HW1 3835   2.732   2.959   1.278 -0.3275 -0.1088  1.2716
 1163SOL    HW2 3836   2.821   2.975   1.398  1.3609  0.4695 -0.0170
 1164SOL     OW 3837   3.770   2.928   3.318  0.4196  0.1154  0.0440
 1164SOL    HW1 3838   3.734   3.015   3.337 -0.8699 -0.0090 -1.6005
 1164SOL    HW2 3839   3.787   2.930   3.224  0.2613 -1.4600 -0.0297
 1165SOL     OW 3840   3.642   4.365   1.914  0.0905 -0.0413 -0.5234
 1165SOL    HW1 3841   3.638   4.404   2.002 -0.1351 -0.7017 -0.2403
 1165SOL    HW2 3842   3.633   4.271   1.929 -2.3926 -0.0161 -1.4200
 1166SOL     OW 3843   2.972   0.056   0.558  0.0079  0.2631 -0.1996
 1166SOL    HW1 3844   3.002  -0.024   0.601  2.6486  1.2705  0.0572
 1166SOL    HW2 3845   2.936   0.109   0.628  0.1269  0.0951 -0.0085
 1167SOL     OW 3846   2.910   2.583   2.543  0.5616  0.9882  0.1870
 1167SOL    HW1 3847   2.988   2.557   2.495 -0.0251 -0.4909 -0.0039
 1167SOL    HW2 3848   2.919   2.541   2.629 -0.3146  0.2510 -0.0642
 1168SOL     OW 3849   1.414   1.075   2.762 -0.5233 -0.5054 -0.5194
 1168SOL    HW1 3850   1.469   1.047   2.835  1.7757  0.3155 -1.8218
 1168SOL    HW2 3851   1.382   1.162   2.788  0.3573 -0.1738 -0.4934
 1169SOL     OW 3852   4.129   3.208   3.690 -0.0715 -0.5185 -0.3519
 1169SOL    HW1 3853   4.091   3.134   3.642 -0.6519  0.9039 -2.1976
 1169SOL    HW2 3854   4.206   3.171   3.733 -1.7811 -2.7916  1.0035
 1170SOL     OW 3855   2.291   3.008   3.785  0.3650 -0.2787 -0.2052
 1170SOL    HW1 3856   2.286   2.988   3.878  0.2263  0.8737  0.0475
 1170SOL    HW2 3857   2.309   3.102   3.781 -1.9991  0.2063 -1.3540
 1171SOL     OW 3858   2.105   1.515   0.483 -0.0621 -0.4152 -0.3672
 1171SOL    HW1 3859   2.010   1.512   0.496 -0.3901 -0.9593 -2.4396
 1171SOL    HW2 3860   2.140   1.546   0.566 -2.1873  1.7444 -0.1678
 1172SOL     OW 3861   2.111   1.457   2.495 -0.0666  0.4776 -0.4208
 1172SOL    HW1 3862   2.064   1.388   2.450  0.5383 -1.0744  1.1962
 1172SOL    HW2 3863   2.061   1.537   2.478 -1.0109 -0.4144 -1.9881
 1173SOL     OW 3864   4.045   2.707   2.095  0.3963 -0.6480  0.2965
 1173SOL    HW1 3865   3.956   2.721   2.125  1.2350  0.9479  2.2648
 1173SOL    HW2 3866   4.090   2.666   2.169  1.6754  0.0713 -0.0454
 1174SOL     OW 3867   3.438   0.114   2.729  0.0763 -0.0432  0.6302
 1174SOL    HW1 3868   3.463   0.091   2.640 -0.9472 -0.7405  0.5108
 1174SOL    HW2 3869   3.378   0.044   2.756  0.7843 -0.1305  2.0581
 1175SOL     OW 3870   4.050   0.633   2.412  0.6307 -0.1673 -0.2950
 1175SOL    HW1 3871   3.989   0.694   2.371  1.7806 -0.8344 -3.2582
 1175SOL    HW2 3872   4.013   0.546   2.394  1.7523 -0.5242 -0.9863
 1176SOL     OW 3873   2.429   3.047   2.095 -0.1747 -1.0612  0.2648
 1176SOL    HW1 3874   2.435   3.104   2.172 -0.2958 -0.8061  0.0851
 1176SOL    HW2 3875   2.336   3.043   2.075 -0.0729 -0.4268 -0.3894
 1177SOL     OW 3876   2.274   2.837   0.084  0.2885  0.5787 -0.2675
 1177SOL    HW1 3877   2.268   2.851   0.179  1.6420  0.6991 -0.1846
 1177SOL    HW2 3878   2.366   2.853   0.063 -0.1805  1.4657 -1.7585
 1178SOL     OW 3879   3.910   0.536   0.057  0.4726  0.1561  0.1764
 1178SOL    HW1 3880   3.992   0.491   0.075 -0.6350 -2.1221 -0.1284
 1178SOL    HW2 3881   3.865   0.539   0.141 -0.3326 -1.2260 -0.1821
 1179SOL     OW 3882   2.811   0.051   3.548  0.1964 -0.1357 -0.0811
 1179SOL    HW1 3883   2.774   0.135   3.577  1.1316  0.0223  0.7093
 1179SOL    HW2 3884   2.874   0.075   3.481  0.6040 -0.1857  0.2814
 1180SOL     OW 3885   0.440   3.408   1.134  0.3428 -0.1436 -0.5219
 1180SOL    HW1 3886   0.483   3.331   1.170  0.3838 -0.8005 -1.9124
 1180SOL    HW2 3887   0.401   3.378   1.052 -0.2388  1.1466 -0.7474
 1181SOL     OW 3888   0.256   0.254   1.648  0.4684 -0.1483 -0.8025
 1181SOL    HW1 3889   0.182   0.197   1.672  0.8009  0.5756  2.4192
 1181SOL    HW2 3890   0.215   0.328   1.603 -0.7717  0.0202  0.5201
 1182SOL     OW 3891   0.309   0.261   2.101 -0.7193  0.3454 -0.3049
 1182SOL    HW1 3892   0.217   0.245   2.121  0.2306 -4.6445  1.7084
 1182SOL    HW2 3893   0.352   0.263   2.187  1.2981 -0.5349 -1.2240
 1183SOL     OW 3894   0.145   3.064   2.548 -1.1625  0.1300 -0.5464
 1183SOL    HW1 3895   0.133   3.006   2.472 -0.1700 -0.4296 -0.2921
 1183SOL    HW2 3896   0.176   3.146   2.510  0.7327 -0.5955 -0.6823
 1184SOL     OW 3897   4.117   0.310   1.122 -0.8174  0.3583 -0.3513
 1184SOL    HW1 3898   4.104   0.332   1.030 -0.3780  1.6244 -0.1199
 1184SOL    HW2 3899   4.029   0.310   1.159 -0.7806  3.0348 -0.0946
 1185SOL     OW 3900   2.761   4.130   4.332 -0.6585  0.4096 -0.3748
 1185SOL    HW1 3901   2.702   4.138   4.257  1.4601  1.1616 -2.0737
 1185SOL    HW2 3902   2.764   4.218   4.370 -0.2124  0.5171 -0.6511
 1186SOL     OW 3903   3.235   3.827   1.479  0.1176 -0.2638 -0.2772
 1186SOL    HW1 3904   3.297   3.900   1.489  0.0675 -0.3102  0.4447
 1186SOL    HW2 3905   3.265   3.780   1.401  0.5213  0.1699 -0.3879
 1187SOL     OW 3906   1.481   0.036   4.072  0.4052 -0.1235 -0.6382
 1187SOL    HW1 3907   1.501   0.125   4.099 -1.1726  0.2434 -0.6282
 1187SOL    HW2 3908   1.437   0.045   3.988  0.1785 -0.8864 -0.6140
 1188SOL     OW 3909   2.334   3.662   1.594  0.4830  0.7170 -0.2506
 1188SOL    HW1 3910   2.343   3.591   1.658 -0.5548 -0.1972 -1.0834
 1188SOL    HW2 3911   2.408   3.651   1.535 -0.2043 -0.2932 -0.9457
 1189SOL     OW 3912   4.307   4.337   1.917  0.2440 -0.5829  0.0400
 1189SOL    HW1 3913   4.261   4.354   1.999  1.6472  1.4208  0.4799
 1189SOL    HW2 3914   4.316   4.241   1.915  0.4433 -0.6878  2.4039
 1190SOL     OW 3915   3.082   4.136   1.096  0.4381  0.6830 -0.1335
 1190SOL    HW1 3916   3.021   4.094   1.035 -0.4154  0.8227  0.6072
 1190SOL    HW2 3917   3.052   4.109   1.183  0.3033  2.2212  0.3338
 1191SOL     OW 3918   2.253   1.831   0.428  0.5205 -0.8365  0.0746
 1191SOL    HW1 3919   2.218   1.783   0.353  1.3599 -0.9092 -0.2759
 1191SOL    HW2 3920   2.183   1.826   0.494 -0.1499 -0.9197 -0.6301
 1192SOL     OW 3921   1.612   0.673   0.347 -0.9921  0.1571  0.2611
 1192SOL    HW1 3922   1.659   0.621   0.282 -2.7066 -0.5177 -0.4710
 1192SOL    HW2 3923   1.536   0.620   0.370 -0.3186  0.2346  3.0680
 1193SOL     OW 3924   3.150   2.212   1.968  0.2625 -0.6659 -0.3155
 1193SOL    HW1 3925   3.134   2.298   2.006  0.2722 -1.6943  2.2056
 1193SOL    HW2 3926   3.107   2.215   1.883 -1.4272  1.1844  0.5180
 1194SOL     OW 3927   2.053   3.921   3.260 -0.1135  0.2391  0.1028
 1194SOL    HW1 3928   2.016   3.978   3.327  0.5444  0.6809  0.0891
 1194SOL    HW2 3929   2.126   3.970   3.224  1.4541 -1.2220  1.1568
 1195SOL     OW 3930   0.709   3.090   0.088 -0.3784  0.0799  0.4208
 1195SOL    HW1 3931   0.621   3.113   0.121 -0.8920 -1.7261  0.3933
 1195SOL    HW2 3932   0.769   3.128   0.153 -1.2116  0.5001  0.9697
 1196SOL     OW 3933   3.847   0.526   0.329  0.2092 -0.2999  0.3733
 1196SOL    HW1 3934   3.848   0.604   0.384 -1.2667 -0.4469  0.6653
 1196SOL    HW2 3935   3.889   0.459   0.382  1.7453  0.3366  0.0124
 1197SOL     OW 3936   3.288   3.987   2.668  0.2718  0.0627 -0.0768
 1197SOL    HW1 3937   3.274   3.938   2.748  1.6957  0.2989  0.3415
 1197SOL    HW2 3938   3.316   3.922   2.604  1.8194  0.2315  0.3843
 1198SOL     OW 3939   3.251   2.169   0.268  0.2164  0.3851  0.2930
 1198SOL    HW1 3940   3.228   2.076   0.260  0.5542  0.2295  1.0741
 1198SOL    HW2 3941   3.216   2.209   0.188  1.5623 -0.7016 -0.8783
 1199SOL     OW 3942   3.587   2.903   2.852 -0.2516 -0.8672  0.2923
 1199SOL    HW1 3943   3.513   2.858   2.894  0.0638 -0.3771  1.4198
 1199SOL    HW2 3944   3.663   2.847   2.872  0.0405 -0.1857  1.1591
 1200SOL     OW 3945   3.976   2.297   3.760 -1.2038 -0.5133  0.3331
 1200SOL    HW1 3946   3.994   2.285   3.667  1.0503  2.6212  0.2215
 1200SOL    HW2 3947   3.964   2.208   3.793  2.0019 -2.1314 -2.2114
 1201SOL     OW 3948   0.984   3.441   1.875 -0.5721  0.2034  0.3706
 1201SOL    HW1 3949   1.051   3.510   1.871  0.1372 -0.4377  0.9218
 1201SOL    HW2 3950   0.904   3.487   1.899 -0.3104  0.9652 -0.1477
 1202SOL     OW 3951   2.212   4.076   1.251  0.1524  0.2983 -0.0019
 1202SOL    HW1 3952   2.209   3.980   1.254 -2.1033  0.3061  0.1375
 1202SOL    HW2 3953   2.274   4.097   1.182 -1.1348 -1.3449 -1.7537
 1203SOL     OW 3954   1.201   0.488   2.840 -0.2433  0.5117  0.1774
 1203SOL    HW1 3955   1.134   0.527   2.895  0.0428  0.4943  0.5432
 1203SOL    HW2 3956   1.164   0.489   2.751 -1.4697 -1.1183  0.6173
 1204SOL     OW 3957   1.623   2.930   2.073 -0.5657  0.5202  0.5830
 1204SOL    HW1 3958   1.576   2.848   2.091 -1.8531  1.2521  0.7056
 1204SOL    HW2 3959   1.625   2.975   2.157  1.3245  0.0636  0.8246
 1205SOL     OW 3960   0.668   3.983   1.775 -0.4907  0.6763 -0.1117
 1205SOL    HW1 3961   0.729   4.055   1.791 -0.0606  0.2385  0.2761
 1205SOL    HW2 3962   0.680   3.925   1.850 -0.7501  0.1472 -0.4735
 1206SOL     OW 3963   1.279   1.302   3.686  0.1451 -0.3457 -0.1425
 1206SOL    HW1 3964   1.229   1.267   3.613  1.2745  0.2990 -1.2656
 1206SOL    HW2 3965   1.241   1.261   3.764 -2.2617  0.3128 -0.9028
 1207SOL     OW 3966   0.981   3.672   0.896 -0.1340 -0.3549 -0.0978
 1207SOL    HW1 3967   0.915   3.738   0.881  0.3982  0.0923 -0.5258
 1207SOL    HW2 3968   1.064   3.714   0.872  0.0975 -1.5213 -1.4863
 1208SOL     OW 3969   1.328   3.354   3.435 -0.4318  0.0235  0.2538
 1208SOL    HW1 3970   1.257   3.309   3.391 -0.3985 -2.3309  2.3946
 1208SOL    HW2 3971   1.294   3.442   3.452 -2.0959 -0.4450 -0.4521
 1209SOL     OW 3972   2.632   0.525   3.440 -0.1208  0.5281 -0.6661
 1209SOL    HW1 3973   2.724   0.546   3.454 -0.4937  1.2835  0.8947
 1209SOL    HW2 3974   2.632   0.466   3.364  1.6383  0.4570 -0.6528
 1210SOL     OW 3975   1.039   2.561   1.722  0.1056  0.2787  0.2388
 1210SOL    HW1 3976   1.122   2.515   1.735  0.1917 -0.0301 -1.2764
 1210SOL    HW2 3977   1.063   2.654   1.727  0.3925  0.1896  0.5967
 1211SOL     OW 3978   4.353   0.982   1.251 -0.1423  0.0435 -0.5215
 1211SOL    HW1 3979   4.310   0.973   1.336  2.5491  0.2461  0.9606
 1211SOL    HW2 3980   4.388   0.895   1.232  1.7141  0.6394  0.0227
 1212SOL     OW 3981   2.343   1.218   2.228 -0.2445  0.4012  0.2520
 1212SOL    HW1 3982   2.428   1.176   2.218 -0.3683  0.2944 -0.4068
 1212SOL    HW2 3983   2.344   1.290   2.164 -1.5028 -1.0001 -1.4252
 1213SOL     OW 3984   1.489   2.898   1.033 -0.7760  0.2756  0.2514
 1213SOL    HW1 3985   1.580   2.869   1.023 -0.6568  0.8858 -0.5685
 1213SOL    HW2 3986   1.482   2.925   1.125 -0.3261 -0.4335  0.4972
 1214SOL     OW 3987   3.413   0.761   1.605  0.6153  0.0115 -0.8157
 1214SOL    HW1 3988   3.396   0.818   1.531 -0.7558 -1.4750 -1.7022
 1214SOL    HW2 3989   3.357   0.795   1.676 -0.3162 -0.2987 -1.3859
 1215SOL     OW 3990   1.023   2.999   2.402 -0.4342  0.4040 -0.1171
 1215SOL    HW1 3991   0.990   3.072   2.350  0.4587 -0.3204 -1.8063
 1215SOL    HW2 3992   1.055   3.038   2.483  1.0646  2.0902 -1.4346
 1216SOL     OW 3993   1.137   1.537   4.040  0.1379  0.3394 -0.9285
 1216SOL    HW1 3994   1.171   1.472   4.102  2.1876  0.5617 -1.7260
 1216SOL    HW2 3995   1.085   1.486   3.978  1.3567 -0.5232 -1.2882
 1217SOL     OW 3996   1.995   3.580   2.673  0.0960 -0.3844  0.3829
 1217SOL    HW1 3997   1.937   3.512   2.707  2.1027 -2.1914  0.4031
 1217SOL    HW2 3998   2.083   3.543   2.682  1.1397  1.5014 -1.3137
 1218SOL     OW 3999   2.810   0.734   0.477  0.3501  0.0505 -0.1111
 1218SOL    HW1 4000   2.753   0.789   0.530  0.1376 -0.5482  0.2901
 1218SOL    HW2 4001   2.754   0.661   0.450  0.0861  0.9358 -2.1905
 1219SOL     OW 4002   1.934   2.176   3.100 -0.0379 -0.7965 -0.0509
 1219SOL    HW1 4003   2.005   2.229   3.064 -1.9148  0.5535 -2.0336
 1219SOL    HW2 4004   1.925   2.207   3.190  0.5302  0.5137 -0.4128
 1220SOL     OW 4005   2.724   2.562   3.896  0.7758  0.4106 -0.8489
 1220SOL    HW1 4006   2.652   2.500   3.906  1.7318 -0.7468 -0.9812
 1220SOL    HW2 4007   2.708   2.604   3.811  0.5469 -0.2243 -1.1256
 1221SOL     OW 4008   2.516   2.897   0.006  0.6494 -0.1816  0.3194
 1221SOL    HW1 4009   2.604   2.934   0.009  0.9489 -0.8318 -0.3906
 1221SOL    HW2 4010   2.529   2.803  -0.002 -0.1099 -0.4591  1.8475
 1222SOL     OW 4011   3.406   0.262   1.207 -0.0832  0.1140 -0.1442
 1222SOL    HW1 4012   3.359   0.189   1.248 -0.9741  1.0610  0.5862
 1222SOL    HW2 4013   3.337   0.316   1.167  0.6654 -0.0512 -1.7109
 1223SOL     OW 4014   3.827   2.652   3.202  0.4044  0.8308  0.0774
 1223SOL    HW1 4015   3.753   2.698   3.242  0.2843  1.2276 -0.5720
 1223SOL    HW2 4016   3.905   2.698   3.235  0.2663  1.8973 -1.0081
 1224SOL     OW 4017   3.040   0.137   1.584 -0.1610 -0.0074  0.3468
 1224SOL    HW1 4018   2.991   0.073   1.636  1.0791 -0.0395  1.5047
 1224SOL    HW2 4019   3.122   0.150   1.631  0.2294  1.3595 -0.6380
 1225SOL     OW 4020   1.848   1.504   1.110  1.0146 -0.3585 -0.2811
 1225SOL    HW1 4021   1.859   1.538   1.021  1.5900 -0.5447 -0.2824
 1225SOL    HW2 4022   1.783   1.562   1.150  0.3206 -0.6210 -1.0093
 1226SOL     OW 4023   3.288   2.181   0.555 -0.0271 -0.2020  0.3012
 1226SOL    HW1 4024   3.268   2.178   0.461  0.0337  1.5036  0.2049
 1226SOL    HW2 4025   3.366   2.128   0.565  0.3235  0.1001 -0.7229
 1227SOL     OW 4026   1.497   1.279   2.164 -0.1584 -0.4040  0.0811
 1227SOL    HW1 4027   1.565   1.293   2.099 -0.0604 -0.0670  0.2523
 1227SOL    HW2 4028   1.415   1.278   2.114 -0.1490  0.6048  0.0348
 1228SOL     OW 4029   1.446   3.028   1.904  0.3155 -0.1924 -0.1444
 1228SOL    HW1 4030   1.445   2.962   1.834 -0.7624 -1.1479  0.7175
 1228SOL    HW2 4031   1.509   2.994   1.967  1.0416  0.5011 -0.4847
 1229SOL     OW 4032   3.733   0.634   1.442 -0.3186  0.5460 -0.0535
 1229SOL    HW1 4033   3.747   0.722   1.406 -1.3739  0.6822 -0.1656
 1229SOL    HW2 4034   3.698   0.583   1.368 -0.2508  0.1879  0.1587
 1230SOL     OW 4035   4.163   1.044   0.118 -0.9801  0.3290  0.1829
 1230SOL    HW1 4036   4.143   1.083   0.203 -0.4923  0.5843  0.1815
 1230SOL    HW2 4037   4.126   0.955   0.123 -1.2980  0.4790  0.5127
 1231SOL     OW 4038   0.920   0.347   1.732  0.2381  0.1485  0.0942
 1231SOL    HW1 4039   0.986   0.378   1.794  0.7707  0.4284 -0.6023
 1231SOL    HW2 4040   0.900   0.423   1.678  0.8997 -0.4643 -1.0497
 1232SOL     OW 4041   2.440   0.456   4.118 -0.0756  0.4573 -0.4423
 1232SOL    HW1 4042   2.350   0.488   4.110  0.2546  1.1082 -1.7656
 1232SOL    HW2 4043   2.468   0.486   4.205 -1.0927  0.3499 -0.0701
 1233SOL     OW 4044   3.249   3.415   0.022  0.5088 -0.0346  0.5574
 1233SOL    HW1 4045   3.222   3.453  -0.062 -0.3144 -0.0662  0.7922
 1233SOL    HW2 4046   3.269   3.324   0.002 -1.0610 -0.4288  0.6192
 1234SOL     OW 4047   3.610   0.996   4.042 -0.6952  0.6327  0.2746
 1234SOL    HW1 4048   3.668   1.027   4.111 -1.2160  1.6457  0.2782
 1234SOL    HW2 4049   3.640   1.041   3.963 -0.8401  0.3857  0.0761
 1235SOL     OW 4050   1.337   3.968   2.450 -0.1653  0.2857 -0.0145
 1235SOL    HW1 4051   1.408   4.032   2.463  1.5592 -1.2615 -1.1952
 1235SOL    HW2 4052   1.280   4.009   2.385 -0.4158  1.5945  0.9974
 1236SOL     OW 4053   2.782   0.526   4.050 -0.9965  0.2933 -0.2740
 1236SOL    HW1 4054   2.855   0.563   4.002 -1.4344  0.7653 -0.5834
 1236SOL    HW2 4055   2.818   0.447   4.091 -0.1186  0.9513  0.2346
 1237SOL     OW 4056   1.209   4.264   4.065  0.2666  0.5353  0.3910
 1237SOL    HW1 4057   1.298   4.277   4.031  0.2444 -0.6981 -0.1904
 1237SOL    HW2 4058   1.188   4.174   4.043 -0.3678  0.1598  2.3375
 1238SOL     OW 4059   2.726   2.717   2.125  0.0856 -0.2748  0.1443
 1238SOL    HW1 4060   2.663   2.788   2.130 -1.2402 -1.3017 -1.1318
 1238SOL    HW2 4061   2.785   2.742   2.054  0.2204 -0.0252  0.3389
 1239SOL     OW 4062   1.047   1.430   2.732  0.2799 -0.1517 -0.0378
 1239SOL    HW1 4063   1.113   1.497   2.712  0.9053 -1.3450 -2.2705
 1239SOL    HW2 4064   1.099   1.354   2.760 -0.2161 -0.6939 -0.5747
 1240SOL     OW 4065   4.212   3.731   0.572 -0.2988 -0.2296 -0.9337
 1240SOL    HW1 4066   4.263   3.652   0.551  0.0390 -0.3235  0.1701
 1240SOL    HW2 4067   4.188   3.720   0.664 -0.4381  0.8599 -0.8295
 1241SOL     OW 4068   3.211   3.875   2.908 -0.2276 -0.2341  0.1169
 1241SOL    HW1 4069   3.130   3.912   2.944 -0.4133 -0.3408 -0.1958
 1241SOL    HW2 4070   3.242   3.815   2.976 -0.0653  0.2871  0.5134
 1242SOL     OW 4071   2.870   2.564   2.889 -0.3365  0.1868  0.6478
 1242SOL    HW1 4072   2.866   2.555   2.984 -0.6906  0.3892  0.6547
 1242SOL    HW2 4073   2.790   2.611   2.866 -0.2029  0.2294  0.2596
 1243SOL     OW 4074   0.172   0.011   2.746 -0.2233  0.0713 -0.0102
 1243SOL    HW1 4075   0.245   0.058   2.705  0.0926  0.3874  0.8871
 1243SOL    HW2 4076   0.209  -0.024   2.827 -0.5899 -1.3141 -0.4140
 1244SOL     OW 4077   2.290   0.959   3.688  0.0022 -0.0613 -0.3310
 1244SOL    HW1 4078   2.379   0.928   3.704  0.3678  0.2778 -1.5623
 1244SOL    HW2 4079   2.287   0.974   3.593 -1.3533 -0.0242 -0.3052
 1245SOL     OW 4080   1.935   2.884   2.134  0.2729  0.3490  0.1206
 1245SOL    HW1 4081   1.977   2.969   2.151  0.4713  0.4801 -0.9171
 1245SOL    HW2 4082   1.864   2.905   2.074  0.3957 -0.2338 -0.2285
 1246SOL     OW 4083   0.354   4.139   1.932  0.0256 -0.5428 -0.0442
 1246SOL    HW1 4084   0.331   4.123   1.840  2.9389 -1.0772 -0.7908
 1246SOL    HW2 4085   0.348   4.234   1.941 -0.1082 -0.4612 -0.8654
 1247SOL     OW 4086   2.523   1.079   1.139  0.4593  0.6384 -0.3954
 1247SOL    HW1 4087   2.459   1.030   1.191  0.6680 -0.9850 -1.6112
 1247SOL    HW2 4088   2.474   1.108   1.062  1.0139 -0.1152 -1.0490
 1248SOL     OW 4089   3.062   3.611   0.617  0.2936  0.0468  0.7132
 1248SOL    HW1 4090   2.985   3.615   0.674 -0.8265 -0.8415 -0.6771
 1248SOL    HW2 4091   3.047   3.678   0.551  0.7335 -0.1162  0.4469
 1249SOL     OW 4092   1.483   1.325   0.618 -0.2061 -0.0603  0.6282
 1249SOL    HW1 4093   1.548   1.269   0.577  1.8674  0.7880  2.5285
 1249SOL    HW2 4094   1.455   1.277   0.696  0.5449  0.8688  1.5117
 1250SOL     OW 4095   1.854   1.186   0.306 -0.2888  0.3819  1.0428
 1250SOL    HW1 4096   1.931   1.213   0.357  0.3606  0.1269  0.2274
 1250SOL    HW2 4097   1.891   1.143   0.228 -1.1494  2.6173 -0.7307
 1251SOL     OW 4098   1.357   3.305   1.789  0.4090  0.0989 -0.1672
 1251SOL    HW1 4099   1.403   3.313   1.705 -0.2036  0.1350 -0.5091
 1251SOL    HW2 4100   1.365   3.213   1.813  0.0417 -0.0487 -0.5933
 1252SOL     OW 4101   1.564   2.231   1.060 -0.0757  0.0894  0.0906
 1252SOL    HW1 4102   1.633   2.270   1.007  1.8664 -0.8673  1.8015
 1252SOL    HW2 4103   1.520   2.305   1.101  0.5120  0.6701 -0.3142
 1253SOL     OW 4104   3.841   1.479   1.416  0.1355  0.4783  0.1070
 1253SOL    HW1 4105   3.793   1.475   1.498 -0.6279 -1.0052 -0.3780
 1253SOL    HW2 4106   3.918   1.532   1.436 -0.4018  0.7569  1.5718
 1254SOL     OW 4107   2.652   0.727   4.182  0.2949 -0.4138  0.7456
 1254SOL    HW1 4108   2.696   0.664   4.125  0.5928 -0.4998  1.0701
 1254SOL    HW2 4109   2.603   0.673   4.244  0.2671 -0.3211  0.8044
 1255SOL     OW 4110   3.458   1.462   2.079  0.1586  0.1314 -0.2718
 1255SOL    HW1 4111   3.388   1.488   2.138 -1.8930 -0.7172 -2.1908
 1255SOL    HW2 4112   3.492   1.544   2.043 -0.5999  0.5065 -0.1407
 1256SOL     OW 4113   1.064   3.140   1.240  0.1992  0.4013  0.2603
 1256SOL    HW1 4114   1.026   3.115   1.324  0.0587  0.2047  0.1388
 1256SOL    HW2 4115   1.062   3.236   1.241 -1.3119  0.4034 -0.1866
 1257SOL     OW 4116   0.679   1.833   3.891 -0.2360  0.2799  0.3301
 1257SOL    HW1 4117   0.667   1.869   3.803  0.9762 -0.2082 -0.0559
 1257SOL    HW2 4118   0.749   1.769   3.881 -0.7043 -0.4401  1.4812
 1258SOL     OW 4119   0.136   3.106   2.226  0.0133  0.3935 -0.1062
 1258SOL    HW1 4120   0.117   3.112   2.133 -1.5592 -1.2664  0.0565
 1258SOL    HW2 4121   0.072   3.163   2.268  2.2265  3.1104 -0.0604
 1259SOL     OW 4122   2.839   1.609   2.859  0.3270  0.5894 -0.3658
 1259SOL    HW1 4123   2.909   1.658   2.816  1.0149 -0.1015 -0.0686
 1259SOL    HW2 4124   2.849   1.631   2.952  0.6121 -0.0592 -0.2365
 1260SOL     OW 4125   3.056   0.471   3.103 -0.3065 -0.6342 -0.3965
 1260SOL    HW1 4126   3.150   0.461   3.089 -0.0512 -0.9485  1.2813
 1260SOL    HW2 4127   3.023   0.382   3.109 -0.7553 -0.5255 -1.1277
 1261SOL     OW 4128   3.881   2.382   0.988 -0.4680 -0.1918  0.7433
 1261SOL    HW1 4129   3.795   2.360   0.951  0.4099 -0.3282 -1.3780
 1261SOL    HW2 4130   3.890   2.476   0.971 -0.0667 -0.2479  0.6449
 1262SOL     OW 4131   3.013   1.296   3.284  0.2657 -0.7358  0.0307
 1262SOL    HW1 4132   3.059   1.379   3.295  0.4435 -0.5614 -1.6939
 1262SOL    HW2 4133   2.920   1.319   3.292  0.3568 -0.5536  0.5660
 1263SOL     OW 4134   1.425   2.508   0.515 -0.0311 -0.1716 -0.2709
 1263SOL    HW1 4135   1.415   2.575   0.583 -1.6909 -1.3419  0.7325
 1263SOL    HW2 4136   1.496   2.539   0.460 -0.2141  1.9964  0.6338
 1264SOL     OW 4137   3.055   2.795   1.464 -0.5594 -0.0784 -0.0517
 1264SOL    HW1 4138   3.124   2.783   1.399  2.1782 -0.3764  2.7012
 1264SOL    HW2 4139   3.051   2.889   1.478  1.1264 -0.1912  1.5114
 1265SOL     OW 4140   0.144   2.646   1.792 -0.2155  0.2150 -0.5332
 1265SOL    HW1 4141   0.056   2.670   1.821  0.1489  0.3193  0.5087
 1265SOL    HW2 4142   0.203   2.693   1.851  0.5290 -0.8960 -0.3622
 1266SOL     OW 4143   1.396   4.201   1.185  0.0003 -0.4889  0.0145
 1266SOL    HW1 4144   1.436   4.154   1.258  2.0863 -0.3446 -0.9612
 1266SOL    HW2 4145   1.426   4.154   1.107 -3.2489 -1.4481 -0.7904
 1267SOL     OW 4146   1.991   0.950   0.488 -0.7749 -0.0562  0.4038
 1267SOL    HW1 4147   1.909   0.938   0.440  0.0712 -0.8456 -0.8809
 1267SOL    HW2 4148   2.009   1.044   0.481 -1.0246 -0.0524 -0.2077
 1268SOL     OW 4149   2.908   4.152   2.706  0.3277  0.3215 -0.3746
 1268SOL    HW1 4150   2.915   4.133   2.800 -0.1031  0.1837 -0.3660
 1268SOL    HW2 4151   2.998   4.158   2.676  0.4700  0.3430  0.0464
 1269SOL     OW 4152   1.215   3.748   0.705 -0.2937 -0.4992  0.3148
 1269SOL    HW1 4153   1.294   3.725   0.754  1.6336 -0.8611 -2.7150
 1269SOL    HW2 4154   1.193   3.836   0.735  1.6722 -0.1158  0.7700
 1270SOL     OW 4155   1.638   3.651   2.761 -0.0633 -0.1783  0.1817
 1270SOL    HW1 4156   1.604   3.697   2.837 -1.4486 -1.6605  0.5286
 1270SOL    HW2 4157   1.601   3.697   2.686 -0.9416 -0.3425  0.5024
 1271SOL     OW 4158   4.033   3.726   1.815 -0.0072  0.1922  0.0397
 1271SOL    HW1 4159   4.010   3.635   1.831 -0.8642  0.3237 -0.4072
 1271SOL    HW2 4160   4.118   3.737   1.858 -0.5543 -0.4264  1.3201
 1272SOL     OW 4161   2.364   0.869   4.242  0.2611 -0.0299 -0.7352
 1272SOL    HW1 4162   2.411   0.939   4.197  1.9206  0.6021  1.7868
 1272SOL    HW2 4163   2.276   0.903   4.254  0.4136  0.6748 -1.5380
 1273SOL     OW 4164   3.092   2.671   0.404 -0.1327 -0.1542 -0.1773
 1273SOL    HW1 4165   3.034   2.742   0.380 -0.0789  0.0346  0.2425
 1273SOL    HW2 4166   3.171   2.715   0.438  0.2281 -0.4045 -0.6849
 1274SOL     OW 4167   2.419   1.196   2.987  0.0057  0.1337  0.5068
 1274SOL    HW1 4168   2.362   1.122   2.966 -0.0619 -0.1944  1.7672
 1274SOL    HW2 4169   2.497   1.181   2.934 -1.2698  0.9204 -1.7088
 1275SOL     OW 4170   2.214   1.745   3.091  0.0486 -0.1536 -0.2238
 1275SOL    HW1 4171   2.177   1.656   3.085  2.0363 -1.1018  0.6380
 1275SOL    HW2 4172   2.175   1.792   3.018 -2.2640 -1.2555  0.2023
 1276SOL     OW 4173   3.490   1.504   1.238 -0.3285 -0.1843  0.2377
 1276SOL    HW1 4174   3.570   1.479   1.191 -1.3203 -2.1090 -0.5246
 1276SOL    HW2 4175   3.500   1.598   1.252  1.4579 -0.1161 -1.0356
 1277SOL     OW 4176   3.941   0.345   1.340  0.1709  0.5950  0.4364
 1277SOL    HW1 4177   3.875   0.302   1.393  0.3236  0.1463  0.2669
 1277SOL    HW2 4178   4.020   0.346   1.395  0.5098 -0.4391  0.0025
 1278SOL     OW 4179   0.785   2.680   2.470 -0.6314  0.2147  0.4773
 1278SOL    HW1 4180   0.758   2.599   2.428 -0.4578  1.0705 -1.3877
 1278SOL    HW2 4181   0.708   2.737   2.466 -0.1909  0.7970  0.0431
 1279SOL     OW 4182   2.055   0.141   3.092  0.2569  0.3674 -0.5165
 1279SOL    HW1 4183   2.036   0.105   3.005  0.4379  0.1649 -0.4730
 1279SOL    HW2 4184   1.996   0.095   3.151 -0.6093  1.2541 -0.6735
 1280SOL     OW 4185   2.125   1.905   1.067 -0.7015 -0.0073 -0.2290
 1280SOL    HW1 4186   2.162   1.969   1.006 -0.1640  0.3035  0.4199
 1280SOL    HW2 4187   2.188   1.833   1.067 -0.3930  0.2568  0.4126
 1281SOL     OW 4188   3.721   0.320   3.238 -0.4747 -0.4357 -0.3703
 1281SOL    HW1 4189   3.787   0.260   3.204  2.3170  1.7734  0.7399
 1281SOL    HW2 4190   3.668   0.343   3.162  0.9385 -1.2218 -1.6462
 1282SOL     OW 4191   1.068   3.300   3.792 -0.3710  0.2794 -0.7886
 1282SOL    HW1 4192   1.139   3.359   3.770  1.0815 -0.6770  1.0369
 1282SOL    HW2 4193   1.093   3.216   3.753 -0.4986 -0.0555 -0.1654
 1283SOL     OW 4194   1.031   4.020   1.090  0.4504 -0.1377 -0.1607
 1283SOL    HW1 4195   0.952   3.970   1.067 -0.5374  0.4090  1.7703
 1283SOL    HW2 4196   1.000   4.110   1.100  1.3924  0.1473  0.3047
 1284SOL     OW 4197   2.654   1.178   2.793  0.5192  0.3560 -0.1713
 1284SOL    HW1 4198   2.679   1.250   2.736  0.8015 -1.0247 -1.8557
 1284SOL    HW2 4199   2.630   1.107   2.734  0.6252 -1.0746  1.4264
 1285SOL     OW 4200   0.377   0.545   1.130  0.0199  0.3162  0.0389
 1285SOL    HW1 4201   0.392   0.454   1.105  1.3751  0.8753 -1.3156
 1285SOL    HW2 4202   0.327   0.582   1.058  1.7215  1.2770 -0.7112
 1286SOL     OW 4203   4.273   2.332   1.009  0.1099 -0.1054  0.0746
 1286SOL    HW1 4204   4.205   2.338   1.077  0.7772  0.1645  0.7219
 1286SOL    HW2 4205   4.327   2.258   1.036 -0.4694 -0.9367 -0.9558
 1287SOL     OW 4206   0.064   3.060   4.193 -0.0070  0.2311  0.7537
 1287SOL    HW1 4207   0.039   2.968   4.183  0.5024  0.0887  0.7401
 1287SOL    HW2 4208   0.098   3.085   4.107  1.4598 -0.0814  1.2004
 1288SOL     OW 4209   1.516   3.745   2.537  0.4621 -0.1961  0.7478
 1288SOL    HW1 4210   1.429   3.704   2.533  1.0962 -1.5171 -0.9437
 1288SOL    HW2 4211   1.498   3.839   2.530 -0.8491 -0.4404  0.4589
 1289SOL     OW 4212   1.838   1.839   2.802 -0.8815  0.4635 -0.0668
 1289SOL    HW1 4213   1.791   1.756   2.791 -0.5706  0.3494 -0.5173
 1289SOL    HW2 4214   1.901   1.842   2.731 -0.3932  0.7537  0.3683
 1290SOL     OW 4215   3.496   3.920   2.352  0.1681  0.0306 -0.3077
 1290SOL    HW1 4216   3.494   3.842   2.407  3.1461  1.1275  1.6161
 1290SOL    HW2 4217   3.483   3.993   2.412  0.8347  1.1687 -1.4732
 1291SOL     OW 4218   1.296   3.206   0.994 -0.1537 -0.2233  0.2088
 1291SOL    HW1 4219   1.320   3.254   1.074 -0.1673 -0.3319  0.2789
 1291SOL    HW2 4220   1.277   3.117   1.025 -2.6604  0.3263  0.4569
 1292SOL     OW 4221   0.359   1.761   1.912 -0.3202 -0.1778 -0.2090
 1292SOL    HW1 4222   0.304   1.757   1.990 -1.5979  0.4055 -1.0506
 1292SOL    HW2 4223   0.361   1.671   1.879  1.3790 -0.7177  1.2263
 1293SOL     OW 4224   3.446   1.009   0.941 -0.3285  0.0319 -0.5672
 1293SOL    HW1 4225   3.382   1.024   0.871  0.2927  1.7671 -0.8138
 1293SOL    HW2 4226   3.427   0.921   0.973 -0.4453 -0.9554 -3.1174
 1294SOL     OW 4227   1.880   1.300   1.273  0.7254  0.3245  0.3276
 1294SOL    HW1 4228   1.859   1.359   1.346  2.4766  1.9964 -0.4107
 1294SOL    HW2 4229   1.864   1.352   1.194 -2.4247 -1.8822 -0.6758
 1295SOL     OW 4230   2.270   2.642   3.156  0.1148  0.1684  0.3104
 1295SOL    HW1 4231   2.222   2.719   3.184  0.1455 -0.1455  1.2692
 1295SOL    HW2 4232   2.272   2.648   3.060  0.8120  1.7637  0.3934
 1296SOL     OW 4233   0.856   3.006   4.262 -0.3566  0.3599 -0.3924
 1296SOL    HW1 4234   0.823   3.028   4.349 -0.8180  2.4601 -1.0215
 1296SOL    HW2 4235   0.925   3.070   4.245 -0.6591  0.3680 -1.7689
 1297SOL     OW 4236   3.960   3.685   0.443  0.2140  0.2542 -0.5088
 1297SOL    HW1 4237   3.980   3.704   0.351  0.4593  2.5001 -0.0577
 1297SOL    HW2 4238   4.038   3.716   0.491 -1.2460  2.3740  0.6898
 1298SOL     OW 4239   2.831   1.215   0.589  0.3622 -0.4059 -0.9724
 1298SOL    HW1 4240   2.752   1.264   0.566 -0.6196 -1.4743 -0.0243
 1298SOL    HW2 4241   2.863   1.257   0.669  0.4295 -0.3269 -1.0408
 1299SOL     OW 4242   1.672   1.673   2.204  0.5045 -0.7575  0.4094
 1299SOL    HW1 4243   1.749   1.653   2.151 -0.3568 -1.2152 -0.7051
 1299SOL    HW2 4244   1.699   1.747   2.258  0.9089  0.8021 -1.8087
 1300SOL     OW 4245   0.678   3.545   1.220 -0.3869  0.2353 -0.1077
 1300SOL    HW1 4246   0.765   3.537   1.181  0.3115 -1.1098  1.5692
 1300SOL    HW2 4247   0.695   3.577   1.309 -1.7422  1.2659 -0.1903
 1301SOL     OW 4248   1.369   4.162   3.867 -0.4367 -0.8362  0.3933
 1301SOL    HW1 4249   1.424   4.094   3.907  1.3765  0.3067 -0.0193
 1301SOL    HW2 4250   1.395   4.162   3.775  0.1325  0.8866  0.5301
 1302SOL     OW 4251   0.215   1.115   4.025  0.0420 -0.6104 -0.1697
 1302SOL    HW1 4252   0.146   1.160   4.073  0.7835 -0.8321  1.1423
 1302SOL    HW2 4253   0.283   1.098   4.090  1.7676  0.4496 -1.6072
 1303SOL     OW 4254   0.204   3.067   3.602 -0.0639 -0.6177 -0.5039
 1303SOL    HW1 4255   0.212   3.159   3.625 -1.0491 -0.6769  0.1746
 1303SOL    HW2 4256   0.220   3.063   3.508  2.0978 -0.0670 -0.2019
 1304SOL     OW 4257   2.730   3.937   2.714 -0.3157 -0.6641 -0.1568
 1304SOL    HW1 4258   2.642   3.964   2.687  0.1158  1.4019  0.3120
 1304SOL    HW2 4259   2.776   4.019   2.732  2.3096 -1.5207 -2.1891
 1305SOL     OW 4260   0.404   0.521   3.390  0.0797  0.3649  0.1731
 1305SOL    HW1 4261   0.320   0.559   3.366 -0.3957 -0.8958 -0.2327
 1305SOL    HW2 4262   0.387   0.427   3.399  0.7128  0.4428  3.3547
 1306SOL     OW 4263   2.627   0.976   3.323  0.7017 -0.3145 -0.1086
 1306SOL    HW1 4264   2.582   0.924   3.390 -0.1014  0.4230 -0.0679
 1306SOL    HW2 4265   2.719   0.977   3.351  0.1440  1.2896  1.8466
 1307SOL     OW 4266   2.919   1.932   1.380  0.1368  0.2920 -0.6343
 1307SOL    HW1 4267   2.920   2.006   1.318 -0.8652  0.7539 -0.1347
 1307SOL    HW2 4268   2.975   1.866   1.340  1.0656  1.3200 -1.0996
 1308SOL     OW 4269   2.001   3.529   1.450 -0.2897  0.1435  0.0759
 1308SOL    HW1 4270   1.961   3.595   1.394  0.8680  0.8619  0.0601
 1308SOL    HW2 4271   2.056   3.477   1.390 -0.3294 -0.1192  0.2682
 1309SOL     OW 4272   2.555   0.094   1.448  0.0484 -0.5850 -0.2916
 1309SOL    HW1 4273   2.641   0.119   1.481  0.1435  0.5286 -1.3184
 1309SOL    HW2 4274   2.540   0.152   1.373 -0.7961 -2.0329 -1.2951
 1310SOL     OW 4275   2.452   4.199   1.525 -0.1024  0.5689 -0.0153
 1310SOL    HW1 4276   2.372   4.154   1.496  0.7057  0.8074 -2.9551
 1310SOL    HW2 4277   2.434   4.292   1.509  0.1317  0.8255  1.1078
 1311SOL     OW 4278   2.293   3.585   3.060 -0.0375 -0.6907  0.3810
 1311SOL    HW1 4279   2.198   3.586   3.071 -0.0492  0.8035  0.2991
 1311SOL    HW2 4280   2.305   3.599   2.966  0.2468  3.0742  0.8113
 1312SOL     OW 4281   2.528   3.594   3.426  0.2128 -0.4675  0.0390
 1312SOL    HW1 4282   2.448   3.644   3.444 -0.0173 -0.8463  0.0832
 1312SOL    HW2 4283   2.594   3.661   3.406  0.2414 -0.0715  1.3536
 1313SOL     OW 4284   2.114   3.418   3.975  0.2345  0.5979  0.0198
 1313SOL    HW1 4285   2.174   3.438   3.903  1.9055 -0.4955  1.0462
 1313SOL    HW2 4286   2.082   3.330   3.955  0.8767  0.1998  0.6939
 1314SOL     OW 4287   0.009   0.925   3.018 -0.0652  0.4791  0.4658
 1314SOL    HW1 4288  -0.057   0.992   3.034  0.4299  1.4213 -1.1503
 1314SOL    HW2 4289   0.013   0.918   2.922  0.0189 -1.7635  0.5890
 1315SOL     OW 4290   4.085   2.801   0.106  0.5073 -0.5984  0.0931
 1315SOL    HW1 4291   4.158   2.793   0.167  0.4407 -2.3036  0.0015
 1315SOL    HW2 4292   4.070   2.712   0.075 -1.3024 -0.2173 -0.2539
 1316SOL     OW 4293   2.864   3.291   3.664 -0.5205  0.3253  0.1201
 1316SOL    HW1 4294   2.912   3.373   3.654  0.4434 -0.3709 -1.1852
 1316SOL    HW2 4295   2.927   3.223   3.641 -1.9032 -0.6630 -0.8990
 1317SOL     OW 4296   2.843   0.808   3.153  0.0934 -0.5346 -0.1405
 1317SOL    HW1 4297   2.922   0.793   3.205 -0.2389  1.3332  1.0144
 1317SOL    HW2 4298   2.863   0.887   3.102 -1.2518  0.3755  0.6983
 1318SOL     OW 4299   3.770   0.834   3.160  0.3595 -0.5251  0.5768
 1318SOL    HW1 4300   3.728   0.784   3.090 -0.1553 -2.3317  2.0621
 1318SOL    HW2 4301   3.707   0.902   3.183  1.2038  1.1508 -1.7040
 1319SOL     OW 4302   3.659   3.125   2.600  0.2185  0.3637  0.1174
 1319SOL    HW1 4303   3.623   3.114   2.512  0.1901  1.2750  0.0074
 1319SOL    HW2 4304   3.588   3.098   2.658 -0.3212  1.2374 -0.1179
 1320SOL     OW 4305   3.150   4.157   3.078 -0.5014 -0.4906 -0.1911
 1320SOL    HW1 4306   3.144   4.184   3.169 -0.3317  1.6688 -0.7663
 1320SOL    HW2 4307   3.234   4.111   3.072 -0.4660 -0.5541  0.7070
 1321SOL     OW 4308   4.341   2.892   1.626  0.7303  0.2547 -0.0646
 1321SOL    HW1 4309   4.329   2.958   1.557  0.3470  1.0256  0.7213
 1321SOL    HW2 4310   4.427   2.855   1.609  0.0931 -0.5797 -1.8042
 1322SOL     OW 4311   1.287   3.267   0.396  0.2047 -0.0971  0.1575
 1322SOL    HW1 4312   1.323   3.178   0.398  1.5684  0.4387  0.5842
 1322SOL    HW2 4313   1.230   3.272   0.472 -2.0154 -1.4184 -1.3059
 1323SOL     OW 4314   3.979   0.456   1.924 -0.4270 -0.4353  0.1276
 1323SOL    HW1 4315   3.926   0.533   1.901 -1.2966 -0.9245  0.4683
 1323SOL    HW2 4316   3.980   0.404   1.843  1.3266  0.5644 -0.5487
 1324SOL     OW 4317   2.874   1.427   4.166  0.2868  0.1226 -0.5249
 1324SOL    HW1 4318   2.794   1.469   4.198 -1.0246 -0.6248 -2.6056
 1324SOL    HW2 4319   2.945   1.469   4.214 -1.4245 -0.5237  2.8645
 1325SOL     OW 4320   3.969   1.985   0.375  0.3140 -0.3213  0.2794
 1325SOL    HW1 4321   4.058   1.956   0.393  1.5062  1.5752 -1.9123
 1325SOL    HW2 4322   3.921   1.905   0.357  1.7742 -1.3507  0.7519
 1326SOL     OW 4323   0.492   3.449   0.232 -0.1616  0.0683  0.4829
 1326SOL    HW1 4324   0.401   3.473   0.216  0.0226  0.9795  0.7251
 1326SOL    HW2 4325   0.490   3.404   0.316 -0.6662 -1.8002 -0.4787
 1327SOL     OW 4326   4.013   1.153   4.049  0.1060  0.6391  0.2034
 1327SOL    HW1 4327   4.050   1.087   3.990 -0.6426  0.3645  0.0276
 1327SOL    HW2 4328   3.955   1.204   3.993 -1.5745 -0.3962  0.9243
 1328SOL     OW 4329   3.489   3.251   1.453  0.9510  0.6327  0.3540
 1328SOL    HW1 4330   3.574   3.219   1.425  0.9441  0.7567  0.1932
 1328SOL    HW2 4331   3.459   3.308   1.382 -1.3244 -2.9204 -1.8618
 1329SOL     OW 4332   2.391   2.529   0.274  0.0848 -0.9490  0.4911
 1329SOL    HW1 4333   2.373   2.562   0.362  0.0066  0.3049  0.0224
 1329SOL    HW2 4334   2.310   2.547   0.224 -0.6648 -3.4893  0.6325
 1330SOL     OW 4335   2.856   1.982   4.033  0.5175 -0.1689 -0.8410
 1330SOL    HW1 4336   2.769   1.956   4.005  0.1461  0.9013 -0.7421
 1330SOL    HW2 4337   2.903   1.900   4.049 -0.7376 -0.7600 -0.0664
 1331SOL     OW 4338   3.975   1.620   2.355  0.2060  0.2229  0.2782
 1331SOL    HW1 4339   3.900   1.594   2.302  0.2357  0.0798  0.3044
 1331SOL    HW2 4340   4.014   1.537   2.382  3.9230 -0.1273 -4.6485
 1332SOL     OW 4341   1.540   3.409   2.738 -0.1040 -0.2903 -0.9249
 1332SOL    HW1 4342   1.586   3.492   2.742  0.2473 -0.5211  0.0868
 1332SOL    HW2 4343   1.498   3.409   2.652 -0.3634  1.0596 -0.8151
 1333SOL     OW 4344   3.193   2.745   2.940 -0.4996  0.2416  0.0956
 1333SOL    HW1 4345   3.235   2.659   2.952 -1.7334 -0.3936  0.0383
 1333SOL    HW2 4346   3.131   2.751   3.012  0.0169  1.3755  0.4567
 1334SOL     OW 4347   4.344   1.885   3.404 -0.1459  0.1012  0.3010
 1334SOL    HW1 4348   4.287   1.809   3.409 -0.5546  0.4017  0.2355
 1334SOL    HW2 4349   4.317   1.941   3.476  0.2171  0.1496  0.4053
 1335SOL     OW 4350   0.419   3.046   4.018  0.6816 -0.4115  0.1713
 1335SOL    HW1 4351   0.502   3.022   4.059  1.2104  1.7935  0.5176
 1335SOL    HW2 4352   0.423   3.141   4.009 -1.0992 -0.4234 -1.3979
 1336SOL     OW 4353   1.962   3.905   3.690 -0.0760 -0.1573 -0.1607
 1336SOL    HW1 4354   1.940   3.822   3.648  0.9639  0.0348 -1.1378
 1336SOL    HW2 4355   1.965   3.884   3.783 -2.1536 -0.6590 -0.1633
 1337SOL     OW 4356   0.018   0.378   3.162 -0.0729  0.1606 -0.3886
 1337SOL    HW1 4357   0.009   0.376   3.257  0.7562 -0.0557 -0.3061
 1337SOL    HW2 4358   0.111   0.361   3.147 -0.0531  0.9597 -1.2085
 1338SOL     OW 4359   2.312   0.519   0.581  0.3632 -0.5415 -0.0411
 1338SOL    HW1 4360   2.217   0.522   0.581  0.3571  0.1189  1.8186
 1338SOL    HW2 4361   2.337   0.560   0.498 -0.9347 -0.3965 -0.3871
 1339SOL     OW 4362   1.735   3.586   3.852  0.1807 -0.1398 -0.0413
 1339SOL    HW1 4363   1.784   3.593   3.933  0.7397  0.1021 -0.3930
 1339SOL    HW2 4364   1.656   3.537   3.875 -0.3662  1.1503  0.9577
 1340SOL     OW 4365   2.541   3.295   4.164 -0.2727 -0.5475  0.4387
 1340SOL    HW1 4366   2.468   3.247   4.203  0.3831 -1.6114  0.4164
 1340SOL    HW2 4367   2.605   3.303   4.235 -1.3157  2.4850  1.1622
 1341SOL     OW 4368   2.671   3.769   2.113 -0.5507 -0.1659  0.5357
 1341SOL    HW1 4369   2.661   3.816   2.030  0.5673  0.3892  0.6922
 1341SOL    HW2 4370   2.632   3.683   2.096  0.8233 -0.5549 -1.0210
 1342SOL     OW 4371   2.428   3.969   2.426 -0.0484 -0.3971 -0.2996
 1342SOL    HW1 4372   2.363   3.953   2.358  0.3090  0.0856 -0.7708
 1342SOL    HW2 4373   2.389   3.933   2.506 -1.4258  0.9403 -0.3163
 1343SOL     OW 4374   4.158   0.136   2.375  0.0518 -0.2421 -0.2920
 1343SOL    HW1 4375   4.156   0.171   2.286  2.2578  0.0112 -0.2781
 1343SOL    HW2 4376   4.128   0.045   2.366 -1.4739  0.2939 -0.9742
 1344SOL     OW 4377   2.447   2.253   0.490 -0.0636 -0.2193  0.0009
 1344SOL    HW1 4378   2.520   2.253   0.551  0.6386  0.3234 -0.8078
 1344SOL    HW2 4379   2.376   2.296   0.537  0.6226  0.6462  0.2679
 1345SOL     OW 4380   3.045   0.689   0.620  0.5854  0.2738  0.1988
 1345SOL    HW1 4381   3.004   0.681   0.533  1.6142 -1.9245 -0.1434
 1345SOL    HW2 4382   3.000   0.763   0.660 -0.8335  0.5392 -1.7097
 1346SOL     OW 4383   0.408   1.464   2.839 -0.2439  0.3523  0.5554
 1346SOL    HW1 4384   0.494   1.424   2.844 -0.1057  0.5967  0.1505
 1346SOL    HW2 4385   0.369   1.426   2.760  0.7835  2.7411 -1.2082
 1347SOL     OW 4386   2.220   0.374   3.671 -0.4322  0.3812  0.5931
 1347SOL    HW1 4387   2.303   0.423   3.672  0.4107 -0.9733  0.0793
 1347SOL    HW2 4388   2.154   0.438   3.698  0.7096  1.6230  0.5582
 1348SOL     OW 4389   3.780   0.942   0.343  0.1410 -0.2101  0.0033
 1348SOL    HW1 4390   3.766   0.862   0.392  2.5194 -0.1104  0.9777
 1348SOL    HW2 4391   3.765   1.012   0.406 -1.1471  0.1236 -0.6353
 1349SOL     OW 4392   0.573   1.572   2.038 -0.0733 -0.3161 -0.1226
 1349SOL    HW1 4393   0.477   1.569   2.041 -0.1562  1.4257  0.2029
 1349SOL    HW2 4394   0.593   1.665   2.033  1.6312 -0.6172  0.5749
 1350SOL     OW 4395   3.881   3.169   4.094  0.3747 -0.1846 -0.2073
 1350SOL    HW1 4396   3.828   3.140   4.169  1.0209 -1.4822 -0.2339
 1350SOL    HW2 4397   3.862   3.106   4.025  3.1328 -1.7224  0.2855
 1351SOL     OW 4398   1.190   3.847   2.687  0.3739 -0.1976 -0.8708
 1351SOL    HW1 4399   1.101   3.846   2.720  0.4743  0.0509 -0.5852
 1351SOL    HW2 4400   1.206   3.939   2.664  1.0841  0.0499  0.5442
 1352SOL     OW 4401   3.868   0.919   3.496 -0.3367  0.1574  0.0352
 1352SOL    HW1 4402   3.802   0.850   3.497 -1.5861  1.3086 -0.2639
 1352SOL    HW2 4403   3.922   0.900   3.419 -0.6751 -0.4484 -0.0569
 1353SOL     OW 4404   1.688   1.272   1.985 -0.1409 -0.5504  0.5673
 1353SOL    HW1 4405   1.636   1.317   1.919 -0.6954 -0.4087  1.0929
 1353SOL    HW2 4406   1.778   1.295   1.964 -0.3375 -0.1751  0.1058
 1354SOL     OW 4407   3.653   3.688   2.114  0.4964  0.2000 -0.0384
 1354SOL    HW1 4408   3.686   3.600   2.094  1.5069  0.5172  0.1493
 1354SOL    HW2 4409   3.661   3.736   2.031 -2.3318 -0.5098 -0.8191
 1355SOL     OW 4410   0.409   3.127   2.218  0.2335 -0.0031  0.3804
 1355SOL    HW1 4411   0.313   3.126   2.223  0.1573  1.5773 -0.3818
 1355SOL    HW2 4412   0.429   3.143   2.126  1.3119 -2.7685  0.0224
 1356SOL     OW 4413   3.385   3.188   3.714  0.0892  0.5333 -0.5214
 1356SOL    HW1 4414   3.332   3.109   3.708  0.7003  0.0117  0.6063
 1356SOL    HW2 4415   3.468   3.159   3.751  0.2012  1.7508  0.2569
 1357SOL     OW 4416   1.132   1.864   2.946  0.3039  0.2288 -0.0366
 1357SOL    HW1 4417   1.063   1.802   2.922  0.1849 -0.1833  1.2802
 1357SOL    HW2 4418   1.212   1.812   2.946  0.1946  0.0404  1.1317
 1358SOL     OW 4419   1.820   4.229   0.045  0.0325  0.0537  0.4838
 1358SOL    HW1 4420   1.745   4.288   0.043 -0.9034 -1.1022  0.4572
 1358SOL    HW2 4421   1.849   4.224  -0.046 -1.7125 -1.7455 -0.0379
 1359SOL     OW 4422   2.533   0.879   3.991 -0.0373  0.3947  0.0544
 1359SOL    HW1 4423   2.523   0.965   4.032 -1.4367  0.2174  0.1332
 1359SOL    HW2 4424   2.567   0.823   4.061 -0.4727  0.5634  0.4068
 1360SOL     OW 4425   3.074   2.282   1.368  0.3863  0.1993  0.4572
 1360SOL    HW1 4426   3.022   2.228   1.309 -1.2564  0.1211  1.9106
 1360SOL    HW2 4427   3.099   2.358   1.316 -0.4761 -0.1623 -0.5112
 1361SOL     OW 4428   0.481   0.435   2.608 -0.3146 -0.0392 -0.3924
 1361SOL    HW1 4429   0.446   0.432   2.519 -0.3977  0.1577 -0.3669
 1361SOL    HW2 4430   0.455   0.521   2.642  0.2356  0.1352 -0.3926
 1362SOL     OW 4431   0.258   2.595   3.193  0.1450  0.0973  0.4056
 1362SOL    HW1 4432   0.179   2.647   3.203 -0.1879 -0.3805  0.3111
 1362SOL    HW2 4433   0.241   2.540   3.116  0.7532  0.3237  0.1021
 1363SOL     OW 4434   3.791   3.468   1.716 -0.0971 -0.4422  0.2544
 1363SOL    HW1 4435   3.782   3.550   1.667 -1.4673 -1.1803 -0.7937
 1363SOL    HW2 4436   3.865   3.424   1.675  0.0247 -0.1675  0.1766
 1364SOL     OW 4437   1.908   1.173   1.690 -0.2335 -0.5362 -0.3719
 1364SOL    HW1 4438   1.954   1.234   1.749 -1.2893  0.7134 -0.8083
 1364SOL    HW2 4439   1.942   1.194   1.603  0.2845 -1.4262 -0.4020
 1365SOL     OW 4440   2.166   1.002   2.593 -0.3342  0.1454  0.1170
 1365SOL    HW1 4441   2.218   1.074   2.629  0.5770 -0.7399  0.6431
 1365SOL    HW2 4442   2.114   1.042   2.523 -0.1023  1.3692  0.6257
 1366SOL     OW 4443   3.396   3.934   2.097 -0.1093 -0.1528 -0.0653
 1366SOL    HW1 4444   3.331   3.866   2.077  0.7257 -0.6210 -1.3276
 1366SOL    HW2 4445   3.429   3.911   2.183 -0.9966 -0.3978  0.2254
 1367SOL     OW 4446   3.332   4.269   0.550 -0.4212 -0.3575  0.2237
 1367SOL    HW1 4447   3.392   4.273   0.476 -1.2324 -0.3899 -0.4454
 1367SOL    HW2 4448   3.246   4.285   0.513 -0.8347 -0.2632  1.1771
 1368SOL     OW 4449   3.178   1.692   2.833 -0.4555  0.0399 -0.2091
 1368SOL    HW1 4450   3.151   1.764   2.890 -0.0284 -0.9495  1.2969
 1368SOL    HW2 4451   3.187   1.617   2.891 -1.3413 -1.3820 -1.7939
 1369SOL     OW 4452   4.206   0.437   3.724 -0.0438 -0.0798 -0.1601
 1369SOL    HW1 4453   4.125   0.474   3.759 -1.0218 -2.1050 -0.1738
 1369SOL    HW2 4454   4.179   0.358   3.678  1.9939 -1.1080  0.3085
 1370SOL     OW 4455   0.395   4.301   4.357 -1.2131  0.9289 -0.1371
 1370SOL    HW1 4456   0.428   4.387   4.383 -0.4118  0.6712 -0.2809
 1370SOL    HW2 4457   0.362   4.262   4.438  2.1916 -0.3009  0.8569
 1371SOL     OW 4458   3.328   3.965   0.540  0.0173  0.8020  0.4194
 1371SOL    HW1 4459   3.396   4.026   0.567  0.6352  0.4487 -0.3117
 1371SOL    HW2 4460   3.374   3.897   0.491 -0.6579 -0.2440  1.1898
 1372SOL     OW 4461   2.721   1.746   1.182  0.5302  0.3700 -0.7710
 1372SOL    HW1 4462   2.639   1.717   1.222  1.8180 -2.1828  0.2065
 1372SOL    HW2 4463   2.762   1.800   1.249  1.7575 -2.2641  0.7272
 1373SOL     OW 4464   2.290   4.043   0.043  0.1263 -0.2543  0.3241
 1373SOL    HW1 4465   2.254   4.123   0.080 -0.5165 -0.0758 -0.6475
 1373SOL    HW2 4466   2.375   4.070   0.007 -0.5848  0.2754 -1.0175
 1374SOL     OW 4467   0.783   1.799   2.132 -0.2091  0.8502  0.5091
 1374SOL    HW1 4468   0.744   1.792   2.219  0.2055  0.3830  0.6616
 1374SOL    HW2 4469   0.733   1.869   2.089  0.0478  1.5754  1.3652
 1375SOL     OW 4470   0.283   0.780   1.644  0.4398 -0.1194 -0.3814
 1375SOL    HW1 4471   0.203   0.728   1.632  0.9713 -0.8081 -1.0208
 1375SOL    HW2 4472   0.342   0.750   1.575  1.2432  0.4046  0.0606
 1376SOL     OW 4473   4.257   0.779   0.837 -0.0851  0.2896  0.1693
 1376SOL    HW1 4474   4.194   0.739   0.897 -0.7816  1.4321  0.2300
 1376SOL    HW2 4475   4.331   0.804   0.892 -0.5304  0.9235  0.4936
 1377SOL     OW 4476   2.787   0.234   1.514  0.0531 -0.3329  0.1678
 1377SOL    HW1 4477   2.879   0.209   1.516  0.2489  0.3585 -0.2337
 1377SOL    HW2 4478   2.779   0.302   1.581  0.2612  1.0283 -1.1400
 1378SOL     OW 4479   0.664   0.312   1.772 -0.1737 -0.1040 -0.3044
 1378SOL    HW1 4480   0.760   0.315   1.774 -0.1360  1.5086 -1.9774
 1378SOL    HW2 4481   0.637   0.403   1.762 -1.8677 -0.6128 -0.7022
 1379SOL     OW 4482   1.834   3.583   1.220 -0.6615  0.1448  0.1622
 1379SOL    HW1 4483   1.758   3.628   1.257 -0.6383 -0.2130  0.6498
 1379SOL    HW2 4484   1.800   3.497   1.194 -0.4846  0.0891  0.1178
 1380SOL     OW 4485   0.223   1.191   2.514  0.0510  0.1303 -0.1645
 1380SOL    HW1 4486   0.170   1.113   2.528 -1.7103  1.0024 -1.5459
 1380SOL    HW2 4487   0.243   1.190   2.420 -0.7383  1.7392 -0.3876
 1381SOL     OW 4488   1.527   2.273   2.419  0.3203  0.2279 -0.2690
 1381SOL    HW1 4489   1.588   2.331   2.373  0.4817  0.3337  0.0743
 1381SOL    HW2 4490   1.500   2.323   2.496  0.6105 -0.2268  0.1349
 1382SOL     OW 4491   3.831   2.176   1.173 -0.2177 -0.2166  0.1640
 1382SOL    HW1 4492   3.823   2.258   1.124  0.3795 -0.7832 -0.9085
 1382SOL    HW2 4493   3.755   2.176   1.232  0.5495  1.8141  1.2864
 1383SOL     OW 4494   3.287   2.843   4.101  0.1775 -0.1703 -0.4548
 1383SOL    HW1 4495   3.230   2.862   4.175  0.0514 -0.1733 -0.5504
 1383SOL    HW2 4496   3.372   2.880   4.125  0.8920 -2.4718  0.8445
 1384SOL     OW 4497   0.803   3.505   1.493  0.1707 -0.3857 -0.1611
 1384SOL    HW1 4498   0.765   3.434   1.545  0.0388 -1.2028 -1.3403
 1384SOL    HW2 4499   0.853   3.461   1.424  1.1991  0.6747 -0.1377
 1385SOL     OW 4500   3.575   4.158   2.737 -0.3229  0.9844 -0.0428
 1385SOL    HW1 4501   3.523   4.114   2.804 -0.0480 -0.7065 -0.8917
 1385SOL    HW2 4502   3.511   4.195   2.677 -0.6138 -0.4887 -0.6997
 1386SOL     OW 4503   1.378   2.680   2.519 -0.0332  0.1249 -0.6575
 1386SOL    HW1 4504   1.352   2.699   2.429 -1.7769 -0.2030 -0.2511
 1386SOL    HW2 4505   1.297   2.685   2.569  1.1503  2.2911  1.2704
 1387SOL     OW 4506   2.714   2.952   2.291  0.5040  0.0481 -0.1362
 1387SOL    HW1 4507   2.743   2.892   2.359 -0.8294  0.3074  0.6885
 1387SOL    HW2 4508   2.674   3.025   2.338 -0.5235  0.1891 -1.1698
 1388SOL     OW 4509   2.186   3.162   2.373  0.3124 -0.1167 -0.0621
 1388SOL    HW1 4510   2.103   3.176   2.327 -0.0526  2.2925  1.1549
 1388SOL    HW2 4511   2.184   3.069   2.398 -0.9852 -0.6455 -1.9365
 1389SOL     OW 4512   3.472   3.560   1.525  0.1409  0.2497 -0.0577
 1389SOL    HW1 4513   3.459   3.576   1.431 -1.6231  3.7813  0.6528
 1389SOL    HW2 4514   3.397   3.505   1.550 -0.2518  0.6060 -0.4296
 1390SOL     OW 4515   0.894   3.410   3.534  0.8485 -0.1034  0.0722
 1390SOL    HW1 4516   0.852   3.489   3.499 -2.0811 -1.0888  1.0579
 1390SOL    HW2 4517   0.929   3.437   3.619  0.1608  0.2273  0.2556
 1391SOL     OW 4518   0.652   0.072   2.433  0.6224 -0.1276 -0.3781
 1391SOL    HW1 4519   0.637   0.158   2.392  1.7365 -0.3916 -1.3993
 1391SOL    HW2 4520   0.571   0.023   2.416  0.6723  0.1213 -1.3886
 1392SOL     OW 4521   3.279   4.309   2.850 -0.0907 -0.1957 -0.7025
 1392SOL    HW1 4522   3.243   4.345   2.931 -0.8018  0.6015 -1.3547
 1392SOL    HW2 4523   3.325   4.230   2.877  0.0065  0.2636  0.5327
 1393SOL     OW 4524   3.340   2.839   1.661 -0.2065  0.3733 -0.1773
 1393SOL    HW1 4525   3.335   2.901   1.588  0.6884  1.8478  0.9402
 1393SOL    HW2 4526   3.331   2.753   1.621  4.2121  0.7686 -2.6332
 1394SOL     OW 4527   0.929   0.283   0.498  0.2364 -0.2009  0.3717
 1394SOL    HW1 4528   0.867   0.350   0.526  0.1297  0.2543 -0.8755
 1394SOL    HW2 4529   0.938   0.296   0.404  0.8648 -1.4058  0.2344
 1395SOL     OW 4530   0.636   3.149   2.346 -0.4712 -0.5571 -0.4285
 1395SOL    HW1 4531   0.551   3.142   2.302 -0.6398  0.1931 -0.2323
 1395SOL    HW2 4532   0.617   3.196   2.428 -0.0507 -1.3594  0.1420
 1396SOL     OW 4533   0.941   2.580   1.378 -0.0887  0.4694 -0.6481
 1396SOL    HW1 4534   0.874   2.540   1.322 -0.4032 -2.1302  1.3777
 1396SOL    HW2 4535   1.005   2.510   1.392  0.5504  1.3767  1.2859
 1397SOL     OW 4536   3.568   2.524   2.662  0.4489 -0.0111  0.3041
 1397SOL    HW1 4537   3.500   2.511   2.728  2.9702  1.5090  3.4850
 1397SOL    HW2 4538   3.620   2.444   2.665  0.1671 -0.2330 -0.4299
 1398SOL     OW 4539   2.989   1.026   3.088 -0.6929  0.3850  0.4042
 1398SOL    HW1 4540   3.027   1.041   3.001  0.6499 -0.0654  0.8868
 1398SOL    HW2 4541   2.923   1.094   3.097  0.3637  1.5518 -0.2920
 1399SOL     OW 4542   4.012   0.196   0.030 -0.0056 -0.0796  0.2388
 1399SOL    HW1 4543   4.081   0.163  -0.027  0.6250  2.6277 -0.7387
 1399SOL    HW2 4544   4.051   0.273   0.073 -1.4818 -0.2175  1.9571
 1400SOL     OW 4545   0.820   3.883   0.908  0.5780  0.2579  0.4645
 1400SOL    HW1 4546   0.728   3.893   0.934 -0.3793 -1.4542 -1.8787
 1400SOL    HW2 4547   0.831   3.946   0.837  0.8504 -0.3651 -0.0525
 1401SOL     OW 4548   1.747   0.820   0.087  0.1402  0.0957 -0.2477
 1401SOL    HW1 4549   1.683   0.776   0.031 -1.5209  1.5828  0.3811
 1401SOL    HW2 4550   1.754   0.908   0.051 -3.1470  2.0986  3.2668
 1402SOL     OW 4551   2.954   1.319   1.111  0.6181 -0.2466 -0.3052
 1402SOL    HW1 4552   2.971   1.403   1.153  0.4232 -0.1532 -0.4083
 1402SOL    HW2 4553   2.937   1.259   1.183  3.3550 -0.8428 -0.0420
 1403SOL     OW 4554   2.002   0.252   1.071  0.0678  0.1361  0.2034
 1403SOL    HW1 4555   1.995   0.338   1.113 -0.1780  0.4064 -0.3785
 1403SOL    HW2 4556   2.043   0.196   1.137  2.2517  1.2185 -0.1531
 1404SOL     OW 4557   2.886   2.552   0.582 -0.0586  0.0950 -0.1197
 1404SOL    HW1 4558   2.901   2.459   0.600 -0.2806 -0.2616 -1.6503
 1404SOL    HW2 4559   2.963   2.579   0.531  0.1593  0.8471  0.5809
 1405SOL     OW 4560   0.786   1.901   2.873  0.1855  0.0547 -0.2490
 1405SOL    HW1 4561   0.837   1.969   2.828 -0.2651 -0.6346 -1.8611
 1405SOL    HW2 4562   0.695   1.922   2.852 -0.6741  2.8356  4.6978
 1406SOL     OW 4563   2.398   2.096   1.334 -0.2644  0.9101  0.1460
 1406SOL    HW1 4564   2.386   2.183   1.374 -1.3882  0.7656  0.1440
 1406SOL    HW2 4565   2.467   2.110   1.269  0.3851  1.5358  0.9300
 1407SOL     OW 4566   0.138   0.860   0.972 -0.3972 -0.0188 -0.3893
 1407SOL    HW1 4567   0.145   0.861   1.068 -1.8920  1.8774 -0.2403
 1407SOL    HW2 4568   0.194   0.788   0.945  1.2266  0.3102  1.8131
 1408SOL     OW 4569   0.115   2.071   1.430  0.4224 -0.2649 -0.6942
 1408SOL    HW1 4570   0.059   2.148   1.441 -0.3868 -0.9911  0.5533
 1408SOL    HW2 4571   0.163   2.064   1.512  1.7162 -0.1733 -1.4108
 1409SOL     OW 4572   1.651   2.025   4.358  0.3134 -0.0263  0.7001
 1409SOL    HW1 4573   1.689   1.993   4.440  2.9548 -0.3806 -0.5602
 1409SOL    HW2 4574   1.726   2.044   4.302 -1.3695  1.0905 -1.3411
 1410SOL     OW 4575   0.156   3.748   1.533  0.4653 -0.0432  0.1769
 1410SOL    HW1 4576   0.068   3.763   1.569 -0.1615 -1.2644 -0.8053
 1410SOL    HW2 4577   0.188   3.836   1.513 -1.0302  0.3615 -0.5902
 1411SOL     OW 4578   4.351   1.563   4.359 -0.3956 -0.1166 -0.1763
 1411SOL    HW1 4579   4.289   1.636   4.364 -1.3169 -0.8285 -0.7872
 1411SOL    HW2 4580   4.399   1.578   4.278  0.8475  0.8838  0.7091
 1412SOL     OW 4581   0.964   0.070   2.267 -0.6871 -0.3063 -0.4446
 1412SOL    HW1 4582   0.890   0.089   2.325 -1.1658 -3.0026 -0.0621
 1412SOL    HW2 4583   1.041   0.078   2.323 -1.0913 -2.1231  0.4335
 1413SOL     OW 4584   1.801   3.917   4.115 -0.3044  0.1770 -0.6440
 1413SOL    HW1 4585   1.869   3.860   4.080 -1.0495 -0.0884 -1.7272
 1413SOL    HW2 4586   1.848   3.981   4.168  0.6019 -1.0692  0.1028
 1414SOL     OW 4587   0.604   0.274   2.248 -0.2259  0.6740 -0.5052
 1414SOL    HW1 4588   0.657   0.353   2.256 -1.0110  1.0837  0.8219
 1414SOL    HW2 4589   0.635   0.233   2.167  1.9071  1.0438  0.0605
 1415SOL     OW 4590   0.067   3.938   1.857  0.3076 -0.3358  0.3566
 1415SOL    HW1 4591   0.058   4.006   1.790  0.0012 -0.5865  0.1387
 1415SOL    HW2 4592   0.147   3.892   1.834  0.3263 -0.2736  0.2967
 1416SOL     OW 4593   0.004   4.145   0.482 -0.0635 -0.3401 -0.1321
 1416SOL    HW1 4594   0.058   4.146   0.561  1.5667 -1.2858 -1.1502
 1416SOL    HW2 4595   0.044   4.212   0.426  0.8862 -1.8728 -1.3668
 1417SOL     OW 4596   3.554   1.241   0.323 -0.4785  0.1913 -0.1736
 1417SOL    HW1 4597   3.542   1.161   0.374 -1.6681  0.2550 -0.3131
 1417SOL    HW2 4598   3.602   1.214   0.245 -0.7851 -0.3663 -0.1717
 1418SOL     OW 4599   0.758   2.355   1.282 -0.0317  0.3434  0.4095
 1418SOL    HW1 4600   0.745   2.428   1.220 -1.1843  0.9948  1.3714
 1418SOL    HW2 4601   0.673   2.345   1.325  0.2718 -1.2203  0.7025
 1419SOL     OW 4602   3.812   0.265   2.802 -0.8936  0.1217  0.5574
 1419SOL    HW1 4603   3.906   0.261   2.787 -0.9537  0.7338 -0.0032
 1419SOL    HW2 4604   3.780   0.177   2.781 -1.2001  1.1218 -4.6154
 1420SOL     OW 4605   0.953   1.434   2.450  0.2874 -0.0440  0.0306
 1420SOL    HW1 4606   0.970   1.414   2.542 -1.4663  1.2485  0.6867
 1420SOL    HW2 4607   0.955   1.530   2.445  0.3185 -0.0924 -1.2767
 1421SOL     OW 4608   1.061   0.530   3.704  0.8182 -0.4662 -0.1967
 1421SOL    HW1 4609   1.039   0.471   3.631 -0.1967  1.0715 -1.1803
 1421SOL    HW2 4610   1.009   0.608   3.688  1.7425  0.5128  1.3674
 1422SOL     OW 4611   3.809   2.183   0.140 -0.7060  0.1835 -0.2183
 1422SOL    HW1 4612   3.818   2.090   0.117 -0.6509 -0.0961  0.8799
 1422SOL    HW2 4613   3.743   2.216   0.080 -0.1235 -0.3599 -1.1843
 1423SOL     OW 4614   3.923   0.827   0.744  0.0112 -0.6557  0.2356
 1423SOL    HW1 4615   3.950   0.745   0.785  2.3503  0.1931  0.5713
 1423SOL    HW2 4616   3.996   0.850   0.686 -0.2036  1.5811  0.7706
 1424SOL     OW 4617   0.950   1.322   1.244 -0.4203 -0.8082  0.0593
 1424SOL    HW1 4618   0.963   1.229   1.229  1.2408 -0.6867  0.5329
 1424SOL    HW2 4619   0.976   1.364   1.162  1.5595 -0.6197  0.7280
 1425SOL     OW 4620   3.962   1.976   3.611 -0.0052  0.3600  0.2698
 1425SOL    HW1 4621   3.916   1.904   3.568  1.0895 -0.1620 -0.0640
 1425SOL    HW2 4622   3.956   2.048   3.549  0.2047  0.0880 -0.0705
 1426SOL     OW 4623   3.444   0.829   4.186 -0.5521  0.1684  0.0057
 1426SOL    HW1 4624   3.427   0.898   4.250  0.0136 -0.7692  1.1814
 1426SOL    HW2 4625   3.500   0.871   4.120 -0.4170  0.8918  0.5733
 1427SOL     OW 4626   0.714   1.273   2.501  0.0467 -0.2457 -0.2087
 1427SOL    HW1 4627   0.779   1.331   2.462 -0.1710  2.6822  3.2668
 1427SOL    HW2 4628   0.766   1.211   2.553  0.1539 -0.3478 -0.4355
 1428SOL     OW 4629   4.251   2.941   3.410 -0.2527 -0.4008 -0.4139
 1428SOL    HW1 4630   4.283   3.031   3.403  0.9753 -0.8544 -0.9436
 1428SOL    HW2 4631   4.254   2.922   3.504 -0.5534  0.1034 -0.2930
 1429SOL     OW 4632   1.613   1.977   0.920 -0.2991  0.7608 -0.5174
 1429SOL    HW1 4633   1.664   1.947   0.844 -1.5113 -0.6139 -0.8388
 1429SOL    HW2 4634   1.580   2.063   0.894  2.2756  1.9868 -0.0557
 1430SOL     OW 4635   3.736   0.662   3.507  0.1245 -0.0125  0.2884
 1430SOL    HW1 4636   3.669   0.718   3.468  0.2800  0.2901  0.4555
 1430SOL    HW2 4637   3.697   0.574   3.505 -0.7383  0.3170  1.4009
 1431SOL     OW 4638   4.251   0.032   0.922 -0.6669 -0.2832  0.2144
 1431SOL    HW1 4639   4.262   0.121   0.890 -1.2825  0.6195  2.3389
 1431SOL    HW2 4640   4.196  -0.011   0.856 -1.5466  1.3487 -0.1637
 1432SOL     OW 4641   2.283   2.698   2.550  0.1352  0.3168  0.8454
 1432SOL    HW1 4642   2.341   2.767   2.581 -0.6417  1.4870 -0.2077
 1432SOL    HW2 4643   2.221   2.742   2.491 -1.0134 -1.0997  0.9097
 1433SOL     OW 4644   4.242   1.261   3.732 -0.0428  0.0176 -0.3543
 1433SOL    HW1 4645   4.319   1.306   3.767 -1.8889  1.1351  2.5969
 1433SOL    HW2 4646   4.205   1.322   3.668 -0.5606  1.2334  1.0488
 1434SOL     OW 4647   1.127   0.650   1.461  0.2672  0.3879 -0.3461
 1434SOL    HW1 4648   1.111   0.596   1.383  1.6061  2.2190 -1.9887
 1434SOL    HW2 4649   1.096   0.737   1.436 -0.6723  0.7320  1.7801
 1435SOL     OW 4650   0.981   3.077   3.410 -0.0673 -0.1240 -0.2488
 1435SOL    HW1 4651   1.029   3.120   3.340  0.0109 -2.3788 -1.6700
 1435SOL    HW2 4652   1.037   3.086   3.487  1.5195 -0.6446 -1.3098
 1436SOL     OW 4653   1.947   2.172   2.631 -0.4678  0.3811 -0.2275
 1436SOL    HW1 4654   1.949   2.250   2.575  0.6753  2.1045  2.0025
 1436SOL    HW2 4655   1.896   2.200   2.708 -1.8351 -1.8118 -0.2400
 1437SOL     OW 4656   3.446   3.704   1.027  0.1474  0.2838  0.2592
 1437SOL    HW1 4657   3.385   3.778   1.019  1.4612  1.3322 -0.2906
 1437SOL    HW2 4658   3.404   3.646   1.091 -1.7137  0.6753 -0.5304
 1438SOL     OW 4659   1.565   0.530   3.286 -0.0310 -0.6516 -0.1053
 1438SOL    HW1 4660   1.495   0.506   3.226  0.7337  0.5031 -1.5451
 1438SOL    HW2 4661   1.603   0.447   3.313 -0.7813 -1.2281 -0.7695
 1439SOL     OW 4662   4.313   0.145   3.925 -0.1086  0.8404  0.2593
 1439SOL    HW1 4663   4.326   0.068   3.868  2.3686  0.5719  1.0562
 1439SOL    HW2 4664   4.266   0.207   3.870  0.5165 -0.1248 -1.4547
 1440SOL     OW 4665   3.252   0.524   2.380 -0.0238  0.0507  0.1331
 1440SOL    HW1 4666   3.273   0.617   2.376 -1.2263  0.4541  2.1186
 1440SOL    HW2 4667   3.322   0.485   2.433 -0.8237  0.2883  1.3983
 1441SOL     OW 4668   4.105   4.070   3.454  0.1403  0.5828 -0.2451
 1441SOL    HW1 4669   4.181   4.012   3.460  0.6603  1.2255 -0.3727
 1441SOL    HW2 4670   4.035   4.024   3.499  0.5779 -0.0784 -0.2327
 1442SOL     OW 4671   2.411   2.008   1.704  0.0951  0.4141  0.5487
 1442SOL    HW1 4672   2.481   2.051   1.654  0.0482 -0.7030 -0.5265
 1442SOL    HW2 4673   2.353   1.972   1.637  0.0260 -1.1405  1.4027
 1443SOL     OW 4674   3.705   1.694   2.042 -0.0378 -0.6232 -0.0353
 1443SOL    HW1 4675   3.623   1.740   2.022 -0.0979 -1.2081 -1.1698
 1443SOL    HW2 4676   3.773   1.750   2.005  0.0486 -0.4433  0.3794
 1444SOL     OW 4677   1.618   0.619   2.165  0.3530  0.8283 -0.4025
 1444SOL    HW1 4678   1.711   0.636   2.175  0.1455  1.3090  0.9091
 1444SOL    HW2 4679   1.575   0.691   2.212 -0.6498 -0.0401  0.0695
 1445SOL     OW 4680   0.815   0.131   1.169 -0.0592 -0.4051  0.5581
 1445SOL    HW1 4681   0.857   0.173   1.244  0.2013 -2.1088  1.3931
 1445SOL    HW2 4682   0.723   0.123   1.194 -0.2954  0.4714  0.0157
 1446SOL     OW 4683   2.958   0.156   3.818 -0.1443 -0.4199  0.0241
 1446SOL    HW1 4684   2.921   0.205   3.744  2.0231 -0.8557 -1.4421
 1446SOL    HW2 4685   3.033   0.209   3.847  0.6607 -1.5753  0.1148
 1447SOL     OW 4686   0.982   1.921   1.940  0.6169 -0.1514 -0.2333
 1447SOL    HW1 4687   1.043   1.887   2.005  0.2664 -1.8407 -0.7180
 1447SOL    HW2 4688   1.035   1.933   1.861  0.7130  0.2606 -0.1035
 1448SOL     OW 4689   0.797   1.340   0.735 -0.0091  0.3758  0.3399
 1448SOL    HW1 4690   0.839   1.339   0.649 -0.2515  0.2131  0.2236
 1448SOL    HW2 4691   0.754   1.426   0.739 -1.0566 -0.1050 -0.2160
 1449SOL     OW 4692   0.820   4.210   0.395  0.0150  0.0084  0.1276
 1449SOL    HW1 4693   0.800   4.267   0.469  2.1048 -1.7775  2.2145
 1449SOL    HW2 4694   0.909   4.235   0.369 -0.2364 -0.2155 -1.0131
 1450SOL     OW 4695   0.084   2.167   2.723 -0.3364 -0.0276  0.3871
 1450SOL    HW1 4696   0.018   2.099   2.706  0.3815 -0.7035  0.2169
 1450SOL    HW2 4697   0.034   2.242   2.752 -1.1746 -0.5769  0.4080
 1451SOL     OW 4698   3.259   1.808   3.911 -0.2587  0.3877 -0.5577
 1451SOL    HW1 4699   3.254   1.747   3.985 -1.0820  0.6245 -0.4106
 1451SOL    HW2 4700   3.323   1.874   3.938 -0.2221  0.2267 -0.2429
 1452SOL     OW 4701   1.213   0.274   3.252  0.0308  0.4443  0.1442
 1452SOL    HW1 4702   1.271   0.205   3.285 -0.4667 -0.7328 -1.3147
 1452SOL    HW2 4703   1.273   0.342   3.220  0.5657  0.1128  0.4159
 1453SOL     OW 4704   0.231   2.755   1.569 -0.0054  0.5312 -0.0030
 1453SOL    HW1 4705   0.321   2.784   1.580 -0.2371  0.7282  1.7025
 1453SOL    HW2 4706   0.215   2.700   1.646 -1.3544  0.5494 -0.2561
 1454SOL     OW 4707   2.447   3.457   2.144 -0.1614 -0.0184  0.4003
 1454SOL    HW1 4708   2.440   3.414   2.229 -0.1027 -0.8387 -0.0019
 1454SOL    HW2 4709   2.529   3.424   2.107 -0.3397  0.0991 -0.1069
 1455SOL     OW 4710   1.464   0.904   0.270  0.2377 -0.1828 -0.1220
 1455SOL    HW1 4711   1.533   0.850   0.307 -2.1077 -0.7482  3.9818
 1455SOL    HW2 4712   1.411   0.843   0.217  0.6097 -0.6453  0.0371
 1456SOL     OW 4713   1.900   3.453   4.300  0.5405  0.2876 -0.8613
 1456SOL    HW1 4714   1.891   3.370   4.253  0.8377 -0.6801  0.7074
 1456SOL    HW2 4715   1.921   3.428   4.390 -0.9631  2.0322  0.0522
 1457SOL     OW 4716   2.254   3.613   2.278  0.2700 -0.3378  0.1766
 1457SOL    HW1 4717   2.302   3.583   2.200 -0.6386  0.1085 -0.5813
 1457SOL    HW2 4718   2.299   3.694   2.303 -0.2583  0.2577 -0.7283
 1458SOL     OW 4719   2.356   1.880   3.608 -0.3832  0.4529 -0.6404
 1458SOL    HW1 4720   2.269   1.918   3.593 -0.2005  0.4364 -1.8174
 1458SOL    HW2 4721   2.413   1.925   3.545  0.2942 -0.1359 -0.4596
 1459SOL     OW 4722   1.534   4.184   3.585 -0.1104  0.1869  0.7157
 1459SOL    HW1 4723   1.589   4.127   3.531 -2.0775 -0.8347 -0.3578
 1459SOL    HW2 4724   1.447   4.177   3.545 -0.6062  3.5214  0.9133
 1460SOL     OW 4725   3.828   1.773   1.303 -0.3608  0.0668  0.3743
 1460SOL    HW1 4726   3.839   1.790   1.210  3.0769  1.7161  0.9366
 1460SOL    HW2 4727   3.912   1.739   1.332 -1.4093 -0.6541  2.8733
 1461SOL     OW 4728   0.498   3.930   2.016  0.1317 -0.1425 -0.4602
 1461SOL    HW1 4729   0.463   4.014   1.986  1.0097  0.6125  0.5866
 1461SOL    HW2 4730   0.553   3.951   2.091  0.0844 -1.6978  0.0623
 1462SOL     OW 4731   1.846   4.008   2.369  0.0431 -0.1882 -0.0383
 1462SOL    HW1 4732   1.851   3.924   2.414 -0.1821  0.7636  1.8140
 1462SOL    HW2 4733   1.761   4.007   2.324 -0.1845 -0.7240  0.4022
 1463SOL     OW 4734   1.383   2.203   4.287 -0.1665 -0.1544 -0.4674
 1463SOL    HW1 4735   1.403   2.237   4.200  0.1238 -0.1181 -0.3870
 1463SOL    HW2 4736   1.407   2.111   4.283  0.0302 -0.1075 -0.3663
 1464SOL     OW 4737   2.562   0.151   0.938 -0.8749  0.3156  0.1777
 1464SOL    HW1 4738   2.521   0.219   0.885  0.0206 -0.6911 -1.9642
 1464SOL    HW2 4739   2.655   0.157   0.916 -0.7167 -1.2360  0.3168
 1465SOL     OW 4740   3.046   3.892   3.482  0.1737  0.5960  0.3320
 1465SOL    HW1 4741   3.058   3.835   3.558 -0.2386  1.4658  1.0792
 1465SOL    HW2 4742   3.009   3.973   3.519 -0.2836  0.9405 -0.8280
 1466SOL     OW 4743   4.113   0.670   1.348  0.0544  0.1782 -0.0555
 1466SOL    HW1 4744   4.198   0.627   1.358 -0.8062 -1.3263  0.9964
 1466SOL    HW2 4745   4.124   0.725   1.270  2.2223  0.6108  0.4887
 1467SOL     OW 4746   2.565   1.392   1.739 -0.1935 -0.4040 -0.4245
 1467SOL    HW1 4747   2.535   1.465   1.793 -0.4437 -0.7269 -0.1240
 1467SOL    HW2 4748   2.505   1.320   1.760  1.5529 -1.4827  1.2103
 1468SOL     OW 4749   0.357   0.185   0.721 -0.6493  0.1863  0.5312
 1468SOL    HW1 4750   0.431   0.125   0.707 -0.3814  0.1840  1.8652
 1468SOL    HW2 4751   0.295   0.134   0.773 -1.3951  0.3518 -0.1816
 1469SOL     OW 4752   1.504   1.633   3.695  0.0872 -0.2538  0.0465
 1469SOL    HW1 4753   1.410   1.613   3.697 -0.4340  1.9999  1.2865
 1469SOL    HW2 4754   1.513   1.701   3.628  0.9063 -0.6454 -0.2603
 1470SOL     OW 4755   3.395   1.308   1.054  0.3267  0.2517 -0.4768
 1470SOL    HW1 4756   3.306   1.311   1.020  0.7000  0.8775 -1.4336
 1470SOL    HW2 4757   3.402   1.386   1.109 -0.2011 -0.6345  0.8963
 1471SOL     OW 4758   1.362   0.027   1.467  0.2819  0.6590  0.7492
 1471SOL    HW1 4759   1.414   0.013   1.388 -1.1876  1.5502 -0.4196
 1471SOL    HW2 4760   1.307  -0.051   1.474  1.5870 -0.2249  1.9176
 1472SOL     OW 4761   0.403   0.247   3.360 -0.4744 -0.3968 -0.0137
 1472SOL    HW1 4762   0.499   0.237   3.365 -0.4721 -0.4695 -0.1874
 1472SOL    HW2 4763   0.371   0.205   3.441 -0.2542  1.2705  0.9780
 1473SOL     OW 4764   1.703   1.203   0.865 -0.2503 -0.0311  0.5411
 1473SOL    HW1 4765   1.639   1.139   0.834 -0.0367 -0.2142  0.4762
 1473SOL    HW2 4766   1.658   1.250   0.935  0.0592 -1.2216  1.5796
 1474SOL     OW 4767   1.816   2.396   1.803  0.4216  0.2246 -0.0415
 1474SOL    HW1 4768   1.757   2.364   1.872 -0.2654 -1.9292 -1.5185
 1474SOL    HW2 4769   1.904   2.389   1.841  0.0328 -0.6591  0.7314
 1475SOL     OW 4770   0.964   1.692   2.848 -0.4290  0.1813  0.1354
 1475SOL    HW1 4771   0.974   1.606   2.807 -1.7008  0.5224 -0.9915
 1475SOL    HW2 4772   0.879   1.724   2.816  1.2776  3.1411 -1.9705
 1476SOL     OW 4773   0.024   3.665   3.739  0.1896  0.3445  0.2279
 1476SOL    HW1 4774  -0.007   3.583   3.699  1.5255  0.3120 -0.8079
 1476SOL    HW2 4775   0.044   3.641   3.830  0.6288 -0.5174 -0.0776
 1477SOL     OW 4776   1.104   2.830   0.351  0.4028  0.2114  0.1443
 1477SOL    HW1 4777   1.133   2.879   0.274 -1.3897  0.5432 -0.3849
 1477SOL    HW2 4778   1.134   2.741   0.336  0.1116  0.2753 -0.9387
 1478SOL     OW 4779   1.669   4.217   1.578 -0.2728  0.1326 -0.3602
 1478SOL    HW1 4780   1.734   4.263   1.526 -1.0882  0.9600 -0.6607
 1478SOL    HW2 4781   1.618   4.167   1.514 -1.8341  1.8299 -0.4995
 1479SOL     OW 4782   1.937   4.084   1.259  0.4115  0.0084  0.1000
 1479SOL    HW1 4783   2.030   4.079   1.238  0.4595  0.8505  0.0604
 1479SOL    HW2 4784   1.901   4.001   1.229  1.1959 -0.4484  0.3749
 1480SOL     OW 4785   2.603   3.291   3.663 -0.3130 -0.1565  0.3674
 1480SOL    HW1 4786   2.569   3.290   3.573 -0.2403  0.0838  0.3377
 1480SOL    HW2 4787   2.695   3.268   3.654 -0.4436 -0.7238  0.4405
 1481SOL     OW 4788   2.539   1.690   0.790 -0.1371  0.1462  0.1573
 1481SOL    HW1 4789   2.553   1.692   0.696 -1.6277 -0.2695 -0.0875
 1481SOL    HW2 4790   2.526   1.598   0.811  0.9213  0.1436  0.9051
 1482SOL     OW 4791   2.057   3.791   1.177 -0.1934  0.1172 -0.3374
 1482SOL    HW1 4792   2.069   3.827   1.089 -0.2461  1.2538  0.1002
 1482SOL    HW2 4793   1.989   3.725   1.167  0.5378 -0.5003 -1.3347
 1483SOL     OW 4794   4.000   0.323   1.677  0.8953  0.5146 -0.0172
 1483SOL    HW1 4795   4.080   0.272   1.664 -0.3027 -0.8394 -3.2036
 1483SOL    HW2 4796   3.935   0.279   1.622 -1.5989  2.5892  1.0687
 1484SOL     OW 4797   2.780   1.999   0.016  0.1547  0.0826 -0.7477
 1484SOL    HW1 4798   2.685   2.013   0.006  0.2279  1.7892  0.3735
 1484SOL    HW2 4799   2.792   1.905   0.009 -1.5622 -0.1155 -1.4604
 1485SOL     OW 4800   3.071   4.237   3.326 -0.6792 -0.1010  0.0576
 1485SOL    HW1 4801   3.044   4.325   3.300 -0.8256 -0.6919 -1.9896
 1485SOL    HW2 4802   2.998   4.204   3.379 -1.0042  0.6887  0.1148
 1486SOL     OW 4803   3.654   1.508   4.315 -0.0915  0.5476  0.5276
 1486SOL    HW1 4804   3.749   1.502   4.328  0.0047  1.2622  0.1965
 1486SOL    HW2 4805   3.621   1.547   4.396 -0.0336  0.8385  0.4107
 1487SOL     OW 4806   1.997   0.305   0.321  0.1744  0.2370 -0.5700
 1487SOL    HW1 4807   2.072   0.251   0.346  0.7332  0.7398 -1.1356
 1487SOL    HW2 4808   1.981   0.359   0.398  0.7985  0.5707 -0.6684
 1488SOL     OW 4809   4.109   3.484   2.456  0.0997  0.0019 -0.1038
 1488SOL    HW1 4810   4.118   3.555   2.520 -0.2577 -1.0332  1.1561
 1488SOL    HW2 4811   4.086   3.528   2.374  0.7409  1.3884  0.4265
 1489SOL     OW 4812   3.382   1.668   3.700  0.1712 -0.1710  0.4126
 1489SOL    HW1 4813   3.361   1.575   3.711 -0.8524  0.0226  0.2436
 1489SOL    HW2 4814   3.323   1.713   3.761  0.7417  0.3620  0.5795
 1490SOL     OW 4815   2.260   4.131   0.912  0.2942  0.4080 -0.7653
 1490SOL    HW1 4816   2.299   4.210   0.950 -0.4256  1.0740 -1.3823
 1490SOL    HW2 4817   2.285   4.133   0.820  0.5854 -0.2857 -0.7052
 1491SOL     OW 4818   2.316   0.636   2.824  0.4917 -0.3061 -0.5865
 1491SOL    HW1 4819   2.379   0.578   2.866  1.1695  1.4252  0.9264
 1491SOL    HW2 4820   2.369   0.699   2.775 -0.2269 -1.0137 -2.3574
 1492SOL     OW 4821   1.945   4.086   2.125  0.0317 -0.1089 -0.1765
 1492SOL    HW1 4822   2.009   4.016   2.110 -2.5601 -2.4260 -1.1573
 1492SOL    HW2 4823   1.901   4.062   2.206 -1.5336 -0.2375 -1.0143
 1493SOL     OW 4824   0.762   3.144   2.842  0.0160 -0.2918  0.0705
 1493SOL    HW1 4825   0.675   3.181   2.858  0.1844  0.4009 -0.5808
 1493SOL    HW2 4826   0.771   3.144   2.747  1.2971  0.9916  0.1720
 1494SOL     OW 4827   1.241   0.073   2.705 -0.0670 -0.0318 -0.5068
 1494SOL    HW1 4828   1.259   0.074   2.799 -1.7633 -0.4645 -0.1527
 1494SOL    HW2 4829   1.289   0.149   2.670  0.7737 -0.0098  0.6478
 1495SOL     OW 4830   1.986   0.808   0.706 -0.0515  0.7329 -0.5620
 1495SOL    HW1 4831   2.016   0.866   0.636 -1.2297  0.3437 -1.4185
 1495SOL    HW2 4832   1.919   0.859   0.753  0.7565  1.0061  0.3325
 1496SOL     OW 4833   1.048   0.621   0.623 -0.2528 -0.0937  0.4299
 1496SOL    HW1 4834   0.990   0.687   0.661 -1.0107 -0.3787 -0.2018
 1496SOL    HW2 4835   1.032   0.626   0.529  1.4671  0.4831  0.1284
 1497SOL     OW 4836   4.022   3.308   3.312 -0.3840  0.2870  0.0524
 1497SOL    HW1 4837   4.088   3.246   3.282  0.7527  1.4249  0.1073
 1497SOL    HW2 4838   3.941   3.281   3.268  0.3938 -0.3742 -1.0118
 1498SOL     OW 4839   0.355   1.806   1.230  0.1068 -0.0993 -0.0247
 1498SOL    HW1 4840   0.360   1.742   1.301 -2.0377 -0.8104 -0.4179
 1498SOL    HW2 4841   0.269   1.791   1.191 -0.3287  2.7808 -0.3958
 1499SOL     OW 4842   1.111   1.345   0.136 -0.4316  0.0252  0.2718
 1499SOL    HW1 4843   1.125   1.279   0.204 -0.6137  0.4987  0.7755
 1499SOL    HW2 4844   1.194   1.348   0.087  0.0698  0.4249  1.1333
 1500SOL     OW 4845   2.244   3.268   2.840 -0.2080 -0.0536 -0.5015
 1500SOL    HW1 4846   2.153   3.248   2.817 -0.0036 -2.5187  0.5240
 1500SOL    HW2 4847   2.264   3.347   2.790 -2.9316  0.6555 -0.6632
 1501SOL     OW 4848   2.171   4.333   3.433  0.1855 -0.5665 -0.3052
 1501SOL    HW1 4849   2.098   4.307   3.376  0.8487 -2.7692 -0.2312
 1501SOL    HW2 4850   2.151   4.424   3.457 -1.8454 -0.6825 -1.3270
 1502SOL     OW 4851   3.809   2.802   4.178 -0.0501  0.4959 -0.1998
 1502SOL    HW1 4852   3.846   2.867   4.238  1.1148 -0.4345  0.1531
 1502SOL    HW2 4853   3.788   2.851   4.099 -1.3296  1.7017  0.8311
 1503SOL     OW 4854   3.695   3.700   0.521  0.6516 -0.0595  0.3518
 1503SOL    HW1 4855   3.783   3.713   0.485  0.5582 -0.8790 -0.1835
 1503SOL    HW2 4856   3.710   3.677   0.613  0.9125  1.4678  0.7181
 1504SOL     OW 4857   0.992   0.023   0.799 -0.6326  0.0848  0.2124
 1504SOL    HW1 4858   1.069   0.043   0.745 -0.5533 -0.1750  0.2244
 1504SOL    HW2 4859   1.022   0.039   0.889 -0.5001 -0.2856  0.2387
 1505SOL     OW 4860   2.606   1.458   2.483 -0.3151  0.0583  0.2393
 1505SOL    HW1 4861   2.651   1.412   2.554 -3.4518 -1.5252  1.3816
 1505SOL    HW2 4862   2.599   1.549   2.514  0.9559  0.0872  0.5252
 1506SOL     OW 4863   3.117   1.368   4.030  0.5071 -0.2239  0.6230
 1506SOL    HW1 4864   3.030   1.330   4.044 -0.6912  2.1377  0.2121
 1506SOL    HW2 4865   3.169   1.336   4.103 -0.6552 -1.8452  0.7922
 1507SOL     OW 4866   3.611   0.410   0.747 -0.0566  0.1080 -0.0811
 1507SOL    HW1 4867   3.626   0.413   0.841 -0.2346  0.3031 -0.0594
 1507SOL    HW2 4868   3.664   0.336   0.717  0.1024  0.1275  0.1518
 1508SOL     OW 4869   2.899   0.894   3.963 -0.2711 -0.3158 -0.0292
 1508SOL    HW1 4870   2.851   0.976   3.965  1.2735  0.6117  0.4341
 1508SOL    HW2 4871   2.904   0.872   3.870  3.3660  2.6841 -0.7617
 1509SOL     OW 4872   3.777   1.696   0.922  0.2468 -0.3090 -0.2063
 1509SOL    HW1 4873   3.769   1.698   0.826 -0.1824 -0.2850 -0.1707
 1509SOL    HW2 4874   3.799   1.786   0.946 -0.8277 -0.0509 -0.1801
 1510SOL     OW 4875   1.546   0.866   2.929  0.6814 -0.0662 -0.1591
 1510SOL    HW1 4876   1.641   0.878   2.916  1.0291 -1.5894  0.7728
 1510SOL    HW2 4877   1.527   0.916   3.008  0.3847  1.4356 -1.1283
 1511SOL     OW 4878   2.776   1.174   3.969  0.1307  0.1768  0.3272
 1511SOL    HW1 4879   2.699   1.219   4.003  0.2597  0.7927 -0.1670
 1511SOL    HW2 4880   2.799   1.223   3.889  1.5139  0.5137  0.9012
 1512SOL     OW 4881   2.578   4.134   0.268 -0.1530 -0.0313  0.6090
 1512SOL    HW1 4882   2.534   4.183   0.199 -0.3201 -1.9668 -0.7622
 1512SOL    HW2 4883   2.633   4.198   0.312  0.5969  1.1815 -1.8583
 1513SOL     OW 4884   1.978   2.185   3.612 -0.4392  0.2143  0.1741
 1513SOL    HW1 4885   1.891   2.224   3.621 -0.3354  0.4271  0.2603
 1513SOL    HW2 4886   1.992   2.138   3.694 -0.4022  0.3218  0.2292
 1514SOL     OW 4887   0.512   3.496   1.873  0.0789  0.2507  0.2262
 1514SOL    HW1 4888   0.558   3.579   1.882 -1.3261  1.1304 -0.3695
 1514SOL    HW2 4889   0.433   3.517   1.823  0.1836 -1.6288 -0.8380
 1515SOL     OW 4890   3.860   2.401   3.100  0.5137  0.5085  0.0787
 1515SOL    HW1 4891   3.856   2.495   3.121  2.3137  1.3200 -2.6716
 1515SOL    HW2 4892   3.775   2.367   3.128 -0.3242  3.0104  0.8995
 1516SOL     OW 4893   2.798   3.733   2.870  0.6902 -0.4268 -0.2217
 1516SOL    HW1 4894   2.827   3.775   2.952 -2.5564  1.1340  0.2843
 1516SOL    HW2 4895   2.778   3.806   2.812  1.6568 -1.5123 -1.9823
 1517SOL     OW 4896   3.932   1.547   4.363  0.5789 -0.1033  0.0438
 1517SOL    HW1 4897   3.957   1.639   4.351  0.4447 -0.0504  0.1746
 1517SOL    HW2 4898   4.012   1.498   4.341  0.5712  0.0305 -0.2976
 1518SOL     OW 4899   1.160   0.541   4.240 -0.0414 -0.3060  0.2520
 1518SOL    HW1 4900   1.118   0.511   4.159 -1.3474  0.0778  0.7544
 1518SOL    HW2 4901   1.182   0.461   4.287  0.3122 -0.5240 -0.2804
 1519SOL     OW 4902   3.789   0.537   4.180  0.1620  0.0354  0.2491
 1519SOL    HW1 4903   3.696   0.560   4.188 -0.3372 -2.0604  1.0605
 1519SOL    HW2 4904   3.829   0.574   4.259 -0.3637 -0.6504  0.8506
 1520SOL     OW 4905   1.386   0.814   4.034  0.2265  0.3920 -0.2170
 1520SOL    HW1 4906   1.307   0.795   4.084 -0.0478 -1.0493 -1.1597
 1520SOL    HW2 4907   1.409   0.904   4.060 -0.8983  0.3287  1.1310
 1521SOL     OW 4908   0.743   4.259   0.028  0.5502  0.1516 -0.3989
 1521SOL    HW1 4909   0.739   4.279  -0.066 -4.5971  0.7033 -0.3362
 1521SOL    HW2 4910   0.708   4.337   0.071  0.4330 -1.0123  1.7565
 1522SOL     OW 4911   2.298   3.764   1.340 -0.3072 -0.5788  0.4650
 1522SOL    HW1 4912   2.211   3.768   1.301  0.0416 -2.0269 -0.5260
 1522SOL    HW2 4913   2.285   3.714   1.421 -0.2166 -1.8242 -0.2739
 1523SOL     OW 4914   2.769   3.875   1.201 -0.8083  0.3792  0.3324
 1523SOL    HW1 4915   2.756   3.942   1.133  0.4260  1.3144  0.9669
 1523SOL    HW2 4916   2.681   3.854   1.231 -1.2174  2.0931  0.4314
 1524SOL     OW 4917   0.208   0.897   2.575  0.0506  0.5595 -0.4608
 1524SOL    HW1 4918   0.207   0.808   2.608  0.2572  0.3982 -0.8827
 1524SOL    HW2 4919   0.186   0.888   2.482  1.8969  0.7505 -0.9609
 1525SOL     OW 4920   1.173   0.795   4.209 -0.0135  0.5456  0.2468
 1525SOL    HW1 4921   1.163   0.700   4.208 -0.3712  0.5541  1.7609
 1525SOL    HW2 4922   1.085   0.828   4.196 -0.3010  0.6420  2.2123
 1526SOL     OW 4923   1.775   3.943   1.818  0.0083  0.3265  0.3756
 1526SOL    HW1 4924   1.788   3.927   1.911 -1.0915 -0.8624  0.3407
 1526SOL    HW2 4925   1.838   4.013   1.797 -0.4590  1.3645  2.2226
 1527SOL     OW 4926   3.756   3.953   1.514  0.5811 -0.4825  0.6518
 1527SOL    HW1 4927   3.753   4.040   1.553  1.9898 -0.1738  0.1126
 1527SOL    HW2 4928   3.745   3.968   1.420  2.6379 -0.6833  0.3471
 1528SOL     OW 4929   3.667   1.260   3.349  0.3787 -0.2637  0.0912
 1528SOL    HW1 4930   3.594   1.291   3.403 -1.3564 -0.5126 -1.9627
 1528SOL    HW2 4931   3.642   1.171   3.323  1.9855 -0.7983  0.2713
 1529SOL     OW 4932   2.136   2.596   0.245  0.2820  0.4631  0.0793
 1529SOL    HW1 4933   2.077   2.520   0.251 -0.8039  1.3776  1.9505
 1529SOL    HW2 4934   2.108   2.641   0.165 -0.9570  0.3698  0.4327
 1530SOL     OW 4935   3.202   2.546   0.200 -0.3861  0.0925  0.4659
 1530SOL    HW1 4936   3.163   2.587   0.278 -3.3986 -0.7829 -0.4307
 1530SOL    HW2 4937   3.163   2.458   0.198  2.1938 -1.1211 -0.2716
 1531SOL     OW 4938   2.257   1.605   3.399  0.8995  0.1203 -0.3991
 1531SOL    HW1 4939   2.220   1.677   3.450  0.3413 -0.3078 -0.1880
 1531SOL    HW2 4940   2.186   1.577   3.342  1.3693  0.2664 -1.0619
 1532SOL     OW 4941   3.163   4.202   2.624  0.2893 -0.3944 -0.3694
 1532SOL    HW1 4942   3.212   4.262   2.680 -0.4673 -1.9003  2.0130
 1532SOL    HW2 4943   3.200   4.115   2.643 -1.0707 -1.1431 -1.0167
 1533SOL     OW 4944   1.800   1.032   2.636  0.1323 -0.4128 -0.4568
 1533SOL    HW1 4945   1.815   0.961   2.574 -2.7332 -0.8663 -0.7276
 1533SOL    HW2 4946   1.858   1.012   2.710  0.6278 -2.0793 -1.2633
 1534SOL     OW 4947   0.727   3.397   0.550 -0.3227 -0.9930 -0.7470
 1534SOL    HW1 4948   0.639   3.360   0.553 -0.4666 -0.6178 -0.3086
 1534SOL    HW2 4949   0.751   3.395   0.458 -1.3353  0.1801 -1.0565
 1535SOL     OW 4950   4.098   2.742   1.621 -0.0261 -0.3250  0.2135
 1535SOL    HW1 4951   4.150   2.819   1.597  1.0899 -0.5004  1.8820
 1535SOL    HW2 4952   4.116   2.679   1.551 -1.0606  0.9450 -1.2419
 1536SOL     OW 4953   3.788   0.712   0.531 -0.0502  0.0172 -0.1106
 1536SOL    HW1 4954   3.698   0.681   0.545  0.3302 -1.6276 -0.9582
 1536SOL    HW2 4955   3.818   0.738   0.618 -1.1605  0.0829  0.2804
 1537SOL     OW 4956   2.440   4.268   1.190 -0.3761 -0.3338  0.5417
 1537SOL    HW1 4957   2.443   4.327   1.265 -0.4782  2.2768 -1.3976
 1537SOL    HW2 4958   2.528   4.232   1.184  0.2708  1.1734  0.6144
 1538SOL     OW 4959   4.233   1.531   1.543 -0.2115  0.2797 -0.2170
 1538SOL    HW1 4960   4.277   1.455   1.505  0.2837  0.1369  0.5954
 1538SOL    HW2 4961   4.148   1.498   1.571 -0.2098  0.1513 -0.3639
 1539SOL     OW 4962   1.822   3.006   3.498 -0.2040 -0.5524 -0.5029
 1539SOL    HW1 4963   1.913   2.994   3.522 -0.3518 -1.0401 -0.1765
 1539SOL    HW2 4964   1.803   2.935   3.436  0.3401  1.0211 -2.5954
 1540SOL     OW 4965   0.300   1.501   1.813 -0.3030 -0.4337  0.3866
 1540SOL    HW1 4966   0.244   1.514   1.737 -0.1252 -0.5675  0.2303
 1540SOL    HW2 4967   0.389   1.500   1.777  0.0248  2.2959  0.9020
 1541SOL     OW 4968   4.133   4.311   2.709 -0.7394  0.2690 -0.2883
 1541SOL    HW1 4969   4.118   4.269   2.793 -0.0174  0.6762  0.0629
 1541SOL    HW2 4970   4.148   4.403   2.731  1.4521  0.0488 -0.6165
 1542SOL     OW 4971   0.955   0.079   1.688  0.1234  0.0859  0.0813
 1542SOL    HW1 4972   0.936   0.169   1.713 -0.8427 -0.0480 -0.1160
 1542SOL    HW2 4973   0.943   0.078   1.593  0.3505 -0.1995  0.0547
 1543SOL     OW 4974   4.268   3.228   3.454  0.0271  0.4414 -0.0589
 1543SOL    HW1 4975   4.226   3.224   3.540 -0.1746  0.0140 -0.1718
 1543SOL    HW2 4976   4.307   3.315   3.450 -0.3138  0.6160  0.3033
 1544SOL     OW 4977   3.577   1.035   3.217 -0.0536 -0.8279 -0.1372
 1544SOL    HW1 4978   3.520   1.006   3.288  1.9250 -1.2581  1.3690
 1544SOL    HW2 4979   3.522   1.033   3.139 -2.8135  1.2396  1.5797
 1545SOL     OW 4980   1.968   2.697   3.465 -0.0022 -0.1369 -0.3242
 1545SOL    HW1 4981   1.909   2.740   3.403  1.6097  1.4043 -0.8549
 1545SOL    HW2 4982   1.923   2.705   3.550  0.4233  3.1565 -0.2973
 1546SOL     OW 4983   3.147   3.992   0.779 -0.1587  0.5654  0.0905
 1546SOL    HW1 4984   3.210   3.975   0.710  0.5960  0.7942  0.7007
 1546SOL    HW2 4985   3.063   3.963   0.744  0.5206 -1.2121 -0.1589
 1547SOL     OW 4986   3.172   0.275   3.431 -0.2952 -0.1962  0.1182
 1547SOL    HW1 4987   3.198   0.183   3.441 -0.1310 -0.2934 -1.0618
 1547SOL    HW2 4988   3.103   0.273   3.366  0.9135  0.6792 -1.2568
 1548SOL     OW 4989   2.958   3.777   0.228  0.0155  0.3633  0.4615
 1548SOL    HW1 4990   2.990   3.687   0.222 -0.4674  0.0684  1.9825
 1548SOL    HW2 4991   3.005   3.814   0.302 -0.9408  0.8570  0.8374
 1549SOL     OW 4992   3.628   0.285   1.017  0.1596 -0.5400  0.0664
 1549SOL    HW1 4993   3.596   0.235   0.941  1.4456 -1.8143  0.3132
 1549SOL    HW2 4994   3.566   0.264   1.087  0.3364 -1.3081  0.0001
 1550SOL     OW 4995   2.541   3.720   2.361 -0.1119  0.4205 -0.5677
 1550SOL    HW1 4996   2.513   3.807   2.389  2.2093  0.4045  2.1760
 1550SOL    HW2 4997   2.584   3.735   2.277 -0.0003  1.8853 -0.2680
 1551SOL     OW 4998   2.094   0.749   3.662 -0.2186 -0.5716 -0.0108
 1551SOL    HW1 4999   2.119   0.791   3.579 -0.3807 -1.0283 -0.2922
 1551SOL    HW2 5000   2.128   0.808   3.729  0.3452 -0.4423 -0.3987
 1552SOL     OW 5001   0.832   2.857   2.105  0.2259 -0.1069  0.2701
 1552SOL    HW1 5002   0.858   2.773   2.142 -1.2677 -0.8344 -0.2753
 1552SOL    HW2 5003   0.796   2.836   2.019  0.5485  1.1920 -0.2126
 1553SOL     OW 5004   1.895   2.882   4.340  0.6251  0.0923  0.0207
 1553SOL    HW1 5005   1.964   2.856   4.279  0.5357 -0.8405  0.3072
 1553SOL    HW2 5006   1.863   2.800   4.377  0.6750  0.6345  1.3320
 1554SOL     OW 5007   0.519   0.766   0.399 -0.1288 -0.5922  0.0539
 1554SOL    HW1 5008   0.505   0.673   0.379 -0.7069 -0.4302 -0.3354
 1554SOL    HW2 5009   0.499   0.811   0.317 -0.7675 -0.0471  0.4968
 1555SOL     OW 5010   0.145   1.604   4.132 -0.1212 -0.5513  0.3957
 1555SOL    HW1 5011   0.239   1.608   4.149  0.1087  3.8146 -0.6858
 1555SOL    HW2 5012   0.138   1.587   4.038 -0.3766 -0.2739  0.3612
 1556SOL     OW 5013   0.600   1.173   3.113 -0.6662  0.3353 -0.1308
 1556SOL    HW1 5014   0.617   1.205   3.024  0.9762  1.5396  0.5565
 1556SOL    HW2 5015   0.678   1.123   3.135 -0.2430  1.5074  1.2273
 1557SOL     OW 5016   0.775   3.176   2.073  0.0630 -0.0405 -0.0998
 1557SOL    HW1 5017   0.750   3.090   2.104  1.4348 -1.2171 -2.0341
 1557SOL    HW2 5018   0.805   3.162   1.983  0.7817  2.3749 -0.3257
 1558SOL     OW 5019   4.096   1.761   3.110 -0.3390  0.3437 -0.0925
 1558SOL    HW1 5020   4.103   1.850   3.144  1.2780  1.0098 -1.9630
 1558SOL    HW2 5021   4.002   1.742   3.110 -0.5473  1.0278  2.6980
 1559SOL     OW 5022   4.241   0.071   0.424 -0.0527 -0.1432  0.0017
 1559SOL    HW1 5023   4.313   0.112   0.471 -0.9865  2.7363 -0.9017
 1559SOL    HW2 5024   4.273   0.059   0.335  0.0669 -1.0825  0.1546
 1560SOL     OW 5025   0.461   3.757   4.081 -0.0415 -0.6925 -0.0854
 1560SOL    HW1 5026   0.430   3.798   4.162 -2.2233 -1.2320 -0.5786
 1560SOL    HW2 5027   0.536   3.704   4.109 -0.4932 -0.5512  1.5280
 1561SOL     OW 5028   0.485   3.291   2.556 -0.4993 -0.2832 -0.7355
 1561SOL    HW1 5029   0.429   3.351   2.507  0.8508  0.6104 -1.2167
 1561SOL    HW2 5030   0.455   3.299   2.647 -0.8125  0.5670 -0.9031
 1562SOL     OW 5031   0.250   2.070   2.153 -0.7880  0.0095  0.4446
 1562SOL    HW1 5032   0.238   2.041   2.062  1.5505 -1.3818  0.4947
 1562SOL    HW2 5033   0.324   2.131   2.149 -0.6806 -0.0564  1.3968
 1563SOL     OW 5034   1.539   1.369   0.986 -0.2323  0.3731  0.4028
 1563SOL    HW1 5035   1.471   1.396   1.046  0.7498  0.8896  1.3196
 1563SOL    HW2 5036   1.545   1.440   0.922 -0.2718  0.5241  0.5658
 1564SOL     OW 5037   1.106   4.006   0.507  0.1476  0.0843 -0.5070
 1564SOL    HW1 5038   1.168   3.998   0.434  1.3767 -0.9774  0.6087
 1564SOL    HW2 5039   1.149   4.067   0.568 -0.4210  0.2093 -0.2278
 1565SOL     OW 5040   1.894   0.126   1.980  0.9515 -0.1332  0.3340
 1565SOL    HW1 5041   1.821   0.181   1.952 -0.4986 -0.5854  2.9232
 1565SOL    HW2 5042   1.963   0.188   2.004  0.3137  0.4461  0.6845
 1566SOL     OW 5043   3.695   0.972   0.731 -0.3001 -0.5578 -0.2327
 1566SOL    HW1 5044   3.770   0.920   0.761 -0.9626 -0.5857  1.5296
 1566SOL    HW2 5045   3.631   0.965   0.803 -1.5866  0.2867 -1.2466
 1567SOL     OW 5046   0.734   4.106   1.246 -0.3479 -0.5532 -0.2837
 1567SOL    HW1 5047   0.801   4.152   1.195  0.5651 -0.3900  1.0208
 1567SOL    HW2 5048   0.739   4.145   1.333 -0.6714 -2.0027  0.4128
 1568SOL     OW 5049   3.702   1.560   2.287  0.7494  0.0464 -0.2772
 1568SOL    HW1 5050   3.741   1.480   2.252 -0.6325  0.0682 -1.9532
 1568SOL    HW2 5051   3.692   1.618   2.211 -2.2143  0.1539  0.0821
 1569SOL     OW 5052   1.629   2.764   4.118  0.1493 -0.1829 -0.4648
 1569SOL    HW1 5053   1.651   2.844   4.070  0.5070  0.0162  0.0120
 1569SOL    HW2 5054   1.714   2.733   4.152 -0.1388 -0.1436  0.2970
 1570SOL     OW 5055   3.534   0.025   3.789  0.3705  0.3789 -0.0302
 1570SOL    HW1 5056   3.521   0.109   3.744  2.4730 -0.1677 -1.8241
 1570SOL    HW2 5057   3.459   0.017   3.847 -1.1346  2.3868 -1.5626
 1571SOL     OW 5058   2.049   2.220   1.149  0.2255  0.4801 -0.1300
 1571SOL    HW1 5059   2.049   2.125   1.143  0.5037  0.4979 -0.4413
 1571SOL    HW2 5060   2.118   2.240   1.213  0.3808  0.4877 -0.3013
 1572SOL     OW 5061   3.282   2.179   3.765 -0.1201  0.7332  0.0709
 1572SOL    HW1 5062   3.259   2.147   3.853 -0.3257 -0.2654 -0.3355
 1572SOL    HW2 5063   3.238   2.119   3.705 -0.4048  1.7072 -0.7315
 1573SOL     OW 5064   3.037   0.917   0.079 -0.0339  0.3687  0.6515
 1573SOL    HW1 5065   3.023   0.992   0.020 -1.7205  1.4585  2.3181
 1573SOL    HW2 5066   3.014   0.841   0.025 -2.4511  1.3951  0.0679
 1574SOL     OW 5067   0.104   3.368   0.753 -0.0739 -0.6335 -0.3337
 1574SOL    HW1 5068   0.077   3.355   0.662 -1.7349  0.4993 -0.0676
 1574SOL    HW2 5069   0.050   3.306   0.803  0.9876 -1.4054 -0.1187
 1575SOL     OW 5070   2.807   3.740   3.643  0.0979 -0.1099  0.3993
 1575SOL    HW1 5071   2.890   3.714   3.683 -0.0929  0.6208  1.3069
 1575SOL    HW2 5072   2.746   3.670   3.667 -0.2143  0.7024  2.1306
 1576SOL     OW 5073   4.268   3.149   2.633  0.0812 -0.2675  0.3277
 1576SOL    HW1 5074   4.195   3.134   2.573  0.2852 -0.2770  0.0798
 1576SOL    HW2 5075   4.332   3.081   2.610  0.8391  0.6953 -0.5189
 1577SOL     OW 5076   0.762   0.708   1.333 -0.2149 -0.0970 -0.1277
 1577SOL    HW1 5077   0.699   0.712   1.261  0.0172 -0.3109 -0.3436
 1577SOL    HW2 5078   0.829   0.647   1.303 -0.7324 -1.1532  0.7584
 1578SOL     OW 5079   2.884   3.311   0.825 -0.3401 -0.3808  0.6131
 1578SOL    HW1 5080   2.969   3.346   0.800 -0.5433 -0.2123  0.1428
 1578SOL    HW2 5081   2.903   3.244   0.891  0.2191 -0.9023 -0.0585
 1579SOL     OW 5082   1.819   0.325   2.539  0.0523 -0.1344  0.3147
 1579SOL    HW1 5083   1.778   0.291   2.618 -1.3371  0.5157 -0.0814
 1579SOL    HW2 5084   1.746   0.356   2.486  1.0401  0.5741 -0.6843
 1580SOL     OW 5085   3.039   1.984   0.244 -0.0536  0.1990  0.0453
 1580SOL    HW1 5086   3.035   1.961   0.337  2.3574  1.9138  0.6459
 1580SOL    HW2 5087   2.954   2.025   0.226 -0.7426 -0.6038  1.3238
 1581SOL     OW 5088   2.879   0.819   3.676 -0.6467  0.5278 -0.5026
 1581SOL    HW1 5089   2.861   0.748   3.613  1.6222 -1.2835  0.7140
 1581SOL    HW2 5090   2.794   0.841   3.712 -1.5450 -1.0190 -1.5451
 1582SOL     OW 5091   2.015   0.400   3.196 -0.3808  0.2248  0.2148
 1582SOL    HW1 5092   2.059   0.476   3.158 -0.1760  0.0339  0.0671
 1582SOL    HW2 5093   2.036   0.328   3.137  0.5142 -0.2190  1.0463
 1583SOL     OW 5094   0.544   1.593   0.425 -0.0111 -0.5869  0.3459
 1583SOL    HW1 5095   0.487   1.520   0.400  0.1204 -0.3379 -0.7490
 1583SOL    HW2 5096   0.631   1.568   0.393  0.0309  0.0464 -0.0568
 1584SOL     OW 5097   3.786   0.648   1.846 -0.3056 -0.3100  0.0483
 1584SOL    HW1 5098   3.746   0.735   1.837 -0.5919 -0.4021  0.4478
 1584SOL    HW2 5099   3.722   0.588   1.806  0.8959 -0.1076 -2.4026
 1585SOL     OW 5100   1.586   0.091   3.679  0.0386  0.1825 -0.1548
 1585SOL    HW1 5101   1.528   0.016   3.692  0.6113 -0.5832 -1.7651
 1585SOL    HW2 5102   1.536   0.151   3.625 -0.5582  1.1911  1.4310
 1586SOL     OW 5103   3.358   3.532   4.151 -0.6655 -0.0115  0.0355
 1586SOL    HW1 5104   3.409   3.537   4.231 -0.6404 -0.0416  0.0213
 1586SOL    HW2 5105   3.333   3.623   4.132  1.9243  0.4883 -1.6014
 1587SOL     OW 5106   2.350   0.451   1.576  0.0871  0.1124 -0.1997
 1587SOL    HW1 5107   2.277   0.449   1.514  0.7847  0.2307 -1.0495
 1587SOL    HW2 5108   2.343   0.369   1.624  0.1329 -0.4584 -1.1459
 1588SOL     OW 5109   0.669   1.283   2.843 -0.0623  0.3323  0.7682
 1588SOL    HW1 5110   0.623   1.256   2.763 -2.1514  0.8727  1.7193
 1588SOL    HW2 5111   0.725   1.356   2.814  1.3433 -1.2306 -0.6855
 1589SOL     OW 5112   3.416   1.765   0.108  0.3875  0.0975 -0.2265
 1589SOL    HW1 5113   3.497   1.715   0.109  0.5236 -0.2499 -5.0278
 1589SOL    HW2 5114   3.441   1.851   0.074 -1.0113  0.5657 -0.1358
 1590SOL     OW 5115   4.229   4.124   3.998  0.0141  0.1057  0.3301
 1590SOL    HW1 5116   4.194   4.035   3.988  0.5989 -0.0498 -0.4591
 1590SOL    HW2 5117   4.172   4.179   3.944  0.3558  0.0115 -0.1382
 1591SOL     OW 5118   0.955   3.857   3.388  0.2089 -0.1200 -1.2767
 1591SOL    HW1 5119   1.032   3.903   3.420 -0.5121  0.3719 -0.1825
 1591SOL    HW2 5120   0.890   3.926   3.372 -0.5816 -0.6530 -0.4849
 1592SOL     OW 5121   4.163   0.607   1.722 -0.0449  0.5920  0.1720
 1592SOL    HW1 5122   4.091   0.662   1.691  0.3934  0.8939 -0.3347
 1592SOL    HW2 5123   4.135   0.518   1.701  0.9004  0.8624 -2.6392
 1593SOL     OW 5124   2.160   1.733   2.263  0.1656  0.9466 -0.4151
 1593SOL    HW1 5125   2.161   1.828   2.259  2.6367  1.0034 -0.3401
 1593SOL    HW2 5126   2.242   1.710   2.308 -1.0513 -1.1817  0.8977
 1594SOL     OW 5127   2.827   1.726   0.924  0.3518  0.3559  0.2180
 1594SOL    HW1 5128   2.743   1.729   0.879  0.9539 -2.5779 -1.3767
 1594SOL    HW2 5129   2.805   1.727   1.017 -1.2384  2.1238 -0.1357
 1595SOL     OW 5130   2.930   1.755   3.705 -0.2014  0.6783 -0.3349
 1595SOL    HW1 5131   2.945   1.707   3.786  0.6495  2.4119  0.5867
 1595SOL    HW2 5132   2.837   1.779   3.708 -0.5695 -0.6054 -0.6774
 1596SOL     OW 5133   1.494   2.796   3.546 -0.3207 -0.5082  0.9166
 1596SOL    HW1 5134   1.406   2.765   3.527 -0.1674 -0.0642 -0.6399
 1596SOL    HW2 5135   1.552   2.734   3.501  0.0829  0.2792  0.3165
 1597SOL     OW 5136   1.772   0.974   3.388  0.2070  0.5006 -0.6644
 1597SOL    HW1 5137   1.750   0.946   3.477  1.5623  1.9441  0.1802
 1597SOL    HW2 5138   1.764   0.894   3.335 -0.8812 -0.3325  0.6845
 1598SOL     OW 5139   0.127   4.048   4.037 -0.6802 -0.0910 -0.2588
 1598SOL    HW1 5140   0.112   3.968   4.087 -0.2107 -0.4309 -0.6534
 1598SOL    HW2 5141   0.043   4.094   4.041 -0.9741 -0.6247 -0.0751
 1599SOL     OW 5142   1.441   0.686   2.708 -0.0227 -0.0456  0.6411
 1599SOL    HW1 5143   1.348   0.676   2.690 -0.0142  0.0675  0.5283
 1599SOL    HW2 5144   1.446   0.764   2.764  0.0362  0.1862  0.3223
 1600SOL     OW 5145   1.536   1.310   4.057 -0.3515 -0.5270 -0.2158
 1600SOL    HW1 5146   1.620   1.356   4.053  0.1072 -1.4440 -1.8213
 1600SOL    HW2 5147   1.471   1.375   4.032  0.0377 -0.1764 -0.3210
 1601SOL     OW 5148   2.952   3.520   2.078  0.0891 -0.2080  0.0316
 1601SOL    HW1 5149   2.911   3.535   2.163 -1.3920  0.0308 -0.6802
 1601SOL    HW2 5150   3.042   3.549   2.088  0.9309 -3.2180  2.4555
 1602SOL     OW 5151   0.864   1.166   4.011  0.2361  0.3640  0.3230
 1602SOL    HW1 5152   0.835   1.081   4.042 -1.1194  0.9645  0.7628
 1602SOL    HW2 5153   0.800   1.191   3.944  0.0916  1.4330  0.8373
 1603SOL     OW 5154   3.658   2.119   2.148 -0.4908 -0.3962 -0.0300
 1603SOL    HW1 5155   3.615   2.069   2.217 -0.1188  0.9809  1.2514
 1603SOL    HW2 5156   3.588   2.171   2.109 -0.4622 -0.1541  0.2400
 1604SOL     OW 5157   3.877   0.568   1.133 -0.0265 -0.1602 -0.0241
 1604SOL    HW1 5158   3.836   0.485   1.110 -1.3015  0.6367 -0.7573
 1604SOL    HW2 5159   3.927   0.549   1.212 -1.9482 -1.1715  1.0267
 1605SOL     OW 5160   4.263   4.048   2.051  0.2665 -0.3399  0.2909
 1605SOL    HW1 5161   4.229   3.990   2.119 -0.0884 -1.2802 -0.6614
 1605SOL    HW2 5162   4.349   4.012   2.029  0.6557  0.3379  0.6760
 1606SOL     OW 5163   0.486   0.914   0.643  0.3249  0.1646  0.0820
 1606SOL    HW1 5164   0.468   0.990   0.589  0.5835 -0.1498 -0.4557
 1606SOL    HW2 5165   0.499   0.842   0.581  0.3174 -0.2707  0.5673
 1607SOL     OW 5166   2.495   1.632   1.881  0.0717  0.2554  0.2079
 1607SOL    HW1 5167   2.575   1.677   1.850 -0.3982  1.1741  0.2805
 1607SOL    HW2 5168   2.431   1.703   1.890 -0.2261 -0.1945  1.9311
 1608SOL     OW 5169   1.035   4.128   1.715 -0.1617 -0.4051 -0.1335
 1608SOL    HW1 5170   1.039   4.050   1.770  0.4909  0.0994  0.5701
 1608SOL    HW2 5171   1.053   4.200   1.775 -3.1984  0.5791 -0.2391
 1609SOL     OW 5172   1.723   3.016   2.332 -0.7540  0.0312 -0.0750
 1609SOL    HW1 5173   1.763   2.933   2.359 -0.7405 -0.6985 -2.1577
 1609SOL    HW2 5174   1.642   3.021   2.382 -0.8412 -1.3392 -0.0412
 1610SOL     OW 5175   2.341   0.121   3.195  0.0778  0.1854  0.3438
 1610SOL    HW1 5176   2.391   0.109   3.276  0.5675 -1.0829 -0.1063
 1610SOL    HW2 5177   2.251   0.098   3.219  0.2977 -0.6022  0.4407
 1611SOL     OW 5178   2.031   1.814   0.606 -0.2529  0.3058 -0.7163
 1611SOL    HW1 5179   2.021   1.903   0.641 -1.2336  0.1925 -0.6787
 1611SOL    HW2 5180   2.029   1.757   0.683  1.4749  0.3041 -0.6390
 1612SOL     OW 5181   1.738   3.703   2.339  0.2363 -0.0268 -0.1384
 1612SOL    HW1 5182   1.802   3.714   2.410  0.7853  0.5868 -0.7133
 1612SOL    HW2 5183   1.654   3.721   2.380  0.6047  0.9476  0.2250
 1613SOL     OW 5184   0.729   2.634   1.613  0.2808  0.1766  0.3683
 1613SOL    HW1 5185   0.755   2.573   1.682  0.6097 -0.0837  0.0162
 1613SOL    HW2 5186   0.812   2.669   1.579  0.3343 -1.8869 -1.8891
 1614SOL     OW 5187   1.333   0.701   1.862 -0.1955 -0.2414 -0.5575
 1614SOL    HW1 5188   1.239   0.708   1.843 -0.0381  0.5780 -1.1092
 1614SOL    HW2 5189   1.352   0.776   1.918  0.0841 -0.5323 -0.2628
 1615SOL     OW 5190   0.024   1.094   4.347 -0.4550 -0.2700  0.0624
 1615SOL    HW1 5191   0.101   1.056   4.390 -0.1412  1.1736  0.8264
 1615SOL    HW2 5192  -0.049   1.071   4.404 -0.1974  0.6479  0.7897
 1616SOL     OW 5193   1.897   1.790   3.466  0.1922  0.6464  0.3915
 1616SOL    HW1 5194   1.965   1.844   3.507  0.9025  0.3565 -0.3649
 1616SOL    HW2 5195   1.939   1.756   3.387 -1.1772  1.2962 -0.6469
 1617SOL     OW 5196   3.851   2.549   0.718 -0.3077  0.3314  0.2785
 1617SOL    HW1 5197   3.817   2.500   0.643  0.0140  1.3344 -0.5503
 1617SOL    HW2 5198   3.773   2.583   0.761 -0.5181 -0.6385  0.6829
 1618SOL     OW 5199   0.672   4.019   3.248  0.3875  0.0862  0.2303
 1618SOL    HW1 5200   0.678   4.113   3.262 -0.0983  0.2189 -0.4434
 1618SOL    HW2 5201   0.709   4.004   3.161 -1.6088 -0.0427 -0.6464
 1619SOL     OW 5202   2.218   3.241   3.539 -0.1338 -0.7692  0.0355
 1619SOL    HW1 5203   2.273   3.262   3.614 -0.6593 -2.0423  0.8172
 1619SOL    HW2 5204   2.186   3.326   3.508  1.6667 -0.0652 -0.0075
 1620SOL     OW 5205   1.719   4.284   3.998  0.0782 -0.1849 -0.4101
 1620SOL    HW1 5206   1.745   4.220   3.931 -0.5528 -0.1564 -0.6847
 1620SOL    HW2 5207   1.625   4.293   3.988 -0.0527 -0.2903  0.5872
 1621SOL     OW 5208   1.760   2.669   3.683 -0.4637 -0.2661  0.6761
 1621SOL    HW1 5209   1.694   2.735   3.706  0.3464  0.5035  0.8286
 1621SOL    HW2 5210   1.725   2.628   3.604  0.9694  3.3402 -2.1367
 1622SOL     OW 5211   3.945   3.220   1.039 -0.7399 -0.0315  0.7014
 1622SOL    HW1 5212   3.952   3.259   0.951  0.9300  1.3948  1.3832
 1622SOL    HW2 5213   3.929   3.295   1.097 -1.2718 -0.8764  1.6678
 1623SOL     OW 5214   3.143   1.905   4.267 -0.4666  0.4127  0.1144
 1623SOL    HW1 5215   3.219   1.956   4.293  0.9139 -0.3988 -2.0621
 1623SOL    HW2 5216   3.072   1.969   4.260  0.3605  1.4228  0.7660
 1624SOL     OW 5217   2.367   1.437   1.330 -0.1310  0.6363 -0.4770
 1624SOL    HW1 5218   2.302   1.407   1.267 -1.5270  0.0107  1.1721
 1624SOL    HW2 5219   2.451   1.411   1.292 -1.0335 -1.5516 -1.1482
 1625SOL     OW 5220   4.185   3.995   0.764  0.6888  0.1282  0.3709
 1625SOL    HW1 5221   4.143   3.925   0.814  0.2045  0.1868  0.0485
 1625SOL    HW2 5222   4.170   3.973   0.673  1.3860  0.1394  0.2459
 1626SOL     OW 5223   3.186   3.217   1.286 -0.1030 -0.4786 -0.1949
 1626SOL    HW1 5224   3.233   3.299   1.275 -0.7316  0.3216  2.4006
 1626SOL    HW2 5225   3.242   3.151   1.245  2.4102  0.6834  1.1639
 1627SOL     OW 5226   4.089   1.414   4.169  0.5945 -0.0733 -0.8937
 1627SOL    HW1 5227   4.096   1.326   4.132  0.4473  0.1750 -1.5326
 1627SOL    HW2 5228   4.076   1.471   4.093 -1.7849  0.2277 -0.3627
 1628SOL     OW 5229   4.179   1.404   3.500 -0.4546 -0.3691 -0.4457
 1628SOL    HW1 5230   4.251   1.343   3.485 -0.5342 -0.7944  0.8014
 1628SOL    HW2 5231   4.128   1.402   3.419 -0.6012 -2.1449 -0.3378
 1629SOL     OW 5232   3.902   0.530   2.996 -0.1039 -0.7082 -0.0398
 1629SOL    HW1 5233   3.989   0.496   3.020  0.1447  0.3846  0.6632
 1629SOL    HW2 5234   3.882   0.486   2.913  1.2644 -0.7350 -0.3864
 1630SOL     OW 5235   3.180   3.533   3.138 -0.0803 -0.5420  0.2701
 1630SOL    HW1 5236   3.135   3.494   3.213  0.6326  0.2471  1.1378
 1630SOL    HW2 5237   3.195   3.624   3.164  2.1013 -0.7989  0.0729
 1631SOL     OW 5238   4.309   1.326   0.457 -0.0941 -0.0707 -0.5901
 1631SOL    HW1 5239   4.244   1.371   0.510  1.3819  0.9488  0.4474
 1631SOL    HW2 5240   4.264   1.248   0.425 -2.2057  1.2400 -1.0174
 1632SOL     OW 5241   1.923   4.308   3.258  0.0725 -0.1421 -0.3341
 1632SOL    HW1 5242   1.875   4.232   3.226 -3.7692  1.6113  0.7580
 1632SOL    HW2 5243   1.869   4.343   3.328  3.6474  1.4139  1.9317
 1633SOL     OW 5244   3.476   1.305   1.610  0.3403  0.0950 -0.1353
 1633SOL    HW1 5245   3.568   1.330   1.617  0.4226 -0.0110 -0.8241
 1633SOL    HW2 5246   3.436   1.340   1.690  1.1933 -0.8449  0.7428
 1634SOL     OW 5247   1.348   3.704   3.706  0.0619  0.2646  0.1490
 1634SOL    HW1 5248   1.442   3.715   3.718  0.1876  0.5695 -1.0347
 1634SOL    HW2 5249   1.308   3.750   3.780  0.8235  0.7902  0.2388
 1635SOL     OW 5250   2.581   0.497   1.384  0.1461  0.4869 -0.6371
 1635SOL    HW1 5251   2.523   0.431   1.423  1.0387 -0.7106 -1.2583
 1635SOL    HW2 5252   2.659   0.495   1.439 -0.0827  1.5356 -0.2624
 1636SOL     OW 5253   1.716   1.257   3.652  0.4372 -0.5599  0.3402
 1636SOL    HW1 5254   1.667   1.175   3.663  0.5147 -0.5047  1.1287
 1636SOL    HW2 5255   1.722   1.268   3.557 -0.8136 -0.7286  0.2253
 1637SOL     OW 5256   4.121   2.491   0.248 -0.2155  0.1935  0.3670
 1637SOL    HW1 5257   4.044   2.535   0.281  0.3732  0.4915  1.3788
 1637SOL    HW2 5258   4.111   2.400   0.276 -0.8424 -0.0798 -0.6806
 1638SOL     OW 5259   1.420   2.932   0.783  0.5187  0.2252  0.6599
 1638SOL    HW1 5260   1.362   2.856   0.778  0.5724  0.2675 -1.2851
 1638SOL    HW2 5261   1.460   2.926   0.870 -0.4322 -1.2563  1.0278
 1639SOL     OW 5262   1.210   2.925   4.221  0.3695  0.1494 -0.3443
 1639SOL    HW1 5263   1.259   2.951   4.143  1.5447 -0.2010  0.2538
 1639SOL    HW2 5264   1.267   2.861   4.264 -0.2179  0.4148  0.8486
 1640SOL     OW 5265   3.418   1.781   2.896 -0.2041 -0.1948  0.2671
 1640SOL    HW1 5266   3.344   1.733   2.858  1.4848 -2.6269 -0.1809
 1640SOL    HW2 5267   3.487   1.772   2.831  0.6751  1.5519  0.9157
 1641SOL     OW 5268   0.596   1.601   3.649  0.5612  0.1950 -0.3104
 1641SOL    HW1 5269   0.634   1.527   3.600  2.7557  0.2535  1.1630
 1641SOL    HW2 5270   0.638   1.596   3.735 -3.3395 -0.0758  1.7857
 1642SOL     OW 5271   0.529   0.963   2.138 -0.5609 -0.3608 -0.5526
 1642SOL    HW1 5272   0.486   1.018   2.072 -1.0073 -1.2203 -0.9963
 1642SOL    HW2 5273   0.598   1.018   2.174 -1.4678  0.7594 -0.4494
 1643SOL     OW 5274   1.551   0.309   0.654 -0.0746  0.2720 -0.1224
 1643SOL    HW1 5275   1.545   0.241   0.721  0.0750  0.1089 -0.2759
 1643SOL    HW2 5276   1.493   0.378   0.686 -0.4071 -0.0241 -0.0826
 1644SOL     OW 5277   0.784   2.121   1.953  0.0263  0.1699  0.2293
 1644SOL    HW1 5278   0.843   2.047   1.960 -1.0682 -0.7772 -0.2051
 1644SOL    HW2 5279   0.833   2.195   1.987  1.0251 -0.8198  0.9826
 1645SOL     OW 5280   0.197   1.452   2.598 -0.0570  0.2097 -0.3518
 1645SOL    HW1 5281   0.117   1.441   2.649 -1.1005 -0.6938 -2.0715
 1645SOL    HW2 5282   0.219   1.364   2.567  0.0313  0.7909 -2.0925
 1646SOL     OW 5283   0.160   2.619   2.146  0.1245  0.4670  0.0438
 1646SOL    HW1 5284   0.077   2.619   2.194  0.7705 -1.8501  1.3229
 1646SOL    HW2 5285   0.165   2.533   2.105  2.0630  0.3918  0.3325
 1647SOL     OW 5286   0.223   0.631   2.632  0.6179 -0.3236  0.2908
 1647SOL    HW1 5287   0.275   0.599   2.705 -1.4750 -1.7825  1.2538
 1647SOL    HW2 5288   0.234   0.566   2.563  0.7043 -0.2100  0.1969
 1648SOL     OW 5289   0.004   0.066   0.151  0.2684 -0.6268  0.1120
 1648SOL    HW1 5290   0.059  -0.002   0.192 -0.4312 -2.6620 -2.0848
 1648SOL    HW2 5291  -0.081   0.023   0.138 -0.4768  0.9721 -0.5968
 1649SOL     OW 5292   3.515   2.322   0.304 -0.0897  0.0801 -0.7882
 1649SOL    HW1 5293   3.540   2.407   0.341  0.3552 -0.4987  0.2869
 1649SOL    HW2 5294   3.425   2.308   0.334  1.0452 -1.4886  2.2858
 1650SOL     OW 5295   3.327   0.980   1.469  0.0019  0.3849  0.0588
 1650SOL    HW1 5296   3.373   1.050   1.423 -0.2184  0.6301  0.2078
 1650SOL    HW2 5297   3.245   0.970   1.420  0.0833  0.1465 -0.0337
 1651SOL     OW 5298   2.197   0.739   1.502  0.1436  0.7707  0.1200
 1651SOL    HW1 5299   2.268   0.715   1.443 -0.9225 -0.4241 -0.7354
 1651SOL    HW2 5300   2.119   0.740   1.447 -1.0140 -1.1050  1.6046
 1652SOL     OW 5301   1.803   3.055   1.944 -0.1097 -0.1842  0.0851
 1652SOL    HW1 5302   1.726   3.003   1.964  0.2716 -0.7255  0.1737
 1652SOL    HW2 5303   1.790   3.082   1.853 -0.6625  0.2041  0.2710
 1653SOL     OW 5304   3.003   1.285   2.512 -0.0612 -0.0082 -0.3459
 1653SOL    HW1 5305   3.017   1.197   2.477 -0.3680  0.5012 -1.7877
 1653SOL    HW2 5306   3.086   1.330   2.498 -0.5647  0.5687 -1.5720
 1654SOL     OW 5307   2.947   3.262   4.289  0.5641  0.0588 -0.2375
 1654SOL    HW1 5308   2.977   3.329   4.228  0.2577  1.1551  0.7902
 1654SOL    HW2 5309   2.855   3.283   4.305  0.6559 -0.1870  0.6409
 1655SOL     OW 5310   1.823   1.726   0.459  0.4296 -0.3202 -0.0200
 1655SOL    HW1 5311   1.822   1.631   0.470  0.6824 -0.2684  0.4875
 1655SOL    HW2 5312   1.896   1.756   0.513  0.3621  0.1608 -0.1880
 1656SOL     OW 5313   3.027   2.114   3.604  0.4053 -0.2868 -0.5179
 1656SOL    HW1 5314   3.076   2.036   3.631  0.5284 -0.0475 -0.0487
 1656SOL    HW2 5315   2.986   2.146   3.684 -1.3921 -1.0734 -1.0725
 1657SOL     OW 5316   2.112   0.873   2.197 -0.3137  0.0477 -0.3786
 1657SOL    HW1 5317   2.044   0.814   2.168  0.1072 -1.0767  0.8437
 1657SOL    HW2 5318   2.152   0.830   2.273  0.6778  1.4192 -0.0675
 1658SOL     OW 5319   1.769   1.826   0.204  0.2032  0.3071 -0.3891
 1658SOL    HW1 5320   1.803   1.774   0.277  0.5087 -0.9876 -1.4144
 1658SOL    HW2 5321   1.675   1.810   0.204  0.1053  0.8380  0.1050
 1659SOL     OW 5322   2.295   3.111   3.306 -0.2162 -0.4291 -0.6033
 1659SOL    HW1 5323   2.368   3.123   3.367 -0.9421 -0.9788  0.3893
 1659SOL    HW2 5324   2.217   3.123   3.359 -0.8758 -1.8388 -1.2064
 1660SOL     OW 5325   2.258   4.191   3.667  0.3478  0.3882 -0.5961
 1660SOL    HW1 5326   2.248   4.231   3.581 -1.1979  0.6493 -0.3273
 1660SOL    HW2 5327   2.257   4.264   3.728  0.0777  0.1206 -0.2726
 1661SOL     OW 5328   3.787   2.719   2.636  0.4076  0.4348 -0.5700
 1661SOL    HW1 5329   3.792   2.704   2.731  1.5219  1.0109 -0.5163
 1661SOL    HW2 5330   3.696   2.702   2.614  0.1564  0.1736  0.5908
 1662SOL     OW 5331   2.600   2.088   3.803 -0.0312  0.4889 -0.2572
 1662SOL    HW1 5332   2.619   2.161   3.744  1.6335 -0.1986 -0.6425
 1662SOL    HW2 5333   2.646   2.014   3.765  1.7892  0.1802  2.2700
 1663SOL     OW 5334   0.974   2.776   3.391  0.6903  0.2441  0.1308
 1663SOL    HW1 5335   0.958   2.870   3.383 -0.2602  0.2017  1.3384
 1663SOL    HW2 5336   0.989   2.762   3.484  0.4409 -0.8538  0.0148
 1664SOL     OW 5337   2.400   1.432   0.431 -0.4711 -0.0114  0.1801
 1664SOL    HW1 5338   2.312   1.462   0.451 -0.3355 -1.0218  2.6381
 1664SOL    HW2 5339   2.395   1.402   0.340 -2.1488  1.6105 -0.3303
 1665SOL     OW 5340   0.510   4.110   4.140 -0.0019  0.2001  0.1517
 1665SOL    HW1 5341   0.448   4.168   4.185  1.3267  1.4463  0.4552
 1665SOL    HW2 5342   0.455   4.054   4.085 -1.4568  0.5860  1.1555
 1666SOL     OW 5343   3.491   3.209   2.079 -0.0340  0.3647  0.1429
 1666SOL    HW1 5344   3.507   3.294   2.037  1.7220  0.0863  0.1978
 1666SOL    HW2 5345   3.396   3.198   2.073 -0.5396  2.9981  1.4364
 1667SOL     OW 5346   3.361   2.992   1.059  0.7336 -0.8458  0.0863
 1667SOL    HW1 5347   3.276   3.010   1.019  2.1193  0.5937 -2.4104
 1667SOL    HW2 5348   3.388   3.075   1.098  1.1311 -1.2062  0.5893
 1668SOL     OW 5349   3.165   1.949   0.678 -0.1094 -0.4280 -0.0571
 1668SOL    HW1 5350   3.126   1.894   0.610 -1.7769 -1.4837  1.6388
 1668SOL    HW2 5351   3.189   2.030   0.633 -0.1621 -1.4636 -2.0869
 1669SOL     OW 5352   1.865   4.247   1.812 -0.2010  0.1336  0.4793
 1669SOL    HW1 5353   1.804   4.257   1.739 -0.5976  1.0431  0.9174
 1669SOL    HW2 5354   1.914   4.330   1.815  0.2251 -0.1214  0.8767
 1670SOL     OW 5355   2.482   3.917   0.955 -0.7077  0.0158 -0.0008
 1670SOL    HW1 5356   2.434   3.997   0.939  0.8811  1.1040  0.4014
 1670SOL    HW2 5357   2.474   3.902   1.050 -0.9645 -0.2688 -0.0678
 1671SOL     OW 5358   0.944   1.600   1.729 -0.1142 -1.2681 -0.9536
 1671SOL    HW1 5359   0.885   1.674   1.720 -1.6518 -2.2869  0.2156
 1671SOL    HW2 5360   0.976   1.605   1.820  1.4734 -0.8597 -1.4916
 1672SOL     OW 5361   2.074   3.834   2.041  0.4021 -0.8191  0.1214
 1672SOL    HW1 5362   1.983   3.806   2.036 -0.0507  0.7089 -0.9140
 1672SOL    HW2 5363   2.111   3.810   1.956  0.1531  1.1102 -0.5691
 1673SOL     OW 5364   4.147   1.144   2.634 -0.0919 -0.0015 -0.3230
 1673SOL    HW1 5365   4.182   1.082   2.698 -0.8126  1.0908  1.1834
 1673SOL    HW2 5366   4.150   1.097   2.551  0.6150 -1.5669  0.5487
 1674SOL     OW 5367   2.116   1.165   3.714 -0.2054  0.3383  0.2136
 1674SOL    HW1 5368   2.166   1.084   3.720 -0.0810  0.3274 -0.7885
 1674SOL    HW2 5369   2.176   1.233   3.745  0.5220  0.3517 -1.1552
 1675SOL     OW 5370   2.348   1.327   0.188  0.0017 -0.3092 -0.0883
 1675SOL    HW1 5371   2.264   1.311   0.145  0.1332 -1.8307  0.1633
 1675SOL    HW2 5372   2.408   1.346   0.116 -1.0432  3.7769 -0.1509
 1676SOL     OW 5373   2.064   4.259   0.687 -0.0180 -0.2938 -0.0903
 1676SOL    HW1 5374   2.041   4.265   0.594  2.1948  0.2553 -0.6816
 1676SOL    HW2 5375   2.145   4.310   0.694 -1.0111  1.1198  2.4924
 1677SOL     OW 5376   0.809   3.522   2.686  0.1424 -0.1204  0.3234
 1677SOL    HW1 5377   0.885   3.466   2.704  0.8813  0.1848 -1.6303
 1677SOL    HW2 5378   0.754   3.513   2.763  1.0016 -2.2760  0.7390
 1678SOL     OW 5379   0.014   1.287   4.121  0.3226  0.3601  0.1254
 1678SOL    HW1 5380  -0.017   1.261   4.207 -2.0198 -0.0426 -0.7661
 1678SOL    HW2 5381  -0.015   1.378   4.111  0.2777  0.3005 -0.3466
 1679SOL     OW 5382   4.077   0.258   2.731 -0.0500 -0.1602  0.1201
 1679SOL    HW1 5383   4.148   0.315   2.702 -0.3352  0.4645  0.6279
 1679SOL    HW2 5384   4.121   0.190   2.783  0.4503 -1.2181 -1.5736
 1680SOL     OW 5385   2.167   2.325   3.024 -0.0700  0.9445  0.0003
 1680SOL    HW1 5386   2.197   2.415   3.011  2.3907 -0.0152 -1.8298
 1680SOL    HW2 5387   2.183   2.283   2.939 -0.5031 -1.3800  1.0092
 1681SOL     OW 5388   2.673   3.280   0.041 -0.1991  0.2428 -0.0062
 1681SOL    HW1 5389   2.708   3.363   0.072 -0.0312 -0.1617  0.9381
 1681SOL    HW2 5390   2.626   3.244   0.117 -3.6611  1.2378 -1.4637
 1682SOL     OW 5391   1.417   3.170   2.860 -0.2942 -0.5015 -0.4028
 1682SOL    HW1 5392   1.360   3.224   2.915 -1.8819 -1.4976 -0.9768
 1682SOL    HW2 5393   1.472   3.232   2.813  0.8617  0.4135  1.9755
 1683SOL     OW 5394   0.963   2.802   2.677 -0.4717 -0.2056  0.2245
 1683SOL    HW1 5395   0.905   2.750   2.622 -1.0059  0.3704  0.2355
 1683SOL    HW2 5396   0.953   2.892   2.645  1.7770 -0.3029 -1.0002
 1684SOL     OW 5397   3.808   3.458   0.374 -0.1138  0.2624 -0.2861
 1684SOL    HW1 5398   3.724   3.489   0.407 -0.1077  0.3293 -0.3338
 1684SOL    HW2 5399   3.865   3.535   0.378  0.2533 -0.0539  0.7918
 1685SOL     OW 5400   1.008   1.541   1.398 -0.6517  0.3281 -0.7827
 1685SOL    HW1 5401   0.969   1.530   1.485  0.7232 -0.4114 -0.2192
 1685SOL    HW2 5402   0.997   1.455   1.357 -1.1939  0.6434 -1.3175
 1686SOL     OW 5403   3.999   1.360   2.510 -0.3045  0.2024 -0.4315
 1686SOL    HW1 5404   4.062   1.304   2.555 -2.1299 -1.2472  0.4416
 1686SOL    HW2 5405   3.926   1.302   2.489 -1.4190  1.8408 -1.3018
 1687SOL     OW 5406   3.121   3.670   3.631 -0.3678  0.1519 -0.2966
 1687SOL    HW1 5407   3.116   3.584   3.672  1.9876  0.0089 -0.1789
 1687SOL    HW2 5408   3.211   3.677   3.599 -0.2202  2.8870  0.4299
 1688SOL     OW 5409   0.579   0.682   3.504  0.8530 -0.6868  0.1019
 1688SOL    HW1 5410   0.511   0.628   3.463  1.7216 -1.0418 -0.9154
 1688SOL    HW2 5411   0.582   0.652   3.595 -0.0223 -0.9901  0.0361
 1689SOL     OW 5412   0.851   0.880   0.008  0.0423  0.0225 -0.0666
 1689SOL    HW1 5413   0.835   0.974   0.000  0.7167  0.4511  2.5513
 1689SOL    HW2 5414   0.908   0.860  -0.066  0.3093  1.7981 -0.4054
 1690SOL     OW 5415   2.294   2.612   2.052 -0.1674 -0.0440  0.2189
 1690SOL    HW1 5416   2.330   2.687   2.100  0.4790  0.0273 -0.3617
 1690SOL    HW2 5417   2.235   2.651   1.988  0.0122 -0.0378  0.0546
 1691SOL     OW 5418   0.406   1.850   1.622  0.2823 -1.0081 -0.0823
 1691SOL    HW1 5419   0.381   1.859   1.714  1.3732 -0.0210  0.1503
 1691SOL    HW2 5420   0.466   1.775   1.621  1.3099 -0.2238  0.2762
 1692SOL     OW 5421   3.284   0.874   1.898 -0.7770  0.1495 -0.3533
 1692SOL    HW1 5422   3.285   0.951   1.841 -0.2927 -0.7083 -1.5557
 1692SOL    HW2 5423   3.215   0.892   1.962 -1.1487  1.2722 -1.0434
 1693SOL     OW 5424   3.053   0.607   1.833 -0.5245  0.0137 -0.1730
 1693SOL    HW1 5425   2.993   0.573   1.901 -0.6926  1.5512  0.4848
 1693SOL    HW2 5426   3.048   0.702   1.843  0.7946  0.2055 -1.2113
 1694SOL     OW 5427   4.273   3.716   1.926  0.5429  0.3843  0.3037
 1694SOL    HW1 5428   4.327   3.786   1.890  0.3867  0.7807  0.8190
 1694SOL    HW2 5429   4.320   3.687   2.004  0.1705  0.5258  0.5855
 1695SOL     OW 5430   0.224   3.090   3.097 -0.2299 -0.0693 -0.2335
 1695SOL    HW1 5431   0.165   3.164   3.090  0.2886  0.3134 -0.6528
 1695SOL    HW2 5432   0.199   3.032   3.025  0.3660  0.4351 -0.8607
 1696SOL     OW 5433   3.621   3.463   2.357 -0.2198 -0.2630  0.2419
 1696SOL    HW1 5434   3.630   3.368   2.348 -0.9576 -0.3519  0.4043
 1696SOL    HW2 5435   3.626   3.496   2.267  2.0153 -0.2511  0.3181
 1697SOL     OW 5436   0.620   0.582   1.758  0.2116  0.1908 -0.0545
 1697SOL    HW1 5437   0.629   0.666   1.805 -2.5700  0.2870  0.4764
 1697SOL    HW2 5438   0.546   0.596   1.699  1.5632 -1.0215 -2.1356
 1698SOL     OW 5439   1.769   1.604   2.671  0.0658  0.1136 -0.1238
 1698SOL    HW1 5440   1.769   1.509   2.685  1.7175  0.2044  0.7344
 1698SOL    HW2 5441   1.826   1.618   2.596  1.4630  0.5256  0.9612
 1699SOL     OW 5442   1.404   2.644   2.257  0.3299  0.0620  0.5621
 1699SOL    HW1 5443   1.447   2.639   2.172  1.5322 -0.9448  1.2016
 1699SOL    HW2 5444   1.353   2.563   2.262 -0.5852  0.6162  0.3756
 1700SOL     OW 5445   0.952   0.914   2.950 -1.2950  0.3053  0.7205
 1700SOL    HW1 5446   1.045   0.931   2.964 -1.6540  1.6413  1.6784
 1700SOL    HW2 5447   0.907   0.980   3.003 -2.8185  1.6948 -2.0748
 1701SOL     OW 5448   4.198   1.581   2.833  0.0050 -0.0291 -0.2736
 1701SOL    HW1 5449   4.182   1.560   2.925 -0.9622 -1.3376 -0.7209
 1701SOL    HW2 5450   4.166   1.670   2.822  3.6236  1.7232  1.5247
 1702SOL     OW 5451   4.075   1.617   0.994  0.5071 -0.0424  0.0981
 1702SOL    HW1 5452   3.980   1.631   0.988  0.3242 -0.2501  1.9002
 1702SOL    HW2 5453   4.085   1.522   0.996  0.7550 -0.0212 -0.1020
 1703SOL     OW 5454   2.636   0.978   1.483 -0.1929 -0.2787 -0.2625
 1703SOL    HW1 5455   2.571   1.037   1.445 -0.2463  0.0727  0.3716
 1703SOL    HW2 5456   2.606   0.963   1.573  0.8793  0.3097  0.2059
 1704SOL     OW 5457   3.307   1.753   0.384 -0.5680 -0.5427  0.4260
 1704SOL    HW1 5458   3.345   1.797   0.307 -0.4890 -0.4797  0.5009
 1704SOL    HW2 5459   3.231   1.707   0.350 -1.7601  1.1688  0.6601
 1705SOL     OW 5460   3.344   1.359   1.842  0.7934 -0.2583  0.2020
 1705SOL    HW1 5461   3.386   1.415   1.908 -0.1280 -0.1177  0.6754
 1705SOL    HW2 5462   3.314   1.283   1.891  1.6737 -0.9949 -0.3698
 1706SOL     OW 5463   2.686   4.254   2.553  0.3346  0.6262  0.3136
 1706SOL    HW1 5464   2.773   4.220   2.574  0.2290  0.1286 -0.0429
 1706SOL    HW2 5465   2.670   4.321   2.619  1.0780  0.8662  0.2592
 1707SOL     OW 5466   3.821   1.161   0.515  0.6317  0.0944  0.9468
 1707SOL    HW1 5467   3.799   1.248   0.549 -0.5274  0.5796 -0.8973
 1707SOL    HW2 5468   3.796   1.101   0.586  0.9062  1.2050  2.0192
 1708SOL     OW 5469   1.712   4.027   3.487 -0.2350  0.2249 -0.7617
 1708SOL    HW1 5470   1.807   4.028   3.500 -0.4041  1.1020  0.7008
 1708SOL    HW2 5471   1.695   3.945   3.441  1.0571 -0.8688  0.5802
 1709SOL     OW 5472   4.094   1.523   0.627 -0.1041  0.0931 -0.2371
 1709SOL    HW1 5473   4.012   1.572   0.636  0.6917  1.3105  0.8149
 1709SOL    HW2 5474   4.163   1.588   0.645  1.0722 -1.0554 -0.4200
 1710SOL     OW 5475   0.460   0.749   2.274 -0.7459  0.0267 -0.1206
 1710SOL    HW1 5476   0.477   0.823   2.216 -0.4769  0.0543 -0.0087
 1710SOL    HW2 5477   0.410   0.687   2.221  1.3443 -0.9146 -1.0906
 1711SOL     OW 5478   4.326   3.241   1.008  0.7164  0.2818 -0.0781
 1711SOL    HW1 5479   4.340   3.150   0.980 -0.0425 -0.0365  0.5545
 1711SOL    HW2 5480   4.410   3.268   1.044  0.7739 -0.3867  0.3128
 1712SOL     OW 5481   1.734   0.727   3.250  0.2767 -0.2009  0.3291
 1712SOL    HW1 5482   1.682   0.784   3.194  1.9343  1.9082  0.7878
 1712SOL    HW2 5483   1.679   0.650   3.265 -1.7986  0.9700 -0.8915
 1713SOL     OW 5484   2.768   3.734   3.378 -0.3954  0.6144 -0.5530
 1713SOL    HW1 5485   2.777   3.742   3.473 -1.3191 -0.6196 -0.3513
 1713SOL    HW2 5486   2.775   3.825   3.347  0.6553  0.9761  0.6002
 1714SOL     OW 5487   0.588   0.912   2.487 -0.1673 -0.7544  0.2954
 1714SOL    HW1 5488   0.503   0.952   2.504 -1.2073 -1.3929 -2.6967
 1714SOL    HW2 5489   0.573   0.854   2.412  2.6177 -1.9916  0.5437
 1715SOL     OW 5490   3.913   1.722   3.490 -0.1080  0.3596  0.7671
 1715SOL    HW1 5491   3.836   1.746   3.541 -0.6833 -1.5003  0.8499
 1715SOL    HW2 5492   3.885   1.647   3.438  1.5559 -0.1469  0.5409
 1716SOL     OW 5493   2.745   0.668   0.194  0.2924 -0.4210  0.6701
 1716SOL    HW1 5494   2.684   0.603   0.228 -0.5200  0.2955  0.6138
 1716SOL    HW2 5495   2.691   0.745   0.175  1.0543 -0.0883 -0.2699
 1717SOL     OW 5496   1.033   0.644   0.355 -0.1474 -0.1471  0.6438
 1717SOL    HW1 5497   1.081   0.598   0.287 -1.9064 -1.5152  0.2566
 1717SOL    HW2 5498   1.039   0.737   0.330  3.3980 -0.0406  1.4027
 1718SOL     OW 5499   3.605   2.084   2.929 -0.3028  0.3235  0.3529
 1718SOL    HW1 5500   3.590   2.170   2.968 -0.7465  0.9738 -1.1929
 1718SOL    HW2 5501   3.523   2.036   2.943 -0.9488  1.0132 -0.8701
 1719SOL     OW 5502   1.778   1.317   2.607  0.0712 -0.1672  0.4321
 1719SOL    HW1 5503   1.812   1.323   2.518  1.7333  0.1636  1.0549
 1719SOL    HW2 5504   1.798   1.227   2.634  1.0924  0.2256  1.0331
 1720SOL     OW 5505   3.061   3.767   3.235  0.4152  0.0742  0.1577
 1720SOL    HW1 5506   3.017   3.822   3.170  0.7044  0.2322  0.0941
 1720SOL    HW2 5507   3.028   3.797   3.319  1.0148  0.7422  0.1593
 1721SOL     OW 5508   1.738   0.231   3.074 -0.2834  0.5283 -0.1053
 1721SOL    HW1 5509   1.830   0.257   3.073 -0.2490  0.4040 -0.1713
 1721SOL    HW2 5510   1.737   0.144   3.034 -0.3514  0.2535  0.4915
 1722SOL     OW 5511   2.821   1.358   1.848 -0.4569 -0.3792 -0.4288
 1722SOL    HW1 5512   2.729   1.381   1.833 -1.3931 -3.3102  0.0455
 1722SOL    HW2 5513   2.829   1.269   1.813  2.0792 -0.4169  0.0569
 1723SOL     OW 5514   1.552   1.162   0.171  0.0927  0.4124  0.0018
 1723SOL    HW1 5515   1.513   1.087   0.216 -1.1245  0.9197 -0.1783
 1723SOL    HW2 5516   1.645   1.141   0.168 -0.0909 -0.6533  0.7937
 1724SOL     OW 5517   2.607   3.508   2.575 -0.5883  0.1038  0.2179
 1724SOL    HW1 5518   2.641   3.430   2.531  0.7836  0.4335  0.6428
 1724SOL    HW2 5519   2.565   3.559   2.505  0.1319 -0.1513 -0.4126
 1725SOL     OW 5520   0.073   0.603   3.557  0.0931  0.1778  0.4194
 1725SOL    HW1 5521   0.122   0.541   3.610 -1.0458  0.1443  1.4645
 1725SOL    HW2 5522   0.024   0.655   3.620  0.1721  1.4221 -0.5003
 1726SOL     OW 5523   0.433   2.059   1.244  0.4896 -0.1025 -0.0425
 1726SOL    HW1 5524   0.405   1.968   1.234  2.6464 -0.6768 -1.4611
 1726SOL    HW2 5525   0.459   2.065   1.336 -1.6130 -0.2794  0.6122
 1727SOL     OW 5526   0.365   3.584   3.302  0.2043  0.0462  0.2946
 1727SOL    HW1 5527   0.318   3.653   3.350  1.0263  0.0962  1.0499
 1727SOL    HW2 5528   0.295   3.532   3.261 -0.6903 -1.2084  3.1556
 1728SOL     OW 5529   3.703   0.411   1.642  0.5089 -0.1354  0.8039
 1728SOL    HW1 5530   3.775   0.350   1.631  1.1734  1.0116 -2.0140
 1728SOL    HW2 5531   3.725   0.485   1.586 -3.1371  0.0129 -0.7208
 1729SOL     OW 5532   3.227   0.034   0.228 -0.6492  0.3224 -0.0932
 1729SOL    HW1 5533   3.286   0.092   0.181  0.7241 -1.0555 -0.1395
 1729SOL    HW2 5534   3.241   0.055   0.321 -0.6112  0.4714 -0.1330
 1730SOL     OW 5535   1.657   1.137   0.502 -0.1014  0.2122  0.2422
 1730SOL    HW1 5536   1.673   1.051   0.464 -2.3782 -0.3206  0.3840
 1730SOL    HW2 5537   1.718   1.195   0.455 -0.3115 -1.0265 -1.6762
 1731SOL     OW 5538   0.211   1.313   0.415  0.2875 -0.1767 -0.1100
 1731SOL    HW1 5539   0.118   1.324   0.433  0.2598 -1.0098  0.3404
 1731SOL    HW2 5540   0.232   1.380   0.350 -0.3247  0.8918  0.7657
 1732SOL     OW 5541   1.874   0.061   1.213  0.1929 -0.0556 -0.3571
 1732SOL    HW1 5542   1.915  -0.025   1.206 -0.0947 -0.3189  0.9679
 1732SOL    HW2 5543   1.885   0.100   1.126  0.2917 -1.4364 -0.9896
 1733SOL     OW 5544   0.896   1.675   3.868  0.0570  0.0237  0.1387
 1733SOL    HW1 5545   0.945   1.687   3.787 -0.0761  0.3260  0.0997
 1733SOL    HW2 5546   0.884   1.581   3.876 -0.5332  0.0303 -0.5634
 1734SOL     OW 5547   0.975   1.039   1.086 -0.0776  0.2410 -0.2652
 1734SOL    HW1 5548   0.996   1.058   0.995  1.1424  1.6625  0.2776
 1734SOL    HW2 5549   0.899   0.981   1.081 -0.3556  0.6956 -2.1701
 1735SOL     OW 5550   0.953   3.097   1.471  0.4554 -0.4188 -0.0454
 1735SOL    HW1 5551   0.980   3.171   1.526  0.5749 -2.2778  2.5640
 1735SOL    HW2 5552   0.857   3.101   1.471  0.4218  1.3083 -2.3635
 1736SOL     OW 5553   1.422   0.482   2.036 -1.1059 -0.6474 -0.1380
 1736SOL    HW1 5554   1.496   0.536   2.065 -0.5909 -1.1918 -0.4257
 1736SOL    HW2 5555   1.386   0.530   1.961 -0.8945 -0.5034 -0.1504
 1737SOL     OW 5556   3.124   0.414   2.166  0.3044  0.0966  0.1317
 1737SOL    HW1 5557   3.154   0.433   2.255 -0.0535 -2.0111  0.7538
 1737SOL    HW2 5558   3.202   0.426   2.111  0.2158  2.7640  0.4472
 1738SOL     OW 5559   3.170   0.464   2.695  0.3635 -0.0528  0.0519
 1738SOL    HW1 5560   3.264   0.450   2.678  0.2601  0.2972 -0.8641
 1738SOL    HW2 5561   3.168   0.523   2.770  0.9559  2.2017 -1.6153
 1739SOL     OW 5562   0.853   4.347   2.951 -0.2303  0.0382 -0.7038
 1739SOL    HW1 5563   0.875   4.406   2.880 -0.8490  0.0893 -0.8567
 1739SOL    HW2 5564   0.877   4.395   3.031 -0.6896  0.4720 -0.8292
 1740SOL     OW 5565   0.260   3.003   1.159 -0.1470 -0.2763  0.0056
 1740SOL    HW1 5566   0.266   3.002   1.063 -2.1611  1.2991 -0.2170
 1740SOL    HW2 5567   0.347   3.027   1.188  0.2347  0.3314 -1.5066
 1741SOL     OW 5568   2.662   4.229   4.004 -0.3002 -0.4301  0.3091
 1741SOL    HW1 5569   2.588   4.282   4.032 -0.1540  0.2607 -0.5580
 1741SOL    HW2 5570   2.635   4.191   3.920  0.3676 -0.0618 -0.0829
 1742SOL     OW 5571   3.533   0.943   1.248  0.1792  0.3711  0.0995
 1742SOL    HW1 5572   3.581   0.947   1.331  1.6580  3.8090 -0.7522
 1742SOL    HW2 5573   3.548   0.854   1.216  2.6780  0.0829  1.7909
 1743SOL     OW 5574   1.917   2.600   2.107  0.5968 -0.1807  0.1638
 1743SOL    HW1 5575   1.915   2.691   2.139  0.3676  0.2631 -1.0491
 1743SOL    HW2 5576   1.945   2.608   2.016  0.1205 -1.3005 -0.0891
 1744SOL     OW 5577   2.079   4.228   1.470 -0.5587 -0.7623  0.5684
 1744SOL    HW1 5578   2.048   4.179   1.394  0.3727 -1.8573  0.8720
 1744SOL    HW2 5579   2.134   4.297   1.434 -1.4789 -0.2105  0.1686
 1745SOL     OW 5580   2.120   2.754   4.202 -0.3678 -0.3880 -0.2706
 1745SOL    HW1 5581   2.176   2.764   4.279 -0.3616  3.8414 -0.5971
 1745SOL    HW2 5582   2.173   2.701   4.142  1.3651 -0.3080  1.0781
 1746SOL     OW 5583   0.970   1.363   0.963 -0.1557  0.3294 -0.0329
 1746SOL    HW1 5584   0.909   1.308   0.914  0.8084 -2.1224  1.3183
 1746SOL    HW2 5585   1.043   1.377   0.902 -1.6455  2.7030 -1.4104
 1747SOL     OW 5586   2.519   0.543   4.357  0.4907  0.3442 -0.3600
 1747SOL    HW1 5587   2.510   0.602   4.431 -0.0319 -0.1169 -0.0460
 1747SOL    HW2 5588   2.573   0.471   4.390 -3.1560 -2.0582  1.0081
 1748SOL     OW 5589   3.030   3.366   4.048  0.3721 -0.3379  0.0971
 1748SOL    HW1 5590   3.017   3.278   4.013 -1.5293  0.0100 -0.1652
 1748SOL    HW2 5591   3.116   3.392   4.014  1.1938 -2.2209  0.5365
 1749SOL     OW 5592   1.630   1.885   1.443 -0.8593  0.5263 -0.0766
 1749SOL    HW1 5593   1.686   1.940   1.389  3.6948 -1.3622  2.2031
 1749SOL    HW2 5594   1.608   1.939   1.518 -0.9686  0.8591 -0.3436
 1750SOL     OW 5595   2.463   0.195   1.200  0.3032 -0.4206 -0.0698
 1750SOL    HW1 5596   2.400   0.250   1.154  2.5215  2.4522  0.0588
 1750SOL    HW2 5597   2.516   0.155   1.130  0.2393 -0.4113 -0.1235
 1751SOL     OW 5598   0.229   1.181   1.240  0.0252  0.0841 -0.2008
 1751SOL    HW1 5599   0.149   1.129   1.229 -0.2643  0.3962  0.3771
 1751SOL    HW2 5600   0.299   1.124   1.209 -0.3711 -0.3721 -0.2753
 1752SOL     OW 5601   3.349   2.367   0.745 -0.2263 -0.2658 -0.5513
 1752SOL    HW1 5602   3.345   2.441   0.684  1.0578 -0.0743 -0.4358
 1752SOL    HW2 5603   3.337   2.290   0.690  0.0257 -0.0485 -0.9171
 1753SOL     OW 5604   2.161   0.791   0.222 -0.8297 -0.1843  0.6287
 1753SOL    HW1 5605   2.101   0.866   0.224  0.0500  0.6872 -1.8923
 1753SOL    HW2 5606   2.116   0.726   0.169 -1.0399 -0.9657  1.7400
 1754SOL     OW 5607   1.712   4.368   2.533 -0.6985  0.3764 -0.4415
 1754SOL    HW1 5608   1.786   4.319   2.568 -0.3345  0.8032 -0.6070
 1754SOL    HW2 5609   1.734   4.460   2.549 -0.0507  0.6606 -2.6520
 1755SOL     OW 5610   4.303   0.690   0.209  0.1286 -0.4175 -0.1006
 1755SOL    HW1 5611   4.225   0.718   0.161 -0.8234  0.7471  1.9559
 1755SOL    HW2 5612   4.356   0.769   0.216 -0.2812 -0.2553  1.6202
 1756SOL     OW 5613   0.354   3.015   3.327  0.0838 -0.9072 -0.2833
 1756SOL    HW1 5614   0.436   3.058   3.302 -0.6228  1.5213  1.1988
 1756SOL    HW2 5615   0.293   3.035   3.256 -0.0530  0.0265  0.0816
 1757SOL     OW 5616   0.689   3.224   3.428 -0.2667 -0.6412  0.0322
 1757SOL    HW1 5617   0.659   3.258   3.513  1.7757 -0.5189  0.7427
 1757SOL    HW2 5618   0.766   3.276   3.408  0.5442 -2.1404 -0.8464
 1758SOL     OW 5619   3.693   3.718   1.617 -0.4699 -0.5484  0.3057
 1758SOL    HW1 5620   3.691   3.808   1.582  0.8519 -0.9836 -0.9725
 1758SOL    HW2 5621   3.613   3.678   1.582 -1.3039  0.2431  1.2575
 1759SOL     OW 5622   1.646   0.890   3.649 -0.3899  0.4838 -0.1648
 1759SOL    HW1 5623   1.591   0.849   3.715  0.7757  1.7550  1.6750
 1759SOL    HW2 5624   1.590   0.957   3.609 -1.4426 -1.0146 -1.2959
 1760SOL     OW 5625   2.898   4.145   3.502  0.5617  0.2407  0.4118
 1760SOL    HW1 5626   2.883   4.220   3.560  1.4540 -1.0603  2.4415
 1760SOL    HW2 5627   2.821   4.090   3.513  0.9640 -0.2599  0.8054
 1761SOL     OW 5628   3.723   0.005   3.288  0.1901  0.3006 -0.4412
 1761SOL    HW1 5629   3.773  -0.071   3.318  1.7320  1.1299 -0.8358
 1761SOL    HW2 5630   3.702  -0.015   3.197 -0.6562 -0.2627 -0.1361
 1762SOL     OW 5631   2.930   3.227   1.137 -0.8743 -0.3423 -0.0177
 1762SOL    HW1 5632   2.950   3.214   1.230 -2.1734  2.3482  0.7179
 1762SOL    HW2 5633   3.007   3.272   1.103  0.7463 -3.5106 -1.0045
 1763SOL     OW 5634   2.186   0.369   1.351 -0.0933 -0.1447 -0.7562
 1763SOL    HW1 5635   2.101   0.411   1.337 -0.1601  1.1607  2.7047
 1763SOL    HW2 5636   2.244   0.411   1.287 -1.3294  1.4152 -0.9165
 1764SOL     OW 5637   0.051   3.941   3.335  0.4780  0.8676 -0.4072
 1764SOL    HW1 5638   0.081   3.883   3.405  1.8005  0.7052 -1.0795
 1764SOL    HW2 5639   0.088   4.026   3.357 -0.4469  1.1979 -0.0740
 1765SOL     OW 5640   2.889   4.357   4.078  0.4249  0.0311 -0.4273
 1765SOL    HW1 5641   2.911   4.399   3.995  0.6717 -0.6827 -0.7321
 1765SOL    HW2 5642   2.808   4.309   4.061  0.0475  0.5206 -0.0327
 1766SOL     OW 5643   3.989   1.884   2.263 -0.3717  0.3064 -0.1543
 1766SOL    HW1 5644   3.961   1.795   2.285  0.8183  0.0878  0.5551
 1766SOL    HW2 5645   4.048   1.909   2.334 -2.2620  2.4642  0.7857
 1767SOL     OW 5646   1.275   2.867   1.573 -0.0855  0.0013 -0.5002
 1767SOL    HW1 5647   1.243   2.879   1.662  0.8149 -1.1722  0.0193
 1767SOL    HW2 5648   1.196   2.855   1.520 -0.6645  1.5059 -0.0250
 1768SOL     OW 5649   1.028   1.404   3.827 -0.6672 -0.0870 -0.0908
 1768SOL    HW1 5650   1.005   1.429   3.738  0.0839 -1.3197 -0.6597
 1768SOL    HW2 5651   1.031   1.308   3.825 -0.8293 -0.1449  1.3157
 1769SOL     OW 5652   3.938   2.597   4.066  0.4020 -0.3302  0.2068
 1769SOL    HW1 5653   3.891   2.673   4.101  1.1520  0.9120 -1.3649
 1769SOL    HW2 5654   3.892   2.522   4.103 -0.5797  0.8637  1.5478
 1770SOL     OW 5655   3.803   0.217   3.861  0.4685 -0.0534  0.8002
 1770SOL    HW1 5656   3.734   0.208   3.796  1.5288  0.1138 -0.3959
 1770SOL    HW2 5657   3.817   0.311   3.869  0.7943 -0.0985  0.7744
 1771SOL     OW 5658   0.583   0.078   3.042  0.2846  0.7163  0.2453
 1771SOL    HW1 5659   0.632   0.139   2.987 -0.0091  0.9347  0.2265
 1771SOL    HW2 5660   0.492   0.085   3.012  0.7371 -2.4803 -2.3514
 1772SOL     OW 5661   3.319   3.772   3.127  0.0729 -0.7156 -0.2243
 1772SOL    HW1 5662   3.273   3.820   3.195  2.2406  1.4943 -0.2044
 1772SOL    HW2 5663   3.375   3.710   3.174  0.1271 -0.5612 -0.0872
 1773SOL     OW 5664   3.717   1.398   0.692 -0.3951 -0.6317  0.1104
 1773SOL    HW1 5665   3.756   1.485   0.684  0.2306 -0.8012  1.1255
 1773SOL    HW2 5666   3.623   1.412   0.680 -0.1802 -0.0206 -1.0714
 1774SOL     OW 5667   0.620   1.491   0.142 -0.1476 -0.6211  0.4139
 1774SOL    HW1 5668   0.667   1.510   0.061 -1.6218  2.2215  0.1062
 1774SOL    HW2 5669   0.561   1.420   0.119 -0.7047  0.2823 -1.1141
 1775SOL     OW 5670   1.900   2.474   0.024  0.3440 -0.5096 -0.1360
 1775SOL    HW1 5671   1.930   2.401  -0.030  2.1387  0.2573 -0.2526
 1775SOL    HW2 5672   1.922   2.449   0.113 -0.8992 -0.9624  0.0593
 1776SOL     OW 5673   3.041   2.638   3.313  0.3371  0.1829 -0.0302
 1776SOL    HW1 5674   3.027   2.714   3.256  0.8737 -0.5422 -1.1569
 1776SOL    HW2 5675   3.023   2.563   3.257  0.4306 -0.5474  0.9005
 1777SOL     OW 5676   1.167   0.401   0.916  0.6101 -0.1224  0.3667
 1777SOL    HW1 5677   1.184   0.366   1.004  0.5686 -0.7611  0.1262
 1777SOL    HW2 5678   1.075   0.382   0.900 -0.1936  2.5341  1.3084
 1778SOL     OW 5679   0.987   1.060   0.818 -0.0210 -0.4961  0.3232
 1778SOL    HW1 5680   0.989   0.972   0.782 -2.5920  0.1934 -1.7694
 1778SOL    HW2 5681   1.046   1.110   0.762  2.1492 -0.9252  2.0463
 1779SOL     OW 5682   1.129   1.565   1.955  0.3141  0.1545 -0.6135
 1779SOL    HW1 5683   1.089   1.528   2.034 -2.2146  1.4256 -1.1734
 1779SOL    HW2 5684   1.143   1.657   1.978 -2.1161  0.9851 -2.1171
 1780SOL     OW 5685   0.859   1.991   0.120 -0.5898  0.6070  0.1720
 1780SOL    HW1 5686   0.777   1.942   0.123  0.4004 -1.0614  1.8297
 1780SOL    HW2 5687   0.918   1.942   0.176  0.8142  3.1620  1.0685
 1781SOL     OW 5688   4.178   2.901   3.698  0.2172 -0.5139 -0.4139
 1781SOL    HW1 5689   4.169   2.902   3.793 -0.5252  0.1243 -0.4766
 1781SOL    HW2 5690   4.088   2.892   3.666  0.6177 -3.1508 -1.0427
 1782SOL     OW 5691   2.786   2.907   0.629  0.1659 -0.0071  0.0972
 1782SOL    HW1 5692   2.858   2.852   0.597 -0.8877 -1.6022  0.3360
 1782SOL    HW2 5693   2.708   2.865   0.595 -0.7181  1.0963  0.7107
 1783SOL     OW 5694   3.439   1.114   2.005 -0.5095  0.2531  0.7657
 1783SOL    HW1 5695   3.349   1.133   2.031 -0.5727 -0.0249  0.7561
 1783SOL    HW2 5696   3.435   1.102   1.910 -0.2093  1.6745  0.5445
 1784SOL     OW 5697   0.865   0.200   4.132  0.1666 -0.1928  0.3973
 1784SOL    HW1 5698   0.797   0.134   4.118 -0.5411  0.3748  1.0234
 1784SOL    HW2 5699   0.928   0.186   4.062 -0.9053 -0.3612 -0.5557
 1785SOL     OW 5700   0.214   1.621   2.381 -0.0530  0.1131 -0.3277
 1785SOL    HW1 5701   0.216   1.561   2.455 -1.5486  1.3563  0.7886
 1785SOL    HW2 5702   0.122   1.643   2.369  0.0485 -0.5726 -3.0551
 1786SOL     OW 5703   4.017   2.028   3.863 -0.7729 -0.0988  0.1441
 1786SOL    HW1 5704   3.994   2.009   3.772 -0.3493 -1.2754  0.2596
 1786SOL    HW2 5705   4.033   1.942   3.902  2.5163  0.5131  0.4066
 1787SOL     OW 5706   4.115   4.048   2.918 -0.3041 -0.0486 -0.4557
 1787SOL    HW1 5707   4.155   4.052   3.005  0.0618 -0.6428 -0.5876
 1787SOL    HW2 5708   4.149   3.967   2.880 -0.0425  0.4641 -1.3539
 1788SOL     OW 5709   3.758   0.004   2.752 -0.3123 -0.1975  0.4506
 1788SOL    HW1 5710   3.694  -0.065   2.735 -0.1577  0.1324 -1.6995
 1788SOL    HW2 5711   3.819  -0.035   2.815 -1.2330 -1.3666  0.6649
 1789SOL     OW 5712   2.246   2.596   2.886 -0.7688  0.3046 -0.1989
 1789SOL    HW1 5713   2.208   2.666   2.833  1.3442  2.3588  0.7574
 1789SOL    HW2 5714   2.324   2.569   2.838 -0.3943  0.1746  0.4624
 1790SOL     OW 5715   3.996   1.782   2.776 -1.0323 -0.1169  0.2290
 1790SOL    HW1 5716   3.936   1.746   2.712  1.2416  0.7709 -2.5999
 1790SOL    HW2 5717   3.970   1.874   2.785 -1.3119 -0.2261  0.5835
 1791SOL     OW 5718   3.552   2.732   3.275 -0.0349  0.1399 -0.2983
 1791SOL    HW1 5719   3.483   2.722   3.341  0.5959  0.1421  0.3729
 1791SOL    HW2 5720   3.508   2.774   3.201 -1.1202 -1.2811 -0.5021
 1792SOL     OW 5721   3.492   0.714   2.017 -0.3413  0.1921 -0.5494
 1792SOL    HW1 5722   3.427   0.768   1.973 -1.7337 -0.2773  0.8731
 1792SOL    HW2 5723   3.551   0.777   2.058  0.4665  0.6244 -2.2566
 1793SOL     OW 5724   0.555   1.578   1.700 -0.4241 -0.2327  0.3111
 1793SOL    HW1 5725   0.613   1.551   1.629  1.9719  1.4599  1.4715
 1793SOL    HW2 5726   0.614   1.597   1.773 -2.2874  2.8243  1.2033
 1794SOL     OW 5727   2.467   2.568   1.418 -0.3893 -0.2541  0.0751
 1794SOL    HW1 5728   2.463   2.602   1.329  0.4060  0.0096  0.1293
 1794SOL    HW2 5729   2.497   2.643   1.471 -0.8977 -0.3937  0.5723
 1795SOL     OW 5730   2.969   2.743   0.814 -0.5092 -0.6407  0.1662
 1795SOL    HW1 5731   2.958   2.752   0.908  0.0727  1.5270  0.0877
 1795SOL    HW2 5732   2.881   2.727   0.780 -1.6248  3.4304  0.6870
 1796SOL     OW 5733   1.127   1.977   0.501  0.4140 -0.9844 -0.6171
 1796SOL    HW1 5734   1.179   1.979   0.581 -1.1897 -1.3806  0.4830
 1796SOL    HW2 5735   1.127   2.067   0.470 -1.5217 -0.0928  1.6264
 1797SOL     OW 5736   3.856   2.769   2.929 -0.0459  0.5257  0.0790
 1797SOL    HW1 5737   3.950   2.757   2.913 -0.3018  0.3292 -1.3251
 1797SOL    HW2 5738   3.848   2.760   3.024  1.3865  0.7630  0.2590
 1798SOL     OW 5739   2.390   3.981   3.376  0.7760 -0.4347 -0.1724
 1798SOL    HW1 5740   2.356   3.938   3.454  0.8549  0.4201  0.3553
 1798SOL    HW2 5741   2.427   3.910   3.324  0.8812 -1.0096  0.6516
 1799SOL     OW 5742   3.068   4.203   4.230  0.2691  0.1317 -0.3947
 1799SOL    HW1 5743   3.048   4.275   4.170  0.1181  0.6311  0.2406
 1799SOL    HW2 5744   2.994   4.201   4.290  1.1988  0.7650  0.8127
 1800SOL     OW 5745   1.398   0.901   1.224  0.8014 -0.0351 -0.2825
 1800SOL    HW1 5746   1.405   0.888   1.318  0.8424  0.6632 -0.1852
 1800SOL    HW2 5747   1.304   0.901   1.206  0.4734  4.1301  0.4288
 1801SOL     OW 5748   3.256   3.401   0.633 -0.4654  0.0775 -0.0688
 1801SOL    HW1 5749   3.178   3.456   0.638  0.6739  2.0621 -2.0268
 1801SOL    HW2 5750   3.324   3.453   0.677  0.4646 -0.0846 -1.2690
 1802SOL     OW 5751   2.093   2.138   0.611  0.7008 -0.0928 -0.1737
 1802SOL    HW1 5752   2.044   2.127   0.530 -1.1699 -1.0494  1.0102
 1802SOL    HW2 5753   2.138   2.222   0.602  0.0137  0.1097 -1.9219
 1803SOL     OW 5754   2.158   2.274   3.852 -0.3878 -0.6533  0.1610
 1803SOL    HW1 5755   2.173   2.244   3.762  0.2361  1.3076 -0.4182
 1803SOL    HW2 5756   2.233   2.241   3.901 -0.7484 -1.7619  0.0188
 1804SOL     OW 5757   2.352   3.952   1.963  0.1840  0.0962  0.8105
 1804SOL    HW1 5758   2.284   3.989   1.907  2.8115  1.0136 -2.0472
 1804SOL    HW2 5759   2.324   3.862   1.979 -2.0230  0.6504  0.4386
 1805SOL     OW 5760   3.063   0.176   2.751  1.0392 -0.3381 -0.5326
 1805SOL    HW1 5761   3.126   0.245   2.732  2.6027 -2.1169 -2.3091
 1805SOL    HW2 5762   3.091   0.140   2.836  1.4980 -0.1351 -0.5947
 1806SOL     OW 5763   0.167   4.298   0.317  0.3856 -1.2403 -0.0156
 1806SOL    HW1 5764   0.189   4.386   0.347 -0.0353 -1.2664  0.3898
 1806SOL    HW2 5765   0.250   4.250   0.319  0.2775 -1.4383  1.8083
 1807SOL     OW 5766   4.042   2.055   1.525 -0.2655  0.0547  0.4174
 1807SOL    HW1 5767   3.953   2.029   1.502 -0.5993  0.1322  1.6065
 1807SOL    HW2 5768   4.076   1.982   1.576  1.4243 -1.3267 -2.4410
 1808SOL     OW 5769   1.122   0.818   1.175  0.4332 -0.0343 -0.1093
 1808SOL    HW1 5770   1.056   0.749   1.181  1.2538 -1.0359 -1.6798
 1808SOL    HW2 5771   1.075   0.894   1.142  0.2987 -1.2567 -2.9987
 1809SOL     OW 5772   4.208   2.458   2.589  0.1520  0.5946  0.1914
 1809SOL    HW1 5773   4.290   2.446   2.541  0.5851 -1.4502  1.3228
 1809SOL    HW2 5774   4.232   2.448   2.681 -0.8983  3.0096  0.8272
 1810SOL     OW 5775   3.720   1.847   4.014 -0.1328  0.7628  0.0965
 1810SOL    HW1 5776   3.814   1.830   4.001 -0.0679  0.2768  1.1093
 1810SOL    HW2 5777   3.681   1.760   4.018 -0.7885  0.9704 -1.3256
 1811SOL     OW 5778   0.245   0.457   3.748  0.3804  0.1968  0.2553
 1811SOL    HW1 5779   0.285   0.370   3.755 -0.5843 -0.2892 -0.0862
 1811SOL    HW2 5780   0.219   0.479   3.838  0.6219  0.1297  0.3418
 1812SOL     OW 5781   3.259   3.782   4.057  0.2540 -0.0977  0.3747
 1812SOL    HW1 5782   3.208   3.831   4.121  0.4556  0.8219 -0.1370
 1812SOL    HW2 5783   3.323   3.846   4.025  0.4094 -0.6508 -0.4371
 1813SOL     OW 5784   1.923   4.251   4.163 -0.2742 -0.5552 -0.4296
 1813SOL    HW1 5785   1.845   4.243   4.107  1.6090 -1.6883 -3.1148
 1813SOL    HW2 5786   1.947   4.344   4.157 -1.8679  0.0210  1.2056
 1814SOL     OW 5787   3.450   2.427   1.804 -0.5442  0.1367  0.2184
 1814SOL    HW1 5788   3.407   2.390   1.727 -1.0282  2.7988 -0.9057
 1814SOL    HW2 5789   3.543   2.413   1.788 -0.7139 -0.9891  0.1020
 1815SOL     OW 5790   3.405   4.191   2.203 -0.5101 -0.9604 -0.1735
 1815SOL    HW1 5791   3.407   4.112   2.148 -0.3155 -1.8901  1.1225
 1815SOL    HW2 5792   3.493   4.194   2.242 -1.1756 -1.3325  1.4346
 1816SOL     OW 5793   3.583   1.230   3.782 -0.2698 -0.0425  0.0994
 1816SOL    HW1 5794   3.503   1.259   3.825  0.5836  4.2232 -0.7878
 1816SOL    HW2 5795   3.554   1.188   3.702 -1.6717  1.5926 -0.2992
 1817SOL     OW 5796   1.075   0.158   3.981 -0.7021 -0.0438  0.2841
 1817SOL    HW1 5797   1.123   0.080   4.010 -1.6930 -1.1617 -0.9757
 1817SOL    HW2 5798   1.139   0.207   3.929  0.3520  0.7514  2.2264
 1818SOL     OW 5799   3.629   2.640   3.921 -0.0226 -0.5554  0.0745
 1818SOL    HW1 5800   3.639   2.715   3.980  0.1470 -0.8705  0.4533
 1818SOL    HW2 5801   3.670   2.668   3.839  3.0861 -1.3685  1.1935
 1819SOL     OW 5802   0.977   3.917   2.312  0.1828 -0.8131 -0.3698
 1819SOL    HW1 5803   0.991   3.825   2.287  1.6820 -0.8248  0.4372
 1819SOL    HW2 5804   0.988   3.966   2.230  3.8022 -0.9635 -0.1004
 1820SOL     OW 5805   0.159   3.801   1.043  0.4112 -0.2458 -0.2690
 1820SOL    HW1 5806   0.092   3.750   0.996  0.8836  0.8963 -2.2764
 1820SOL    HW2 5807   0.229   3.738   1.059  0.0270 -0.7864 -0.6606
 1821SOL     OW 5808   3.731   3.028   1.032  0.1591  0.4682 -0.2548
 1821SOL    HW1 5809   3.670   3.100   1.017  0.8014  0.9369 -0.6963
 1821SOL    HW2 5810   3.815   3.071   1.049  0.4571 -0.1705 -0.0737
 1822SOL     OW 5811   0.459   1.977   0.755  0.1402 -0.3962  0.0967
 1822SOL    HW1 5812   0.414   1.992   0.838 -1.2143  0.2475 -0.7133
 1822SOL    HW2 5813   0.527   1.912   0.775 -0.5538 -0.6996  1.5595
 1823SOL     OW 5814   0.272   1.568   2.100  0.3083  0.5674 -0.5123
 1823SOL    HW1 5815   0.257   1.558   2.194  2.0291 -0.5640 -0.3126
 1823SOL    HW2 5816   0.241   1.486   2.062 -1.4558  1.4563 -1.1411
 1824SOL     OW 5817   1.821   0.235   0.878 -0.1737 -0.1164 -0.5375
 1824SOL    HW1 5818   1.903   0.235   0.928  0.1447 -0.0628 -1.0465
 1824SOL    HW2 5819   1.767   0.302   0.920  0.1291 -0.0020 -0.3268
 1825SOL     OW 5820   3.256   3.492   2.878 -0.1719  0.9672 -0.2105
 1825SOL    HW1 5821   3.175   3.497   2.827 -0.4087  1.2459  0.1844
 1825SOL    HW2 5822   3.227   3.497   2.969  0.0018 -1.8465  0.0989
 1826SOL     OW 5823   2.904   1.545   3.897  0.2028 -0.4098  0.1406
 1826SOL    HW1 5824   2.836   1.564   3.962  0.4896 -1.2277  0.7047
 1826SOL    HW2 5825   2.945   1.464   3.928  1.2721 -0.0721 -0.3262
 1827SOL     OW 5826   3.286   2.646   3.402 -0.0917 -0.3664  0.2284
 1827SOL    HW1 5827   3.291   2.729   3.449 -0.5083 -0.7666  1.0047
 1827SOL    HW2 5828   3.192   2.633   3.387 -0.0003 -0.5084 -0.2315
 1828SOL     OW 5829   2.020   1.358   2.790 -0.0146  0.1938 -0.1825
 1828SOL    HW1 5830   2.057   1.287   2.842 -0.7161 -0.3171 -0.3502
 1828SOL    HW2 5831   2.005   1.318   2.704 -1.6476  0.1445  0.0957
 1829SOL     OW 5832   3.729   0.820   0.109  0.3210  0.1399  0.0959
 1829SOL    HW1 5833   3.707   0.867   0.189 -0.0998 -0.7300  0.5044
 1829SOL    HW2 5834   3.754   0.888   0.047  2.0359  0.7491  1.3751
 1830SOL     OW 5835   0.912   2.638   0.490  0.1364  0.5115  0.3149
 1830SOL    HW1 5836   0.995   2.658   0.448 -0.5624 -0.5113 -1.6976
 1830SOL    HW2 5837   0.936   2.596   0.572  1.6483 -0.4477 -0.5713
 1831SOL     OW 5838   2.047   0.549   0.632  0.3702  0.0726  0.0098
 1831SOL    HW1 5839   1.968   0.498   0.614  1.0412 -0.0258 -3.2045
 1831SOL    HW2 5840   2.016   0.640   0.638 -0.2302 -0.1813  0.8798
 1832SOL     OW 5841   2.793   0.746   1.395 -0.3948 -0.0699  0.9103
 1832SOL    HW1 5842   2.753   0.830   1.418 -1.2662 -0.5576  1.1689
 1832SOL    HW2 5843   2.732   0.706   1.334  1.1838  0.5711 -1.2434
 1833SOL     OW 5844   1.251   3.698   1.097 -0.5926  0.1271 -0.2527
 1833SOL    HW1 5845   1.258   3.789   1.124  0.2620 -0.0715  0.2472
 1833SOL    HW2 5846   1.166   3.669   1.131 -0.6607  0.6072 -0.0112
 1834SOL     OW 5847   2.188   0.246   1.851  0.1704  0.3783  0.6551
 1834SOL    HW1 5848   2.148   0.183   1.792  0.6700  1.5166 -0.9674
 1834SOL    HW2 5849   2.248   0.193   1.904 -0.3636 -0.6915  0.2302
 1835SOL     OW 5850   3.944   3.274   0.530  0.1389  0.1241  0.0859
 1835SOL    HW1 5851   3.895   3.326   0.465  1.1617 -0.5384 -1.2711
 1835SOL    HW2 5852   4.033   3.310   0.526  0.2319  0.0084  1.0676
 1836SOL     OW 5853   1.223   3.636   3.463  0.4889 -0.4852 -0.3160
 1836SOL    HW1 5854   1.276   3.677   3.531  0.6797 -2.2064  0.6235
 1836SOL    HW2 5855   1.137   3.623   3.503 -0.0466  0.3627 -1.1288
 1837SOL     OW 5856   3.083   0.421   4.214  0.5111 -0.2526  0.1446
 1837SOL    HW1 5857   3.036   0.458   4.289  0.7977 -0.8242  0.6264
 1837SOL    HW2 5858   3.175   0.445   4.229  0.7412 -1.3391  0.6066
 1838SOL     OW 5859   2.704   0.582   1.874 -0.0036  0.1871  0.3252
 1838SOL    HW1 5860   2.733   0.522   1.942 -1.0047 -0.2551  0.3760
 1838SOL    HW2 5861   2.684   0.663   1.920 -0.3223  0.0054  0.5141
 1839SOL     OW 5862   1.223   4.140   1.499 -0.1983  0.0450  0.2093
 1839SOL    HW1 5863   1.151   4.128   1.560 -0.4774  2.2355  0.3815
 1839SOL    HW2 5864   1.299   4.102   1.544 -0.4327  1.4642  1.8794
 1840SOL     OW 5865   0.240   1.041   1.733 -0.2286  0.0134  0.1630
 1840SOL    HW1 5866   0.261   0.952   1.705  1.6709  0.1865  0.9034
 1840SOL    HW2 5867   0.319   1.092   1.711 -0.6446  1.1619  1.2398
 1841SOL     OW 5868   1.697   4.264   2.053 -0.0353 -0.2232  0.5835
 1841SOL    HW1 5869   1.674   4.275   1.961  0.9975  0.1119  0.3467
 1841SOL    HW2 5870   1.674   4.347   2.094  1.9789  0.6677  0.0556
 1842SOL     OW 5871   2.248   1.821   2.805 -0.1194 -0.2980 -0.6192
 1842SOL    HW1 5872   2.265   1.727   2.799  3.4840  0.2672 -1.8835
 1842SOL    HW2 5873   2.175   1.836   2.744 -0.1014 -2.1305 -1.1469
 1843SOL     OW 5874   2.184   2.503   3.384  0.1027  0.3072  0.1504
 1843SOL    HW1 5875   2.127   2.576   3.409  0.6134  1.2526 -1.3092
 1843SOL    HW2 5876   2.232   2.535   3.308  0.8132 -1.3388 -0.1402
 1844SOL     OW 5877   0.033   3.822   2.640  0.8731 -0.1682  0.9448
 1844SOL    HW1 5878   0.016   3.884   2.570 -0.0966 -0.8536  0.5594
 1844SOL    HW2 5879   0.041   3.876   2.719 -1.3649  0.3778  0.8567
 1845SOL     OW 5880   1.793   2.825   3.298 -0.0768  0.3441  0.3380
 1845SOL    HW1 5881   1.838   2.887   3.241  0.9763 -0.0713  0.6963
 1845SOL    HW2 5882   1.704   2.821   3.263  0.3162  0.7345 -0.7505
 1846SOL     OW 5883   3.921   0.977   1.131  0.1003  0.5122  0.0117
 1846SOL    HW1 5884   3.843   0.924   1.117 -0.1813  0.5642  1.2841
 1846SOL    HW2 5885   3.934   0.978   1.226  0.5343  2.0854 -0.0196
 1847SOL     OW 5886   1.970   1.297   3.530  0.7613  0.0407  0.0308
 1847SOL    HW1 5887   2.052   1.277   3.484  0.7034  1.0521 -0.5403
 1847SOL    HW2 5888   1.972   1.241   3.608  1.9429 -0.0264 -0.0306
 1848SOL     OW 5889   3.721   1.580   3.879 -0.5663 -0.4014 -0.4601
 1848SOL    HW1 5890   3.763   1.607   3.798  1.5647 -0.3540  0.5813
 1848SOL    HW2 5891   3.688   1.492   3.862  0.0622 -0.4796 -1.2902
 1849SOL     OW 5892   0.217   1.873   2.956  0.2953  0.5983 -0.3374
 1849SOL    HW1 5893   0.129   1.902   2.982 -0.3143 -0.8210 -0.7234
 1849SOL    HW2 5894   0.276   1.929   3.006 -0.8243  0.1166  1.6431
 1850SOL     OW 5895   0.058   2.041   3.888 -0.1318  0.1807 -0.8936
 1850SOL    HW1 5896  -0.009   2.109   3.893  1.0572  1.3169  1.6773
 1850SOL    HW2 5897   0.028   1.974   3.949  1.6802  1.4084  1.4916
 1851SOL     OW 5898   1.067   3.548   0.521 -0.2453  0.1295 -0.1197
 1851SOL    HW1 5899   1.026   3.486   0.582 -0.6052  0.2380 -0.2464
 1851SOL    HW2 5900   1.141   3.584   0.569  1.5275 -2.2622 -0.9176
 1852SOL     OW 5901   1.728   0.177   4.110  0.2707  0.1816  0.2259
 1852SOL    HW1 5902   1.822   0.191   4.110  0.5703 -1.5051 -1.2499
 1852SOL    HW2 5903   1.717   0.087   4.079 -1.9119  1.1130 -2.0329
 1853SOL     OW 5904   4.060   3.121   1.489 -0.3530 -0.4040  0.6179
 1853SOL    HW1 5905   4.008   3.166   1.423  0.5584  1.6945  1.2470
 1853SOL    HW2 5906   4.113   3.058   1.440 -0.8390  0.0096 -0.4453
 1854SOL     OW 5907   0.029   3.450   3.517 -0.8158 -0.1143  0.4435
 1854SOL    HW1 5908   0.064   3.526   3.471  0.2334 -0.0962  1.2402
 1854SOL    HW2 5909   0.106   3.408   3.556 -1.5148 -0.9290  0.9853
 1855SOL     OW 5910   2.677   4.126   2.289 -0.1008  0.6328 -0.0876
 1855SOL    HW1 5911   2.677   4.117   2.385 -0.7958 -0.7779 -0.1887
 1855SOL    HW2 5912   2.592   4.164   2.269 -0.9397 -1.2163 -0.2625
 1856SOL     OW 5913   4.280   2.039   3.605 -0.1412 -0.0134 -0.1219
 1856SOL    HW1 5914   4.265   2.022   3.698  0.1114  0.8799  0.0917
 1856SOL    HW2 5915   4.263   2.133   3.595  0.3834  0.0089 -0.8654
 1857SOL     OW 5916   2.658   0.223   0.568  0.3383 -0.2518 -0.0453
 1857SOL    HW1 5917   2.658   0.260   0.480  1.7642  1.3742  0.5712
 1857SOL    HW2 5918   2.579   0.259   0.609  1.1973  1.4461  0.2264
 1858SOL     OW 5919   1.391   1.090   0.798 -0.2447  0.0516 -0.3224
 1858SOL    HW1 5920   1.364   1.000   0.814  1.4757 -0.3427  0.5174
 1858SOL    HW2 5921   1.343   1.141   0.864 -2.5515  0.0592 -1.8669
 1859SOL     OW 5922   3.666   0.062   2.281  0.6116  0.0208  0.1027
 1859SOL    HW1 5923   3.707   0.096   2.361  0.1388 -0.3824  0.5289
 1859SOL    HW2 5924   3.693  -0.030   2.278  0.2046 -0.1034  0.0886
 1860SOL     OW 5925   2.205   2.119   2.825  0.5949  0.1566 -0.7243
 1860SOL    HW1 5926   2.141   2.148   2.761  1.0138  1.4173 -0.5894
 1860SOL    HW2 5927   2.188   2.025   2.835 -2.3237  0.7104  0.5209
 1861SOL     OW 5928   4.211   0.669   2.906  0.5298 -0.0198  0.4440
 1861SOL    HW1 5929   4.262   0.746   2.931  0.1798  1.0111 -1.7826
 1861SOL    HW2 5930   4.185   0.686   2.816 -1.6043 -1.6820  0.6785
 1862SOL     OW 5931   1.551   1.515   2.413 -0.4369 -0.0989 -0.7040
 1862SOL    HW1 5932   1.599   1.567   2.348  0.2852 -1.2012 -1.1051
 1862SOL    HW2 5933   1.535   1.431   2.369  0.5820 -1.0889  0.7113
 1863SOL     OW 5934   4.023   3.023   0.709 -0.2818 -0.3018  0.3564
 1863SOL    HW1 5935   3.951   3.082   0.686 -0.7013 -1.3956 -1.2986
 1863SOL    HW2 5936   4.062   3.000   0.625  1.4541 -0.4458  1.1583
 1864SOL     OW 5937   0.139   0.667   4.329 -0.0684 -0.4343 -0.0359
 1864SOL    HW1 5938   0.083   0.725   4.278 -0.8842 -2.0079 -1.0120
 1864SOL    HW2 5939   0.184   0.725   4.390 -1.5167  1.0981 -0.3441
 1865SOL     OW 5940   4.335   0.354   3.436 -0.1030 -0.3138  0.0891
 1865SOL    HW1 5941   4.334   0.440   3.477  0.7026  0.1305 -0.7959
 1865SOL    HW2 5942   4.245   0.321   3.447 -1.5168  2.1414 -2.6903
 1866SOL     OW 5943   0.750   0.503   0.479  0.1834  0.0593  0.2798
 1866SOL    HW1 5944   0.741   0.557   0.558 -0.3210 -0.0772  0.3210
 1866SOL    HW2 5945   0.810   0.552   0.423 -1.7822  1.6632 -0.5205
 1867SOL     OW 5946   3.885   0.854   2.379  0.3782  0.4240 -0.3816
 1867SOL    HW1 5947   3.859   0.836   2.469 -1.6629  2.2557 -0.5211
 1867SOL    HW2 5948   3.938   0.934   2.385  0.7721  0.1956 -0.7551
 1868SOL     OW 5949   2.460   2.534   1.778  0.4389  0.2794  0.3402
 1868SOL    HW1 5950   2.448   2.567   1.868  3.1512  0.8054  0.6005
 1868SOL    HW2 5951   2.456   2.439   1.786  0.6685  0.3231  1.0250
 1869SOL     OW 5952   2.294   0.969   3.418 -0.2204 -0.2104  0.7585
 1869SOL    HW1 5953   2.304   1.000   3.328 -3.1201 -1.6980 -0.1912
 1869SOL    HW2 5954   2.349   0.891   3.423  0.5324  0.2916  0.5535
 1870SOL     OW 5955   2.846   0.259   4.168  0.1580  0.0297  0.0289
 1870SOL    HW1 5956   2.934   0.252   4.205  0.8507 -0.0404 -1.5432
 1870SOL    HW2 5957   2.829   0.174   4.128 -0.2909  0.3102 -0.3957
 1871SOL     OW 5958   4.362   1.901   0.948  0.2154  0.3980  0.4004
 1871SOL    HW1 5959   4.301   1.834   0.976  0.8499 -0.5929 -0.4900
 1871SOL    HW2 5960   4.363   1.965   1.019 -1.2001  0.0077  0.7950
 1872SOL     OW 5961   3.362   0.462   4.177 -0.2135 -0.2623 -0.1766
 1872SOL    HW1 5962   3.356   0.520   4.101  0.2083  1.2469  0.8972
 1872SOL    HW2 5963   3.422   0.506   4.237 -0.2727 -1.5693  0.9062
 1873SOL     OW 5964   3.121   1.741   0.143  0.1544 -0.1412  0.1253
 1873SOL    HW1 5965   3.089   1.830   0.158 -0.6671 -0.4146  0.0568
 1873SOL    HW2 5966   3.208   1.752   0.106 -0.7774  0.7183 -1.9727
 1874SOL     OW 5967   1.418   0.524   0.417 -0.6775 -0.4176  1.0700
 1874SOL    HW1 5968   1.439   0.439   0.378 -1.3173 -0.2782  0.4156
 1874SOL    HW2 5969   1.377   0.502   0.501 -0.2286 -0.7387  1.2086
 1875SOL     OW 5970   1.372   2.541   0.148  0.2176 -0.1216 -0.0856
 1875SOL    HW1 5971   1.381   2.605   0.077 -0.7535  2.1468  1.7026
 1875SOL    HW2 5972   1.441   2.477   0.131  1.5994  1.6617 -1.7192
 1876SOL     OW 5973   1.540   1.640   3.081 -0.3528 -0.4697  0.0658
 1876SOL    HW1 5974   1.494   1.716   3.046  1.4290  0.3418 -0.6329
 1876SOL    HW2 5975   1.567   1.667   3.169  0.4611 -0.1819 -0.2596
 1877SOL     OW 5976   2.251   3.084   0.589 -0.0906  0.2960  0.1355
 1877SOL    HW1 5977   2.229   3.177   0.589  0.1716  0.3609  0.3875
 1877SOL    HW2 5978   2.313   3.074   0.662 -0.3100 -0.1212  0.2696
 1878SOL     OW 5979   0.782   1.154   4.348 -0.2718  0.1979  0.0005
 1878SOL    HW1 5980   0.782   1.250   4.350  1.8562  0.2321  0.0799
 1878SOL    HW2 5981   0.697   1.132   4.309 -0.0785  2.1655 -1.7580
 1879SOL     OW 5982   2.776   0.344   2.037 -0.1105  0.1653 -0.2316
 1879SOL    HW1 5983   2.787   0.336   2.132  2.9140 -1.1267 -0.5923
 1879SOL    HW2 5984   2.864   0.341   2.002 -1.0096  2.1658 -3.0612
 1880SOL     OW 5985   0.198   3.788   4.101  0.4091  1.0000 -0.4139
 1880SOL    HW1 5986   0.281   3.773   4.058  0.5763  1.9865 -0.4531
 1880SOL    HW2 5987   0.202   3.734   4.180  1.1568  1.1650 -0.3316
 1881SOL     OW 5988   3.173   1.495   3.028 -0.3453  0.0889  0.1845
 1881SOL    HW1 5989   3.194   1.402   3.030  0.3670  0.2536  1.9579
 1881SOL    HW2 5990   3.155   1.518   3.119 -2.5394  1.2729 -0.4754
 1882SOL     OW 5991   2.626   1.582   3.551  0.1802 -0.1249  0.2437
 1882SOL    HW1 5992   2.700   1.620   3.503  1.6054 -0.8629  1.7521
 1882SOL    HW2 5993   2.586   1.521   3.489  1.8953 -0.9660 -0.0920
 1883SOL     OW 5994   0.391   3.891   4.328  0.4869 -0.0851  0.3419
 1883SOL    HW1 5995   0.460   3.946   4.366  0.9260 -1.2565  1.3141
 1883SOL    HW2 5996   0.327   3.881   4.399 -0.7247  0.9852 -0.5478
 1884SOL     OW 5997   3.343   0.459   3.343 -0.0562 -0.2258 -0.2587
 1884SOL    HW1 5998   3.287   0.386   3.365  0.4068 -0.0114  1.7956
 1884SOL    HW2 5999   3.348   0.457   3.247 -1.8550 -1.4809 -0.3740
 1885SOL     OW 6000   1.840   0.712   1.725  0.2222  0.2942  0.3766
 1885SOL    HW1 6001   1.837   0.796   1.678  0.1055  0.5676  0.8553
 1885SOL    HW2 6002   1.818   0.647   1.660 -1.5819  0.8215  0.4024
 1886SOL     OW 6003   3.543   0.113   0.822  0.0434  0.1036  1.0476
 1886SOL    HW1 6004   3.613   0.052   0.798 -1.0881 -0.8241  0.0068
 1886SOL    HW2 6005   3.464   0.060   0.824 -1.0720  1.6105 -0.3743
 1887SOL     OW 6006   0.910   3.801   2.766 -0.7791  0.5208  0.4201
 1887SOL    HW1 6007   0.857   3.725   2.741 -0.5913 -0.0631  1.7125
 1887SOL    HW2 6008   0.874   3.873   2.714 -2.6766  0.0978  1.0361
 1888SOL     OW 6009   1.764   0.164   0.300  0.0440  0.1009 -0.1242
 1888SOL    HW1 6010   1.859   0.175   0.306  0.1692 -0.7819 -0.3168
 1888SOL    HW2 6011   1.747   0.158   0.206 -0.1277 -0.3372 -0.0661
 1889SOL     OW 6012   3.991   2.506   3.394 -0.6083  0.4833 -0.2410
 1889SOL    HW1 6013   4.014   2.533   3.305 -1.0985 -1.0344 -0.8585
 1889SOL    HW2 6014   3.917   2.562   3.417 -1.2944  0.0684 -1.3037
 1890SOL     OW 6015   3.748   1.187   3.079  0.0247  0.1537 -0.7870
 1890SOL    HW1 6016   3.697   1.129   3.135 -0.2891 -0.7415 -1.9776
 1890SOL    HW2 6017   3.751   1.270   3.128 -1.9715  0.0275 -0.3693
 1891SOL     OW 6018   0.284   0.647   0.882  0.0358 -0.2480 -0.6016
 1891SOL    HW1 6019   0.375   0.662   0.857  0.0761 -0.4864 -0.6047
 1891SOL    HW2 6020   0.251   0.586   0.815 -0.0240 -0.4323 -0.4039
 1892SOL     OW 6021   2.839   2.418   1.208 -0.2756  0.2749 -0.4248
 1892SOL    HW1 6022   2.919   2.448   1.166 -0.7895  0.5048 -1.2715
 1892SOL    HW2 6023   2.805   2.495   1.253 -1.2843  0.8721 -2.1083
 1893SOL     OW 6024   1.952   0.586   0.194 -0.9909 -0.0768  0.0585
 1893SOL    HW1 6025   1.861   0.557   0.202 -0.1961 -2.8016  0.1588
 1893SOL    HW2 6026   1.993   0.560   0.276  0.0213  0.6292 -0.2039
 1894SOL     OW 6027   2.224   0.198   4.371  0.0046  0.2948 -0.0805
 1894SOL    HW1 6028   2.192   0.117   4.333  1.5417 -0.7655  0.7946
 1894SOL    HW2 6029   2.149   0.259   4.364 -0.5751 -0.5750 -2.4274
 1895SOL     OW 6030   4.220   0.629   3.217  0.5503 -0.0809 -0.4238
 1895SOL    HW1 6031   4.236   0.636   3.123 -0.7945 -0.9078 -0.7478
 1895SOL    HW2 6032   4.205   0.536   3.231  0.4690  0.0756  0.5734
 1896SOL     OW 6033   2.533   3.164   0.259  0.1890 -0.0717  0.0020
 1896SOL    HW1 6034   2.560   3.158   0.351 -1.3661  1.1040  0.5787
 1896SOL    HW2 6035   2.464   3.230   0.259 -1.7390 -1.9696 -1.5886
 1897SOL     OW 6036   1.036   3.415   1.318 -0.2356 -0.2312 -0.5161
 1897SOL    HW1 6037   1.040   3.500   1.273 -1.1796 -0.3828 -0.9115
 1897SOL    HW2 6038   1.113   3.414   1.374  0.6412  0.2267 -1.6725
 1898SOL     OW 6039   3.305   0.722   3.802  0.0247 -0.1196  0.1281
 1898SOL    HW1 6040   3.297   0.659   3.730  0.4465 -0.0847  0.0480
 1898SOL    HW2 6041   3.281   0.672   3.880  0.2102 -0.3403  0.0456
 1899SOL     OW 6042   2.349   1.817   2.061 -0.0329  0.1229  0.3772
 1899SOL    HW1 6043   2.404   1.794   2.136 -0.6150  1.5448  1.2916
 1899SOL    HW2 6044   2.392   1.894   2.022  0.4350 -0.7790 -0.9709
 1900SOL     OW 6045   1.553   2.009   1.676 -0.2093  0.8033  0.3507
 1900SOL    HW1 6046   1.493   1.991   1.749 -2.9077  0.8753 -1.7013
 1900SOL    HW2 6047   1.561   2.104   1.674  0.4721  0.7711  0.9478
 1901SOL     OW 6048   4.304   1.067   2.000  0.3954  0.2630  0.0850
 1901SOL    HW1 6049   4.230   1.031   2.048  0.1146 -0.6692 -1.0011
 1901SOL    HW2 6050   4.365   0.993   1.990  0.5154  0.4722 -0.8361
 1902SOL     OW 6051   0.376   0.836   3.840  0.1498 -0.2870  0.0735
 1902SOL    HW1 6052   0.388   0.843   3.935 -0.6308 -0.2959  0.1817
 1902SOL    HW2 6053   0.290   0.874   3.824  0.3821 -0.0633 -0.6684
 1903SOL     OW 6054   3.882   3.647   2.635 -0.3967  0.1069  0.1468
 1903SOL    HW1 6055   3.978   3.639   2.636 -0.3838 -0.1810 -1.2421
 1903SOL    HW2 6056   3.866   3.741   2.648  0.1228  0.2840 -0.4269
 1904SOL     OW 6057   0.833   2.890   3.089 -0.1820  0.3094 -0.4952
 1904SOL    HW1 6058   0.784   2.967   3.116  0.3054 -0.1829  2.0904
 1904SOL    HW2 6059   0.917   2.898   3.134  0.2403 -1.2401 -0.9285
 1905SOL     OW 6060   2.317   3.338   0.378  0.0738 -0.1479 -0.5031
 1905SOL    HW1 6061   2.309   3.300   0.465  1.3677  0.4347 -0.1002
 1905SOL    HW2 6062   2.332   3.431   0.394  1.4624 -0.2077 -1.2731
 1906SOL     OW 6063   2.424   4.027   4.026 -1.0554  0.2091  0.4807
 1906SOL    HW1 6064   2.473   3.967   4.082 -1.4055 -0.2357  0.3211
 1906SOL    HW2 6065   2.399   4.099   4.083 -3.8189 -1.5249  1.6714
 1907SOL     OW 6066   1.307   2.011   1.537 -0.1040  0.5689 -0.1383
 1907SOL    HW1 6067   1.390   1.967   1.554  1.0988  1.3647 -3.3149
 1907SOL    HW2 6068   1.332   2.098   1.507 -2.2833  2.0068  1.8540
 1908SOL     OW 6069   1.940   1.004   1.926 -0.3439 -0.0341  0.1629
 1908SOL    HW1 6070   1.941   1.061   1.850  2.6060 -0.7604 -0.4672
 1908SOL    HW2 6071   2.018   0.949   1.916 -0.7736 -1.3017  2.8530
 1909SOL     OW 6072   2.061   3.613   0.543  0.3413 -0.5108  0.3551
 1909SOL    HW1 6073   1.983   3.580   0.588 -0.0476 -0.5182 -0.3017
 1909SOL    HW2 6074   2.040   3.704   0.525  1.1849 -0.0291  1.6678
 1910SOL     OW 6075   0.333   1.111   3.025  0.1668 -0.2003  0.0637
 1910SOL    HW1 6076   0.416   1.130   3.069 -0.1142 -0.0186  0.5230
 1910SOL    HW2 6077   0.356   1.048   2.957  0.4849 -1.0989  0.9749
 1911SOL     OW 6078   1.578   0.535   1.251  0.0906  0.4450  0.0459
 1911SOL    HW1 6079   1.486   0.547   1.275  0.1911 -0.6249  1.0487
 1911SOL    HW2 6080   1.606   0.459   1.301  1.1793 -0.0238 -1.2091
 1912SOL     OW 6081   0.554   0.655   1.496  0.5294 -0.2074 -0.4135
 1912SOL    HW1 6082   0.625   0.671   1.433  0.2142  0.6591 -0.5606
 1912SOL    HW2 6083   0.482   0.622   1.442  0.6713 -0.6765 -0.3226
 1913SOL     OW 6084   1.273   3.416   1.485 -0.4444 -0.0966  1.0992
 1913SOL    HW1 6085   1.277   3.507   1.454 -0.3620 -0.1012  1.0948
 1913SOL    HW2 6086   1.361   3.399   1.519 -0.2728 -0.3680  0.5401
 1914SOL     OW 6087   2.852   2.055   3.365  0.6150 -0.1099 -0.2225
 1914SOL    HW1 6088   2.855   2.104   3.447  3.2333  0.4336 -0.5476
 1914SOL    HW2 6089   2.944   2.040   3.343 -0.0466 -2.5898 -1.6873
 1915SOL     OW 6090   2.083   2.835   2.422 -0.3760  0.7142  0.6234
 1915SOL    HW1 6091   1.997   2.799   2.444  0.4283 -1.7354  0.1176
 1915SOL    HW2 6092   2.075   2.859   2.330 -1.2181  2.9238  1.2169
 1916SOL     OW 6093   4.360   2.212   0.374 -0.4528 -0.0980 -0.5237
 1916SOL    HW1 6094   4.272   2.225   0.410  0.1967  0.5037  0.9244
 1916SOL    HW2 6095   4.403   2.297   0.385  1.0979 -1.0196  1.0879
 1917SOL     OW 6096   1.288   3.740   2.181 -0.3937  0.3491 -0.0738
 1917SOL    HW1 6097   1.363   3.687   2.155 -0.0158  1.6583 -1.8407
 1917SOL    HW2 6098   1.309   3.768   2.271  1.6008  1.2489 -0.7624
 1918SOL     OW 6099   3.939   0.541   3.334  0.6380 -0.2315 -0.1337
 1918SOL    HW1 6100   3.886   0.541   3.254 -0.1899 -0.9592  0.4030
 1918SOL    HW2 6101   3.880   0.575   3.402  0.2256 -2.7047  0.8462
 1919SOL     OW 6102   3.092   2.992   1.060  0.3277 -0.3002 -0.0273
 1919SOL    HW1 6103   3.045   2.912   1.085  1.0825 -0.8373 -0.2593
 1919SOL    HW2 6104   3.025   3.050   1.026 -0.4020 -0.3897  1.2291
 1920SOL     OW 6105   0.521   2.078   1.515 -0.1530 -0.2544 -0.6516
 1920SOL    HW1 6106   0.568   2.109   1.592 -0.3716 -1.2973 -0.0808
 1920SOL    HW2 6107   0.497   1.988   1.536  0.2005 -0.7182 -2.1315
 1921SOL     OW 6108   3.154   4.157   0.336  0.2120  0.0300  0.8635
 1921SOL    HW1 6109   3.202   4.081   0.302 -1.1912 -1.0889  1.2666
 1921SOL    HW2 6110   3.171   4.227   0.273 -2.2092 -1.9125 -2.2431
 1922SOL     OW 6111   2.754   0.958   1.118  0.4459  0.4562 -0.1853
 1922SOL    HW1 6112   2.759   0.941   1.024  2.0758 -0.0542 -0.0407
 1922SOL    HW2 6113   2.668   0.998   1.131 -0.1080 -0.1492 -1.7726
 1923SOL     OW 6114   1.035   0.673   3.034 -0.3809  0.0631 -0.5631
 1923SOL    HW1 6115   1.007   0.745   2.979 -2.1367 -0.1748 -0.0514
 1923SOL    HW2 6116   0.982   0.682   3.114  0.8741 -0.5796  0.3834
 1924SOL     OW 6117   0.394   4.341   2.410 -0.0267 -0.0971 -0.0372
 1924SOL    HW1 6118   0.363   4.276   2.473  0.9129  1.3252  2.0285
 1924SOL    HW2 6119   0.330   4.338   2.339 -1.5407 -1.3345  1.2889
 1925SOL     OW 6120   2.078   1.023   0.937  0.7578  0.4346  0.5964
 1925SOL    HW1 6121   2.090   1.111   0.901  1.3063  0.9652  2.0334
 1925SOL    HW2 6122   1.989   1.024   0.974  0.3645  0.0276 -0.2908
 1926SOL     OW 6123   0.257   3.490   2.259 -0.0347 -0.4084 -0.0142
 1926SOL    HW1 6124   0.302   3.449   2.185  0.5491  1.8182 -0.9806
 1926SOL    HW2 6125   0.304   3.572   2.273 -3.0670  1.5767 -0.4160
 1927SOL     OW 6126   2.044   1.745   1.813  0.3347  0.7351 -0.3239
 1927SOL    HW1 6127   2.089   1.719   1.893  1.4386  1.3277 -0.7411
 1927SOL    HW2 6128   2.001   1.828   1.835 -1.6963 -0.4524  0.4635
 1928SOL     OW 6129   3.593   3.463   3.127  0.1481 -0.2138 -0.1543
 1928SOL    HW1 6130   3.614   3.550   3.161  0.2011 -0.9590  1.8667
 1928SOL    HW2 6131   3.556   3.479   3.040  0.4393  1.7901  0.0538
 1929SOL     OW 6132   2.590   3.655   0.431  0.3095  0.1296 -0.4450
 1929SOL    HW1 6133   2.609   3.721   0.364 -0.4746  1.2162  0.3524
 1929SOL    HW2 6134   2.494   3.654   0.436  0.3441 -0.4650  0.1567
 1930SOL     OW 6135   0.901   1.525   2.130 -0.5914 -0.2025 -0.1884
 1930SOL    HW1 6136   0.894   1.620   2.136  0.6568  0.0398 -1.7475
 1930SOL    HW2 6137   0.940   1.498   2.213 -1.9189  0.4984  0.6894
 1931SOL     OW 6138   1.597   3.798   3.774  0.1530 -0.5696  0.3176
 1931SOL    HW1 6139   1.648   3.872   3.808 -0.4470 -0.0254  0.0557
 1931SOL    HW2 6140   1.644   3.721   3.806 -1.2278 -0.1601  3.8410
 1932SOL     OW 6141   3.619   2.168   1.382 -0.1707  0.5274 -0.1619
 1932SOL    HW1 6142   3.559   2.206   1.446 -0.1901 -1.8452  1.3528
 1932SOL    HW2 6143   3.572   2.175   1.298 -1.4241  1.0575  0.5566
 1933SOL     OW 6144   4.182   3.213   4.100 -0.6823  0.6200 -0.2880
 1933SOL    HW1 6145   4.091   3.182   4.092 -0.4852 -0.0018 -0.1625
 1933SOL    HW2 6146   4.227   3.142   4.145  0.1267  0.4454 -1.3522
 1934SOL     OW 6147   3.352   0.474   1.531  0.5452  0.2301  0.0896
 1934SOL    HW1 6148   3.418   0.450   1.466 -1.0378 -0.7455 -1.2529
 1934SOL    HW2 6149   3.270   0.440   1.495 -0.6919  1.3368  1.7196
 1935SOL     OW 6150   0.909   3.021   3.894 -0.5922 -0.1694  0.3383
 1935SOL    HW1 6151   0.963   2.942   3.888 -1.3726 -0.6482 -0.6510
 1935SOL    HW2 6152   0.951   3.083   3.834 -0.6857 -0.2641  0.1750
 1936SOL     OW 6153   0.500   3.757   1.370  0.7501 -0.6844 -0.3847
 1936SOL    HW1 6154   0.446   3.836   1.372  0.3949 -0.9010 -1.0070
 1936SOL    HW2 6155   0.541   3.753   1.456 -0.6109 -0.7790  0.2780
 1937SOL     OW 6156   0.147   2.451   0.453  0.6171  0.0339  0.0700
 1937SOL    HW1 6157   0.213   2.513   0.422  1.2540  0.1459  1.5438
 1937SOL    HW2 6158   0.131   2.477   0.544  0.5651 -1.6793  0.5777
 1938SOL     OW 6159   0.319   0.149   0.393 -0.4611  0.5634  0.4007
 1938SOL    HW1 6160   0.393   0.120   0.447 -1.5326 -1.3550  0.9639
 1938SOL    HW2 6161   0.359   0.189   0.316  1.3486 -3.3168 -0.9402
 1939SOL     OW 6162   3.101   2.530   1.213  0.2863  0.3565  0.2910
 1939SOL    HW1 6163   3.134   2.619   1.232  1.0454 -0.2442  1.9857
 1939SOL    HW2 6164   3.154   2.501   1.139  0.4851  1.0665  0.1401
 1940SOL     OW 6165   0.912   4.260   1.114 -0.0808 -0.1390 -0.1345
 1940SOL    HW1 6166   0.859   4.339   1.120 -0.3804  0.1120 -4.0363
 1940SOL    HW2 6167   0.996   4.290   1.079  0.6353 -1.2859  0.5352
 1941SOL     OW 6168   0.819   4.273   2.541 -0.3297  0.0859  0.2529
 1941SOL    HW1 6169   0.760   4.335   2.498  0.8170  0.1359 -1.3716
 1941SOL    HW2 6170   0.856   4.321   2.614  0.0438  1.1238 -0.5876
 1942SOL     OW 6171   0.003   3.090   1.980  0.1923 -0.2256 -0.8670
 1942SOL    HW1 6172  -0.014   2.998   1.963 -0.9954  0.1449 -1.8717
 1942SOL    HW2 6173  -0.063   3.137   1.928  0.6546  1.1829 -0.2495
 1943SOL     OW 6174   0.675   3.646   0.249 -0.3817 -0.1098 -0.6874
 1943SOL    HW1 6175   0.736   3.573   0.259 -0.1264  0.1706 -0.1028
 1943SOL    HW2 6176   0.594   3.606   0.218  0.0578 -0.5045 -1.3452
 1944SOL     OW 6177   4.109   2.371   1.218 -0.1392 -0.3012 -0.0016
 1944SOL    HW1 6178   4.025   2.326   1.229 -0.6535  0.2083 -1.5557
 1944SOL    HW2 6179   4.096   2.456   1.261 -0.8928  0.2943 -1.3676
 1945SOL     OW 6180   1.538   0.668   3.817 -0.1359  0.1080  0.1165
 1945SOL    HW1 6181   1.604   0.633   3.876 -1.7954 -1.2566  1.2617
 1945SOL    HW2 6182   1.478   0.717   3.874 -0.6766  0.4531 -0.7232
 1946SOL     OW 6183   4.315   2.560   0.077  0.1936  0.0061 -0.0720
 1946SOL    HW1 6184   4.265   2.536  -0.001 -1.9740 -0.2244  1.3025
 1946SOL    HW2 6185   4.263   2.526   0.150  3.1106 -1.4824  1.4396
 1947SOL     OW 6186   1.239   3.946   3.221 -0.9458  0.0231  0.1150
 1947SOL    HW1 6187   1.331   3.959   3.246 -0.7834 -1.2133  0.2433
 1947SOL    HW2 6188   1.230   3.851   3.215 -3.0060 -0.0816  3.1254
 1948SOL     OW 6189   1.571   0.367   1.691 -0.0577 -0.0823 -0.4662
 1948SOL    HW1 6190   1.495   0.315   1.719  0.3988 -0.5044 -0.0048
 1948SOL    HW2 6191   1.534   0.452   1.666 -0.5711  0.0246  0.6184
 1949SOL     OW 6192   0.889   3.243   2.345  0.9265 -0.1763 -0.0572
 1949SOL    HW1 6193   0.859   3.333   2.332  1.4168  0.0674  0.4460
 1949SOL    HW2 6194   0.811   3.190   2.334  0.8180  0.2215 -1.3478
 1950SOL     OW 6195   0.313   0.609   1.377 -0.0758  0.0048  0.0101
 1950SOL    HW1 6196   0.247   0.548   1.410  0.9801 -1.4337 -0.4635
 1950SOL    HW2 6197   0.330   0.581   1.287  0.6092  0.8404 -0.1332
 1951SOL     OW 6198   1.911   1.590   2.099  0.0433 -0.6244  0.3563
 1951SOL    HW1 6199   1.912   1.500   2.068  0.4129 -0.2125 -0.8864
 1951SOL    HW2 6200   2.003   1.616   2.100 -0.0235 -0.3748  1.1004
 1952SOL     OW 6201   1.259   3.231   2.234 -0.1798  0.2934 -0.2692
 1952SOL    HW1 6202   1.193   3.227   2.164 -1.1047  0.8067  0.5402
 1952SOL    HW2 6203   1.317   3.157   2.217 -0.1117  0.6779 -1.8402
 1953SOL     OW 6204   1.556   2.941   1.625 -0.0948  0.1937  0.6202
 1953SOL    HW1 6205   1.582   2.850   1.636 -1.1703 -0.1250  0.6647
 1953SOL    HW2 6206   1.462   2.937   1.606 -0.5435  1.3835  2.4001
 1954SOL     OW 6207   2.110   2.016   2.375  0.2067  0.0361  0.2466
 1954SOL    HW1 6208   2.197   1.987   2.402 -0.3204 -2.3878 -0.4312
 1954SOL    HW2 6209   2.126   2.082   2.307  1.5072 -0.5911 -0.0787
 1955SOL     OW 6210   2.388   2.367   2.794  0.1451  0.2727  0.0923
 1955SOL    HW1 6211   2.412   2.383   2.702 -0.1087  0.8792  0.1281
 1955SOL    HW2 6212   2.306   2.319   2.789  1.1434 -1.4975 -0.0244
 1956SOL     OW 6213   1.430   3.501   0.270  0.2166 -0.1533 -0.1322
 1956SOL    HW1 6214   1.381   3.432   0.315  1.6862 -2.5075 -1.8894
 1956SOL    HW2 6215   1.501   3.522   0.330  0.5840 -1.2424 -0.1636
 1957SOL     OW 6216   1.185   0.930   2.514 -0.7804  0.7081  0.2108
 1957SOL    HW1 6217   1.200   1.002   2.575 -1.1752  0.2722  0.8348
 1957SOL    HW2 6218   1.219   0.962   2.430 -0.2811  1.3339  0.6419
 1958SOL     OW 6219   0.720   0.298   2.657  0.4846 -0.2658  0.2062
 1958SOL    HW1 6220   0.735   0.299   2.752 -0.1173  1.1110  0.3096
 1958SOL    HW2 6221   0.637   0.343   2.646  0.5679 -0.3819 -0.9900
 1959SOL     OW 6222   1.981   3.475   2.230  0.7730 -0.5630  0.0047
 1959SOL    HW1 6223   1.930   3.512   2.158  0.2285 -1.9496 -0.3667
 1959SOL    HW2 6224   2.067   3.517   2.223  0.0241  1.0156 -0.0190
 1960SOL     OW 6225   4.290   0.091   1.220 -0.3362  0.4247  0.2246
 1960SOL    HW1 6226   4.243   0.150   1.162 -0.8265  1.4462  1.6076
 1960SOL    HW2 6227   4.365   0.061   1.168 -1.9615 -0.5245 -1.6978
 1961SOL     OW 6228   1.495   3.498   4.262  1.0208  0.1299  0.4279
 1961SOL    HW1 6229   1.546   3.573   4.293 -0.6810  1.5279  0.0322
 1961SOL    HW2 6230   1.486   3.442   4.339  2.9329 -0.0771  0.5468
 1962SOL     OW 6231   4.293   0.922   1.513 -0.4352  0.0443  0.3469
 1962SOL    HW1 6232   4.237   0.938   1.589 -0.1356 -0.6759  0.7334
 1962SOL    HW2 6233   4.367   0.872   1.548  0.4658  0.9920 -0.1546
 1963SOL     OW 6234   0.171   4.133   0.749  0.3657  0.5375  0.0758
 1963SOL    HW1 6235   0.175   4.210   0.804  2.4166  0.3770  0.2372
 1963SOL    HW2 6236   0.262   4.102   0.744 -0.2175 -1.1728 -0.9465
 1964SOL     OW 6237   1.131   2.844   0.893  0.1365 -0.3399  0.3334
 1964SOL    HW1 6238   1.080   2.791   0.954  0.6927 -1.1759  0.0893
 1964SOL    HW2 6239   1.214   2.859   0.937  0.3190 -0.4388  0.0242
 1965SOL     OW 6240   0.386   4.181   0.247 -0.1186  0.4620  0.1811
 1965SOL    HW1 6241   0.470   4.173   0.202 -0.1260  2.5583 -0.3280
 1965SOL    HW2 6242   0.375   4.098   0.293  1.8591 -0.1562 -0.3612
 1966SOL     OW 6243   0.656   4.088   0.240 -0.1663 -0.2032  0.3099
 1966SOL    HW1 6244   0.648   4.010   0.295  2.7533 -0.7500  0.1304
 1966SOL    HW2 6245   0.702   4.151   0.295  1.2879 -0.1686 -0.8643
 1967SOL     OW 6246   1.966   2.077   1.438  0.6308  0.0069  0.1068
 1967SOL    HW1 6247   1.941   2.088   1.530  2.2442 -1.7261  0.8078
 1967SOL    HW2 6248   1.903   2.131   1.390  1.5493  3.3743  2.3769
 1968SOL     OW 6249   1.099   2.225   1.156 -0.5222 -0.0389  0.0889
 1968SOL    HW1 6250   1.189   2.191   1.154 -1.2297 -2.0550 -0.4164
 1968SOL    HW2 6251   1.100   2.301   1.099  0.4041 -1.4037 -1.8284
 1969SOL     OW 6252   0.166   4.107   2.372  0.6502  0.0532 -0.7027
 1969SOL    HW1 6253   0.111   4.156   2.433  1.4351  0.9757 -0.7261
 1969SOL    HW2 6254   0.238   4.073   2.425  1.9811  1.8386 -1.2687
 1970SOL     OW 6255   1.426   2.900   2.825  0.6529  0.4496  0.0491
 1970SOL    HW1 6256   1.448   2.887   2.733  1.8071 -0.3519  0.4158
 1970SOL    HW2 6257   1.413   2.995   2.832  2.2888  0.7742 -0.6105
 1971SOL     OW 6258   0.328   1.787   0.032 -0.1270 -0.4609 -0.1110
 1971SOL    HW1 6259   0.240   1.823   0.031 -1.4805 -3.3474  1.7190
 1971SOL    HW2 6260   0.321   1.706  -0.019  2.1666  0.4351 -2.0513
 1972SOL     OW 6261   3.853   0.064   2.480 -0.5248 -0.3355 -0.2653
 1972SOL    HW1 6262   3.936   0.017   2.483 -0.8311 -0.8434  0.7520
 1972SOL    HW2 6263   3.822   0.064   2.570  0.0840  3.0147  0.0590
 1973SOL     OW 6264   1.658   1.725   3.305 -0.4948 -0.7788  0.1448
 1973SOL    HW1 6265   1.710   1.661   3.355 -1.9803 -1.6074  0.6903
 1973SOL    HW2 6266   1.723   1.787   3.271  0.8227 -1.6454  0.9734
 1974SOL     OW 6267   1.421   1.690   2.131 -0.3782  0.0888 -0.1102
 1974SOL    HW1 6268   1.515   1.687   2.147 -0.1908  0.7438 -0.9973
 1974SOL    HW2 6269   1.411   1.751   2.058 -1.4984  0.0694  0.0063
 1975SOL     OW 6270   0.703   4.084   0.687  0.3377  0.1660  0.2002
 1975SOL    HW1 6271   0.726   4.021   0.619  1.4717  1.2073 -0.4461
 1975SOL    HW2 6272   0.787   4.123   0.712 -0.4150  2.1914 -0.2352
 1976SOL     OW 6273   3.469   2.568   0.580 -0.7582 -0.1532 -0.3136
 1976SOL    HW1 6274   3.477   2.619   0.499  0.4400 -1.1787 -0.8655
 1976SOL    HW2 6275   3.516   2.620   0.646 -2.3793  1.0589 -0.0557
 1977SOL     OW 6276   0.632   3.725   1.895  0.0382 -0.1971 -0.2148
 1977SOL    HW1 6277   0.709   3.732   1.950 -0.4345  1.5630  0.2759
 1977SOL    HW2 6278   0.575   3.796   1.924 -1.2601 -0.7187 -1.3675
 1978SOL     OW 6279   1.995   1.573   3.273  0.1508  1.1001 -0.2389
 1978SOL    HW1 6280   1.974   1.508   3.207 -1.1613  3.4731 -2.3130
 1978SOL    HW2 6281   1.938   1.552   3.347 -0.2223 -0.0996 -0.8471
 1979SOL     OW 6282   0.338   3.007   0.378  0.1931  0.2338 -0.2620
 1979SOL    HW1 6283   0.266   2.968   0.429  0.4493 -0.1263 -0.1698
 1979SOL    HW2 6284   0.390   3.055   0.442 -0.1934  0.8475 -0.3959
 1980SOL     OW 6285   1.194   4.164   2.709  0.2279  0.0891  0.3321
 1980SOL    HW1 6286   1.162   4.129   2.625 -2.2979 -0.2837  1.3649
 1980SOL    HW2 6287   1.213   4.256   2.690 -0.5478  0.0747 -0.6117
 1981SOL     OW 6288   2.693   2.406   1.550 -0.0274  0.0219  0.1415
 1981SOL    HW1 6289   2.736   2.464   1.613  0.3844  0.3711 -0.4410
 1981SOL    HW2 6290   2.617   2.456   1.519  0.0734  0.0697 -0.0302
 1982SOL     OW 6291   1.037   1.663   0.622  0.3494  0.4691  0.3562
 1982SOL    HW1 6292   0.947   1.630   0.623 -0.0430  1.4901  0.1994
 1982SOL    HW2 6293   1.082   1.607   0.559 -0.1203 -0.1705  0.5712
 1983SOL     OW 6294   4.324   1.369   2.693 -1.0062 -0.2538 -0.3454
 1983SOL    HW1 6295   4.301   1.437   2.756  0.7611 -0.8308  1.0080
 1983SOL    HW2 6296   4.240   1.327   2.671 -1.6430 -0.3819  2.0523
 1984SOL     OW 6297   3.679   3.516   3.500 -0.3605  0.1554  0.5263
 1984SOL    HW1 6298   3.618   3.442   3.509  1.6329 -1.5144  1.1325
 1984SOL    HW2 6299   3.732   3.514   3.579  1.4591  0.5791 -0.6135
 1985SOL     OW 6300   1.241   0.233   1.140  0.5452 -0.0859 -0.1237
 1985SOL    HW1 6301   1.314   0.250   1.081  0.7391  0.7699  0.3438
 1985SOL    HW2 6302   1.281   0.225   1.226 -0.0967  3.6209  0.7019
 1986SOL     OW 6303   1.569   1.070   2.519  0.9094 -0.0404 -0.6326
 1986SOL    HW1 6304   1.662   1.058   2.533  0.7206 -2.7021 -1.1891
 1986SOL    HW2 6305   1.530   1.066   2.606  1.0375 -2.6438 -0.6122
 1987SOL     OW 6306   4.080   4.004   2.282  0.6312  0.0808 -0.2351
 1987SOL    HW1 6307   4.007   4.004   2.219 -0.6053  2.0120  1.1096
 1987SOL    HW2 6308   4.047   4.052   2.358  2.3653 -1.4374  1.5929
 1988SOL     OW 6309   1.591   2.860   3.054  0.8244 -0.2264 -0.6118
 1988SOL    HW1 6310   1.573   2.874   2.961  2.1561 -0.7551 -0.9700
 1988SOL    HW2 6311   1.666   2.917   3.072  2.6980 -2.5417 -0.7020
 1989SOL     OW 6312   3.477   0.731   3.363 -0.3583 -0.1885 -0.7544
 1989SOL    HW1 6313   3.417   0.806   3.367 -0.2935  0.0170 -2.8907
 1989SOL    HW2 6314   3.419   0.656   3.350 -0.3130 -0.3503 -0.0793
 1990SOL     OW 6315   1.642   2.923   3.744 -0.3637  0.1489  0.6263
 1990SOL    HW1 6316   1.581   2.901   3.674 -1.9259 -0.1235  1.9911
 1990SOL    HW2 6317   1.716   2.964   3.700 -0.8565 -0.8622 -1.2487
 1991SOL     OW 6318   4.187   0.649   2.014  0.2438  0.1494 -0.4960
 1991SOL    HW1 6319   4.179   0.627   1.922  0.3207 -0.1440 -0.4347
 1991SOL    HW2 6320   4.103   0.625   2.053 -0.1896  1.2921 -0.6852
 1992SOL     OW 6321   1.739   4.011   2.723  0.3463 -0.0698  0.0104
 1992SOL    HW1 6322   1.773   3.926   2.748  0.1801 -0.3567 -0.7055
 1992SOL    HW2 6323   1.815   4.060   2.691  0.4011 -0.0332  0.1961
 1993SOL     OW 6324   2.776   2.296   2.700 -0.4037 -0.1301 -0.0122
 1993SOL    HW1 6325   2.852   2.244   2.673 -0.6082 -0.7034  0.4892
 1993SOL    HW2 6326   2.811   2.355   2.768  0.0830  1.2286 -1.3884
 1994SOL     OW 6327   2.213   3.486   1.788 -0.5267 -0.7588 -0.2950
 1994SOL    HW1 6328   2.154   3.454   1.855  0.8106 -0.6314  0.9904
 1994SOL    HW2 6329   2.156   3.527   1.723 -1.8908 -1.3999  0.4678
 1995SOL     OW 6330   4.212   0.167   4.226  0.6385 -0.2701 -0.6157
 1995SOL    HW1 6331   4.259   0.224   4.164  2.0293  1.9411  2.2131
 1995SOL    HW2 6332   4.279   0.107   4.259  0.8633  0.8578  1.1545
 1996SOL     OW 6333   3.564   1.730   1.406  0.1275 -0.3333  0.4717
 1996SOL    HW1 6334   3.647   1.734   1.358  0.1824  0.4433  0.6096
 1996SOL    HW2 6335   3.589   1.723   1.498  0.0298 -1.0724  0.4413
 1997SOL     OW 6336   4.138   2.992   4.260  0.7247  0.0539 -0.4276
 1997SOL    HW1 6337   4.195   2.948   4.322  1.5447  1.9257  0.2116
 1997SOL    HW2 6338   4.050   2.983   4.298  0.7954 -1.3073 -0.5229
 1998SOL     OW 6339   1.551   1.419   1.819 -0.0800  0.0225 -0.3934
 1998SOL    HW1 6340   1.461   1.395   1.838 -0.4604 -1.4649 -3.4417
 1998SOL    HW2 6341   1.544   1.503   1.773  0.1698  0.1587 -0.1894
 1999SOL     OW 6342   1.837   3.339   3.663  0.6952  0.2089  0.4777
 1999SOL    HW1 6343   1.908   3.403   3.664  0.4178  0.8432 -3.3965
 1999SOL    HW2 6344   1.856   3.284   3.587 -3.8949  1.7904 -2.2150
 2000SOL     OW 6345   1.292   4.073   4.305  0.0785  0.0200 -0.1593
 2000SOL    HW1 6346   1.366   4.013   4.314 -1.0575 -1.7887 -2.1640
 2000SOL    HW2 6347   1.215   4.019   4.317 -0.9722  1.4504 -0.2014
 2001SOL     OW 6348   3.505   0.551   1.831 -0.0399  0.4012  0.9544
 2001SOL    HW1 6349   3.492   0.617   1.764 -1.4403 -1.1124 -0.3790
 2001SOL    HW2 6350   3.500   0.599   1.914 -1.6878  1.8748  0.0658
 2002SOL     OW 6351   1.970   1.779   4.111 -0.1074 -0.1235 -0.4267
 2002SOL    HW1 6352   1.947   1.868   4.139 -0.8247  0.2928 -2.2235
 2002SOL    HW2 6353   1.964   1.727   4.191 -0.2651  1.3256  0.5511
 2003SOL     OW 6354   1.952   3.790   2.494  0.1736  0.0807  0.0279
 2003SOL    HW1 6355   1.965   3.740   2.574  1.7213  1.9161  0.9788
 2003SOL    HW2 6356   2.040   3.809   2.463 -0.3993  1.1907 -0.9647
 2004SOL     OW 6357   2.714   1.762   1.800  0.3843  0.0051 -0.3592
 2004SOL    HW1 6358   2.776   1.805   1.742  0.0789  0.3345 -0.4411
 2004SOL    HW2 6359   2.720   1.810   1.883 -1.0925  1.2168 -0.9262
 2005SOL     OW 6360   2.703   3.372   2.134  0.2623  0.6518  0.2252
 2005SOL    HW1 6361   2.740   3.416   2.211 -1.1945  0.4153  1.0886
 2005SOL    HW2 6362   2.719   3.279   2.150  2.3402  0.7183 -1.0714
 2006SOL     OW 6363   4.011   1.792   4.012 -0.4938  0.0030  0.5686
 2006SOL    HW1 6364   4.030   1.706   3.975 -0.1473 -0.2444  1.2868
 2006SOL    HW2 6365   4.061   1.793   4.094 -0.4447  0.9157  0.5282
 2007SOL     OW 6366   2.358   2.257   1.782 -0.3704  0.2481  0.2578
 2007SOL    HW1 6367   2.348   2.166   1.754  1.1562  0.1008  0.1257
 2007SOL    HW2 6368   2.369   2.252   1.877  0.2475  0.2422  0.1881
 2008SOL     OW 6369   2.877   1.630   2.472 -0.2041  0.7369 -0.4618
 2008SOL    HW1 6370   2.813   1.675   2.527 -1.1105 -3.0540  2.0224
 2008SOL    HW2 6371   2.960   1.639   2.519 -0.2476  0.4602 -0.3268
 2009SOL     OW 6372   2.082   2.791   0.479  0.4497  0.1560 -0.4939
 2009SOL    HW1 6373   2.090   2.745   0.395 -0.4794  2.2114 -1.8219
 2009SOL    HW2 6374   2.130   2.873   0.465  0.7762  0.2752  1.2220
 2010SOL     OW 6375   0.166   3.346   1.566  0.3233  0.3765  0.1705
 2010SOL    HW1 6376   0.227   3.274   1.549  0.1337  0.6196 -1.7956
 2010SOL    HW2 6377   0.219   3.413   1.609  1.3190  0.3625 -0.9886
 2011SOL     OW 6378   3.968   3.636   1.350  0.2793 -0.1206  0.2359
 2011SOL    HW1 6379   4.001   3.716   1.392  0.0585  0.4976 -0.7245
 2011SOL    HW2 6380   3.993   3.565   1.410  0.8385  0.6223  0.9082
 2012SOL     OW 6381   1.543   3.337   3.277  0.5498 -0.2051  0.1408
 2012SOL    HW1 6382   1.514   3.384   3.199  1.9171 -0.7480 -0.7234
 2012SOL    HW2 6383   1.476   3.357   3.343 -0.9977 -0.2660 -1.3349
 2013SOL     OW 6384   1.701   0.438   0.209  0.5589  0.1881  0.6682
 2013SOL    HW1 6385   1.646   0.428   0.130  0.9825 -1.1631  0.5057
 2013SOL    HW2 6386   1.711   0.348   0.242  0.9030  0.6678  1.9201
 2014SOL     OW 6387   3.653   2.818   0.313  0.4390 -0.1555 -0.0507
 2014SOL    HW1 6388   3.648   2.854   0.401 -0.5502  1.7202 -0.8062
 2014SOL    HW2 6389   3.609   2.883   0.258  0.1293 -1.7458 -1.7921
 2015SOL     OW 6390   1.773   1.081   0.017 -0.0233 -0.3540 -0.1089
 2015SOL    HW1 6391   1.729   1.069  -0.067 -1.7718  0.9801  0.5595
 2015SOL    HW2 6392   1.803   1.172   0.016  1.0288 -0.6779  0.2450
 2016SOL     OW 6393   2.780   0.008   2.222 -0.4681 -0.9529 -0.2812
 2016SOL    HW1 6394   2.871   0.018   2.251 -0.8038  0.9690  0.2401
 2016SOL    HW2 6395   2.761  -0.085   2.234  1.1820 -1.2437  0.3321
 2017SOL     OW 6396   1.170   2.555   0.333  0.2720  0.0268  0.2944
 2017SOL    HW1 6397   1.221   2.522   0.407  0.5221  3.3935  1.8285
 2017SOL    HW2 6398   1.231   2.552   0.259  0.5130 -1.9945  0.5253
 2018SOL     OW 6399   2.096   1.164   2.388  0.3398  0.2591  0.3167
 2018SOL    HW1 6400   2.017   1.171   2.335  0.0176 -2.8504  0.2063
 2018SOL    HW2 6401   2.167   1.185   2.327 -0.3095  3.3871  0.4973
 2019SOL     OW 6402   1.130   3.448   2.759  0.1306 -0.4473  0.1130
 2019SOL    HW1 6403   1.129   3.409   2.846 -0.5531 -0.9408 -0.1084
 2019SOL    HW2 6404   1.191   3.521   2.766  0.0163 -0.4320  1.0297
 2020SOL     OW 6405   3.453   0.240   2.381 -0.0121  0.5722  0.0018
 2020SOL    HW1 6406   3.383   0.195   2.335  0.6867  0.9368 -1.4688
 2020SOL    HW2 6407   3.533   0.218   2.332  0.7065  1.2646  0.8197
 2021SOL     OW 6408   4.300   1.695   1.886  0.1272 -0.2091 -0.0403
 2021SOL    HW1 6409   4.382   1.673   1.842 -0.2079  0.2688 -0.9311
 2021SOL    HW2 6410   4.319   1.775   1.935 -0.1451  0.6735 -1.3313
 2022SOL     OW 6411   0.977   0.102   2.758 -0.2572  0.0165 -0.0324
 2022SOL    HW1 6412   0.930   0.159   2.697  1.0338  1.6272  0.3851
 2022SOL    HW2 6413   1.067   0.102   2.726  0.2621  0.2143  1.3557
 2023SOL     OW 6414   2.997   4.035   3.834  0.0961 -0.0080 -0.0546
 2023SOL    HW1 6415   2.902   4.045   3.847 -0.4952 -0.0462 -3.3818
 2023SOL    HW2 6416   3.029   4.124   3.822  0.0744 -0.1299 -1.0554
 2024SOL     OW 6417   3.063   0.848   1.387  0.0615 -0.2146 -0.1581
 2024SOL    HW1 6418   2.985   0.800   1.414  0.5878 -1.2027 -0.3404
 2024SOL    HW2 6419   3.053   0.935   1.425 -0.9936 -0.4196  0.0436
 2025SOL     OW 6420   3.125   4.165   1.495  0.2549 -0.0087  0.8372
 2025SOL    HW1 6421   3.103   4.117   1.575 -0.3749 -1.2304 -0.0373
 2025SOL    HW2 6422   3.098   4.107   1.424  2.6096  0.1730 -0.3080
 2026SOL     OW 6423   2.190   1.410   1.122 -0.9206  0.0721 -0.0122
 2026SOL    HW1 6424   2.180   1.376   1.034  0.2546 -2.2891  0.6905
 2026SOL    HW2 6425   2.101   1.434   1.149 -1.5588 -0.9638 -1.1495
 2027SOL     OW 6426   3.809   1.260   0.155 -0.3562 -0.2015 -0.5030
 2027SOL    HW1 6427   3.866   1.297   0.087  0.6702  1.6854  1.2741
 2027SOL    HW2 6428   3.848   1.174   0.174 -0.6319 -0.7386 -2.2079
 2028SOL     OW 6429   0.813   0.965   3.532  0.2974 -0.2405  0.4048
 2028SOL    HW1 6430   0.801   1.050   3.489  1.2299 -0.9906 -1.4059
 2028SOL    HW2 6431   0.729   0.948   3.574 -0.6598  0.5727 -1.0862
 2029SOL     OW 6432   0.493   0.169   4.101 -0.4269  0.1133  0.4681
 2029SOL    HW1 6433   0.478   0.210   4.187  0.3359  1.7172 -0.1172
 2029SOL    HW2 6434   0.547   0.092   4.121  0.5084  0.9638  1.3583
 2030SOL     OW 6435   3.038   2.926   2.077 -0.0884 -0.0735  0.2207
 2030SOL    HW1 6436   3.001   2.851   2.123  0.8061 -0.6069  0.0927
 2030SOL    HW2 6437   3.044   2.898   1.985  0.4169  0.0776  0.2018
 2031SOL     OW 6438   1.085   1.687   2.448 -0.1395 -0.0491 -0.7496
 2031SOL    HW1 6439   1.150   1.737   2.496  0.3662 -0.9281 -0.4831
 2031SOL    HW2 6440   1.136   1.630   2.391 -0.6040 -1.6039  0.3106
 2032SOL     OW 6441   0.176   3.325   4.184  0.4529 -0.0272 -0.7564
 2032SOL    HW1 6442   0.104   3.266   4.206 -0.5573  1.7297  1.0453
 2032SOL    HW2 6443   0.249   3.295   4.239  0.0422  0.1561 -0.0898
 2033SOL     OW 6444   2.930   0.699   2.399  0.0363  0.5121  0.0530
 2033SOL    HW1 6445   2.857   0.739   2.446 -0.0273  0.4653 -0.0054
 2033SOL    HW2 6446   2.919   0.605   2.412 -0.1932  0.4792 -0.3650
 2034SOL     OW 6447   0.227   3.595   2.528  0.4207 -0.2801  0.1832
 2034SOL    HW1 6448   0.251   3.579   2.436 -0.7790 -0.6309 -0.0879
 2034SOL    HW2 6449   0.170   3.671   2.525 -0.6717 -1.0557  0.4611
 2035SOL     OW 6450   2.092   2.390   2.133  0.2675  0.3158  0.6743
 2035SOL    HW1 6451   2.140   2.439   2.067 -0.2141  0.1875  0.2202
 2035SOL    HW2 6452   2.012   2.441   2.146 -0.9639 -1.0869 -0.9183
 2036SOL     OW 6453   2.294   1.171   1.770 -0.2826  0.0498 -0.0282
 2036SOL    HW1 6454   2.355   1.140   1.836 -2.4224  0.8584  2.4907
 2036SOL    HW2 6455   2.271   1.093   1.720  1.0285 -0.6792  0.4568
 2037SOL     OW 6456   0.821   2.211   2.422  0.3475  0.0489 -0.2296
 2037SOL    HW1 6457   0.870   2.130   2.411 -0.2739 -0.2907 -0.5451
 2037SOL    HW2 6458   0.763   2.214   2.346  0.0227  0.5475  0.0345
 2038SOL     OW 6459   0.601   2.893   2.495 -0.7623  0.0773  0.3992
 2038SOL    HW1 6460   0.506   2.895   2.484 -0.8740  0.2746  1.3068
 2038SOL    HW2 6461   0.633   2.969   2.447 -1.0275 -0.2013 -0.2216
 2039SOL     OW 6462   3.071   4.291   3.779 -0.4506 -0.3341  0.1682
 2039SOL    HW1 6463   3.020   4.362   3.742  2.2483  2.6120  1.6628
 2039SOL    HW2 6464   3.148   4.284   3.722 -0.5496 -1.9907  0.1758
 2040SOL     OW 6465   3.857   0.257   4.182  0.4980  0.1778  0.5460
 2040SOL    HW1 6466   3.905   0.222   4.107 -1.2201 -0.2881 -0.3917
 2040SOL    HW2 6467   3.913   0.237   4.257  1.5178 -0.7928 -0.4227
 2041SOL     OW 6468   0.658   1.808   0.114 -0.9668 -0.1909  0.4341
 2041SOL    HW1 6469   0.571   1.769   0.104 -0.8273 -0.9039  1.8476
 2041SOL    HW2 6470   0.700   1.793   0.029 -1.6497 -1.2862  0.2648
 2042SOL     OW 6471   2.098   2.112   0.331  0.2565  0.2631 -0.1225
 2042SOL    HW1 6472   2.062   2.031   0.293  0.2380  1.2685 -2.3919
 2042SOL    HW2 6473   2.193   2.104   0.318  0.4154 -0.0604  1.1026
 2043SOL     OW 6474   0.372   3.734   2.281  0.4171  0.0820 -0.1689
 2043SOL    HW1 6475   0.363   3.794   2.207  0.6581  0.1035 -0.1820
 2043SOL    HW2 6476   0.407   3.788   2.352  0.3151  0.0315 -0.0802
 2044SOL     OW 6477   2.465   1.199   1.517 -0.5125 -0.1439 -0.1982
 2044SOL    HW1 6478   2.484   1.292   1.508 -0.6812  0.1212  1.7481
 2044SOL    HW2 6479   2.403   1.194   1.590  0.9092 -1.8934  0.9966
 2045SOL     OW 6480   4.149   2.157   1.961  0.4743 -0.9252  0.2458
 2045SOL    HW1 6481   4.195   2.224   1.910 -1.2188  1.4600  1.6654
 2045SOL    HW2 6482   4.208   2.138   2.034  0.8395 -0.7543 -0.0032
 2046SOL     OW 6483   0.354   4.061   3.429 -0.5071  0.1136 -0.0306
 2046SOL    HW1 6484   0.366   3.970   3.456  1.4454  0.5106  0.5912
 2046SOL    HW2 6485   0.279   4.092   3.479  0.3321 -0.4598  1.6621
 2047SOL     OW 6486   2.284   3.612   0.387 -0.4779 -0.2157 -0.6837
 2047SOL    HW1 6487   2.255   3.680   0.326 -1.2466  1.0813  1.0270
 2047SOL    HW2 6488   2.212   3.605   0.451 -0.1438 -2.2153 -0.4466
 2048SOL     OW 6489   1.275   4.226   0.585  0.5785  0.2041 -0.1366
 2048SOL    HW1 6490   1.350   4.203   0.640  0.4243  0.9109  0.3852
 2048SOL    HW2 6491   1.273   4.322   0.586  0.8990  0.2574 -1.8246
 2049SOL     OW 6492   3.899   0.119   1.041  0.8886  0.6825 -0.3132
 2049SOL    HW1 6493   3.871   0.047   0.984 -0.9012  0.6180  0.5803
 2049SOL    HW2 6494   3.829   0.183   1.034 -0.6497 -0.3313  3.5227
 2050SOL     OW 6495   0.539   1.215   1.964 -0.3732  0.1963 -0.0575
 2050SOL    HW1 6496   0.630   1.238   1.983 -0.0969 -1.2106  0.4544
 2050SOL    HW2 6497   0.536   1.206   1.869 -0.3018  1.4417 -0.2014
 2051SOL     OW 6498   3.780   2.198   0.425 -0.0844 -0.0903  0.2694
 2051SOL    HW1 6499   3.737   2.202   0.339  1.6030  2.6732 -0.5803
 2051SOL    HW2 6500   3.856   2.141   0.411  1.0938  1.5986 -0.6299
 2052SOL     OW 6501   3.287   3.665   2.319  0.8747  0.2672  0.1212
 2052SOL    HW1 6502   3.227   3.718   2.268  0.2496  0.6305  1.2010
 2052SOL    HW2 6503   3.350   3.631   2.255 -0.2401  0.1923 -0.9640
 2053SOL     OW 6504   1.641   2.576   2.564 -0.1636  0.7032  0.5088
 2053SOL    HW1 6505   1.656   2.554   2.472  0.7428 -1.6577  1.1543
 2053SOL    HW2 6506   1.555   2.618   2.565 -1.1964 -1.2029 -1.1663
 2054SOL     OW 6507   4.076   3.534   2.071 -0.0393  0.4041 -0.0027
 2054SOL    HW1 6508   4.070   3.597   2.142  2.3300  0.6134  0.0666
 2054SOL    HW2 6509   4.130   3.576   2.005 -1.1451 -0.2882 -1.4238
 2055SOL     OW 6510   0.499   1.176   1.696  0.5102  0.2609  0.4444
 2055SOL    HW1 6511   0.547   1.094   1.681 -0.1828 -0.1958  0.6748
 2055SOL    HW2 6512   0.520   1.230   1.620  0.3274 -0.4455 -0.1154
 2056SOL     OW 6513   2.671   0.911   0.870  0.1312  0.3694  0.2702
 2056SOL    HW1 6514   2.709   0.874   0.791  1.4805  1.6059  0.2899
 2056SOL    HW2 6515   2.579   0.927   0.848  0.4022  0.3660 -0.9151
 2057SOL     OW 6516   0.409   3.011   3.750  0.2730 -0.4642  0.0112
 2057SOL    HW1 6517   0.323   3.007   3.708 -0.7589 -0.4230  1.9975
 2057SOL    HW2 6518   0.389   3.015   3.844  2.1858  5.1681  0.5110
 2058SOL     OW 6519   2.126   2.869   3.240  0.2085  0.0754  0.1211
 2058SOL    HW1 6520   2.113   2.886   3.333  2.4138 -2.4366  1.0213
 2058SOL    HW2 6521   2.158   2.952   3.204  0.2506  0.8329  1.8095
 2059SOL     OW 6522   2.009   2.885   3.876  0.0072  0.3358 -0.0166
 2059SOL    HW1 6523   2.003   2.814   3.812  0.3984  1.1220 -0.9299
 2059SOL    HW2 6524   2.078   2.857   3.936 -0.6628 -0.6103  0.3470
 2060SOL     OW 6525   0.249   0.435   1.893  0.3955  0.0194 -0.3423
 2060SOL    HW1 6526   0.234   0.380   1.816  1.0403  1.5903 -1.6407
 2060SOL    HW2 6527   0.286   0.375   1.958 -0.5713 -1.4384 -1.0831
 2061SOL     OW 6528   1.998   2.563   0.672  0.4075  0.1998 -0.4868
 2061SOL    HW1 6529   1.905   2.552   0.692  0.5526  3.7542  3.3750
 2061SOL    HW2 6530   2.001   2.641   0.617  1.1580  0.9925  0.6589
 2062SOL     OW 6531   3.083   1.534   4.331 -0.0006  0.1670  0.3584
 2062SOL    HW1 6532   3.144   1.471   4.371  1.0290  0.7078 -0.3006
 2062SOL    HW2 6533   3.071   1.601   4.398  3.7594  2.4524 -0.9041
 2063SOL     OW 6534   0.693   3.594   2.950  0.3965 -0.1532  0.4160
 2063SOL    HW1 6535   0.640   3.520   2.981  1.1321 -0.3836  1.1532
 2063SOL    HW2 6536   0.697   3.654   3.024  1.1515 -0.1353  0.3677
 2064SOL     OW 6537   2.329   1.048   0.257 -0.1006  0.0080 -0.1916
 2064SOL    HW1 6538   2.364   1.136   0.240 -1.0049  0.8753  2.0710
 2064SOL    HW2 6539   2.363   1.025   0.343  0.0264 -1.8555 -0.6894
 2065SOL     OW 6540   1.827   2.272   1.337 -0.0365 -0.5632 -0.2708
 2065SOL    HW1 6541   1.807   2.356   1.378  0.4552 -0.5360 -0.0740
 2065SOL    HW2 6542   1.882   2.295   1.262 -0.5248 -0.6509 -0.6579
 2066SOL     OW 6543   1.578   0.386   2.431  0.5805 -0.2134  0.1691
 2066SOL    HW1 6544   1.542   0.341   2.354  0.3227  0.1439  0.0814
 2066SOL    HW2 6545   1.569   0.479   2.411  2.6469 -0.0849 -0.3813
 2067SOL     OW 6546   1.932   0.442   3.448  0.1088  0.0553 -0.6185
 2067SOL    HW1 6547   1.982   0.447   3.367 -0.8859 -0.1870 -1.2654
 2067SOL    HW2 6548   1.840   0.445   3.420 -0.2712 -0.9718  0.4308
 2068SOL     OW 6549   4.101   2.296   1.659 -0.2727 -0.2609  0.2887
 2068SOL    HW1 6550   4.037   2.362   1.631 -2.0978 -1.2887  1.7979
 2068SOL    HW2 6551   4.065   2.214   1.626  0.5666 -0.8087  0.7309
 2069SOL     OW 6552   2.343   2.653   0.523  0.3488  0.3593  0.1628
 2069SOL    HW1 6553   2.378   2.682   0.608  2.1967 -0.1225 -0.3683
 2069SOL    HW2 6554   2.274   2.715   0.503  0.1624  0.7535  1.8181
 2070SOL     OW 6555   4.239   0.200   1.463 -0.0583  0.2134 -0.2355
 2070SOL    HW1 6556   4.244   0.167   1.373 -1.4614 -1.8730  0.3766
 2070SOL    HW2 6557   4.306   0.268   1.467 -0.5814  1.0364 -3.0992
 2071SOL     OW 6558   4.367   3.169   3.894 -0.2243 -0.4196  0.1989
 2071SOL    HW1 6559   4.309   3.177   3.970 -0.8627  0.7854 -0.3862
 2071SOL    HW2 6560   4.413   3.253   3.889  0.4118 -0.7875 -0.2733
 2072SOL     OW 6561   3.456   1.322   2.653 -0.4088 -0.1838  0.1042
 2072SOL    HW1 6562   3.526   1.325   2.718  0.6874 -0.3576 -1.0342
 2072SOL    HW2 6563   3.428   1.231   2.652 -0.4762 -0.1689  0.3574
 2073SOL     OW 6564   0.635   0.072   1.402 -0.1073 -0.3030 -0.2195
 2073SOL    HW1 6565   0.673  -0.005   1.442  2.1262 -0.8670 -3.1223
 2073SOL    HW2 6566   0.607   0.126   1.476  0.7247 -2.6547  1.9475
 2074SOL     OW 6567   3.322   0.514   3.624 -0.5760 -0.0965  0.4341
 2074SOL    HW1 6568   3.326   0.424   3.591  1.3525  0.4189 -0.9678
 2074SOL    HW2 6569   3.298   0.567   3.548 -2.7297  0.5452  1.4666
 2075SOL     OW 6570   3.455   0.319   2.027  0.4980  0.1644 -0.0490
 2075SOL    HW1 6571   3.426   0.232   2.053 -1.1926  0.3059 -1.3220
 2075SOL    HW2 6572   3.546   0.324   2.057  0.5829 -1.9582  0.1797
 2076SOL     OW 6573   2.361   2.066   0.306  0.3751 -0.1539  0.1447
 2076SOL    HW1 6574   2.341   1.986   0.353 -1.8530  0.7910  0.9825
 2076SOL    HW2 6575   2.411   2.120   0.367 -0.0277 -0.0579  0.3916
 2077SOL     OW 6576   3.082   1.533   0.820  0.1131  0.4735 -0.1214
 2077SOL    HW1 6577   3.131   1.456   0.849  0.1009  0.7940  0.7886
 2077SOL    HW2 6578   2.990   1.508   0.830  0.0935  1.0400  1.4781
 2078SOL     OW 6579   2.851   4.278   1.450  0.1235 -0.1626 -0.4342
 2078SOL    HW1 6580   2.947   4.272   1.452  0.1017 -0.9044 -1.0087
 2078SOL    HW2 6581   2.827   4.301   1.540  0.8724  0.6710 -0.4319
 2079SOL     OW 6582   3.382   1.975   2.494 -0.4059  0.4844 -0.3259
 2079SOL    HW1 6583   3.380   1.903   2.431 -1.3273  1.8653 -1.9528
 2079SOL    HW2 6584   3.473   2.004   2.496 -0.1959 -0.1678 -0.2909
 2080SOL     OW 6585   3.922   1.473   3.035 -0.1173  0.2076  0.0325
 2080SOL    HW1 6586   3.891   1.443   2.950  0.5788  0.4428 -0.3085
 2080SOL    HW2 6587   3.882   1.559   3.046  1.1289  0.9281 -0.8321
 2081SOL     OW 6588   2.614   3.911   1.890 -0.1016  0.1322  0.1171
 2081SOL    HW1 6589   2.525   3.930   1.917  0.2589  0.2881  1.2337
 2081SOL    HW2 6590   2.642   3.989   1.842  0.3047  1.1914  1.9933
 2082SOL     OW 6591   1.124   3.390   2.403  0.1885 -0.2438  0.6875
 2082SOL    HW1 6592   1.165   3.339   2.333 -1.2640 -1.1478  0.4368
 2082SOL    HW2 6593   1.039   3.348   2.416 -1.0456  2.0536  0.5727
 2083SOL     OW 6594   2.020   3.173   3.910 -0.4018 -0.0099 -0.3503
 2083SOL    HW1 6595   2.014   3.080   3.888  0.7676 -0.1505 -0.1214
 2083SOL    HW2 6596   1.930   3.205   3.901 -1.3352 -1.7052  1.9991
 2084SOL     OW 6597   4.350   0.522   1.207  0.1024 -0.0659 -0.3694
 2084SOL    HW1 6598   4.408   0.486   1.274 -0.2685  1.1030  0.6093
 2084SOL    HW2 6599   4.268   0.473   1.219 -0.2339  0.7075  0.6106
 2085SOL     OW 6600   0.847   3.446   0.789  0.7357 -0.4583  0.0999
 2085SOL    HW1 6601   0.863   3.537   0.815  2.2299 -0.4104 -0.8758
 2085SOL    HW2 6602   0.793   3.453   0.709 -0.3547 -0.4930  0.8121
 2086SOL     OW 6603   0.475   1.074   3.394 -0.1397 -0.2588  0.1486
 2086SOL    HW1 6604   0.422   1.002   3.359 -0.2236  0.2849 -0.8865
 2086SOL    HW2 6605   0.507   1.120   3.316  1.5065 -0.3106  0.7438
 2087SOL     OW 6606   2.504   1.099   4.144 -0.6670 -0.1456  0.5101
 2087SOL    HW1 6607   2.562   1.125   4.216  1.3405 -0.0509 -1.0239
 2087SOL    HW2 6608   2.490   1.180   4.095 -2.0225 -0.2080  0.7618
 2088SOL     OW 6609   2.652   3.548   3.741  0.5912  0.1105  0.5964
 2088SOL    HW1 6610   2.649   3.458   3.708  0.0924  0.6616 -0.9428
 2088SOL    HW2 6611   2.682   3.539   3.832 -0.4163 -1.6914  0.8059
 2089SOL     OW 6612   2.769   2.805   2.520 -0.6354  0.9737  0.3745
 2089SOL    HW1 6613   2.801   2.841   2.603 -1.3304 -0.1582  1.1692
 2089SOL    HW2 6614   2.821   2.725   2.508 -0.6218  1.0721 -0.2272
 2090SOL     OW 6615   3.043   2.382   2.830  0.0753 -0.0223  0.0303
 2090SOL    HW1 6616   3.070   2.344   2.913 -0.6061 -2.0882 -0.6451
 2090SOL    HW2 6617   2.983   2.453   2.854 -0.8139 -1.1546  1.2862
 2091SOL     OW 6618   0.912   3.814   4.113 -0.3269  0.2497 -0.4370
 2091SOL    HW1 6619   0.868   3.728   4.112  0.7980 -0.3662  0.3073
 2091SOL    HW2 6620   1.000   3.795   4.145 -0.3266  1.8155  0.6048
 2092SOL     OW 6621   3.593   0.431   0.391 -0.0883  0.4560  0.4387
 2092SOL    HW1 6622   3.582   0.355   0.447  0.6728 -0.7559 -0.9887
 2092SOL    HW2 6623   3.687   0.450   0.394 -0.4117  2.1171  1.6994
 2093SOL     OW 6624   1.133   1.157   0.341 -0.2343 -0.2329 -0.2025
 2093SOL    HW1 6625   1.080   1.079   0.354  0.4080 -0.7041 -0.3860
 2093SOL    HW2 6626   1.213   1.142   0.391  0.2565 -0.0630 -0.9098
 2094SOL     OW 6627   1.837   3.734   2.076 -0.1909  0.0452 -0.2511
 2094SOL    HW1 6628   1.777   3.676   2.029 -0.2934  0.4703 -0.6598
 2094SOL    HW2 6629   1.809   3.729   2.167  0.9521 -1.9683  0.0585
 2095SOL     OW 6630   3.836   3.143   1.992  0.1294 -0.1782  0.0337
 2095SOL    HW1 6631   3.886   3.133   1.911  1.7979  0.8896  0.8623
 2095SOL    HW2 6632   3.780   3.066   1.996 -0.5482  0.1009 -2.4867
 2096SOL     OW 6633   0.448   1.846   0.303 -0.3299  0.0438  0.4095
 2096SOL    HW1 6634   0.413   1.800   0.227 -0.1771  0.0179  0.3562
 2096SOL    HW2 6635   0.484   1.777   0.359  1.1157  0.2114 -0.2898
 2097SOL     OW 6636   0.997   0.642   2.336  0.5922 -0.4017 -0.0125
 2097SOL    HW1 6637   1.005   0.696   2.257  0.6698 -0.0934  0.2059
 2097SOL    HW2 6638   1.080   0.594   2.341  0.6565 -0.2920 -0.0236
 2098SOL     OW 6639   2.639   0.737   2.525 -0.2377  0.6755  0.3458
 2098SOL    HW1 6640   2.553   0.771   2.547 -1.4083 -1.5276 -0.4979
 2098SOL    HW2 6641   2.669   0.695   2.606 -1.0905 -0.6858 -0.0166
 2099SOL     OW 6642   1.392   1.529   3.978  0.2187  0.4128 -0.0922
 2099SOL    HW1 6643   1.399   1.519   3.883  0.7347 -0.4604  0.0360
 2099SOL    HW2 6644   1.297   1.524   3.995 -0.0577  2.5011 -0.7504
 2100SOL     OW 6645   2.528   2.374   2.554 -0.5415 -0.0084 -0.0165
 2100SOL    HW1 6646   2.523   2.452   2.498 -0.4777 -0.3639 -0.5242
 2100SOL    HW2 6647   2.614   2.380   2.596 -0.6182  0.2971  0.1011
 2101SOL     OW 6648   3.925   2.162   4.095 -0.0006 -0.3969  0.2368
 2101SOL    HW1 6649   3.925   2.117   4.010  1.8937  2.3227 -1.3580
 2101SOL    HW2 6650   4.017   2.163   4.121 -0.1786  1.2718  0.8948
 2102SOL     OW 6651   3.523   0.776   0.385 -0.5349  0.0929 -0.3044
 2102SOL    HW1 6652   3.515   0.738   0.472 -0.0298 -0.0705 -0.3228
 2102SOL    HW2 6653   3.559   0.706   0.331 -1.2767  0.0422 -0.7598
 2103SOL     OW 6654   4.325   3.916   2.337  0.0358 -0.0650  0.2015
 2103SOL    HW1 6655   4.396   3.977   2.314 -0.6941  1.2303  1.1875
 2103SOL    HW2 6656   4.245   3.967   2.324 -0.5505 -0.3312  2.3154
 2104SOL     OW 6657   2.136   2.858   2.924  0.0371  0.4193  0.1450
 2104SOL    HW1 6658   2.042   2.869   2.910 -0.0232 -0.1698  0.0841
 2104SOL    HW2 6659   2.161   2.934   2.977 -0.9525 -0.6238  2.2534
 2105SOL     OW 6660   1.525   3.804   1.990 -0.5181  0.0511  0.2872
 2105SOL    HW1 6661   1.505   3.745   1.917 -0.8082  1.2920 -0.6765
 2105SOL    HW2 6662   1.557   3.747   2.059 -0.0297 -1.1411 -0.8865
 2106SOL     OW 6663   4.064   0.313   3.393 -0.5775 -0.7845  0.0610
 2106SOL    HW1 6664   4.023   0.398   3.378  1.0805 -0.0721 -0.6886
 2106SOL    HW2 6665   4.049   0.265   3.312  0.8405 -0.1587 -0.6098
 2107SOL     OW 6666   2.872   4.307   0.940 -0.3725 -0.4789  0.0385
 2107SOL    HW1 6667   2.822   4.378   0.899 -0.2587 -1.0937 -1.2188
 2107SOL    HW2 6668   2.875   4.330   1.033 -1.7342  0.3211 -0.0890
 2108SOL     OW 6669   2.734   0.836   2.805 -0.0826 -0.2996  0.2148
 2108SOL    HW1 6670   2.740   0.741   2.808 -0.3950 -0.3196  0.2352
 2108SOL    HW2 6671   2.679   0.859   2.881 -2.1923 -0.2866 -1.2236
 2109SOL     OW 6672   3.564   0.625   4.334 -0.0012 -0.0774  0.1752
 2109SOL    HW1 6673   3.638   0.654   4.388 -0.2887 -0.7824  0.9667
 2109SOL    HW2 6674   3.539   0.703   4.284  2.9477 -0.4144 -2.1182
 2110SOL     OW 6675   1.942   3.173   2.251  0.1634  0.4929  0.4976
 2110SOL    HW1 6676   1.933   3.267   2.263 -0.6739  0.4000  0.7047
 2110SOL    HW2 6677   1.864   3.136   2.293 -0.9513 -0.0993 -1.8907
 2111SOL     OW 6678   1.624   1.843   3.555 -0.3234  0.2149  0.1822
 2111SOL    HW1 6679   1.714   1.813   3.544 -0.8781 -1.4660 -0.0077
 2111SOL    HW2 6680   1.584   1.833   3.468 -1.8130 -3.1166  1.0891
 2112SOL     OW 6681   2.171   3.809   2.887  0.1982 -0.2931 -0.3455
 2112SOL    HW1 6682   2.194   3.887   2.939 -1.4953 -0.3103  0.5112
 2112SOL    HW2 6683   2.075   3.810   2.885  0.0178 -3.2724  1.1884
 2113SOL     OW 6684   4.125   4.284   2.147  0.8109  0.2070 -0.0574
 2113SOL    HW1 6685   4.039   4.249   2.121  0.6226  0.8038 -0.2589
 2113SOL    HW2 6686   4.185   4.210   2.137  0.0318 -0.7499  1.8196
 2114SOL     OW 6687   2.104   2.685   3.736  0.1083  0.1592 -0.3614
 2114SOL    HW1 6688   2.141   2.624   3.799 -2.3885  0.0005  1.0864
 2114SOL    HW2 6689   2.110   2.640   3.651  0.7539 -0.9276  0.2434
 2115SOL     OW 6690   3.801   0.113   1.730 -0.2284  0.2964 -0.4858
 2115SOL    HW1 6691   3.728   0.064   1.768 -0.1974  0.1942 -0.5570
 2115SOL    HW2 6692   3.877   0.089   1.783 -0.0067 -0.5438 -1.1534
 2116SOL     OW 6693   3.749   3.248   3.175 -0.2008 -0.0934 -1.0629
 2116SOL    HW1 6694   3.686   3.309   3.135  1.4360  1.9452 -0.6845
 2116SOL    HW2 6695   3.706   3.221   3.257 -0.3078  1.9422 -0.3766
 2117SOL     OW 6696   3.826   0.187   3.509  0.1775  0.1774 -0.3629
 2117SOL    HW1 6697   3.896   0.231   3.460  0.1352 -0.8089 -1.3414
 2117SOL    HW2 6698   3.778   0.137   3.443  1.0869 -2.4932  0.8505
 2118SOL     OW 6699   1.531   2.625   1.628  0.0588  0.1268 -0.2031
 2118SOL    HW1 6700   1.452   2.631   1.574 -0.3318 -1.0600  0.2261
 2118SOL    HW2 6701   1.502   2.588   1.711  0.8789  0.7591  0.3882
 2119SOL     OW 6702   2.746   0.355   2.602 -0.1006  0.2614  0.2877
 2119SOL    HW1 6703   2.821   0.370   2.545 -0.0326  0.5326  0.4455
 2119SOL    HW2 6704   2.681   0.313   2.546  1.3725 -3.2049  0.9471
 2120SOL     OW 6705   4.107   2.048   1.256 -0.3796 -0.2188 -0.6113
 2120SOL    HW1 6706   4.036   2.094   1.211 -0.1195  0.6839 -0.1092
 2120SOL    HW2 6707   4.088   2.060   1.349 -0.4642 -1.3814 -0.4575
 2121SOL     OW 6708   1.792   2.256   2.859 -0.1069  0.1084  0.3700
 2121SOL    HW1 6709   1.817   2.269   2.950 -3.3562 -1.9907  1.7354
 2121SOL    HW2 6710   1.722   2.320   2.845 -0.2532 -0.2116 -0.3914
 2122SOL     OW 6711   3.311   2.840   3.561 -0.0601 -0.5231  0.7138
 2122SOL    HW1 6712   3.399   2.814   3.586 -0.3819 -0.9686  1.4108
 2122SOL    HW2 6713   3.274   2.880   3.639  0.3266  1.8937 -0.2591
 2123SOL     OW 6714   1.754   3.385   1.052  0.4552  0.1561 -0.4436
 2123SOL    HW1 6715   1.828   3.338   1.090  0.7848 -0.4632 -1.7649
 2123SOL    HW2 6716   1.680   3.326   1.060 -0.1916  1.1959  1.8355
 2124SOL     OW 6717   1.538   0.416   4.370 -0.3179 -0.3011  0.4946
 2124SOL    HW1 6718   1.553   0.434   4.278 -0.9718 -3.9899 -0.4729
 2124SOL    HW2 6719   1.456   0.368   4.373 -0.6299  0.2052  3.1213
 2125SOL     OW 6720   2.189   1.445   1.540  0.2947  0.5450  0.4630
 2125SOL    HW1 6721   2.254   1.438   1.470 -0.0457  0.1491  0.1715
 2125SOL    HW2 6722   2.196   1.535   1.571  1.0291  0.4830  0.4873
 2126SOL     OW 6723   3.375   2.168   2.742 -0.4328 -0.3611  0.4525
 2126SOL    HW1 6724   3.364   2.116   2.822  1.8385 -1.1342  0.3281
 2126SOL    HW2 6725   3.369   2.104   2.671 -1.1935  0.1378  0.0497
 2127SOL     OW 6726   3.246   1.802   1.580 -0.6306 -0.1952 -0.4165
 2127SOL    HW1 6727   3.221   1.748   1.505 -1.0193  0.6053 -0.8806
 2127SOL    HW2 6728   3.341   1.810   1.574 -0.7911  1.0302 -1.6528
 2128SOL     OW 6729   3.379   1.042   2.652 -0.3871 -0.1734  0.2658
 2128SOL    HW1 6730   3.387   1.044   2.747 -0.3915  0.7212  0.2602
 2128SOL    HW2 6731   3.294   1.000   2.636  0.1511 -1.4406  0.6015
 2129SOL     OW 6732   3.221   3.168   2.017 -0.0268  0.3660  0.2963
 2129SOL    HW1 6733   3.198   3.090   2.068  0.3467  0.7002  0.9954
 2129SOL    HW2 6734   3.138   3.214   2.004 -0.2542 -0.1510 -0.1437
 2130SOL     OW 6735   0.112   1.321   3.168  0.3637 -0.2626  0.6602
 2130SOL    HW1 6736   0.159   1.273   3.100  1.3640  0.0622  1.1079
 2130SOL    HW2 6737   0.036   1.357   3.124  1.4140  0.6069 -0.4935
 2131SOL     OW 6738   1.730   2.506   1.466 -0.2553 -0.3126 -0.1209
 2131SOL    HW1 6739   1.769   2.492   1.552 -1.8340 -1.7285  0.4162
 2131SOL    HW2 6740   1.645   2.545   1.483 -0.7076 -0.8562 -0.9965
 2132SOL     OW 6741   2.602   1.340   1.227 -0.1003 -0.7176  0.0388
 2132SOL    HW1 6742   2.608   1.250   1.197 -1.7259 -0.5149 -1.0226
 2132SOL    HW2 6743   2.676   1.350   1.288  0.8126 -2.3902 -0.7184
 2133SOL     OW 6744   1.375   2.241   1.424 -0.3149  0.7087  0.1417
 2133SOL    HW1 6745   1.385   2.208   1.335 -0.8356  2.3389 -0.5691
 2133SOL    HW2 6746   1.458   2.286   1.443  0.0165 -0.1145  0.7238
 2134SOL     OW 6747   0.491   3.450   1.436 -0.0130 -0.2891  0.1082
 2134SOL    HW1 6748   0.506   3.484   1.524 -2.7049 -3.2938  1.9384
 2134SOL    HW2 6749   0.547   3.372   1.432 -1.3978 -1.3166  0.0341
 2135SOL     OW 6750   0.687   1.869   3.573  0.4649 -0.2082 -0.0149
 2135SOL    HW1 6751   0.655   1.779   3.581  0.9092 -0.3805 -0.1698
 2135SOL    HW2 6752   0.727   1.873   3.486 -0.2863  0.3751 -0.3376
 2136SOL     OW 6753   0.226   1.355   3.566  0.2422  0.2560 -0.3000
 2136SOL    HW1 6754   0.187   1.304   3.636  0.7512 -0.4995 -0.5618
 2136SOL    HW2 6755   0.178   1.330   3.487  0.2739  0.4301 -0.3769
 2137SOL     OW 6756   3.134   1.661   2.553  0.4089 -0.1858 -0.0432
 2137SOL    HW1 6757   3.162   1.570   2.558 -0.0680 -0.2747  1.5775
 2137SOL    HW2 6758   3.165   1.700   2.635 -0.0847  0.9009 -0.3582
 2138SOL     OW 6759   2.179   3.559   0.873  0.1457 -0.4608 -0.7811
 2138SOL    HW1 6760   2.206   3.629   0.814 -0.8814 -0.6140 -1.4726
 2138SOL    HW2 6761   2.086   3.576   0.890  0.3223 -0.6573  0.4706
 2139SOL     OW 6762   1.799   1.618   0.873  0.6808  0.0754 -0.2140
 2139SOL    HW1 6763   1.709   1.637   0.848 -0.4625 -0.6146  2.8597
 2139SOL    HW2 6764   1.822   1.539   0.824 -0.9527 -0.5894  0.0539
 2140SOL     OW 6765   3.004   2.046   2.166  0.2904 -0.6439 -0.1789
 2140SOL    HW1 6766   3.051   2.093   2.097  2.0843 -0.0335  1.3477
 2140SOL    HW2 6767   3.043   2.079   2.247 -2.2702 -0.7329  1.1946
 2141SOL     OW 6768   1.104   3.995   4.032 -0.4272  0.1323 -0.3396
 2141SOL    HW1 6769   1.016   3.959   4.027  0.4736 -2.2265 -0.2559
 2141SOL    HW2 6770   1.161   3.924   4.005  1.5283  1.3626  0.3189
 2142SOL     OW 6771   3.512   1.611   0.528 -0.0771  0.2860 -0.1702
 2142SOL    HW1 6772   3.437   1.666   0.504 -1.0614 -1.1603 -0.5691
 2142SOL    HW2 6773   3.567   1.609   0.450  0.3251  1.2468  0.0790
 2143SOL     OW 6774   2.843   1.736   4.340 -0.4037  0.2279  0.0752
 2143SOL    HW1 6775   2.781   1.685   4.289  1.4267 -0.6296 -1.4271
 2143SOL    HW2 6776   2.927   1.723   4.296  0.6612  2.2488  1.3393
 2144SOL     OW 6777   4.139   3.441   4.244 -0.6359 -0.3533  0.1172
 2144SOL    HW1 6778   4.173   3.378   4.181 -1.2085  0.5679 -1.1691
 2144SOL    HW2 6779   4.155   3.526   4.204  1.9677  0.5312  2.7078
 2145SOL     OW 6780   2.508   2.974   3.086  0.4447 -0.2793  0.2375
 2145SOL    HW1 6781   2.539   3.051   3.037  1.4318 -1.3292 -0.8431
 2145SOL    HW2 6782   2.428   3.004   3.129  0.3146  1.0995 -0.8905
 2146SOL     OW 6783   2.907   3.512   3.415 -0.4889  0.0453  0.0676
 2146SOL    HW1 6784   2.838   3.574   3.393 -0.8246 -0.5198 -0.5141
 2146SOL    HW2 6785   2.987   3.564   3.418 -1.0845  0.9009  1.8117
 2147SOL     OW 6786   1.314   2.165   0.300 -0.0541  0.7391  0.1497
 2147SOL    HW1 6787   1.324   2.212   0.383 -0.2567 -0.3578  0.8200
 2147SOL    HW2 6788   1.376   2.208   0.241  1.1422  0.6336  1.2820
 2148SOL     OW 6789   0.169   3.693   3.496 -0.0552 -0.5793  0.6783
 2148SOL    HW1 6790   0.252   3.737   3.514 -0.1093 -0.1989  0.0321
 2148SOL    HW2 6791   0.120   3.699   3.578  0.3383 -0.3286  0.8979
 2149SOL     OW 6792   1.488   3.219   4.363  0.0616 -0.8726 -0.4445
 2149SOL    HW1 6793   1.497   3.222   4.268  1.0025 -2.5209 -0.4477
 2149SOL    HW2 6794   1.529   3.137   4.389 -2.2100 -1.6049  1.1884
 2150SOL     OW 6795   3.186   1.443   0.580  0.0522 -0.1178  0.3883
 2150SOL    HW1 6796   3.143   1.502   0.642  0.2896  0.3786  0.0889
 2150SOL    HW2 6797   3.248   1.392   0.633 -0.1691 -0.1108  0.6521
 2151SOL     OW 6798   3.336   0.132   4.198  0.4638  0.4856 -0.5601
 2151SOL    HW1 6799   3.423   0.101   4.174  0.1733 -0.7054 -0.1083
 2151SOL    HW2 6800   3.333   0.222   4.165  2.4348  1.1178  0.8205
 2152SOL     OW 6801   0.937   3.333   4.190  0.3156  0.4058  0.1962
 2152SOL    HW1 6802   0.885   3.290   4.257 -0.0145 -0.8523 -0.8098
 2152SOL    HW2 6803   1.027   3.305   4.207 -0.0033 -1.5199 -0.9793
 2153SOL     OW 6804   3.765   3.906   2.750  0.4696 -0.5718 -0.2866
 2153SOL    HW1 6805   3.701   3.970   2.719  1.0057 -0.1913 -0.6216
 2153SOL    HW2 6806   3.741   3.891   2.842 -1.0323 -1.5837 -0.7935
 2154SOL     OW 6807   0.645   3.870   0.406  0.6222  0.6432 -0.4922
 2154SOL    HW1 6808   0.672   3.782   0.380 -1.5561 -0.1074 -0.4204
 2154SOL    HW2 6809   0.704   3.892   0.478  2.9239  0.3740 -2.1727
 2155SOL     OW 6810   2.248   0.753   3.945 -0.2040 -0.0473  0.0019
 2155SOL    HW1 6811   2.327   0.775   3.994  1.2741  0.0914 -2.2993
 2155SOL    HW2 6812   2.201   0.836   3.937 -0.0447  0.0873  0.4344
 2156SOL     OW 6813   0.528   1.630   2.407 -0.1337 -0.5421  0.2955
 2156SOL    HW1 6814   0.527   1.535   2.395  0.3375 -0.5691  0.4482
 2156SOL    HW2 6815   0.478   1.665   2.333  0.2269 -0.8710 -0.1014
 2157SOL     OW 6816   3.780   3.983   1.215  0.1399 -0.8873 -0.2695
 2157SOL    HW1 6817   3.761   4.075   1.196 -0.6102 -0.8347  0.6586
 2157SOL    HW2 6818   3.868   3.969   1.180  0.2367  0.1584 -0.4904
 2158SOL     OW 6819   0.626   1.982   1.045  0.7232 -0.2182 -0.3698
 2158SOL    HW1 6820   0.664   2.068   1.027  0.1902 -0.3929 -2.5721
 2158SOL    HW2 6821   0.566   1.998   1.118  1.7891  0.9259  0.3026
 2159SOL     OW 6822   2.839   0.836   1.676  0.3568  0.8597  0.4018
 2159SOL    HW1 6823   2.815   0.787   1.597  1.7021  0.5962  0.1359
 2159SOL    HW2 6824   2.760   0.834   1.730 -0.9480  1.9032 -1.3453
 2160SOL     OW 6825   3.937   3.121   1.747  0.2743  0.3103  0.0650
 2160SOL    HW1 6826   3.844   3.134   1.727 -0.2454  0.5298  2.3661
 2160SOL    HW2 6827   3.980   3.126   1.662 -1.7648  0.6629 -1.0195
 2161SOL     OW 6828   1.085   1.211   2.367  0.5204  0.2677 -0.5933
 2161SOL    HW1 6829   1.180   1.206   2.377  0.5890  1.3225 -0.5344
 2161SOL    HW2 6830   1.063   1.299   2.399 -0.5812 -0.2824  0.2055
 2162SOL     OW 6831   3.336   4.310   0.819  0.6072  0.8817 -0.9192
 2162SOL    HW1 6832   3.247   4.328   0.851  0.6899  0.4224 -0.4230
 2162SOL    HW2 6833   3.323   4.283   0.728 -0.3006 -3.6905  0.3290
 2163SOL     OW 6834   2.951   4.015   2.241  0.4155  0.0945  0.2771
 2163SOL    HW1 6835   2.960   4.083   2.308  0.6998  0.8444 -0.5061
 2163SOL    HW2 6836   2.857   3.999   2.235  0.2501  1.1623 -0.2445
 2164SOL     OW 6837   1.918   3.605   0.925 -0.1393  0.2077 -0.5382
 2164SOL    HW1 6838   1.840   3.629   0.876  0.2506 -0.5150 -1.5567
 2164SOL    HW2 6839   1.887   3.541   0.990 -0.2566 -0.8414 -1.5979
 2165SOL     OW 6840   1.075   4.265   0.323  0.4342  0.1811 -0.5053
 2165SOL    HW1 6841   1.142   4.333   0.313  0.6416  1.0252  4.4884
 2165SOL    HW2 6842   1.120   4.194   0.368 -1.1715 -0.8848 -0.5154
 2166SOL     OW 6843   4.185   2.534   3.594 -0.5294  0.3042  0.2673
 2166SOL    HW1 6844   4.131   2.547   3.516  0.4842  0.6571 -0.3972
 2166SOL    HW2 6845   4.122   2.520   3.664 -1.4966 -2.4447 -0.9986
 2167SOL     OW 6846   4.073   1.194   0.355 -0.1456 -0.2449 -0.5526
 2167SOL    HW1 6847   4.036   1.282   0.361  0.6394  0.0128  2.2514
 2167SOL    HW2 6848   4.001   1.136   0.378 -0.6501 -0.3627 -2.3502
 2168SOL     OW 6849   2.106   3.668   4.331 -0.4335 -0.2824 -0.3657
 2168SOL    HW1 6850   2.180   3.621   4.292  1.1117  0.5044  1.4660
 2168SOL    HW2 6851   2.033   3.607   4.324  0.6208 -1.5111 -1.2797
 2169SOL     OW 6852   1.598   3.325   2.302  0.1404  0.7454 -0.0915
 2169SOL    HW1 6853   1.523   3.348   2.357  0.9665 -0.0449  1.4285
 2169SOL    HW2 6854   1.673   3.330   2.361  0.8974 -1.5691 -0.7737
 2170SOL     OW 6855   1.044   3.597   3.938  0.0055  0.0465 -0.0217
 2170SOL    HW1 6856   0.958   3.587   3.980 -0.1055 -0.7148 -0.4102
 2170SOL    HW2 6857   1.106   3.561   4.002  0.4111  3.1057  1.4897
 2171SOL     OW 6858   3.616   4.098   1.967  0.4503  0.2353  0.2366
 2171SOL    HW1 6859   3.530   4.083   1.928  0.9444 -1.5026 -0.2978
 2171SOL    HW2 6860   3.672   4.031   1.926  2.3106  1.9785 -0.2353
 2172SOL     OW 6861   3.149   0.311   3.974 -0.2521 -0.2215 -0.0196
 2172SOL    HW1 6862   3.091   0.359   4.032 -1.6722 -1.3331 -0.4496
 2172SOL    HW2 6863   3.233   0.356   3.981 -0.8581  0.7550  1.4890
 2173SOL     OW 6864   4.322   0.469   4.202  0.1310 -0.4618 -0.1267
 2173SOL    HW1 6865   4.318   0.541   4.265 -0.1380 -0.8291  0.2837
 2173SOL    HW2 6866   4.410   0.474   4.165 -0.0443  0.3591 -0.4483
 2174SOL     OW 6867   3.962   0.732   1.576 -0.3652 -0.1494  0.6352
 2174SOL    HW1 6868   3.883   0.688   1.546  0.9870 -2.5407  0.3410
 2174SOL    HW2 6869   4.026   0.715   1.507  0.7923  0.5575  1.5028
 2175SOL     OW 6870   1.062   4.100   2.484 -0.4253 -0.5232 -0.5148
 2175SOL    HW1 6871   1.048   4.027   2.423  1.2768 -2.0159  0.7413
 2175SOL    HW2 6872   0.982   4.152   2.478 -0.9644 -1.4557 -2.8190
 2176SOL     OW 6873   0.424   3.306   4.284 -0.6969  0.2821 -0.1664
 2176SOL    HW1 6874   0.396   3.248   4.355 -0.4238  0.8444  0.4146
 2176SOL    HW2 6875   0.508   3.340   4.314  0.0643 -0.4880 -1.3656
 2177SOL     OW 6876   1.040   3.855   1.775 -0.3052  0.1813  0.2986
 2177SOL    HW1 6877   1.005   3.826   1.691 -0.4082  1.0763  0.0269
 2177SOL    HW2 6878   1.092   3.781   1.805  0.3814  0.1386 -0.9271
 2178SOL     OW 6879   3.430   2.843   3.064  0.0637  0.0971 -0.3127
 2178SOL    HW1 6880   3.350   2.823   3.015 -0.1878  0.5759 -0.0973
 2178SOL    HW2 6881   3.418   2.932   3.096  0.4063 -0.0541  0.2670
 2179SOL     OW 6882   1.786   1.465   3.430 -0.4734  0.1097  0.3242
 2179SOL    HW1 6883   1.852   1.420   3.483  0.0235 -0.7779 -0.9761
 2179SOL    HW2 6884   1.736   1.394   3.389 -2.5659  0.7462  1.6069
 2180SOL     OW 6885   2.794   3.505   0.406 -0.2174 -0.5434 -0.9583
 2180SOL    HW1 6886   2.706   3.536   0.424 -0.4178 -1.3649 -0.4881
 2180SOL    HW2 6887   2.810   3.530   0.315  0.0182  1.7961 -0.3219
 2181SOL     OW 6888   2.015   3.262   3.279 -0.1069  0.6572 -0.2093
 2181SOL    HW1 6889   2.052   3.326   3.340 -0.2052 -0.7405  1.3832
 2181SOL    HW2 6890   2.051   3.287   3.194  1.9178  1.2725  0.7555
 2182SOL     OW 6891   1.371   2.984   3.227  0.0801  0.1666 -0.5982
 2182SOL    HW1 6892   1.431   3.039   3.276 -0.5144  1.5325 -1.3543
 2182SOL    HW2 6893   1.403   2.987   3.137  1.2217 -2.3922 -0.3882
 2183SOL     OW 6894   1.643   0.039   0.884  0.3000 -0.3853  0.0898
 2183SOL    HW1 6895   1.725   0.087   0.872  0.8728 -1.2559  0.4363
 2183SOL    HW2 6896   1.665  -0.032   0.944 -1.3956  1.1446  2.7194
 2184SOL     OW 6897   3.879   2.612   0.309 -0.4851 -0.0161 -0.5363
 2184SOL    HW1 6898   3.836   2.695   0.287  0.8601  1.3113  1.4830
 2184SOL    HW2 6899   3.815   2.563   0.360 -0.1127  1.4561  1.4745
 2185SOL     OW 6900   1.983   4.299   0.985  0.0542  0.4119 -0.3411
 2185SOL    HW1 6901   2.058   4.313   1.043  0.2330  0.1443 -0.5077
 2185SOL    HW2 6902   2.016   4.319   0.898 -0.4695  1.7515 -0.2573
 2186SOL     OW 6903   0.373   2.567   1.311  0.1224 -0.2503  0.2825
 2186SOL    HW1 6904   0.384   2.588   1.404  0.6369  1.0496 -0.0586
 2186SOL    HW2 6905   0.420   2.484   1.299  0.7096 -0.0265  1.0109
 2187SOL     OW 6906   0.896   1.440   4.330  0.2165  0.5502  0.0513
 2187SOL    HW1 6907   0.965   1.423   4.394 -0.9719  0.2705  1.3182
 2187SOL    HW2 6908   0.935   1.417   4.246  0.7567 -2.4996  1.0036
 2188SOL     OW 6909   4.155   1.475   1.999 -0.2736 -0.1257 -0.1683
 2188SOL    HW1 6910   4.226   1.442   2.054  0.6961 -1.9532 -2.3359
 2188SOL    HW2 6911   4.181   1.564   1.976 -1.2220  1.1239  2.9999
 2189SOL     OW 6912   3.075   3.457   1.434 -0.0777 -0.0547 -0.3305
 2189SOL    HW1 6913   3.086   3.363   1.453 -0.8254 -0.7210 -2.8721
 2189SOL    HW2 6914   3.130   3.473   1.357 -0.0002  1.6077  0.0344
 2190SOL     OW 6915   0.491   0.459   3.120  0.3131 -0.3932 -0.1477
 2190SOL    HW1 6916   0.554   0.521   3.082 -0.7751  0.1399 -1.1322
 2190SOL    HW2 6917   0.481   0.488   3.211  2.0396 -0.9557  0.2683
 2191SOL     OW 6918   3.169   1.027   0.842  0.2994  0.4290 -0.6147
 2191SOL    HW1 6919   3.161   0.973   0.921 -0.1389 -0.1631 -1.0630
 2191SOL    HW2 6920   3.089   1.010   0.793 -0.0530  1.8159 -0.5612
 2192SOL     OW 6921   3.054   2.920   1.753 -0.0421 -0.0799 -0.2869
 2192SOL    HW1 6922   3.054   3.013   1.732  0.3974  0.2887  1.1974
 2192SOL    HW2 6923   3.138   2.888   1.721  0.5410  0.4308  0.6697
 2193SOL     OW 6924   1.844   4.083   0.273 -0.6866  0.5277 -0.1673
 2193SOL    HW1 6925   1.862   4.129   0.191 -0.7309 -0.2759 -0.6400
 2193SOL    HW2 6926   1.851   4.150   0.340  1.3583  0.8121 -0.5962
 2194SOL     OW 6927   2.348   3.670   1.947  0.0213  0.5955 -0.2462
 2194SOL    HW1 6928   2.402   3.600   1.983  1.7484  1.0830 -1.8042
 2194SOL    HW2 6929   2.288   3.625   1.887  0.9071  0.4123 -1.0006
 2195SOL     OW 6930   1.003   3.675   3.680  0.8025 -0.0539  0.0654
 2195SOL    HW1 6931   1.040   3.665   3.767  0.9946  3.0444  0.4782
 2195SOL    HW2 6932   1.063   3.736   3.636 -0.5635  0.3139 -1.3685
 2196SOL     OW 6933   4.013   3.835   1.520  0.1663  0.3171  0.2134
 2196SOL    HW1 6934   4.016   3.925   1.485 -1.6370 -0.5102 -2.3586
 2196SOL    HW2 6935   3.926   3.827   1.558 -0.4306 -0.8703 -1.3058
 2197SOL     OW 6936   2.706   2.147   1.303 -0.0200 -0.1142  0.1602
 2197SOL    HW1 6937   2.695   2.241   1.296  0.3022  0.0324  1.3674
 2197SOL    HW2 6938   2.770   2.124   1.236 -2.0363  0.0966 -1.9785
 2198SOL     OW 6939   3.250   2.453   3.791 -0.0950  0.1718 -0.4968
 2198SOL    HW1 6940   3.263   2.463   3.886 -0.1117 -1.0888 -0.3513
 2198SOL    HW2 6941   3.257   2.359   3.775  0.9870  0.4580 -1.9216
 2199SOL     OW 6942   3.691   1.482   2.552  0.2433 -0.3392  0.0476
 2199SOL    HW1 6943   3.598   1.462   2.560 -0.5482  2.8963  0.6136
 2199SOL    HW2 6944   3.702   1.513   2.462  0.7214 -0.5282  0.0352
 2200SOL     OW 6945   3.842   1.259   3.864 -0.1471 -0.5226 -0.0618
 2200SOL    HW1 6946   3.887   1.305   3.793 -0.8544  0.5471  0.1562
 2200SOL    HW2 6947   3.751   1.253   3.834 -0.2795 -0.8168  0.3956
 2201SOL     OW 6948   3.510   4.125   0.950  0.4531 -0.1108  0.2055
 2201SOL    HW1 6949   3.441   4.174   0.906 -0.4179 -0.4745  1.1452
 2201SOL    HW2 6950   3.517   4.044   0.899  0.0794 -0.1418  0.2035
 2202SOL     OW 6951   0.758   1.384   1.978 -0.2508  0.1934  0.4107
 2202SOL    HW1 6952   0.678   1.435   1.992 -1.1428 -0.8417 -0.6795
 2202SOL    HW2 6953   0.827   1.438   2.015 -1.4780  1.0079  1.6235
 2203SOL     OW 6954   1.575   1.629   1.643  0.4377  0.0198 -0.2892
 2203SOL    HW1 6955   1.668   1.637   1.665  0.0853 -0.5886  1.5698
 2203SOL    HW2 6956   1.574   1.588   1.556  1.9060  1.7372 -1.1706
 2204SOL     OW 6957   0.173   2.213   2.458  0.0231 -0.5507  0.0088
 2204SOL    HW1 6958   0.262   2.178   2.457  0.4185  0.3845  1.3568
 2204SOL    HW2 6959   0.139   2.190   2.544 -1.1707 -1.1737 -0.6059
 2205SOL     OW 6960   0.726   2.820   1.863 -0.3911 -0.4224  0.2427
 2205SOL    HW1 6961   0.701   2.913   1.865  0.5727 -0.1549  0.3514
 2205SOL    HW2 6962   0.814   2.820   1.826 -0.3003 -1.2798  0.4453
 2206SOL     OW 6963   2.684   3.255   2.471  0.1063 -0.0823  0.2936
 2206SOL    HW1 6964   2.777   3.273   2.456  0.1564 -1.6525 -1.5976
 2206SOL    HW2 6965   2.683   3.190   2.541  0.4956 -0.9010 -0.4570
 2207SOL     OW 6966   2.841   3.557   1.448  0.0044  0.1176 -0.2147
 2207SOL    HW1 6967   2.819   3.543   1.540 -0.7409  1.7562 -0.1158
 2207SOL    HW2 6968   2.925   3.512   1.436  0.4732  0.4909  1.4526
 2208SOL     OW 6969   3.455   4.002   3.977  0.7093  0.6936 -0.1064
 2208SOL    HW1 6970   3.411   4.027   4.058  0.2645 -0.3306 -0.0127
 2208SOL    HW2 6971   3.544   4.036   3.987  0.0273  2.6394 -0.2334
 2209SOL     OW 6972   2.733   0.051   1.946  0.3144 -0.2287  0.0873
 2209SOL    HW1 6973   2.729   0.146   1.936 -1.1899 -0.2949 -0.0811
 2209SOL    HW2 6974   2.748   0.038   2.040 -2.1757  0.1738  0.6011
 2210SOL     OW 6975   0.983   3.051   0.790  0.4340  0.0087  0.5465
 2210SOL    HW1 6976   1.040   2.985   0.830 -0.1984  0.4593  2.3296
 2210SOL    HW2 6977   0.953   3.104   0.864 -1.6833  0.2509 -0.3996
 2211SOL     OW 6978   2.026   3.806   3.925  0.2686  0.1746  0.5667
 2211SOL    HW1 6979   2.117   3.780   3.939 -0.2828 -1.7494  0.7813
 2211SOL    HW2 6980   1.974   3.730   3.951 -1.4449  1.3995  0.9279
 2212SOL     OW 6981   0.214   1.455   1.239 -0.4177  0.2075 -0.2377
 2212SOL    HW1 6982   0.246   1.365   1.235 -0.0701  0.3855 -2.2229
 2212SOL    HW2 6983   0.269   1.497   1.305  2.1329 -0.0479 -2.0691
 2213SOL     OW 6984   3.802   1.686   0.655 -0.0409 -0.5372  0.0641
 2213SOL    HW1 6985   3.748   1.723   0.585 -0.2189 -2.0752 -0.6608
 2213SOL    HW2 6986   3.886   1.730   0.646 -0.4519  0.1923 -0.3019
 2214SOL     OW 6987   0.552   2.372   1.027 -0.4512 -0.3579 -0.5520
 2214SOL    HW1 6988   0.560   2.463   0.997 -1.4897 -0.4945 -1.3096
 2214SOL    HW2 6989   0.480   2.374   1.090  1.0549 -0.2599  1.2442
 2215SOL     OW 6990   0.087   0.276   2.855  0.4856 -0.3959  0.5897
 2215SOL    HW1 6991   0.127   0.201   2.811 -0.1212 -0.4378  0.1016
 2215SOL    HW2 6992   0.138   0.286   2.935  1.4948 -0.4386 -0.0194
 2216SOL     OW 6993   3.242   1.942   3.424 -0.1792  0.1077  0.0199
 2216SOL    HW1 6994   3.300   1.868   3.404 -2.4273 -1.7214 -0.2241
 2216SOL    HW2 6995   3.228   1.936   3.519 -1.3846 -0.6196 -0.1908
 2217SOL     OW 6996   3.085   3.166   3.539 -0.3773 -0.4792  0.0477
 2217SOL    HW1 6997   3.159   3.135   3.487 -0.4063 -2.0340  0.8807
 2217SOL    HW2 6998   3.009   3.126   3.497 -0.5982 -0.1091  0.0924
 2218SOL     OW 6999   1.990   4.046   1.661  0.1877  0.2794  0.3715
 2218SOL    HW1 7000   2.021   4.080   1.745 -0.7580  0.3639  0.6975
 2218SOL    HW2 7001   1.995   4.121   1.601  2.3241 -0.1416 -0.0924
 2219SOL     OW 7002   3.656   0.887   1.778 -0.3002  0.3089  0.0307
 2219SOL    HW1 7003   3.578   0.874   1.723  1.1801 -1.6721 -1.7661
 2219SOL    HW2 7004   3.695   0.968   1.747  0.1798 -0.4728 -1.4973
 2220SOL     OW 7005   1.974   0.321   0.027 -0.4114 -0.8739  0.0177
 2220SOL    HW1 7006   1.928   0.398  -0.007 -0.6768 -1.8814 -2.0414
 2220SOL    HW2 7007   1.989   0.341   0.120 -0.2752  1.7266 -0.4950
 2221SOL     OW 7008   1.259   3.519   4.144  0.0192 -0.7941  0.1957
 2221SOL    HW1 7009   1.347   3.511   4.181  1.5770 -0.0836 -2.9798
 2221SOL    HW2 7010   1.220   3.432   4.153  1.8013 -1.6535  0.0131
 2222SOL     OW 7011   3.102   1.787   1.239  0.5688  0.6552  0.4866
 2222SOL    HW1 7012   3.127   1.797   1.148  0.6250 -2.2788  0.0663
 2222SOL    HW2 7013   3.184   1.767   1.284  0.0978 -2.1580  0.3174
 2223SOL     OW 7014   3.262   3.994   3.753 -0.9415 -0.2844  0.4242
 2223SOL    HW1 7015   3.311   3.996   3.835  0.7021  0.2499 -0.5441
 2223SOL    HW2 7016   3.173   4.021   3.778 -0.7610 -1.1496  2.1870
 2224SOL     OW 7017   2.985   1.668   1.954 -0.6402 -0.4010  0.1839
 2224SOL    HW1 7018   2.900   1.706   1.975 -0.4414 -0.4666  1.1338
 2224SOL    HW2 7019   3.049   1.734   1.983 -0.3515 -0.5382 -0.1250
 2225SOL     OW 7020   0.847   3.408   0.262  0.7514  0.1926 -0.4493
 2225SOL    HW1 7021   0.876   3.323   0.294 -0.7063 -0.4561 -0.7939
 2225SOL    HW2 7022   0.888   3.416   0.175  0.2285 -0.5410 -0.7747
 2226SOL     OW 7023   3.948   4.216   1.919  0.4125 -0.5968  0.0296
 2226SOL    HW1 7024   3.996   4.194   1.839 -0.6238  0.5258 -0.9376
 2226SOL    HW2 7025   3.962   4.310   1.930 -2.5154  0.0999 -1.0469
 2227SOL     OW 7026   3.275   3.376   3.931 -0.0932 -0.1925  0.1612
 2227SOL    HW1 7027   3.315   3.448   3.980 -0.4941  1.0135 -1.1969
 2227SOL    HW2 7028   3.348   3.334   3.886 -0.1201  0.9562 -0.9983
 2228SOL     OW 7029   2.355   0.952   0.830 -0.3332  0.3273 -0.3707
 2228SOL    HW1 7030   2.345   0.860   0.856  0.1020  0.8788  2.0802
 2228SOL    HW2 7031   2.272   0.993   0.855  0.4768  1.0903  1.2012
 2229SOL     OW 7032   1.237   3.971   0.265 -0.0657  0.0673  0.3148
 2229SOL    HW1 7033   1.280   3.904   0.212 -3.1521  0.8906 -3.7165
 2229SOL    HW2 7034   1.155   3.989   0.219 -1.4892  3.4782  3.6446
 2230SOL     OW 7035   2.064   2.271   4.301  0.0115  0.1216 -0.1645
 2230SOL    HW1 7036   2.128   2.231   4.359 -0.1760 -0.7919 -0.5651
 2230SOL    HW2 7037   2.098   2.256   4.213 -0.7630 -0.4260 -0.3868
 2231SOL     OW 7038   1.565   3.068   3.373  0.0641  0.2955  0.4389
 2231SOL    HW1 7039   1.547   3.160   3.354 -0.4722  0.8424  3.1621
 2231SOL    HW2 7040   1.655   3.068   3.405 -0.1530  0.0114  1.0725
 2232SOL     OW 7041   2.848   1.981   1.668  0.0851 -0.0377  0.1252
 2232SOL    HW1 7042   2.869   1.952   1.579 -0.5169  0.9764 -0.3726
 2232SOL    HW2 7043   2.764   2.026   1.659  1.4525  2.8787  0.5814
 2233SOL     OW 7044   2.801   2.157   0.509  0.3107  0.1075 -0.2017
 2233SOL    HW1 7045   2.791   2.069   0.546  0.0414 -0.1736 -0.9147
 2233SOL    HW2 7046   2.782   2.146   0.416  0.9848  0.7934 -0.4295
 2234SOL     OW 7047   0.621   3.712   1.591  0.1776  0.2835  0.4006
 2234SOL    HW1 7048   0.594   3.750   1.675 -1.3201 -0.5678  0.3413
 2234SOL    HW2 7049   0.711   3.685   1.604 -0.2303 -0.4249  1.9640
 2235SOL     OW 7050   2.433   3.716   3.719  0.1406  0.4410  0.0266
 2235SOL    HW1 7051   2.419   3.724   3.814 -2.6386  0.2672 -0.2909
 2235SOL    HW2 7052   2.512   3.662   3.711  0.3362  0.2880  2.2257
 2236SOL     OW 7053   1.188   2.482   2.347 -0.1744 -0.1102 -0.4659
 2236SOL    HW1 7054   1.200   2.443   2.434  2.3439  0.6750 -0.3611
 2236SOL    HW2 7055   1.139   2.562   2.364 -0.2924 -0.3022  0.1439
 2237SOL     OW 7056   0.685   3.927   3.966  0.6149  0.3050 -0.7937
 2237SOL    HW1 7057   0.656   3.955   4.052 -0.1295 -0.6891 -0.7087
 2237SOL    HW2 7058   0.764   3.875   3.983 -0.0208 -0.6203 -0.6190
 2238SOL     OW 7059   3.411   0.750   0.961  0.0303 -0.3725  0.2952
 2238SOL    HW1 7060   3.322   0.737   0.993 -0.1873  0.1624 -0.0896
 2238SOL    HW2 7061   3.463   0.685   1.010 -0.2471  0.5944  1.9497
 2239SOL     OW 7062   3.152   0.337   0.895 -0.2045  0.0888  0.0732
 2239SOL    HW1 7063   3.063   0.371   0.884 -0.5490 -0.8778 -0.2459
 2239SOL    HW2 7064   3.142   0.242   0.891  1.0530 -0.0170 -1.6538
 2240SOL     OW 7065   1.595   3.160   1.032  0.3238 -0.1370  0.1025
 2240SOL    HW1 7066   1.609   3.144   1.125  1.0718  1.0659  0.2242
 2240SOL    HW2 7067   1.503   3.183   1.025 -0.4086 -2.7984  0.1232
 2241SOL     OW 7068   1.599   0.007   1.796 -0.1973  0.1933 -0.3043
 2241SOL    HW1 7069   1.644   0.090   1.813 -0.6112  0.7107 -1.6121
 2241SOL    HW2 7070   1.634  -0.022   1.712 -0.1766 -0.8831  0.0714
 2242SOL     OW 7071   3.680   3.432   1.286  0.0134  0.0021 -0.0099
 2242SOL    HW1 7072   3.678   3.528   1.283 -2.1995  0.0344  0.8794
 2242SOL    HW2 7073   3.619   3.405   1.218 -1.3031 -0.6909  1.4057
 2243SOL     OW 7074   1.257   3.690   0.173  0.1394 -0.4452  0.3947
 2243SOL    HW1 7075   1.170   3.656   0.195 -0.6032 -1.1600 -3.0488
 2243SOL    HW2 7076   1.316   3.616   0.186 -0.2286 -0.7855  0.1594
 2244SOL     OW 7077   1.963   1.351   2.018  0.0219  0.0938 -0.4577
 2244SOL    HW1 7078   2.007   1.363   1.934  0.1766 -1.1822 -0.5687
 2244SOL    HW2 7079   2.017   1.288   2.065  0.1531  1.0772  0.7744
 2245SOL     OW 7080   0.305   3.871   3.249 -0.0303  0.1970 -0.4341
 2245SOL    HW1 7081   0.211   3.875   3.263  0.2817 -0.2785  2.3653
 2245SOL    HW2 7082   0.336   3.959   3.268  0.4047 -0.4588  2.3486
 2246SOL     OW 7083   2.854   2.384   1.924  0.1144 -0.1774  0.7899
 2246SOL    HW1 7084   2.937   2.416   1.958  1.2211 -1.4050 -0.6202
 2246SOL    HW2 7085   2.814   2.337   1.997  1.1682 -0.4762  1.1980
 2247SOL     OW 7086   0.874   0.717   1.979 -0.6755 -0.3325  0.1679
 2247SOL    HW1 7087   0.887   0.634   2.025 -0.7086  0.1756  1.1058
 2247SOL    HW2 7088   0.934   0.778   2.021  2.0677 -0.6959 -2.8890
 2248SOL     OW 7089   1.087   3.300   3.325  0.3025 -0.1438 -0.0688
 2248SOL    HW1 7090   1.072   3.355   3.248 -2.5515 -0.6251  0.0156
 2248SOL    HW2 7091   1.006   3.307   3.376  1.3032 -1.4617  1.8599
 2249SOL     OW 7092   4.157   1.681   0.222  0.1390  0.4184 -0.6996
 2249SOL    HW1 7093   4.172   1.763   0.269  0.6013  0.7391 -1.3876
 2249SOL    HW2 7094   4.141   1.708   0.131 -1.9348 -0.0881 -0.5429
 2250SOL     OW 7095   2.786   0.781   2.061  0.9953 -0.1671 -0.2007
 2250SOL    HW1 7096   2.859   0.765   2.121  1.2379  0.2131 -0.3878
 2250SOL    HW2 7097   2.734   0.849   2.104 -1.0599 -2.6378  1.4805
 2251SOL     OW 7098   4.137   3.376   0.820  0.0470 -0.1299 -0.1750
 2251SOL    HW1 7099   4.164   3.346   0.907  0.3675  0.3678 -0.0978
 2251SOL    HW2 7100   4.139   3.472   0.826  1.1650 -0.0805 -1.0574
 2252SOL     OW 7101   0.921   0.789   3.274  0.1554 -0.0777 -0.3710
 2252SOL    HW1 7102   0.933   0.866   3.330 -0.7094  0.0428 -0.3357
 2252SOL    HW2 7103   0.831   0.796   3.242  0.7860  0.1809 -2.2700
 2253SOL     OW 7104   2.203   3.078   3.068  0.2252 -0.2183  0.0338
 2253SOL    HW1 7105   2.231   3.130   3.143  3.1007 -1.2771 -0.2054
 2253SOL    HW2 7106   2.211   3.138   2.993 -1.0490  0.3379  0.3135
 2254SOL     OW 7107   1.676   1.206   3.383 -0.4028  0.3457 -0.0052
 2254SOL    HW1 7108   1.721   1.123   3.369  0.6968  0.9958 -0.4317
 2254SOL    HW2 7109   1.585   1.187   3.361 -0.5539 -1.2116  1.6899
 2255SOL     OW 7110   1.339   4.030   2.934 -0.0306 -0.0594 -0.6145
 2255SOL    HW1 7111   1.274   4.032   3.004  0.1609 -0.1675 -0.4292
 2255SOL    HW2 7112   1.291   4.052   2.855 -0.3468 -0.3977 -0.5195
 2256SOL     OW 7113   0.431   3.728   0.738 -0.1501  0.0732 -0.0464
 2256SOL    HW1 7114   0.366   3.797   0.728  1.1911  1.5558  0.8925
 2256SOL    HW2 7115   0.387   3.648   0.708 -2.6138  0.8528  1.2764
 2257SOL     OW 7116   1.534   3.991   0.184 -0.0256 -0.1145 -0.5266
 2257SOL    HW1 7117   1.512   4.076   0.222 -1.8731 -1.5904  2.0723
 2257SOL    HW2 7118   1.624   3.974   0.214 -0.1592  0.3323  0.1536
 2258SOL     OW 7119   3.387   1.722   3.360 -0.1036 -0.1324 -0.1742
 2258SOL    HW1 7120   3.431   1.700   3.277 -0.4944 -0.3005 -0.3413
 2258SOL    HW2 7121   3.449   1.694   3.427  0.6524  0.9202 -0.4050
 2259SOL     OW 7122   2.265   3.429   1.093 -0.2502  0.0702 -0.1761
 2259SOL    HW1 7123   2.351   3.425   1.052 -0.0283 -0.7127  0.3368
 2259SOL    HW2 7124   2.209   3.473   1.029  0.4774  0.3692 -0.6078
 2260SOL     OW 7125   3.160   0.109   3.037  0.1035 -0.1657 -0.2578
 2260SOL    HW1 7126   3.105   0.093   3.114 -0.3955  1.6901 -0.1962
 2260SOL    HW2 7127   3.248   0.085   3.066 -0.1504  0.0483  0.7463
 2261SOL     OW 7128   1.539   2.347   4.074 -0.9725  0.0035  0.1453
 2261SOL    HW1 7129   1.612   2.406   4.091  0.8354 -1.1295 -2.8976
 2261SOL    HW2 7130   1.469   2.405   4.042  0.7855  0.6785 -2.8846
 2262SOL     OW 7131   3.902   4.020   0.381  0.1522 -0.0333  0.4681
 2262SOL    HW1 7132   3.951   3.946   0.416  0.6823  0.7283  1.3728
 2262SOL    HW2 7133   3.952   4.097   0.407  0.3956  0.6096 -1.6810
 2263SOL     OW 7134   0.365   0.032   1.963  0.1980 -0.1067  0.3199
 2263SOL    HW1 7135   0.355   0.106   2.023 -2.6620  0.2693 -0.4824
 2263SOL    HW2 7136   0.430   0.062   1.900  0.1911  1.1282  0.8636
 2264SOL     OW 7137   3.164   2.120   2.413  0.3297 -0.4179  0.0047
 2264SOL    HW1 7138   3.216   2.069   2.475  0.5247 -0.4243 -0.1628
 2264SOL    HW2 7139   3.223   2.188   2.381  0.1723 -0.2947 -0.0308
 2265SOL     OW 7140   0.964   4.274   2.072 -0.4388  0.2023  0.1647
 2265SOL    HW1 7141   0.869   4.266   2.073 -0.3479 -1.0443  0.2323
 2265SOL    HW2 7142   0.984   4.334   2.144 -1.0703 -0.8064  1.1981
 2266SOL     OW 7143   1.566   1.341   1.448  0.1729 -0.1061 -0.6094
 2266SOL    HW1 7144   1.656   1.360   1.476  0.2065 -1.8907  0.7110
 2266SOL    HW2 7145   1.575   1.275   1.379 -0.1105 -0.1272 -0.6281
 2267SOL     OW 7146   3.405   3.747   2.539 -0.3079  0.3986  0.9224
 2267SOL    HW1 7147   3.462   3.679   2.575  2.0294  2.1802  0.7872
 2267SOL    HW2 7148   3.351   3.701   2.474  1.3697 -1.2692  0.6383
 2268SOL     OW 7149   2.631   2.280   0.707  0.0555 -0.2893  0.0944
 2268SOL    HW1 7150   2.695   2.250   0.642  0.9357  1.7775 -0.0825
 2268SOL    HW2 7151   2.657   2.237   0.788  1.6803  0.4849  0.0157
 2269SOL     OW 7152   2.586   1.522   3.057  0.1099  0.7125  0.3324
 2269SOL    HW1 7153   2.640   1.557   3.128 -1.4991  1.5316  1.2212
 2269SOL    HW2 7154   2.646   1.516   2.983  1.5794  0.9085  1.4444
 2270SOL     OW 7155   1.574   2.626   2.038  0.8013  0.6286 -0.3550
 2270SOL    HW1 7156   1.650   2.657   1.989  0.2432 -0.0535 -1.6949
 2270SOL    HW2 7157   1.527   2.569   1.977  1.2249 -2.0592  1.6570
 2271SOL     OW 7158   1.974   2.646   3.105  0.1293 -0.7499  0.3546
 2271SOL    HW1 7159   1.994   2.731   3.145  1.0323 -1.0402  0.5272
 2271SOL    HW2 7160   2.055   2.618   3.064 -0.7001 -0.5951 -1.5025
 2272SOL     OW 7161   1.638   4.035   2.186 -0.6087  0.3121  0.0828
 2272SOL    HW1 7162   1.651   4.117   2.139  1.1519  0.1988  0.3284
 2272SOL    HW2 7163   1.620   3.970   2.118  0.9426  0.3372 -0.3688
 2273SOL     OW 7164   4.199   0.129   1.704  0.3181  0.0365  0.6816
 2273SOL    HW1 7165   4.174   0.036   1.706 -1.8300  0.5576  1.2492
 2273SOL    HW2 7166   4.214   0.148   1.612  1.6265 -1.0479  0.6369
 2274SOL     OW 7167   3.142   1.610   3.539  0.3582  0.2689  0.2167
 2274SOL    HW1 7168   3.208   1.676   3.561  1.4745 -1.4217  2.3718
 2274SOL    HW2 7169   3.077   1.617   3.609  0.5907 -0.9892  0.5906
 2275SOL     OW 7170   4.089   0.171   3.717 -0.6638  0.2605  0.4966
 2275SOL    HW1 7171   4.079   0.083   3.752 -1.0216 -0.2956 -0.9241
 2275SOL    HW2 7172   4.011   0.218   3.747 -0.6435  0.0022  0.9653
 2276SOL     OW 7173   3.025   4.234   2.388 -0.2079  0.4748  0.4009
 2276SOL    HW1 7174   3.080   4.192   2.454 -2.7350 -0.6826  1.9279
 2276SOL    HW2 7175   3.014   4.324   2.419 -1.6442 -0.1478  1.8551
 2277SOL     OW 7176   2.475   0.736   1.431 -0.4364  0.3525  0.3969
 2277SOL    HW1 7177   2.504   0.647   1.410 -0.7356  0.1637  0.7796
 2277SOL    HW2 7178   2.470   0.738   1.526  0.2023  0.9837  0.4218
 2278SOL     OW 7179   0.478   0.443   0.793 -0.2387 -0.3551 -0.3007
 2278SOL    HW1 7180   0.423   0.385   0.741 -0.8261 -0.2363  0.1724
 2278SOL    HW2 7181   0.472   0.408   0.882  1.7254 -1.2987 -0.4695
 2279SOL     OW 7182   0.612   0.787   3.247  0.3768 -0.5614  0.0385
 2279SOL    HW1 7183   0.592   0.757   3.336  0.4031  0.5034  0.4159
 2279SOL    HW2 7184   0.534   0.834   3.219 -0.2657 -2.2144 -1.1440
 2280SOL     OW 7185   2.752   1.451   0.244  0.1788 -0.3855 -0.0696
 2280SOL    HW1 7186   2.818   1.403   0.293  1.0892  0.1835 -0.6927
 2280SOL    HW2 7187   2.777   1.543   0.254 -1.8133  0.0530  1.5245
 2281SOL     OW 7188   3.675   0.488   2.699  0.1141  0.0882 -0.0112
 2281SOL    HW1 7189   3.725   0.549   2.753  0.8960 -0.0265 -0.5812
 2281SOL    HW2 7190   3.713   0.402   2.718 -0.7886 -0.1848  0.5718
 2282SOL     OW 7191   4.225   4.322   3.409 -0.2798  0.5032  0.2665
 2282SOL    HW1 7192   4.269   4.366   3.482  1.3330  1.0122 -0.9626
 2282SOL    HW2 7193   4.203   4.236   3.444 -0.3033  1.0332  1.6185
 2283SOL     OW 7194   3.507   0.915   2.401  0.2527 -0.0874 -0.2584
 2283SOL    HW1 7195   3.567   0.915   2.475 -0.2751 -0.2041  0.1763
 2283SOL    HW2 7196   3.437   0.976   2.426  0.3870  0.3466 -0.9202
 2284SOL     OW 7197   0.896   0.143   0.020  0.2944 -0.3567  0.1248
 2284SOL    HW1 7198   0.941   0.059   0.005 -0.8551 -0.7665 -1.2697
 2284SOL    HW2 7199   0.874   0.174  -0.068  0.6297  1.4067  0.6136
 2285SOL     OW 7200   3.399   2.041   4.037 -0.2886 -0.0478  0.1538
 2285SOL    HW1 7201   3.353   2.029   4.120 -0.7581  0.5488 -0.0109
 2285SOL    HW2 7202   3.484   2.077   4.063 -0.8840  1.3229  0.3375
 2286SOL     OW 7203   2.538   2.106   2.416 -0.1197  0.0725 -0.1517
 2286SOL    HW1 7204   2.468   2.041   2.422 -0.0832 -0.0436 -0.9195
 2286SOL    HW2 7205   2.507   2.179   2.469 -0.7882 -0.0067 -0.4262
 2287SOL     OW 7206   0.775   1.663   4.242 -0.3840  0.0025 -0.1883
 2287SOL    HW1 7207   0.834   1.680   4.169  0.2147  1.4148  0.5605
 2287SOL    HW2 7208   0.811   1.585   4.285  0.4614  0.3505 -0.2386
 2288SOL     OW 7209   3.397   4.339   3.147 -0.1293  0.2731 -0.4414
 2288SOL    HW1 7210   3.409   4.247   3.169  0.1057  0.4743  0.2834
 2288SOL    HW2 7211   3.471   4.360   3.091 -0.0796  0.0744 -0.4517
 2289SOL     OW 7212   3.451   3.558   0.760 -0.2847  0.3274 -0.5219
 2289SOL    HW1 7213   3.453   3.590   0.850 -1.8535 -1.9150  0.3885
 2289SOL    HW2 7214   3.543   3.559   0.732  0.2045  1.2269  1.0219
 2290SOL     OW 7215   3.997   2.292   2.602  0.1605 -0.0931 -0.1976
 2290SOL    HW1 7216   4.077   2.343   2.592 -0.1631  0.5895  0.5673
 2290SOL    HW2 7217   3.976   2.262   2.514  0.8666  0.3255 -0.5137
 2291SOL     OW 7218   3.015   0.577   1.527  0.2527 -0.7823  0.0109
 2291SOL    HW1 7219   3.055   0.602   1.610 -0.8730 -1.2776  0.7336
 2291SOL    HW2 7220   3.064   0.500   1.499  0.1913 -1.0320  0.5764
 2292SOL     OW 7221   0.100   2.355   2.063 -0.3231  0.4238  0.1812
 2292SOL    HW1 7222   0.067   2.273   2.099 -0.4017 -0.2328 -1.3401
 2292SOL    HW2 7223   0.038   2.379   1.994  0.3505  1.1254 -0.2030
 2293SOL     OW 7224   2.082   2.995   3.577  0.1193 -0.8003 -0.1078
 2293SOL    HW1 7225   2.106   3.082   3.611 -0.0343 -0.0179 -1.8793
 2293SOL    HW2 7226   2.118   2.934   3.641  2.2872  0.4942  0.0309
 2294SOL     OW 7227   1.123   2.885   2.116  0.2592 -0.4468  0.1765
 2294SOL    HW1 7228   1.068   2.941   2.061 -0.2935 -1.9582 -0.8983
 2294SOL    HW2 7229   1.061   2.841   2.174  0.8014  0.8220  1.7711
 2295SOL     OW 7230   1.088   2.473   2.104  0.7119  0.0651  0.2710
 2295SOL    HW1 7231   1.164   2.491   2.050  0.9498  0.1166  0.6214
 2295SOL    HW2 7232   1.117   2.488   2.193  0.5409 -0.7497  0.4805
 2296SOL     OW 7233   0.685   0.639   0.737  0.2645  0.0247  0.0450
 2296SOL    HW1 7234   0.753   0.619   0.802  1.2452 -0.1284 -0.9885
 2296SOL    HW2 7235   0.610   0.586   0.764  1.1749 -1.2590  0.1922
 2297SOL     OW 7236   2.295   3.394   0.108 -0.2910  0.3865 -0.2558
 2297SOL    HW1 7237   2.262   3.304   0.111 -4.2838  1.6740  0.2918
 2297SOL    HW2 7238   2.349   3.403   0.186 -1.5077 -0.9945  0.7918
 2298SOL     OW 7239   2.228   1.947   1.491  0.7799 -0.3617  0.5367
 2298SOL    HW1 7240   2.285   1.988   1.426  1.2070  0.7528  1.5778
 2298SOL    HW2 7241   2.140   1.978   1.468  1.0684  1.0008  1.1671
 2299SOL     OW 7242   2.469   0.569   2.296 -0.5077  0.4621  0.0707
 2299SOL    HW1 7243   2.465   0.548   2.389 -3.8308  1.7910  0.3834
 2299SOL    HW2 7244   2.473   0.665   2.292  2.1280  0.3947 -1.2483
 2300SOL     OW 7245   1.477   0.237   0.980  0.2000 -0.0063 -0.3558
 2300SOL    HW1 7246   1.521   0.162   0.940  2.2038  0.6528  0.5059
 2300SOL    HW2 7247   1.538   0.310   0.968 -0.1496  0.7239  1.8136
 2301SOL     OW 7248   3.659   3.325   0.977 -0.3324 -0.3557  0.0754
 2301SOL    HW1 7249   3.710   3.404   0.994  1.1702 -0.9767 -1.3668
 2301SOL    HW2 7250   3.671   3.308   0.883 -1.3626 -1.8030  0.1714
 2302SOL     OW 7251   1.695   0.134   0.016  0.3037 -0.1722  0.0877
 2302SOL    HW1 7252   1.750   0.177  -0.050 -0.4209 -1.0668 -1.1603
 2302SOL    HW2 7253   1.608   0.172   0.003  0.3064  0.1813  1.0525
 2303SOL     OW 7254   2.757   0.482   1.621  0.8916  0.7542 -0.8077
 2303SOL    HW1 7255   2.721   0.523   1.700 -1.4596  0.6389 -1.7259
 2303SOL    HW2 7256   2.817   0.548   1.585  0.4120  1.6508 -0.0191
 2304SOL     OW 7257   3.666   2.279   3.247  0.0866  0.7606  0.1687
 2304SOL    HW1 7258   3.586   2.250   3.291  0.2642  0.2801  0.1796
 2304SOL    HW2 7259   3.733   2.276   3.315  0.1445  1.0265  0.1239
 2305SOL     OW 7260   3.860   1.715   0.288 -0.0857 -0.2088  0.1833
 2305SOL    HW1 7261   3.901   1.631   0.307 -0.9194 -0.4553  0.9341
 2305SOL    HW2 7262   3.808   1.736   0.365  0.4575  1.2290  0.2002
 2306SOL     OW 7263   2.550   2.650   1.138  0.1355 -0.0508  0.8008
 2306SOL    HW1 7264   2.559   2.567   1.093 -0.5775  1.1065 -1.6310
 2306SOL    HW2 7265   2.634   2.664   1.181  1.1089 -0.9058 -0.7528
 2307SOL     OW 7266   2.035   0.222   2.424 -0.2329 -0.3011  0.5634
 2307SOL    HW1 7267   1.949   0.238   2.463 -0.2040 -0.4544  0.6918
 2307SOL    HW2 7268   2.071   0.309   2.411  0.1247 -0.2576  1.7129
 2308SOL     OW 7269   1.652   3.188   3.053  0.4877  0.1706  0.4578
 2308SOL    HW1 7270   1.638   3.239   3.133 -0.2694  0.4284  0.1645
 2308SOL    HW2 7271   1.573   3.201   3.002  1.4258  0.9393 -0.8620
 2309SOL     OW 7272   3.207   4.332   3.558  0.0846  0.0440  0.0558
 2309SOL    HW1 7273   3.288   4.354   3.512 -0.6515 -1.1987 -2.0168
 2309SOL    HW2 7274   3.159   4.276   3.496 -1.7434 -0.3981  1.7537
 2310SOL     OW 7275   0.643   4.037   2.224  0.0477  0.0916 -0.2936
 2310SOL    HW1 7276   0.619   4.124   2.255  0.2141 -0.2051  0.6927
 2310SOL    HW2 7277   0.738   4.039   2.217  0.1811 -0.3971  1.0093
 2311SOL     OW 7278   0.756   0.890   0.436 -0.1005  0.0548 -0.0872
 2311SOL    HW1 7279   0.679   0.833   0.427 -0.2428  0.3042 -0.4807
 2311SOL    HW2 7280   0.724   0.969   0.479 -0.4217  0.8388 -1.7066
 2312SOL     OW 7281   3.436   3.239   1.098  0.7869 -0.4268 -0.1561
 2312SOL    HW1 7282   3.413   3.329   1.122  1.6899 -0.7486  2.1994
 2312SOL    HW2 7283   3.506   3.249   1.034 -1.0757  0.5033 -2.1882
 2313SOL     OW 7284   4.066   0.455   4.064  0.5582 -0.2052 -0.6365
 2313SOL    HW1 7285   3.994   0.448   4.127  1.3412  1.2996  0.4881
 2313SOL    HW2 7286   4.144   0.464   4.118  1.3727  0.1429 -1.8339
 2314SOL     OW 7287   2.554   1.721   2.206  0.3026  0.3225 -0.7961
 2314SOL    HW1 7288   2.598   1.777   2.270 -3.1679  0.0944  2.0843
 2314SOL    HW2 7289   2.601   1.638   2.211 -1.4108 -0.6914  3.9192
 2315SOL     OW 7290   3.904   1.399   2.176 -0.8452  0.7238 -0.1349
 2315SOL    HW1 7291   3.983   1.401   2.122 -1.1304 -0.3129 -0.6351
 2315SOL    HW2 7292   3.911   1.317   2.225 -1.0669  1.1818  0.6695
 2316SOL     OW 7293   1.560   3.622   0.481  0.3771  0.2196  0.2005
 2316SOL    HW1 7294   1.512   3.705   0.494  1.7746  0.7935  1.9909
 2316SOL    HW2 7295   1.627   3.644   0.416 -0.9877 -0.3053 -1.4778
 2317SOL     OW 7296   2.368   2.537   3.702  0.3528 -0.0941  0.2603
 2317SOL    HW1 7297   2.350   2.515   3.793 -0.5963  0.8009  0.3016
 2317SOL    HW2 7298   2.396   2.628   3.704 -0.8310  0.3104 -0.4528
 2318SOL     OW 7299   4.158   4.278   0.156 -0.5758 -0.3922 -0.4991
 2318SOL    HW1 7300   4.064   4.274   0.176 -0.2664 -0.5310  1.0992
 2318SOL    HW2 7301   4.175   4.198   0.105 -1.3515 -0.2735 -0.9561
 2319SOL     OW 7302   0.980   3.663   1.181  0.1533 -0.5021 -0.0682
 2319SOL    HW1 7303   0.974   3.657   1.085  0.4130 -0.4132 -0.0906
 2319SOL    HW2 7304   0.929   3.740   1.203  1.1553  0.2348 -0.2545
 2320SOL     OW 7305   3.274   1.662   4.139  0.4029  0.4975  0.0895
 2320SOL    HW1 7306   3.352   1.606   4.137 -0.9893 -1.5347  0.1222
 2320SOL    HW2 7307   3.226   1.633   4.216 -1.2487  0.4465 -0.9172
 2321SOL     OW 7308   2.984   3.334   3.222  0.2655 -0.0730  0.8264
 2321SOL    HW1 7309   2.969   3.409   3.280 -0.4967 -0.7480  1.5296
 2321SOL    HW2 7310   2.911   3.335   3.161  0.3203 -0.1734  0.7588
 2322SOL     OW 7311   0.988   1.970   2.275  0.0237  0.3475 -0.0352
 2322SOL    HW1 7312   0.911   1.938   2.228  0.9231 -0.4761 -1.0213
 2322SOL    HW2 7313   1.020   2.042   2.221  0.9753 -0.5017 -0.6525
 2323SOL     OW 7314   0.263   0.307   3.092 -0.2981 -0.0302 -0.1442
 2323SOL    HW1 7315   0.317   0.385   3.098 -0.1870  0.1762 -2.6439
 2323SOL    HW2 7316   0.318   0.237   3.127  0.7384  0.5492 -0.5709
 2324SOL     OW 7317   0.625   1.580   0.696 -0.5382  0.0827  0.5488
 2324SOL    HW1 7318   0.605   1.592   0.603  0.6729 -0.2589  0.2356
 2324SOL    HW2 7319   0.661   1.664   0.724 -3.6824  1.2512  1.5124
 2325SOL     OW 7320   3.107   3.762   1.199  0.1252 -0.0673  0.4682
 2325SOL    HW1 7321   3.017   3.752   1.167  0.6975  0.0702 -1.3083
 2325SOL    HW2 7322   3.134   3.673   1.220 -0.9618  0.0643  2.7144
 2326SOL     OW 7323   1.381   4.058   2.048 -0.3266 -0.1025 -0.5243
 2326SOL    HW1 7324   1.384   3.964   2.033 -0.8279  0.1048 -2.0789
 2326SOL    HW2 7325   1.421   4.096   1.970  0.1777  0.9677  0.2372
 2327SOL     OW 7326   1.349   0.198   1.771 -0.2023  0.0846 -0.1404
 2327SOL    HW1 7327   1.327   0.136   1.840  0.3017  0.5204  0.4290
 2327SOL    HW2 7328   1.340   0.149   1.690  1.1307 -1.0155  0.3484
 2328SOL     OW 7329   3.266   1.103   1.198 -0.0598 -0.1676 -0.1267
 2328SOL    HW1 7330   3.189   1.072   1.151  0.9207 -0.5963 -1.5413
 2328SOL    HW2 7331   3.233   1.167   1.260 -1.3954  0.7554 -1.7244
 2329SOL     OW 7332   0.614   0.427   3.897  0.0602  0.0391 -0.1403
 2329SOL    HW1 7333   0.568   0.499   3.854  0.4220 -0.5508 -1.5575
 2329SOL    HW2 7334   0.561   0.350   3.877  1.9185 -0.7714 -2.4025
 2330SOL     OW 7335   0.497   2.575   3.749 -0.0234 -0.2685  0.6709
 2330SOL    HW1 7336   0.564   2.642   3.754  0.8671 -0.9629 -0.9986
 2330SOL    HW2 7337   0.540   2.500   3.707 -1.8029 -0.7242 -0.5014
 2331SOL     OW 7338   1.224   0.974   3.585  0.2244 -0.4708  0.0808
 2331SOL    HW1 7339   1.194   0.972   3.676 -0.0397 -1.1434 -0.0124
 2331SOL    HW2 7340   1.314   1.005   3.591 -0.4116  1.4638  0.3748
 2332SOL     OW 7341   2.562   2.302   3.620  0.3974  0.1667  0.2094
 2332SOL    HW1 7342   2.607   2.379   3.585  2.0335 -1.3233 -1.1551
 2332SOL    HW2 7343   2.475   2.306   3.582  0.6657  1.0114 -0.3613
 2333SOL     OW 7344   1.838   2.634   2.733 -0.0270 -0.0268  0.2796
 2333SOL    HW1 7345   1.931   2.617   2.718  0.4740  1.7123  1.0937
 2333SOL    HW2 7346   1.792   2.580   2.669  1.5144 -1.3134  0.2091
 2334SOL     OW 7347   0.087   1.334   0.118  0.2817  0.8565  0.3986
 2334SOL    HW1 7348   0.096   1.256   0.064  1.0446 -0.0701  1.8120
 2334SOL    HW2 7349   0.034   1.394   0.065 -0.0273 -0.4716 -0.8491
 2335SOL     OW 7350   3.718   3.952   3.376  0.1443  0.6982  0.1301
 2335SOL    HW1 7351   3.666   4.028   3.348  0.7401  0.8750 -0.5180
 2335SOL    HW2 7352   3.783   3.941   3.307  0.7169  0.2294  0.7369
 2336SOL     OW 7353   0.952   3.268   0.976  0.3952 -0.0102  0.2769
 2336SOL    HW1 7354   0.942   3.343   0.917 -1.6870 -0.4837 -0.0429
 2336SOL    HW2 7355   1.046   3.252   0.977  0.6415  0.8692 -1.8367
 2337SOL     OW 7356   2.982   1.853   0.471 -0.3151 -0.0755 -0.5399
 2337SOL    HW1 7357   2.996   1.758   0.464 -0.5099 -0.1538  0.0677
 2337SOL    HW2 7358   2.902   1.861   0.523  1.2534  0.4576  1.9715
 2338SOL     OW 7359   0.296   4.311   4.087  0.0517  0.2528 -0.0051
 2338SOL    HW1 7360   0.223   4.256   4.062 -0.0036 -0.2815  1.2657
 2338SOL    HW2 7361   0.306   4.298   4.181  1.4813  0.6689 -0.0628
 2339SOL     OW 7362   0.051   2.906   2.960 -0.4331 -0.7047 -0.1037
 2339SOL    HW1 7363   0.105   2.850   2.905 -0.0620  0.2522 -0.7337
 2339SOL    HW2 7364   0.040   2.856   3.041 -1.2544 -2.2597 -1.1437
 2340SOL     OW 7365   0.782   0.571   3.360 -0.1580  0.0304 -0.3818
 2340SOL    HW1 7366   0.837   0.633   3.313  0.6177  0.5076  1.0845
 2340SOL    HW2 7367   0.708   0.624   3.391 -0.6804 -0.2872 -1.0608
 2341SOL     OW 7368   4.257   2.476   3.195  0.1290 -0.1654 -0.3657
 2341SOL    HW1 7369   4.283   2.428   3.116 -0.1100  0.0914 -0.6045
 2341SOL    HW2 7370   4.213   2.411   3.250 -1.5476  0.0797 -1.3334
 2342SOL     OW 7371   4.238   3.731   0.048 -0.5149  0.6312  0.0300
 2342SOL    HW1 7372   4.264   3.823   0.053 -1.2437  0.9385 -1.2526
 2342SOL    HW2 7373   4.240   3.711  -0.046 -0.6024 -0.5953  0.2765
 2343SOL     OW 7374   3.959   1.409   3.685  0.2578  0.3062 -0.0371
 2343SOL    HW1 7375   4.027   1.450   3.632  0.5726 -0.0127  0.1113
 2343SOL    HW2 7376   3.939   1.327   3.638  1.6940 -0.7882  1.1423
 2344SOL     OW 7377   0.828   3.613   3.343  0.6576  0.1898 -0.3480
 2344SOL    HW1 7378   0.825   3.619   3.247  0.0874  2.7423 -0.2314
 2344SOL    HW2 7379   0.861   3.698   3.372 -0.9175  0.1608  1.7860
 2345SOL     OW 7380   1.634   2.561   3.442 -0.3867  0.1698 -0.5541
 2345SOL    HW1 7381   1.592   2.574   3.357 -0.0737  2.7416 -0.3743
 2345SOL    HW2 7382   1.720   2.526   3.421  0.0672  1.7125 -1.4007
 2346SOL     OW 7383   3.415   4.066   2.947 -0.9204  0.1452 -0.1881
 2346SOL    HW1 7384   3.474   3.999   2.981 -1.4309  0.8223  2.2165
 2346SOL    HW2 7385   3.346   4.016   2.904  0.2681 -0.7296 -1.1507
 2347SOL     OW 7386   1.538   0.657   2.452 -0.1357 -0.1442 -0.0110
 2347SOL    HW1 7387   1.625   0.696   2.449 -1.1350  2.1894 -1.9893
 2347SOL    HW2 7388   1.508   0.671   2.542  0.6037  1.2649  0.0443
 2348SOL     OW 7389   3.689   3.640   0.998 -0.0911  0.6990 -0.5940
 2348SOL    HW1 7390   3.717   3.657   1.088  0.0583  0.1066 -0.5234
 2348SOL    HW2 7391   3.594   3.651   1.000 -0.1566  0.1063 -0.2235
 2349SOL     OW 7392   4.064   4.252   2.470  0.2761  0.4677  0.2271
 2349SOL    HW1 7393   3.997   4.184   2.479  1.1140 -0.4716 -0.3961
 2349SOL    HW2 7394   4.102   4.259   2.558  0.8733 -0.6336  0.0788
 2350SOL     OW 7395   1.403   1.726   1.825  0.8285 -0.0893  0.5570
 2350SOL    HW1 7396   1.469   1.692   1.764  0.5605 -0.8946  0.7063
 2350SOL    HW2 7397   1.320   1.704   1.784  0.5194  3.2412 -0.9951
 2351SOL     OW 7398   3.461   3.824   1.306  0.3072  0.1462  0.5548
 2351SOL    HW1 7399   3.547   3.784   1.317  0.4796  0.6791  1.2306
 2351SOL    HW2 7400   3.435   3.800   1.217  0.1890 -1.8308  1.0789
 2352SOL     OW 7401   1.893   3.789   2.798 -0.0307  0.4981  0.0171
 2352SOL    HW1 7402   1.865   3.767   2.887 -2.5045 -1.2311 -1.0543
 2352SOL    HW2 7403   1.912   3.704   2.757 -2.4869  0.8097 -2.0724
 2353SOL     OW 7404   0.811   0.034   0.581 -0.7458  0.3129 -0.6141
 2353SOL    HW1 7405   0.845   0.115   0.543 -0.2298  0.1663 -0.4762
 2353SOL    HW2 7406   0.866   0.019   0.658 -1.5157  0.3913 -0.0358
 2354SOL     OW 7407   1.271   1.331   1.829  0.3269 -0.4016  0.2639
 2354SOL    HW1 7408   1.260   1.259   1.890 -1.0448 -1.3157 -0.9813
 2354SOL    HW2 7409   1.244   1.409   1.878 -0.6986 -1.1108  0.8559
 2355SOL     OW 7410   1.090   4.031   2.082  0.3888 -0.1222  0.7136
 2355SOL    HW1 7411   1.061   4.119   2.056 -0.3381 -0.0440  1.7326
 2355SOL    HW2 7412   1.185   4.035   2.082  0.3635  1.0852  2.0815
 2356SOL     OW 7413   2.125   3.038   1.165  0.1909 -0.4121  0.4004
 2356SOL    HW1 7414   2.142   3.025   1.072  0.7222  0.3811  0.3764
 2356SOL    HW2 7415   2.208   3.017   1.208 -0.0645 -0.8175  0.7011
 2357SOL     OW 7416   0.994   1.180   2.120 -0.3824  0.1790 -0.5291
 2357SOL    HW1 7417   0.904   1.212   2.109  0.1913  1.8039 -0.7122
 2357SOL    HW2 7418   1.009   1.182   2.215 -1.4494 -2.8705 -0.1653
 2358SOL     OW 7419   1.194   2.290   3.457  0.2195  0.4804  0.3223
 2358SOL    HW1 7420   1.246   2.365   3.427 -1.0232  0.5248 -1.9451
 2358SOL    HW2 7421   1.104   2.322   3.461 -0.7396 -1.3487 -2.9859
 2359SOL     OW 7422   0.337   2.848   0.056 -0.3319  0.2478  0.2009
 2359SOL    HW1 7423   0.246   2.827   0.035 -0.0893 -1.0616  0.3983
 2359SOL    HW2 7424   0.388   2.777   0.018  0.5374  0.5329  0.8041
 2360SOL     OW 7425   0.742   1.261   3.775 -0.1079 -0.2420 -0.3814
 2360SOL    HW1 7426   0.671   1.270   3.711 -0.7690  0.1484  0.3999
 2360SOL    HW2 7427   0.818   1.237   3.722 -0.7975 -0.5831 -1.2399
 2361SOL     OW 7428   1.125   3.539   3.157 -0.5202 -0.4808 -0.6110
 2361SOL    HW1 7429   1.205   3.586   3.179 -0.4351 -1.1075  0.4995
 2361SOL    HW2 7430   1.076   3.599   3.101  0.0381  0.5137 -0.0505
 2362SOL     OW 7431   3.076   1.863   3.218  0.4305 -0.2360  0.3812
 2362SOL    HW1 7432   3.141   1.900   3.277 -1.0863 -0.3121  2.1810
 2362SOL    HW2 7433   3.081   1.768   3.233 -0.6257 -0.1820  1.1234
 2363SOL     OW 7434   3.404   1.330   3.159  0.7287 -0.0282 -0.3775
 2363SOL    HW1 7435   3.390   1.238   3.179  0.1114  0.1143 -0.1318
 2363SOL    HW2 7436   3.414   1.332   3.064  1.2600 -0.4101 -0.3306
 2364SOL     OW 7437   1.720   3.292   0.187  0.0416  0.0294 -0.3884
 2364SOL    HW1 7438   1.683   3.371   0.146 -1.2124  0.0613  0.7233
 2364SOL    HW2 7439   1.667   3.220   0.152 -0.9298  0.0414  0.9797
 2365SOL     OW 7440   3.181   1.926   3.677  0.7802 -0.3007  0.1228
 2365SOL    HW1 7441   3.227   1.899   3.756  1.0605  0.5419  0.2563
 2365SOL    HW2 7442   3.093   1.888   3.686  0.7068  0.0504  1.0028
 2366SOL     OW 7443   1.362   3.651   3.234  0.2174 -0.3099 -0.4079
 2366SOL    HW1 7444   1.333   3.643   3.325  0.6140  0.2736 -0.2248
 2366SOL    HW2 7445   1.449   3.690   3.240 -0.0965  0.5303 -1.0727
 2367SOL     OW 7446   2.295   2.646   4.008  0.4566 -0.1382 -0.1327
 2367SOL    HW1 7447   2.342   2.592   4.072  1.0029  1.1828  0.6256
 2367SOL    HW2 7448   2.359   2.710   3.978 -0.6964  1.4310  0.5964
 2368SOL     OW 7449   4.190   3.697   3.470 -0.0318 -0.0569 -0.6300
 2368SOL    HW1 7450   4.202   3.603   3.484 -1.8331 -0.6519 -2.5813
 2368SOL    HW2 7451   4.115   3.719   3.525  1.1707  0.5818  0.8266
 2369SOL     OW 7452   1.409   0.882   2.033 -0.0597  0.0022 -0.2247
 2369SOL    HW1 7453   1.464   0.872   2.111 -1.2137 -1.3096  0.4681
 2369SOL    HW2 7454   1.332   0.929   2.063 -0.1204  0.2844 -0.7959
 2370SOL     OW 7455   3.828   0.729   2.846 -0.0396 -0.2873 -0.7173
 2370SOL    HW1 7456   3.896   0.795   2.834 -0.3423 -0.0323 -1.0259
 2370SOL    HW2 7457   3.867   0.665   2.906  0.2473  0.1741 -0.4145
 2371SOL     OW 7458   3.034   1.595   0.386 -0.1715 -0.4839 -0.1974
 2371SOL    HW1 7459   3.062   1.596   0.294  0.5466  0.4569  0.0085
 2371SOL    HW2 7460   3.057   1.508   0.417  1.5520 -0.1285 -0.3630
 2372SOL     OW 7461   0.668   1.458   1.471  0.1352  0.3341 -0.1506
 2372SOL    HW1 7462   0.744   1.414   1.509 -0.9187  0.1674  1.9170
 2372SOL    HW2 7463   0.612   1.387   1.441  0.0294  0.3940 -0.0944
 2373SOL     OW 7464   1.860   1.375   0.767 -0.2717  0.0502  0.5429
 2373SOL    HW1 7465   1.947   1.349   0.797 -0.6246 -1.0197  0.6950
 2373SOL    HW2 7466   1.804   1.299   0.786 -1.1619  0.5744  0.1101
 2374SOL     OW 7467   0.880   1.362   0.461  0.0288 -0.0305  0.2754
 2374SOL    HW1 7468   0.954   1.315   0.421  1.5566  0.6714  2.1401
 2374SOL    HW2 7469   0.880   1.447   0.418 -0.3843 -0.3871 -0.4571
 2375SOL     OW 7470   2.842   1.649   1.445  0.1219 -0.3627  0.5001
 2375SOL    HW1 7471   2.747   1.661   1.437  0.2060 -0.4599 -0.9697
 2375SOL    HW2 7472   2.853   1.599   1.526 -1.3024 -2.5776 -0.5618
 2376SOL     OW 7473   0.949   2.390   2.620  0.2613  0.1680  0.3764
 2376SOL    HW1 7474   1.008   2.314   2.625 -0.0797 -0.2145 -1.1293
 2376SOL    HW2 7475   0.889   2.369   2.549  0.5596  2.1395 -0.5215
 2377SOL     OW 7476   1.008   0.188   3.076 -0.0987  0.1931 -0.6349
 2377SOL    HW1 7477   1.063   0.216   3.149 -0.8688 -1.4314  0.6323
 2377SOL    HW2 7478   1.069   0.149   3.014  0.3212 -0.7008  0.3074
 2378SOL     OW 7479   0.225   0.973   3.594 -0.0635  0.6075  0.2874
 2378SOL    HW1 7480   0.262   1.016   3.517 -3.0291  0.2912 -1.4618
 2378SOL    HW2 7481   0.174   0.900   3.559 -2.5741  1.2084  2.4039
 2379SOL     OW 7482   1.424   4.313   4.313 -0.2742  0.1807 -0.4374
 2379SOL    HW1 7483   1.451   4.340   4.225  1.2963 -0.7158 -0.2830
 2379SOL    HW2 7484   1.379   4.229   4.299  0.6911 -0.3729 -0.3490
 2380SOL     OW 7485   1.654   0.446   0.973 -0.1971 -0.0460  0.1699
 2380SOL    HW1 7486   1.637   0.508   0.902  1.1080 -0.5228 -0.5979
 2380SOL    HW2 7487   1.633   0.494   1.053 -1.3506  0.6213 -0.5157
 2381SOL     OW 7488   1.880   2.703   1.347 -0.3664  0.0505  0.0148
 2381SOL    HW1 7489   1.956   2.654   1.317  0.1914  1.0002 -0.1581
 2381SOL    HW2 7490   1.823   2.637   1.387 -0.3362 -0.9706 -1.5407
 2382SOL     OW 7491   0.277   3.768   1.911  0.3140 -0.4901  0.6595
 2382SOL    HW1 7492   0.222   3.783   1.988 -0.6943 -0.0239 -0.1285
 2382SOL    HW2 7493   0.364   3.799   1.938 -0.0139 -0.3682  1.6203
 2383SOL     OW 7494   4.007   2.822   3.299  0.5136  0.4154 -0.4649
 2383SOL    HW1 7495   4.085   2.841   3.352 -0.1184 -0.6032  0.8823
 2383SOL    HW2 7496   3.945   2.891   3.322  0.1346 -0.1880  0.3906
 2384SOL     OW 7497   2.827   1.359   0.863  0.1294  0.0403 -0.1120
 2384SOL    HW1 7498   2.875   1.344   0.944  1.3489 -0.9638 -0.9838
 2384SOL    HW2 7499   2.740   1.389   0.891  0.3673 -0.7667  1.5520
 2385SOL     OW 7500   0.213   3.900   0.164  0.5942  0.1019 -0.2022
 2385SOL    HW1 7501   0.126   3.866   0.182  1.2558 -1.5163  0.1329
 2385SOL    HW2 7502   0.266   3.871   0.239  1.7869 -0.4365 -1.2171
 2386SOL     OW 7503   0.114   1.615   1.626 -0.0315  0.2644 -0.2785
 2386SOL    HW1 7504   0.110   1.691   1.569  0.7674  0.6003  0.0911
 2386SOL    HW2 7505   0.029   1.572   1.616 -1.0830  2.0229  0.6358
 2387SOL     OW 7506   0.462   2.370   2.320 -0.0137 -0.0072  0.0455
 2387SOL    HW1 7507   0.519   2.298   2.296 -0.9282 -0.1924 -1.7744
 2387SOL    HW2 7508   0.482   2.388   2.411  3.5814  0.5364 -0.7044
 2388SOL     OW 7509   0.422   1.834   2.570 -0.0212 -0.1372  0.4922
 2388SOL    HW1 7510   0.430   1.744   2.538 -0.0052  0.2887 -0.7353
 2388SOL    HW2 7511   0.330   1.856   2.556 -0.1012 -0.0609  1.0977
 2389SOL     OW 7512   1.004   3.197   2.973  0.2449  0.2508  0.2628
 2389SOL    HW1 7513   0.920   3.175   2.931  0.3752  0.3873 -0.0748
 2389SOL    HW2 7514   1.008   3.140   3.050 -1.3304  2.0017  1.7526
 2390SOL     OW 7515   1.996   2.383   2.404  0.4956  0.7131 -0.0501
 2390SOL    HW1 7516   2.043   2.389   2.321  1.6000 -1.3150  0.3447
 2390SOL    HW2 7517   1.905   2.365   2.380  0.9116 -0.4143 -0.8486
 2391SOL     OW 7518   2.234   4.319   4.252 -0.0274  0.4372  0.1195
 2391SOL    HW1 7519   2.312   4.340   4.201  1.0622 -2.2672  0.4743
 2391SOL    HW2 7520   2.180   4.267   4.192 -0.1560 -0.1781  0.7467
 2392SOL     OW 7521   1.623   1.996   2.547  0.1701 -0.2733 -0.1941
 2392SOL    HW1 7522   1.580   2.081   2.541  0.9796  0.0950 -0.8767
 2392SOL    HW2 7523   1.707   2.007   2.503  0.5367 -1.2706  0.2122
 2393SOL     OW 7524   0.087   4.138   4.357 -0.5989  0.4410 -0.5039
 2393SOL    HW1 7525   0.023   4.089   4.408 -0.6069 -0.3853 -1.2907
 2393SOL    HW2 7526   0.172   4.109   4.391 -0.6125  1.7887  0.7749
 2394SOL     OW 7527   1.516   3.945   4.025  0.5492  0.3048  0.3018
 2394SOL    HW1 7528   1.510   3.959   4.119  0.4215 -1.2283  0.5344
 2394SOL    HW2 7529   1.610   3.935   4.007  0.5770  0.6407  0.2550
 2395SOL     OW 7530   4.275   1.280   1.814 -0.1987  1.4291 -0.2235
 2395SOL    HW1 7531   4.318   1.315   1.892  0.9489  1.0357 -0.6616
 2395SOL    HW2 7532   4.268   1.186   1.831 -1.6942  1.5851  0.2044
 2396SOL     OW 7533   4.269   3.765   1.605  0.0482 -0.0182  0.2611
 2396SOL    HW1 7534   4.178   3.782   1.579 -0.2217  0.0509  1.1977
 2396SOL    HW2 7535   4.268   3.674   1.636  1.1087 -1.3271 -3.0898
 2397SOL     OW 7536   1.331   2.507   3.375 -0.0279  0.1785  0.7826
 2397SOL    HW1 7537   1.401   2.509   3.309 -0.3144 -0.6194  0.4293
 2397SOL    HW2 7538   1.302   2.598   3.382 -0.3148  0.2218 -0.5678
 2398SOL     OW 7539   4.067   3.760   3.245  0.3390 -0.3925  0.5294
 2398SOL    HW1 7540   4.120   3.761   3.325  2.4746 -1.3138 -0.7869
 2398SOL    HW2 7541   3.993   3.703   3.266  1.1483 -1.0597  1.6950
 2399SOL     OW 7542   3.046   3.580   2.444 -0.1912  0.0865  0.5025
 2399SOL    HW1 7543   3.137   3.582   2.417 -0.2662  0.6496  0.2749
 2399SOL    HW2 7544   3.047   3.607   2.536  0.1196 -2.3517  1.2662
 2400SOL     OW 7545   3.071   0.785   2.176  0.5313 -0.1441 -0.3312
 2400SOL    HW1 7546   3.154   0.740   2.188  0.2690 -1.7252 -3.2487
 2400SOL    HW2 7547   3.015   0.752   2.246  1.3382 -1.8850 -0.4551
 2401SOL     OW 7548   3.825   1.230   0.888  0.1679 -0.3238  0.2613
 2401SOL    HW1 7549   3.764   1.209   0.959 -0.1208 -0.6401 -0.0805
 2401SOL    HW2 7550   3.772   1.274   0.822  0.6347  0.9035  0.6778
 2402SOL     OW 7551   1.882   2.990   1.297 -0.1195 -0.5046  0.1052
 2402SOL    HW1 7552   1.888   2.906   1.344  0.9607  0.1190  1.1253
 2402SOL    HW2 7553   1.972   3.015   1.280 -0.3808  0.9493  0.7163
 2403SOL     OW 7554   1.394   4.170   1.787 -0.5933  0.1695 -0.0314
 2403SOL    HW1 7555   1.467   4.231   1.774  0.0651 -1.1392 -3.3858
 2403SOL    HW2 7556   1.316   4.225   1.783  0.0874  1.2551  0.9787
 2404SOL     OW 7557   1.639   3.079   0.539  0.6871  0.0074  0.1928
 2404SOL    HW1 7558   1.663   3.167   0.510  2.1613 -0.8274 -1.3168
 2404SOL    HW2 7559   1.664   3.076   0.631  2.9501  0.4324 -0.3477
 2405SOL     OW 7560   1.240   3.682   1.442  0.6239 -0.6706  0.1142
 2405SOL    HW1 7561   1.289   3.750   1.488  1.8762 -1.3472 -0.1691
 2405SOL    HW2 7562   1.173   3.730   1.393 -0.2906  0.1111  2.0330
 2406SOL     OW 7563   0.231   2.632   2.470  0.3143  0.1106 -0.1126
 2406SOL    HW1 7564   0.322   2.604   2.469 -0.1387 -1.5061  0.6226
 2406SOL    HW2 7565   0.229   2.709   2.412  1.6448 -1.3557 -2.2584
 2407SOL     OW 7566   3.030   0.943   1.132  0.6437 -0.3028 -0.2171
 2407SOL    HW1 7567   3.046   0.915   1.222  1.5452 -1.9036 -0.8424
 2407SOL    HW2 7568   2.938   0.971   1.131  0.3324 -1.2228  0.9526
 2408SOL     OW 7569   1.920   0.005   2.263  0.6406  0.5863 -0.0313
 2408SOL    HW1 7570   1.967   0.072   2.312 -0.5858  1.1806  0.3796
 2408SOL    HW2 7571   1.828   0.032   2.267 -0.0405 -1.6081  0.9796
 2409SOL     OW 7572   0.386   0.356   4.311 -0.1970 -0.2568  0.4040
 2409SOL    HW1 7573   0.303   0.311   4.326 -0.1773 -0.6299 -0.5363
 2409SOL    HW2 7574   0.421   0.372   4.399 -0.6192 -1.3146  0.7803
 2410SOL     OW 7575   2.937   1.163   4.246  0.5703 -0.3135  0.3809
 2410SOL    HW1 7576   2.930   1.109   4.167  1.0510 -1.0823  0.8531
 2410SOL    HW2 7577   2.924   1.252   4.215  2.1472 -0.4599 -0.8197
 2411SOL     OW 7578   2.725   2.728   0.436  0.0973 -0.3920 -0.0625
 2411SOL    HW1 7579   2.785   2.676   0.490  0.3112 -0.6934 -0.5775
 2411SOL    HW2 7580   2.685   2.664   0.378 -1.4709 -0.3506  0.9225
 2412SOL     OW 7581   2.323   1.432   3.125  0.7683 -0.3317 -0.2315
 2412SOL    HW1 7582   2.398   1.490   3.119  0.7511 -0.3276 -0.4180
 2412SOL    HW2 7583   2.345   1.358   3.068  0.9790 -0.7199  0.3496
 2413SOL     OW 7584   0.735   0.957   1.186 -0.6641 -0.4545 -0.2064
 2413SOL    HW1 7585   0.654   0.926   1.143 -1.7324  1.6046  0.2043
 2413SOL    HW2 7586   0.762   0.883   1.240 -1.6940 -1.5701 -1.1358
 2414SOL     OW 7587   0.803   2.970   3.586 -0.2040  0.6213  0.7714
 2414SOL    HW1 7588   0.879   2.976   3.527  0.4528 -0.3588  1.4880
 2414SOL    HW2 7589   0.753   3.050   3.568  0.0986  0.4741 -0.9244
 2415SOL     OW 7590   3.297   3.955   0.222 -0.0233  0.0795  0.3525
 2415SOL    HW1 7591   3.292   3.889   0.292  1.4398 -0.8429 -0.3621
 2415SOL    HW2 7592   3.335   3.908   0.148 -0.2740  1.3878 -0.6403
 2416SOL     OW 7593   2.513   3.428   3.120  0.1024  1.4765 -0.1763
 2416SOL    HW1 7594   2.533   3.422   3.213 -2.1949  1.0440  0.3469
 2416SOL    HW2 7595   2.427   3.469   3.116 -0.6455 -0.0844 -1.9963
 2417SOL     OW 7596   0.625   0.798   1.900  0.7631 -0.5892  0.1898
 2417SOL    HW1 7597   0.591   0.842   1.977 -0.2308 -0.6675 -0.1874
 2417SOL    HW2 7598   0.719   0.789   1.916  1.1057  2.1358  0.0521
 2418SOL     OW 7599   0.186   3.444   3.146 -0.0841 -0.4191  0.5831
 2418SOL    HW1 7600   0.114   3.386   3.171 -1.0377 -0.6427 -2.3194
 2418SOL    HW2 7601   0.191   3.437   3.051  1.9238  1.7960  0.4241
 2419SOL     OW 7602   2.427   1.438   2.063 -0.4064  0.4761  0.8045
 2419SOL    HW1 7603   2.512   1.438   2.106  0.0533 -0.9019 -0.0489
 2419SOL    HW2 7604   2.424   1.520   2.014  0.2695  0.7059  1.1402
 2420SOL     OW 7605   0.128   1.811   0.332 -0.3700 -0.0546  0.5172
 2420SOL    HW1 7606   0.189   1.801   0.259 -1.5614 -0.6479 -0.4355
 2420SOL    HW2 7607   0.093   1.723   0.345 -2.1144  0.5416  0.0570
 2421SOL     OW 7608   0.049   2.453   2.406 -0.0521 -0.1628  0.0401
 2421SOL    HW1 7609   0.106   2.377   2.400 -0.7760 -0.7224  0.1934
 2421SOL    HW2 7610   0.109   2.526   2.424  0.8933 -0.3184 -2.1145
 2422SOL     OW 7611   2.654   3.231   0.498 -0.1494  0.1125  0.2447
 2422SOL    HW1 7612   2.743   3.262   0.479 -0.4184  0.6504 -0.1673
 2422SOL    HW2 7613   2.642   3.249   0.591 -0.0889  0.7323  0.1368
 2423SOL     OW 7614   3.706   4.136   4.032 -0.4052 -0.2769 -0.3817
 2423SOL    HW1 7615   3.689   4.226   4.059  1.9781  0.5526 -1.3331
 2423SOL    HW2 7616   3.779   4.143   3.970 -0.1290 -2.8657 -0.4700
 2424SOL     OW 7617   2.885   2.620   1.588 -0.1777 -0.0160  0.6050
 2424SOL    HW1 7618   2.937   2.686   1.543 -0.5756 -1.3324 -1.9322
 2424SOL    HW2 7619   2.942   2.543   1.593 -1.0654 -0.7332 -0.1028
 2425SOL     OW 7620   1.894   1.039   1.174 -0.2565  0.3688 -0.1644
 2425SOL    HW1 7621   1.902   1.130   1.200 -0.3213 -0.3454  2.7610
 2425SOL    HW2 7622   1.806   1.013   1.201 -0.1261 -0.6521 -0.6481
 2426SOL     OW 7623   3.376   0.441   3.893  0.4353  0.6229 -0.2888
 2426SOL    HW1 7624   3.471   0.430   3.896  0.3465 -0.9334 -1.7768
 2426SOL    HW2 7625   3.358   0.462   3.801 -0.5079  3.0365  0.3691
 2427SOL     OW 7626   3.657   2.081   4.117  0.2763 -0.0351  0.2066
 2427SOL    HW1 7627   3.675   2.000   4.068 -1.3052 -0.7638  0.7539
 2427SOL    HW2 7628   3.735   2.136   4.102  0.3213 -0.6382 -2.2180
 2428SOL     OW 7629   2.514   3.653   0.106 -0.0036 -0.6225  0.1234
 2428SOL    HW1 7630   2.545   3.743   0.115  0.7509 -0.9774  1.1722
 2428SOL    HW2 7631   2.420   3.658   0.122  0.1691 -0.1383  1.0021
 2429SOL     OW 7632   1.905   3.616   3.631  0.5107 -0.1374  0.9065
 2429SOL    HW1 7633   1.866   3.628   3.544  0.0997 -1.3982  0.8913
 2429SOL    HW2 7634   1.830   3.612   3.690  0.7020 -0.8818  1.1025
 2430SOL     OW 7635   0.980   1.339   3.018  0.4985 -0.2147 -0.2997
 2430SOL    HW1 7636   1.068   1.367   3.043  0.7822  0.8546 -2.2651
 2430SOL    HW2 7637   0.984   1.330   2.923 -1.1603 -1.5410 -0.2957
 2431SOL     OW 7638   0.027   2.860   2.408  0.3767  0.0458  0.4649
 2431SOL    HW1 7639  -0.063   2.894   2.407  0.3125 -0.1115  0.7908
 2431SOL    HW2 7640   0.031   2.804   2.485  1.2902  1.5376  1.5590
 2432SOL     OW 7641   0.840   2.352   2.073 -0.6650 -0.3911 -0.2036
 2432SOL    HW1 7642   0.931   2.380   2.085 -0.7986 -0.4333  1.1458
 2432SOL    HW2 7643   0.788   2.420   2.117 -1.3353 -0.1182 -1.3706
 2433SOL     OW 7644   2.585   0.558   0.440  0.1508  0.5382 -0.0448
 2433SOL    HW1 7645   2.573   0.479   0.388  1.3420  0.1443  0.2467
 2433SOL    HW2 7646   2.512   0.614   0.416 -0.0774 -0.1900 -1.1105
 2434SOL     OW 7647   1.591   1.524   0.407 -0.0598 -0.1661 -0.5032
 2434SOL    HW1 7648   1.528   1.454   0.391  0.9161 -0.7321 -1.9927
 2434SOL    HW2 7649   1.537   1.600   0.431 -1.2075 -1.0223 -0.3187
 2435SOL     OW 7650   2.361   0.799   2.591 -0.0006 -0.2424  0.2284
 2435SOL    HW1 7651   2.300   0.759   2.528  1.4513 -1.5602 -0.3964
 2435SOL    HW2 7652   2.323   0.885   2.609 -0.6658  0.0460 -2.1866
 2436SOL     OW 7653   3.829   1.199   2.359 -0.3977 -0.2309  0.1592
 2436SOL    HW1 7654   3.809   1.172   2.449  0.0916  1.2414  0.7377
 2436SOL    HW2 7655   3.744   1.209   2.317 -0.7564  1.2512  1.1563
 2437SOL     OW 7656   2.585   1.132   2.208 -0.0237  0.3369 -0.2538
 2437SOL    HW1 7657   2.624   1.053   2.246  0.5621  0.4212 -0.6593
 2437SOL    HW2 7658   2.659   1.177   2.167 -0.2529  1.3785  0.4517
 2438SOL     OW 7659   3.202   0.450   1.142 -0.2030 -0.3437  0.5679
 2438SOL    HW1 7660   3.174   0.410   1.059 -2.1180 -0.0614  1.0383
 2438SOL    HW2 7661   3.190   0.544   1.129  1.2783 -0.1330  0.5534
 2439SOL     OW 7662   3.607   0.162   4.091 -0.3011  0.0908  0.5076
 2439SOL    HW1 7663   3.618   0.161   3.996  0.0771 -0.4345  0.5520
 2439SOL    HW2 7664   3.683   0.212   4.123  0.6244 -1.3516  0.6473
 2440SOL     OW 7665   3.795   2.957   3.951 -0.0489  0.2001  0.4599
 2440SOL    HW1 7666   3.828   2.887   3.894  1.6469  1.4016 -0.1383
 2440SOL    HW2 7667   3.753   3.019   3.890  0.1737  0.6182  0.7254
 2441SOL     OW 7668   0.142   3.850   0.711 -0.3567 -0.3290 -0.3681
 2441SOL    HW1 7669   0.100   3.805   0.784  0.1542 -0.1655  0.0366
 2441SOL    HW2 7670   0.112   3.941   0.717  0.7237 -0.0055  0.4600
 2442SOL     OW 7671   0.738   3.587   4.123 -0.0657 -0.3952 -0.4291
 2442SOL    HW1 7672   0.733   3.536   4.042 -0.4932  0.0029 -0.6531
 2442SOL    HW2 7673   0.749   3.521   4.191  0.7668 -0.7052 -0.8511
 2443SOL     OW 7674   0.875   2.660   2.911  0.4511  0.2064  0.0416
 2443SOL    HW1 7675   0.857   2.717   2.986 -3.5374  0.1805 -0.6519
 2443SOL    HW2 7676   0.898   2.719   2.840 -0.3357  0.6996  0.1824
 2444SOL     OW 7677   3.545   2.588   0.315 -0.4410  0.3907  0.4137
 2444SOL    HW1 7678   3.575   2.678   0.308  0.4089  0.1549  0.9646
 2444SOL    HW2 7679   3.498   2.572   0.233 -0.9815  1.4637  0.4994
 2445SOL     OW 7680   2.584   1.360   0.043  0.1532  0.3262 -0.0528
 2445SOL    HW1 7681   2.613   1.411   0.119 -3.0497  0.7291  1.0742
 2445SOL    HW2 7682   2.589   1.422  -0.030 -0.2308  1.1163  0.5753
 2446SOL     OW 7683   1.265   0.451   3.483  0.4208  0.8047  0.1437
 2446SOL    HW1 7684   1.225   0.536   3.501  0.3917  0.5613  1.3008
 2446SOL    HW2 7685   1.223   0.421   3.403 -2.7351 -0.0590  1.9765
 2447SOL     OW 7686   1.659   3.185   1.319 -0.2501  0.6626  0.3314
 2447SOL    HW1 7687   1.648   3.248   1.390  1.8557  1.5083 -0.0274
 2447SOL    HW2 7688   1.731   3.129   1.347 -1.0579 -0.6384 -0.0608
 2448SOL     OW 7689   3.081   0.664   2.907  0.3721  0.1255  0.6394
 2448SOL    HW1 7690   3.033   0.591   2.946  0.4373 -0.8093 -0.9339
 2448SOL    HW2 7691   3.123   0.707   2.981 -1.0075 -0.4180  1.8009
 2449SOL     OW 7692   1.828   0.490   4.217  0.4785  0.0480 -0.5068
 2449SOL    HW1 7693   1.825   0.492   4.122 -2.3226  1.3641 -0.4919
 2449SOL    HW2 7694   1.828   0.582   4.243  1.3341 -0.2817  0.8084
 2450SOL     OW 7695   2.501   2.016   0.020 -0.1680 -0.1868  0.8174
 2450SOL    HW1 7696   2.419   2.066   0.011  0.2487  0.2169 -1.2147
 2450SOL    HW2 7697   2.475   1.925   0.003 -0.1471  0.0057 -0.3529
 2451SOL     OW 7698   3.728   3.711   1.269  0.9009 -0.0426  0.3158
 2451SOL    HW1 7699   3.805   3.667   1.306  1.6814  1.7071  0.9065
 2451SOL    HW2 7700   3.757   3.800   1.254 -0.7364  0.3960 -0.4350
 2452SOL     OW 7701   4.122   0.375   0.857  0.2271 -0.2372 -0.4233
 2452SOL    HW1 7702   4.186   0.439   0.829 -0.8810 -0.0700 -2.9038
 2452SOL    HW2 7703   4.114   0.315   0.783 -1.3970 -1.0945  0.3750
 2453SOL     OW 7704   1.151   3.063   3.668 -0.2224  0.0927 -0.0475
 2453SOL    HW1 7705   1.153   2.979   3.713 -0.9966 -0.1177 -0.3869
 2453SOL    HW2 7706   1.240   3.077   3.638 -0.0524 -0.5230  0.1601
 2454SOL     OW 7707   4.085   2.594   1.851 -0.1514 -0.4971  0.5878
 2454SOL    HW1 7708   4.102   2.664   1.789 -1.5341 -0.0430  0.6860
 2454SOL    HW2 7709   4.073   2.638   1.935  0.2319 -0.9695  0.8948
 2455SOL     OW 7710   3.341   2.909   2.199  0.4434  0.5274 -0.2746
 2455SOL    HW1 7711   3.249   2.930   2.211  0.6125  0.9259  0.4147
 2455SOL    HW2 7712   3.355   2.910   2.105 -0.2507  0.4797 -0.3779
 2456SOL     OW 7713   1.308   0.651   0.933  0.1762 -0.5759  0.4382
 2456SOL    HW1 7714   1.236   0.710   0.955 -0.0132  0.5008 -2.6132
 2456SOL    HW2 7715   1.267   0.565   0.926 -0.4191 -0.3163  0.6618
 2457SOL     OW 7716   3.055   1.911   2.950 -0.1276 -0.4935  0.2143
 2457SOL    HW1 7717   2.966   1.914   2.915  0.1109  0.1428 -0.3689
 2457SOL    HW2 7718   3.043   1.896   3.044 -0.9072  0.6467  0.3246
 2458SOL     OW 7719   1.662   3.998   0.576 -0.2028 -0.0080  0.0975
 2458SOL    HW1 7720   1.650   4.076   0.521 -2.2008  0.9650  1.7597
 2458SOL    HW2 7721   1.579   3.952   0.570  0.8061 -1.8573 -0.5046
 2459SOL     OW 7722   0.559   3.715   3.173  0.0778 -0.2548 -0.6577
 2459SOL    HW1 7723   0.578   3.805   3.199  1.1194 -0.1163 -1.7932
 2459SOL    HW2 7724   0.473   3.696   3.211 -0.1335  1.1915 -0.3579
 2460SOL     OW 7725   3.297   1.462   3.867  0.3903 -0.6170 -0.1153
 2460SOL    HW1 7726   3.221   1.438   3.919  0.2603  0.0721  0.0224
 2460SOL    HW2 7727   3.370   1.458   3.928  0.6007 -2.0553 -0.4334
 2461SOL     OW 7728   3.060   4.243   0.719 -0.4538  0.2881  0.0720
 2461SOL    HW1 7729   3.090   4.153   0.732 -2.4249 -0.5256 -0.7265
 2461SOL    HW2 7730   3.004   4.261   0.794 -1.7557  0.0625 -0.8175
 2462SOL     OW 7731   0.495   1.214   2.626  0.1028 -0.2073 -0.1674
 2462SOL    HW1 7732   0.561   1.261   2.575  0.3889  2.4609  2.3941
 2462SOL    HW2 7733   0.418   1.210   2.569  1.2200  0.1370 -1.7607
 2463SOL     OW 7734   3.726   2.948   0.737 -0.3928  0.1940  0.3037
 2463SOL    HW1 7735   3.706   3.003   0.661 -0.0125  0.6891  0.5598
 2463SOL    HW2 7736   3.680   2.990   0.809 -1.2860 -0.6342  0.2438
 2464SOL     OW 7737   4.173   2.385   0.511 -0.4945  0.2210  0.1204
 2464SOL    HW1 7738   4.086   2.416   0.487  0.3112  1.1287 -1.7861
 2464SOL    HW2 7739   4.165   2.362   0.604 -3.2436 -1.4978 -0.4179
 2465SOL     OW 7740   1.248   2.806   1.856 -0.3936 -0.5562  0.0235
 2465SOL    HW1 7741   1.291   2.720   1.859 -0.2870 -0.4931  0.3039
 2465SOL    HW2 7742   1.225   2.825   1.947 -0.1372 -0.1469  0.0056
 2466SOL     OW 7743   3.827   2.393   4.273  0.0676  0.1283 -0.0887
 2466SOL    HW1 7744   3.759   2.376   4.338 -0.0633 -0.3438 -0.3496
 2466SOL    HW2 7745   3.839   2.310   4.228  1.5164 -0.0672  0.6043
 2467SOL     OW 7746   0.337   0.884   3.237 -0.4542  0.4530  0.5438
 2467SOL    HW1 7747   0.278   0.811   3.257 -0.4932  0.5275  0.7055
 2467SOL    HW2 7748   0.287   0.940   3.178 -1.8523  2.2384  3.2151
 2468SOL     OW 7749   4.311   0.455   2.684 -0.0261 -0.6909 -0.0878
 2468SOL    HW1 7750   4.332   0.391   2.753  2.3386  0.4525  0.3267
 2468SOL    HW2 7751   4.379   0.443   2.618 -0.3029  0.5363 -0.6155
 2469SOL     OW 7752   0.953   0.461   2.707 -0.1105  1.1188  0.0094
 2469SOL    HW1 7753   0.920   0.551   2.718 -0.7741  0.7340  1.2356
 2469SOL    HW2 7754   0.874   0.407   2.707  0.3930  0.3646  1.1427
 2470SOL     OW 7755   1.095   4.180   3.237 -0.2455 -0.3972  0.2252
 2470SOL    HW1 7756   1.155   4.106   3.229  0.4460  0.2870 -1.2045
 2470SOL    HW2 7757   1.078   4.208   3.147  2.5306  3.5439  0.6332
 2471SOL     OW 7758   2.227   3.726   3.375  0.0971  0.2614  0.4378
 2471SOL    HW1 7759   2.142   3.765   3.355 -0.3867 -1.1101 -0.2173
 2471SOL    HW2 7760   2.239   3.744   3.469  0.0412  2.2272  0.1174
 2472SOL     OW 7761   1.535   3.450   3.979 -0.1768  0.2694  0.7322
 2472SOL    HW1 7762   1.525   3.472   4.071 -1.4509  1.8915  0.2323
 2472SOL    HW2 7763   1.460   3.394   3.959 -0.9797  1.4983  0.2322
 2473SOL     OW 7764   1.639   2.557   0.017 -0.4371 -0.4373  0.7997
 2473SOL    HW1 7765   1.693   2.491  -0.027 -2.2782 -1.9806  0.7561
 2473SOL    HW2 7766   1.701   2.605   0.072  1.6598  0.3868 -1.9810
 2474SOL     OW 7767   4.341   4.055   1.270  0.2981  0.1513  0.5495
 2474SOL    HW1 7768   4.331   3.960   1.275 -0.0075  0.1048 -0.6613
 2474SOL    HW2 7769   4.345   4.074   1.176 -0.2543  1.3987  0.7574
 2475SOL     OW 7770   2.941   0.453   0.757  0.0835 -0.6984 -0.2472
 2475SOL    HW1 7771   3.003   0.518   0.725 -1.2526  0.6084 -0.3125
 2475SOL    HW2 7772   2.856   0.497   0.752 -0.6597 -1.8410  1.3535
 2476SOL     OW 7773   2.106   1.157   2.107  0.3522 -0.9600 -0.0913
 2476SOL    HW1 7774   2.089   1.066   2.133  1.3582 -1.3962 -0.8724
 2476SOL    HW2 7775   2.194   1.175   2.140  0.5359 -0.6004 -0.7560
 2477SOL     OW 7776   4.177   0.400   0.101  0.0102 -0.1872  0.0390
 2477SOL    HW1 7777   4.226   0.375   0.023  0.4769 -0.1180  0.3103
 2477SOL    HW2 7778   4.230   0.468   0.142  0.4592 -1.1771  1.1585
 2478SOL     OW 7779   3.001   1.535   1.248  0.3407  0.3478 -0.1744
 2478SOL    HW1 7780   2.932   1.580   1.298  0.1796  1.1704 -1.1069
 2478SOL    HW2 7781   3.056   1.606   1.214  1.4178 -0.2789  0.2072
 2479SOL     OW 7782   0.020   2.719   3.174  0.7768  0.0606 -0.2420
 2479SOL    HW1 7783  -0.056   2.662   3.162  1.1682 -0.6292  0.4814
 2479SOL    HW2 7784  -0.004   2.774   3.249  1.2470 -0.6148  0.4159
 2480SOL     OW 7785   1.737   2.961   0.324  0.1897  0.3583  0.6203
 2480SOL    HW1 7786   1.708   2.998   0.407  1.6997  1.6081  0.6287
 2480SOL    HW2 7787   1.808   3.019   0.295  0.6730 -0.8911 -0.8182
 2481SOL     OW 7788   1.185   2.771   2.980  0.1507  0.4163 -0.0638
 2481SOL    HW1 7789   1.183   2.679   2.953  0.8646  0.3615  0.0634
 2481SOL    HW2 7790   1.259   2.808   2.933 -0.2322  0.9676 -0.2332
 2482SOL     OW 7791   1.948   0.925   4.214  0.2389  0.3019  0.0712
 2482SOL    HW1 7792   1.924   0.993   4.277  0.1243 -0.0464  0.4099
 2482SOL    HW2 7793   1.905   0.951   4.132 -0.6430  0.1086  0.4617
 2483SOL     OW 7794   3.130   0.932   3.603 -0.5093  0.3546 -0.2268
 2483SOL    HW1 7795   3.174   0.950   3.686  1.3171 -1.3017 -0.7529
 2483SOL    HW2 7796   3.055   0.877   3.627  0.8388 -1.3619  0.2639
 2484SOL     OW 7797   3.819   2.872   1.444 -0.4047 -0.4051  0.3646
 2484SOL    HW1 7798   3.787   2.841   1.528  0.5777  0.3939  1.0685
 2484SOL    HW2 7799   3.898   2.820   1.427 -1.0042 -1.0782 -0.4388
 2485SOL     OW 7800   2.350   0.828   1.968 -0.0013 -0.4528 -0.7969
 2485SOL    HW1 7801   2.384   0.751   2.013 -0.3639  0.1477  0.5568
 2485SOL    HW2 7802   2.299   0.793   1.895  0.4231 -1.4620 -0.6208
 2486SOL     OW 7803   2.571   4.206   3.172 -0.1174 -0.1723 -0.5806
 2486SOL    HW1 7804   2.555   4.209   3.267  1.1211 -0.3500 -0.3412
 2486SOL    HW2 7805   2.653   4.254   3.161  0.2443 -0.9673 -1.4408
 2487SOL     OW 7806   0.351   2.151   2.858  0.6349 -0.2645 -0.6167
 2487SOL    HW1 7807   0.261   2.163   2.828  1.1106  2.3772 -1.2347
 2487SOL    HW2 7808   0.403   2.143   2.778  0.9895 -1.6576 -0.2694
 2488SOL     OW 7809   1.152   4.364   1.037 -0.3961 -0.7079  0.2373
 2488SOL    HW1 7810   1.180   4.455   1.046 -0.6523 -0.4950 -1.0087
 2488SOL    HW2 7811   1.221   4.314   1.081  0.2239  0.0269  0.1337
 2489SOL     OW 7812   1.214   2.561   4.240  0.6233  0.3286  0.1389
 2489SOL    HW1 7813   1.261   2.489   4.282  0.1387 -0.9393 -1.4089
 2489SOL    HW2 7814   1.281   2.606   4.188  0.8819  0.9146  0.9471
 2490SOL     OW 7815   4.203   3.778   2.980  0.7104  0.2800  0.0241
 2490SOL    HW1 7816   4.146   3.799   3.054 -0.7897  0.5772 -1.1570
 2490SOL    HW2 7817   4.291   3.777   3.016  0.0264  0.5426  1.7765
 2491SOL     OW 7818   3.773   3.345   0.746  0.4560 -0.1081  0.4835
 2491SOL    HW1 7819   3.778   3.441   0.741 -1.2190 -0.0425 -1.5324
 2491SOL    HW2 7820   3.831   3.315   0.677 -1.0333 -0.3914 -0.7080
 2492SOL     OW 7821   3.802   3.206   2.280  0.2135  0.0439 -0.1863
 2492SOL    HW1 7822   3.882   3.213   2.332 -0.6687  1.4587  1.0447
 2492SOL    HW2 7823   3.831   3.169   2.196  2.3416  1.5369 -0.1764
 2493SOL     OW 7824   1.848   1.659   1.418  0.8894  0.0608 -0.1827
 2493SOL    HW1 7825   1.805   1.734   1.460  0.8789  0.4188 -0.8339
 2493SOL    HW2 7826   1.899   1.697   1.347  1.2374 -0.5071 -0.2406
 2494SOL     OW 7827   4.122   3.054   1.167  0.3587 -0.6050 -0.3356
 2494SOL    HW1 7828   4.063   3.119   1.129 -0.2559 -0.1210  1.3973
 2494SOL    HW2 7829   4.207   3.098   1.172 -0.2473  0.4412  1.6523
 2495SOL     OW 7830   1.125   1.909   1.071 -0.2511 -0.2740 -0.0782
 2495SOL    HW1 7831   1.129   2.000   1.100 -0.5865 -0.4080  0.3961
 2495SOL    HW2 7832   1.097   1.860   1.148 -2.2580 -0.5049 -0.8953
 2496SOL     OW 7833   1.152   1.279   1.579  0.2122 -0.6576  0.0177
 2496SOL    HW1 7834   1.182   1.294   1.669 -1.1397  0.9110  0.2771
 2496SOL    HW2 7835   1.198   1.345   1.527 -0.0571 -0.6329 -0.1912
 2497SOL     OW 7836   2.239   0.653   0.975 -0.3359 -0.1111 -0.1091
 2497SOL    HW1 7837   2.144   0.655   0.981 -0.3571 -2.5165  1.5494
 2497SOL    HW2 7838   2.270   0.704   1.050 -0.2210  1.6299 -1.2611
 2498SOL     OW 7839   2.040   1.922   2.963  0.5143 -0.1361  0.0924
 2498SOL    HW1 7840   1.965   1.881   2.921  0.9879  0.3227 -1.2597
 2498SOL    HW2 7841   2.002   1.989   3.020 -0.1125  0.1455 -0.6350
 2499SOL     OW 7842   0.042   2.237   4.252  0.2199  0.4375  0.3466
 2499SOL    HW1 7843   0.090   2.214   4.332 -0.8305  0.4233  0.9910
 2499SOL    HW2 7844   0.110   2.260   4.189  1.1613 -1.1041  0.7355
 2500SOL     OW 7845   2.828   0.183   0.772 -0.0923  0.4080 -0.1053
 2500SOL    HW1 7846   2.861   0.272   0.760 -0.0931  0.2506 -1.3536
 2500SOL    HW2 7847   2.757   0.174   0.710 -0.0955 -0.4688  0.0014
 2501SOL     OW 7848   1.763   1.544   3.767  0.1192  0.3681  0.2414
 2501SOL    HW1 7849   1.781   1.460   3.723 -0.8486 -0.4135  1.2740
 2501SOL    HW2 7850   1.689   1.580   3.718  0.3021  0.4443  0.0202
 2502SOL     OW 7851   3.429   1.281   0.648  0.1905 -0.0083  0.5100
 2502SOL    HW1 7852   3.479   1.218   0.597  1.3731 -0.4090  2.0739
 2502SOL    HW2 7853   3.420   1.240   0.734  0.6665  1.7671  1.4545
 2503SOL     OW 7854   3.458   3.773   0.384 -0.6224 -0.1731  0.7280
 2503SOL    HW1 7855   3.406   3.693   0.392 -0.5103 -0.4573 -0.9771
 2503SOL    HW2 7856   3.546   3.746   0.411 -0.6106 -0.6138  0.2785
 2504SOL     OW 7857   2.472   4.296   1.825 -0.2243  0.2016  0.2991
 2504SOL    HW1 7858   2.538   4.339   1.879  0.1118  2.8555 -1.9826
 2504SOL    HW2 7859   2.520   4.231   1.774 -0.1738 -0.7975  1.5731
 2505SOL     OW 7860   3.103   3.038   4.258 -0.0878  0.3886 -0.0568
 2505SOL    HW1 7861   3.073   3.128   4.252  1.0336  0.7157 -1.4365
 2505SOL    HW2 7862   3.062   2.994   4.183 -2.1033 -0.7809  1.5907
 2506SOL     OW 7863   0.282   0.715   1.924 -0.1565  0.0086  0.2815
 2506SOL    HW1 7864   0.309   0.748   1.838  0.7183  0.5586  0.7573
 2506SOL    HW2 7865   0.269   0.621   1.910 -0.4179  0.1583 -0.5393
 2507SOL     OW 7866   0.701   4.266   1.755  0.0726  0.3848 -0.3027
 2507SOL    HW1 7867   0.734   4.350   1.785 -0.4804  0.5062 -0.0108
 2507SOL    HW2 7868   0.606   4.273   1.765  0.0879 -0.7057  0.8459
 2508SOL     OW 7869   2.170   3.056   2.102  0.3357  0.0571  0.1346
 2508SOL    HW1 7870   2.150   3.018   2.016 -1.9573 -0.0575  0.6672
 2508SOL    HW2 7871   2.127   3.142   2.101  2.1771  1.0362  0.3951
 2509SOL     OW 7872   3.126   2.196   3.249 -0.0365 -0.3350  0.1068
 2509SOL    HW1 7873   3.101   2.113   3.208 -1.1541  0.8615 -1.7811
 2509SOL    HW2 7874   3.200   2.173   3.305  0.2593 -2.4470 -1.0249
 2510SOL     OW 7875   4.006   0.922   2.797  0.3898 -0.2492 -0.0758
 2510SOL    HW1 7876   4.008   0.990   2.863 -0.5511 -1.0660  0.8291
 2510SOL    HW2 7877   4.021   0.968   2.714 -1.0088  1.1650  0.4100
 2511SOL     OW 7878   4.338   3.276   3.163 -0.0814  0.7191 -0.6673
 2511SOL    HW1 7879   4.299   3.360   3.187  2.2848  1.4460  0.9826
 2511SOL    HW2 7880   4.276   3.210   3.194 -0.7935  1.8281  0.3068
 2512SOL     OW 7881   0.154   3.682   0.456 -0.2074  0.3815 -0.6646
 2512SOL    HW1 7882   0.112   3.754   0.503 -2.1326  0.0331 -1.7570
 2512SOL    HW2 7883   0.209   3.640   0.522  0.5831  2.5043  0.1269
 2513SOL     OW 7884   1.803   2.411   3.278 -0.1399 -0.1093  0.0797
 2513SOL    HW1 7885   1.887   2.369   3.297 -0.5577 -1.1053 -0.1978
 2513SOL    HW2 7886   1.815   2.450   3.191  0.1630  0.0854  0.2092
 2514SOL     OW 7887   2.507   3.672   2.764  0.1362  0.7120  0.5545
 2514SOL    HW1 7888   2.579   3.710   2.816  0.1052 -0.9962  1.9082
 2514SOL    HW2 7889   2.551   3.625   2.693  0.2232  1.7767 -0.1332
 2515SOL     OW 7890   4.060   4.058   1.374 -1.2042  0.6128  0.4903
 2515SOL    HW1 7891   4.095   3.977   1.337 -1.5634  0.6780  0.0072
 2515SOL    HW2 7892   4.059   4.119   1.301  1.9403  2.0367  1.4592
 2516SOL     OW 7893   4.141   0.903   2.120  1.0081  0.4433  0.0638
 2516SOL    HW1 7894   4.172   0.813   2.111  0.5412  0.4464 -2.1145
 2516SOL    HW2 7895   4.046   0.897   2.110  0.8082  1.0441  1.3890
 2517SOL     OW 7896   0.696   1.167   0.494  0.3705  0.1522 -0.0009
 2517SOL    HW1 7897   0.697   1.135   0.404 -0.2195 -0.6893  0.2851
 2517SOL    HW2 7898   0.769   1.230   0.498  0.7666 -0.2366 -0.9004
 2518SOL     OW 7899   0.411   2.164   1.879 -0.2681  0.0603 -0.6598
 2518SOL    HW1 7900   0.394   2.233   1.943 -1.4545 -0.9198  0.1378
 2518SOL    HW2 7901   0.506   2.162   1.870  0.1441 -1.0829  2.6298
 2519SOL     OW 7902   2.513   2.889   0.301 -0.3261 -0.2823  0.3369
 2519SOL    HW1 7903   2.523   2.978   0.270  0.5783 -0.8784 -1.1978
 2519SOL    HW2 7904   2.592   2.872   0.353 -0.7845 -0.0198  1.1471
 2520SOL     OW 7905   3.923   3.316   1.328 -0.2124  0.0988 -0.2040
 2520SOL    HW1 7906   3.832   3.344   1.339  0.3321  1.9411 -0.0902
 2520SOL    HW2 7907   3.960   3.380   1.268  1.1402 -0.3874  0.0882
 2521SOL     OW 7908   1.476   3.804   2.962 -0.5893  0.3957  0.6631
 2521SOL    HW1 7909   1.506   3.800   3.053  1.1081  2.7820  0.3115
 2521SOL    HW2 7910   1.433   3.889   2.955 -4.2941 -1.3670  0.1224
 2522SOL     OW 7911   1.168   2.409   1.337 -0.0069  0.2682 -0.0666
 2522SOL    HW1 7912   1.178   2.333   1.393 -0.9769 -0.4465 -0.8214
 2522SOL    HW2 7913   1.133   2.374   1.255  0.5394  1.3929 -0.8067
 2523SOL     OW 7914   0.576   2.764   2.246  0.3571  0.5730  0.4161
 2523SOL    HW1 7915   0.636   2.834   2.219  1.3079 -0.5172 -0.4086
 2523SOL    HW2 7916   0.491   2.807   2.252  0.7357  1.6037 -1.0169
 2524SOL     OW 7917   3.860   0.084   0.375  0.9159 -0.1285  0.1969
 2524SOL    HW1 7918   3.931   0.146   0.355  2.0500 -1.1880  0.7854
 2524SOL    HW2 7919   3.841   0.042   0.292 -0.3832  1.4816 -0.3748
 2525SOL     OW 7920   1.257   0.545   2.378 -0.2789  0.4971  0.2573
 2525SOL    HW1 7921   1.341   0.589   2.368  0.3566 -0.4760  1.1040
 2525SOL    HW2 7922   1.273   0.455   2.350 -1.0392  0.2926  0.4464
 2526SOL     OW 7923   2.728   0.598   0.811 -0.1785  0.2937 -0.4425
 2526SOL    HW1 7924   2.637   0.628   0.814 -1.3792 -3.0120  0.9702
 2526SOL    HW2 7925   2.754   0.591   0.903 -0.0630 -2.8085 -0.6271
 2527SOL     OW 7926   2.571   3.876   4.216 -0.0272 -0.3834  0.2295
 2527SOL    HW1 7927   2.553   3.789   4.181 -0.1897  0.0185 -0.7182
 2527SOL    HW2 7928   2.657   3.869   4.257  1.1710 -0.3600 -2.1479
 2528SOL     OW 7929   4.360   2.084   1.161  0.4663 -0.2093  0.4135
 2528SOL    HW1 7930   4.419   2.083   1.236 -0.7170  0.5973  1.3984
 2528SOL    HW2 7931   4.273   2.080   1.199 -0.2467  1.9957 -0.7721
 2529SOL     OW 7932   0.196   4.174   3.634 -0.1625  0.3826  0.2536
 2529SOL    HW1 7933   0.250   4.234   3.685 -0.2505  0.2957  0.4511
 2529SOL    HW2 7934   0.192   4.095   3.687 -0.3140  0.3163  0.1446
 2530SOL     OW 7935   2.047   1.082   0.153 -0.3188 -0.4719 -0.0764
 2530SOL    HW1 7936   2.132   1.068   0.196 -0.3564 -0.1255  0.1164
 2530SOL    HW2 7937   2.058   1.164   0.106 -0.1642 -1.0242 -1.0352
 2531SOL     OW 7938   2.609   0.322   0.295  0.6077 -0.2469 -0.1380
 2531SOL    HW1 7939   2.680   0.305   0.233  1.6561 -1.8667  1.4111
 2531SOL    HW2 7940   2.541   0.260   0.271  1.2141 -1.2180  0.6043
 2532SOL     OW 7941   1.857   3.409   2.927  0.1703  0.6078  0.4366
 2532SOL    HW1 7942   1.762   3.396   2.916  0.3094 -0.9103  0.7316
 2532SOL    HW2 7943   1.896   3.334   2.883  1.2083  0.8595  0.9001
 2533SOL     OW 7944   3.110   3.664   2.718  0.4093  0.3054  0.2121
 2533SOL    HW1 7945   3.018   3.683   2.737 -0.0427  1.4631 -2.6063
 2533SOL    HW2 7946   3.159   3.722   2.777 -0.6356 -0.2962  1.7147
 2534SOL     OW 7947   3.778   4.329   3.696  0.3789 -0.3546  0.5948
 2534SOL    HW1 7948   3.700   4.351   3.747  0.8115 -1.7940  1.9657
 2534SOL    HW2 7949   3.818   4.414   3.678 -1.6977  0.4583 -0.5442
 2535SOL     OW 7950   0.328   3.136   1.621  0.2611 -0.2053  0.2630
 2535SOL    HW1 7951   0.323   3.068   1.688  1.7025 -0.2532  0.3342
 2535SOL    HW2 7952   0.418   3.167   1.624  0.1507  0.3067 -1.1599
 2536SOL     OW 7953   3.939   2.896   0.917  0.1750 -0.0505  0.2606
 2536SOL    HW1 7954   3.860   2.947   0.937  0.4309  0.3135  0.3751
 2536SOL    HW2 7955   3.975   2.938   0.839 -0.0366 -0.5607 -0.1176
 2537SOL     OW 7956   2.521   1.328   4.013 -0.2744  0.2858 -0.3395
 2537SOL    HW1 7957   2.511   1.358   3.922  0.9280  1.6225 -0.0494
 2537SOL    HW2 7958   2.549   1.405   4.061 -0.1331 -0.5988  1.0397
 2538SOL     OW 7959   2.529   2.738   1.593 -0.2659 -0.0270 -0.3297
 2538SOL    HW1 7960   2.591   2.806   1.617 -1.0153  0.2989  0.7848
 2538SOL    HW2 7961   2.514   2.690   1.674 -0.3105 -1.0687 -0.9352
 2539SOL     OW 7962   1.671   3.321   2.001  0.4951  0.3548 -0.5264
 2539SOL    HW1 7963   1.640   3.287   2.085  0.5362  3.5959  0.9410
 2539SOL    HW2 7964   1.631   3.264   1.936 -2.6604 -0.0666  1.5446
 2540SOL     OW 7965   2.571   1.793   0.278 -0.0631  0.3354  0.1783
 2540SOL    HW1 7966   2.570   1.882   0.243  1.1935  0.4509  0.4080
 2540SOL    HW2 7967   2.659   1.761   0.260 -0.7326 -1.1623 -0.6031
 2541SOL     OW 7968   2.987   2.220   1.726 -0.2070 -0.2411  0.2141
 2541SOL    HW1 7969   2.921   2.250   1.790 -1.0087  0.6370 -0.9907
 2541SOL    HW2 7970   2.977   2.124   1.726 -0.7399 -0.1985  0.8347
 2542SOL     OW 7971   2.687   3.871   0.223  0.4035 -0.1533  0.5539
 2542SOL    HW1 7972   2.661   3.953   0.180 -1.5184 -0.8107  0.3407
 2542SOL    HW2 7973   2.777   3.885   0.250  0.9039  1.1651 -1.5724
 2543SOL     OW 7974   1.368   1.992   1.890  0.0810  0.1208  0.0848
 2543SOL    HW1 7975   1.372   1.896   1.884 -1.2958  0.1287 -1.9630
 2543SOL    HW2 7976   1.284   2.015   1.852  1.6251  2.2791 -2.4109
 2544SOL     OW 7977   3.513   1.027   0.483  1.2259  0.3409 -0.5093
 2544SOL    HW1 7978   3.497   0.944   0.439  0.3221  0.8215 -1.1399
 2544SOL    HW2 7979   3.550   1.003   0.568 -2.4461 -1.0014  0.9544
 2545SOL     OW 7980   0.221   2.495   2.946 -0.5434  0.4766 -0.6736
 2545SOL    HW1 7981   0.146   2.436   2.935 -1.5256  1.7124 -0.8697
 2545SOL    HW2 7982   0.197   2.572   2.895  0.2039  1.5000  0.4904
 2546SOL     OW 7983   2.251   1.542   2.866  0.3695  0.5420 -0.7987
 2546SOL    HW1 7984   2.269   1.507   2.953  2.0637  2.6563 -0.2197
 2546SOL    HW2 7985   2.186   1.482   2.829  1.5907 -1.9713  0.8500
 2547SOL     OW 7986   1.152   2.563   2.691  0.0352  0.0437 -0.1732
 2547SOL    HW1 7987   1.131   2.636   2.749  1.8503 -0.3568  1.0840
 2547SOL    HW2 7988   1.067   2.528   2.663 -0.9243  0.3214  2.1822
 2548SOL     OW 7989   2.976   1.069   2.183  0.0165  0.1436 -0.1046
 2548SOL    HW1 7990   2.986   0.989   2.132 -2.7319 -0.2225 -0.1848
 2548SOL    HW2 7991   2.975   1.040   2.274 -0.4941  0.1509 -0.1087
 2549SOL     OW 7992   1.101   1.342   3.421  0.3366 -0.4504 -0.1290
 2549SOL    HW1 7993   1.180   1.309   3.377  1.1330 -0.6999  1.4180
 2549SOL    HW2 7994   1.070   1.412   3.364  0.5937 -1.5753 -1.7211
 2550SOL     OW 7995   2.134   2.006   1.916 -0.0657  0.8577 -0.1027
 2550SOL    HW1 7996   2.145   2.070   1.986 -0.4750  1.0929 -0.2491
 2550SOL    HW2 7997   2.189   1.932   1.942 -0.4250  0.8309  0.5956
 2551SOL     OW 7998   0.314   0.178   2.587  0.4436  0.1352 -0.1595
 2551SOL    HW1 7999   0.358   0.261   2.603  0.7205 -0.3693  1.8877
 2551SOL    HW2 8000   0.351   0.147   2.503  1.5926  1.2500 -0.0919
 2552SOL     OW 8001   4.343   3.059   1.407 -0.1247 -0.3289 -0.3239
 2552SOL    HW1 8002   4.326   3.140   1.360  0.7179  0.8299  1.2668
 2552SOL    HW2 8003   4.409   3.014   1.354  0.4107  0.6812 -0.5348
 2553SOL     OW 8004   3.526   0.304   2.912  0.2187 -0.1570  0.5747
 2553SOL    HW1 8005   3.619   0.286   2.895  0.0867 -0.3971  0.0763
 2553SOL    HW2 8006   3.480   0.254   2.844 -0.1993  1.6526 -0.5395
 2554SOL     OW 8007   1.666   3.020   0.055 -0.3036  0.1530 -0.3293
 2554SOL    HW1 8008   1.683   2.993   0.145  2.3451  0.4802 -0.6582
 2554SOL    HW2 8009   1.747   3.001   0.008 -0.5400  2.6803 -1.9898
 2555SOL     OW 8010   1.188   1.433   0.798 -0.5270  0.1811  0.4179
 2555SOL    HW1 8011   1.187   1.504   0.863 -0.7038  0.1152  0.4867
 2555SOL    HW2 8012   1.225   1.473   0.720  0.3918  0.0634  0.7852
 2556SOL     OW 8013   1.855   0.711   2.720 -0.0940  0.5847  0.4950
 2556SOL    HW1 8014   1.863   0.780   2.786  0.6651 -0.6172  1.7063
 2556SOL    HW2 8015   1.779   0.660   2.747  0.6533 -0.3531  0.9124
 2557SOL     OW 8016   0.637   2.521   2.207 -0.6674  0.0292  0.3153
 2557SOL    HW1 8017   0.557   2.478   2.238 -0.5143  0.4474  1.3256
 2557SOL    HW2 8018   0.617   2.614   2.208 -0.5416  0.0696 -0.5369
 2558SOL     OW 8019   3.209   0.196   0.474 -0.3870  0.2775 -0.3057
 2558SOL    HW1 8020   3.130   0.161   0.514 -0.7977  0.7409 -0.6994
 2558SOL    HW2 8021   3.240   0.261   0.537 -0.8947  0.8295 -0.6170
 2559SOL     OW 8022   2.040   0.007   2.858  0.1561 -0.1903  0.6806
 2559SOL    HW1 8023   2.032   0.022   2.764 -1.6705  0.5143  0.9053
 2559SOL    HW2 8024   2.120  -0.046   2.868  0.7363  0.2860 -1.1778
 2560SOL     OW 8025   4.033   1.328   1.068  0.4497 -0.0740 -0.2698
 2560SOL    HW1 8026   3.971   1.277   1.017  0.4619 -0.4388  0.0679
 2560SOL    HW2 8027   3.979   1.374   1.133  0.6753 -2.0152  1.3964
 2561SOL     OW 8028   0.754   3.459   2.000 -0.2103  0.4955  0.4170
 2561SOL    HW1 8029   0.676   3.459   1.945 -0.8264  1.6457  1.2485
 2561SOL    HW2 8030   0.754   3.373   2.042 -1.3684  0.6945  0.8595
 2562SOL     OW 8031   2.168   3.153   0.143 -0.3484  0.6070  0.1332
 2562SOL    HW1 8032   2.217   3.097   0.203  0.6704  0.7023 -0.5816
 2562SOL    HW2 8033   2.077   3.142   0.169 -0.1821 -1.3547  0.0547
 2563SOL     OW 8034   3.852   3.675   4.229  0.2207 -0.2527  0.2456
 2563SOL    HW1 8035   3.904   3.733   4.285 -1.8496  0.0672  1.9670
 2563SOL    HW2 8036   3.762   3.706   4.240 -0.3764 -0.5806 -2.8374
 2564SOL     OW 8037   1.395   3.870   0.508 -0.1444  0.3963 -0.3030
 2564SOL    HW1 8038   1.310   3.850   0.547  0.3378 -0.2705  0.4526
 2564SOL    HW2 8039   1.378   3.873   0.414 -1.4712  2.7383 -0.0488
 2565SOL     OW 8040   3.656   3.909   3.013 -0.0633 -0.0045  0.1298
 2565SOL    HW1 8041   3.643   3.818   3.039  1.9440 -0.7216 -1.1494
 2565SOL    HW2 8042   3.727   3.940   3.068 -0.1401  0.5181 -0.0631
 2566SOL     OW 8043   1.690   0.294   3.340 -0.0225 -0.7397 -0.0590
 2566SOL    HW1 8044   1.741   0.226   3.385 -0.4322 -1.4147 -0.5778
 2566SOL    HW2 8045   1.705   0.276   3.247 -3.1283 -2.5613 -0.3521
 2567SOL     OW 8046   1.860   2.095   1.703 -0.4158  0.4217  0.1022
 2567SOL    HW1 8047   1.765   2.101   1.692 -0.3884  1.2389  0.2418
 2567SOL    HW2 8048   1.889   2.186   1.710  0.1651  0.1489  1.7352
 2568SOL     OW 8049   2.326   3.353   3.766 -0.0886 -0.2635  0.1415
 2568SOL    HW1 8050   2.419   3.374   3.772 -0.8146  3.3595  0.7507
 2568SOL    HW2 8051   2.286   3.428   3.721 -2.6304 -2.1034 -0.9379
 2569SOL     OW 8052   1.724   0.886   0.835  0.0935  0.9001  0.0405
 2569SOL    HW1 8053   1.733   0.977   0.807  0.2190  0.2938 -2.0645
 2569SOL    HW2 8054   1.638   0.882   0.876 -0.9807  1.5027 -2.0055
 2570SOL     OW 8055   4.030   4.265   0.451 -0.2815  0.1255  0.5022
 2570SOL    HW1 8056   4.112   4.305   0.422 -0.2662  0.8945  1.5782
 2570SOL    HW2 8057   3.963   4.330   0.431 -0.9877 -1.2910 -2.2704
 2571SOL     OW 8058   0.884   4.166   3.902 -0.0031 -0.2028  0.0747
 2571SOL    HW1 8059   0.823   4.121   3.843  0.0521 -0.2345  0.0411
 2571SOL    HW2 8060   0.969   4.155   3.860 -0.1260  0.8379 -0.4665
 2572SOL     OW 8061   1.937   0.636   0.941 -0.3181  0.5096  0.0248
 2572SOL    HW1 8062   1.951   0.685   0.859  0.6893 -0.5321 -0.4445
 2572SOL    HW2 8063   1.843   0.617   0.941 -0.8331  2.7973  0.4461
 2573SOL     OW 8064   1.482   3.597   1.193 -0.6954 -0.3886  0.0152
 2573SOL    HW1 8065   1.481   3.622   1.286  0.3990  1.3782 -0.4039
 2573SOL    HW2 8066   1.406   3.642   1.156  0.0820  0.7010 -0.3253
 2574SOL     OW 8067   2.469   1.211   3.261 -0.1472  0.3701  0.2497
 2574SOL    HW1 8068   2.454   1.202   3.167 -2.1203 -1.8183  0.6703
 2574SOL    HW2 8069   2.524   1.136   3.284 -1.1976 -0.2031  1.0490
 2575SOL     OW 8070   1.259   3.665   2.874  0.2169  0.1910  0.2482
 2575SOL    HW1 8071   1.347   3.681   2.907  1.0816 -2.7776 -0.3535
 2575SOL    HW2 8072   1.245   3.733   2.808  1.4507  1.5500  1.3056
 2576SOL     OW 8073   3.153   2.464   2.489  0.9335  0.1600  0.3616
 2576SOL    HW1 8074   3.170   2.400   2.421 -0.3819 -0.3074  0.4511
 2576SOL    HW2 8075   3.204   2.434   2.564  2.4481  0.7159 -0.3942
 2577SOL     OW 8076   3.355   0.669   1.292  0.1260 -0.0485 -0.2116
 2577SOL    HW1 8077   3.261   0.681   1.277  0.0485  0.1010  0.3528
 2577SOL    HW2 8078   3.363   0.664   1.387  0.6029 -0.8180 -0.2859
 2578SOL     OW 8079   3.260   1.601   1.371  0.5670 -0.0893 -0.4152
 2578SOL    HW1 8080   3.215   1.517   1.378  1.0038 -0.4831 -2.0517
 2578SOL    HW2 8081   3.338   1.582   1.320  1.0588  1.1807 -0.1581
 2579SOL     OW 8082   1.986   3.395   1.919  0.5873  0.4928 -0.4943
 2579SOL    HW1 8083   1.910   3.401   1.862  1.1504 -0.6674 -1.4140
 2579SOL    HW2 8084   1.959   3.337   1.990  0.4331  0.5448 -0.5113
 2580SOL     OW 8085   1.053   2.639   3.640  0.6593  0.1183 -0.6051
 2580SOL    HW1 8086   1.127   2.579   3.652 -1.1740 -2.0776  0.4681
 2580SOL    HW2 8087   0.989   2.589   3.588 -0.4340  1.6149 -0.7598
 2581SOL     OW 8088   0.968   2.533   3.230 -0.4088  0.1926  0.2760
 2581SOL    HW1 8089   0.990   2.624   3.251 -1.3415  0.1734  1.4536
 2581SOL    HW2 8090   0.926   2.500   3.310 -0.5166 -1.1279 -0.3065
 2582SOL     OW 8091   3.821   1.968   3.077  0.0359 -0.3875  0.2654
 2582SOL    HW1 8092   3.740   2.009   3.048  0.1190 -0.8676 -0.6885
 2582SOL    HW2 8093   3.882   1.981   3.004  1.2118  1.0000  1.4055
 2583SOL     OW 8094   3.672   3.082   0.455  0.2046  0.6978 -0.5973
 2583SOL    HW1 8095   3.581   3.110   0.455 -0.9580 -2.2902 -4.1639
 2583SOL    HW2 8096   3.706   3.113   0.371  2.1159  0.6188  0.0947
 2584SOL     OW 8097   1.295   1.716   0.678  0.2214 -0.1140 -0.0537
 2584SOL    HW1 8098   1.300   1.780   0.749  0.5402  0.1847 -0.3451
 2584SOL    HW2 8099   1.203   1.713   0.655  0.5092  2.3984 -1.9940
 2585SOL     OW 8100   3.723   0.941   1.439 -0.2803  0.6077  0.8056
 2585SOL    HW1 8101   3.695   0.971   1.526  0.0766  2.1537  0.4112
 2585SOL    HW2 8102   3.818   0.949   1.441  0.0307 -2.0988  1.2170
 2586SOL     OW 8103   4.127   2.913   2.439  1.1425  0.0441 -0.4884
 2586SOL    HW1 8104   4.039   2.919   2.476  1.7212 -1.3441  1.2791
 2586SOL    HW2 8105   4.117   2.939   2.348 -1.2878 -0.9990 -0.5995
 2587SOL     OW 8106   0.056   4.160   1.688 -0.0523  0.3247  0.3210
 2587SOL    HW1 8107   0.104   4.240   1.710 -0.6734  0.7937  0.0064
 2587SOL    HW2 8108   0.001   4.185   1.613  1.1161 -0.9104 -0.9935
 2588SOL     OW 8109   0.812   1.466   3.195  0.3895 -0.0436  0.2793
 2588SOL    HW1 8110   0.764   1.540   3.158 -0.0563  0.5665  1.9656
 2588SOL    HW2 8111   0.856   1.426   3.121  0.3785  1.7241 -0.7337
 2589SOL     OW 8112   2.785   4.055   0.999 -0.6815 -0.0959 -0.0192
 2589SOL    HW1 8113   2.764   4.007   0.919  2.0980 -1.7726  0.1442
 2589SOL    HW2 8114   2.814   4.141   0.969  0.7487 -0.8519 -0.9145
 2590SOL     OW 8115   0.580   3.611   3.488 -0.2767  0.1054 -0.1885
 2590SOL    HW1 8116   0.510   3.595   3.425 -0.3793  0.3783 -0.1414
 2590SOL    HW2 8117   0.661   3.596   3.438 -0.3722 -1.1009 -0.0128
 2591SOL     OW 8118   1.975   1.850   1.274 -0.5375  0.2872  0.2992
 2591SOL    HW1 8119   2.055   1.849   1.222 -0.8568  0.9528 -0.2114
 2591SOL    HW2 8120   1.990   1.918   1.340 -1.4220  1.7868 -1.0003
 2592SOL     OW 8121   1.652   0.802   1.247 -0.3641  0.0410 -0.4337
 2592SOL    HW1 8122   1.562   0.835   1.248  0.0779  1.2572  0.2220
 2592SOL    HW2 8123   1.642   0.708   1.262 -1.4753  0.3354  0.9175
 2593SOL     OW 8124   2.089   3.902   0.903  0.0535 -0.8682 -0.0572
 2593SOL    HW1 8125   2.117   3.993   0.911 -0.1137 -0.9612  1.9030
 2593SOL    HW2 8126   2.070   3.891   0.809  0.2286  1.0468 -0.3491
 2594SOL     OW 8127   0.248   2.088   1.673  0.3003  0.2457  0.1876
 2594SOL    HW1 8128   0.327   2.052   1.633  0.2431 -0.6957  0.8998
 2594SOL    HW2 8129   0.273   2.106   1.764 -0.1377  0.4866  0.2640
 2595SOL     OW 8130   0.265   2.701   0.301  0.4985  0.4019  0.7625
 2595SOL    HW1 8131   0.233   2.632   0.243 -1.5112  1.9868 -0.1368
 2595SOL    HW2 8132   0.279   2.776   0.244  1.6832  1.0472  1.8570
 2596SOL     OW 8133   2.490   1.443   3.378  0.1048  0.1155  0.7969
 2596SOL    HW1 8134   2.474   1.354   3.346  1.0161 -0.1841  1.1376
 2596SOL    HW2 8135   2.414   1.493   3.350  0.6482 -0.2169 -1.4585
 2597SOL     OW 8136   2.468   4.366   2.981  0.0098 -0.2948  0.1880
 2597SOL    HW1 8137   2.414   4.423   3.037 -1.2235 -0.8591 -0.3767
 2597SOL    HW2 8138   2.508   4.304   3.042  1.2584  1.0543  0.7914
 2598SOL     OW 8139   1.673   0.537   2.779  0.5142 -0.1957 -0.1854
 2598SOL    HW1 8140   1.632   0.451   2.790  1.1205 -0.2044  2.5430
 2598SOL    HW2 8141   1.601   0.597   2.762 -0.2231 -0.7948  0.7854
 2599SOL     OW 8142   3.972   3.027   0.428 -0.3153  0.3358 -0.1858
 2599SOL    HW1 8143   3.933   3.109   0.459 -1.8908 -0.4583  0.0384
 2599SOL    HW2 8144   3.910   2.959   0.456  1.1382 -0.9797 -0.0402
 2600SOL     OW 8145   2.212   3.135   1.611  0.1515 -0.0641  1.0439
 2600SOL    HW1 8146   2.300   3.164   1.635  0.8769  0.5784 -1.9599
 2600SOL    HW2 8147   2.174   3.210   1.565 -0.5291 -1.5404 -0.9276
 2601SOL     OW 8148   3.634   3.175   2.875  0.2030 -0.4580 -0.0364
 2601SOL    HW1 8149   3.621   3.080   2.885 -1.4848 -0.3719 -1.0704
 2601SOL    HW2 8150   3.547   3.212   2.891  0.7479  0.8853 -0.1167
 2602SOL     OW 8151   2.596   2.228   2.877  0.2483 -0.1233 -0.1124
 2602SOL    HW1 8152   2.531   2.290   2.845  1.2313  1.7614  1.3337
 2602SOL    HW2 8153   2.651   2.208   2.801 -0.3244  0.4932 -0.6921
 2603SOL     OW 8154   0.505   0.315   1.039 -0.5788 -0.1874  0.0819
 2603SOL    HW1 8155   0.600   0.309   1.052 -0.3515  2.2100 -0.0683
 2603SOL    HW2 8156   0.471   0.237   1.082  1.4908 -1.5075 -0.4909
 2604SOL     OW 8157   0.057   3.662   2.148  0.2711  0.1190  0.0332
 2604SOL    HW1 8158   0.084   3.754   2.158  0.8940 -0.1873  1.3878
 2604SOL    HW2 8159   0.118   3.613   2.204 -1.2392 -0.9196  0.8370
 2605SOL     OW 8160   0.347   2.742   1.991  0.0758 -0.0601  0.0299
 2605SOL    HW1 8161   0.405   2.677   1.952 -1.3525 -0.9105 -0.8100
 2605SOL    HW2 8162   0.296   2.693   2.056 -2.4645 -0.4088 -2.0238
 2606SOL     OW 8163   3.659   4.352   3.020 -1.2333 -0.2236 -0.6966
 2606SOL    HW1 8164   3.711   4.271   3.024 -0.6484  0.1880  0.6891
 2606SOL    HW2 8165   3.681   4.390   2.935 -2.0989 -1.8795 -1.7134
 2607SOL     OW 8166   0.396   0.217   3.829 -0.4521 -0.4437 -0.0302
 2607SOL    HW1 8167   0.465   0.183   3.885  0.4519  0.7803 -0.3610
 2607SOL    HW2 8168   0.316   0.210   3.882  0.3735  0.7173  1.4512
 2608SOL     OW 8169   4.254   3.707   4.144  0.6955 -0.0831 -0.5371
 2608SOL    HW1 8170   4.187   3.763   4.103  0.5809  0.8857  0.8985
 2608SOL    HW2 8171   4.330   3.716   4.087  0.0460 -0.0794 -1.4330
 2609SOL     OW 8172   3.416   3.812   0.042 -0.1564 -0.2749  0.4501
 2609SOL    HW1 8173   3.494   3.824  -0.012  0.3905  1.3717  1.5252
 2609SOL    HW2 8174   3.424   3.724   0.078  0.8978 -0.3472  0.0584
 2610SOL     OW 8175   1.330   1.455   3.081 -0.4958 -0.0884  0.2458
 2610SOL    HW1 8176   1.410   1.504   3.063 -0.3389 -1.1896 -2.4611
 2610SOL    HW2 8177   1.358   1.384   3.139  1.2014 -2.0395 -2.6951
 2611SOL     OW 8178   3.147   0.715   1.025  0.1056 -0.0929  0.2772
 2611SOL    HW1 8179   3.108   0.796   1.058 -0.1630 -0.0355 -0.1652
 2611SOL    HW2 8180   3.096   0.695   0.946  0.7544 -0.1978 -0.1196
 2612SOL     OW 8181   0.365   2.979   1.863  0.3684 -0.0831  0.1694
 2612SOL    HW1 8182   0.341   2.904   1.918  0.1747 -1.6453 -1.9503
 2612SOL    HW2 8183   0.375   3.052   1.926 -4.1502 -0.6094  1.9044
 2613SOL     OW 8184   2.454   0.134   3.433  0.4741  0.3737  0.4563
 2613SOL    HW1 8185   2.372   0.160   3.474 -0.6410 -0.4421 -1.1520
 2613SOL    HW2 8186   2.472   0.047   3.468 -0.5743 -0.4013 -0.8348
 2614SOL     OW 8187   3.982   0.607   0.887  0.2161  0.5201  0.4109
 2614SOL    HW1 8188   4.020   0.522   0.868 -1.1356  0.3617 -1.8549
 2614SOL    HW2 8189   3.940   0.596   0.973  3.1729  0.0662  1.9118
 2615SOL     OW 8190   2.954   0.960   0.346  0.4314  0.2117 -0.2774
 2615SOL    HW1 8191   2.884   1.005   0.299  0.4151 -1.3322 -1.7927
 2615SOL    HW2 8192   2.917   0.875   0.369  1.1668  0.1331  0.6955
 2616SOL     OW 8193   0.522   4.094   1.565 -0.0855 -0.0712  0.0317
 2616SOL    HW1 8194   0.576   4.035   1.618  0.4903 -0.2364 -0.7288
 2616SOL    HW2 8195   0.577   4.172   1.553  0.2017 -0.4313 -1.1511
 2617SOL     OW 8196   2.648   2.132   1.567 -0.1096 -0.2739  0.6608
 2617SOL    HW1 8197   2.684   2.124   1.478  1.0433  1.2407  0.9449
 2617SOL    HW2 8198   2.662   2.224   1.590  0.7334 -0.8806  2.8492
 2618SOL     OW 8199   3.636   3.898   4.245 -0.2603  0.5226 -0.4672
 2618SOL    HW1 8200   3.695   3.910   4.320  0.0933  1.0684 -0.8192
 2618SOL    HW2 8201   3.650   3.977   4.192 -0.1488 -0.0767 -1.3452
 2619SOL     OW 8202   1.586   3.362   0.591  0.1295 -0.3386  0.1142
 2619SOL    HW1 8203   1.550   3.449   0.572  0.9300  0.1991  1.0064
 2619SOL    HW2 8204   1.510   3.310   0.616 -0.1150  0.6798  1.5960
 2620SOL     OW 8205   3.786   3.230   0.226 -0.3147 -0.2903  0.0772
 2620SOL    HW1 8206   3.708   3.225   0.171 -0.3110  0.5924 -0.0217
 2620SOL    HW2 8207   3.786   3.319   0.259  0.0294 -0.6208  1.0136
 2621SOL     OW 8208   2.030   2.910   0.720 -0.5716  0.0830 -0.1776
 2621SOL    HW1 8209   1.949   2.862   0.738  0.0889 -0.9024  0.2381
 2621SOL    HW2 8210   2.063   2.871   0.639 -0.7206  0.7734 -0.5782
 2622SOL     OW 8211   0.122   0.215   4.320 -0.2338  0.5797 -0.8299
 2622SOL    HW1 8212   0.072   0.173   4.390  0.0584  1.0466 -0.3340
 2622SOL    HW2 8213   0.111   0.157   4.245  0.2684 -0.4561 -0.1216
 2623SOL     OW 8214   4.271   2.797   0.302  0.1817  0.6663 -0.2584
 2623SOL    HW1 8215   4.248   2.889   0.313 -2.0108  0.0194  1.3373
 2623SOL    HW2 8216   4.280   2.764   0.392  1.5728 -0.5355 -0.8126
 2624SOL     OW 8217   2.502   0.353   2.066 -0.1630  0.3225 -0.8875
 2624SOL    HW1 8218   2.498   0.405   2.146 -1.1852 -2.2430  0.8865
 2624SOL    HW2 8219   2.589   0.314   2.067 -0.7228 -1.0167 -0.0188
 2625SOL     OW 8220   2.625   3.629   1.671  0.0360 -0.1876  0.3475
 2625SOL    HW1 8221   2.626   3.690   1.746 -0.8247  0.2980 -0.0226
 2625SOL    HW2 8222   2.654   3.546   1.708  0.3641  0.2320  1.0607
 2626SOL     OW 8223   0.733   2.589   1.134 -0.4527  0.1175 -0.1348
 2626SOL    HW1 8224   0.696   2.615   1.050  0.9886  1.1532 -0.4841
 2626SOL    HW2 8225   0.740   2.671   1.183 -1.4456 -0.4998  1.0817
 2627SOL     OW 8226   4.296   3.271   2.223 -0.5608 -0.2680  0.1491
 2627SOL    HW1 8227   4.260   3.284   2.135  0.2063  0.8763 -0.0170
 2627SOL    HW2 8228   4.339   3.354   2.243 -0.6864 -0.5390  1.5957
 2628SOL     OW 8229   1.218   1.660   3.200  0.6345  0.0060 -0.2706
 2628SOL    HW1 8230   1.249   1.592   3.140  0.1860 -1.2970  0.8900
 2628SOL    HW2 8231   1.265   1.642   3.282  0.4418  1.0646  0.0847
 2629SOL     OW 8232   2.177   1.016   3.938  0.0935  0.4692 -0.0392
 2629SOL    HW1 8233   2.271   1.015   3.950 -0.1781  0.3176  2.6764
 2629SOL    HW2 8234   2.147   1.090   3.991 -1.4142 -0.5028  0.5507
 2630SOL     OW 8235   0.401   1.337   3.919 -0.4388 -0.1297 -0.0784
 2630SOL    HW1 8236   0.443   1.326   3.834 -2.3957  1.4445 -1.3425
 2630SOL    HW2 8237   0.310   1.312   3.905 -1.2762  2.0485  0.9488
 2631SOL     OW 8238   3.812   2.663   1.645  0.3174 -0.4285  0.3074
 2631SOL    HW1 8239   3.823   2.702   1.732  1.9537  0.0395 -0.0773
 2631SOL    HW2 8240   3.899   2.666   1.606  0.0028 -2.3108 -0.6656
 2632SOL     OW 8241   4.334   4.295   3.721 -0.2470  0.4426 -0.5849
 2632SOL    HW1 8242   4.371   4.359   3.660  2.8838  0.4453  1.0662
 2632SOL    HW2 8243   4.395   4.221   3.717 -2.5927 -1.5793 -0.8646
 2633SOL     OW 8244   2.549   3.635   1.128  0.1891  0.0818 -0.8188
 2633SOL    HW1 8245   2.490   3.596   1.192  0.5564 -1.1865 -1.2372
 2633SOL    HW2 8246   2.520   3.727   1.122 -3.2665 -0.9252 -2.6712
 2634SOL     OW 8247   4.303   2.290   1.433  0.1087  0.0813 -0.0175
 2634SOL    HW1 8248   4.335   2.308   1.521 -0.6993 -0.3676  0.3741
 2634SOL    HW2 8249   4.210   2.314   1.435 -0.0491 -0.4432 -0.5845
 2635SOL     OW 8250   3.954   2.230   3.503 -0.1238  0.1763  0.0927
 2635SOL    HW1 8251   3.981   2.308   3.456 -1.8947  0.7158 -0.0973
 2635SOL    HW2 8252   3.864   2.248   3.531  1.0331  0.3503  4.6183
 2636SOL     OW 8253   3.315   1.414   0.326  0.2974 -0.4951 -0.3275
 2636SOL    HW1 8254   3.284   1.430   0.415  0.7403 -1.4487  0.0132
 2636SOL    HW2 8255   3.398   1.367   0.337  1.2717  0.9190 -1.2350
 2637SOL     OW 8256   4.083   4.270   3.832 -0.0429  0.2954  0.0612
 2637SOL    HW1 8257   4.158   4.243   3.779 -0.6503 -1.7140  0.1396
 2637SOL    HW2 8258   4.012   4.212   3.803 -0.7283  0.0450  2.1337
 2638SOL     OW 8259   1.386   0.301   2.637  0.0846 -0.1390 -0.3546
 2638SOL    HW1 8260   1.462   0.306   2.579  0.8278 -1.2332  0.4883
 2638SOL    HW2 8261   1.383   0.386   2.680  1.0825 -0.2199 -0.1046
 2639SOL     OW 8262   1.325   2.599   1.466 -0.3275  0.1790 -0.1859
 2639SOL    HW1 8263   1.291   2.520   1.425 -0.3270  1.1617 -2.2012
 2639SOL    HW2 8264   1.247   2.654   1.479 -0.0869  0.6250 -0.6126
 2640SOL     OW 8265   2.856   2.212   0.197 -0.1085  0.5697 -0.8408
 2640SOL    HW1 8266   2.930   2.248   0.148  0.0112 -0.7008 -1.6423
 2640SOL    HW2 8267   2.820   2.144   0.139  1.1971 -2.3823  1.5243
 2641SOL     OW 8268   3.772   2.692   2.171 -0.1387  0.1246  0.4566
 2641SOL    HW1 8269   3.702   2.744   2.210 -1.4697 -0.6450 -0.8344
 2641SOL    HW2 8270   3.737   2.603   2.166  0.0598  0.1169 -2.1627
 2642SOL     OW 8271   3.139   2.218   4.009 -0.1883 -0.5617 -0.9069
 2642SOL    HW1 8272   3.151   2.305   4.046 -1.5903 -1.0303  0.8210
 2642SOL    HW2 8273   3.172   2.159   4.077  0.4647 -1.4102 -1.9261
 2643SOL     OW 8274   0.101   3.702   3.089 -0.4541 -0.0063 -0.4959
 2643SOL    HW1 8275   0.130   3.616   3.059  0.0156 -0.0980  0.2294
 2643SOL    HW2 8276   0.181   3.752   3.100 -0.5704 -0.1587  1.1933
 2644SOL     OW 8277   1.824   3.849   0.073  0.5029 -0.2360  0.1311
 2644SOL    HW1 8278   1.833   3.873   0.165 -0.7666  0.1987  0.1587
 2644SOL    HW2 8279   1.898   3.891   0.030  1.3125 -0.7248  0.9877
 2645SOL     OW 8280   0.323   3.698   3.833 -0.1820  0.5250  0.0023
 2645SOL    HW1 8281   0.386   3.721   3.901  1.1925  0.3718 -1.1833
 2645SOL    HW2 8282   0.356   3.616   3.797 -1.3149  0.2046 -0.3578
 2646SOL     OW 8283   3.420   2.028   1.717  0.1038 -0.0397 -0.3013
 2646SOL    HW1 8284   3.510   2.002   1.739  0.0612 -1.4964 -1.6631
 2646SOL    HW2 8285   3.430   2.081   1.638 -0.2300 -0.2256 -0.4683
 2647SOL     OW 8286   2.725   2.449   3.386  0.1426  0.2969 -0.3693
 2647SOL    HW1 8287   2.757   2.399   3.311 -0.3037  0.6668 -0.8076
 2647SOL    HW2 8288   2.782   2.423   3.458 -0.6669 -1.6012 -0.3511
 2648SOL     OW 8289   3.139   2.694   3.843  0.6763 -0.0318  0.1082
 2648SOL    HW1 8290   3.171   2.621   3.790 -0.5731 -0.6011  0.1261
 2648SOL    HW2 8291   3.185   2.685   3.926  1.1063 -0.3350 -0.1563
 2649SOL     OW 8292   0.148   0.035   1.777 -0.0960 -0.0868  0.2024
 2649SOL    HW1 8293   0.067   0.026   1.826  0.2333 -0.3277  0.7046
 2649SOL    HW2 8294   0.209   0.077   1.838 -0.1522  1.1054 -0.5190
 2650SOL     OW 8295   1.575   1.649   0.128 -0.1232  0.3457 -0.2105
 2650SOL    HW1 8296   1.598   1.641   0.035 -0.7426 -2.1004 -0.2273
 2650SOL    HW2 8297   1.614   1.571   0.168  2.2915  2.5562  2.1341
 2651SOL     OW 8298   3.886   3.926   3.574 -0.0580 -0.3452 -0.1460
 2651SOL    HW1 8299   3.891   3.836   3.605 -2.0853  0.3732  2.6934
 2651SOL    HW2 8300   3.828   3.922   3.498 -0.3645 -1.4052  0.1296
 2652SOL     OW 8301   2.326   0.511   1.914  0.2261 -0.1997  0.0766
 2652SOL    HW1 8302   2.270   0.444   1.876 -1.4053  1.3241 -0.3271
 2652SOL    HW2 8303   2.403   0.463   1.946  0.1813 -1.9733 -2.1882
 2653SOL     OW 8304   3.928   2.385   1.909 -0.1650  0.4253 -0.2417
 2653SOL    HW1 8305   3.988   2.316   1.882  0.7418  1.0423  0.1603
 2653SOL    HW2 8306   3.970   2.466   1.880 -1.3601  0.8128 -0.9842
 2654SOL     OW 8307   0.970   2.823   1.733  0.1605 -0.3205 -0.9413
 2654SOL    HW1 8308   1.032   2.889   1.763  0.3696 -0.9519  0.0759
 2654SOL    HW2 8309   0.974   2.827   1.638  0.2479  1.0387 -0.9007
 2655SOL     OW 8310   1.848   3.586   3.354  0.2987 -0.2223  0.3456
 2655SOL    HW1 8311   1.849   3.526   3.279 -1.6312 -2.3097  1.8429
 2655SOL    HW2 8312   1.801   3.663   3.323 -1.5381 -1.5496 -0.3047
 2656SOL     OW 8313   0.230   0.050   1.412  0.3921 -0.8199  0.0638
 2656SOL    HW1 8314   0.266   0.108   1.479  1.3940 -1.8505  0.4577
 2656SOL    HW2 8315   0.160   0.003   1.457 -1.0713  0.6947 -0.5140
 2657SOL     OW 8316   3.624   1.814   3.622  0.0645  0.1641 -0.1919
 2657SOL    HW1 8317   3.637   1.857   3.706  0.6895 -2.3914  1.1224
 2657SOL    HW2 8318   3.538   1.774   3.628 -0.0358  0.2483 -0.9239
 2658SOL     OW 8319   1.130   2.203   0.717 -0.0590  0.2151  0.0867
 2658SOL    HW1 8320   1.206   2.237   0.671  2.0555  0.2193  3.2254
 2658SOL    HW2 8321   1.088   2.280   0.754 -0.5611  0.0797 -0.1962
 2659SOL     OW 8322   2.279   0.102   0.926 -0.2268 -0.5580 -0.0295
 2659SOL    HW1 8323   2.257   0.195   0.915 -1.2488 -0.6479  1.1293
 2659SOL    HW2 8324   2.361   0.091   0.877 -1.1854  0.4613 -1.9933
 2660SOL     OW 8325   3.354   3.022   1.452 -0.0018  0.5025 -0.6212
 2660SOL    HW1 8326   3.399   2.980   1.379 -1.4725 -1.1594 -0.6389
 2660SOL    HW2 8327   3.401   3.104   1.465  2.3760 -0.6696 -1.2493
 2661SOL     OW 8328   3.024   1.483   2.293 -0.1201 -0.9081  0.3624
 2661SOL    HW1 8329   2.976   1.407   2.324  0.1063 -0.5548  1.6216
 2661SOL    HW2 8330   2.988   1.557   2.342  0.7376 -0.4404  0.3226
 2662SOL     OW 8331   0.383   1.013   2.782  0.2679  0.0434 -0.0521
 2662SOL    HW1 8332   0.429   1.068   2.719  0.5325  1.2865  1.1598
 2662SOL    HW2 8333   0.347   0.941   2.731  0.7660  0.8223 -1.5411
 2663SOL     OW 8334   0.355   1.611   1.429 -0.0803  0.2105  0.2636
 2663SOL    HW1 8335   0.265   1.638   1.451 -0.4497 -0.8595  0.1203
 2663SOL    HW2 8336   0.389   1.573   1.510  1.1131  2.7034  1.0389
 2664SOL     OW 8337   1.642   1.467   2.906  0.5084 -0.1325  0.1089
 2664SOL    HW1 8338   1.595   1.454   2.824  1.5606  0.6121 -0.6375
 2664SOL    HW2 8339   1.602   1.545   2.945 -0.1449 -0.6196  0.4311
 2665SOL     OW 8340   1.700   3.659   4.334 -0.4485  0.2761  0.0791
 2665SOL    HW1 8341   1.779   3.607   4.319 -0.4817  0.5013 -0.9236
 2665SOL    HW2 8342   1.731   3.742   4.370 -0.2834  0.1192  0.3008
 2666SOL     OW 8343   4.002   1.136   1.881 -0.1185  0.0124  0.1082
 2666SOL    HW1 8344   3.941   1.118   1.952  1.2472 -1.7722  0.8878
 2666SOL    HW2 8345   4.033   1.225   1.898 -2.4000  0.9671 -0.3022
 2667SOL     OW 8346   3.368   2.432   4.347 -0.9352  0.1715  0.8459
 2667SOL    HW1 8347   3.306   2.482   4.399 -1.2029  0.8546 -0.1071
 2667SOL    HW2 8348   3.428   2.497   4.311 -0.9789 -0.2378  0.0031
 2668SOL     OW 8349   1.398   1.453   0.218 -0.2965 -0.3773  0.4366
 2668SOL    HW1 8350   1.422   1.406   0.138 -0.1312  0.2466  0.1148
 2668SOL    HW2 8351   1.432   1.541   0.206 -1.5023  0.1340  0.5863
 2669SOL     OW 8352   0.713   1.552   2.722  0.3237 -0.3936 -0.0049
 2669SOL    HW1 8353   0.657   1.592   2.789 -0.1825 -1.9888  0.5720
 2669SOL    HW2 8354   0.672   1.576   2.639  0.0828  0.3296  0.3180
 2670SOL     OW 8355   2.817   3.782   4.335 -0.0678  0.4243 -0.1780
 2670SOL    HW1 8356   2.838   3.802   4.427 -0.8362  0.0878  0.0856
 2670SOL    HW2 8357   2.891   3.816   4.285 -0.4219  2.1581  0.4100
 2671SOL     OW 8358   1.838   1.444   0.507 -0.1993 -0.4893 -0.4577
 2671SOL    HW1 8359   1.753   1.457   0.467 -1.0855 -2.4584  0.6399
 2671SOL    HW2 8360   1.819   1.425   0.599  1.5360  0.5498  0.1720
 2672SOL     OW 8361   2.909   3.802   1.968  0.2570 -0.0550 -0.3897
 2672SOL    HW1 8362   2.868   3.810   1.881  0.9113  1.9460 -0.5827
 2672SOL    HW2 8363   2.836   3.808   2.029 -0.0426  0.3579 -0.7763
 2673SOL     OW 8364   0.768   0.485   2.280  0.5951 -0.1530  0.1551
 2673SOL    HW1 8365   0.861   0.506   2.292  0.5563  0.1139  0.0121
 2673SOL    HW2 8366   0.725   0.571   2.276  0.5136 -0.2334 -1.0966
 2674SOL     OW 8367   1.159   2.134   2.894  0.1648  0.0215 -0.5423
 2674SOL    HW1 8368   1.254   2.136   2.900  0.2724 -0.7949 -1.6881
 2674SOL    HW2 8369   1.135   2.044   2.914 -0.3946  0.2725 -0.0461
 2675SOL     OW 8370   2.773   3.530   0.126 -0.2263  0.0687  0.3236
 2675SOL    HW1 8371   2.679   3.533   0.144 -0.2077 -1.6160  0.9308
 2675SOL    HW2 8372   2.789   3.605   0.069 -1.9926  0.2137 -0.0490
 2676SOL     OW 8373   3.954   3.440   0.070  0.1440 -0.4307 -0.2346
 2676SOL    HW1 8374   3.874   3.388   0.061 -0.4218  0.5786 -1.2916
 2676SOL    HW2 8375   4.009   3.413  -0.003  0.5687 -0.7530  0.1971
 2677SOL     OW 8376   1.681   2.056   1.233 -0.2902 -0.0978  0.0310
 2677SOL    HW1 8377   1.729   2.131   1.266  1.7418 -0.7656 -1.1979
 2677SOL    HW2 8378   1.650   2.083   1.146  0.5620 -0.6853 -0.4731
 2678SOL     OW 8379   4.006   1.420   3.289 -0.0868  0.2912  0.1671
 2678SOL    HW1 8380   3.997   1.325   3.278  0.9463  0.1807  0.2274
 2678SOL    HW2 8381   3.967   1.456   3.209  0.8185 -0.2484 -0.5404
 2679SOL     OW 8382   0.219   3.372   1.927  0.0932  0.6555  0.0606
 2679SOL    HW1 8383   0.200   3.393   1.836 -1.4767 -0.7684  0.0149
 2679SOL    HW2 8384   0.204   3.278   1.935 -0.4635  0.8431  1.9219
 2680SOL     OW 8385   1.766   1.045   2.136 -0.3065  0.1688 -0.2169
 2680SOL    HW1 8386   1.841   1.048   2.077 -0.2509  0.0977 -0.1503
 2680SOL    HW2 8387   1.703   1.106   2.098  0.1367  0.8945  0.2100
 2681SOL     OW 8388   0.460   1.260   0.158  0.1766 -0.3951  0.7374
 2681SOL    HW1 8389   0.452   1.212   0.076 -0.6040  0.8323  0.0553
 2681SOL    HW2 8390   0.533   1.218   0.203  1.8098 -0.0019 -1.3582
 2682SOL     OW 8391   4.156   3.240   0.140 -0.0343  0.2645  0.7307
 2682SOL    HW1 8392   4.128   3.202   0.056  1.3489  0.9546 -0.0677
 2682SOL    HW2 8393   4.096   3.314   0.153  0.0098  0.4115  0.1391
 2683SOL     OW 8394   4.370   1.599   0.392  0.5587 -0.1186 -0.0238
 2683SOL    HW1 8395   4.305   1.610   0.323 -0.7488  0.4367  1.2268
 2683SOL    HW2 8396   4.366   1.506   0.415 -0.9825  0.1885  1.1015
 2684SOL     OW 8397   2.639   1.456   2.220  0.3120  0.6058  0.0830
 2684SOL    HW1 8398   2.710   1.395   2.197 -0.5771 -0.5945  0.4281
 2684SOL    HW2 8399   2.632   1.449   2.315 -0.2926  0.6878  0.0444
 2685SOL     OW 8400   1.536   3.456   3.022 -0.6550 -0.0336  0.2871
 2685SOL    HW1 8401   1.529   3.438   2.928 -0.1622 -0.3316  0.3088
 2685SOL    HW2 8402   1.572   3.544   3.027 -0.6612 -0.0259  0.1993
 2686SOL     OW 8403   2.842   1.191   1.335  0.0077  0.2433 -0.0214
 2686SOL    HW1 8404   2.911   1.157   1.392  0.5934  0.2481 -0.7120
 2686SOL    HW2 8405   2.779   1.119   1.330  1.2314 -0.7950 -1.4543
 2687SOL     OW 8406   1.283   0.727   3.477  0.0268  0.1344 -0.3292
 2687SOL    HW1 8407   1.258   0.810   3.517  0.7432  0.0134  0.3942
 2687SOL    HW2 8408   1.332   0.681   3.545  0.7005 -0.3595 -1.1263
 2688SOL     OW 8409   1.545   0.680   1.690  0.1884  0.3330  0.1130
 2688SOL    HW1 8410   1.496   0.700   1.770 -0.4425 -1.1648  0.1307
 2688SOL    HW2 8411   1.631   0.721   1.705 -0.7262  2.2661  0.4345
 2689SOL     OW 8412   4.224   2.222   3.902 -0.0553 -0.2595 -0.1405
 2689SOL    HW1 8413   4.186   2.182   3.981 -0.3293 -1.4593 -0.8663
 2689SOL    HW2 8414   4.149   2.250   3.851  0.1305  0.8292  0.1647
 2690SOL     OW 8415   0.189   0.537   2.179 -0.0142 -0.2663 -0.0976
 2690SOL    HW1 8416   0.125   0.583   2.233 -0.2839 -0.8665  0.1058
 2690SOL    HW2 8417   0.191   0.586   2.097 -0.1119  0.2493  0.2096
 2691SOL     OW 8418   0.271   3.348   3.657 -0.2741  0.3857  0.5210
 2691SOL    HW1 8419   0.245   3.318   3.744 -1.0928  0.6859  0.3924
 2691SOL    HW2 8420   0.359   3.383   3.668  0.7459 -2.0522  0.6804
 2692SOL     OW 8421   2.626   3.072   3.896 -0.1761 -0.3880 -0.1979
 2692SOL    HW1 8422   2.634   3.142   3.831 -2.5997 -0.9052 -1.1877
 2692SOL    HW2 8423   2.599   3.116   3.976  0.2691  0.0095 -0.2644
 2693NA      NA 8424   3.470   1.119   1.151 -0.0226  0.0894  0.4504
 2694NA      NA 8425   1.927   4.300   2.071 -0.0609 -0.1397  0.4034
 2695NA      NA 8426   3.156   0.932   0.265  0.0210 -0.5341  0.0468
 2696NA      NA 8427   3.425   0.368   1.797 -0.0995  0.0282 -0.3653
 2697NA      NA 8428   0.820   4.067   0.089  0.0683 -0.0124 -0.2968
 2698NA      NA 8429   3.137   2.255   1.573 -0.5956 -0.2019 -0.0461
 2699NA      NA 8430   3.779   3.251   2.736 -0.0453 -0.1189 -0.1739
 2700NA      NA 8431   0.483   3.597   1.228 -0.2133  0.3392 -0.1925
 2701CL      CL 8432   4.318   2.393   2.878  0.3723  0.2661  0.1120
 2702CL      CL 8433   2.083   1.350   0.020  0.0835  0.1900  0.1887
 2703CL      CL 8434   1.341   1.201   3.302 -0.0133  0.1988 -0.0459
 2704CL      CL 8435   1.366   2.477   1.847  0.3535  0.0894 -0.0466
 2705CL      CL 8436   4.162   1.839   4.294  0.0830  0.1410  0.0898
 2706CL      CL 8437   2.934   0.169   3.261  0.1127  0.2330 -0.1376
 2707CL      CL 8438   3.380   2.306   1.532  0.5118 -0.1405  0.1473
 2708CL      CL 8439   0.439   1.081   4.287 -0.2353  0.0757  0.3743
 2709CL      CL 8440   0.083   0.421   1.459 -0.2381  0.0579  0.5793
 2710CL      CL 8441   3.290   3.498   1.204 -0.3547 -0.0008  0.0537
 2711CL      CL 8442   1.037   2.491   0.745  0.2101 -0.8581 -0.0680
 2712CL      CL 8443   1.566   3.380   1.571  0.2288 -0.1154  0.2293
 2713CL      CL 8444   0.893   2.384   3.501 -0.0479 -0.0291  0.5265
 2714CL      CL 8445   1.642   3.790   3.248  0.0784  0.4322 -0.3860
 2715CL      CL 8446   4.081   3.698   0.856 -0.0308 -0.1238  0.4330
 2716CL      CL 8447   0.996   0.528   1.187 -0.3093  0.0785  0.3442
 2717CL      CL 8448   3.704   3.167   3.717 -0.0347  0.2319 -0.1749
 2718CL      CL 8449   0.647   3.211   1.549 -0.3082 -0.0591  0.0184
 2719CL      CL 8450   0.481   3.245   0.501  0.3423  0.3156 -0.1103
 2720CL      CL 8451   3.438   0.998   2.965  0.1585 -0.2079  0.1587
 2721CL      CL 8452   2.614   1.575   4.191  0.1019 -0.2615 -0.3425
 2722CL      CL 8453   2.154   1.294   0.822  0.0631  0.3988 -0.0815
   4.37282   4.37282   4.37282
