;
;   File g3dpncore_petim.itp  was generated
;   By user: sairam (1000)
;   On host: sairam
;   At date: Tue. January  2 15:27:59 2025
;
;   This is a standalone topology file
;
;   Created by:
;   ParmEd:       amb2gro_top_gro.py, VERSION 3.4.1
;   Executable:   amb2gro_top_gro.py
;   Library dir:  /usr/local/gromacs/share/gromacs/top
;   Command line:
;     ./amb2gro_top_gro.py -p g3dpncore_petim.prmtop -c g3dpncore_petim.inpcrd -t g3dpncore_petim.itp -g g3dpncore_petim.gro -b g3dpncore_petim.pdb
;

;[ defaults ]
;; nbfunc        comb-rule       gen-pairs       fudgeLJ fudgeQQ
;1               2               yes             0.5          0.83333333  
;
;[ atomtypes ]
;; name    at.num    mass    charge ptype  sigma      epsilon
;n4             7  14.010000  0.00000000  A     0.32499985        0.71128
;c3             6  12.010000  0.00000000  A     0.33996695      0.4577296
;hx             1   1.008000  0.00000000  A     0.19599772      0.0656888
;hc             1   1.008000  0.00000000  A     0.26495328      0.0656888
;h1             1   1.008000  0.00000000  A      0.2471353      0.0656888
;hn             1   1.008000  0.00000000  A     0.10690785      0.0656888
;os             8  16.000000  0.00000000  A     0.30000123        0.71128


[ moleculetype ]
; Name            nrexcl
g3dpncore_petim          3

[ atoms ]
;   nr       type  resnr residue  atom   cgnr    charge       mass  typeB    chargeB      massB
; residue    1 aaa rtp aaa q 1.0
    1         n4      1    aaa     N1      1 -0.24795800  14.010000   ; qtot -0.247958
    2         c3      1    aaa     C1      2 0.15727100  12.010000   ; qtot -0.090687
    3         hx      1    aaa     H1      3 0.05072400   1.008000   ; qtot -0.039963
    4         hx      1    aaa     H2      4 0.05072400   1.008000   ; qtot 0.010761
    5         c3      1    aaa     C2      5 0.15727100  12.010000   ; qtot 0.168032
    6         hx      1    aaa     H3      6 0.05072400   1.008000   ; qtot 0.218756
    7         hx      1    aaa     H4      7 0.05072400   1.008000   ; qtot 0.269480
    8         c3      1    aaa     C3      8 0.15727100  12.010000   ; qtot 0.426751
    9         hx      1    aaa     H5      9 0.05072400   1.008000   ; qtot 0.477475
   10         hx      1    aaa     H6     10 0.05072400   1.008000   ; qtot 0.528199
   11         c3      1    aaa     C4     11 0.05437700  12.010000   ; qtot 0.582576
   12         hc      1    aaa     H7     12 0.07708700   1.008000   ; qtot 0.659663
   13         hc      1    aaa     H8     13 0.07708700   1.008000   ; qtot 0.736750
   14         c3      1    aaa     C5     14 0.05437700  12.010000   ; qtot 0.791127
   15         hc      1    aaa     H9     15 0.07708700   1.008000   ; qtot 0.868214
   16         hc      1    aaa    H10     16 0.07708700   1.008000   ; qtot 0.945301
   17         c3      1    aaa     C6     17 0.05437700  12.010000   ; qtot 0.999678
   18         hc      1    aaa    H11     18 0.07708700   1.008000   ; qtot 1.076765
   19         hc      1    aaa    H12     19 0.07708700   1.008000   ; qtot 1.153852
   20         c3      1    aaa     C7     20 -0.74569400  12.010000   ; qtot 0.408158
   21         h1      1    aaa    H13     21 0.30837900   1.008000   ; qtot 0.716537
   22         h1      1    aaa    H14     22 0.30837900   1.008000   ; qtot 1.024916
   23         c3      1    aaa     C8     23 -0.74569400  12.010000   ; qtot 0.279222
   24         h1      1    aaa    H15     24 0.30837900   1.008000   ; qtot 0.587601
   25         h1      1    aaa    H16     25 0.30837900   1.008000   ; qtot 0.895980
   26         c3      1    aaa     C9     26 -0.74569400  12.010000   ; qtot 0.150286
   27         h1      1    aaa    H17     27 0.30837900   1.008000   ; qtot 0.458665
   28         h1      1    aaa    H18     28 0.30837900   1.008000   ; qtot 0.767044
   29         hn      1    aaa    H19     29 0.23295100   1.008000   ; qtot 0.999995
; residue    2 bbb rtp bbb q 1.0
   30         n4      2    bbb     N1     30 0.03726400  14.010000   ; qtot 1.037259
   31         c3      2    bbb     C1     31 -0.07020100  12.010000   ; qtot 0.967058
   32         hx      2    bbb     H1     32 0.12219000   1.008000   ; qtot 1.089248
   33         hx      2    bbb     H2     33 0.12219000   1.008000   ; qtot 1.211438
   34         c3      2    bbb     C2     34 -0.07020100  12.010000   ; qtot 1.141237
   35         hx      2    bbb     H3     35 0.12219000   1.008000   ; qtot 1.263427
   36         hx      2    bbb     H4     36 0.12219000   1.008000   ; qtot 1.385617
   37         c3      2    bbb     C3     37 -0.39007700  12.010000   ; qtot 0.995540
   38         hx      2    bbb     H5     38 0.14940300   1.008000   ; qtot 1.144943
   39         hx      2    bbb     H6     39 0.14940300   1.008000   ; qtot 1.294346
   40         c3      2    bbb     C4     40 0.18057300  12.010000   ; qtot 1.474919
   41         hc      2    bbb     H7     41 0.01788900   1.008000   ; qtot 1.492808
   42         hc      2    bbb     H8     42 0.01788900   1.008000   ; qtot 1.510697
   43         c3      2    bbb     C5     43 -0.11337700  12.010000   ; qtot 1.397320
   44         hc      2    bbb     H9     44 0.09515400   1.008000   ; qtot 1.492474
   45         hc      2    bbb    H10     45 0.09515400   1.008000   ; qtot 1.587628
   46         c3      2    bbb     C6     46 -0.11337700  12.010000   ; qtot 1.474251
   47         hc      2    bbb    H11     47 0.09515400   1.008000   ; qtot 1.569405
   48         hc      2    bbb    H12     48 0.09515400   1.008000   ; qtot 1.664559
   49         c3      2    bbb     C7     49 0.21842400  12.010000   ; qtot 1.882983
   50         h1      2    bbb    H13     50 0.04500300   1.008000   ; qtot 1.927986
   51         h1      2    bbb    H14     51 0.04500300   1.008000   ; qtot 1.972989
   52         c3      2    bbb     C8     52 -0.06455200  12.010000   ; qtot 1.908437
   53         h1      2    bbb    H15     53 0.13554100   1.008000   ; qtot 2.043978
   54         h1      2    bbb    H16     54 0.13554100   1.008000   ; qtot 2.179519
   55         c3      2    bbb     C9     55 -0.06455200  12.010000   ; qtot 2.114967
   56         h1      2    bbb    H17     56 0.13554100   1.008000   ; qtot 2.250508
   57         h1      2    bbb    H18     57 0.13554100   1.008000   ; qtot 2.386049
   58         os      2    bbb     O1     58 -0.62587700  16.000000   ; qtot 1.760172
   59         hn      2    bbb    H19     59 0.23982500   1.008000   ; qtot 1.999997
; residue    3 bbb rtp bbb q 1.0
   60         n4      3    bbb     N1     60 0.03726400  14.010000   ; qtot 2.037261
   61         c3      3    bbb     C1     61 -0.07020100  12.010000   ; qtot 1.967060
   62         hx      3    bbb     H1     62 0.12219000   1.008000   ; qtot 2.089250
   63         hx      3    bbb     H2     63 0.12219000   1.008000   ; qtot 2.211440
   64         c3      3    bbb     C2     64 -0.07020100  12.010000   ; qtot 2.141239
   65         hx      3    bbb     H3     65 0.12219000   1.008000   ; qtot 2.263429
   66         hx      3    bbb     H4     66 0.12219000   1.008000   ; qtot 2.385619
   67         c3      3    bbb     C3     67 -0.39007700  12.010000   ; qtot 1.995542
   68         hx      3    bbb     H5     68 0.14940300   1.008000   ; qtot 2.144945
   69         hx      3    bbb     H6     69 0.14940300   1.008000   ; qtot 2.294348
   70         c3      3    bbb     C4     70 0.18057300  12.010000   ; qtot 2.474921
   71         hc      3    bbb     H7     71 0.01788900   1.008000   ; qtot 2.492810
   72         hc      3    bbb     H8     72 0.01788900   1.008000   ; qtot 2.510699
   73         c3      3    bbb     C5     73 -0.11337700  12.010000   ; qtot 2.397322
   74         hc      3    bbb     H9     74 0.09515400   1.008000   ; qtot 2.492476
   75         hc      3    bbb    H10     75 0.09515400   1.008000   ; qtot 2.587630
   76         c3      3    bbb     C6     76 -0.11337700  12.010000   ; qtot 2.474253
   77         hc      3    bbb    H11     77 0.09515400   1.008000   ; qtot 2.569407
   78         hc      3    bbb    H12     78 0.09515400   1.008000   ; qtot 2.664561
   79         c3      3    bbb     C7     79 0.21842400  12.010000   ; qtot 2.882985
   80         h1      3    bbb    H13     80 0.04500300   1.008000   ; qtot 2.927988
   81         h1      3    bbb    H14     81 0.04500300   1.008000   ; qtot 2.972991
   82         c3      3    bbb     C8     82 -0.06455200  12.010000   ; qtot 2.908439
   83         h1      3    bbb    H15     83 0.13554100   1.008000   ; qtot 3.043980
   84         h1      3    bbb    H16     84 0.13554100   1.008000   ; qtot 3.179521
   85         c3      3    bbb     C9     85 -0.06455200  12.010000   ; qtot 3.114969
   86         h1      3    bbb    H17     86 0.13554100   1.008000   ; qtot 3.250510
   87         h1      3    bbb    H18     87 0.13554100   1.008000   ; qtot 3.386051
   88         os      3    bbb     O1     88 -0.62587700  16.000000   ; qtot 2.760174
   89         hn      3    bbb    H19     89 0.23982500   1.008000   ; qtot 2.999999
; residue    4 bbb rtp bbb q 1.0
   90         n4      4    bbb     N1     90 0.03726400  14.010000   ; qtot 3.037263
   91         c3      4    bbb     C1     91 -0.07020100  12.010000   ; qtot 2.967062
   92         hx      4    bbb     H1     92 0.12219000   1.008000   ; qtot 3.089252
   93         hx      4    bbb     H2     93 0.12219000   1.008000   ; qtot 3.211442
   94         c3      4    bbb     C2     94 -0.07020100  12.010000   ; qtot 3.141241
   95         hx      4    bbb     H3     95 0.12219000   1.008000   ; qtot 3.263431
   96         hx      4    bbb     H4     96 0.12219000   1.008000   ; qtot 3.385621
   97         c3      4    bbb     C3     97 -0.39007700  12.010000   ; qtot 2.995544
   98         hx      4    bbb     H5     98 0.14940300   1.008000   ; qtot 3.144947
   99         hx      4    bbb     H6     99 0.14940300   1.008000   ; qtot 3.294350
  100         c3      4    bbb     C4    100 0.18057300  12.010000   ; qtot 3.474923
  101         hc      4    bbb     H7    101 0.01788900   1.008000   ; qtot 3.492812
  102         hc      4    bbb     H8    102 0.01788900   1.008000   ; qtot 3.510701
  103         c3      4    bbb     C5    103 -0.11337700  12.010000   ; qtot 3.397324
  104         hc      4    bbb     H9    104 0.09515400   1.008000   ; qtot 3.492478
  105         hc      4    bbb    H10    105 0.09515400   1.008000   ; qtot 3.587632
  106         c3      4    bbb     C6    106 -0.11337700  12.010000   ; qtot 3.474255
  107         hc      4    bbb    H11    107 0.09515400   1.008000   ; qtot 3.569409
  108         hc      4    bbb    H12    108 0.09515400   1.008000   ; qtot 3.664563
  109         c3      4    bbb     C7    109 0.21842400  12.010000   ; qtot 3.882987
  110         h1      4    bbb    H13    110 0.04500300   1.008000   ; qtot 3.927990
  111         h1      4    bbb    H14    111 0.04500300   1.008000   ; qtot 3.972993
  112         c3      4    bbb     C8    112 -0.06455200  12.010000   ; qtot 3.908441
  113         h1      4    bbb    H15    113 0.13554100   1.008000   ; qtot 4.043982
  114         h1      4    bbb    H16    114 0.13554100   1.008000   ; qtot 4.179523
  115         c3      4    bbb     C9    115 -0.06455200  12.010000   ; qtot 4.114971
  116         h1      4    bbb    H17    116 0.13554100   1.008000   ; qtot 4.250512
  117         h1      4    bbb    H18    117 0.13554100   1.008000   ; qtot 4.386053
  118         os      4    bbb     O1    118 -0.62587700  16.000000   ; qtot 3.760176
  119         hn      4    bbb    H19    119 0.23982500   1.008000   ; qtot 4.000001
; residue    5 bbb rtp bbb q 1.0
  120         n4      5    bbb     N1    120 0.03726400  14.010000   ; qtot 4.037265
  121         c3      5    bbb     C1    121 -0.07020100  12.010000   ; qtot 3.967064
  122         hx      5    bbb     H1    122 0.12219000   1.008000   ; qtot 4.089254
  123         hx      5    bbb     H2    123 0.12219000   1.008000   ; qtot 4.211444
  124         c3      5    bbb     C2    124 -0.07020100  12.010000   ; qtot 4.141243
  125         hx      5    bbb     H3    125 0.12219000   1.008000   ; qtot 4.263433
  126         hx      5    bbb     H4    126 0.12219000   1.008000   ; qtot 4.385623
  127         c3      5    bbb     C3    127 -0.39007700  12.010000   ; qtot 3.995546
  128         hx      5    bbb     H5    128 0.14940300   1.008000   ; qtot 4.144949
  129         hx      5    bbb     H6    129 0.14940300   1.008000   ; qtot 4.294352
  130         c3      5    bbb     C4    130 0.18057300  12.010000   ; qtot 4.474925
  131         hc      5    bbb     H7    131 0.01788900   1.008000   ; qtot 4.492814
  132         hc      5    bbb     H8    132 0.01788900   1.008000   ; qtot 4.510703
  133         c3      5    bbb     C5    133 -0.11337700  12.010000   ; qtot 4.397326
  134         hc      5    bbb     H9    134 0.09515400   1.008000   ; qtot 4.492480
  135         hc      5    bbb    H10    135 0.09515400   1.008000   ; qtot 4.587634
  136         c3      5    bbb     C6    136 -0.11337700  12.010000   ; qtot 4.474257
  137         hc      5    bbb    H11    137 0.09515400   1.008000   ; qtot 4.569411
  138         hc      5    bbb    H12    138 0.09515400   1.008000   ; qtot 4.664565
  139         c3      5    bbb     C7    139 0.21842400  12.010000   ; qtot 4.882989
  140         h1      5    bbb    H13    140 0.04500300   1.008000   ; qtot 4.927992
  141         h1      5    bbb    H14    141 0.04500300   1.008000   ; qtot 4.972995
  142         c3      5    bbb     C8    142 -0.06455200  12.010000   ; qtot 4.908443
  143         h1      5    bbb    H15    143 0.13554100   1.008000   ; qtot 5.043984
  144         h1      5    bbb    H16    144 0.13554100   1.008000   ; qtot 5.179525
  145         c3      5    bbb     C9    145 -0.06455200  12.010000   ; qtot 5.114973
  146         h1      5    bbb    H17    146 0.13554100   1.008000   ; qtot 5.250514
  147         h1      5    bbb    H18    147 0.13554100   1.008000   ; qtot 5.386055
  148         os      5    bbb     O1    148 -0.62587700  16.000000   ; qtot 4.760178
  149         hn      5    bbb    H19    149 0.23982500   1.008000   ; qtot 5.000003
; residue    6 bbb rtp bbb q 1.0
  150         n4      6    bbb     N1    150 0.03726400  14.010000   ; qtot 5.037267
  151         c3      6    bbb     C1    151 -0.07020100  12.010000   ; qtot 4.967066
  152         hx      6    bbb     H1    152 0.12219000   1.008000   ; qtot 5.089256
  153         hx      6    bbb     H2    153 0.12219000   1.008000   ; qtot 5.211446
  154         c3      6    bbb     C2    154 -0.07020100  12.010000   ; qtot 5.141245
  155         hx      6    bbb     H3    155 0.12219000   1.008000   ; qtot 5.263435
  156         hx      6    bbb     H4    156 0.12219000   1.008000   ; qtot 5.385625
  157         c3      6    bbb     C3    157 -0.39007700  12.010000   ; qtot 4.995548
  158         hx      6    bbb     H5    158 0.14940300   1.008000   ; qtot 5.144951
  159         hx      6    bbb     H6    159 0.14940300   1.008000   ; qtot 5.294354
  160         c3      6    bbb     C4    160 0.18057300  12.010000   ; qtot 5.474927
  161         hc      6    bbb     H7    161 0.01788900   1.008000   ; qtot 5.492816
  162         hc      6    bbb     H8    162 0.01788900   1.008000   ; qtot 5.510705
  163         c3      6    bbb     C5    163 -0.11337700  12.010000   ; qtot 5.397328
  164         hc      6    bbb     H9    164 0.09515400   1.008000   ; qtot 5.492482
  165         hc      6    bbb    H10    165 0.09515400   1.008000   ; qtot 5.587636
  166         c3      6    bbb     C6    166 -0.11337700  12.010000   ; qtot 5.474259
  167         hc      6    bbb    H11    167 0.09515400   1.008000   ; qtot 5.569413
  168         hc      6    bbb    H12    168 0.09515400   1.008000   ; qtot 5.664567
  169         c3      6    bbb     C7    169 0.21842400  12.010000   ; qtot 5.882991
  170         h1      6    bbb    H13    170 0.04500300   1.008000   ; qtot 5.927994
  171         h1      6    bbb    H14    171 0.04500300   1.008000   ; qtot 5.972997
  172         c3      6    bbb     C8    172 -0.06455200  12.010000   ; qtot 5.908445
  173         h1      6    bbb    H15    173 0.13554100   1.008000   ; qtot 6.043986
  174         h1      6    bbb    H16    174 0.13554100   1.008000   ; qtot 6.179527
  175         c3      6    bbb     C9    175 -0.06455200  12.010000   ; qtot 6.114975
  176         h1      6    bbb    H17    176 0.13554100   1.008000   ; qtot 6.250516
  177         h1      6    bbb    H18    177 0.13554100   1.008000   ; qtot 6.386057
  178         os      6    bbb     O1    178 -0.62587700  16.000000   ; qtot 5.760180
  179         hn      6    bbb    H19    179 0.23982500   1.008000   ; qtot 6.000005
; residue    7 bbb rtp bbb q 1.0
  180         n4      7    bbb     N1    180 0.03726400  14.010000   ; qtot 6.037269
  181         c3      7    bbb     C1    181 -0.07020100  12.010000   ; qtot 5.967068
  182         hx      7    bbb     H1    182 0.12219000   1.008000   ; qtot 6.089258
  183         hx      7    bbb     H2    183 0.12219000   1.008000   ; qtot 6.211448
  184         c3      7    bbb     C2    184 -0.07020100  12.010000   ; qtot 6.141247
  185         hx      7    bbb     H3    185 0.12219000   1.008000   ; qtot 6.263437
  186         hx      7    bbb     H4    186 0.12219000   1.008000   ; qtot 6.385627
  187         c3      7    bbb     C3    187 -0.39007700  12.010000   ; qtot 5.995550
  188         hx      7    bbb     H5    188 0.14940300   1.008000   ; qtot 6.144953
  189         hx      7    bbb     H6    189 0.14940300   1.008000   ; qtot 6.294356
  190         c3      7    bbb     C4    190 0.18057300  12.010000   ; qtot 6.474929
  191         hc      7    bbb     H7    191 0.01788900   1.008000   ; qtot 6.492818
  192         hc      7    bbb     H8    192 0.01788900   1.008000   ; qtot 6.510707
  193         c3      7    bbb     C5    193 -0.11337700  12.010000   ; qtot 6.397330
  194         hc      7    bbb     H9    194 0.09515400   1.008000   ; qtot 6.492484
  195         hc      7    bbb    H10    195 0.09515400   1.008000   ; qtot 6.587638
  196         c3      7    bbb     C6    196 -0.11337700  12.010000   ; qtot 6.474261
  197         hc      7    bbb    H11    197 0.09515400   1.008000   ; qtot 6.569415
  198         hc      7    bbb    H12    198 0.09515400   1.008000   ; qtot 6.664569
  199         c3      7    bbb     C7    199 0.21842400  12.010000   ; qtot 6.882993
  200         h1      7    bbb    H13    200 0.04500300   1.008000   ; qtot 6.927996
  201         h1      7    bbb    H14    201 0.04500300   1.008000   ; qtot 6.972999
  202         c3      7    bbb     C8    202 -0.06455200  12.010000   ; qtot 6.908447
  203         h1      7    bbb    H15    203 0.13554100   1.008000   ; qtot 7.043988
  204         h1      7    bbb    H16    204 0.13554100   1.008000   ; qtot 7.179529
  205         c3      7    bbb     C9    205 -0.06455200  12.010000   ; qtot 7.114977
  206         h1      7    bbb    H17    206 0.13554100   1.008000   ; qtot 7.250518
  207         h1      7    bbb    H18    207 0.13554100   1.008000   ; qtot 7.386059
  208         os      7    bbb     O1    208 -0.62587700  16.000000   ; qtot 6.760182
  209         hn      7    bbb    H19    209 0.23982500   1.008000   ; qtot 7.000007
; residue    8 bbb rtp bbb q 1.0
  210         n4      8    bbb     N1    210 0.03726400  14.010000   ; qtot 7.037271
  211         c3      8    bbb     C1    211 -0.07020100  12.010000   ; qtot 6.967070
  212         hx      8    bbb     H1    212 0.12219000   1.008000   ; qtot 7.089260
  213         hx      8    bbb     H2    213 0.12219000   1.008000   ; qtot 7.211450
  214         c3      8    bbb     C2    214 -0.07020100  12.010000   ; qtot 7.141249
  215         hx      8    bbb     H3    215 0.12219000   1.008000   ; qtot 7.263439
  216         hx      8    bbb     H4    216 0.12219000   1.008000   ; qtot 7.385629
  217         c3      8    bbb     C3    217 -0.39007700  12.010000   ; qtot 6.995552
  218         hx      8    bbb     H5    218 0.14940300   1.008000   ; qtot 7.144955
  219         hx      8    bbb     H6    219 0.14940300   1.008000   ; qtot 7.294358
  220         c3      8    bbb     C4    220 0.18057300  12.010000   ; qtot 7.474931
  221         hc      8    bbb     H7    221 0.01788900   1.008000   ; qtot 7.492820
  222         hc      8    bbb     H8    222 0.01788900   1.008000   ; qtot 7.510709
  223         c3      8    bbb     C5    223 -0.11337700  12.010000   ; qtot 7.397332
  224         hc      8    bbb     H9    224 0.09515400   1.008000   ; qtot 7.492486
  225         hc      8    bbb    H10    225 0.09515400   1.008000   ; qtot 7.587640
  226         c3      8    bbb     C6    226 -0.11337700  12.010000   ; qtot 7.474263
  227         hc      8    bbb    H11    227 0.09515400   1.008000   ; qtot 7.569417
  228         hc      8    bbb    H12    228 0.09515400   1.008000   ; qtot 7.664571
  229         c3      8    bbb     C7    229 0.21842400  12.010000   ; qtot 7.882995
  230         h1      8    bbb    H13    230 0.04500300   1.008000   ; qtot 7.927998
  231         h1      8    bbb    H14    231 0.04500300   1.008000   ; qtot 7.973001
  232         c3      8    bbb     C8    232 -0.06455200  12.010000   ; qtot 7.908449
  233         h1      8    bbb    H15    233 0.13554100   1.008000   ; qtot 8.043990
  234         h1      8    bbb    H16    234 0.13554100   1.008000   ; qtot 8.179531
  235         c3      8    bbb     C9    235 -0.06455200  12.010000   ; qtot 8.114979
  236         h1      8    bbb    H17    236 0.13554100   1.008000   ; qtot 8.250520
  237         h1      8    bbb    H18    237 0.13554100   1.008000   ; qtot 8.386061
  238         os      8    bbb     O1    238 -0.62587700  16.000000   ; qtot 7.760184
  239         hn      8    bbb    H19    239 0.23982500   1.008000   ; qtot 8.000009
; residue    9 bbb rtp bbb q 1.0
  240         n4      9    bbb     N1    240 0.03726400  14.010000   ; qtot 8.037273
  241         c3      9    bbb     C1    241 -0.07020100  12.010000   ; qtot 7.967072
  242         hx      9    bbb     H1    242 0.12219000   1.008000   ; qtot 8.089262
  243         hx      9    bbb     H2    243 0.12219000   1.008000   ; qtot 8.211452
  244         c3      9    bbb     C2    244 -0.07020100  12.010000   ; qtot 8.141251
  245         hx      9    bbb     H3    245 0.12219000   1.008000   ; qtot 8.263441
  246         hx      9    bbb     H4    246 0.12219000   1.008000   ; qtot 8.385631
  247         c3      9    bbb     C3    247 -0.39007700  12.010000   ; qtot 7.995554
  248         hx      9    bbb     H5    248 0.14940300   1.008000   ; qtot 8.144957
  249         hx      9    bbb     H6    249 0.14940300   1.008000   ; qtot 8.294360
  250         c3      9    bbb     C4    250 0.18057300  12.010000   ; qtot 8.474933
  251         hc      9    bbb     H7    251 0.01788900   1.008000   ; qtot 8.492822
  252         hc      9    bbb     H8    252 0.01788900   1.008000   ; qtot 8.510711
  253         c3      9    bbb     C5    253 -0.11337700  12.010000   ; qtot 8.397334
  254         hc      9    bbb     H9    254 0.09515400   1.008000   ; qtot 8.492488
  255         hc      9    bbb    H10    255 0.09515400   1.008000   ; qtot 8.587642
  256         c3      9    bbb     C6    256 -0.11337700  12.010000   ; qtot 8.474265
  257         hc      9    bbb    H11    257 0.09515400   1.008000   ; qtot 8.569419
  258         hc      9    bbb    H12    258 0.09515400   1.008000   ; qtot 8.664573
  259         c3      9    bbb     C7    259 0.21842400  12.010000   ; qtot 8.882997
  260         h1      9    bbb    H13    260 0.04500300   1.008000   ; qtot 8.928000
  261         h1      9    bbb    H14    261 0.04500300   1.008000   ; qtot 8.973003
  262         c3      9    bbb     C8    262 -0.06455200  12.010000   ; qtot 8.908451
  263         h1      9    bbb    H15    263 0.13554100   1.008000   ; qtot 9.043992
  264         h1      9    bbb    H16    264 0.13554100   1.008000   ; qtot 9.179533
  265         c3      9    bbb     C9    265 -0.06455200  12.010000   ; qtot 9.114981
  266         h1      9    bbb    H17    266 0.13554100   1.008000   ; qtot 9.250522
  267         h1      9    bbb    H18    267 0.13554100   1.008000   ; qtot 9.386063
  268         os      9    bbb     O1    268 -0.62587700  16.000000   ; qtot 8.760186
  269         hn      9    bbb    H19    269 0.23982500   1.008000   ; qtot 9.000011
; residue   10 bbb rtp bbb q 1.0
  270         n4     10    bbb     N1    270 0.03726400  14.010000   ; qtot 9.037275
  271         c3     10    bbb     C1    271 -0.07020100  12.010000   ; qtot 8.967074
  272         hx     10    bbb     H1    272 0.12219000   1.008000   ; qtot 9.089264
  273         hx     10    bbb     H2    273 0.12219000   1.008000   ; qtot 9.211454
  274         c3     10    bbb     C2    274 -0.07020100  12.010000   ; qtot 9.141253
  275         hx     10    bbb     H3    275 0.12219000   1.008000   ; qtot 9.263443
  276         hx     10    bbb     H4    276 0.12219000   1.008000   ; qtot 9.385633
  277         c3     10    bbb     C3    277 -0.39007700  12.010000   ; qtot 8.995556
  278         hx     10    bbb     H5    278 0.14940300   1.008000   ; qtot 9.144959
  279         hx     10    bbb     H6    279 0.14940300   1.008000   ; qtot 9.294362
  280         c3     10    bbb     C4    280 0.18057300  12.010000   ; qtot 9.474935
  281         hc     10    bbb     H7    281 0.01788900   1.008000   ; qtot 9.492824
  282         hc     10    bbb     H8    282 0.01788900   1.008000   ; qtot 9.510713
  283         c3     10    bbb     C5    283 -0.11337700  12.010000   ; qtot 9.397336
  284         hc     10    bbb     H9    284 0.09515400   1.008000   ; qtot 9.492490
  285         hc     10    bbb    H10    285 0.09515400   1.008000   ; qtot 9.587644
  286         c3     10    bbb     C6    286 -0.11337700  12.010000   ; qtot 9.474267
  287         hc     10    bbb    H11    287 0.09515400   1.008000   ; qtot 9.569421
  288         hc     10    bbb    H12    288 0.09515400   1.008000   ; qtot 9.664575
  289         c3     10    bbb     C7    289 0.21842400  12.010000   ; qtot 9.882999
  290         h1     10    bbb    H13    290 0.04500300   1.008000   ; qtot 9.928002
  291         h1     10    bbb    H14    291 0.04500300   1.008000   ; qtot 9.973005
  292         c3     10    bbb     C8    292 -0.06455200  12.010000   ; qtot 9.908453
  293         h1     10    bbb    H15    293 0.13554100   1.008000   ; qtot 10.043994
  294         h1     10    bbb    H16    294 0.13554100   1.008000   ; qtot 10.179535
  295         c3     10    bbb     C9    295 -0.06455200  12.010000   ; qtot 10.114983
  296         h1     10    bbb    H17    296 0.13554100   1.008000   ; qtot 10.250524
  297         h1     10    bbb    H18    297 0.13554100   1.008000   ; qtot 10.386065
  298         os     10    bbb     O1    298 -0.62587700  16.000000   ; qtot 9.760188
  299         hn     10    bbb    H19    299 0.23982500   1.008000   ; qtot 10.000013
; residue   11 bbb rtp bbb q 1.0
  300         n4     11    bbb     N1    300 0.03726400  14.010000   ; qtot 10.037277
  301         c3     11    bbb     C1    301 -0.07020100  12.010000   ; qtot 9.967076
  302         hx     11    bbb     H1    302 0.12219000   1.008000   ; qtot 10.089266
  303         hx     11    bbb     H2    303 0.12219000   1.008000   ; qtot 10.211456
  304         c3     11    bbb     C2    304 -0.07020100  12.010000   ; qtot 10.141255
  305         hx     11    bbb     H3    305 0.12219000   1.008000   ; qtot 10.263445
  306         hx     11    bbb     H4    306 0.12219000   1.008000   ; qtot 10.385635
  307         c3     11    bbb     C3    307 -0.39007700  12.010000   ; qtot 9.995558
  308         hx     11    bbb     H5    308 0.14940300   1.008000   ; qtot 10.144961
  309         hx     11    bbb     H6    309 0.14940300   1.008000   ; qtot 10.294364
  310         c3     11    bbb     C4    310 0.18057300  12.010000   ; qtot 10.474937
  311         hc     11    bbb     H7    311 0.01788900   1.008000   ; qtot 10.492826
  312         hc     11    bbb     H8    312 0.01788900   1.008000   ; qtot 10.510715
  313         c3     11    bbb     C5    313 -0.11337700  12.010000   ; qtot 10.397338
  314         hc     11    bbb     H9    314 0.09515400   1.008000   ; qtot 10.492492
  315         hc     11    bbb    H10    315 0.09515400   1.008000   ; qtot 10.587646
  316         c3     11    bbb     C6    316 -0.11337700  12.010000   ; qtot 10.474269
  317         hc     11    bbb    H11    317 0.09515400   1.008000   ; qtot 10.569423
  318         hc     11    bbb    H12    318 0.09515400   1.008000   ; qtot 10.664577
  319         c3     11    bbb     C7    319 0.21842400  12.010000   ; qtot 10.883001
  320         h1     11    bbb    H13    320 0.04500300   1.008000   ; qtot 10.928004
  321         h1     11    bbb    H14    321 0.04500300   1.008000   ; qtot 10.973007
  322         c3     11    bbb     C8    322 -0.06455200  12.010000   ; qtot 10.908455
  323         h1     11    bbb    H15    323 0.13554100   1.008000   ; qtot 11.043996
  324         h1     11    bbb    H16    324 0.13554100   1.008000   ; qtot 11.179537
  325         c3     11    bbb     C9    325 -0.06455200  12.010000   ; qtot 11.114985
  326         h1     11    bbb    H17    326 0.13554100   1.008000   ; qtot 11.250526
  327         h1     11    bbb    H18    327 0.13554100   1.008000   ; qtot 11.386067
  328         os     11    bbb     O1    328 -0.62587700  16.000000   ; qtot 10.760190
  329         hn     11    bbb    H19    329 0.23982500   1.008000   ; qtot 11.000015
; residue   12 bbb rtp bbb q 1.0
  330         n4     12    bbb     N1    330 0.03726400  14.010000   ; qtot 11.037279
  331         c3     12    bbb     C1    331 -0.07020100  12.010000   ; qtot 10.967078
  332         hx     12    bbb     H1    332 0.12219000   1.008000   ; qtot 11.089268
  333         hx     12    bbb     H2    333 0.12219000   1.008000   ; qtot 11.211458
  334         c3     12    bbb     C2    334 -0.07020100  12.010000   ; qtot 11.141257
  335         hx     12    bbb     H3    335 0.12219000   1.008000   ; qtot 11.263447
  336         hx     12    bbb     H4    336 0.12219000   1.008000   ; qtot 11.385637
  337         c3     12    bbb     C3    337 -0.39007700  12.010000   ; qtot 10.995560
  338         hx     12    bbb     H5    338 0.14940300   1.008000   ; qtot 11.144963
  339         hx     12    bbb     H6    339 0.14940300   1.008000   ; qtot 11.294366
  340         c3     12    bbb     C4    340 0.18057300  12.010000   ; qtot 11.474939
  341         hc     12    bbb     H7    341 0.01788900   1.008000   ; qtot 11.492828
  342         hc     12    bbb     H8    342 0.01788900   1.008000   ; qtot 11.510717
  343         c3     12    bbb     C5    343 -0.11337700  12.010000   ; qtot 11.397340
  344         hc     12    bbb     H9    344 0.09515400   1.008000   ; qtot 11.492494
  345         hc     12    bbb    H10    345 0.09515400   1.008000   ; qtot 11.587648
  346         c3     12    bbb     C6    346 -0.11337700  12.010000   ; qtot 11.474271
  347         hc     12    bbb    H11    347 0.09515400   1.008000   ; qtot 11.569425
  348         hc     12    bbb    H12    348 0.09515400   1.008000   ; qtot 11.664579
  349         c3     12    bbb     C7    349 0.21842400  12.010000   ; qtot 11.883003
  350         h1     12    bbb    H13    350 0.04500300   1.008000   ; qtot 11.928006
  351         h1     12    bbb    H14    351 0.04500300   1.008000   ; qtot 11.973009
  352         c3     12    bbb     C8    352 -0.06455200  12.010000   ; qtot 11.908457
  353         h1     12    bbb    H15    353 0.13554100   1.008000   ; qtot 12.043998
  354         h1     12    bbb    H16    354 0.13554100   1.008000   ; qtot 12.179539
  355         c3     12    bbb     C9    355 -0.06455200  12.010000   ; qtot 12.114987
  356         h1     12    bbb    H17    356 0.13554100   1.008000   ; qtot 12.250528
  357         h1     12    bbb    H18    357 0.13554100   1.008000   ; qtot 12.386069
  358         os     12    bbb     O1    358 -0.62587700  16.000000   ; qtot 11.760192
  359         hn     12    bbb    H19    359 0.23982500   1.008000   ; qtot 12.000017
; residue   13 bbb rtp bbb q 1.0
  360         n4     13    bbb     N1    360 0.03726400  14.010000   ; qtot 12.037281
  361         c3     13    bbb     C1    361 -0.07020100  12.010000   ; qtot 11.967080
  362         hx     13    bbb     H1    362 0.12219000   1.008000   ; qtot 12.089270
  363         hx     13    bbb     H2    363 0.12219000   1.008000   ; qtot 12.211460
  364         c3     13    bbb     C2    364 -0.07020100  12.010000   ; qtot 12.141259
  365         hx     13    bbb     H3    365 0.12219000   1.008000   ; qtot 12.263449
  366         hx     13    bbb     H4    366 0.12219000   1.008000   ; qtot 12.385639
  367         c3     13    bbb     C3    367 -0.39007700  12.010000   ; qtot 11.995562
  368         hx     13    bbb     H5    368 0.14940300   1.008000   ; qtot 12.144965
  369         hx     13    bbb     H6    369 0.14940300   1.008000   ; qtot 12.294368
  370         c3     13    bbb     C4    370 0.18057300  12.010000   ; qtot 12.474941
  371         hc     13    bbb     H7    371 0.01788900   1.008000   ; qtot 12.492830
  372         hc     13    bbb     H8    372 0.01788900   1.008000   ; qtot 12.510719
  373         c3     13    bbb     C5    373 -0.11337700  12.010000   ; qtot 12.397342
  374         hc     13    bbb     H9    374 0.09515400   1.008000   ; qtot 12.492496
  375         hc     13    bbb    H10    375 0.09515400   1.008000   ; qtot 12.587650
  376         c3     13    bbb     C6    376 -0.11337700  12.010000   ; qtot 12.474273
  377         hc     13    bbb    H11    377 0.09515400   1.008000   ; qtot 12.569427
  378         hc     13    bbb    H12    378 0.09515400   1.008000   ; qtot 12.664581
  379         c3     13    bbb     C7    379 0.21842400  12.010000   ; qtot 12.883005
  380         h1     13    bbb    H13    380 0.04500300   1.008000   ; qtot 12.928008
  381         h1     13    bbb    H14    381 0.04500300   1.008000   ; qtot 12.973011
  382         c3     13    bbb     C8    382 -0.06455200  12.010000   ; qtot 12.908459
  383         h1     13    bbb    H15    383 0.13554100   1.008000   ; qtot 13.044000
  384         h1     13    bbb    H16    384 0.13554100   1.008000   ; qtot 13.179541
  385         c3     13    bbb     C9    385 -0.06455200  12.010000   ; qtot 13.114989
  386         h1     13    bbb    H17    386 0.13554100   1.008000   ; qtot 13.250530
  387         h1     13    bbb    H18    387 0.13554100   1.008000   ; qtot 13.386071
  388         os     13    bbb     O1    388 -0.62587700  16.000000   ; qtot 12.760194
  389         hn     13    bbb    H19    389 0.23982500   1.008000   ; qtot 13.000019
; residue   14 bbb rtp bbb q 1.0
  390         n4     14    bbb     N1    390 0.03726400  14.010000   ; qtot 13.037283
  391         c3     14    bbb     C1    391 -0.07020100  12.010000   ; qtot 12.967082
  392         hx     14    bbb     H1    392 0.12219000   1.008000   ; qtot 13.089272
  393         hx     14    bbb     H2    393 0.12219000   1.008000   ; qtot 13.211462
  394         c3     14    bbb     C2    394 -0.07020100  12.010000   ; qtot 13.141261
  395         hx     14    bbb     H3    395 0.12219000   1.008000   ; qtot 13.263451
  396         hx     14    bbb     H4    396 0.12219000   1.008000   ; qtot 13.385641
  397         c3     14    bbb     C3    397 -0.39007700  12.010000   ; qtot 12.995564
  398         hx     14    bbb     H5    398 0.14940300   1.008000   ; qtot 13.144967
  399         hx     14    bbb     H6    399 0.14940300   1.008000   ; qtot 13.294370
  400         c3     14    bbb     C4    400 0.18057300  12.010000   ; qtot 13.474943
  401         hc     14    bbb     H7    401 0.01788900   1.008000   ; qtot 13.492832
  402         hc     14    bbb     H8    402 0.01788900   1.008000   ; qtot 13.510721
  403         c3     14    bbb     C5    403 -0.11337700  12.010000   ; qtot 13.397344
  404         hc     14    bbb     H9    404 0.09515400   1.008000   ; qtot 13.492498
  405         hc     14    bbb    H10    405 0.09515400   1.008000   ; qtot 13.587652
  406         c3     14    bbb     C6    406 -0.11337700  12.010000   ; qtot 13.474275
  407         hc     14    bbb    H11    407 0.09515400   1.008000   ; qtot 13.569429
  408         hc     14    bbb    H12    408 0.09515400   1.008000   ; qtot 13.664583
  409         c3     14    bbb     C7    409 0.21842400  12.010000   ; qtot 13.883007
  410         h1     14    bbb    H13    410 0.04500300   1.008000   ; qtot 13.928010
  411         h1     14    bbb    H14    411 0.04500300   1.008000   ; qtot 13.973013
  412         c3     14    bbb     C8    412 -0.06455200  12.010000   ; qtot 13.908461
  413         h1     14    bbb    H15    413 0.13554100   1.008000   ; qtot 14.044002
  414         h1     14    bbb    H16    414 0.13554100   1.008000   ; qtot 14.179543
  415         c3     14    bbb     C9    415 -0.06455200  12.010000   ; qtot 14.114991
  416         h1     14    bbb    H17    416 0.13554100   1.008000   ; qtot 14.250532
  417         h1     14    bbb    H18    417 0.13554100   1.008000   ; qtot 14.386073
  418         os     14    bbb     O1    418 -0.62587700  16.000000   ; qtot 13.760196
  419         hn     14    bbb    H19    419 0.23982500   1.008000   ; qtot 14.000021
; residue   15 bbb rtp bbb q 1.0
  420         n4     15    bbb     N1    420 0.03726400  14.010000   ; qtot 14.037285
  421         c3     15    bbb     C1    421 -0.07020100  12.010000   ; qtot 13.967084
  422         hx     15    bbb     H1    422 0.12219000   1.008000   ; qtot 14.089274
  423         hx     15    bbb     H2    423 0.12219000   1.008000   ; qtot 14.211464
  424         c3     15    bbb     C2    424 -0.07020100  12.010000   ; qtot 14.141263
  425         hx     15    bbb     H3    425 0.12219000   1.008000   ; qtot 14.263453
  426         hx     15    bbb     H4    426 0.12219000   1.008000   ; qtot 14.385643
  427         c3     15    bbb     C3    427 -0.39007700  12.010000   ; qtot 13.995566
  428         hx     15    bbb     H5    428 0.14940300   1.008000   ; qtot 14.144969
  429         hx     15    bbb     H6    429 0.14940300   1.008000   ; qtot 14.294372
  430         c3     15    bbb     C4    430 0.18057300  12.010000   ; qtot 14.474945
  431         hc     15    bbb     H7    431 0.01788900   1.008000   ; qtot 14.492834
  432         hc     15    bbb     H8    432 0.01788900   1.008000   ; qtot 14.510723
  433         c3     15    bbb     C5    433 -0.11337700  12.010000   ; qtot 14.397346
  434         hc     15    bbb     H9    434 0.09515400   1.008000   ; qtot 14.492500
  435         hc     15    bbb    H10    435 0.09515400   1.008000   ; qtot 14.587654
  436         c3     15    bbb     C6    436 -0.11337700  12.010000   ; qtot 14.474277
  437         hc     15    bbb    H11    437 0.09515400   1.008000   ; qtot 14.569431
  438         hc     15    bbb    H12    438 0.09515400   1.008000   ; qtot 14.664585
  439         c3     15    bbb     C7    439 0.21842400  12.010000   ; qtot 14.883009
  440         h1     15    bbb    H13    440 0.04500300   1.008000   ; qtot 14.928012
  441         h1     15    bbb    H14    441 0.04500300   1.008000   ; qtot 14.973015
  442         c3     15    bbb     C8    442 -0.06455200  12.010000   ; qtot 14.908463
  443         h1     15    bbb    H15    443 0.13554100   1.008000   ; qtot 15.044004
  444         h1     15    bbb    H16    444 0.13554100   1.008000   ; qtot 15.179545
  445         c3     15    bbb     C9    445 -0.06455200  12.010000   ; qtot 15.114993
  446         h1     15    bbb    H17    446 0.13554100   1.008000   ; qtot 15.250534
  447         h1     15    bbb    H18    447 0.13554100   1.008000   ; qtot 15.386075
  448         os     15    bbb     O1    448 -0.62587700  16.000000   ; qtot 14.760198
  449         hn     15    bbb    H19    449 0.23982500   1.008000   ; qtot 15.000023
; residue   16 bbb rtp bbb q 1.0
  450         n4     16    bbb     N1    450 0.03726400  14.010000   ; qtot 15.037287
  451         c3     16    bbb     C1    451 -0.07020100  12.010000   ; qtot 14.967086
  452         hx     16    bbb     H1    452 0.12219000   1.008000   ; qtot 15.089276
  453         hx     16    bbb     H2    453 0.12219000   1.008000   ; qtot 15.211466
  454         c3     16    bbb     C2    454 -0.07020100  12.010000   ; qtot 15.141265
  455         hx     16    bbb     H3    455 0.12219000   1.008000   ; qtot 15.263455
  456         hx     16    bbb     H4    456 0.12219000   1.008000   ; qtot 15.385645
  457         c3     16    bbb     C3    457 -0.39007700  12.010000   ; qtot 14.995568
  458         hx     16    bbb     H5    458 0.14940300   1.008000   ; qtot 15.144971
  459         hx     16    bbb     H6    459 0.14940300   1.008000   ; qtot 15.294374
  460         c3     16    bbb     C4    460 0.18057300  12.010000   ; qtot 15.474947
  461         hc     16    bbb     H7    461 0.01788900   1.008000   ; qtot 15.492836
  462         hc     16    bbb     H8    462 0.01788900   1.008000   ; qtot 15.510725
  463         c3     16    bbb     C5    463 -0.11337700  12.010000   ; qtot 15.397348
  464         hc     16    bbb     H9    464 0.09515400   1.008000   ; qtot 15.492502
  465         hc     16    bbb    H10    465 0.09515400   1.008000   ; qtot 15.587656
  466         c3     16    bbb     C6    466 -0.11337700  12.010000   ; qtot 15.474279
  467         hc     16    bbb    H11    467 0.09515400   1.008000   ; qtot 15.569433
  468         hc     16    bbb    H12    468 0.09515400   1.008000   ; qtot 15.664587
  469         c3     16    bbb     C7    469 0.21842400  12.010000   ; qtot 15.883011
  470         h1     16    bbb    H13    470 0.04500300   1.008000   ; qtot 15.928014
  471         h1     16    bbb    H14    471 0.04500300   1.008000   ; qtot 15.973017
  472         c3     16    bbb     C8    472 -0.06455200  12.010000   ; qtot 15.908465
  473         h1     16    bbb    H15    473 0.13554100   1.008000   ; qtot 16.044006
  474         h1     16    bbb    H16    474 0.13554100   1.008000   ; qtot 16.179547
  475         c3     16    bbb     C9    475 -0.06455200  12.010000   ; qtot 16.114995
  476         h1     16    bbb    H17    476 0.13554100   1.008000   ; qtot 16.250536
  477         h1     16    bbb    H18    477 0.13554100   1.008000   ; qtot 16.386077
  478         os     16    bbb     O1    478 -0.62587700  16.000000   ; qtot 15.760200
  479         hn     16    bbb    H19    479 0.23982500   1.008000   ; qtot 16.000025
; residue   17 bbb rtp bbb q 1.0
  480         n4     17    bbb     N1    480 0.03726400  14.010000   ; qtot 16.037289
  481         c3     17    bbb     C1    481 -0.07020100  12.010000   ; qtot 15.967088
  482         hx     17    bbb     H1    482 0.12219000   1.008000   ; qtot 16.089278
  483         hx     17    bbb     H2    483 0.12219000   1.008000   ; qtot 16.211468
  484         c3     17    bbb     C2    484 -0.07020100  12.010000   ; qtot 16.141267
  485         hx     17    bbb     H3    485 0.12219000   1.008000   ; qtot 16.263457
  486         hx     17    bbb     H4    486 0.12219000   1.008000   ; qtot 16.385647
  487         c3     17    bbb     C3    487 -0.39007700  12.010000   ; qtot 15.995570
  488         hx     17    bbb     H5    488 0.14940300   1.008000   ; qtot 16.144973
  489         hx     17    bbb     H6    489 0.14940300   1.008000   ; qtot 16.294376
  490         c3     17    bbb     C4    490 0.18057300  12.010000   ; qtot 16.474949
  491         hc     17    bbb     H7    491 0.01788900   1.008000   ; qtot 16.492838
  492         hc     17    bbb     H8    492 0.01788900   1.008000   ; qtot 16.510727
  493         c3     17    bbb     C5    493 -0.11337700  12.010000   ; qtot 16.397350
  494         hc     17    bbb     H9    494 0.09515400   1.008000   ; qtot 16.492504
  495         hc     17    bbb    H10    495 0.09515400   1.008000   ; qtot 16.587658
  496         c3     17    bbb     C6    496 -0.11337700  12.010000   ; qtot 16.474281
  497         hc     17    bbb    H11    497 0.09515400   1.008000   ; qtot 16.569435
  498         hc     17    bbb    H12    498 0.09515400   1.008000   ; qtot 16.664589
  499         c3     17    bbb     C7    499 0.21842400  12.010000   ; qtot 16.883013
  500         h1     17    bbb    H13    500 0.04500300   1.008000   ; qtot 16.928016
  501         h1     17    bbb    H14    501 0.04500300   1.008000   ; qtot 16.973019
  502         c3     17    bbb     C8    502 -0.06455200  12.010000   ; qtot 16.908467
  503         h1     17    bbb    H15    503 0.13554100   1.008000   ; qtot 17.044008
  504         h1     17    bbb    H16    504 0.13554100   1.008000   ; qtot 17.179549
  505         c3     17    bbb     C9    505 -0.06455200  12.010000   ; qtot 17.114997
  506         h1     17    bbb    H17    506 0.13554100   1.008000   ; qtot 17.250538
  507         h1     17    bbb    H18    507 0.13554100   1.008000   ; qtot 17.386079
  508         os     17    bbb     O1    508 -0.62587700  16.000000   ; qtot 16.760202
  509         hn     17    bbb    H19    509 0.23982500   1.008000   ; qtot 17.000027
; residue   18 bbb rtp bbb q 1.0
  510         n4     18    bbb     N1    510 0.03726400  14.010000   ; qtot 17.037291
  511         c3     18    bbb     C1    511 -0.07020100  12.010000   ; qtot 16.967090
  512         hx     18    bbb     H1    512 0.12219000   1.008000   ; qtot 17.089280
  513         hx     18    bbb     H2    513 0.12219000   1.008000   ; qtot 17.211470
  514         c3     18    bbb     C2    514 -0.07020100  12.010000   ; qtot 17.141269
  515         hx     18    bbb     H3    515 0.12219000   1.008000   ; qtot 17.263459
  516         hx     18    bbb     H4    516 0.12219000   1.008000   ; qtot 17.385649
  517         c3     18    bbb     C3    517 -0.39007700  12.010000   ; qtot 16.995572
  518         hx     18    bbb     H5    518 0.14940300   1.008000   ; qtot 17.144975
  519         hx     18    bbb     H6    519 0.14940300   1.008000   ; qtot 17.294378
  520         c3     18    bbb     C4    520 0.18057300  12.010000   ; qtot 17.474951
  521         hc     18    bbb     H7    521 0.01788900   1.008000   ; qtot 17.492840
  522         hc     18    bbb     H8    522 0.01788900   1.008000   ; qtot 17.510729
  523         c3     18    bbb     C5    523 -0.11337700  12.010000   ; qtot 17.397352
  524         hc     18    bbb     H9    524 0.09515400   1.008000   ; qtot 17.492506
  525         hc     18    bbb    H10    525 0.09515400   1.008000   ; qtot 17.587660
  526         c3     18    bbb     C6    526 -0.11337700  12.010000   ; qtot 17.474283
  527         hc     18    bbb    H11    527 0.09515400   1.008000   ; qtot 17.569437
  528         hc     18    bbb    H12    528 0.09515400   1.008000   ; qtot 17.664591
  529         c3     18    bbb     C7    529 0.21842400  12.010000   ; qtot 17.883015
  530         h1     18    bbb    H13    530 0.04500300   1.008000   ; qtot 17.928018
  531         h1     18    bbb    H14    531 0.04500300   1.008000   ; qtot 17.973021
  532         c3     18    bbb     C8    532 -0.06455200  12.010000   ; qtot 17.908469
  533         h1     18    bbb    H15    533 0.13554100   1.008000   ; qtot 18.044010
  534         h1     18    bbb    H16    534 0.13554100   1.008000   ; qtot 18.179551
  535         c3     18    bbb     C9    535 -0.06455200  12.010000   ; qtot 18.114999
  536         h1     18    bbb    H17    536 0.13554100   1.008000   ; qtot 18.250540
  537         h1     18    bbb    H18    537 0.13554100   1.008000   ; qtot 18.386081
  538         os     18    bbb     O1    538 -0.62587700  16.000000   ; qtot 17.760204
  539         hn     18    bbb    H19    539 0.23982500   1.008000   ; qtot 18.000029
; residue   19 bbb rtp bbb q 1.0
  540         n4     19    bbb     N1    540 0.03726400  14.010000   ; qtot 18.037293
  541         c3     19    bbb     C1    541 -0.07020100  12.010000   ; qtot 17.967092
  542         hx     19    bbb     H1    542 0.12219000   1.008000   ; qtot 18.089282
  543         hx     19    bbb     H2    543 0.12219000   1.008000   ; qtot 18.211472
  544         c3     19    bbb     C2    544 -0.07020100  12.010000   ; qtot 18.141271
  545         hx     19    bbb     H3    545 0.12219000   1.008000   ; qtot 18.263461
  546         hx     19    bbb     H4    546 0.12219000   1.008000   ; qtot 18.385651
  547         c3     19    bbb     C3    547 -0.39007700  12.010000   ; qtot 17.995574
  548         hx     19    bbb     H5    548 0.14940300   1.008000   ; qtot 18.144977
  549         hx     19    bbb     H6    549 0.14940300   1.008000   ; qtot 18.294380
  550         c3     19    bbb     C4    550 0.18057300  12.010000   ; qtot 18.474953
  551         hc     19    bbb     H7    551 0.01788900   1.008000   ; qtot 18.492842
  552         hc     19    bbb     H8    552 0.01788900   1.008000   ; qtot 18.510731
  553         c3     19    bbb     C5    553 -0.11337700  12.010000   ; qtot 18.397354
  554         hc     19    bbb     H9    554 0.09515400   1.008000   ; qtot 18.492508
  555         hc     19    bbb    H10    555 0.09515400   1.008000   ; qtot 18.587662
  556         c3     19    bbb     C6    556 -0.11337700  12.010000   ; qtot 18.474285
  557         hc     19    bbb    H11    557 0.09515400   1.008000   ; qtot 18.569439
  558         hc     19    bbb    H12    558 0.09515400   1.008000   ; qtot 18.664593
  559         c3     19    bbb     C7    559 0.21842400  12.010000   ; qtot 18.883017
  560         h1     19    bbb    H13    560 0.04500300   1.008000   ; qtot 18.928020
  561         h1     19    bbb    H14    561 0.04500300   1.008000   ; qtot 18.973023
  562         c3     19    bbb     C8    562 -0.06455200  12.010000   ; qtot 18.908471
  563         h1     19    bbb    H15    563 0.13554100   1.008000   ; qtot 19.044012
  564         h1     19    bbb    H16    564 0.13554100   1.008000   ; qtot 19.179553
  565         c3     19    bbb     C9    565 -0.06455200  12.010000   ; qtot 19.115001
  566         h1     19    bbb    H17    566 0.13554100   1.008000   ; qtot 19.250542
  567         h1     19    bbb    H18    567 0.13554100   1.008000   ; qtot 19.386083
  568         os     19    bbb     O1    568 -0.62587700  16.000000   ; qtot 18.760206
  569         hn     19    bbb    H19    569 0.23982500   1.008000   ; qtot 19.000031
; residue   20 bbb rtp bbb q 1.0
  570         n4     20    bbb     N1    570 0.03726400  14.010000   ; qtot 19.037295
  571         c3     20    bbb     C1    571 -0.07020100  12.010000   ; qtot 18.967094
  572         hx     20    bbb     H1    572 0.12219000   1.008000   ; qtot 19.089284
  573         hx     20    bbb     H2    573 0.12219000   1.008000   ; qtot 19.211474
  574         c3     20    bbb     C2    574 -0.07020100  12.010000   ; qtot 19.141273
  575         hx     20    bbb     H3    575 0.12219000   1.008000   ; qtot 19.263463
  576         hx     20    bbb     H4    576 0.12219000   1.008000   ; qtot 19.385653
  577         c3     20    bbb     C3    577 -0.39007700  12.010000   ; qtot 18.995576
  578         hx     20    bbb     H5    578 0.14940300   1.008000   ; qtot 19.144979
  579         hx     20    bbb     H6    579 0.14940300   1.008000   ; qtot 19.294382
  580         c3     20    bbb     C4    580 0.18057300  12.010000   ; qtot 19.474955
  581         hc     20    bbb     H7    581 0.01788900   1.008000   ; qtot 19.492844
  582         hc     20    bbb     H8    582 0.01788900   1.008000   ; qtot 19.510733
  583         c3     20    bbb     C5    583 -0.11337700  12.010000   ; qtot 19.397356
  584         hc     20    bbb     H9    584 0.09515400   1.008000   ; qtot 19.492510
  585         hc     20    bbb    H10    585 0.09515400   1.008000   ; qtot 19.587664
  586         c3     20    bbb     C6    586 -0.11337700  12.010000   ; qtot 19.474287
  587         hc     20    bbb    H11    587 0.09515400   1.008000   ; qtot 19.569441
  588         hc     20    bbb    H12    588 0.09515400   1.008000   ; qtot 19.664595
  589         c3     20    bbb     C7    589 0.21842400  12.010000   ; qtot 19.883019
  590         h1     20    bbb    H13    590 0.04500300   1.008000   ; qtot 19.928022
  591         h1     20    bbb    H14    591 0.04500300   1.008000   ; qtot 19.973025
  592         c3     20    bbb     C8    592 -0.06455200  12.010000   ; qtot 19.908473
  593         h1     20    bbb    H15    593 0.13554100   1.008000   ; qtot 20.044014
  594         h1     20    bbb    H16    594 0.13554100   1.008000   ; qtot 20.179555
  595         c3     20    bbb     C9    595 -0.06455200  12.010000   ; qtot 20.115003
  596         h1     20    bbb    H17    596 0.13554100   1.008000   ; qtot 20.250544
  597         h1     20    bbb    H18    597 0.13554100   1.008000   ; qtot 20.386085
  598         os     20    bbb     O1    598 -0.62587700  16.000000   ; qtot 19.760208
  599         hn     20    bbb    H19    599 0.23982500   1.008000   ; qtot 20.000033
; residue   21 bbb rtp bbb q 1.0
  600         n4     21    bbb     N1    600 0.03726400  14.010000   ; qtot 20.037297
  601         c3     21    bbb     C1    601 -0.07020100  12.010000   ; qtot 19.967096
  602         hx     21    bbb     H1    602 0.12219000   1.008000   ; qtot 20.089286
  603         hx     21    bbb     H2    603 0.12219000   1.008000   ; qtot 20.211476
  604         c3     21    bbb     C2    604 -0.07020100  12.010000   ; qtot 20.141275
  605         hx     21    bbb     H3    605 0.12219000   1.008000   ; qtot 20.263465
  606         hx     21    bbb     H4    606 0.12219000   1.008000   ; qtot 20.385655
  607         c3     21    bbb     C3    607 -0.39007700  12.010000   ; qtot 19.995578
  608         hx     21    bbb     H5    608 0.14940300   1.008000   ; qtot 20.144981
  609         hx     21    bbb     H6    609 0.14940300   1.008000   ; qtot 20.294384
  610         c3     21    bbb     C4    610 0.18057300  12.010000   ; qtot 20.474957
  611         hc     21    bbb     H7    611 0.01788900   1.008000   ; qtot 20.492846
  612         hc     21    bbb     H8    612 0.01788900   1.008000   ; qtot 20.510735
  613         c3     21    bbb     C5    613 -0.11337700  12.010000   ; qtot 20.397358
  614         hc     21    bbb     H9    614 0.09515400   1.008000   ; qtot 20.492512
  615         hc     21    bbb    H10    615 0.09515400   1.008000   ; qtot 20.587666
  616         c3     21    bbb     C6    616 -0.11337700  12.010000   ; qtot 20.474289
  617         hc     21    bbb    H11    617 0.09515400   1.008000   ; qtot 20.569443
  618         hc     21    bbb    H12    618 0.09515400   1.008000   ; qtot 20.664597
  619         c3     21    bbb     C7    619 0.21842400  12.010000   ; qtot 20.883021
  620         h1     21    bbb    H13    620 0.04500300   1.008000   ; qtot 20.928024
  621         h1     21    bbb    H14    621 0.04500300   1.008000   ; qtot 20.973027
  622         c3     21    bbb     C8    622 -0.06455200  12.010000   ; qtot 20.908475
  623         h1     21    bbb    H15    623 0.13554100   1.008000   ; qtot 21.044016
  624         h1     21    bbb    H16    624 0.13554100   1.008000   ; qtot 21.179557
  625         c3     21    bbb     C9    625 -0.06455200  12.010000   ; qtot 21.115005
  626         h1     21    bbb    H17    626 0.13554100   1.008000   ; qtot 21.250546
  627         h1     21    bbb    H18    627 0.13554100   1.008000   ; qtot 21.386087
  628         os     21    bbb     O1    628 -0.62587700  16.000000   ; qtot 20.760210
  629         hn     21    bbb    H19    629 0.23982500   1.008000   ; qtot 21.000035
; residue   22 bbb rtp bbb q 1.0
  630         n4     22    bbb     N1    630 0.03726400  14.010000   ; qtot 21.037299
  631         c3     22    bbb     C1    631 -0.07020100  12.010000   ; qtot 20.967098
  632         hx     22    bbb     H1    632 0.12219000   1.008000   ; qtot 21.089288
  633         hx     22    bbb     H2    633 0.12219000   1.008000   ; qtot 21.211478
  634         c3     22    bbb     C2    634 -0.07020100  12.010000   ; qtot 21.141277
  635         hx     22    bbb     H3    635 0.12219000   1.008000   ; qtot 21.263467
  636         hx     22    bbb     H4    636 0.12219000   1.008000   ; qtot 21.385657
  637         c3     22    bbb     C3    637 -0.39007700  12.010000   ; qtot 20.995580
  638         hx     22    bbb     H5    638 0.14940300   1.008000   ; qtot 21.144983
  639         hx     22    bbb     H6    639 0.14940300   1.008000   ; qtot 21.294386
  640         c3     22    bbb     C4    640 0.18057300  12.010000   ; qtot 21.474959
  641         hc     22    bbb     H7    641 0.01788900   1.008000   ; qtot 21.492848
  642         hc     22    bbb     H8    642 0.01788900   1.008000   ; qtot 21.510737
  643         c3     22    bbb     C5    643 -0.11337700  12.010000   ; qtot 21.397360
  644         hc     22    bbb     H9    644 0.09515400   1.008000   ; qtot 21.492514
  645         hc     22    bbb    H10    645 0.09515400   1.008000   ; qtot 21.587668
  646         c3     22    bbb     C6    646 -0.11337700  12.010000   ; qtot 21.474291
  647         hc     22    bbb    H11    647 0.09515400   1.008000   ; qtot 21.569445
  648         hc     22    bbb    H12    648 0.09515400   1.008000   ; qtot 21.664599
  649         c3     22    bbb     C7    649 0.21842400  12.010000   ; qtot 21.883023
  650         h1     22    bbb    H13    650 0.04500300   1.008000   ; qtot 21.928026
  651         h1     22    bbb    H14    651 0.04500300   1.008000   ; qtot 21.973029
  652         c3     22    bbb     C8    652 -0.06455200  12.010000   ; qtot 21.908477
  653         h1     22    bbb    H15    653 0.13554100   1.008000   ; qtot 22.044018
  654         h1     22    bbb    H16    654 0.13554100   1.008000   ; qtot 22.179559
  655         c3     22    bbb     C9    655 -0.06455200  12.010000   ; qtot 22.115007
  656         h1     22    bbb    H17    656 0.13554100   1.008000   ; qtot 22.250548
  657         h1     22    bbb    H18    657 0.13554100   1.008000   ; qtot 22.386089
  658         os     22    bbb     O1    658 -0.62587700  16.000000   ; qtot 21.760212
  659         hn     22    bbb    H19    659 0.23982500   1.008000   ; qtot 22.000037
; residue   23 ccc rtp ccc q 1.0
  660         c3     23    ccc     C1    660 0.17060900  12.010000   ; qtot 22.170646
  661         hx     23    ccc     H1    661 0.04213200   1.008000   ; qtot 22.212778
  662         hx     23    ccc     H2    662 0.04213200   1.008000   ; qtot 22.254910
  663         c3     23    ccc     C2    663 -0.04496700  12.010000   ; qtot 22.209943
  664         hc     23    ccc     H3    664 0.02647500   1.008000   ; qtot 22.236418
  665         hc     23    ccc     H4    665 0.02647500   1.008000   ; qtot 22.262893
  666         c3     23    ccc     C3    666 0.04732600  12.010000   ; qtot 22.310219
  667         h1     23    ccc     H5    667 0.07030200   1.008000   ; qtot 22.380521
  668         h1     23    ccc     H6    668 0.07030200   1.008000   ; qtot 22.450823
  669         n4     23    ccc     N1    669 -0.21077700  14.010000   ; qtot 22.240046
  670         hn     23    ccc     H7    670 0.28399900   1.008000   ; qtot 22.524045
  671         hn     23    ccc     H8    671 0.28399900   1.008000   ; qtot 22.808044
  672         os     23    ccc     O1    672 -0.09200600  16.000000   ; qtot 22.716038
  673         hn     23    ccc    H17    673 0.28399900   1.008000   ; qtot 23.000037
; residue   24 ccc rtp ccc q 1.0
  674         c3     24    ccc     C1    674 0.17060900  12.010000   ; qtot 23.170646
  675         hx     24    ccc     H1    675 0.04213200   1.008000   ; qtot 23.212778
  676         hx     24    ccc     H2    676 0.04213200   1.008000   ; qtot 23.254910
  677         c3     24    ccc     C2    677 -0.04496700  12.010000   ; qtot 23.209943
  678         hc     24    ccc     H3    678 0.02647500   1.008000   ; qtot 23.236418
  679         hc     24    ccc     H4    679 0.02647500   1.008000   ; qtot 23.262893
  680         c3     24    ccc     C3    680 0.04732600  12.010000   ; qtot 23.310219
  681         h1     24    ccc     H5    681 0.07030200   1.008000   ; qtot 23.380521
  682         h1     24    ccc     H6    682 0.07030200   1.008000   ; qtot 23.450823
  683         n4     24    ccc     N1    683 -0.21077700  14.010000   ; qtot 23.240046
  684         hn     24    ccc     H7    684 0.28399900   1.008000   ; qtot 23.524045
  685         hn     24    ccc     H8    685 0.28399900   1.008000   ; qtot 23.808044
  686         os     24    ccc     O1    686 -0.09200600  16.000000   ; qtot 23.716038
  687         hn     24    ccc    H17    687 0.28399900   1.008000   ; qtot 24.000037
; residue   25 ccc rtp ccc q 1.0
  688         c3     25    ccc     C1    688 0.17060900  12.010000   ; qtot 24.170646
  689         hx     25    ccc     H1    689 0.04213200   1.008000   ; qtot 24.212778
  690         hx     25    ccc     H2    690 0.04213200   1.008000   ; qtot 24.254910
  691         c3     25    ccc     C2    691 -0.04496700  12.010000   ; qtot 24.209943
  692         hc     25    ccc     H3    692 0.02647500   1.008000   ; qtot 24.236418
  693         hc     25    ccc     H4    693 0.02647500   1.008000   ; qtot 24.262893
  694         c3     25    ccc     C3    694 0.04732600  12.010000   ; qtot 24.310219
  695         h1     25    ccc     H5    695 0.07030200   1.008000   ; qtot 24.380521
  696         h1     25    ccc     H6    696 0.07030200   1.008000   ; qtot 24.450823
  697         n4     25    ccc     N1    697 -0.21077700  14.010000   ; qtot 24.240046
  698         hn     25    ccc     H7    698 0.28399900   1.008000   ; qtot 24.524045
  699         hn     25    ccc     H8    699 0.28399900   1.008000   ; qtot 24.808044
  700         os     25    ccc     O1    700 -0.09200600  16.000000   ; qtot 24.716038
  701         hn     25    ccc    H17    701 0.28399900   1.008000   ; qtot 25.000037
; residue   26 ccc rtp ccc q 1.0
  702         c3     26    ccc     C1    702 0.17060900  12.010000   ; qtot 25.170646
  703         hx     26    ccc     H1    703 0.04213200   1.008000   ; qtot 25.212778
  704         hx     26    ccc     H2    704 0.04213200   1.008000   ; qtot 25.254910
  705         c3     26    ccc     C2    705 -0.04496700  12.010000   ; qtot 25.209943
  706         hc     26    ccc     H3    706 0.02647500   1.008000   ; qtot 25.236418
  707         hc     26    ccc     H4    707 0.02647500   1.008000   ; qtot 25.262893
  708         c3     26    ccc     C3    708 0.04732600  12.010000   ; qtot 25.310219
  709         h1     26    ccc     H5    709 0.07030200   1.008000   ; qtot 25.380521
  710         h1     26    ccc     H6    710 0.07030200   1.008000   ; qtot 25.450823
  711         n4     26    ccc     N1    711 -0.21077700  14.010000   ; qtot 25.240046
  712         hn     26    ccc     H7    712 0.28399900   1.008000   ; qtot 25.524045
  713         hn     26    ccc     H8    713 0.28399900   1.008000   ; qtot 25.808044
  714         os     26    ccc     O1    714 -0.09200600  16.000000   ; qtot 25.716038
  715         hn     26    ccc    H17    715 0.28399900   1.008000   ; qtot 26.000037
; residue   27 ccc rtp ccc q 1.0
  716         c3     27    ccc     C1    716 0.17060900  12.010000   ; qtot 26.170646
  717         hx     27    ccc     H1    717 0.04213200   1.008000   ; qtot 26.212778
  718         hx     27    ccc     H2    718 0.04213200   1.008000   ; qtot 26.254910
  719         c3     27    ccc     C2    719 -0.04496700  12.010000   ; qtot 26.209943
  720         hc     27    ccc     H3    720 0.02647500   1.008000   ; qtot 26.236418
  721         hc     27    ccc     H4    721 0.02647500   1.008000   ; qtot 26.262893
  722         c3     27    ccc     C3    722 0.04732600  12.010000   ; qtot 26.310219
  723         h1     27    ccc     H5    723 0.07030200   1.008000   ; qtot 26.380521
  724         h1     27    ccc     H6    724 0.07030200   1.008000   ; qtot 26.450823
  725         n4     27    ccc     N1    725 -0.21077700  14.010000   ; qtot 26.240046
  726         hn     27    ccc     H7    726 0.28399900   1.008000   ; qtot 26.524045
  727         hn     27    ccc     H8    727 0.28399900   1.008000   ; qtot 26.808044
  728         os     27    ccc     O1    728 -0.09200600  16.000000   ; qtot 26.716038
  729         hn     27    ccc    H17    729 0.28399900   1.008000   ; qtot 27.000037
; residue   28 ccc rtp ccc q 1.0
  730         c3     28    ccc     C1    730 0.17060900  12.010000   ; qtot 27.170646
  731         hx     28    ccc     H1    731 0.04213200   1.008000   ; qtot 27.212778
  732         hx     28    ccc     H2    732 0.04213200   1.008000   ; qtot 27.254910
  733         c3     28    ccc     C2    733 -0.04496700  12.010000   ; qtot 27.209943
  734         hc     28    ccc     H3    734 0.02647500   1.008000   ; qtot 27.236418
  735         hc     28    ccc     H4    735 0.02647500   1.008000   ; qtot 27.262893
  736         c3     28    ccc     C3    736 0.04732600  12.010000   ; qtot 27.310219
  737         h1     28    ccc     H5    737 0.07030200   1.008000   ; qtot 27.380521
  738         h1     28    ccc     H6    738 0.07030200   1.008000   ; qtot 27.450823
  739         n4     28    ccc     N1    739 -0.21077700  14.010000   ; qtot 27.240046
  740         hn     28    ccc     H7    740 0.28399900   1.008000   ; qtot 27.524045
  741         hn     28    ccc     H8    741 0.28399900   1.008000   ; qtot 27.808044
  742         os     28    ccc     O1    742 -0.09200600  16.000000   ; qtot 27.716038
  743         hn     28    ccc    H17    743 0.28399900   1.008000   ; qtot 28.000037
; residue   29 ccc rtp ccc q 1.0
  744         c3     29    ccc     C1    744 0.17060900  12.010000   ; qtot 28.170646
  745         hx     29    ccc     H1    745 0.04213200   1.008000   ; qtot 28.212778
  746         hx     29    ccc     H2    746 0.04213200   1.008000   ; qtot 28.254910
  747         c3     29    ccc     C2    747 -0.04496700  12.010000   ; qtot 28.209943
  748         hc     29    ccc     H3    748 0.02647500   1.008000   ; qtot 28.236418
  749         hc     29    ccc     H4    749 0.02647500   1.008000   ; qtot 28.262893
  750         c3     29    ccc     C3    750 0.04732600  12.010000   ; qtot 28.310219
  751         h1     29    ccc     H5    751 0.07030200   1.008000   ; qtot 28.380521
  752         h1     29    ccc     H6    752 0.07030200   1.008000   ; qtot 28.450823
  753         n4     29    ccc     N1    753 -0.21077700  14.010000   ; qtot 28.240046
  754         hn     29    ccc     H7    754 0.28399900   1.008000   ; qtot 28.524045
  755         hn     29    ccc     H8    755 0.28399900   1.008000   ; qtot 28.808044
  756         os     29    ccc     O1    756 -0.09200600  16.000000   ; qtot 28.716038
  757         hn     29    ccc    H17    757 0.28399900   1.008000   ; qtot 29.000037
; residue   30 ccc rtp ccc q 1.0
  758         c3     30    ccc     C1    758 0.17060900  12.010000   ; qtot 29.170646
  759         hx     30    ccc     H1    759 0.04213200   1.008000   ; qtot 29.212778
  760         hx     30    ccc     H2    760 0.04213200   1.008000   ; qtot 29.254910
  761         c3     30    ccc     C2    761 -0.04496700  12.010000   ; qtot 29.209943
  762         hc     30    ccc     H3    762 0.02647500   1.008000   ; qtot 29.236418
  763         hc     30    ccc     H4    763 0.02647500   1.008000   ; qtot 29.262893
  764         c3     30    ccc     C3    764 0.04732600  12.010000   ; qtot 29.310219
  765         h1     30    ccc     H5    765 0.07030200   1.008000   ; qtot 29.380521
  766         h1     30    ccc     H6    766 0.07030200   1.008000   ; qtot 29.450823
  767         n4     30    ccc     N1    767 -0.21077700  14.010000   ; qtot 29.240046
  768         hn     30    ccc     H7    768 0.28399900   1.008000   ; qtot 29.524045
  769         hn     30    ccc     H8    769 0.28399900   1.008000   ; qtot 29.808044
  770         os     30    ccc     O1    770 -0.09200600  16.000000   ; qtot 29.716038
  771         hn     30    ccc    H17    771 0.28399900   1.008000   ; qtot 30.000037
; residue   31 ccc rtp ccc q 1.0
  772         c3     31    ccc     C1    772 0.17060900  12.010000   ; qtot 30.170646
  773         hx     31    ccc     H1    773 0.04213200   1.008000   ; qtot 30.212778
  774         hx     31    ccc     H2    774 0.04213200   1.008000   ; qtot 30.254910
  775         c3     31    ccc     C2    775 -0.04496700  12.010000   ; qtot 30.209943
  776         hc     31    ccc     H3    776 0.02647500   1.008000   ; qtot 30.236418
  777         hc     31    ccc     H4    777 0.02647500   1.008000   ; qtot 30.262893
  778         c3     31    ccc     C3    778 0.04732600  12.010000   ; qtot 30.310219
  779         h1     31    ccc     H5    779 0.07030200   1.008000   ; qtot 30.380521
  780         h1     31    ccc     H6    780 0.07030200   1.008000   ; qtot 30.450823
  781         n4     31    ccc     N1    781 -0.21077700  14.010000   ; qtot 30.240046
  782         hn     31    ccc     H7    782 0.28399900   1.008000   ; qtot 30.524045
  783         hn     31    ccc     H8    783 0.28399900   1.008000   ; qtot 30.808044
  784         os     31    ccc     O1    784 -0.09200600  16.000000   ; qtot 30.716038
  785         hn     31    ccc    H17    785 0.28399900   1.008000   ; qtot 31.000037
; residue   32 ccc rtp ccc q 1.0
  786         c3     32    ccc     C1    786 0.17060900  12.010000   ; qtot 31.170646
  787         hx     32    ccc     H1    787 0.04213200   1.008000   ; qtot 31.212778
  788         hx     32    ccc     H2    788 0.04213200   1.008000   ; qtot 31.254910
  789         c3     32    ccc     C2    789 -0.04496700  12.010000   ; qtot 31.209943
  790         hc     32    ccc     H3    790 0.02647500   1.008000   ; qtot 31.236418
  791         hc     32    ccc     H4    791 0.02647500   1.008000   ; qtot 31.262893
  792         c3     32    ccc     C3    792 0.04732600  12.010000   ; qtot 31.310219
  793         h1     32    ccc     H5    793 0.07030200   1.008000   ; qtot 31.380521
  794         h1     32    ccc     H6    794 0.07030200   1.008000   ; qtot 31.450823
  795         n4     32    ccc     N1    795 -0.21077700  14.010000   ; qtot 31.240046
  796         hn     32    ccc     H7    796 0.28399900   1.008000   ; qtot 31.524045
  797         hn     32    ccc     H8    797 0.28399900   1.008000   ; qtot 31.808044
  798         os     32    ccc     O1    798 -0.09200600  16.000000   ; qtot 31.716038
  799         hn     32    ccc    H17    799 0.28399900   1.008000   ; qtot 32.000037
; residue   33 ccc rtp ccc q 1.0
  800         c3     33    ccc     C1    800 0.17060900  12.010000   ; qtot 32.170646
  801         hx     33    ccc     H1    801 0.04213200   1.008000   ; qtot 32.212778
  802         hx     33    ccc     H2    802 0.04213200   1.008000   ; qtot 32.254910
  803         c3     33    ccc     C2    803 -0.04496700  12.010000   ; qtot 32.209943
  804         hc     33    ccc     H3    804 0.02647500   1.008000   ; qtot 32.236418
  805         hc     33    ccc     H4    805 0.02647500   1.008000   ; qtot 32.262893
  806         c3     33    ccc     C3    806 0.04732600  12.010000   ; qtot 32.310219
  807         h1     33    ccc     H5    807 0.07030200   1.008000   ; qtot 32.380521
  808         h1     33    ccc     H6    808 0.07030200   1.008000   ; qtot 32.450823
  809         n4     33    ccc     N1    809 -0.21077700  14.010000   ; qtot 32.240046
  810         hn     33    ccc     H7    810 0.28399900   1.008000   ; qtot 32.524045
  811         hn     33    ccc     H8    811 0.28399900   1.008000   ; qtot 32.808044
  812         os     33    ccc     O1    812 -0.09200600  16.000000   ; qtot 32.716038
  813         hn     33    ccc    H17    813 0.28399900   1.008000   ; qtot 33.000037
; residue   34 ccc rtp ccc q 1.0
  814         c3     34    ccc     C1    814 0.17060900  12.010000   ; qtot 33.170646
  815         hx     34    ccc     H1    815 0.04213200   1.008000   ; qtot 33.212778
  816         hx     34    ccc     H2    816 0.04213200   1.008000   ; qtot 33.254910
  817         c3     34    ccc     C2    817 -0.04496700  12.010000   ; qtot 33.209943
  818         hc     34    ccc     H3    818 0.02647500   1.008000   ; qtot 33.236418
  819         hc     34    ccc     H4    819 0.02647500   1.008000   ; qtot 33.262893
  820         c3     34    ccc     C3    820 0.04732600  12.010000   ; qtot 33.310219
  821         h1     34    ccc     H5    821 0.07030200   1.008000   ; qtot 33.380521
  822         h1     34    ccc     H6    822 0.07030200   1.008000   ; qtot 33.450823
  823         n4     34    ccc     N1    823 -0.21077700  14.010000   ; qtot 33.240046
  824         hn     34    ccc     H7    824 0.28399900   1.008000   ; qtot 33.524045
  825         hn     34    ccc     H8    825 0.28399900   1.008000   ; qtot 33.808044
  826         os     34    ccc     O1    826 -0.09200600  16.000000   ; qtot 33.716038
  827         hn     34    ccc    H17    827 0.28399900   1.008000   ; qtot 34.000037
; residue   35 ccc rtp ccc q 1.0
  828         c3     35    ccc     C1    828 0.17060900  12.010000   ; qtot 34.170646
  829         hx     35    ccc     H1    829 0.04213200   1.008000   ; qtot 34.212778
  830         hx     35    ccc     H2    830 0.04213200   1.008000   ; qtot 34.254910
  831         c3     35    ccc     C2    831 -0.04496700  12.010000   ; qtot 34.209943
  832         hc     35    ccc     H3    832 0.02647500   1.008000   ; qtot 34.236418
  833         hc     35    ccc     H4    833 0.02647500   1.008000   ; qtot 34.262893
  834         c3     35    ccc     C3    834 0.04732600  12.010000   ; qtot 34.310219
  835         h1     35    ccc     H5    835 0.07030200   1.008000   ; qtot 34.380521
  836         h1     35    ccc     H6    836 0.07030200   1.008000   ; qtot 34.450823
  837         n4     35    ccc     N1    837 -0.21077700  14.010000   ; qtot 34.240046
  838         hn     35    ccc     H7    838 0.28399900   1.008000   ; qtot 34.524045
  839         hn     35    ccc     H8    839 0.28399900   1.008000   ; qtot 34.808044
  840         os     35    ccc     O1    840 -0.09200600  16.000000   ; qtot 34.716038
  841         hn     35    ccc    H17    841 0.28399900   1.008000   ; qtot 35.000037
; residue   36 ccc rtp ccc q 1.0
  842         c3     36    ccc     C1    842 0.17060900  12.010000   ; qtot 35.170646
  843         hx     36    ccc     H1    843 0.04213200   1.008000   ; qtot 35.212778
  844         hx     36    ccc     H2    844 0.04213200   1.008000   ; qtot 35.254910
  845         c3     36    ccc     C2    845 -0.04496700  12.010000   ; qtot 35.209943
  846         hc     36    ccc     H3    846 0.02647500   1.008000   ; qtot 35.236418
  847         hc     36    ccc     H4    847 0.02647500   1.008000   ; qtot 35.262893
  848         c3     36    ccc     C3    848 0.04732600  12.010000   ; qtot 35.310219
  849         h1     36    ccc     H5    849 0.07030200   1.008000   ; qtot 35.380521
  850         h1     36    ccc     H6    850 0.07030200   1.008000   ; qtot 35.450823
  851         n4     36    ccc     N1    851 -0.21077700  14.010000   ; qtot 35.240046
  852         hn     36    ccc     H7    852 0.28399900   1.008000   ; qtot 35.524045
  853         hn     36    ccc     H8    853 0.28399900   1.008000   ; qtot 35.808044
  854         os     36    ccc     O1    854 -0.09200600  16.000000   ; qtot 35.716038
  855         hn     36    ccc    H17    855 0.28399900   1.008000   ; qtot 36.000037
; residue   37 ccc rtp ccc q 1.0
  856         c3     37    ccc     C1    856 0.17060900  12.010000   ; qtot 36.170646
  857         hx     37    ccc     H1    857 0.04213200   1.008000   ; qtot 36.212778
  858         hx     37    ccc     H2    858 0.04213200   1.008000   ; qtot 36.254910
  859         c3     37    ccc     C2    859 -0.04496700  12.010000   ; qtot 36.209943
  860         hc     37    ccc     H3    860 0.02647500   1.008000   ; qtot 36.236418
  861         hc     37    ccc     H4    861 0.02647500   1.008000   ; qtot 36.262893
  862         c3     37    ccc     C3    862 0.04732600  12.010000   ; qtot 36.310219
  863         h1     37    ccc     H5    863 0.07030200   1.008000   ; qtot 36.380521
  864         h1     37    ccc     H6    864 0.07030200   1.008000   ; qtot 36.450823
  865         n4     37    ccc     N1    865 -0.21077700  14.010000   ; qtot 36.240046
  866         hn     37    ccc     H7    866 0.28399900   1.008000   ; qtot 36.524045
  867         hn     37    ccc     H8    867 0.28399900   1.008000   ; qtot 36.808044
  868         os     37    ccc     O1    868 -0.09200600  16.000000   ; qtot 36.716038
  869         hn     37    ccc    H17    869 0.28399900   1.008000   ; qtot 37.000037
; residue   38 ccc rtp ccc q 1.0
  870         c3     38    ccc     C1    870 0.17060900  12.010000   ; qtot 37.170646
  871         hx     38    ccc     H1    871 0.04213200   1.008000   ; qtot 37.212778
  872         hx     38    ccc     H2    872 0.04213200   1.008000   ; qtot 37.254910
  873         c3     38    ccc     C2    873 -0.04496700  12.010000   ; qtot 37.209943
  874         hc     38    ccc     H3    874 0.02647500   1.008000   ; qtot 37.236418
  875         hc     38    ccc     H4    875 0.02647500   1.008000   ; qtot 37.262893
  876         c3     38    ccc     C3    876 0.04732600  12.010000   ; qtot 37.310219
  877         h1     38    ccc     H5    877 0.07030200   1.008000   ; qtot 37.380521
  878         h1     38    ccc     H6    878 0.07030200   1.008000   ; qtot 37.450823
  879         n4     38    ccc     N1    879 -0.21077700  14.010000   ; qtot 37.240046
  880         hn     38    ccc     H7    880 0.28399900   1.008000   ; qtot 37.524045
  881         hn     38    ccc     H8    881 0.28399900   1.008000   ; qtot 37.808044
  882         os     38    ccc     O1    882 -0.09200600  16.000000   ; qtot 37.716038
  883         hn     38    ccc    H17    883 0.28399900   1.008000   ; qtot 38.000037
; residue   39 ccc rtp ccc q 1.0
  884         c3     39    ccc     C1    884 0.17060900  12.010000   ; qtot 38.170646
  885         hx     39    ccc     H1    885 0.04213200   1.008000   ; qtot 38.212778
  886         hx     39    ccc     H2    886 0.04213200   1.008000   ; qtot 38.254910
  887         c3     39    ccc     C2    887 -0.04496700  12.010000   ; qtot 38.209943
  888         hc     39    ccc     H3    888 0.02647500   1.008000   ; qtot 38.236418
  889         hc     39    ccc     H4    889 0.02647500   1.008000   ; qtot 38.262893
  890         c3     39    ccc     C3    890 0.04732600  12.010000   ; qtot 38.310219
  891         h1     39    ccc     H5    891 0.07030200   1.008000   ; qtot 38.380521
  892         h1     39    ccc     H6    892 0.07030200   1.008000   ; qtot 38.450823
  893         n4     39    ccc     N1    893 -0.21077700  14.010000   ; qtot 38.240046
  894         hn     39    ccc     H7    894 0.28399900   1.008000   ; qtot 38.524045
  895         hn     39    ccc     H8    895 0.28399900   1.008000   ; qtot 38.808044
  896         os     39    ccc     O1    896 -0.09200600  16.000000   ; qtot 38.716038
  897         hn     39    ccc    H17    897 0.28399900   1.008000   ; qtot 39.000037
; residue   40 ccc rtp ccc q 1.0
  898         c3     40    ccc     C1    898 0.17060900  12.010000   ; qtot 39.170646
  899         hx     40    ccc     H1    899 0.04213200   1.008000   ; qtot 39.212778
  900         hx     40    ccc     H2    900 0.04213200   1.008000   ; qtot 39.254910
  901         c3     40    ccc     C2    901 -0.04496700  12.010000   ; qtot 39.209943
  902         hc     40    ccc     H3    902 0.02647500   1.008000   ; qtot 39.236418
  903         hc     40    ccc     H4    903 0.02647500   1.008000   ; qtot 39.262893
  904         c3     40    ccc     C3    904 0.04732600  12.010000   ; qtot 39.310219
  905         h1     40    ccc     H5    905 0.07030200   1.008000   ; qtot 39.380521
  906         h1     40    ccc     H6    906 0.07030200   1.008000   ; qtot 39.450823
  907         n4     40    ccc     N1    907 -0.21077700  14.010000   ; qtot 39.240046
  908         hn     40    ccc     H7    908 0.28399900   1.008000   ; qtot 39.524045
  909         hn     40    ccc     H8    909 0.28399900   1.008000   ; qtot 39.808044
  910         os     40    ccc     O1    910 -0.09200600  16.000000   ; qtot 39.716038
  911         hn     40    ccc    H17    911 0.28399900   1.008000   ; qtot 40.000037
; residue   41 ccc rtp ccc q 1.0
  912         c3     41    ccc     C1    912 0.17060900  12.010000   ; qtot 40.170646
  913         hx     41    ccc     H1    913 0.04213200   1.008000   ; qtot 40.212778
  914         hx     41    ccc     H2    914 0.04213200   1.008000   ; qtot 40.254910
  915         c3     41    ccc     C2    915 -0.04496700  12.010000   ; qtot 40.209943
  916         hc     41    ccc     H3    916 0.02647500   1.008000   ; qtot 40.236418
  917         hc     41    ccc     H4    917 0.02647500   1.008000   ; qtot 40.262893
  918         c3     41    ccc     C3    918 0.04732600  12.010000   ; qtot 40.310219
  919         h1     41    ccc     H5    919 0.07030200   1.008000   ; qtot 40.380521
  920         h1     41    ccc     H6    920 0.07030200   1.008000   ; qtot 40.450823
  921         n4     41    ccc     N1    921 -0.21077700  14.010000   ; qtot 40.240046
  922         hn     41    ccc     H7    922 0.28399900   1.008000   ; qtot 40.524045
  923         hn     41    ccc     H8    923 0.28399900   1.008000   ; qtot 40.808044
  924         os     41    ccc     O1    924 -0.09200600  16.000000   ; qtot 40.716038
  925         hn     41    ccc    H17    925 0.28399900   1.008000   ; qtot 41.000037
; residue   42 ccc rtp ccc q 1.0
  926         c3     42    ccc     C1    926 0.17060900  12.010000   ; qtot 41.170646
  927         hx     42    ccc     H1    927 0.04213200   1.008000   ; qtot 41.212778
  928         hx     42    ccc     H2    928 0.04213200   1.008000   ; qtot 41.254910
  929         c3     42    ccc     C2    929 -0.04496700  12.010000   ; qtot 41.209943
  930         hc     42    ccc     H3    930 0.02647500   1.008000   ; qtot 41.236418
  931         hc     42    ccc     H4    931 0.02647500   1.008000   ; qtot 41.262893
  932         c3     42    ccc     C3    932 0.04732600  12.010000   ; qtot 41.310219
  933         h1     42    ccc     H5    933 0.07030200   1.008000   ; qtot 41.380521
  934         h1     42    ccc     H6    934 0.07030200   1.008000   ; qtot 41.450823
  935         n4     42    ccc     N1    935 -0.21077700  14.010000   ; qtot 41.240046
  936         hn     42    ccc     H7    936 0.28399900   1.008000   ; qtot 41.524045
  937         hn     42    ccc     H8    937 0.28399900   1.008000   ; qtot 41.808044
  938         os     42    ccc     O1    938 -0.09200600  16.000000   ; qtot 41.716038
  939         hn     42    ccc    H17    939 0.28399900   1.008000   ; qtot 42.000037
; residue   43 ccc rtp ccc q 1.0
  940         c3     43    ccc     C1    940 0.17060900  12.010000   ; qtot 42.170646
  941         hx     43    ccc     H1    941 0.04213200   1.008000   ; qtot 42.212778
  942         hx     43    ccc     H2    942 0.04213200   1.008000   ; qtot 42.254910
  943         c3     43    ccc     C2    943 -0.04496700  12.010000   ; qtot 42.209943
  944         hc     43    ccc     H3    944 0.02647500   1.008000   ; qtot 42.236418
  945         hc     43    ccc     H4    945 0.02647500   1.008000   ; qtot 42.262893
  946         c3     43    ccc     C3    946 0.04732600  12.010000   ; qtot 42.310219
  947         h1     43    ccc     H5    947 0.07030200   1.008000   ; qtot 42.380521
  948         h1     43    ccc     H6    948 0.07030200   1.008000   ; qtot 42.450823
  949         n4     43    ccc     N1    949 -0.21077700  14.010000   ; qtot 42.240046
  950         hn     43    ccc     H7    950 0.28399900   1.008000   ; qtot 42.524045
  951         hn     43    ccc     H8    951 0.28399900   1.008000   ; qtot 42.808044
  952         os     43    ccc     O1    952 -0.09200600  16.000000   ; qtot 42.716038
  953         hn     43    ccc    H17    953 0.28399900   1.008000   ; qtot 43.000037
; residue   44 ccc rtp ccc q 1.0
  954         c3     44    ccc     C1    954 0.17060900  12.010000   ; qtot 43.170646
  955         hx     44    ccc     H1    955 0.04213200   1.008000   ; qtot 43.212778
  956         hx     44    ccc     H2    956 0.04213200   1.008000   ; qtot 43.254910
  957         c3     44    ccc     C2    957 -0.04496700  12.010000   ; qtot 43.209943
  958         hc     44    ccc     H3    958 0.02647500   1.008000   ; qtot 43.236418
  959         hc     44    ccc     H4    959 0.02647500   1.008000   ; qtot 43.262893
  960         c3     44    ccc     C3    960 0.04732600  12.010000   ; qtot 43.310219
  961         h1     44    ccc     H5    961 0.07030200   1.008000   ; qtot 43.380521
  962         h1     44    ccc     H6    962 0.07030200   1.008000   ; qtot 43.450823
  963         n4     44    ccc     N1    963 -0.21077700  14.010000   ; qtot 43.240046
  964         hn     44    ccc     H7    964 0.28399900   1.008000   ; qtot 43.524045
  965         hn     44    ccc     H8    965 0.28399900   1.008000   ; qtot 43.808044
  966         os     44    ccc     O1    966 -0.09200600  16.000000   ; qtot 43.716038
  967         hn     44    ccc    H17    967 0.28399900   1.008000   ; qtot 44.000037
; residue   45 ccc rtp ccc q 1.0
  968         c3     45    ccc     C1    968 0.17060900  12.010000   ; qtot 44.170646
  969         hx     45    ccc     H1    969 0.04213200   1.008000   ; qtot 44.212778
  970         hx     45    ccc     H2    970 0.04213200   1.008000   ; qtot 44.254910
  971         c3     45    ccc     C2    971 -0.04496700  12.010000   ; qtot 44.209943
  972         hc     45    ccc     H3    972 0.02647500   1.008000   ; qtot 44.236418
  973         hc     45    ccc     H4    973 0.02647500   1.008000   ; qtot 44.262893
  974         c3     45    ccc     C3    974 0.04732600  12.010000   ; qtot 44.310219
  975         h1     45    ccc     H5    975 0.07030200   1.008000   ; qtot 44.380521
  976         h1     45    ccc     H6    976 0.07030200   1.008000   ; qtot 44.450823
  977         n4     45    ccc     N1    977 -0.21077700  14.010000   ; qtot 44.240046
  978         hn     45    ccc     H7    978 0.28399900   1.008000   ; qtot 44.524045
  979         hn     45    ccc     H8    979 0.28399900   1.008000   ; qtot 44.808044
  980         os     45    ccc     O1    980 -0.09200600  16.000000   ; qtot 44.716038
  981         hn     45    ccc    H17    981 0.28399900   1.008000   ; qtot 45.000037
; residue   46 ccc rtp ccc q 1.0
  982         c3     46    ccc     C1    982 0.17060900  12.010000   ; qtot 45.170646
  983         hx     46    ccc     H1    983 0.04213200   1.008000   ; qtot 45.212778
  984         hx     46    ccc     H2    984 0.04213200   1.008000   ; qtot 45.254910
  985         c3     46    ccc     C2    985 -0.04496700  12.010000   ; qtot 45.209943
  986         hc     46    ccc     H3    986 0.02647500   1.008000   ; qtot 45.236418
  987         hc     46    ccc     H4    987 0.02647500   1.008000   ; qtot 45.262893
  988         c3     46    ccc     C3    988 0.04732600  12.010000   ; qtot 45.310219
  989         h1     46    ccc     H5    989 0.07030200   1.008000   ; qtot 45.380521
  990         h1     46    ccc     H6    990 0.07030200   1.008000   ; qtot 45.450823
  991         n4     46    ccc     N1    991 -0.21077700  14.010000   ; qtot 45.240046
  992         hn     46    ccc     H7    992 0.28399900   1.008000   ; qtot 45.524045
  993         hn     46    ccc     H8    993 0.28399900   1.008000   ; qtot 45.808044
  994         os     46    ccc     O1    994 -0.09200600  16.000000   ; qtot 45.716038
  995         hn     46    ccc    H17    995 0.28399900   1.008000   ; qtot 46.000037

[ bonds ]
;    ai     aj funct         c0         c1         c2         c3
      1      2     1   0.15110 237065.440000
      1      5     1   0.15110 237065.440000
      1      8     1   0.15110 237065.440000
      2     14     1   0.15375 251793.120000
      5     17     1   0.15375 251793.120000
      8     11     1   0.15375 251793.120000
     11     23     1   0.15375 251793.120000
     14     26     1   0.15375 251793.120000
     17     20     1   0.15375 251793.120000
     20     58     1   0.14316 258236.480000
     23     88     1   0.14316 258236.480000
     26    118     1   0.14316 258236.480000
     30     31     1   0.15110 237065.440000
     30     34     1   0.15110 237065.440000
     30     37     1   0.15110 237065.440000
     31     43     1   0.15375 251793.120000
     34     46     1   0.15375 251793.120000
     37     40     1   0.15375 251793.120000
     40     49     1   0.15375 251793.120000
     43     55     1   0.15375 251793.120000
     46     52     1   0.15375 251793.120000
     49     58     1   0.14316 258236.480000
     52    148     1   0.14316 258236.480000
     55    178     1   0.14316 258236.480000
     60     61     1   0.15110 237065.440000
     60     64     1   0.15110 237065.440000
     60     67     1   0.15110 237065.440000
     61     73     1   0.15375 251793.120000
     64     76     1   0.15375 251793.120000
     67     70     1   0.15375 251793.120000
     70     79     1   0.15375 251793.120000
     73     85     1   0.15375 251793.120000
     76     82     1   0.15375 251793.120000
     79     88     1   0.14316 258236.480000
     82    208     1   0.14316 258236.480000
     85    238     1   0.14316 258236.480000
     90     91     1   0.15110 237065.440000
     90     94     1   0.15110 237065.440000
     90     97     1   0.15110 237065.440000
     91    103     1   0.15375 251793.120000
     94    106     1   0.15375 251793.120000
     97    100     1   0.15375 251793.120000
    100    109     1   0.15375 251793.120000
    103    115     1   0.15375 251793.120000
    106    112     1   0.15375 251793.120000
    109    118     1   0.14316 258236.480000
    112    268     1   0.14316 258236.480000
    115    298     1   0.14316 258236.480000
    120    121     1   0.15110 237065.440000
    120    124     1   0.15110 237065.440000
    120    127     1   0.15110 237065.440000
    121    133     1   0.15375 251793.120000
    124    136     1   0.15375 251793.120000
    127    130     1   0.15375 251793.120000
    130    139     1   0.15375 251793.120000
    133    145     1   0.15375 251793.120000
    136    142     1   0.15375 251793.120000
    139    148     1   0.14316 258236.480000
    142    328     1   0.14316 258236.480000
    145    358     1   0.14316 258236.480000
    150    151     1   0.15110 237065.440000
    150    154     1   0.15110 237065.440000
    150    157     1   0.15110 237065.440000
    151    163     1   0.15375 251793.120000
    154    166     1   0.15375 251793.120000
    157    160     1   0.15375 251793.120000
    160    169     1   0.15375 251793.120000
    163    175     1   0.15375 251793.120000
    166    172     1   0.15375 251793.120000
    169    178     1   0.14316 258236.480000
    172    388     1   0.14316 258236.480000
    175    418     1   0.14316 258236.480000
    180    181     1   0.15110 237065.440000
    180    184     1   0.15110 237065.440000
    180    187     1   0.15110 237065.440000
    181    193     1   0.15375 251793.120000
    184    196     1   0.15375 251793.120000
    187    190     1   0.15375 251793.120000
    190    199     1   0.15375 251793.120000
    193    205     1   0.15375 251793.120000
    196    202     1   0.15375 251793.120000
    199    208     1   0.14316 258236.480000
    202    448     1   0.14316 258236.480000
    205    478     1   0.14316 258236.480000
    210    211     1   0.15110 237065.440000
    210    214     1   0.15110 237065.440000
    210    217     1   0.15110 237065.440000
    211    223     1   0.15375 251793.120000
    214    226     1   0.15375 251793.120000
    217    220     1   0.15375 251793.120000
    220    229     1   0.15375 251793.120000
    223    235     1   0.15375 251793.120000
    226    232     1   0.15375 251793.120000
    229    238     1   0.14316 258236.480000
    232    508     1   0.14316 258236.480000
    235    538     1   0.14316 258236.480000
    240    241     1   0.15110 237065.440000
    240    244     1   0.15110 237065.440000
    240    247     1   0.15110 237065.440000
    241    253     1   0.15375 251793.120000
    244    256     1   0.15375 251793.120000
    247    250     1   0.15375 251793.120000
    250    259     1   0.15375 251793.120000
    253    265     1   0.15375 251793.120000
    256    262     1   0.15375 251793.120000
    259    268     1   0.14316 258236.480000
    262    568     1   0.14316 258236.480000
    265    598     1   0.14316 258236.480000
    270    271     1   0.15110 237065.440000
    270    274     1   0.15110 237065.440000
    270    277     1   0.15110 237065.440000
    271    283     1   0.15375 251793.120000
    274    286     1   0.15375 251793.120000
    277    280     1   0.15375 251793.120000
    280    289     1   0.15375 251793.120000
    283    295     1   0.15375 251793.120000
    286    292     1   0.15375 251793.120000
    289    298     1   0.14316 258236.480000
    292    628     1   0.14316 258236.480000
    295    658     1   0.14316 258236.480000
    300    301     1   0.15110 237065.440000
    300    304     1   0.15110 237065.440000
    300    307     1   0.15110 237065.440000
    301    313     1   0.15375 251793.120000
    304    316     1   0.15375 251793.120000
    307    310     1   0.15375 251793.120000
    310    319     1   0.15375 251793.120000
    313    325     1   0.15375 251793.120000
    316    322     1   0.15375 251793.120000
    319    328     1   0.14316 258236.480000
    322    672     1   0.14316 258236.480000
    325    686     1   0.14316 258236.480000
    330    331     1   0.15110 237065.440000
    330    334     1   0.15110 237065.440000
    330    337     1   0.15110 237065.440000
    331    343     1   0.15375 251793.120000
    334    346     1   0.15375 251793.120000
    337    340     1   0.15375 251793.120000
    340    349     1   0.15375 251793.120000
    343    355     1   0.15375 251793.120000
    346    352     1   0.15375 251793.120000
    349    358     1   0.14316 258236.480000
    352    700     1   0.14316 258236.480000
    355    714     1   0.14316 258236.480000
    360    361     1   0.15110 237065.440000
    360    364     1   0.15110 237065.440000
    360    367     1   0.15110 237065.440000
    361    373     1   0.15375 251793.120000
    364    376     1   0.15375 251793.120000
    367    370     1   0.15375 251793.120000
    370    379     1   0.15375 251793.120000
    373    385     1   0.15375 251793.120000
    376    382     1   0.15375 251793.120000
    379    388     1   0.14316 258236.480000
    382    728     1   0.14316 258236.480000
    385    742     1   0.14316 258236.480000
    390    391     1   0.15110 237065.440000
    390    394     1   0.15110 237065.440000
    390    397     1   0.15110 237065.440000
    391    403     1   0.15375 251793.120000
    394    406     1   0.15375 251793.120000
    397    400     1   0.15375 251793.120000
    400    409     1   0.15375 251793.120000
    403    415     1   0.15375 251793.120000
    406    412     1   0.15375 251793.120000
    409    418     1   0.14316 258236.480000
    412    756     1   0.14316 258236.480000
    415    770     1   0.14316 258236.480000
    420    421     1   0.15110 237065.440000
    420    424     1   0.15110 237065.440000
    420    427     1   0.15110 237065.440000
    421    433     1   0.15375 251793.120000
    424    436     1   0.15375 251793.120000
    427    430     1   0.15375 251793.120000
    430    439     1   0.15375 251793.120000
    433    445     1   0.15375 251793.120000
    436    442     1   0.15375 251793.120000
    439    448     1   0.14316 258236.480000
    442    784     1   0.14316 258236.480000
    445    798     1   0.14316 258236.480000
    450    451     1   0.15110 237065.440000
    450    454     1   0.15110 237065.440000
    450    457     1   0.15110 237065.440000
    451    463     1   0.15375 251793.120000
    454    466     1   0.15375 251793.120000
    457    460     1   0.15375 251793.120000
    460    469     1   0.15375 251793.120000
    463    475     1   0.15375 251793.120000
    466    472     1   0.15375 251793.120000
    469    478     1   0.14316 258236.480000
    472    812     1   0.14316 258236.480000
    475    826     1   0.14316 258236.480000
    480    481     1   0.15110 237065.440000
    480    484     1   0.15110 237065.440000
    480    487     1   0.15110 237065.440000
    481    493     1   0.15375 251793.120000
    484    496     1   0.15375 251793.120000
    487    490     1   0.15375 251793.120000
    490    499     1   0.15375 251793.120000
    493    505     1   0.15375 251793.120000
    496    502     1   0.15375 251793.120000
    499    508     1   0.14316 258236.480000
    502    840     1   0.14316 258236.480000
    505    854     1   0.14316 258236.480000
    510    511     1   0.15110 237065.440000
    510    514     1   0.15110 237065.440000
    510    517     1   0.15110 237065.440000
    511    523     1   0.15375 251793.120000
    514    526     1   0.15375 251793.120000
    517    520     1   0.15375 251793.120000
    520    529     1   0.15375 251793.120000
    523    535     1   0.15375 251793.120000
    526    532     1   0.15375 251793.120000
    529    538     1   0.14316 258236.480000
    532    868     1   0.14316 258236.480000
    535    882     1   0.14316 258236.480000
    540    541     1   0.15110 237065.440000
    540    544     1   0.15110 237065.440000
    540    547     1   0.15110 237065.440000
    541    553     1   0.15375 251793.120000
    544    556     1   0.15375 251793.120000
    547    550     1   0.15375 251793.120000
    550    559     1   0.15375 251793.120000
    553    565     1   0.15375 251793.120000
    556    562     1   0.15375 251793.120000
    559    568     1   0.14316 258236.480000
    562    896     1   0.14316 258236.480000
    565    910     1   0.14316 258236.480000
    570    571     1   0.15110 237065.440000
    570    574     1   0.15110 237065.440000
    570    577     1   0.15110 237065.440000
    571    583     1   0.15375 251793.120000
    574    586     1   0.15375 251793.120000
    577    580     1   0.15375 251793.120000
    580    589     1   0.15375 251793.120000
    583    595     1   0.15375 251793.120000
    586    592     1   0.15375 251793.120000
    589    598     1   0.14316 258236.480000
    592    924     1   0.14316 258236.480000
    595    938     1   0.14316 258236.480000
    600    601     1   0.15110 237065.440000
    600    604     1   0.15110 237065.440000
    600    607     1   0.15110 237065.440000
    601    613     1   0.15375 251793.120000
    604    616     1   0.15375 251793.120000
    607    610     1   0.15375 251793.120000
    610    619     1   0.15375 251793.120000
    613    625     1   0.15375 251793.120000
    616    622     1   0.15375 251793.120000
    619    628     1   0.14316 258236.480000
    622    952     1   0.14316 258236.480000
    625    966     1   0.14316 258236.480000
    630    631     1   0.15110 237065.440000
    630    634     1   0.15110 237065.440000
    630    637     1   0.15110 237065.440000
    631    643     1   0.15375 251793.120000
    634    646     1   0.15375 251793.120000
    637    640     1   0.15375 251793.120000
    640    649     1   0.15375 251793.120000
    643    655     1   0.15375 251793.120000
    646    652     1   0.15375 251793.120000
    649    658     1   0.14316 258236.480000
    652    980     1   0.14316 258236.480000
    655    994     1   0.14316 258236.480000
    660    663     1   0.15375 251793.120000
    660    669     1   0.15110 237065.440000
    663    666     1   0.15375 251793.120000
    666    672     1   0.14316 258236.480000
    674    677     1   0.15375 251793.120000
    674    683     1   0.15110 237065.440000
    677    680     1   0.15375 251793.120000
    680    686     1   0.14316 258236.480000
    688    691     1   0.15375 251793.120000
    688    697     1   0.15110 237065.440000
    691    694     1   0.15375 251793.120000
    694    700     1   0.14316 258236.480000
    702    705     1   0.15375 251793.120000
    702    711     1   0.15110 237065.440000
    705    708     1   0.15375 251793.120000
    708    714     1   0.14316 258236.480000
    716    719     1   0.15375 251793.120000
    716    725     1   0.15110 237065.440000
    719    722     1   0.15375 251793.120000
    722    728     1   0.14316 258236.480000
    730    733     1   0.15375 251793.120000
    730    739     1   0.15110 237065.440000
    733    736     1   0.15375 251793.120000
    736    742     1   0.14316 258236.480000
    744    747     1   0.15375 251793.120000
    744    753     1   0.15110 237065.440000
    747    750     1   0.15375 251793.120000
    750    756     1   0.14316 258236.480000
    758    761     1   0.15375 251793.120000
    758    767     1   0.15110 237065.440000
    761    764     1   0.15375 251793.120000
    764    770     1   0.14316 258236.480000
    772    775     1   0.15375 251793.120000
    772    781     1   0.15110 237065.440000
    775    778     1   0.15375 251793.120000
    778    784     1   0.14316 258236.480000
    786    789     1   0.15375 251793.120000
    786    795     1   0.15110 237065.440000
    789    792     1   0.15375 251793.120000
    792    798     1   0.14316 258236.480000
    800    803     1   0.15375 251793.120000
    800    809     1   0.15110 237065.440000
    803    806     1   0.15375 251793.120000
    806    812     1   0.14316 258236.480000
    814    817     1   0.15375 251793.120000
    814    823     1   0.15110 237065.440000
    817    820     1   0.15375 251793.120000
    820    826     1   0.14316 258236.480000
    828    831     1   0.15375 251793.120000
    828    837     1   0.15110 237065.440000
    831    834     1   0.15375 251793.120000
    834    840     1   0.14316 258236.480000
    842    845     1   0.15375 251793.120000
    842    851     1   0.15110 237065.440000
    845    848     1   0.15375 251793.120000
    848    854     1   0.14316 258236.480000
    856    859     1   0.15375 251793.120000
    856    865     1   0.15110 237065.440000
    859    862     1   0.15375 251793.120000
    862    868     1   0.14316 258236.480000
    870    873     1   0.15375 251793.120000
    870    879     1   0.15110 237065.440000
    873    876     1   0.15375 251793.120000
    876    882     1   0.14316 258236.480000
    884    887     1   0.15375 251793.120000
    884    893     1   0.15110 237065.440000
    887    890     1   0.15375 251793.120000
    890    896     1   0.14316 258236.480000
    898    901     1   0.15375 251793.120000
    898    907     1   0.15110 237065.440000
    901    904     1   0.15375 251793.120000
    904    910     1   0.14316 258236.480000
    912    915     1   0.15375 251793.120000
    912    921     1   0.15110 237065.440000
    915    918     1   0.15375 251793.120000
    918    924     1   0.14316 258236.480000
    926    929     1   0.15375 251793.120000
    926    935     1   0.15110 237065.440000
    929    932     1   0.15375 251793.120000
    932    938     1   0.14316 258236.480000
    940    943     1   0.15375 251793.120000
    940    949     1   0.15110 237065.440000
    943    946     1   0.15375 251793.120000
    946    952     1   0.14316 258236.480000
    954    957     1   0.15375 251793.120000
    954    963     1   0.15110 237065.440000
    957    960     1   0.15375 251793.120000
    960    966     1   0.14316 258236.480000
    968    971     1   0.15375 251793.120000
    968    977     1   0.15110 237065.440000
    971    974     1   0.15375 251793.120000
    974    980     1   0.14316 258236.480000
    982    985     1   0.15375 251793.120000
    982    991     1   0.15110 237065.440000
    985    988     1   0.15375 251793.120000
    988    994     1   0.14316 258236.480000
      1     29     1   0.10304 312293.760000
      2      3     1   0.10910 283424.160000
      2      4     1   0.10910 283424.160000
      5      6     1   0.10910 283424.160000
      5      7     1   0.10910 283424.160000
      8      9     1   0.10910 283424.160000
      8     10     1   0.10910 283424.160000
     11     12     1   0.10969 276646.080000
     11     13     1   0.10969 276646.080000
     14     15     1   0.10969 276646.080000
     14     16     1   0.10969 276646.080000
     17     18     1   0.10969 276646.080000
     17     19     1   0.10969 276646.080000
     20     21     1   0.10969 276646.080000
     20     22     1   0.10969 276646.080000
     23     24     1   0.10969 276646.080000
     23     25     1   0.10969 276646.080000
     26     27     1   0.10969 276646.080000
     26     28     1   0.10969 276646.080000
     30     59     1   0.10304 312293.760000
     31     32     1   0.10910 283424.160000
     31     33     1   0.10910 283424.160000
     34     35     1   0.10910 283424.160000
     34     36     1   0.10910 283424.160000
     37     38     1   0.10910 283424.160000
     37     39     1   0.10910 283424.160000
     40     41     1   0.10969 276646.080000
     40     42     1   0.10969 276646.080000
     43     44     1   0.10969 276646.080000
     43     45     1   0.10969 276646.080000
     46     47     1   0.10969 276646.080000
     46     48     1   0.10969 276646.080000
     49     50     1   0.10969 276646.080000
     49     51     1   0.10969 276646.080000
     52     53     1   0.10969 276646.080000
     52     54     1   0.10969 276646.080000
     55     56     1   0.10969 276646.080000
     55     57     1   0.10969 276646.080000
     60     89     1   0.10304 312293.760000
     61     62     1   0.10910 283424.160000
     61     63     1   0.10910 283424.160000
     64     65     1   0.10910 283424.160000
     64     66     1   0.10910 283424.160000
     67     68     1   0.10910 283424.160000
     67     69     1   0.10910 283424.160000
     70     71     1   0.10969 276646.080000
     70     72     1   0.10969 276646.080000
     73     74     1   0.10969 276646.080000
     73     75     1   0.10969 276646.080000
     76     77     1   0.10969 276646.080000
     76     78     1   0.10969 276646.080000
     79     80     1   0.10969 276646.080000
     79     81     1   0.10969 276646.080000
     82     83     1   0.10969 276646.080000
     82     84     1   0.10969 276646.080000
     85     86     1   0.10969 276646.080000
     85     87     1   0.10969 276646.080000
     90    119     1   0.10304 312293.760000
     91     92     1   0.10910 283424.160000
     91     93     1   0.10910 283424.160000
     94     95     1   0.10910 283424.160000
     94     96     1   0.10910 283424.160000
     97     98     1   0.10910 283424.160000
     97     99     1   0.10910 283424.160000
    100    101     1   0.10969 276646.080000
    100    102     1   0.10969 276646.080000
    103    104     1   0.10969 276646.080000
    103    105     1   0.10969 276646.080000
    106    107     1   0.10969 276646.080000
    106    108     1   0.10969 276646.080000
    109    110     1   0.10969 276646.080000
    109    111     1   0.10969 276646.080000
    112    113     1   0.10969 276646.080000
    112    114     1   0.10969 276646.080000
    115    116     1   0.10969 276646.080000
    115    117     1   0.10969 276646.080000
    120    149     1   0.10304 312293.760000
    121    122     1   0.10910 283424.160000
    121    123     1   0.10910 283424.160000
    124    125     1   0.10910 283424.160000
    124    126     1   0.10910 283424.160000
    127    128     1   0.10910 283424.160000
    127    129     1   0.10910 283424.160000
    130    131     1   0.10969 276646.080000
    130    132     1   0.10969 276646.080000
    133    134     1   0.10969 276646.080000
    133    135     1   0.10969 276646.080000
    136    137     1   0.10969 276646.080000
    136    138     1   0.10969 276646.080000
    139    140     1   0.10969 276646.080000
    139    141     1   0.10969 276646.080000
    142    143     1   0.10969 276646.080000
    142    144     1   0.10969 276646.080000
    145    146     1   0.10969 276646.080000
    145    147     1   0.10969 276646.080000
    150    179     1   0.10304 312293.760000
    151    152     1   0.10910 283424.160000
    151    153     1   0.10910 283424.160000
    154    155     1   0.10910 283424.160000
    154    156     1   0.10910 283424.160000
    157    158     1   0.10910 283424.160000
    157    159     1   0.10910 283424.160000
    160    161     1   0.10969 276646.080000
    160    162     1   0.10969 276646.080000
    163    164     1   0.10969 276646.080000
    163    165     1   0.10969 276646.080000
    166    167     1   0.10969 276646.080000
    166    168     1   0.10969 276646.080000
    169    170     1   0.10969 276646.080000
    169    171     1   0.10969 276646.080000
    172    173     1   0.10969 276646.080000
    172    174     1   0.10969 276646.080000
    175    176     1   0.10969 276646.080000
    175    177     1   0.10969 276646.080000
    180    209     1   0.10304 312293.760000
    181    182     1   0.10910 283424.160000
    181    183     1   0.10910 283424.160000
    184    185     1   0.10910 283424.160000
    184    186     1   0.10910 283424.160000
    187    188     1   0.10910 283424.160000
    187    189     1   0.10910 283424.160000
    190    191     1   0.10969 276646.080000
    190    192     1   0.10969 276646.080000
    193    194     1   0.10969 276646.080000
    193    195     1   0.10969 276646.080000
    196    197     1   0.10969 276646.080000
    196    198     1   0.10969 276646.080000
    199    200     1   0.10969 276646.080000
    199    201     1   0.10969 276646.080000
    202    203     1   0.10969 276646.080000
    202    204     1   0.10969 276646.080000
    205    206     1   0.10969 276646.080000
    205    207     1   0.10969 276646.080000
    210    239     1   0.10304 312293.760000
    211    212     1   0.10910 283424.160000
    211    213     1   0.10910 283424.160000
    214    215     1   0.10910 283424.160000
    214    216     1   0.10910 283424.160000
    217    218     1   0.10910 283424.160000
    217    219     1   0.10910 283424.160000
    220    221     1   0.10969 276646.080000
    220    222     1   0.10969 276646.080000
    223    224     1   0.10969 276646.080000
    223    225     1   0.10969 276646.080000
    226    227     1   0.10969 276646.080000
    226    228     1   0.10969 276646.080000
    229    230     1   0.10969 276646.080000
    229    231     1   0.10969 276646.080000
    232    233     1   0.10969 276646.080000
    232    234     1   0.10969 276646.080000
    235    236     1   0.10969 276646.080000
    235    237     1   0.10969 276646.080000
    240    269     1   0.10304 312293.760000
    241    242     1   0.10910 283424.160000
    241    243     1   0.10910 283424.160000
    244    245     1   0.10910 283424.160000
    244    246     1   0.10910 283424.160000
    247    248     1   0.10910 283424.160000
    247    249     1   0.10910 283424.160000
    250    251     1   0.10969 276646.080000
    250    252     1   0.10969 276646.080000
    253    254     1   0.10969 276646.080000
    253    255     1   0.10969 276646.080000
    256    257     1   0.10969 276646.080000
    256    258     1   0.10969 276646.080000
    259    260     1   0.10969 276646.080000
    259    261     1   0.10969 276646.080000
    262    263     1   0.10969 276646.080000
    262    264     1   0.10969 276646.080000
    265    266     1   0.10969 276646.080000
    265    267     1   0.10969 276646.080000
    270    299     1   0.10304 312293.760000
    271    272     1   0.10910 283424.160000
    271    273     1   0.10910 283424.160000
    274    275     1   0.10910 283424.160000
    274    276     1   0.10910 283424.160000
    277    278     1   0.10910 283424.160000
    277    279     1   0.10910 283424.160000
    280    281     1   0.10969 276646.080000
    280    282     1   0.10969 276646.080000
    283    284     1   0.10969 276646.080000
    283    285     1   0.10969 276646.080000
    286    287     1   0.10969 276646.080000
    286    288     1   0.10969 276646.080000
    289    290     1   0.10969 276646.080000
    289    291     1   0.10969 276646.080000
    292    293     1   0.10969 276646.080000
    292    294     1   0.10969 276646.080000
    295    296     1   0.10969 276646.080000
    295    297     1   0.10969 276646.080000
    300    329     1   0.10304 312293.760000
    301    302     1   0.10910 283424.160000
    301    303     1   0.10910 283424.160000
    304    305     1   0.10910 283424.160000
    304    306     1   0.10910 283424.160000
    307    308     1   0.10910 283424.160000
    307    309     1   0.10910 283424.160000
    310    311     1   0.10969 276646.080000
    310    312     1   0.10969 276646.080000
    313    314     1   0.10969 276646.080000
    313    315     1   0.10969 276646.080000
    316    317     1   0.10969 276646.080000
    316    318     1   0.10969 276646.080000
    319    320     1   0.10969 276646.080000
    319    321     1   0.10969 276646.080000
    322    323     1   0.10969 276646.080000
    322    324     1   0.10969 276646.080000
    325    326     1   0.10969 276646.080000
    325    327     1   0.10969 276646.080000
    330    359     1   0.10304 312293.760000
    331    332     1   0.10910 283424.160000
    331    333     1   0.10910 283424.160000
    334    335     1   0.10910 283424.160000
    334    336     1   0.10910 283424.160000
    337    338     1   0.10910 283424.160000
    337    339     1   0.10910 283424.160000
    340    341     1   0.10969 276646.080000
    340    342     1   0.10969 276646.080000
    343    344     1   0.10969 276646.080000
    343    345     1   0.10969 276646.080000
    346    347     1   0.10969 276646.080000
    346    348     1   0.10969 276646.080000
    349    350     1   0.10969 276646.080000
    349    351     1   0.10969 276646.080000
    352    353     1   0.10969 276646.080000
    352    354     1   0.10969 276646.080000
    355    356     1   0.10969 276646.080000
    355    357     1   0.10969 276646.080000
    360    389     1   0.10304 312293.760000
    361    362     1   0.10910 283424.160000
    361    363     1   0.10910 283424.160000
    364    365     1   0.10910 283424.160000
    364    366     1   0.10910 283424.160000
    367    368     1   0.10910 283424.160000
    367    369     1   0.10910 283424.160000
    370    371     1   0.10969 276646.080000
    370    372     1   0.10969 276646.080000
    373    374     1   0.10969 276646.080000
    373    375     1   0.10969 276646.080000
    376    377     1   0.10969 276646.080000
    376    378     1   0.10969 276646.080000
    379    380     1   0.10969 276646.080000
    379    381     1   0.10969 276646.080000
    382    383     1   0.10969 276646.080000
    382    384     1   0.10969 276646.080000
    385    386     1   0.10969 276646.080000
    385    387     1   0.10969 276646.080000
    390    419     1   0.10304 312293.760000
    391    392     1   0.10910 283424.160000
    391    393     1   0.10910 283424.160000
    394    395     1   0.10910 283424.160000
    394    396     1   0.10910 283424.160000
    397    398     1   0.10910 283424.160000
    397    399     1   0.10910 283424.160000
    400    401     1   0.10969 276646.080000
    400    402     1   0.10969 276646.080000
    403    404     1   0.10969 276646.080000
    403    405     1   0.10969 276646.080000
    406    407     1   0.10969 276646.080000
    406    408     1   0.10969 276646.080000
    409    410     1   0.10969 276646.080000
    409    411     1   0.10969 276646.080000
    412    413     1   0.10969 276646.080000
    412    414     1   0.10969 276646.080000
    415    416     1   0.10969 276646.080000
    415    417     1   0.10969 276646.080000
    420    449     1   0.10304 312293.760000
    421    422     1   0.10910 283424.160000
    421    423     1   0.10910 283424.160000
    424    425     1   0.10910 283424.160000
    424    426     1   0.10910 283424.160000
    427    428     1   0.10910 283424.160000
    427    429     1   0.10910 283424.160000
    430    431     1   0.10969 276646.080000
    430    432     1   0.10969 276646.080000
    433    434     1   0.10969 276646.080000
    433    435     1   0.10969 276646.080000
    436    437     1   0.10969 276646.080000
    436    438     1   0.10969 276646.080000
    439    440     1   0.10969 276646.080000
    439    441     1   0.10969 276646.080000
    442    443     1   0.10969 276646.080000
    442    444     1   0.10969 276646.080000
    445    446     1   0.10969 276646.080000
    445    447     1   0.10969 276646.080000
    450    479     1   0.10304 312293.760000
    451    452     1   0.10910 283424.160000
    451    453     1   0.10910 283424.160000
    454    455     1   0.10910 283424.160000
    454    456     1   0.10910 283424.160000
    457    458     1   0.10910 283424.160000
    457    459     1   0.10910 283424.160000
    460    461     1   0.10969 276646.080000
    460    462     1   0.10969 276646.080000
    463    464     1   0.10969 276646.080000
    463    465     1   0.10969 276646.080000
    466    467     1   0.10969 276646.080000
    466    468     1   0.10969 276646.080000
    469    470     1   0.10969 276646.080000
    469    471     1   0.10969 276646.080000
    472    473     1   0.10969 276646.080000
    472    474     1   0.10969 276646.080000
    475    476     1   0.10969 276646.080000
    475    477     1   0.10969 276646.080000
    480    509     1   0.10304 312293.760000
    481    482     1   0.10910 283424.160000
    481    483     1   0.10910 283424.160000
    484    485     1   0.10910 283424.160000
    484    486     1   0.10910 283424.160000
    487    488     1   0.10910 283424.160000
    487    489     1   0.10910 283424.160000
    490    491     1   0.10969 276646.080000
    490    492     1   0.10969 276646.080000
    493    494     1   0.10969 276646.080000
    493    495     1   0.10969 276646.080000
    496    497     1   0.10969 276646.080000
    496    498     1   0.10969 276646.080000
    499    500     1   0.10969 276646.080000
    499    501     1   0.10969 276646.080000
    502    503     1   0.10969 276646.080000
    502    504     1   0.10969 276646.080000
    505    506     1   0.10969 276646.080000
    505    507     1   0.10969 276646.080000
    510    539     1   0.10304 312293.760000
    511    512     1   0.10910 283424.160000
    511    513     1   0.10910 283424.160000
    514    515     1   0.10910 283424.160000
    514    516     1   0.10910 283424.160000
    517    518     1   0.10910 283424.160000
    517    519     1   0.10910 283424.160000
    520    521     1   0.10969 276646.080000
    520    522     1   0.10969 276646.080000
    523    524     1   0.10969 276646.080000
    523    525     1   0.10969 276646.080000
    526    527     1   0.10969 276646.080000
    526    528     1   0.10969 276646.080000
    529    530     1   0.10969 276646.080000
    529    531     1   0.10969 276646.080000
    532    533     1   0.10969 276646.080000
    532    534     1   0.10969 276646.080000
    535    536     1   0.10969 276646.080000
    535    537     1   0.10969 276646.080000
    540    569     1   0.10304 312293.760000
    541    542     1   0.10910 283424.160000
    541    543     1   0.10910 283424.160000
    544    545     1   0.10910 283424.160000
    544    546     1   0.10910 283424.160000
    547    548     1   0.10910 283424.160000
    547    549     1   0.10910 283424.160000
    550    551     1   0.10969 276646.080000
    550    552     1   0.10969 276646.080000
    553    554     1   0.10969 276646.080000
    553    555     1   0.10969 276646.080000
    556    557     1   0.10969 276646.080000
    556    558     1   0.10969 276646.080000
    559    560     1   0.10969 276646.080000
    559    561     1   0.10969 276646.080000
    562    563     1   0.10969 276646.080000
    562    564     1   0.10969 276646.080000
    565    566     1   0.10969 276646.080000
    565    567     1   0.10969 276646.080000
    570    599     1   0.10304 312293.760000
    571    572     1   0.10910 283424.160000
    571    573     1   0.10910 283424.160000
    574    575     1   0.10910 283424.160000
    574    576     1   0.10910 283424.160000
    577    578     1   0.10910 283424.160000
    577    579     1   0.10910 283424.160000
    580    581     1   0.10969 276646.080000
    580    582     1   0.10969 276646.080000
    583    584     1   0.10969 276646.080000
    583    585     1   0.10969 276646.080000
    586    587     1   0.10969 276646.080000
    586    588     1   0.10969 276646.080000
    589    590     1   0.10969 276646.080000
    589    591     1   0.10969 276646.080000
    592    593     1   0.10969 276646.080000
    592    594     1   0.10969 276646.080000
    595    596     1   0.10969 276646.080000
    595    597     1   0.10969 276646.080000
    600    629     1   0.10304 312293.760000
    601    602     1   0.10910 283424.160000
    601    603     1   0.10910 283424.160000
    604    605     1   0.10910 283424.160000
    604    606     1   0.10910 283424.160000
    607    608     1   0.10910 283424.160000
    607    609     1   0.10910 283424.160000
    610    611     1   0.10969 276646.080000
    610    612     1   0.10969 276646.080000
    613    614     1   0.10969 276646.080000
    613    615     1   0.10969 276646.080000
    616    617     1   0.10969 276646.080000
    616    618     1   0.10969 276646.080000
    619    620     1   0.10969 276646.080000
    619    621     1   0.10969 276646.080000
    622    623     1   0.10969 276646.080000
    622    624     1   0.10969 276646.080000
    625    626     1   0.10969 276646.080000
    625    627     1   0.10969 276646.080000
    630    659     1   0.10304 312293.760000
    631    632     1   0.10910 283424.160000
    631    633     1   0.10910 283424.160000
    634    635     1   0.10910 283424.160000
    634    636     1   0.10910 283424.160000
    637    638     1   0.10910 283424.160000
    637    639     1   0.10910 283424.160000
    640    641     1   0.10969 276646.080000
    640    642     1   0.10969 276646.080000
    643    644     1   0.10969 276646.080000
    643    645     1   0.10969 276646.080000
    646    647     1   0.10969 276646.080000
    646    648     1   0.10969 276646.080000
    649    650     1   0.10969 276646.080000
    649    651     1   0.10969 276646.080000
    652    653     1   0.10969 276646.080000
    652    654     1   0.10969 276646.080000
    655    656     1   0.10969 276646.080000
    655    657     1   0.10969 276646.080000
    660    661     1   0.10910 283424.160000
    660    662     1   0.10910 283424.160000
    663    664     1   0.10969 276646.080000
    663    665     1   0.10969 276646.080000
    666    667     1   0.10969 276646.080000
    666    668     1   0.10969 276646.080000
    669    670     1   0.10304 312293.760000
    669    671     1   0.10304 312293.760000
    669    673     1   0.10304 312293.760000
    674    675     1   0.10910 283424.160000
    674    676     1   0.10910 283424.160000
    677    678     1   0.10969 276646.080000
    677    679     1   0.10969 276646.080000
    680    681     1   0.10969 276646.080000
    680    682     1   0.10969 276646.080000
    683    684     1   0.10304 312293.760000
    683    685     1   0.10304 312293.760000
    683    687     1   0.10304 312293.760000
    688    689     1   0.10910 283424.160000
    688    690     1   0.10910 283424.160000
    691    692     1   0.10969 276646.080000
    691    693     1   0.10969 276646.080000
    694    695     1   0.10969 276646.080000
    694    696     1   0.10969 276646.080000
    697    698     1   0.10304 312293.760000
    697    699     1   0.10304 312293.760000
    697    701     1   0.10304 312293.760000
    702    703     1   0.10910 283424.160000
    702    704     1   0.10910 283424.160000
    705    706     1   0.10969 276646.080000
    705    707     1   0.10969 276646.080000
    708    709     1   0.10969 276646.080000
    708    710     1   0.10969 276646.080000
    711    712     1   0.10304 312293.760000
    711    713     1   0.10304 312293.760000
    711    715     1   0.10304 312293.760000
    716    717     1   0.10910 283424.160000
    716    718     1   0.10910 283424.160000
    719    720     1   0.10969 276646.080000
    719    721     1   0.10969 276646.080000
    722    723     1   0.10969 276646.080000
    722    724     1   0.10969 276646.080000
    725    726     1   0.10304 312293.760000
    725    727     1   0.10304 312293.760000
    725    729     1   0.10304 312293.760000
    730    731     1   0.10910 283424.160000
    730    732     1   0.10910 283424.160000
    733    734     1   0.10969 276646.080000
    733    735     1   0.10969 276646.080000
    736    737     1   0.10969 276646.080000
    736    738     1   0.10969 276646.080000
    739    740     1   0.10304 312293.760000
    739    741     1   0.10304 312293.760000
    739    743     1   0.10304 312293.760000
    744    745     1   0.10910 283424.160000
    744    746     1   0.10910 283424.160000
    747    748     1   0.10969 276646.080000
    747    749     1   0.10969 276646.080000
    750    751     1   0.10969 276646.080000
    750    752     1   0.10969 276646.080000
    753    754     1   0.10304 312293.760000
    753    755     1   0.10304 312293.760000
    753    757     1   0.10304 312293.760000
    758    759     1   0.10910 283424.160000
    758    760     1   0.10910 283424.160000
    761    762     1   0.10969 276646.080000
    761    763     1   0.10969 276646.080000
    764    765     1   0.10969 276646.080000
    764    766     1   0.10969 276646.080000
    767    768     1   0.10304 312293.760000
    767    769     1   0.10304 312293.760000
    767    771     1   0.10304 312293.760000
    772    773     1   0.10910 283424.160000
    772    774     1   0.10910 283424.160000
    775    776     1   0.10969 276646.080000
    775    777     1   0.10969 276646.080000
    778    779     1   0.10969 276646.080000
    778    780     1   0.10969 276646.080000
    781    782     1   0.10304 312293.760000
    781    783     1   0.10304 312293.760000
    781    785     1   0.10304 312293.760000
    786    787     1   0.10910 283424.160000
    786    788     1   0.10910 283424.160000
    789    790     1   0.10969 276646.080000
    789    791     1   0.10969 276646.080000
    792    793     1   0.10969 276646.080000
    792    794     1   0.10969 276646.080000
    795    796     1   0.10304 312293.760000
    795    797     1   0.10304 312293.760000
    795    799     1   0.10304 312293.760000
    800    801     1   0.10910 283424.160000
    800    802     1   0.10910 283424.160000
    803    804     1   0.10969 276646.080000
    803    805     1   0.10969 276646.080000
    806    807     1   0.10969 276646.080000
    806    808     1   0.10969 276646.080000
    809    810     1   0.10304 312293.760000
    809    811     1   0.10304 312293.760000
    809    813     1   0.10304 312293.760000
    814    815     1   0.10910 283424.160000
    814    816     1   0.10910 283424.160000
    817    818     1   0.10969 276646.080000
    817    819     1   0.10969 276646.080000
    820    821     1   0.10969 276646.080000
    820    822     1   0.10969 276646.080000
    823    824     1   0.10304 312293.760000
    823    825     1   0.10304 312293.760000
    823    827     1   0.10304 312293.760000
    828    829     1   0.10910 283424.160000
    828    830     1   0.10910 283424.160000
    831    832     1   0.10969 276646.080000
    831    833     1   0.10969 276646.080000
    834    835     1   0.10969 276646.080000
    834    836     1   0.10969 276646.080000
    837    838     1   0.10304 312293.760000
    837    839     1   0.10304 312293.760000
    837    841     1   0.10304 312293.760000
    842    843     1   0.10910 283424.160000
    842    844     1   0.10910 283424.160000
    845    846     1   0.10969 276646.080000
    845    847     1   0.10969 276646.080000
    848    849     1   0.10969 276646.080000
    848    850     1   0.10969 276646.080000
    851    852     1   0.10304 312293.760000
    851    853     1   0.10304 312293.760000
    851    855     1   0.10304 312293.760000
    856    857     1   0.10910 283424.160000
    856    858     1   0.10910 283424.160000
    859    860     1   0.10969 276646.080000
    859    861     1   0.10969 276646.080000
    862    863     1   0.10969 276646.080000
    862    864     1   0.10969 276646.080000
    865    866     1   0.10304 312293.760000
    865    867     1   0.10304 312293.760000
    865    869     1   0.10304 312293.760000
    870    871     1   0.10910 283424.160000
    870    872     1   0.10910 283424.160000
    873    874     1   0.10969 276646.080000
    873    875     1   0.10969 276646.080000
    876    877     1   0.10969 276646.080000
    876    878     1   0.10969 276646.080000
    879    880     1   0.10304 312293.760000
    879    881     1   0.10304 312293.760000
    879    883     1   0.10304 312293.760000
    884    885     1   0.10910 283424.160000
    884    886     1   0.10910 283424.160000
    887    888     1   0.10969 276646.080000
    887    889     1   0.10969 276646.080000
    890    891     1   0.10969 276646.080000
    890    892     1   0.10969 276646.080000
    893    894     1   0.10304 312293.760000
    893    895     1   0.10304 312293.760000
    893    897     1   0.10304 312293.760000
    898    899     1   0.10910 283424.160000
    898    900     1   0.10910 283424.160000
    901    902     1   0.10969 276646.080000
    901    903     1   0.10969 276646.080000
    904    905     1   0.10969 276646.080000
    904    906     1   0.10969 276646.080000
    907    908     1   0.10304 312293.760000
    907    909     1   0.10304 312293.760000
    907    911     1   0.10304 312293.760000
    912    913     1   0.10910 283424.160000
    912    914     1   0.10910 283424.160000
    915    916     1   0.10969 276646.080000
    915    917     1   0.10969 276646.080000
    918    919     1   0.10969 276646.080000
    918    920     1   0.10969 276646.080000
    921    922     1   0.10304 312293.760000
    921    923     1   0.10304 312293.760000
    921    925     1   0.10304 312293.760000
    926    927     1   0.10910 283424.160000
    926    928     1   0.10910 283424.160000
    929    930     1   0.10969 276646.080000
    929    931     1   0.10969 276646.080000
    932    933     1   0.10969 276646.080000
    932    934     1   0.10969 276646.080000
    935    936     1   0.10304 312293.760000
    935    937     1   0.10304 312293.760000
    935    939     1   0.10304 312293.760000
    940    941     1   0.10910 283424.160000
    940    942     1   0.10910 283424.160000
    943    944     1   0.10969 276646.080000
    943    945     1   0.10969 276646.080000
    946    947     1   0.10969 276646.080000
    946    948     1   0.10969 276646.080000
    949    950     1   0.10304 312293.760000
    949    951     1   0.10304 312293.760000
    949    953     1   0.10304 312293.760000
    954    955     1   0.10910 283424.160000
    954    956     1   0.10910 283424.160000
    957    958     1   0.10969 276646.080000
    957    959     1   0.10969 276646.080000
    960    961     1   0.10969 276646.080000
    960    962     1   0.10969 276646.080000
    963    964     1   0.10304 312293.760000
    963    965     1   0.10304 312293.760000
    963    967     1   0.10304 312293.760000
    968    969     1   0.10910 283424.160000
    968    970     1   0.10910 283424.160000
    971    972     1   0.10969 276646.080000
    971    973     1   0.10969 276646.080000
    974    975     1   0.10969 276646.080000
    974    976     1   0.10969 276646.080000
    977    978     1   0.10304 312293.760000
    977    979     1   0.10304 312293.760000
    977    981     1   0.10304 312293.760000
    982    983     1   0.10910 283424.160000
    982    984     1   0.10910 283424.160000
    985    986     1   0.10969 276646.080000
    985    987     1   0.10969 276646.080000
    988    989     1   0.10969 276646.080000
    988    990     1   0.10969 276646.080000
    991    992     1   0.10304 312293.760000
    991    993     1   0.10304 312293.760000
    991    995     1   0.10304 312293.760000

[ pairs ]
;    ai     aj funct         c0         c1         c2         c3
      1     26     1
      1     20     1
      1     23     1
      2     17     1
      2     11     1
      2    118     1
      5     14     1
      5     11     1
      5     58     1
      8     14     1
      8     17     1
      8     88     1
     11     79     1
     14    109     1
     17     49     1
     20     40     1
     23     70     1
     26    100     1
     30     55     1
     30     52     1
     30     49     1
     31     46     1
     31     40     1
     31    178     1
     34     43     1
     34     40     1
     34    148     1
     37     43     1
     37     46     1
     37     58     1
     43    169     1
     46    139     1
     52    130     1
     55    160     1
     60     85     1
     60     82     1
     60     79     1
     61     76     1
     61     70     1
     61    238     1
     64     73     1
     64     70     1
     64    208     1
     67     73     1
     67     76     1
     67     88     1
     73    229     1
     76    199     1
     82    190     1
     85    220     1
     90    115     1
     90    112     1
     90    109     1
     91    106     1
     91    100     1
     91    298     1
     94    103     1
     94    100     1
     94    268     1
     97    103     1
     97    106     1
     97    118     1
    103    289     1
    106    259     1
    112    250     1
    115    280     1
    120    145     1
    120    142     1
    120    139     1
    121    136     1
    121    130     1
    121    358     1
    124    133     1
    124    130     1
    124    328     1
    127    133     1
    127    136     1
    127    148     1
    133    349     1
    136    319     1
    142    310     1
    145    340     1
    150    175     1
    150    172     1
    150    169     1
    151    166     1
    151    160     1
    151    418     1
    154    163     1
    154    160     1
    154    388     1
    157    163     1
    157    166     1
    157    178     1
    163    409     1
    166    379     1
    172    370     1
    175    400     1
    180    205     1
    180    202     1
    180    199     1
    181    196     1
    181    190     1
    181    478     1
    184    193     1
    184    190     1
    184    448     1
    187    193     1
    187    196     1
    187    208     1
    193    469     1
    196    439     1
    202    430     1
    205    460     1
    210    235     1
    210    232     1
    210    229     1
    211    226     1
    211    220     1
    211    538     1
    214    223     1
    214    220     1
    214    508     1
    217    223     1
    217    226     1
    217    238     1
    223    529     1
    226    499     1
    232    490     1
    235    520     1
    240    265     1
    240    262     1
    240    259     1
    241    256     1
    241    250     1
    241    598     1
    244    253     1
    244    250     1
    244    568     1
    247    253     1
    247    256     1
    247    268     1
    253    589     1
    256    559     1
    262    550     1
    265    580     1
    270    295     1
    270    292     1
    270    289     1
    271    286     1
    271    280     1
    271    658     1
    274    283     1
    274    280     1
    274    628     1
    277    283     1
    277    286     1
    277    298     1
    283    649     1
    286    619     1
    292    610     1
    295    640     1
    300    325     1
    300    322     1
    300    319     1
    301    316     1
    301    310     1
    301    686     1
    304    313     1
    304    310     1
    304    672     1
    307    313     1
    307    316     1
    307    328     1
    313    680     1
    316    666     1
    322    663     1
    325    677     1
    330    355     1
    330    352     1
    330    349     1
    331    346     1
    331    340     1
    331    714     1
    334    343     1
    334    340     1
    334    700     1
    337    343     1
    337    346     1
    337    358     1
    343    708     1
    346    694     1
    352    691     1
    355    705     1
    360    385     1
    360    382     1
    360    379     1
    361    376     1
    361    370     1
    361    742     1
    364    373     1
    364    370     1
    364    728     1
    367    373     1
    367    376     1
    367    388     1
    373    736     1
    376    722     1
    382    719     1
    385    733     1
    390    415     1
    390    412     1
    390    409     1
    391    406     1
    391    400     1
    391    770     1
    394    403     1
    394    400     1
    394    756     1
    397    403     1
    397    406     1
    397    418     1
    403    764     1
    406    750     1
    412    747     1
    415    761     1
    420    445     1
    420    442     1
    420    439     1
    421    436     1
    421    430     1
    421    798     1
    424    433     1
    424    430     1
    424    784     1
    427    433     1
    427    436     1
    427    448     1
    433    792     1
    436    778     1
    442    775     1
    445    789     1
    450    475     1
    450    472     1
    450    469     1
    451    466     1
    451    460     1
    451    826     1
    454    463     1
    454    460     1
    454    812     1
    457    463     1
    457    466     1
    457    478     1
    463    820     1
    466    806     1
    472    803     1
    475    817     1
    480    505     1
    480    502     1
    480    499     1
    481    496     1
    481    490     1
    481    854     1
    484    493     1
    484    490     1
    484    840     1
    487    493     1
    487    496     1
    487    508     1
    493    848     1
    496    834     1
    502    831     1
    505    845     1
    510    535     1
    510    532     1
    510    529     1
    511    526     1
    511    520     1
    511    882     1
    514    523     1
    514    520     1
    514    868     1
    517    523     1
    517    526     1
    517    538     1
    523    876     1
    526    862     1
    532    859     1
    535    873     1
    540    565     1
    540    562     1
    540    559     1
    541    556     1
    541    550     1
    541    910     1
    544    553     1
    544    550     1
    544    896     1
    547    553     1
    547    556     1
    547    568     1
    553    904     1
    556    890     1
    562    887     1
    565    901     1
    570    595     1
    570    592     1
    570    589     1
    571    586     1
    571    580     1
    571    938     1
    574    583     1
    574    580     1
    574    924     1
    577    583     1
    577    586     1
    577    598     1
    583    932     1
    586    918     1
    592    915     1
    595    929     1
    600    625     1
    600    622     1
    600    619     1
    601    616     1
    601    610     1
    601    966     1
    604    613     1
    604    610     1
    604    952     1
    607    613     1
    607    616     1
    607    628     1
    613    960     1
    616    946     1
    622    943     1
    625    957     1
    630    655     1
    630    652     1
    630    649     1
    631    646     1
    631    640     1
    631    994     1
    634    643     1
    634    640     1
    634    980     1
    637    643     1
    637    646     1
    637    658     1
    643    988     1
    646    974     1
    652    971     1
    655    985     1
    660    672     1
    666    669     1
    674    686     1
    680    683     1
    688    700     1
    694    697     1
    702    714     1
    708    711     1
    716    728     1
    722    725     1
    730    742     1
    736    739     1
    744    756     1
    750    753     1
    758    770     1
    764    767     1
    772    784     1
    778    781     1
    786    798     1
    792    795     1
    800    812     1
    806    809     1
    814    826     1
    820    823     1
    828    840     1
    834    837     1
    842    854     1
    848    851     1
    856    868     1
    862    865     1
    870    882     1
    876    879     1
    884    896     1
    890    893     1
    898    910     1
    904    907     1
    912    924     1
    918    921     1
    926    938     1
    932    935     1
    940    952     1
    946    949     1
    954    966     1
    960    963     1
    968    980     1
    974    977     1
    982    994     1
    988    991     1
      1     15     1
      1     16     1
      1     18     1
      1     19     1
      1     12     1
      1     13     1
      2      6     1
      2      7     1
      2      9     1
      2     10     1
      2     27     1
      2     28     1
      5      3     1
      8      3     1
     29      3     1
      3     26     1
      3     15     1
      3     16     1
      5      4     1
      8      4     1
     29      4     1
      4     26     1
      4     15     1
      4     16     1
      5      9     1
      5     10     1
      5     21     1
      5     22     1
      8      6     1
     29      6     1
      6     20     1
      6     18     1
      6     19     1
      8      7     1
     29      7     1
      7     20     1
      7     18     1
      7     19     1
      8     24     1
      8     25     1
     29      9     1
      9     23     1
      9     12     1
      9     13     1
     29     10     1
     10     23     1
     10     12     1
     10     13     1
     29     11     1
     12     88     1
     12     24     1
     12     25     1
     13     88     1
     13     24     1
     13     25     1
     29     14     1
     15    118     1
     15     27     1
     15     28     1
     16    118     1
     16     27     1
     16     28     1
     29     17     1
     18     58     1
     18     21     1
     18     22     1
     19     58     1
     19     21     1
     19     22     1
     20     50     1
     20     51     1
     21     49     1
     22     49     1
     23     80     1
     23     81     1
     24     79     1
     25     79     1
     26    110     1
     26    111     1
     27    109     1
     28    109     1
     30     44     1
     30     45     1
     30     47     1
     30     48     1
     30     41     1
     30     42     1
     31     35     1
     31     36     1
     31     38     1
     31     39     1
     31     56     1
     31     57     1
     32     34     1
     32     37     1
     32     59     1
     32     55     1
     32     44     1
     32     45     1
     33     34     1
     33     37     1
     33     59     1
     33     55     1
     33     44     1
     33     45     1
     34     38     1
     34     39     1
     34     53     1
     34     54     1
     35     37     1
     35     59     1
     35     52     1
     35     47     1
     35     48     1
     36     37     1
     36     59     1
     36     52     1
     36     47     1
     36     48     1
     37     50     1
     37     51     1
     38     59     1
     38     49     1
     38     41     1
     38     42     1
     39     59     1
     39     49     1
     39     41     1
     39     42     1
     40     59     1
     41     58     1
     41     50     1
     41     51     1
     42     58     1
     42     50     1
     42     51     1
     43     59     1
     44    178     1
     44     56     1
     44     57     1
     45    178     1
     45     56     1
     45     57     1
     46     59     1
     47    148     1
     47     53     1
     47     54     1
     48    148     1
     48     53     1
     48     54     1
     52    140     1
     52    141     1
     53    139     1
     54    139     1
     55    170     1
     55    171     1
     56    169     1
     57    169     1
     60     74     1
     60     75     1
     60     77     1
     60     78     1
     60     71     1
     60     72     1
     61     65     1
     61     66     1
     61     68     1
     61     69     1
     61     86     1
     61     87     1
     62     64     1
     62     67     1
     62     89     1
     62     85     1
     62     74     1
     62     75     1
     63     64     1
     63     67     1
     63     89     1
     63     85     1
     63     74     1
     63     75     1
     64     68     1
     64     69     1
     64     83     1
     64     84     1
     65     67     1
     65     89     1
     65     82     1
     65     77     1
     65     78     1
     66     67     1
     66     89     1
     66     82     1
     66     77     1
     66     78     1
     67     80     1
     67     81     1
     68     89     1
     68     79     1
     68     71     1
     68     72     1
     69     89     1
     69     79     1
     69     71     1
     69     72     1
     70     89     1
     71     88     1
     71     80     1
     71     81     1
     72     88     1
     72     80     1
     72     81     1
     73     89     1
     74    238     1
     74     86     1
     74     87     1
     75    238     1
     75     86     1
     75     87     1
     76     89     1
     77    208     1
     77     83     1
     77     84     1
     78    208     1
     78     83     1
     78     84     1
     82    200     1
     82    201     1
     83    199     1
     84    199     1
     85    230     1
     85    231     1
     86    229     1
     87    229     1
     90    104     1
     90    105     1
     90    107     1
     90    108     1
     90    101     1
     90    102     1
     91     95     1
     91     96     1
     91     98     1
     91     99     1
     91    116     1
     91    117     1
     92     94     1
     92     97     1
     92    119     1
     92    115     1
     92    104     1
     92    105     1
     93     94     1
     93     97     1
     93    119     1
     93    115     1
     93    104     1
     93    105     1
     94     98     1
     94     99     1
     94    113     1
     94    114     1
     95     97     1
     95    119     1
     95    112     1
     95    107     1
     95    108     1
     96     97     1
     96    119     1
     96    112     1
     96    107     1
     96    108     1
     97    110     1
     97    111     1
     98    119     1
     98    109     1
     98    101     1
     98    102     1
     99    119     1
     99    109     1
     99    101     1
     99    102     1
    100    119     1
    101    118     1
    101    110     1
    101    111     1
    102    118     1
    102    110     1
    102    111     1
    103    119     1
    104    298     1
    104    116     1
    104    117     1
    105    298     1
    105    116     1
    105    117     1
    106    119     1
    107    268     1
    107    113     1
    107    114     1
    108    268     1
    108    113     1
    108    114     1
    112    260     1
    112    261     1
    113    259     1
    114    259     1
    115    290     1
    115    291     1
    116    289     1
    117    289     1
    120    134     1
    120    135     1
    120    137     1
    120    138     1
    120    131     1
    120    132     1
    121    125     1
    121    126     1
    121    128     1
    121    129     1
    121    146     1
    121    147     1
    122    124     1
    122    127     1
    122    149     1
    122    145     1
    122    134     1
    122    135     1
    123    124     1
    123    127     1
    123    149     1
    123    145     1
    123    134     1
    123    135     1
    124    128     1
    124    129     1
    124    143     1
    124    144     1
    125    127     1
    125    149     1
    125    142     1
    125    137     1
    125    138     1
    126    127     1
    126    149     1
    126    142     1
    126    137     1
    126    138     1
    127    140     1
    127    141     1
    128    149     1
    128    139     1
    128    131     1
    128    132     1
    129    149     1
    129    139     1
    129    131     1
    129    132     1
    130    149     1
    131    148     1
    131    140     1
    131    141     1
    132    148     1
    132    140     1
    132    141     1
    133    149     1
    134    358     1
    134    146     1
    134    147     1
    135    358     1
    135    146     1
    135    147     1
    136    149     1
    137    328     1
    137    143     1
    137    144     1
    138    328     1
    138    143     1
    138    144     1
    142    320     1
    142    321     1
    143    319     1
    144    319     1
    145    350     1
    145    351     1
    146    349     1
    147    349     1
    150    164     1
    150    165     1
    150    167     1
    150    168     1
    150    161     1
    150    162     1
    151    155     1
    151    156     1
    151    158     1
    151    159     1
    151    176     1
    151    177     1
    152    154     1
    152    157     1
    152    179     1
    152    175     1
    152    164     1
    152    165     1
    153    154     1
    153    157     1
    153    179     1
    153    175     1
    153    164     1
    153    165     1
    154    158     1
    154    159     1
    154    173     1
    154    174     1
    155    157     1
    155    179     1
    155    172     1
    155    167     1
    155    168     1
    156    157     1
    156    179     1
    156    172     1
    156    167     1
    156    168     1
    157    170     1
    157    171     1
    158    179     1
    158    169     1
    158    161     1
    158    162     1
    159    179     1
    159    169     1
    159    161     1
    159    162     1
    160    179     1
    161    178     1
    161    170     1
    161    171     1
    162    178     1
    162    170     1
    162    171     1
    163    179     1
    164    418     1
    164    176     1
    164    177     1
    165    418     1
    165    176     1
    165    177     1
    166    179     1
    167    388     1
    167    173     1
    167    174     1
    168    388     1
    168    173     1
    168    174     1
    172    380     1
    172    381     1
    173    379     1
    174    379     1
    175    410     1
    175    411     1
    176    409     1
    177    409     1
    180    194     1
    180    195     1
    180    197     1
    180    198     1
    180    191     1
    180    192     1
    181    185     1
    181    186     1
    181    188     1
    181    189     1
    181    206     1
    181    207     1
    182    184     1
    182    187     1
    182    209     1
    182    205     1
    182    194     1
    182    195     1
    183    184     1
    183    187     1
    183    209     1
    183    205     1
    183    194     1
    183    195     1
    184    188     1
    184    189     1
    184    203     1
    184    204     1
    185    187     1
    185    209     1
    185    202     1
    185    197     1
    185    198     1
    186    187     1
    186    209     1
    186    202     1
    186    197     1
    186    198     1
    187    200     1
    187    201     1
    188    209     1
    188    199     1
    188    191     1
    188    192     1
    189    209     1
    189    199     1
    189    191     1
    189    192     1
    190    209     1
    191    208     1
    191    200     1
    191    201     1
    192    208     1
    192    200     1
    192    201     1
    193    209     1
    194    478     1
    194    206     1
    194    207     1
    195    478     1
    195    206     1
    195    207     1
    196    209     1
    197    448     1
    197    203     1
    197    204     1
    198    448     1
    198    203     1
    198    204     1
    202    440     1
    202    441     1
    203    439     1
    204    439     1
    205    470     1
    205    471     1
    206    469     1
    207    469     1
    210    224     1
    210    225     1
    210    227     1
    210    228     1
    210    221     1
    210    222     1
    211    215     1
    211    216     1
    211    218     1
    211    219     1
    211    236     1
    211    237     1
    212    214     1
    212    217     1
    212    239     1
    212    235     1
    212    224     1
    212    225     1
    213    214     1
    213    217     1
    213    239     1
    213    235     1
    213    224     1
    213    225     1
    214    218     1
    214    219     1
    214    233     1
    214    234     1
    215    217     1
    215    239     1
    215    232     1
    215    227     1
    215    228     1
    216    217     1
    216    239     1
    216    232     1
    216    227     1
    216    228     1
    217    230     1
    217    231     1
    218    239     1
    218    229     1
    218    221     1
    218    222     1
    219    239     1
    219    229     1
    219    221     1
    219    222     1
    220    239     1
    221    238     1
    221    230     1
    221    231     1
    222    238     1
    222    230     1
    222    231     1
    223    239     1
    224    538     1
    224    236     1
    224    237     1
    225    538     1
    225    236     1
    225    237     1
    226    239     1
    227    508     1
    227    233     1
    227    234     1
    228    508     1
    228    233     1
    228    234     1
    232    500     1
    232    501     1
    233    499     1
    234    499     1
    235    530     1
    235    531     1
    236    529     1
    237    529     1
    240    254     1
    240    255     1
    240    257     1
    240    258     1
    240    251     1
    240    252     1
    241    245     1
    241    246     1
    241    248     1
    241    249     1
    241    266     1
    241    267     1
    242    244     1
    242    247     1
    242    269     1
    242    265     1
    242    254     1
    242    255     1
    243    244     1
    243    247     1
    243    269     1
    243    265     1
    243    254     1
    243    255     1
    244    248     1
    244    249     1
    244    263     1
    244    264     1
    245    247     1
    245    269     1
    245    262     1
    245    257     1
    245    258     1
    246    247     1
    246    269     1
    246    262     1
    246    257     1
    246    258     1
    247    260     1
    247    261     1
    248    269     1
    248    259     1
    248    251     1
    248    252     1
    249    269     1
    249    259     1
    249    251     1
    249    252     1
    250    269     1
    251    268     1
    251    260     1
    251    261     1
    252    268     1
    252    260     1
    252    261     1
    253    269     1
    254    598     1
    254    266     1
    254    267     1
    255    598     1
    255    266     1
    255    267     1
    256    269     1
    257    568     1
    257    263     1
    257    264     1
    258    568     1
    258    263     1
    258    264     1
    262    560     1
    262    561     1
    263    559     1
    264    559     1
    265    590     1
    265    591     1
    266    589     1
    267    589     1
    270    284     1
    270    285     1
    270    287     1
    270    288     1
    270    281     1
    270    282     1
    271    275     1
    271    276     1
    271    278     1
    271    279     1
    271    296     1
    271    297     1
    272    274     1
    272    277     1
    272    299     1
    272    295     1
    272    284     1
    272    285     1
    273    274     1
    273    277     1
    273    299     1
    273    295     1
    273    284     1
    273    285     1
    274    278     1
    274    279     1
    274    293     1
    274    294     1
    275    277     1
    275    299     1
    275    292     1
    275    287     1
    275    288     1
    276    277     1
    276    299     1
    276    292     1
    276    287     1
    276    288     1
    277    290     1
    277    291     1
    278    299     1
    278    289     1
    278    281     1
    278    282     1
    279    299     1
    279    289     1
    279    281     1
    279    282     1
    280    299     1
    281    298     1
    281    290     1
    281    291     1
    282    298     1
    282    290     1
    282    291     1
    283    299     1
    284    658     1
    284    296     1
    284    297     1
    285    658     1
    285    296     1
    285    297     1
    286    299     1
    287    628     1
    287    293     1
    287    294     1
    288    628     1
    288    293     1
    288    294     1
    292    620     1
    292    621     1
    293    619     1
    294    619     1
    295    650     1
    295    651     1
    296    649     1
    297    649     1
    300    314     1
    300    315     1
    300    317     1
    300    318     1
    300    311     1
    300    312     1
    301    305     1
    301    306     1
    301    308     1
    301    309     1
    301    326     1
    301    327     1
    302    304     1
    302    307     1
    302    329     1
    302    325     1
    302    314     1
    302    315     1
    303    304     1
    303    307     1
    303    329     1
    303    325     1
    303    314     1
    303    315     1
    304    308     1
    304    309     1
    304    323     1
    304    324     1
    305    307     1
    305    329     1
    305    322     1
    305    317     1
    305    318     1
    306    307     1
    306    329     1
    306    322     1
    306    317     1
    306    318     1
    307    320     1
    307    321     1
    308    329     1
    308    319     1
    308    311     1
    308    312     1
    309    329     1
    309    319     1
    309    311     1
    309    312     1
    310    329     1
    311    328     1
    311    320     1
    311    321     1
    312    328     1
    312    320     1
    312    321     1
    313    329     1
    314    686     1
    314    326     1
    314    327     1
    315    686     1
    315    326     1
    315    327     1
    316    329     1
    317    672     1
    317    323     1
    317    324     1
    318    672     1
    318    323     1
    318    324     1
    322    667     1
    322    668     1
    323    666     1
    324    666     1
    325    681     1
    325    682     1
    326    680     1
    327    680     1
    330    344     1
    330    345     1
    330    347     1
    330    348     1
    330    341     1
    330    342     1
    331    335     1
    331    336     1
    331    338     1
    331    339     1
    331    356     1
    331    357     1
    332    334     1
    332    337     1
    332    359     1
    332    355     1
    332    344     1
    332    345     1
    333    334     1
    333    337     1
    333    359     1
    333    355     1
    333    344     1
    333    345     1
    334    338     1
    334    339     1
    334    353     1
    334    354     1
    335    337     1
    335    359     1
    335    352     1
    335    347     1
    335    348     1
    336    337     1
    336    359     1
    336    352     1
    336    347     1
    336    348     1
    337    350     1
    337    351     1
    338    359     1
    338    349     1
    338    341     1
    338    342     1
    339    359     1
    339    349     1
    339    341     1
    339    342     1
    340    359     1
    341    358     1
    341    350     1
    341    351     1
    342    358     1
    342    350     1
    342    351     1
    343    359     1
    344    714     1
    344    356     1
    344    357     1
    345    714     1
    345    356     1
    345    357     1
    346    359     1
    347    700     1
    347    353     1
    347    354     1
    348    700     1
    348    353     1
    348    354     1
    352    695     1
    352    696     1
    353    694     1
    354    694     1
    355    709     1
    355    710     1
    356    708     1
    357    708     1
    360    374     1
    360    375     1
    360    377     1
    360    378     1
    360    371     1
    360    372     1
    361    365     1
    361    366     1
    361    368     1
    361    369     1
    361    386     1
    361    387     1
    362    364     1
    362    367     1
    362    389     1
    362    385     1
    362    374     1
    362    375     1
    363    364     1
    363    367     1
    363    389     1
    363    385     1
    363    374     1
    363    375     1
    364    368     1
    364    369     1
    364    383     1
    364    384     1
    365    367     1
    365    389     1
    365    382     1
    365    377     1
    365    378     1
    366    367     1
    366    389     1
    366    382     1
    366    377     1
    366    378     1
    367    380     1
    367    381     1
    368    389     1
    368    379     1
    368    371     1
    368    372     1
    369    389     1
    369    379     1
    369    371     1
    369    372     1
    370    389     1
    371    388     1
    371    380     1
    371    381     1
    372    388     1
    372    380     1
    372    381     1
    373    389     1
    374    742     1
    374    386     1
    374    387     1
    375    742     1
    375    386     1
    375    387     1
    376    389     1
    377    728     1
    377    383     1
    377    384     1
    378    728     1
    378    383     1
    378    384     1
    382    723     1
    382    724     1
    383    722     1
    384    722     1
    385    737     1
    385    738     1
    386    736     1
    387    736     1
    390    404     1
    390    405     1
    390    407     1
    390    408     1
    390    401     1
    390    402     1
    391    395     1
    391    396     1
    391    398     1
    391    399     1
    391    416     1
    391    417     1
    392    394     1
    392    397     1
    392    419     1
    392    415     1
    392    404     1
    392    405     1
    393    394     1
    393    397     1
    393    419     1
    393    415     1
    393    404     1
    393    405     1
    394    398     1
    394    399     1
    394    413     1
    394    414     1
    395    397     1
    395    419     1
    395    412     1
    395    407     1
    395    408     1
    396    397     1
    396    419     1
    396    412     1
    396    407     1
    396    408     1
    397    410     1
    397    411     1
    398    419     1
    398    409     1
    398    401     1
    398    402     1
    399    419     1
    399    409     1
    399    401     1
    399    402     1
    400    419     1
    401    418     1
    401    410     1
    401    411     1
    402    418     1
    402    410     1
    402    411     1
    403    419     1
    404    770     1
    404    416     1
    404    417     1
    405    770     1
    405    416     1
    405    417     1
    406    419     1
    407    756     1
    407    413     1
    407    414     1
    408    756     1
    408    413     1
    408    414     1
    412    751     1
    412    752     1
    413    750     1
    414    750     1
    415    765     1
    415    766     1
    416    764     1
    417    764     1
    420    434     1
    420    435     1
    420    437     1
    420    438     1
    420    431     1
    420    432     1
    421    425     1
    421    426     1
    421    428     1
    421    429     1
    421    446     1
    421    447     1
    422    424     1
    422    427     1
    422    449     1
    422    445     1
    422    434     1
    422    435     1
    423    424     1
    423    427     1
    423    449     1
    423    445     1
    423    434     1
    423    435     1
    424    428     1
    424    429     1
    424    443     1
    424    444     1
    425    427     1
    425    449     1
    425    442     1
    425    437     1
    425    438     1
    426    427     1
    426    449     1
    426    442     1
    426    437     1
    426    438     1
    427    440     1
    427    441     1
    428    449     1
    428    439     1
    428    431     1
    428    432     1
    429    449     1
    429    439     1
    429    431     1
    429    432     1
    430    449     1
    431    448     1
    431    440     1
    431    441     1
    432    448     1
    432    440     1
    432    441     1
    433    449     1
    434    798     1
    434    446     1
    434    447     1
    435    798     1
    435    446     1
    435    447     1
    436    449     1
    437    784     1
    437    443     1
    437    444     1
    438    784     1
    438    443     1
    438    444     1
    442    779     1
    442    780     1
    443    778     1
    444    778     1
    445    793     1
    445    794     1
    446    792     1
    447    792     1
    450    464     1
    450    465     1
    450    467     1
    450    468     1
    450    461     1
    450    462     1
    451    455     1
    451    456     1
    451    458     1
    451    459     1
    451    476     1
    451    477     1
    452    454     1
    452    457     1
    452    479     1
    452    475     1
    452    464     1
    452    465     1
    453    454     1
    453    457     1
    453    479     1
    453    475     1
    453    464     1
    453    465     1
    454    458     1
    454    459     1
    454    473     1
    454    474     1
    455    457     1
    455    479     1
    455    472     1
    455    467     1
    455    468     1
    456    457     1
    456    479     1
    456    472     1
    456    467     1
    456    468     1
    457    470     1
    457    471     1
    458    479     1
    458    469     1
    458    461     1
    458    462     1
    459    479     1
    459    469     1
    459    461     1
    459    462     1
    460    479     1
    461    478     1
    461    470     1
    461    471     1
    462    478     1
    462    470     1
    462    471     1
    463    479     1
    464    826     1
    464    476     1
    464    477     1
    465    826     1
    465    476     1
    465    477     1
    466    479     1
    467    812     1
    467    473     1
    467    474     1
    468    812     1
    468    473     1
    468    474     1
    472    807     1
    472    808     1
    473    806     1
    474    806     1
    475    821     1
    475    822     1
    476    820     1
    477    820     1
    480    494     1
    480    495     1
    480    497     1
    480    498     1
    480    491     1
    480    492     1
    481    485     1
    481    486     1
    481    488     1
    481    489     1
    481    506     1
    481    507     1
    482    484     1
    482    487     1
    482    509     1
    482    505     1
    482    494     1
    482    495     1
    483    484     1
    483    487     1
    483    509     1
    483    505     1
    483    494     1
    483    495     1
    484    488     1
    484    489     1
    484    503     1
    484    504     1
    485    487     1
    485    509     1
    485    502     1
    485    497     1
    485    498     1
    486    487     1
    486    509     1
    486    502     1
    486    497     1
    486    498     1
    487    500     1
    487    501     1
    488    509     1
    488    499     1
    488    491     1
    488    492     1
    489    509     1
    489    499     1
    489    491     1
    489    492     1
    490    509     1
    491    508     1
    491    500     1
    491    501     1
    492    508     1
    492    500     1
    492    501     1
    493    509     1
    494    854     1
    494    506     1
    494    507     1
    495    854     1
    495    506     1
    495    507     1
    496    509     1
    497    840     1
    497    503     1
    497    504     1
    498    840     1
    498    503     1
    498    504     1
    502    835     1
    502    836     1
    503    834     1
    504    834     1
    505    849     1
    505    850     1
    506    848     1
    507    848     1
    510    524     1
    510    525     1
    510    527     1
    510    528     1
    510    521     1
    510    522     1
    511    515     1
    511    516     1
    511    518     1
    511    519     1
    511    536     1
    511    537     1
    512    514     1
    512    517     1
    512    539     1
    512    535     1
    512    524     1
    512    525     1
    513    514     1
    513    517     1
    513    539     1
    513    535     1
    513    524     1
    513    525     1
    514    518     1
    514    519     1
    514    533     1
    514    534     1
    515    517     1
    515    539     1
    515    532     1
    515    527     1
    515    528     1
    516    517     1
    516    539     1
    516    532     1
    516    527     1
    516    528     1
    517    530     1
    517    531     1
    518    539     1
    518    529     1
    518    521     1
    518    522     1
    519    539     1
    519    529     1
    519    521     1
    519    522     1
    520    539     1
    521    538     1
    521    530     1
    521    531     1
    522    538     1
    522    530     1
    522    531     1
    523    539     1
    524    882     1
    524    536     1
    524    537     1
    525    882     1
    525    536     1
    525    537     1
    526    539     1
    527    868     1
    527    533     1
    527    534     1
    528    868     1
    528    533     1
    528    534     1
    532    863     1
    532    864     1
    533    862     1
    534    862     1
    535    877     1
    535    878     1
    536    876     1
    537    876     1
    540    554     1
    540    555     1
    540    557     1
    540    558     1
    540    551     1
    540    552     1
    541    545     1
    541    546     1
    541    548     1
    541    549     1
    541    566     1
    541    567     1
    542    544     1
    542    547     1
    542    569     1
    542    565     1
    542    554     1
    542    555     1
    543    544     1
    543    547     1
    543    569     1
    543    565     1
    543    554     1
    543    555     1
    544    548     1
    544    549     1
    544    563     1
    544    564     1
    545    547     1
    545    569     1
    545    562     1
    545    557     1
    545    558     1
    546    547     1
    546    569     1
    546    562     1
    546    557     1
    546    558     1
    547    560     1
    547    561     1
    548    569     1
    548    559     1
    548    551     1
    548    552     1
    549    569     1
    549    559     1
    549    551     1
    549    552     1
    550    569     1
    551    568     1
    551    560     1
    551    561     1
    552    568     1
    552    560     1
    552    561     1
    553    569     1
    554    910     1
    554    566     1
    554    567     1
    555    910     1
    555    566     1
    555    567     1
    556    569     1
    557    896     1
    557    563     1
    557    564     1
    558    896     1
    558    563     1
    558    564     1
    562    891     1
    562    892     1
    563    890     1
    564    890     1
    565    905     1
    565    906     1
    566    904     1
    567    904     1
    570    584     1
    570    585     1
    570    587     1
    570    588     1
    570    581     1
    570    582     1
    571    575     1
    571    576     1
    571    578     1
    571    579     1
    571    596     1
    571    597     1
    572    574     1
    572    577     1
    572    599     1
    572    595     1
    572    584     1
    572    585     1
    573    574     1
    573    577     1
    573    599     1
    573    595     1
    573    584     1
    573    585     1
    574    578     1
    574    579     1
    574    593     1
    574    594     1
    575    577     1
    575    599     1
    575    592     1
    575    587     1
    575    588     1
    576    577     1
    576    599     1
    576    592     1
    576    587     1
    576    588     1
    577    590     1
    577    591     1
    578    599     1
    578    589     1
    578    581     1
    578    582     1
    579    599     1
    579    589     1
    579    581     1
    579    582     1
    580    599     1
    581    598     1
    581    590     1
    581    591     1
    582    598     1
    582    590     1
    582    591     1
    583    599     1
    584    938     1
    584    596     1
    584    597     1
    585    938     1
    585    596     1
    585    597     1
    586    599     1
    587    924     1
    587    593     1
    587    594     1
    588    924     1
    588    593     1
    588    594     1
    592    919     1
    592    920     1
    593    918     1
    594    918     1
    595    933     1
    595    934     1
    596    932     1
    597    932     1
    600    614     1
    600    615     1
    600    617     1
    600    618     1
    600    611     1
    600    612     1
    601    605     1
    601    606     1
    601    608     1
    601    609     1
    601    626     1
    601    627     1
    602    604     1
    602    607     1
    602    629     1
    602    625     1
    602    614     1
    602    615     1
    603    604     1
    603    607     1
    603    629     1
    603    625     1
    603    614     1
    603    615     1
    604    608     1
    604    609     1
    604    623     1
    604    624     1
    605    607     1
    605    629     1
    605    622     1
    605    617     1
    605    618     1
    606    607     1
    606    629     1
    606    622     1
    606    617     1
    606    618     1
    607    620     1
    607    621     1
    608    629     1
    608    619     1
    608    611     1
    608    612     1
    609    629     1
    609    619     1
    609    611     1
    609    612     1
    610    629     1
    611    628     1
    611    620     1
    611    621     1
    612    628     1
    612    620     1
    612    621     1
    613    629     1
    614    966     1
    614    626     1
    614    627     1
    615    966     1
    615    626     1
    615    627     1
    616    629     1
    617    952     1
    617    623     1
    617    624     1
    618    952     1
    618    623     1
    618    624     1
    622    947     1
    622    948     1
    623    946     1
    624    946     1
    625    961     1
    625    962     1
    626    960     1
    627    960     1
    630    644     1
    630    645     1
    630    647     1
    630    648     1
    630    641     1
    630    642     1
    631    635     1
    631    636     1
    631    638     1
    631    639     1
    631    656     1
    631    657     1
    632    634     1
    632    637     1
    632    659     1
    632    655     1
    632    644     1
    632    645     1
    633    634     1
    633    637     1
    633    659     1
    633    655     1
    633    644     1
    633    645     1
    634    638     1
    634    639     1
    634    653     1
    634    654     1
    635    637     1
    635    659     1
    635    652     1
    635    647     1
    635    648     1
    636    637     1
    636    659     1
    636    652     1
    636    647     1
    636    648     1
    637    650     1
    637    651     1
    638    659     1
    638    649     1
    638    641     1
    638    642     1
    639    659     1
    639    649     1
    639    641     1
    639    642     1
    640    659     1
    641    658     1
    641    650     1
    641    651     1
    642    658     1
    642    650     1
    642    651     1
    643    659     1
    644    994     1
    644    656     1
    644    657     1
    645    994     1
    645    656     1
    645    657     1
    646    659     1
    647    980     1
    647    653     1
    647    654     1
    648    980     1
    648    653     1
    648    654     1
    652    975     1
    652    976     1
    653    974     1
    654    974     1
    655    989     1
    655    990     1
    656    988     1
    657    988     1
    660    667     1
    660    668     1
    661    666     1
    661    664     1
    661    665     1
    661    670     1
    661    671     1
    661    673     1
    662    666     1
    662    664     1
    662    665     1
    662    670     1
    662    671     1
    662    673     1
    663    670     1
    663    671     1
    663    673     1
    664    669     1
    664    672     1
    664    667     1
    664    668     1
    665    669     1
    665    672     1
    665    667     1
    665    668     1
    674    681     1
    674    682     1
    675    680     1
    675    678     1
    675    679     1
    675    684     1
    675    685     1
    675    687     1
    676    680     1
    676    678     1
    676    679     1
    676    684     1
    676    685     1
    676    687     1
    677    684     1
    677    685     1
    677    687     1
    678    686     1
    678    681     1
    678    682     1
    678    683     1
    679    686     1
    679    681     1
    679    682     1
    679    683     1
    688    695     1
    688    696     1
    689    694     1
    689    692     1
    689    693     1
    689    698     1
    689    699     1
    689    701     1
    690    694     1
    690    692     1
    690    693     1
    690    698     1
    690    699     1
    690    701     1
    691    698     1
    691    699     1
    691    701     1
    692    697     1
    692    700     1
    692    695     1
    692    696     1
    693    697     1
    693    700     1
    693    695     1
    693    696     1
    702    709     1
    702    710     1
    703    708     1
    703    706     1
    703    707     1
    703    712     1
    703    713     1
    703    715     1
    704    708     1
    704    706     1
    704    707     1
    704    712     1
    704    713     1
    704    715     1
    705    712     1
    705    713     1
    705    715     1
    706    714     1
    706    709     1
    706    710     1
    706    711     1
    707    714     1
    707    709     1
    707    710     1
    707    711     1
    716    723     1
    716    724     1
    717    722     1
    717    720     1
    717    721     1
    717    726     1
    717    727     1
    717    729     1
    718    722     1
    718    720     1
    718    721     1
    718    726     1
    718    727     1
    718    729     1
    719    726     1
    719    727     1
    719    729     1
    720    725     1
    720    728     1
    720    723     1
    720    724     1
    721    725     1
    721    728     1
    721    723     1
    721    724     1
    730    737     1
    730    738     1
    731    736     1
    731    734     1
    731    735     1
    731    740     1
    731    741     1
    731    743     1
    732    736     1
    732    734     1
    732    735     1
    732    740     1
    732    741     1
    732    743     1
    733    740     1
    733    741     1
    733    743     1
    734    742     1
    734    737     1
    734    738     1
    734    739     1
    735    742     1
    735    737     1
    735    738     1
    735    739     1
    744    751     1
    744    752     1
    745    750     1
    745    748     1
    745    749     1
    745    754     1
    745    755     1
    745    757     1
    746    750     1
    746    748     1
    746    749     1
    746    754     1
    746    755     1
    746    757     1
    747    754     1
    747    755     1
    747    757     1
    748    753     1
    748    756     1
    748    751     1
    748    752     1
    749    753     1
    749    756     1
    749    751     1
    749    752     1
    758    765     1
    758    766     1
    759    764     1
    759    762     1
    759    763     1
    759    768     1
    759    769     1
    759    771     1
    760    764     1
    760    762     1
    760    763     1
    760    768     1
    760    769     1
    760    771     1
    761    768     1
    761    769     1
    761    771     1
    762    770     1
    762    765     1
    762    766     1
    762    767     1
    763    770     1
    763    765     1
    763    766     1
    763    767     1
    772    779     1
    772    780     1
    773    778     1
    773    776     1
    773    777     1
    773    782     1
    773    783     1
    773    785     1
    774    778     1
    774    776     1
    774    777     1
    774    782     1
    774    783     1
    774    785     1
    775    782     1
    775    783     1
    775    785     1
    776    781     1
    776    784     1
    776    779     1
    776    780     1
    777    781     1
    777    784     1
    777    779     1
    777    780     1
    786    793     1
    786    794     1
    787    792     1
    787    790     1
    787    791     1
    787    796     1
    787    797     1
    787    799     1
    788    792     1
    788    790     1
    788    791     1
    788    796     1
    788    797     1
    788    799     1
    789    796     1
    789    797     1
    789    799     1
    790    798     1
    790    793     1
    790    794     1
    790    795     1
    791    798     1
    791    793     1
    791    794     1
    791    795     1
    800    807     1
    800    808     1
    801    806     1
    801    804     1
    801    805     1
    801    810     1
    801    811     1
    801    813     1
    802    806     1
    802    804     1
    802    805     1
    802    810     1
    802    811     1
    802    813     1
    803    810     1
    803    811     1
    803    813     1
    804    809     1
    804    812     1
    804    807     1
    804    808     1
    805    809     1
    805    812     1
    805    807     1
    805    808     1
    814    821     1
    814    822     1
    815    820     1
    815    818     1
    815    819     1
    815    824     1
    815    825     1
    815    827     1
    816    820     1
    816    818     1
    816    819     1
    816    824     1
    816    825     1
    816    827     1
    817    824     1
    817    825     1
    817    827     1
    818    826     1
    818    821     1
    818    822     1
    818    823     1
    819    826     1
    819    821     1
    819    822     1
    819    823     1
    828    835     1
    828    836     1
    829    834     1
    829    832     1
    829    833     1
    829    838     1
    829    839     1
    829    841     1
    830    834     1
    830    832     1
    830    833     1
    830    838     1
    830    839     1
    830    841     1
    831    838     1
    831    839     1
    831    841     1
    832    837     1
    832    840     1
    832    835     1
    832    836     1
    833    837     1
    833    840     1
    833    835     1
    833    836     1
    842    849     1
    842    850     1
    843    848     1
    843    846     1
    843    847     1
    843    852     1
    843    853     1
    843    855     1
    844    848     1
    844    846     1
    844    847     1
    844    852     1
    844    853     1
    844    855     1
    845    852     1
    845    853     1
    845    855     1
    846    854     1
    846    849     1
    846    850     1
    846    851     1
    847    854     1
    847    849     1
    847    850     1
    847    851     1
    856    863     1
    856    864     1
    857    862     1
    857    860     1
    857    861     1
    857    866     1
    857    867     1
    857    869     1
    858    862     1
    858    860     1
    858    861     1
    858    866     1
    858    867     1
    858    869     1
    859    866     1
    859    867     1
    859    869     1
    860    865     1
    860    868     1
    860    863     1
    860    864     1
    861    865     1
    861    868     1
    861    863     1
    861    864     1
    870    877     1
    870    878     1
    871    876     1
    871    874     1
    871    875     1
    871    880     1
    871    881     1
    871    883     1
    872    876     1
    872    874     1
    872    875     1
    872    880     1
    872    881     1
    872    883     1
    873    880     1
    873    881     1
    873    883     1
    874    882     1
    874    877     1
    874    878     1
    874    879     1
    875    882     1
    875    877     1
    875    878     1
    875    879     1
    884    891     1
    884    892     1
    885    890     1
    885    888     1
    885    889     1
    885    894     1
    885    895     1
    885    897     1
    886    890     1
    886    888     1
    886    889     1
    886    894     1
    886    895     1
    886    897     1
    887    894     1
    887    895     1
    887    897     1
    888    893     1
    888    896     1
    888    891     1
    888    892     1
    889    893     1
    889    896     1
    889    891     1
    889    892     1
    898    905     1
    898    906     1
    899    904     1
    899    902     1
    899    903     1
    899    908     1
    899    909     1
    899    911     1
    900    904     1
    900    902     1
    900    903     1
    900    908     1
    900    909     1
    900    911     1
    901    908     1
    901    909     1
    901    911     1
    902    910     1
    902    905     1
    902    906     1
    902    907     1
    903    910     1
    903    905     1
    903    906     1
    903    907     1
    912    919     1
    912    920     1
    913    918     1
    913    916     1
    913    917     1
    913    922     1
    913    923     1
    913    925     1
    914    918     1
    914    916     1
    914    917     1
    914    922     1
    914    923     1
    914    925     1
    915    922     1
    915    923     1
    915    925     1
    916    921     1
    916    924     1
    916    919     1
    916    920     1
    917    921     1
    917    924     1
    917    919     1
    917    920     1
    926    933     1
    926    934     1
    927    932     1
    927    930     1
    927    931     1
    927    936     1
    927    937     1
    927    939     1
    928    932     1
    928    930     1
    928    931     1
    928    936     1
    928    937     1
    928    939     1
    929    936     1
    929    937     1
    929    939     1
    930    938     1
    930    933     1
    930    934     1
    930    935     1
    931    938     1
    931    933     1
    931    934     1
    931    935     1
    940    947     1
    940    948     1
    941    946     1
    941    944     1
    941    945     1
    941    950     1
    941    951     1
    941    953     1
    942    946     1
    942    944     1
    942    945     1
    942    950     1
    942    951     1
    942    953     1
    943    950     1
    943    951     1
    943    953     1
    944    949     1
    944    952     1
    944    947     1
    944    948     1
    945    949     1
    945    952     1
    945    947     1
    945    948     1
    954    961     1
    954    962     1
    955    960     1
    955    958     1
    955    959     1
    955    964     1
    955    965     1
    955    967     1
    956    960     1
    956    958     1
    956    959     1
    956    964     1
    956    965     1
    956    967     1
    957    964     1
    957    965     1
    957    967     1
    958    966     1
    958    961     1
    958    962     1
    958    963     1
    959    966     1
    959    961     1
    959    962     1
    959    963     1
    968    975     1
    968    976     1
    969    974     1
    969    972     1
    969    973     1
    969    978     1
    969    979     1
    969    981     1
    970    974     1
    970    972     1
    970    973     1
    970    978     1
    970    979     1
    970    981     1
    971    978     1
    971    979     1
    971    981     1
    972    977     1
    972    980     1
    972    975     1
    972    976     1
    973    977     1
    973    980     1
    973    975     1
    973    976     1
    982    989     1
    982    990     1
    983    988     1
    983    986     1
    983    987     1
    983    992     1
    983    993     1
    983    995     1
    984    988     1
    984    986     1
    984    987     1
    984    992     1
    984    993     1
    984    995     1
    985    992     1
    985    993     1
    985    995     1
    986    994     1
    986    989     1
    986    990     1
    986    991     1
    987    994     1
    987    989     1
    987    990     1
    987    991     1

[ angles ]
;    ai     aj     ak funct         c0         c1         c2         c3
      1      2     14     1   114.2100488 537.225600
      1      5     17     1   114.2100488 537.225600
      1      8     11     1   114.2100488 537.225600
      2      1      5     1   109.6600471 523.836800
      2      1      8     1   109.6600471 523.836800
      2     14     26     1   111.5100476 526.347200
      5      1      8     1   109.6600471 523.836800
      5     17     20     1   111.5100476 526.347200
      8     11     23     1   111.5100476 526.347200
     11     23     88     1   107.9700462 569.024000
     14     26    118     1   107.9700462 569.024000
     17     20     58     1   107.9700462 569.024000
     20     58     49     1   112.4800480 524.673600
     23     88     79     1   112.4800480 524.673600
     26    118    109     1   112.4800480 524.673600
     30     31     43     1   114.2100488 537.225600
     30     34     46     1   114.2100488 537.225600
     30     37     40     1   114.2100488 537.225600
     31     30     34     1   109.6600471 523.836800
     31     30     37     1   109.6600471 523.836800
     31     43     55     1   111.5100476 526.347200
     34     30     37     1   109.6600471 523.836800
     34     46     52     1   111.5100476 526.347200
     37     40     49     1   111.5100476 526.347200
     40     49     58     1   107.9700462 569.024000
     43     55    178     1   107.9700462 569.024000
     46     52    148     1   107.9700462 569.024000
     52    148    139     1   112.4800480 524.673600
     55    178    169     1   112.4800480 524.673600
     60     61     73     1   114.2100488 537.225600
     60     64     76     1   114.2100488 537.225600
     60     67     70     1   114.2100488 537.225600
     61     60     64     1   109.6600471 523.836800
     61     60     67     1   109.6600471 523.836800
     61     73     85     1   111.5100476 526.347200
     64     60     67     1   109.6600471 523.836800
     64     76     82     1   111.5100476 526.347200
     67     70     79     1   111.5100476 526.347200
     70     79     88     1   107.9700462 569.024000
     73     85    238     1   107.9700462 569.024000
     76     82    208     1   107.9700462 569.024000
     82    208    199     1   112.4800480 524.673600
     85    238    229     1   112.4800480 524.673600
     90     91    103     1   114.2100488 537.225600
     90     94    106     1   114.2100488 537.225600
     90     97    100     1   114.2100488 537.225600
     91     90     94     1   109.6600471 523.836800
     91     90     97     1   109.6600471 523.836800
     91    103    115     1   111.5100476 526.347200
     94     90     97     1   109.6600471 523.836800
     94    106    112     1   111.5100476 526.347200
     97    100    109     1   111.5100476 526.347200
    100    109    118     1   107.9700462 569.024000
    103    115    298     1   107.9700462 569.024000
    106    112    268     1   107.9700462 569.024000
    112    268    259     1   112.4800480 524.673600
    115    298    289     1   112.4800480 524.673600
    120    121    133     1   114.2100488 537.225600
    120    124    136     1   114.2100488 537.225600
    120    127    130     1   114.2100488 537.225600
    121    120    124     1   109.6600471 523.836800
    121    120    127     1   109.6600471 523.836800
    121    133    145     1   111.5100476 526.347200
    124    120    127     1   109.6600471 523.836800
    124    136    142     1   111.5100476 526.347200
    127    130    139     1   111.5100476 526.347200
    130    139    148     1   107.9700462 569.024000
    133    145    358     1   107.9700462 569.024000
    136    142    328     1   107.9700462 569.024000
    142    328    319     1   112.4800480 524.673600
    145    358    349     1   112.4800480 524.673600
    150    151    163     1   114.2100488 537.225600
    150    154    166     1   114.2100488 537.225600
    150    157    160     1   114.2100488 537.225600
    151    150    154     1   109.6600471 523.836800
    151    150    157     1   109.6600471 523.836800
    151    163    175     1   111.5100476 526.347200
    154    150    157     1   109.6600471 523.836800
    154    166    172     1   111.5100476 526.347200
    157    160    169     1   111.5100476 526.347200
    160    169    178     1   107.9700462 569.024000
    163    175    418     1   107.9700462 569.024000
    166    172    388     1   107.9700462 569.024000
    172    388    379     1   112.4800480 524.673600
    175    418    409     1   112.4800480 524.673600
    180    181    193     1   114.2100488 537.225600
    180    184    196     1   114.2100488 537.225600
    180    187    190     1   114.2100488 537.225600
    181    180    184     1   109.6600471 523.836800
    181    180    187     1   109.6600471 523.836800
    181    193    205     1   111.5100476 526.347200
    184    180    187     1   109.6600471 523.836800
    184    196    202     1   111.5100476 526.347200
    187    190    199     1   111.5100476 526.347200
    190    199    208     1   107.9700462 569.024000
    193    205    478     1   107.9700462 569.024000
    196    202    448     1   107.9700462 569.024000
    202    448    439     1   112.4800480 524.673600
    205    478    469     1   112.4800480 524.673600
    210    211    223     1   114.2100488 537.225600
    210    214    226     1   114.2100488 537.225600
    210    217    220     1   114.2100488 537.225600
    211    210    214     1   109.6600471 523.836800
    211    210    217     1   109.6600471 523.836800
    211    223    235     1   111.5100476 526.347200
    214    210    217     1   109.6600471 523.836800
    214    226    232     1   111.5100476 526.347200
    217    220    229     1   111.5100476 526.347200
    220    229    238     1   107.9700462 569.024000
    223    235    538     1   107.9700462 569.024000
    226    232    508     1   107.9700462 569.024000
    232    508    499     1   112.4800480 524.673600
    235    538    529     1   112.4800480 524.673600
    240    241    253     1   114.2100488 537.225600
    240    244    256     1   114.2100488 537.225600
    240    247    250     1   114.2100488 537.225600
    241    240    244     1   109.6600471 523.836800
    241    240    247     1   109.6600471 523.836800
    241    253    265     1   111.5100476 526.347200
    244    240    247     1   109.6600471 523.836800
    244    256    262     1   111.5100476 526.347200
    247    250    259     1   111.5100476 526.347200
    250    259    268     1   107.9700462 569.024000
    253    265    598     1   107.9700462 569.024000
    256    262    568     1   107.9700462 569.024000
    262    568    559     1   112.4800480 524.673600
    265    598    589     1   112.4800480 524.673600
    270    271    283     1   114.2100488 537.225600
    270    274    286     1   114.2100488 537.225600
    270    277    280     1   114.2100488 537.225600
    271    270    274     1   109.6600471 523.836800
    271    270    277     1   109.6600471 523.836800
    271    283    295     1   111.5100476 526.347200
    274    270    277     1   109.6600471 523.836800
    274    286    292     1   111.5100476 526.347200
    277    280    289     1   111.5100476 526.347200
    280    289    298     1   107.9700462 569.024000
    283    295    658     1   107.9700462 569.024000
    286    292    628     1   107.9700462 569.024000
    292    628    619     1   112.4800480 524.673600
    295    658    649     1   112.4800480 524.673600
    300    301    313     1   114.2100488 537.225600
    300    304    316     1   114.2100488 537.225600
    300    307    310     1   114.2100488 537.225600
    301    300    304     1   109.6600471 523.836800
    301    300    307     1   109.6600471 523.836800
    301    313    325     1   111.5100476 526.347200
    304    300    307     1   109.6600471 523.836800
    304    316    322     1   111.5100476 526.347200
    307    310    319     1   111.5100476 526.347200
    310    319    328     1   107.9700462 569.024000
    313    325    686     1   107.9700462 569.024000
    316    322    672     1   107.9700462 569.024000
    322    672    666     1   112.4800480 524.673600
    325    686    680     1   112.4800480 524.673600
    330    331    343     1   114.2100488 537.225600
    330    334    346     1   114.2100488 537.225600
    330    337    340     1   114.2100488 537.225600
    331    330    334     1   109.6600471 523.836800
    331    330    337     1   109.6600471 523.836800
    331    343    355     1   111.5100476 526.347200
    334    330    337     1   109.6600471 523.836800
    334    346    352     1   111.5100476 526.347200
    337    340    349     1   111.5100476 526.347200
    340    349    358     1   107.9700462 569.024000
    343    355    714     1   107.9700462 569.024000
    346    352    700     1   107.9700462 569.024000
    352    700    694     1   112.4800480 524.673600
    355    714    708     1   112.4800480 524.673600
    360    361    373     1   114.2100488 537.225600
    360    364    376     1   114.2100488 537.225600
    360    367    370     1   114.2100488 537.225600
    361    360    364     1   109.6600471 523.836800
    361    360    367     1   109.6600471 523.836800
    361    373    385     1   111.5100476 526.347200
    364    360    367     1   109.6600471 523.836800
    364    376    382     1   111.5100476 526.347200
    367    370    379     1   111.5100476 526.347200
    370    379    388     1   107.9700462 569.024000
    373    385    742     1   107.9700462 569.024000
    376    382    728     1   107.9700462 569.024000
    382    728    722     1   112.4800480 524.673600
    385    742    736     1   112.4800480 524.673600
    390    391    403     1   114.2100488 537.225600
    390    394    406     1   114.2100488 537.225600
    390    397    400     1   114.2100488 537.225600
    391    390    394     1   109.6600471 523.836800
    391    390    397     1   109.6600471 523.836800
    391    403    415     1   111.5100476 526.347200
    394    390    397     1   109.6600471 523.836800
    394    406    412     1   111.5100476 526.347200
    397    400    409     1   111.5100476 526.347200
    400    409    418     1   107.9700462 569.024000
    403    415    770     1   107.9700462 569.024000
    406    412    756     1   107.9700462 569.024000
    412    756    750     1   112.4800480 524.673600
    415    770    764     1   112.4800480 524.673600
    420    421    433     1   114.2100488 537.225600
    420    424    436     1   114.2100488 537.225600
    420    427    430     1   114.2100488 537.225600
    421    420    424     1   109.6600471 523.836800
    421    420    427     1   109.6600471 523.836800
    421    433    445     1   111.5100476 526.347200
    424    420    427     1   109.6600471 523.836800
    424    436    442     1   111.5100476 526.347200
    427    430    439     1   111.5100476 526.347200
    430    439    448     1   107.9700462 569.024000
    433    445    798     1   107.9700462 569.024000
    436    442    784     1   107.9700462 569.024000
    442    784    778     1   112.4800480 524.673600
    445    798    792     1   112.4800480 524.673600
    450    451    463     1   114.2100488 537.225600
    450    454    466     1   114.2100488 537.225600
    450    457    460     1   114.2100488 537.225600
    451    450    454     1   109.6600471 523.836800
    451    450    457     1   109.6600471 523.836800
    451    463    475     1   111.5100476 526.347200
    454    450    457     1   109.6600471 523.836800
    454    466    472     1   111.5100476 526.347200
    457    460    469     1   111.5100476 526.347200
    460    469    478     1   107.9700462 569.024000
    463    475    826     1   107.9700462 569.024000
    466    472    812     1   107.9700462 569.024000
    472    812    806     1   112.4800480 524.673600
    475    826    820     1   112.4800480 524.673600
    480    481    493     1   114.2100488 537.225600
    480    484    496     1   114.2100488 537.225600
    480    487    490     1   114.2100488 537.225600
    481    480    484     1   109.6600471 523.836800
    481    480    487     1   109.6600471 523.836800
    481    493    505     1   111.5100476 526.347200
    484    480    487     1   109.6600471 523.836800
    484    496    502     1   111.5100476 526.347200
    487    490    499     1   111.5100476 526.347200
    490    499    508     1   107.9700462 569.024000
    493    505    854     1   107.9700462 569.024000
    496    502    840     1   107.9700462 569.024000
    502    840    834     1   112.4800480 524.673600
    505    854    848     1   112.4800480 524.673600
    510    511    523     1   114.2100488 537.225600
    510    514    526     1   114.2100488 537.225600
    510    517    520     1   114.2100488 537.225600
    511    510    514     1   109.6600471 523.836800
    511    510    517     1   109.6600471 523.836800
    511    523    535     1   111.5100476 526.347200
    514    510    517     1   109.6600471 523.836800
    514    526    532     1   111.5100476 526.347200
    517    520    529     1   111.5100476 526.347200
    520    529    538     1   107.9700462 569.024000
    523    535    882     1   107.9700462 569.024000
    526    532    868     1   107.9700462 569.024000
    532    868    862     1   112.4800480 524.673600
    535    882    876     1   112.4800480 524.673600
    540    541    553     1   114.2100488 537.225600
    540    544    556     1   114.2100488 537.225600
    540    547    550     1   114.2100488 537.225600
    541    540    544     1   109.6600471 523.836800
    541    540    547     1   109.6600471 523.836800
    541    553    565     1   111.5100476 526.347200
    544    540    547     1   109.6600471 523.836800
    544    556    562     1   111.5100476 526.347200
    547    550    559     1   111.5100476 526.347200
    550    559    568     1   107.9700462 569.024000
    553    565    910     1   107.9700462 569.024000
    556    562    896     1   107.9700462 569.024000
    562    896    890     1   112.4800480 524.673600
    565    910    904     1   112.4800480 524.673600
    570    571    583     1   114.2100488 537.225600
    570    574    586     1   114.2100488 537.225600
    570    577    580     1   114.2100488 537.225600
    571    570    574     1   109.6600471 523.836800
    571    570    577     1   109.6600471 523.836800
    571    583    595     1   111.5100476 526.347200
    574    570    577     1   109.6600471 523.836800
    574    586    592     1   111.5100476 526.347200
    577    580    589     1   111.5100476 526.347200
    580    589    598     1   107.9700462 569.024000
    583    595    938     1   107.9700462 569.024000
    586    592    924     1   107.9700462 569.024000
    592    924    918     1   112.4800480 524.673600
    595    938    932     1   112.4800480 524.673600
    600    601    613     1   114.2100488 537.225600
    600    604    616     1   114.2100488 537.225600
    600    607    610     1   114.2100488 537.225600
    601    600    604     1   109.6600471 523.836800
    601    600    607     1   109.6600471 523.836800
    601    613    625     1   111.5100476 526.347200
    604    600    607     1   109.6600471 523.836800
    604    616    622     1   111.5100476 526.347200
    607    610    619     1   111.5100476 526.347200
    610    619    628     1   107.9700462 569.024000
    613    625    966     1   107.9700462 569.024000
    616    622    952     1   107.9700462 569.024000
    622    952    946     1   112.4800480 524.673600
    625    966    960     1   112.4800480 524.673600
    630    631    643     1   114.2100488 537.225600
    630    634    646     1   114.2100488 537.225600
    630    637    640     1   114.2100488 537.225600
    631    630    634     1   109.6600471 523.836800
    631    630    637     1   109.6600471 523.836800
    631    643    655     1   111.5100476 526.347200
    634    630    637     1   109.6600471 523.836800
    634    646    652     1   111.5100476 526.347200
    637    640    649     1   111.5100476 526.347200
    640    649    658     1   107.9700462 569.024000
    643    655    994     1   107.9700462 569.024000
    646    652    980     1   107.9700462 569.024000
    652    980    974     1   112.4800480 524.673600
    655    994    988     1   112.4800480 524.673600
    660    663    666     1   111.5100476 526.347200
    663    660    669     1   114.2100488 537.225600
    663    666    672     1   107.9700462 569.024000
    674    677    680     1   111.5100476 526.347200
    677    680    686     1   107.9700462 569.024000
    677    674    683     1   114.2100488 537.225600
    688    691    694     1   111.5100476 526.347200
    691    688    697     1   114.2100488 537.225600
    691    694    700     1   107.9700462 569.024000
    702    705    708     1   111.5100476 526.347200
    705    708    714     1   107.9700462 569.024000
    705    702    711     1   114.2100488 537.225600
    716    719    722     1   111.5100476 526.347200
    719    716    725     1   114.2100488 537.225600
    719    722    728     1   107.9700462 569.024000
    730    733    736     1   111.5100476 526.347200
    733    736    742     1   107.9700462 569.024000
    733    730    739     1   114.2100488 537.225600
    744    747    750     1   111.5100476 526.347200
    747    744    753     1   114.2100488 537.225600
    747    750    756     1   107.9700462 569.024000
    758    761    764     1   111.5100476 526.347200
    761    764    770     1   107.9700462 569.024000
    761    758    767     1   114.2100488 537.225600
    772    775    778     1   111.5100476 526.347200
    775    772    781     1   114.2100488 537.225600
    775    778    784     1   107.9700462 569.024000
    786    789    792     1   111.5100476 526.347200
    789    792    798     1   107.9700462 569.024000
    789    786    795     1   114.2100488 537.225600
    800    803    806     1   111.5100476 526.347200
    803    800    809     1   114.2100488 537.225600
    803    806    812     1   107.9700462 569.024000
    814    817    820     1   111.5100476 526.347200
    817    820    826     1   107.9700462 569.024000
    817    814    823     1   114.2100488 537.225600
    828    831    834     1   111.5100476 526.347200
    831    828    837     1   114.2100488 537.225600
    831    834    840     1   107.9700462 569.024000
    842    845    848     1   111.5100476 526.347200
    845    848    854     1   107.9700462 569.024000
    845    842    851     1   114.2100488 537.225600
    856    859    862     1   111.5100476 526.347200
    859    856    865     1   114.2100488 537.225600
    859    862    868     1   107.9700462 569.024000
    870    873    876     1   111.5100476 526.347200
    873    876    882     1   107.9700462 569.024000
    873    870    879     1   114.2100488 537.225600
    884    887    890     1   111.5100476 526.347200
    887    884    893     1   114.2100488 537.225600
    887    890    896     1   107.9700462 569.024000
    898    901    904     1   111.5100476 526.347200
    901    904    910     1   107.9700462 569.024000
    901    898    907     1   114.2100488 537.225600
    912    915    918     1   111.5100476 526.347200
    915    912    921     1   114.2100488 537.225600
    915    918    924     1   107.9700462 569.024000
    926    929    932     1   111.5100476 526.347200
    929    932    938     1   107.9700462 569.024000
    929    926    935     1   114.2100488 537.225600
    940    943    946     1   111.5100476 526.347200
    943    940    949     1   114.2100488 537.225600
    943    946    952     1   107.9700462 569.024000
    954    957    960     1   111.5100476 526.347200
    957    960    966     1   107.9700462 569.024000
    957    954    963     1   114.2100488 537.225600
    968    971    974     1   111.5100476 526.347200
    971    968    977     1   114.2100488 537.225600
    971    974    980     1   107.9700462 569.024000
    982    985    988     1   111.5100476 526.347200
    985    988    994     1   107.9700462 569.024000
    985    982    991     1   114.2100488 537.225600
      1      2      3     1   108.0100461 406.684800
      1      2      4     1   108.0100461 406.684800
      1      5      6     1   108.0100461 406.684800
      1      5      7     1   108.0100461 406.684800
      1      8      9     1   108.0100461 406.684800
      1      8     10     1   108.0100461 406.684800
      2      1     29     1   110.1100470 384.091200
      2     14     15     1   109.8000471 387.438400
      2     14     16     1   109.8000471 387.438400
      3      2     14     1   110.5600475 386.601600
      3      2      4     1   109.7500473 328.025600
      4      2     14     1   110.5600475 386.601600
      5      1     29     1   110.1100470 384.091200
      5     17     18     1   109.8000471 387.438400
      5     17     19     1   109.8000471 387.438400
      6      5     17     1   110.5600475 386.601600
      6      5      7     1   109.7500473 328.025600
      7      5     17     1   110.5600475 386.601600
      8      1     29     1   110.1100470 384.091200
      8     11     12     1   109.8000471 387.438400
      8     11     13     1   109.8000471 387.438400
      9      8     11     1   110.5600475 386.601600
      9      8     10     1   109.7500473 328.025600
     10      8     11     1   110.5600475 386.601600
     11     23     24     1   109.5600471 388.275200
     11     23     25     1   109.5600471 388.275200
     12     11     23     1   109.8000471 387.438400
     12     11     13     1   107.5800459 329.699200
     13     11     23     1   109.8000471 387.438400
     14     26     27     1   109.5600471 388.275200
     14     26     28     1   109.5600471 388.275200
     15     14     26     1   109.8000471 387.438400
     15     14     16     1   107.5800459 329.699200
     16     14     26     1   109.8000471 387.438400
     17     20     21     1   109.5600471 388.275200
     17     20     22     1   109.5600471 388.275200
     18     17     20     1   109.8000471 387.438400
     18     17     19     1   107.5800459 329.699200
     19     17     20     1   109.8000471 387.438400
     21     20     58     1   109.7800468 425.094400
     21     20     22     1   108.4600466 328.025600
     22     20     58     1   109.7800468 425.094400
     24     23     88     1   109.7800468 425.094400
     24     23     25     1   108.4600466 328.025600
     25     23     88     1   109.7800468 425.094400
     27     26    118     1   109.7800468 425.094400
     27     26     28     1   108.4600466 328.025600
     28     26    118     1   109.7800468 425.094400
     30     31     32     1   108.0100461 406.684800
     30     31     33     1   108.0100461 406.684800
     30     34     35     1   108.0100461 406.684800
     30     34     36     1   108.0100461 406.684800
     30     37     38     1   108.0100461 406.684800
     30     37     39     1   108.0100461 406.684800
     31     30     59     1   110.1100470 384.091200
     31     43     44     1   109.8000471 387.438400
     31     43     45     1   109.8000471 387.438400
     32     31     43     1   110.5600475 386.601600
     32     31     33     1   109.7500473 328.025600
     33     31     43     1   110.5600475 386.601600
     34     30     59     1   110.1100470 384.091200
     34     46     47     1   109.8000471 387.438400
     34     46     48     1   109.8000471 387.438400
     35     34     46     1   110.5600475 386.601600
     35     34     36     1   109.7500473 328.025600
     36     34     46     1   110.5600475 386.601600
     37     30     59     1   110.1100470 384.091200
     37     40     41     1   109.8000471 387.438400
     37     40     42     1   109.8000471 387.438400
     38     37     40     1   110.5600475 386.601600
     38     37     39     1   109.7500473 328.025600
     39     37     40     1   110.5600475 386.601600
     40     49     50     1   109.5600471 388.275200
     40     49     51     1   109.5600471 388.275200
     41     40     49     1   109.8000471 387.438400
     41     40     42     1   107.5800459 329.699200
     42     40     49     1   109.8000471 387.438400
     43     55     56     1   109.5600471 388.275200
     43     55     57     1   109.5600471 388.275200
     44     43     55     1   109.8000471 387.438400
     44     43     45     1   107.5800459 329.699200
     45     43     55     1   109.8000471 387.438400
     46     52     53     1   109.5600471 388.275200
     46     52     54     1   109.5600471 388.275200
     47     46     52     1   109.8000471 387.438400
     47     46     48     1   107.5800459 329.699200
     48     46     52     1   109.8000471 387.438400
     50     49     58     1   109.7800468 425.094400
     50     49     51     1   108.4600466 328.025600
     51     49     58     1   109.7800468 425.094400
     53     52    148     1   109.7800468 425.094400
     53     52     54     1   108.4600466 328.025600
     54     52    148     1   109.7800468 425.094400
     56     55    178     1   109.7800468 425.094400
     56     55     57     1   108.4600466 328.025600
     57     55    178     1   109.7800468 425.094400
     60     61     62     1   108.0100461 406.684800
     60     61     63     1   108.0100461 406.684800
     60     64     65     1   108.0100461 406.684800
     60     64     66     1   108.0100461 406.684800
     60     67     68     1   108.0100461 406.684800
     60     67     69     1   108.0100461 406.684800
     61     60     89     1   110.1100470 384.091200
     61     73     74     1   109.8000471 387.438400
     61     73     75     1   109.8000471 387.438400
     62     61     73     1   110.5600475 386.601600
     62     61     63     1   109.7500473 328.025600
     63     61     73     1   110.5600475 386.601600
     64     60     89     1   110.1100470 384.091200
     64     76     77     1   109.8000471 387.438400
     64     76     78     1   109.8000471 387.438400
     65     64     76     1   110.5600475 386.601600
     65     64     66     1   109.7500473 328.025600
     66     64     76     1   110.5600475 386.601600
     67     60     89     1   110.1100470 384.091200
     67     70     71     1   109.8000471 387.438400
     67     70     72     1   109.8000471 387.438400
     68     67     70     1   110.5600475 386.601600
     68     67     69     1   109.7500473 328.025600
     69     67     70     1   110.5600475 386.601600
     70     79     80     1   109.5600471 388.275200
     70     79     81     1   109.5600471 388.275200
     71     70     79     1   109.8000471 387.438400
     71     70     72     1   107.5800459 329.699200
     72     70     79     1   109.8000471 387.438400
     73     85     86     1   109.5600471 388.275200
     73     85     87     1   109.5600471 388.275200
     74     73     85     1   109.8000471 387.438400
     74     73     75     1   107.5800459 329.699200
     75     73     85     1   109.8000471 387.438400
     76     82     83     1   109.5600471 388.275200
     76     82     84     1   109.5600471 388.275200
     77     76     82     1   109.8000471 387.438400
     77     76     78     1   107.5800459 329.699200
     78     76     82     1   109.8000471 387.438400
     80     79     88     1   109.7800468 425.094400
     80     79     81     1   108.4600466 328.025600
     81     79     88     1   109.7800468 425.094400
     83     82    208     1   109.7800468 425.094400
     83     82     84     1   108.4600466 328.025600
     84     82    208     1   109.7800468 425.094400
     86     85    238     1   109.7800468 425.094400
     86     85     87     1   108.4600466 328.025600
     87     85    238     1   109.7800468 425.094400
     90     91     92     1   108.0100461 406.684800
     90     91     93     1   108.0100461 406.684800
     90     94     95     1   108.0100461 406.684800
     90     94     96     1   108.0100461 406.684800
     90     97     98     1   108.0100461 406.684800
     90     97     99     1   108.0100461 406.684800
     91     90    119     1   110.1100470 384.091200
     91    103    104     1   109.8000471 387.438400
     91    103    105     1   109.8000471 387.438400
     92     91    103     1   110.5600475 386.601600
     92     91     93     1   109.7500473 328.025600
     93     91    103     1   110.5600475 386.601600
     94     90    119     1   110.1100470 384.091200
     94    106    107     1   109.8000471 387.438400
     94    106    108     1   109.8000471 387.438400
     95     94    106     1   110.5600475 386.601600
     95     94     96     1   109.7500473 328.025600
     96     94    106     1   110.5600475 386.601600
     97     90    119     1   110.1100470 384.091200
     97    100    101     1   109.8000471 387.438400
     97    100    102     1   109.8000471 387.438400
     98     97    100     1   110.5600475 386.601600
     98     97     99     1   109.7500473 328.025600
     99     97    100     1   110.5600475 386.601600
    100    109    110     1   109.5600471 388.275200
    100    109    111     1   109.5600471 388.275200
    101    100    109     1   109.8000471 387.438400
    101    100    102     1   107.5800459 329.699200
    102    100    109     1   109.8000471 387.438400
    103    115    116     1   109.5600471 388.275200
    103    115    117     1   109.5600471 388.275200
    104    103    115     1   109.8000471 387.438400
    104    103    105     1   107.5800459 329.699200
    105    103    115     1   109.8000471 387.438400
    106    112    113     1   109.5600471 388.275200
    106    112    114     1   109.5600471 388.275200
    107    106    112     1   109.8000471 387.438400
    107    106    108     1   107.5800459 329.699200
    108    106    112     1   109.8000471 387.438400
    110    109    118     1   109.7800468 425.094400
    110    109    111     1   108.4600466 328.025600
    111    109    118     1   109.7800468 425.094400
    113    112    268     1   109.7800468 425.094400
    113    112    114     1   108.4600466 328.025600
    114    112    268     1   109.7800468 425.094400
    116    115    298     1   109.7800468 425.094400
    116    115    117     1   108.4600466 328.025600
    117    115    298     1   109.7800468 425.094400
    120    121    122     1   108.0100461 406.684800
    120    121    123     1   108.0100461 406.684800
    120    124    125     1   108.0100461 406.684800
    120    124    126     1   108.0100461 406.684800
    120    127    128     1   108.0100461 406.684800
    120    127    129     1   108.0100461 406.684800
    121    120    149     1   110.1100470 384.091200
    121    133    134     1   109.8000471 387.438400
    121    133    135     1   109.8000471 387.438400
    122    121    133     1   110.5600475 386.601600
    122    121    123     1   109.7500473 328.025600
    123    121    133     1   110.5600475 386.601600
    124    120    149     1   110.1100470 384.091200
    124    136    137     1   109.8000471 387.438400
    124    136    138     1   109.8000471 387.438400
    125    124    136     1   110.5600475 386.601600
    125    124    126     1   109.7500473 328.025600
    126    124    136     1   110.5600475 386.601600
    127    120    149     1   110.1100470 384.091200
    127    130    131     1   109.8000471 387.438400
    127    130    132     1   109.8000471 387.438400
    128    127    130     1   110.5600475 386.601600
    128    127    129     1   109.7500473 328.025600
    129    127    130     1   110.5600475 386.601600
    130    139    140     1   109.5600471 388.275200
    130    139    141     1   109.5600471 388.275200
    131    130    139     1   109.8000471 387.438400
    131    130    132     1   107.5800459 329.699200
    132    130    139     1   109.8000471 387.438400
    133    145    146     1   109.5600471 388.275200
    133    145    147     1   109.5600471 388.275200
    134    133    145     1   109.8000471 387.438400
    134    133    135     1   107.5800459 329.699200
    135    133    145     1   109.8000471 387.438400
    136    142    143     1   109.5600471 388.275200
    136    142    144     1   109.5600471 388.275200
    137    136    142     1   109.8000471 387.438400
    137    136    138     1   107.5800459 329.699200
    138    136    142     1   109.8000471 387.438400
    140    139    148     1   109.7800468 425.094400
    140    139    141     1   108.4600466 328.025600
    141    139    148     1   109.7800468 425.094400
    143    142    328     1   109.7800468 425.094400
    143    142    144     1   108.4600466 328.025600
    144    142    328     1   109.7800468 425.094400
    146    145    358     1   109.7800468 425.094400
    146    145    147     1   108.4600466 328.025600
    147    145    358     1   109.7800468 425.094400
    150    151    152     1   108.0100461 406.684800
    150    151    153     1   108.0100461 406.684800
    150    154    155     1   108.0100461 406.684800
    150    154    156     1   108.0100461 406.684800
    150    157    158     1   108.0100461 406.684800
    150    157    159     1   108.0100461 406.684800
    151    150    179     1   110.1100470 384.091200
    151    163    164     1   109.8000471 387.438400
    151    163    165     1   109.8000471 387.438400
    152    151    163     1   110.5600475 386.601600
    152    151    153     1   109.7500473 328.025600
    153    151    163     1   110.5600475 386.601600
    154    150    179     1   110.1100470 384.091200
    154    166    167     1   109.8000471 387.438400
    154    166    168     1   109.8000471 387.438400
    155    154    166     1   110.5600475 386.601600
    155    154    156     1   109.7500473 328.025600
    156    154    166     1   110.5600475 386.601600
    157    150    179     1   110.1100470 384.091200
    157    160    161     1   109.8000471 387.438400
    157    160    162     1   109.8000471 387.438400
    158    157    160     1   110.5600475 386.601600
    158    157    159     1   109.7500473 328.025600
    159    157    160     1   110.5600475 386.601600
    160    169    170     1   109.5600471 388.275200
    160    169    171     1   109.5600471 388.275200
    161    160    169     1   109.8000471 387.438400
    161    160    162     1   107.5800459 329.699200
    162    160    169     1   109.8000471 387.438400
    163    175    176     1   109.5600471 388.275200
    163    175    177     1   109.5600471 388.275200
    164    163    175     1   109.8000471 387.438400
    164    163    165     1   107.5800459 329.699200
    165    163    175     1   109.8000471 387.438400
    166    172    173     1   109.5600471 388.275200
    166    172    174     1   109.5600471 388.275200
    167    166    172     1   109.8000471 387.438400
    167    166    168     1   107.5800459 329.699200
    168    166    172     1   109.8000471 387.438400
    170    169    178     1   109.7800468 425.094400
    170    169    171     1   108.4600466 328.025600
    171    169    178     1   109.7800468 425.094400
    173    172    388     1   109.7800468 425.094400
    173    172    174     1   108.4600466 328.025600
    174    172    388     1   109.7800468 425.094400
    176    175    418     1   109.7800468 425.094400
    176    175    177     1   108.4600466 328.025600
    177    175    418     1   109.7800468 425.094400
    180    181    182     1   108.0100461 406.684800
    180    181    183     1   108.0100461 406.684800
    180    184    185     1   108.0100461 406.684800
    180    184    186     1   108.0100461 406.684800
    180    187    188     1   108.0100461 406.684800
    180    187    189     1   108.0100461 406.684800
    181    180    209     1   110.1100470 384.091200
    181    193    194     1   109.8000471 387.438400
    181    193    195     1   109.8000471 387.438400
    182    181    193     1   110.5600475 386.601600
    182    181    183     1   109.7500473 328.025600
    183    181    193     1   110.5600475 386.601600
    184    180    209     1   110.1100470 384.091200
    184    196    197     1   109.8000471 387.438400
    184    196    198     1   109.8000471 387.438400
    185    184    196     1   110.5600475 386.601600
    185    184    186     1   109.7500473 328.025600
    186    184    196     1   110.5600475 386.601600
    187    180    209     1   110.1100470 384.091200
    187    190    191     1   109.8000471 387.438400
    187    190    192     1   109.8000471 387.438400
    188    187    190     1   110.5600475 386.601600
    188    187    189     1   109.7500473 328.025600
    189    187    190     1   110.5600475 386.601600
    190    199    200     1   109.5600471 388.275200
    190    199    201     1   109.5600471 388.275200
    191    190    199     1   109.8000471 387.438400
    191    190    192     1   107.5800459 329.699200
    192    190    199     1   109.8000471 387.438400
    193    205    206     1   109.5600471 388.275200
    193    205    207     1   109.5600471 388.275200
    194    193    205     1   109.8000471 387.438400
    194    193    195     1   107.5800459 329.699200
    195    193    205     1   109.8000471 387.438400
    196    202    203     1   109.5600471 388.275200
    196    202    204     1   109.5600471 388.275200
    197    196    202     1   109.8000471 387.438400
    197    196    198     1   107.5800459 329.699200
    198    196    202     1   109.8000471 387.438400
    200    199    208     1   109.7800468 425.094400
    200    199    201     1   108.4600466 328.025600
    201    199    208     1   109.7800468 425.094400
    203    202    448     1   109.7800468 425.094400
    203    202    204     1   108.4600466 328.025600
    204    202    448     1   109.7800468 425.094400
    206    205    478     1   109.7800468 425.094400
    206    205    207     1   108.4600466 328.025600
    207    205    478     1   109.7800468 425.094400
    210    211    212     1   108.0100461 406.684800
    210    211    213     1   108.0100461 406.684800
    210    214    215     1   108.0100461 406.684800
    210    214    216     1   108.0100461 406.684800
    210    217    218     1   108.0100461 406.684800
    210    217    219     1   108.0100461 406.684800
    211    210    239     1   110.1100470 384.091200
    211    223    224     1   109.8000471 387.438400
    211    223    225     1   109.8000471 387.438400
    212    211    223     1   110.5600475 386.601600
    212    211    213     1   109.7500473 328.025600
    213    211    223     1   110.5600475 386.601600
    214    210    239     1   110.1100470 384.091200
    214    226    227     1   109.8000471 387.438400
    214    226    228     1   109.8000471 387.438400
    215    214    226     1   110.5600475 386.601600
    215    214    216     1   109.7500473 328.025600
    216    214    226     1   110.5600475 386.601600
    217    210    239     1   110.1100470 384.091200
    217    220    221     1   109.8000471 387.438400
    217    220    222     1   109.8000471 387.438400
    218    217    220     1   110.5600475 386.601600
    218    217    219     1   109.7500473 328.025600
    219    217    220     1   110.5600475 386.601600
    220    229    230     1   109.5600471 388.275200
    220    229    231     1   109.5600471 388.275200
    221    220    229     1   109.8000471 387.438400
    221    220    222     1   107.5800459 329.699200
    222    220    229     1   109.8000471 387.438400
    223    235    236     1   109.5600471 388.275200
    223    235    237     1   109.5600471 388.275200
    224    223    235     1   109.8000471 387.438400
    224    223    225     1   107.5800459 329.699200
    225    223    235     1   109.8000471 387.438400
    226    232    233     1   109.5600471 388.275200
    226    232    234     1   109.5600471 388.275200
    227    226    232     1   109.8000471 387.438400
    227    226    228     1   107.5800459 329.699200
    228    226    232     1   109.8000471 387.438400
    230    229    238     1   109.7800468 425.094400
    230    229    231     1   108.4600466 328.025600
    231    229    238     1   109.7800468 425.094400
    233    232    508     1   109.7800468 425.094400
    233    232    234     1   108.4600466 328.025600
    234    232    508     1   109.7800468 425.094400
    236    235    538     1   109.7800468 425.094400
    236    235    237     1   108.4600466 328.025600
    237    235    538     1   109.7800468 425.094400
    240    241    242     1   108.0100461 406.684800
    240    241    243     1   108.0100461 406.684800
    240    244    245     1   108.0100461 406.684800
    240    244    246     1   108.0100461 406.684800
    240    247    248     1   108.0100461 406.684800
    240    247    249     1   108.0100461 406.684800
    241    240    269     1   110.1100470 384.091200
    241    253    254     1   109.8000471 387.438400
    241    253    255     1   109.8000471 387.438400
    242    241    253     1   110.5600475 386.601600
    242    241    243     1   109.7500473 328.025600
    243    241    253     1   110.5600475 386.601600
    244    240    269     1   110.1100470 384.091200
    244    256    257     1   109.8000471 387.438400
    244    256    258     1   109.8000471 387.438400
    245    244    256     1   110.5600475 386.601600
    245    244    246     1   109.7500473 328.025600
    246    244    256     1   110.5600475 386.601600
    247    240    269     1   110.1100470 384.091200
    247    250    251     1   109.8000471 387.438400
    247    250    252     1   109.8000471 387.438400
    248    247    250     1   110.5600475 386.601600
    248    247    249     1   109.7500473 328.025600
    249    247    250     1   110.5600475 386.601600
    250    259    260     1   109.5600471 388.275200
    250    259    261     1   109.5600471 388.275200
    251    250    259     1   109.8000471 387.438400
    251    250    252     1   107.5800459 329.699200
    252    250    259     1   109.8000471 387.438400
    253    265    266     1   109.5600471 388.275200
    253    265    267     1   109.5600471 388.275200
    254    253    265     1   109.8000471 387.438400
    254    253    255     1   107.5800459 329.699200
    255    253    265     1   109.8000471 387.438400
    256    262    263     1   109.5600471 388.275200
    256    262    264     1   109.5600471 388.275200
    257    256    262     1   109.8000471 387.438400
    257    256    258     1   107.5800459 329.699200
    258    256    262     1   109.8000471 387.438400
    260    259    268     1   109.7800468 425.094400
    260    259    261     1   108.4600466 328.025600
    261    259    268     1   109.7800468 425.094400
    263    262    568     1   109.7800468 425.094400
    263    262    264     1   108.4600466 328.025600
    264    262    568     1   109.7800468 425.094400
    266    265    598     1   109.7800468 425.094400
    266    265    267     1   108.4600466 328.025600
    267    265    598     1   109.7800468 425.094400
    270    271    272     1   108.0100461 406.684800
    270    271    273     1   108.0100461 406.684800
    270    274    275     1   108.0100461 406.684800
    270    274    276     1   108.0100461 406.684800
    270    277    278     1   108.0100461 406.684800
    270    277    279     1   108.0100461 406.684800
    271    270    299     1   110.1100470 384.091200
    271    283    284     1   109.8000471 387.438400
    271    283    285     1   109.8000471 387.438400
    272    271    283     1   110.5600475 386.601600
    272    271    273     1   109.7500473 328.025600
    273    271    283     1   110.5600475 386.601600
    274    270    299     1   110.1100470 384.091200
    274    286    287     1   109.8000471 387.438400
    274    286    288     1   109.8000471 387.438400
    275    274    286     1   110.5600475 386.601600
    275    274    276     1   109.7500473 328.025600
    276    274    286     1   110.5600475 386.601600
    277    270    299     1   110.1100470 384.091200
    277    280    281     1   109.8000471 387.438400
    277    280    282     1   109.8000471 387.438400
    278    277    280     1   110.5600475 386.601600
    278    277    279     1   109.7500473 328.025600
    279    277    280     1   110.5600475 386.601600
    280    289    290     1   109.5600471 388.275200
    280    289    291     1   109.5600471 388.275200
    281    280    289     1   109.8000471 387.438400
    281    280    282     1   107.5800459 329.699200
    282    280    289     1   109.8000471 387.438400
    283    295    296     1   109.5600471 388.275200
    283    295    297     1   109.5600471 388.275200
    284    283    295     1   109.8000471 387.438400
    284    283    285     1   107.5800459 329.699200
    285    283    295     1   109.8000471 387.438400
    286    292    293     1   109.5600471 388.275200
    286    292    294     1   109.5600471 388.275200
    287    286    292     1   109.8000471 387.438400
    287    286    288     1   107.5800459 329.699200
    288    286    292     1   109.8000471 387.438400
    290    289    298     1   109.7800468 425.094400
    290    289    291     1   108.4600466 328.025600
    291    289    298     1   109.7800468 425.094400
    293    292    628     1   109.7800468 425.094400
    293    292    294     1   108.4600466 328.025600
    294    292    628     1   109.7800468 425.094400
    296    295    658     1   109.7800468 425.094400
    296    295    297     1   108.4600466 328.025600
    297    295    658     1   109.7800468 425.094400
    300    301    302     1   108.0100461 406.684800
    300    301    303     1   108.0100461 406.684800
    300    304    305     1   108.0100461 406.684800
    300    304    306     1   108.0100461 406.684800
    300    307    308     1   108.0100461 406.684800
    300    307    309     1   108.0100461 406.684800
    301    300    329     1   110.1100470 384.091200
    301    313    314     1   109.8000471 387.438400
    301    313    315     1   109.8000471 387.438400
    302    301    313     1   110.5600475 386.601600
    302    301    303     1   109.7500473 328.025600
    303    301    313     1   110.5600475 386.601600
    304    300    329     1   110.1100470 384.091200
    304    316    317     1   109.8000471 387.438400
    304    316    318     1   109.8000471 387.438400
    305    304    316     1   110.5600475 386.601600
    305    304    306     1   109.7500473 328.025600
    306    304    316     1   110.5600475 386.601600
    307    300    329     1   110.1100470 384.091200
    307    310    311     1   109.8000471 387.438400
    307    310    312     1   109.8000471 387.438400
    308    307    310     1   110.5600475 386.601600
    308    307    309     1   109.7500473 328.025600
    309    307    310     1   110.5600475 386.601600
    310    319    320     1   109.5600471 388.275200
    310    319    321     1   109.5600471 388.275200
    311    310    319     1   109.8000471 387.438400
    311    310    312     1   107.5800459 329.699200
    312    310    319     1   109.8000471 387.438400
    313    325    326     1   109.5600471 388.275200
    313    325    327     1   109.5600471 388.275200
    314    313    325     1   109.8000471 387.438400
    314    313    315     1   107.5800459 329.699200
    315    313    325     1   109.8000471 387.438400
    316    322    323     1   109.5600471 388.275200
    316    322    324     1   109.5600471 388.275200
    317    316    322     1   109.8000471 387.438400
    317    316    318     1   107.5800459 329.699200
    318    316    322     1   109.8000471 387.438400
    320    319    328     1   109.7800468 425.094400
    320    319    321     1   108.4600466 328.025600
    321    319    328     1   109.7800468 425.094400
    323    322    672     1   109.7800468 425.094400
    323    322    324     1   108.4600466 328.025600
    324    322    672     1   109.7800468 425.094400
    326    325    686     1   109.7800468 425.094400
    326    325    327     1   108.4600466 328.025600
    327    325    686     1   109.7800468 425.094400
    330    331    332     1   108.0100461 406.684800
    330    331    333     1   108.0100461 406.684800
    330    334    335     1   108.0100461 406.684800
    330    334    336     1   108.0100461 406.684800
    330    337    338     1   108.0100461 406.684800
    330    337    339     1   108.0100461 406.684800
    331    330    359     1   110.1100470 384.091200
    331    343    344     1   109.8000471 387.438400
    331    343    345     1   109.8000471 387.438400
    332    331    343     1   110.5600475 386.601600
    332    331    333     1   109.7500473 328.025600
    333    331    343     1   110.5600475 386.601600
    334    330    359     1   110.1100470 384.091200
    334    346    347     1   109.8000471 387.438400
    334    346    348     1   109.8000471 387.438400
    335    334    346     1   110.5600475 386.601600
    335    334    336     1   109.7500473 328.025600
    336    334    346     1   110.5600475 386.601600
    337    330    359     1   110.1100470 384.091200
    337    340    341     1   109.8000471 387.438400
    337    340    342     1   109.8000471 387.438400
    338    337    340     1   110.5600475 386.601600
    338    337    339     1   109.7500473 328.025600
    339    337    340     1   110.5600475 386.601600
    340    349    350     1   109.5600471 388.275200
    340    349    351     1   109.5600471 388.275200
    341    340    349     1   109.8000471 387.438400
    341    340    342     1   107.5800459 329.699200
    342    340    349     1   109.8000471 387.438400
    343    355    356     1   109.5600471 388.275200
    343    355    357     1   109.5600471 388.275200
    344    343    355     1   109.8000471 387.438400
    344    343    345     1   107.5800459 329.699200
    345    343    355     1   109.8000471 387.438400
    346    352    353     1   109.5600471 388.275200
    346    352    354     1   109.5600471 388.275200
    347    346    352     1   109.8000471 387.438400
    347    346    348     1   107.5800459 329.699200
    348    346    352     1   109.8000471 387.438400
    350    349    358     1   109.7800468 425.094400
    350    349    351     1   108.4600466 328.025600
    351    349    358     1   109.7800468 425.094400
    353    352    700     1   109.7800468 425.094400
    353    352    354     1   108.4600466 328.025600
    354    352    700     1   109.7800468 425.094400
    356    355    714     1   109.7800468 425.094400
    356    355    357     1   108.4600466 328.025600
    357    355    714     1   109.7800468 425.094400
    360    361    362     1   108.0100461 406.684800
    360    361    363     1   108.0100461 406.684800
    360    364    365     1   108.0100461 406.684800
    360    364    366     1   108.0100461 406.684800
    360    367    368     1   108.0100461 406.684800
    360    367    369     1   108.0100461 406.684800
    361    360    389     1   110.1100470 384.091200
    361    373    374     1   109.8000471 387.438400
    361    373    375     1   109.8000471 387.438400
    362    361    373     1   110.5600475 386.601600
    362    361    363     1   109.7500473 328.025600
    363    361    373     1   110.5600475 386.601600
    364    360    389     1   110.1100470 384.091200
    364    376    377     1   109.8000471 387.438400
    364    376    378     1   109.8000471 387.438400
    365    364    376     1   110.5600475 386.601600
    365    364    366     1   109.7500473 328.025600
    366    364    376     1   110.5600475 386.601600
    367    360    389     1   110.1100470 384.091200
    367    370    371     1   109.8000471 387.438400
    367    370    372     1   109.8000471 387.438400
    368    367    370     1   110.5600475 386.601600
    368    367    369     1   109.7500473 328.025600
    369    367    370     1   110.5600475 386.601600
    370    379    380     1   109.5600471 388.275200
    370    379    381     1   109.5600471 388.275200
    371    370    379     1   109.8000471 387.438400
    371    370    372     1   107.5800459 329.699200
    372    370    379     1   109.8000471 387.438400
    373    385    386     1   109.5600471 388.275200
    373    385    387     1   109.5600471 388.275200
    374    373    385     1   109.8000471 387.438400
    374    373    375     1   107.5800459 329.699200
    375    373    385     1   109.8000471 387.438400
    376    382    383     1   109.5600471 388.275200
    376    382    384     1   109.5600471 388.275200
    377    376    382     1   109.8000471 387.438400
    377    376    378     1   107.5800459 329.699200
    378    376    382     1   109.8000471 387.438400
    380    379    388     1   109.7800468 425.094400
    380    379    381     1   108.4600466 328.025600
    381    379    388     1   109.7800468 425.094400
    383    382    728     1   109.7800468 425.094400
    383    382    384     1   108.4600466 328.025600
    384    382    728     1   109.7800468 425.094400
    386    385    742     1   109.7800468 425.094400
    386    385    387     1   108.4600466 328.025600
    387    385    742     1   109.7800468 425.094400
    390    391    392     1   108.0100461 406.684800
    390    391    393     1   108.0100461 406.684800
    390    394    395     1   108.0100461 406.684800
    390    394    396     1   108.0100461 406.684800
    390    397    398     1   108.0100461 406.684800
    390    397    399     1   108.0100461 406.684800
    391    390    419     1   110.1100470 384.091200
    391    403    404     1   109.8000471 387.438400
    391    403    405     1   109.8000471 387.438400
    392    391    403     1   110.5600475 386.601600
    392    391    393     1   109.7500473 328.025600
    393    391    403     1   110.5600475 386.601600
    394    390    419     1   110.1100470 384.091200
    394    406    407     1   109.8000471 387.438400
    394    406    408     1   109.8000471 387.438400
    395    394    406     1   110.5600475 386.601600
    395    394    396     1   109.7500473 328.025600
    396    394    406     1   110.5600475 386.601600
    397    390    419     1   110.1100470 384.091200
    397    400    401     1   109.8000471 387.438400
    397    400    402     1   109.8000471 387.438400
    398    397    400     1   110.5600475 386.601600
    398    397    399     1   109.7500473 328.025600
    399    397    400     1   110.5600475 386.601600
    400    409    410     1   109.5600471 388.275200
    400    409    411     1   109.5600471 388.275200
    401    400    409     1   109.8000471 387.438400
    401    400    402     1   107.5800459 329.699200
    402    400    409     1   109.8000471 387.438400
    403    415    416     1   109.5600471 388.275200
    403    415    417     1   109.5600471 388.275200
    404    403    415     1   109.8000471 387.438400
    404    403    405     1   107.5800459 329.699200
    405    403    415     1   109.8000471 387.438400
    406    412    413     1   109.5600471 388.275200
    406    412    414     1   109.5600471 388.275200
    407    406    412     1   109.8000471 387.438400
    407    406    408     1   107.5800459 329.699200
    408    406    412     1   109.8000471 387.438400
    410    409    418     1   109.7800468 425.094400
    410    409    411     1   108.4600466 328.025600
    411    409    418     1   109.7800468 425.094400
    413    412    756     1   109.7800468 425.094400
    413    412    414     1   108.4600466 328.025600
    414    412    756     1   109.7800468 425.094400
    416    415    770     1   109.7800468 425.094400
    416    415    417     1   108.4600466 328.025600
    417    415    770     1   109.7800468 425.094400
    420    421    422     1   108.0100461 406.684800
    420    421    423     1   108.0100461 406.684800
    420    424    425     1   108.0100461 406.684800
    420    424    426     1   108.0100461 406.684800
    420    427    428     1   108.0100461 406.684800
    420    427    429     1   108.0100461 406.684800
    421    420    449     1   110.1100470 384.091200
    421    433    434     1   109.8000471 387.438400
    421    433    435     1   109.8000471 387.438400
    422    421    433     1   110.5600475 386.601600
    422    421    423     1   109.7500473 328.025600
    423    421    433     1   110.5600475 386.601600
    424    420    449     1   110.1100470 384.091200
    424    436    437     1   109.8000471 387.438400
    424    436    438     1   109.8000471 387.438400
    425    424    436     1   110.5600475 386.601600
    425    424    426     1   109.7500473 328.025600
    426    424    436     1   110.5600475 386.601600
    427    420    449     1   110.1100470 384.091200
    427    430    431     1   109.8000471 387.438400
    427    430    432     1   109.8000471 387.438400
    428    427    430     1   110.5600475 386.601600
    428    427    429     1   109.7500473 328.025600
    429    427    430     1   110.5600475 386.601600
    430    439    440     1   109.5600471 388.275200
    430    439    441     1   109.5600471 388.275200
    431    430    439     1   109.8000471 387.438400
    431    430    432     1   107.5800459 329.699200
    432    430    439     1   109.8000471 387.438400
    433    445    446     1   109.5600471 388.275200
    433    445    447     1   109.5600471 388.275200
    434    433    445     1   109.8000471 387.438400
    434    433    435     1   107.5800459 329.699200
    435    433    445     1   109.8000471 387.438400
    436    442    443     1   109.5600471 388.275200
    436    442    444     1   109.5600471 388.275200
    437    436    442     1   109.8000471 387.438400
    437    436    438     1   107.5800459 329.699200
    438    436    442     1   109.8000471 387.438400
    440    439    448     1   109.7800468 425.094400
    440    439    441     1   108.4600466 328.025600
    441    439    448     1   109.7800468 425.094400
    443    442    784     1   109.7800468 425.094400
    443    442    444     1   108.4600466 328.025600
    444    442    784     1   109.7800468 425.094400
    446    445    798     1   109.7800468 425.094400
    446    445    447     1   108.4600466 328.025600
    447    445    798     1   109.7800468 425.094400
    450    451    452     1   108.0100461 406.684800
    450    451    453     1   108.0100461 406.684800
    450    454    455     1   108.0100461 406.684800
    450    454    456     1   108.0100461 406.684800
    450    457    458     1   108.0100461 406.684800
    450    457    459     1   108.0100461 406.684800
    451    450    479     1   110.1100470 384.091200
    451    463    464     1   109.8000471 387.438400
    451    463    465     1   109.8000471 387.438400
    452    451    463     1   110.5600475 386.601600
    452    451    453     1   109.7500473 328.025600
    453    451    463     1   110.5600475 386.601600
    454    450    479     1   110.1100470 384.091200
    454    466    467     1   109.8000471 387.438400
    454    466    468     1   109.8000471 387.438400
    455    454    466     1   110.5600475 386.601600
    455    454    456     1   109.7500473 328.025600
    456    454    466     1   110.5600475 386.601600
    457    450    479     1   110.1100470 384.091200
    457    460    461     1   109.8000471 387.438400
    457    460    462     1   109.8000471 387.438400
    458    457    460     1   110.5600475 386.601600
    458    457    459     1   109.7500473 328.025600
    459    457    460     1   110.5600475 386.601600
    460    469    470     1   109.5600471 388.275200
    460    469    471     1   109.5600471 388.275200
    461    460    469     1   109.8000471 387.438400
    461    460    462     1   107.5800459 329.699200
    462    460    469     1   109.8000471 387.438400
    463    475    476     1   109.5600471 388.275200
    463    475    477     1   109.5600471 388.275200
    464    463    475     1   109.8000471 387.438400
    464    463    465     1   107.5800459 329.699200
    465    463    475     1   109.8000471 387.438400
    466    472    473     1   109.5600471 388.275200
    466    472    474     1   109.5600471 388.275200
    467    466    472     1   109.8000471 387.438400
    467    466    468     1   107.5800459 329.699200
    468    466    472     1   109.8000471 387.438400
    470    469    478     1   109.7800468 425.094400
    470    469    471     1   108.4600466 328.025600
    471    469    478     1   109.7800468 425.094400
    473    472    812     1   109.7800468 425.094400
    473    472    474     1   108.4600466 328.025600
    474    472    812     1   109.7800468 425.094400
    476    475    826     1   109.7800468 425.094400
    476    475    477     1   108.4600466 328.025600
    477    475    826     1   109.7800468 425.094400
    480    481    482     1   108.0100461 406.684800
    480    481    483     1   108.0100461 406.684800
    480    484    485     1   108.0100461 406.684800
    480    484    486     1   108.0100461 406.684800
    480    487    488     1   108.0100461 406.684800
    480    487    489     1   108.0100461 406.684800
    481    480    509     1   110.1100470 384.091200
    481    493    494     1   109.8000471 387.438400
    481    493    495     1   109.8000471 387.438400
    482    481    493     1   110.5600475 386.601600
    482    481    483     1   109.7500473 328.025600
    483    481    493     1   110.5600475 386.601600
    484    480    509     1   110.1100470 384.091200
    484    496    497     1   109.8000471 387.438400
    484    496    498     1   109.8000471 387.438400
    485    484    496     1   110.5600475 386.601600
    485    484    486     1   109.7500473 328.025600
    486    484    496     1   110.5600475 386.601600
    487    480    509     1   110.1100470 384.091200
    487    490    491     1   109.8000471 387.438400
    487    490    492     1   109.8000471 387.438400
    488    487    490     1   110.5600475 386.601600
    488    487    489     1   109.7500473 328.025600
    489    487    490     1   110.5600475 386.601600
    490    499    500     1   109.5600471 388.275200
    490    499    501     1   109.5600471 388.275200
    491    490    499     1   109.8000471 387.438400
    491    490    492     1   107.5800459 329.699200
    492    490    499     1   109.8000471 387.438400
    493    505    506     1   109.5600471 388.275200
    493    505    507     1   109.5600471 388.275200
    494    493    505     1   109.8000471 387.438400
    494    493    495     1   107.5800459 329.699200
    495    493    505     1   109.8000471 387.438400
    496    502    503     1   109.5600471 388.275200
    496    502    504     1   109.5600471 388.275200
    497    496    502     1   109.8000471 387.438400
    497    496    498     1   107.5800459 329.699200
    498    496    502     1   109.8000471 387.438400
    500    499    508     1   109.7800468 425.094400
    500    499    501     1   108.4600466 328.025600
    501    499    508     1   109.7800468 425.094400
    503    502    840     1   109.7800468 425.094400
    503    502    504     1   108.4600466 328.025600
    504    502    840     1   109.7800468 425.094400
    506    505    854     1   109.7800468 425.094400
    506    505    507     1   108.4600466 328.025600
    507    505    854     1   109.7800468 425.094400
    510    511    512     1   108.0100461 406.684800
    510    511    513     1   108.0100461 406.684800
    510    514    515     1   108.0100461 406.684800
    510    514    516     1   108.0100461 406.684800
    510    517    518     1   108.0100461 406.684800
    510    517    519     1   108.0100461 406.684800
    511    510    539     1   110.1100470 384.091200
    511    523    524     1   109.8000471 387.438400
    511    523    525     1   109.8000471 387.438400
    512    511    523     1   110.5600475 386.601600
    512    511    513     1   109.7500473 328.025600
    513    511    523     1   110.5600475 386.601600
    514    510    539     1   110.1100470 384.091200
    514    526    527     1   109.8000471 387.438400
    514    526    528     1   109.8000471 387.438400
    515    514    526     1   110.5600475 386.601600
    515    514    516     1   109.7500473 328.025600
    516    514    526     1   110.5600475 386.601600
    517    510    539     1   110.1100470 384.091200
    517    520    521     1   109.8000471 387.438400
    517    520    522     1   109.8000471 387.438400
    518    517    520     1   110.5600475 386.601600
    518    517    519     1   109.7500473 328.025600
    519    517    520     1   110.5600475 386.601600
    520    529    530     1   109.5600471 388.275200
    520    529    531     1   109.5600471 388.275200
    521    520    529     1   109.8000471 387.438400
    521    520    522     1   107.5800459 329.699200
    522    520    529     1   109.8000471 387.438400
    523    535    536     1   109.5600471 388.275200
    523    535    537     1   109.5600471 388.275200
    524    523    535     1   109.8000471 387.438400
    524    523    525     1   107.5800459 329.699200
    525    523    535     1   109.8000471 387.438400
    526    532    533     1   109.5600471 388.275200
    526    532    534     1   109.5600471 388.275200
    527    526    532     1   109.8000471 387.438400
    527    526    528     1   107.5800459 329.699200
    528    526    532     1   109.8000471 387.438400
    530    529    538     1   109.7800468 425.094400
    530    529    531     1   108.4600466 328.025600
    531    529    538     1   109.7800468 425.094400
    533    532    868     1   109.7800468 425.094400
    533    532    534     1   108.4600466 328.025600
    534    532    868     1   109.7800468 425.094400
    536    535    882     1   109.7800468 425.094400
    536    535    537     1   108.4600466 328.025600
    537    535    882     1   109.7800468 425.094400
    540    541    542     1   108.0100461 406.684800
    540    541    543     1   108.0100461 406.684800
    540    544    545     1   108.0100461 406.684800
    540    544    546     1   108.0100461 406.684800
    540    547    548     1   108.0100461 406.684800
    540    547    549     1   108.0100461 406.684800
    541    540    569     1   110.1100470 384.091200
    541    553    554     1   109.8000471 387.438400
    541    553    555     1   109.8000471 387.438400
    542    541    553     1   110.5600475 386.601600
    542    541    543     1   109.7500473 328.025600
    543    541    553     1   110.5600475 386.601600
    544    540    569     1   110.1100470 384.091200
    544    556    557     1   109.8000471 387.438400
    544    556    558     1   109.8000471 387.438400
    545    544    556     1   110.5600475 386.601600
    545    544    546     1   109.7500473 328.025600
    546    544    556     1   110.5600475 386.601600
    547    540    569     1   110.1100470 384.091200
    547    550    551     1   109.8000471 387.438400
    547    550    552     1   109.8000471 387.438400
    548    547    550     1   110.5600475 386.601600
    548    547    549     1   109.7500473 328.025600
    549    547    550     1   110.5600475 386.601600
    550    559    560     1   109.5600471 388.275200
    550    559    561     1   109.5600471 388.275200
    551    550    559     1   109.8000471 387.438400
    551    550    552     1   107.5800459 329.699200
    552    550    559     1   109.8000471 387.438400
    553    565    566     1   109.5600471 388.275200
    553    565    567     1   109.5600471 388.275200
    554    553    565     1   109.8000471 387.438400
    554    553    555     1   107.5800459 329.699200
    555    553    565     1   109.8000471 387.438400
    556    562    563     1   109.5600471 388.275200
    556    562    564     1   109.5600471 388.275200
    557    556    562     1   109.8000471 387.438400
    557    556    558     1   107.5800459 329.699200
    558    556    562     1   109.8000471 387.438400
    560    559    568     1   109.7800468 425.094400
    560    559    561     1   108.4600466 328.025600
    561    559    568     1   109.7800468 425.094400
    563    562    896     1   109.7800468 425.094400
    563    562    564     1   108.4600466 328.025600
    564    562    896     1   109.7800468 425.094400
    566    565    910     1   109.7800468 425.094400
    566    565    567     1   108.4600466 328.025600
    567    565    910     1   109.7800468 425.094400
    570    571    572     1   108.0100461 406.684800
    570    571    573     1   108.0100461 406.684800
    570    574    575     1   108.0100461 406.684800
    570    574    576     1   108.0100461 406.684800
    570    577    578     1   108.0100461 406.684800
    570    577    579     1   108.0100461 406.684800
    571    570    599     1   110.1100470 384.091200
    571    583    584     1   109.8000471 387.438400
    571    583    585     1   109.8000471 387.438400
    572    571    583     1   110.5600475 386.601600
    572    571    573     1   109.7500473 328.025600
    573    571    583     1   110.5600475 386.601600
    574    570    599     1   110.1100470 384.091200
    574    586    587     1   109.8000471 387.438400
    574    586    588     1   109.8000471 387.438400
    575    574    586     1   110.5600475 386.601600
    575    574    576     1   109.7500473 328.025600
    576    574    586     1   110.5600475 386.601600
    577    570    599     1   110.1100470 384.091200
    577    580    581     1   109.8000471 387.438400
    577    580    582     1   109.8000471 387.438400
    578    577    580     1   110.5600475 386.601600
    578    577    579     1   109.7500473 328.025600
    579    577    580     1   110.5600475 386.601600
    580    589    590     1   109.5600471 388.275200
    580    589    591     1   109.5600471 388.275200
    581    580    589     1   109.8000471 387.438400
    581    580    582     1   107.5800459 329.699200
    582    580    589     1   109.8000471 387.438400
    583    595    596     1   109.5600471 388.275200
    583    595    597     1   109.5600471 388.275200
    584    583    595     1   109.8000471 387.438400
    584    583    585     1   107.5800459 329.699200
    585    583    595     1   109.8000471 387.438400
    586    592    593     1   109.5600471 388.275200
    586    592    594     1   109.5600471 388.275200
    587    586    592     1   109.8000471 387.438400
    587    586    588     1   107.5800459 329.699200
    588    586    592     1   109.8000471 387.438400
    590    589    598     1   109.7800468 425.094400
    590    589    591     1   108.4600466 328.025600
    591    589    598     1   109.7800468 425.094400
    593    592    924     1   109.7800468 425.094400
    593    592    594     1   108.4600466 328.025600
    594    592    924     1   109.7800468 425.094400
    596    595    938     1   109.7800468 425.094400
    596    595    597     1   108.4600466 328.025600
    597    595    938     1   109.7800468 425.094400
    600    601    602     1   108.0100461 406.684800
    600    601    603     1   108.0100461 406.684800
    600    604    605     1   108.0100461 406.684800
    600    604    606     1   108.0100461 406.684800
    600    607    608     1   108.0100461 406.684800
    600    607    609     1   108.0100461 406.684800
    601    600    629     1   110.1100470 384.091200
    601    613    614     1   109.8000471 387.438400
    601    613    615     1   109.8000471 387.438400
    602    601    613     1   110.5600475 386.601600
    602    601    603     1   109.7500473 328.025600
    603    601    613     1   110.5600475 386.601600
    604    600    629     1   110.1100470 384.091200
    604    616    617     1   109.8000471 387.438400
    604    616    618     1   109.8000471 387.438400
    605    604    616     1   110.5600475 386.601600
    605    604    606     1   109.7500473 328.025600
    606    604    616     1   110.5600475 386.601600
    607    600    629     1   110.1100470 384.091200
    607    610    611     1   109.8000471 387.438400
    607    610    612     1   109.8000471 387.438400
    608    607    610     1   110.5600475 386.601600
    608    607    609     1   109.7500473 328.025600
    609    607    610     1   110.5600475 386.601600
    610    619    620     1   109.5600471 388.275200
    610    619    621     1   109.5600471 388.275200
    611    610    619     1   109.8000471 387.438400
    611    610    612     1   107.5800459 329.699200
    612    610    619     1   109.8000471 387.438400
    613    625    626     1   109.5600471 388.275200
    613    625    627     1   109.5600471 388.275200
    614    613    625     1   109.8000471 387.438400
    614    613    615     1   107.5800459 329.699200
    615    613    625     1   109.8000471 387.438400
    616    622    623     1   109.5600471 388.275200
    616    622    624     1   109.5600471 388.275200
    617    616    622     1   109.8000471 387.438400
    617    616    618     1   107.5800459 329.699200
    618    616    622     1   109.8000471 387.438400
    620    619    628     1   109.7800468 425.094400
    620    619    621     1   108.4600466 328.025600
    621    619    628     1   109.7800468 425.094400
    623    622    952     1   109.7800468 425.094400
    623    622    624     1   108.4600466 328.025600
    624    622    952     1   109.7800468 425.094400
    626    625    966     1   109.7800468 425.094400
    626    625    627     1   108.4600466 328.025600
    627    625    966     1   109.7800468 425.094400
    630    631    632     1   108.0100461 406.684800
    630    631    633     1   108.0100461 406.684800
    630    634    635     1   108.0100461 406.684800
    630    634    636     1   108.0100461 406.684800
    630    637    638     1   108.0100461 406.684800
    630    637    639     1   108.0100461 406.684800
    631    630    659     1   110.1100470 384.091200
    631    643    644     1   109.8000471 387.438400
    631    643    645     1   109.8000471 387.438400
    632    631    643     1   110.5600475 386.601600
    632    631    633     1   109.7500473 328.025600
    633    631    643     1   110.5600475 386.601600
    634    630    659     1   110.1100470 384.091200
    634    646    647     1   109.8000471 387.438400
    634    646    648     1   109.8000471 387.438400
    635    634    646     1   110.5600475 386.601600
    635    634    636     1   109.7500473 328.025600
    636    634    646     1   110.5600475 386.601600
    637    630    659     1   110.1100470 384.091200
    637    640    641     1   109.8000471 387.438400
    637    640    642     1   109.8000471 387.438400
    638    637    640     1   110.5600475 386.601600
    638    637    639     1   109.7500473 328.025600
    639    637    640     1   110.5600475 386.601600
    640    649    650     1   109.5600471 388.275200
    640    649    651     1   109.5600471 388.275200
    641    640    649     1   109.8000471 387.438400
    641    640    642     1   107.5800459 329.699200
    642    640    649     1   109.8000471 387.438400
    643    655    656     1   109.5600471 388.275200
    643    655    657     1   109.5600471 388.275200
    644    643    655     1   109.8000471 387.438400
    644    643    645     1   107.5800459 329.699200
    645    643    655     1   109.8000471 387.438400
    646    652    653     1   109.5600471 388.275200
    646    652    654     1   109.5600471 388.275200
    647    646    652     1   109.8000471 387.438400
    647    646    648     1   107.5800459 329.699200
    648    646    652     1   109.8000471 387.438400
    650    649    658     1   109.7800468 425.094400
    650    649    651     1   108.4600466 328.025600
    651    649    658     1   109.7800468 425.094400
    653    652    980     1   109.7800468 425.094400
    653    652    654     1   108.4600466 328.025600
    654    652    980     1   109.7800468 425.094400
    656    655    994     1   109.7800468 425.094400
    656    655    657     1   108.4600466 328.025600
    657    655    994     1   109.7800468 425.094400
    660    663    664     1   109.8000471 387.438400
    660    663    665     1   109.8000471 387.438400
    660    669    670     1   110.1100470 384.091200
    660    669    671     1   110.1100470 384.091200
    660    669    673     1   110.1100470 384.091200
    661    660    663     1   110.5600475 386.601600
    661    660    669     1   108.0100461 406.684800
    661    660    662     1   109.7500473 328.025600
    662    660    663     1   110.5600475 386.601600
    662    660    669     1   108.0100461 406.684800
    663    666    667     1   109.5600471 388.275200
    663    666    668     1   109.5600471 388.275200
    664    663    666     1   109.8000471 387.438400
    664    663    665     1   107.5800459 329.699200
    665    663    666     1   109.8000471 387.438400
    667    666    672     1   109.7800468 425.094400
    667    666    668     1   108.4600466 328.025600
    668    666    672     1   109.7800468 425.094400
    670    669    671     1   108.3000464 339.740800
    670    669    673     1   108.3000464 339.740800
    671    669    673     1   108.3000464 339.740800
    674    677    678     1   109.8000471 387.438400
    674    677    679     1   109.8000471 387.438400
    674    683    684     1   110.1100470 384.091200
    674    683    685     1   110.1100470 384.091200
    674    683    687     1   110.1100470 384.091200
    675    674    677     1   110.5600475 386.601600
    675    674    683     1   108.0100461 406.684800
    675    674    676     1   109.7500473 328.025600
    676    674    677     1   110.5600475 386.601600
    676    674    683     1   108.0100461 406.684800
    677    680    681     1   109.5600471 388.275200
    677    680    682     1   109.5600471 388.275200
    678    677    680     1   109.8000471 387.438400
    678    677    679     1   107.5800459 329.699200
    679    677    680     1   109.8000471 387.438400
    681    680    686     1   109.7800468 425.094400
    681    680    682     1   108.4600466 328.025600
    682    680    686     1   109.7800468 425.094400
    684    683    685     1   108.3000464 339.740800
    684    683    687     1   108.3000464 339.740800
    685    683    687     1   108.3000464 339.740800
    688    691    692     1   109.8000471 387.438400
    688    691    693     1   109.8000471 387.438400
    688    697    698     1   110.1100470 384.091200
    688    697    699     1   110.1100470 384.091200
    688    697    701     1   110.1100470 384.091200
    689    688    691     1   110.5600475 386.601600
    689    688    697     1   108.0100461 406.684800
    689    688    690     1   109.7500473 328.025600
    690    688    691     1   110.5600475 386.601600
    690    688    697     1   108.0100461 406.684800
    691    694    695     1   109.5600471 388.275200
    691    694    696     1   109.5600471 388.275200
    692    691    694     1   109.8000471 387.438400
    692    691    693     1   107.5800459 329.699200
    693    691    694     1   109.8000471 387.438400
    695    694    700     1   109.7800468 425.094400
    695    694    696     1   108.4600466 328.025600
    696    694    700     1   109.7800468 425.094400
    698    697    699     1   108.3000464 339.740800
    698    697    701     1   108.3000464 339.740800
    699    697    701     1   108.3000464 339.740800
    702    705    706     1   109.8000471 387.438400
    702    705    707     1   109.8000471 387.438400
    702    711    712     1   110.1100470 384.091200
    702    711    713     1   110.1100470 384.091200
    702    711    715     1   110.1100470 384.091200
    703    702    705     1   110.5600475 386.601600
    703    702    711     1   108.0100461 406.684800
    703    702    704     1   109.7500473 328.025600
    704    702    705     1   110.5600475 386.601600
    704    702    711     1   108.0100461 406.684800
    705    708    709     1   109.5600471 388.275200
    705    708    710     1   109.5600471 388.275200
    706    705    708     1   109.8000471 387.438400
    706    705    707     1   107.5800459 329.699200
    707    705    708     1   109.8000471 387.438400
    709    708    714     1   109.7800468 425.094400
    709    708    710     1   108.4600466 328.025600
    710    708    714     1   109.7800468 425.094400
    712    711    713     1   108.3000464 339.740800
    712    711    715     1   108.3000464 339.740800
    713    711    715     1   108.3000464 339.740800
    716    719    720     1   109.8000471 387.438400
    716    719    721     1   109.8000471 387.438400
    716    725    726     1   110.1100470 384.091200
    716    725    727     1   110.1100470 384.091200
    716    725    729     1   110.1100470 384.091200
    717    716    719     1   110.5600475 386.601600
    717    716    725     1   108.0100461 406.684800
    717    716    718     1   109.7500473 328.025600
    718    716    719     1   110.5600475 386.601600
    718    716    725     1   108.0100461 406.684800
    719    722    723     1   109.5600471 388.275200
    719    722    724     1   109.5600471 388.275200
    720    719    722     1   109.8000471 387.438400
    720    719    721     1   107.5800459 329.699200
    721    719    722     1   109.8000471 387.438400
    723    722    728     1   109.7800468 425.094400
    723    722    724     1   108.4600466 328.025600
    724    722    728     1   109.7800468 425.094400
    726    725    727     1   108.3000464 339.740800
    726    725    729     1   108.3000464 339.740800
    727    725    729     1   108.3000464 339.740800
    730    733    734     1   109.8000471 387.438400
    730    733    735     1   109.8000471 387.438400
    730    739    740     1   110.1100470 384.091200
    730    739    741     1   110.1100470 384.091200
    730    739    743     1   110.1100470 384.091200
    731    730    733     1   110.5600475 386.601600
    731    730    739     1   108.0100461 406.684800
    731    730    732     1   109.7500473 328.025600
    732    730    733     1   110.5600475 386.601600
    732    730    739     1   108.0100461 406.684800
    733    736    737     1   109.5600471 388.275200
    733    736    738     1   109.5600471 388.275200
    734    733    736     1   109.8000471 387.438400
    734    733    735     1   107.5800459 329.699200
    735    733    736     1   109.8000471 387.438400
    737    736    742     1   109.7800468 425.094400
    737    736    738     1   108.4600466 328.025600
    738    736    742     1   109.7800468 425.094400
    740    739    741     1   108.3000464 339.740800
    740    739    743     1   108.3000464 339.740800
    741    739    743     1   108.3000464 339.740800
    744    747    748     1   109.8000471 387.438400
    744    747    749     1   109.8000471 387.438400
    744    753    754     1   110.1100470 384.091200
    744    753    755     1   110.1100470 384.091200
    744    753    757     1   110.1100470 384.091200
    745    744    747     1   110.5600475 386.601600
    745    744    753     1   108.0100461 406.684800
    745    744    746     1   109.7500473 328.025600
    746    744    747     1   110.5600475 386.601600
    746    744    753     1   108.0100461 406.684800
    747    750    751     1   109.5600471 388.275200
    747    750    752     1   109.5600471 388.275200
    748    747    750     1   109.8000471 387.438400
    748    747    749     1   107.5800459 329.699200
    749    747    750     1   109.8000471 387.438400
    751    750    756     1   109.7800468 425.094400
    751    750    752     1   108.4600466 328.025600
    752    750    756     1   109.7800468 425.094400
    754    753    755     1   108.3000464 339.740800
    754    753    757     1   108.3000464 339.740800
    755    753    757     1   108.3000464 339.740800
    758    761    762     1   109.8000471 387.438400
    758    761    763     1   109.8000471 387.438400
    758    767    768     1   110.1100470 384.091200
    758    767    769     1   110.1100470 384.091200
    758    767    771     1   110.1100470 384.091200
    759    758    761     1   110.5600475 386.601600
    759    758    767     1   108.0100461 406.684800
    759    758    760     1   109.7500473 328.025600
    760    758    761     1   110.5600475 386.601600
    760    758    767     1   108.0100461 406.684800
    761    764    765     1   109.5600471 388.275200
    761    764    766     1   109.5600471 388.275200
    762    761    764     1   109.8000471 387.438400
    762    761    763     1   107.5800459 329.699200
    763    761    764     1   109.8000471 387.438400
    765    764    770     1   109.7800468 425.094400
    765    764    766     1   108.4600466 328.025600
    766    764    770     1   109.7800468 425.094400
    768    767    769     1   108.3000464 339.740800
    768    767    771     1   108.3000464 339.740800
    769    767    771     1   108.3000464 339.740800
    772    775    776     1   109.8000471 387.438400
    772    775    777     1   109.8000471 387.438400
    772    781    782     1   110.1100470 384.091200
    772    781    783     1   110.1100470 384.091200
    772    781    785     1   110.1100470 384.091200
    773    772    775     1   110.5600475 386.601600
    773    772    781     1   108.0100461 406.684800
    773    772    774     1   109.7500473 328.025600
    774    772    775     1   110.5600475 386.601600
    774    772    781     1   108.0100461 406.684800
    775    778    779     1   109.5600471 388.275200
    775    778    780     1   109.5600471 388.275200
    776    775    778     1   109.8000471 387.438400
    776    775    777     1   107.5800459 329.699200
    777    775    778     1   109.8000471 387.438400
    779    778    784     1   109.7800468 425.094400
    779    778    780     1   108.4600466 328.025600
    780    778    784     1   109.7800468 425.094400
    782    781    783     1   108.3000464 339.740800
    782    781    785     1   108.3000464 339.740800
    783    781    785     1   108.3000464 339.740800
    786    789    790     1   109.8000471 387.438400
    786    789    791     1   109.8000471 387.438400
    786    795    796     1   110.1100470 384.091200
    786    795    797     1   110.1100470 384.091200
    786    795    799     1   110.1100470 384.091200
    787    786    789     1   110.5600475 386.601600
    787    786    795     1   108.0100461 406.684800
    787    786    788     1   109.7500473 328.025600
    788    786    789     1   110.5600475 386.601600
    788    786    795     1   108.0100461 406.684800
    789    792    793     1   109.5600471 388.275200
    789    792    794     1   109.5600471 388.275200
    790    789    792     1   109.8000471 387.438400
    790    789    791     1   107.5800459 329.699200
    791    789    792     1   109.8000471 387.438400
    793    792    798     1   109.7800468 425.094400
    793    792    794     1   108.4600466 328.025600
    794    792    798     1   109.7800468 425.094400
    796    795    797     1   108.3000464 339.740800
    796    795    799     1   108.3000464 339.740800
    797    795    799     1   108.3000464 339.740800
    800    803    804     1   109.8000471 387.438400
    800    803    805     1   109.8000471 387.438400
    800    809    810     1   110.1100470 384.091200
    800    809    811     1   110.1100470 384.091200
    800    809    813     1   110.1100470 384.091200
    801    800    803     1   110.5600475 386.601600
    801    800    809     1   108.0100461 406.684800
    801    800    802     1   109.7500473 328.025600
    802    800    803     1   110.5600475 386.601600
    802    800    809     1   108.0100461 406.684800
    803    806    807     1   109.5600471 388.275200
    803    806    808     1   109.5600471 388.275200
    804    803    806     1   109.8000471 387.438400
    804    803    805     1   107.5800459 329.699200
    805    803    806     1   109.8000471 387.438400
    807    806    812     1   109.7800468 425.094400
    807    806    808     1   108.4600466 328.025600
    808    806    812     1   109.7800468 425.094400
    810    809    811     1   108.3000464 339.740800
    810    809    813     1   108.3000464 339.740800
    811    809    813     1   108.3000464 339.740800
    814    817    818     1   109.8000471 387.438400
    814    817    819     1   109.8000471 387.438400
    814    823    824     1   110.1100470 384.091200
    814    823    825     1   110.1100470 384.091200
    814    823    827     1   110.1100470 384.091200
    815    814    817     1   110.5600475 386.601600
    815    814    823     1   108.0100461 406.684800
    815    814    816     1   109.7500473 328.025600
    816    814    817     1   110.5600475 386.601600
    816    814    823     1   108.0100461 406.684800
    817    820    821     1   109.5600471 388.275200
    817    820    822     1   109.5600471 388.275200
    818    817    820     1   109.8000471 387.438400
    818    817    819     1   107.5800459 329.699200
    819    817    820     1   109.8000471 387.438400
    821    820    826     1   109.7800468 425.094400
    821    820    822     1   108.4600466 328.025600
    822    820    826     1   109.7800468 425.094400
    824    823    825     1   108.3000464 339.740800
    824    823    827     1   108.3000464 339.740800
    825    823    827     1   108.3000464 339.740800
    828    831    832     1   109.8000471 387.438400
    828    831    833     1   109.8000471 387.438400
    828    837    838     1   110.1100470 384.091200
    828    837    839     1   110.1100470 384.091200
    828    837    841     1   110.1100470 384.091200
    829    828    831     1   110.5600475 386.601600
    829    828    837     1   108.0100461 406.684800
    829    828    830     1   109.7500473 328.025600
    830    828    831     1   110.5600475 386.601600
    830    828    837     1   108.0100461 406.684800
    831    834    835     1   109.5600471 388.275200
    831    834    836     1   109.5600471 388.275200
    832    831    834     1   109.8000471 387.438400
    832    831    833     1   107.5800459 329.699200
    833    831    834     1   109.8000471 387.438400
    835    834    840     1   109.7800468 425.094400
    835    834    836     1   108.4600466 328.025600
    836    834    840     1   109.7800468 425.094400
    838    837    839     1   108.3000464 339.740800
    838    837    841     1   108.3000464 339.740800
    839    837    841     1   108.3000464 339.740800
    842    845    846     1   109.8000471 387.438400
    842    845    847     1   109.8000471 387.438400
    842    851    852     1   110.1100470 384.091200
    842    851    853     1   110.1100470 384.091200
    842    851    855     1   110.1100470 384.091200
    843    842    845     1   110.5600475 386.601600
    843    842    851     1   108.0100461 406.684800
    843    842    844     1   109.7500473 328.025600
    844    842    845     1   110.5600475 386.601600
    844    842    851     1   108.0100461 406.684800
    845    848    849     1   109.5600471 388.275200
    845    848    850     1   109.5600471 388.275200
    846    845    848     1   109.8000471 387.438400
    846    845    847     1   107.5800459 329.699200
    847    845    848     1   109.8000471 387.438400
    849    848    854     1   109.7800468 425.094400
    849    848    850     1   108.4600466 328.025600
    850    848    854     1   109.7800468 425.094400
    852    851    853     1   108.3000464 339.740800
    852    851    855     1   108.3000464 339.740800
    853    851    855     1   108.3000464 339.740800
    856    859    860     1   109.8000471 387.438400
    856    859    861     1   109.8000471 387.438400
    856    865    866     1   110.1100470 384.091200
    856    865    867     1   110.1100470 384.091200
    856    865    869     1   110.1100470 384.091200
    857    856    859     1   110.5600475 386.601600
    857    856    865     1   108.0100461 406.684800
    857    856    858     1   109.7500473 328.025600
    858    856    859     1   110.5600475 386.601600
    858    856    865     1   108.0100461 406.684800
    859    862    863     1   109.5600471 388.275200
    859    862    864     1   109.5600471 388.275200
    860    859    862     1   109.8000471 387.438400
    860    859    861     1   107.5800459 329.699200
    861    859    862     1   109.8000471 387.438400
    863    862    868     1   109.7800468 425.094400
    863    862    864     1   108.4600466 328.025600
    864    862    868     1   109.7800468 425.094400
    866    865    867     1   108.3000464 339.740800
    866    865    869     1   108.3000464 339.740800
    867    865    869     1   108.3000464 339.740800
    870    873    874     1   109.8000471 387.438400
    870    873    875     1   109.8000471 387.438400
    870    879    880     1   110.1100470 384.091200
    870    879    881     1   110.1100470 384.091200
    870    879    883     1   110.1100470 384.091200
    871    870    873     1   110.5600475 386.601600
    871    870    879     1   108.0100461 406.684800
    871    870    872     1   109.7500473 328.025600
    872    870    873     1   110.5600475 386.601600
    872    870    879     1   108.0100461 406.684800
    873    876    877     1   109.5600471 388.275200
    873    876    878     1   109.5600471 388.275200
    874    873    876     1   109.8000471 387.438400
    874    873    875     1   107.5800459 329.699200
    875    873    876     1   109.8000471 387.438400
    877    876    882     1   109.7800468 425.094400
    877    876    878     1   108.4600466 328.025600
    878    876    882     1   109.7800468 425.094400
    880    879    881     1   108.3000464 339.740800
    880    879    883     1   108.3000464 339.740800
    881    879    883     1   108.3000464 339.740800
    884    887    888     1   109.8000471 387.438400
    884    887    889     1   109.8000471 387.438400
    884    893    894     1   110.1100470 384.091200
    884    893    895     1   110.1100470 384.091200
    884    893    897     1   110.1100470 384.091200
    885    884    887     1   110.5600475 386.601600
    885    884    893     1   108.0100461 406.684800
    885    884    886     1   109.7500473 328.025600
    886    884    887     1   110.5600475 386.601600
    886    884    893     1   108.0100461 406.684800
    887    890    891     1   109.5600471 388.275200
    887    890    892     1   109.5600471 388.275200
    888    887    890     1   109.8000471 387.438400
    888    887    889     1   107.5800459 329.699200
    889    887    890     1   109.8000471 387.438400
    891    890    896     1   109.7800468 425.094400
    891    890    892     1   108.4600466 328.025600
    892    890    896     1   109.7800468 425.094400
    894    893    895     1   108.3000464 339.740800
    894    893    897     1   108.3000464 339.740800
    895    893    897     1   108.3000464 339.740800
    898    901    902     1   109.8000471 387.438400
    898    901    903     1   109.8000471 387.438400
    898    907    908     1   110.1100470 384.091200
    898    907    909     1   110.1100470 384.091200
    898    907    911     1   110.1100470 384.091200
    899    898    901     1   110.5600475 386.601600
    899    898    907     1   108.0100461 406.684800
    899    898    900     1   109.7500473 328.025600
    900    898    901     1   110.5600475 386.601600
    900    898    907     1   108.0100461 406.684800
    901    904    905     1   109.5600471 388.275200
    901    904    906     1   109.5600471 388.275200
    902    901    904     1   109.8000471 387.438400
    902    901    903     1   107.5800459 329.699200
    903    901    904     1   109.8000471 387.438400
    905    904    910     1   109.7800468 425.094400
    905    904    906     1   108.4600466 328.025600
    906    904    910     1   109.7800468 425.094400
    908    907    909     1   108.3000464 339.740800
    908    907    911     1   108.3000464 339.740800
    909    907    911     1   108.3000464 339.740800
    912    915    916     1   109.8000471 387.438400
    912    915    917     1   109.8000471 387.438400
    912    921    922     1   110.1100470 384.091200
    912    921    923     1   110.1100470 384.091200
    912    921    925     1   110.1100470 384.091200
    913    912    915     1   110.5600475 386.601600
    913    912    921     1   108.0100461 406.684800
    913    912    914     1   109.7500473 328.025600
    914    912    915     1   110.5600475 386.601600
    914    912    921     1   108.0100461 406.684800
    915    918    919     1   109.5600471 388.275200
    915    918    920     1   109.5600471 388.275200
    916    915    918     1   109.8000471 387.438400
    916    915    917     1   107.5800459 329.699200
    917    915    918     1   109.8000471 387.438400
    919    918    924     1   109.7800468 425.094400
    919    918    920     1   108.4600466 328.025600
    920    918    924     1   109.7800468 425.094400
    922    921    923     1   108.3000464 339.740800
    922    921    925     1   108.3000464 339.740800
    923    921    925     1   108.3000464 339.740800
    926    929    930     1   109.8000471 387.438400
    926    929    931     1   109.8000471 387.438400
    926    935    936     1   110.1100470 384.091200
    926    935    937     1   110.1100470 384.091200
    926    935    939     1   110.1100470 384.091200
    927    926    929     1   110.5600475 386.601600
    927    926    935     1   108.0100461 406.684800
    927    926    928     1   109.7500473 328.025600
    928    926    929     1   110.5600475 386.601600
    928    926    935     1   108.0100461 406.684800
    929    932    933     1   109.5600471 388.275200
    929    932    934     1   109.5600471 388.275200
    930    929    932     1   109.8000471 387.438400
    930    929    931     1   107.5800459 329.699200
    931    929    932     1   109.8000471 387.438400
    933    932    938     1   109.7800468 425.094400
    933    932    934     1   108.4600466 328.025600
    934    932    938     1   109.7800468 425.094400
    936    935    937     1   108.3000464 339.740800
    936    935    939     1   108.3000464 339.740800
    937    935    939     1   108.3000464 339.740800
    940    943    944     1   109.8000471 387.438400
    940    943    945     1   109.8000471 387.438400
    940    949    950     1   110.1100470 384.091200
    940    949    951     1   110.1100470 384.091200
    940    949    953     1   110.1100470 384.091200
    941    940    943     1   110.5600475 386.601600
    941    940    949     1   108.0100461 406.684800
    941    940    942     1   109.7500473 328.025600
    942    940    943     1   110.5600475 386.601600
    942    940    949     1   108.0100461 406.684800
    943    946    947     1   109.5600471 388.275200
    943    946    948     1   109.5600471 388.275200
    944    943    946     1   109.8000471 387.438400
    944    943    945     1   107.5800459 329.699200
    945    943    946     1   109.8000471 387.438400
    947    946    952     1   109.7800468 425.094400
    947    946    948     1   108.4600466 328.025600
    948    946    952     1   109.7800468 425.094400
    950    949    951     1   108.3000464 339.740800
    950    949    953     1   108.3000464 339.740800
    951    949    953     1   108.3000464 339.740800
    954    957    958     1   109.8000471 387.438400
    954    957    959     1   109.8000471 387.438400
    954    963    964     1   110.1100470 384.091200
    954    963    965     1   110.1100470 384.091200
    954    963    967     1   110.1100470 384.091200
    955    954    957     1   110.5600475 386.601600
    955    954    963     1   108.0100461 406.684800
    955    954    956     1   109.7500473 328.025600
    956    954    957     1   110.5600475 386.601600
    956    954    963     1   108.0100461 406.684800
    957    960    961     1   109.5600471 388.275200
    957    960    962     1   109.5600471 388.275200
    958    957    960     1   109.8000471 387.438400
    958    957    959     1   107.5800459 329.699200
    959    957    960     1   109.8000471 387.438400
    961    960    966     1   109.7800468 425.094400
    961    960    962     1   108.4600466 328.025600
    962    960    966     1   109.7800468 425.094400
    964    963    965     1   108.3000464 339.740800
    964    963    967     1   108.3000464 339.740800
    965    963    967     1   108.3000464 339.740800
    968    971    972     1   109.8000471 387.438400
    968    971    973     1   109.8000471 387.438400
    968    977    978     1   110.1100470 384.091200
    968    977    979     1   110.1100470 384.091200
    968    977    981     1   110.1100470 384.091200
    969    968    971     1   110.5600475 386.601600
    969    968    977     1   108.0100461 406.684800
    969    968    970     1   109.7500473 328.025600
    970    968    971     1   110.5600475 386.601600
    970    968    977     1   108.0100461 406.684800
    971    974    975     1   109.5600471 388.275200
    971    974    976     1   109.5600471 388.275200
    972    971    974     1   109.8000471 387.438400
    972    971    973     1   107.5800459 329.699200
    973    971    974     1   109.8000471 387.438400
    975    974    980     1   109.7800468 425.094400
    975    974    976     1   108.4600466 328.025600
    976    974    980     1   109.7800468 425.094400
    978    977    979     1   108.3000464 339.740800
    978    977    981     1   108.3000464 339.740800
    979    977    981     1   108.3000464 339.740800
    982    985    986     1   109.8000471 387.438400
    982    985    987     1   109.8000471 387.438400
    982    991    992     1   110.1100470 384.091200
    982    991    993     1   110.1100470 384.091200
    982    991    995     1   110.1100470 384.091200
    983    982    985     1   110.5600475 386.601600
    983    982    991     1   108.0100461 406.684800
    983    982    984     1   109.7500473 328.025600
    984    982    985     1   110.5600475 386.601600
    984    982    991     1   108.0100461 406.684800
    985    988    989     1   109.5600471 388.275200
    985    988    990     1   109.5600471 388.275200
    986    985    988     1   109.8000471 387.438400
    986    985    987     1   107.5800459 329.699200
    987    985    988     1   109.8000471 387.438400
    989    988    994     1   109.7800468 425.094400
    989    988    990     1   108.4600466 328.025600
    990    988    994     1   109.7800468 425.094400
    992    991    993     1   108.3000464 339.740800
    992    991    995     1   108.3000464 339.740800
    993    991    995     1   108.3000464 339.740800

[ dihedrals ]
;    ai     aj     ak     al funct         c0         c1         c2         c3         c4         c5
      1      2     14     26     1  0.0000000  0.6508444  3
      1      5     17     20     1  0.0000000  0.6508444  3
      1      8     11     23     1  0.0000000  0.6508444  3
      2      1      5     17     1  0.0000000  0.6508444  3
      2      1      8     11     1  0.0000000  0.6508444  3
      2     14     26    118     1  0.0000000  0.6508444  3
      5      1      2     14     1  0.0000000  0.6508444  3
      5      1      8     11     1  0.0000000  0.6508444  3
      5     17     20     58     1  0.0000000  0.6508444  3
      8      1      2     14     1  0.0000000  0.6508444  3
      8      1      5     17     1  0.0000000  0.6508444  3
      8     11     23     88     1  0.0000000  0.6508444  3
     11     23     88     79     1  180.0000771  0.4184000  2
     11     23     88     79     1  0.0000000  1.6024720  3
     14     26    118    109     1  180.0000771  0.4184000  2
     14     26    118    109     1  0.0000000  1.6024720  3
     17     20     58     49     1  180.0000771  0.4184000  2
     17     20     58     49     1  0.0000000  1.6024720  3
     20     58     49     40     1  180.0000771  0.4184000  2
     20     58     49     40     1  0.0000000  1.6024720  3
     23     88     79     70     1  180.0000771  0.4184000  2
     23     88     79     70     1  0.0000000  1.6024720  3
     26    118    109    100     1  180.0000771  0.4184000  2
     26    118    109    100     1  0.0000000  1.6024720  3
     30     31     43     55     1  0.0000000  0.6508444  3
     30     34     46     52     1  0.0000000  0.6508444  3
     30     37     40     49     1  0.0000000  0.6508444  3
     31     30     34     46     1  0.0000000  0.6508444  3
     31     30     37     40     1  0.0000000  0.6508444  3
     31     43     55    178     1  0.0000000  0.6508444  3
     34     30     31     43     1  0.0000000  0.6508444  3
     34     30     37     40     1  0.0000000  0.6508444  3
     34     46     52    148     1  0.0000000  0.6508444  3
     37     30     31     43     1  0.0000000  0.6508444  3
     37     30     34     46     1  0.0000000  0.6508444  3
     37     40     49     58     1  0.0000000  0.6508444  3
     43     55    178    169     1  180.0000771  0.4184000  2
     43     55    178    169     1  0.0000000  1.6024720  3
     46     52    148    139     1  180.0000771  0.4184000  2
     46     52    148    139     1  0.0000000  1.6024720  3
     52    148    139    130     1  180.0000771  0.4184000  2
     52    148    139    130     1  0.0000000  1.6024720  3
     55    178    169    160     1  180.0000771  0.4184000  2
     55    178    169    160     1  0.0000000  1.6024720  3
     60     61     73     85     1  0.0000000  0.6508444  3
     60     64     76     82     1  0.0000000  0.6508444  3
     60     67     70     79     1  0.0000000  0.6508444  3
     61     60     64     76     1  0.0000000  0.6508444  3
     61     60     67     70     1  0.0000000  0.6508444  3
     61     73     85    238     1  0.0000000  0.6508444  3
     64     60     61     73     1  0.0000000  0.6508444  3
     64     60     67     70     1  0.0000000  0.6508444  3
     64     76     82    208     1  0.0000000  0.6508444  3
     67     60     61     73     1  0.0000000  0.6508444  3
     67     60     64     76     1  0.0000000  0.6508444  3
     67     70     79     88     1  0.0000000  0.6508444  3
     73     85    238    229     1  180.0000771  0.4184000  2
     73     85    238    229     1  0.0000000  1.6024720  3
     76     82    208    199     1  180.0000771  0.4184000  2
     76     82    208    199     1  0.0000000  1.6024720  3
     82    208    199    190     1  180.0000771  0.4184000  2
     82    208    199    190     1  0.0000000  1.6024720  3
     85    238    229    220     1  180.0000771  0.4184000  2
     85    238    229    220     1  0.0000000  1.6024720  3
     90     91    103    115     1  0.0000000  0.6508444  3
     90     94    106    112     1  0.0000000  0.6508444  3
     90     97    100    109     1  0.0000000  0.6508444  3
     91     90     94    106     1  0.0000000  0.6508444  3
     91     90     97    100     1  0.0000000  0.6508444  3
     91    103    115    298     1  0.0000000  0.6508444  3
     94     90     91    103     1  0.0000000  0.6508444  3
     94     90     97    100     1  0.0000000  0.6508444  3
     94    106    112    268     1  0.0000000  0.6508444  3
     97     90     91    103     1  0.0000000  0.6508444  3
     97     90     94    106     1  0.0000000  0.6508444  3
     97    100    109    118     1  0.0000000  0.6508444  3
    103    115    298    289     1  180.0000771  0.4184000  2
    103    115    298    289     1  0.0000000  1.6024720  3
    106    112    268    259     1  180.0000771  0.4184000  2
    106    112    268    259     1  0.0000000  1.6024720  3
    112    268    259    250     1  180.0000771  0.4184000  2
    112    268    259    250     1  0.0000000  1.6024720  3
    115    298    289    280     1  180.0000771  0.4184000  2
    115    298    289    280     1  0.0000000  1.6024720  3
    120    121    133    145     1  0.0000000  0.6508444  3
    120    124    136    142     1  0.0000000  0.6508444  3
    120    127    130    139     1  0.0000000  0.6508444  3
    121    120    124    136     1  0.0000000  0.6508444  3
    121    120    127    130     1  0.0000000  0.6508444  3
    121    133    145    358     1  0.0000000  0.6508444  3
    124    120    121    133     1  0.0000000  0.6508444  3
    124    120    127    130     1  0.0000000  0.6508444  3
    124    136    142    328     1  0.0000000  0.6508444  3
    127    120    121    133     1  0.0000000  0.6508444  3
    127    120    124    136     1  0.0000000  0.6508444  3
    127    130    139    148     1  0.0000000  0.6508444  3
    133    145    358    349     1  180.0000771  0.4184000  2
    133    145    358    349     1  0.0000000  1.6024720  3
    136    142    328    319     1  180.0000771  0.4184000  2
    136    142    328    319     1  0.0000000  1.6024720  3
    142    328    319    310     1  180.0000771  0.4184000  2
    142    328    319    310     1  0.0000000  1.6024720  3
    145    358    349    340     1  180.0000771  0.4184000  2
    145    358    349    340     1  0.0000000  1.6024720  3
    150    151    163    175     1  0.0000000  0.6508444  3
    150    154    166    172     1  0.0000000  0.6508444  3
    150    157    160    169     1  0.0000000  0.6508444  3
    151    150    154    166     1  0.0000000  0.6508444  3
    151    150    157    160     1  0.0000000  0.6508444  3
    151    163    175    418     1  0.0000000  0.6508444  3
    154    150    151    163     1  0.0000000  0.6508444  3
    154    150    157    160     1  0.0000000  0.6508444  3
    154    166    172    388     1  0.0000000  0.6508444  3
    157    150    151    163     1  0.0000000  0.6508444  3
    157    150    154    166     1  0.0000000  0.6508444  3
    157    160    169    178     1  0.0000000  0.6508444  3
    163    175    418    409     1  180.0000771  0.4184000  2
    163    175    418    409     1  0.0000000  1.6024720  3
    166    172    388    379     1  180.0000771  0.4184000  2
    166    172    388    379     1  0.0000000  1.6024720  3
    172    388    379    370     1  180.0000771  0.4184000  2
    172    388    379    370     1  0.0000000  1.6024720  3
    175    418    409    400     1  180.0000771  0.4184000  2
    175    418    409    400     1  0.0000000  1.6024720  3
    180    181    193    205     1  0.0000000  0.6508444  3
    180    184    196    202     1  0.0000000  0.6508444  3
    180    187    190    199     1  0.0000000  0.6508444  3
    181    180    184    196     1  0.0000000  0.6508444  3
    181    180    187    190     1  0.0000000  0.6508444  3
    181    193    205    478     1  0.0000000  0.6508444  3
    184    180    181    193     1  0.0000000  0.6508444  3
    184    180    187    190     1  0.0000000  0.6508444  3
    184    196    202    448     1  0.0000000  0.6508444  3
    187    180    181    193     1  0.0000000  0.6508444  3
    187    180    184    196     1  0.0000000  0.6508444  3
    187    190    199    208     1  0.0000000  0.6508444  3
    193    205    478    469     1  180.0000771  0.4184000  2
    193    205    478    469     1  0.0000000  1.6024720  3
    196    202    448    439     1  180.0000771  0.4184000  2
    196    202    448    439     1  0.0000000  1.6024720  3
    202    448    439    430     1  180.0000771  0.4184000  2
    202    448    439    430     1  0.0000000  1.6024720  3
    205    478    469    460     1  180.0000771  0.4184000  2
    205    478    469    460     1  0.0000000  1.6024720  3
    210    211    223    235     1  0.0000000  0.6508444  3
    210    214    226    232     1  0.0000000  0.6508444  3
    210    217    220    229     1  0.0000000  0.6508444  3
    211    210    214    226     1  0.0000000  0.6508444  3
    211    210    217    220     1  0.0000000  0.6508444  3
    211    223    235    538     1  0.0000000  0.6508444  3
    214    210    211    223     1  0.0000000  0.6508444  3
    214    210    217    220     1  0.0000000  0.6508444  3
    214    226    232    508     1  0.0000000  0.6508444  3
    217    210    211    223     1  0.0000000  0.6508444  3
    217    210    214    226     1  0.0000000  0.6508444  3
    217    220    229    238     1  0.0000000  0.6508444  3
    223    235    538    529     1  180.0000771  0.4184000  2
    223    235    538    529     1  0.0000000  1.6024720  3
    226    232    508    499     1  180.0000771  0.4184000  2
    226    232    508    499     1  0.0000000  1.6024720  3
    232    508    499    490     1  180.0000771  0.4184000  2
    232    508    499    490     1  0.0000000  1.6024720  3
    235    538    529    520     1  180.0000771  0.4184000  2
    235    538    529    520     1  0.0000000  1.6024720  3
    240    241    253    265     1  0.0000000  0.6508444  3
    240    244    256    262     1  0.0000000  0.6508444  3
    240    247    250    259     1  0.0000000  0.6508444  3
    241    240    244    256     1  0.0000000  0.6508444  3
    241    240    247    250     1  0.0000000  0.6508444  3
    241    253    265    598     1  0.0000000  0.6508444  3
    244    240    241    253     1  0.0000000  0.6508444  3
    244    240    247    250     1  0.0000000  0.6508444  3
    244    256    262    568     1  0.0000000  0.6508444  3
    247    240    241    253     1  0.0000000  0.6508444  3
    247    240    244    256     1  0.0000000  0.6508444  3
    247    250    259    268     1  0.0000000  0.6508444  3
    253    265    598    589     1  180.0000771  0.4184000  2
    253    265    598    589     1  0.0000000  1.6024720  3
    256    262    568    559     1  180.0000771  0.4184000  2
    256    262    568    559     1  0.0000000  1.6024720  3
    262    568    559    550     1  180.0000771  0.4184000  2
    262    568    559    550     1  0.0000000  1.6024720  3
    265    598    589    580     1  180.0000771  0.4184000  2
    265    598    589    580     1  0.0000000  1.6024720  3
    270    271    283    295     1  0.0000000  0.6508444  3
    270    274    286    292     1  0.0000000  0.6508444  3
    270    277    280    289     1  0.0000000  0.6508444  3
    271    270    274    286     1  0.0000000  0.6508444  3
    271    270    277    280     1  0.0000000  0.6508444  3
    271    283    295    658     1  0.0000000  0.6508444  3
    274    270    271    283     1  0.0000000  0.6508444  3
    274    270    277    280     1  0.0000000  0.6508444  3
    274    286    292    628     1  0.0000000  0.6508444  3
    277    270    271    283     1  0.0000000  0.6508444  3
    277    270    274    286     1  0.0000000  0.6508444  3
    277    280    289    298     1  0.0000000  0.6508444  3
    283    295    658    649     1  180.0000771  0.4184000  2
    283    295    658    649     1  0.0000000  1.6024720  3
    286    292    628    619     1  180.0000771  0.4184000  2
    286    292    628    619     1  0.0000000  1.6024720  3
    292    628    619    610     1  180.0000771  0.4184000  2
    292    628    619    610     1  0.0000000  1.6024720  3
    295    658    649    640     1  180.0000771  0.4184000  2
    295    658    649    640     1  0.0000000  1.6024720  3
    300    301    313    325     1  0.0000000  0.6508444  3
    300    304    316    322     1  0.0000000  0.6508444  3
    300    307    310    319     1  0.0000000  0.6508444  3
    301    300    304    316     1  0.0000000  0.6508444  3
    301    300    307    310     1  0.0000000  0.6508444  3
    301    313    325    686     1  0.0000000  0.6508444  3
    304    300    301    313     1  0.0000000  0.6508444  3
    304    300    307    310     1  0.0000000  0.6508444  3
    304    316    322    672     1  0.0000000  0.6508444  3
    307    300    301    313     1  0.0000000  0.6508444  3
    307    300    304    316     1  0.0000000  0.6508444  3
    307    310    319    328     1  0.0000000  0.6508444  3
    313    325    686    680     1  180.0000771  0.4184000  2
    313    325    686    680     1  0.0000000  1.6024720  3
    316    322    672    666     1  180.0000771  0.4184000  2
    316    322    672    666     1  0.0000000  1.6024720  3
    322    672    666    663     1  180.0000771  0.4184000  2
    322    672    666    663     1  0.0000000  1.6024720  3
    325    686    680    677     1  180.0000771  0.4184000  2
    325    686    680    677     1  0.0000000  1.6024720  3
    330    331    343    355     1  0.0000000  0.6508444  3
    330    334    346    352     1  0.0000000  0.6508444  3
    330    337    340    349     1  0.0000000  0.6508444  3
    331    330    334    346     1  0.0000000  0.6508444  3
    331    330    337    340     1  0.0000000  0.6508444  3
    331    343    355    714     1  0.0000000  0.6508444  3
    334    330    331    343     1  0.0000000  0.6508444  3
    334    330    337    340     1  0.0000000  0.6508444  3
    334    346    352    700     1  0.0000000  0.6508444  3
    337    330    331    343     1  0.0000000  0.6508444  3
    337    330    334    346     1  0.0000000  0.6508444  3
    337    340    349    358     1  0.0000000  0.6508444  3
    343    355    714    708     1  180.0000771  0.4184000  2
    343    355    714    708     1  0.0000000  1.6024720  3
    346    352    700    694     1  180.0000771  0.4184000  2
    346    352    700    694     1  0.0000000  1.6024720  3
    352    700    694    691     1  180.0000771  0.4184000  2
    352    700    694    691     1  0.0000000  1.6024720  3
    355    714    708    705     1  180.0000771  0.4184000  2
    355    714    708    705     1  0.0000000  1.6024720  3
    360    361    373    385     1  0.0000000  0.6508444  3
    360    364    376    382     1  0.0000000  0.6508444  3
    360    367    370    379     1  0.0000000  0.6508444  3
    361    360    364    376     1  0.0000000  0.6508444  3
    361    360    367    370     1  0.0000000  0.6508444  3
    361    373    385    742     1  0.0000000  0.6508444  3
    364    360    361    373     1  0.0000000  0.6508444  3
    364    360    367    370     1  0.0000000  0.6508444  3
    364    376    382    728     1  0.0000000  0.6508444  3
    367    360    361    373     1  0.0000000  0.6508444  3
    367    360    364    376     1  0.0000000  0.6508444  3
    367    370    379    388     1  0.0000000  0.6508444  3
    373    385    742    736     1  180.0000771  0.4184000  2
    373    385    742    736     1  0.0000000  1.6024720  3
    376    382    728    722     1  180.0000771  0.4184000  2
    376    382    728    722     1  0.0000000  1.6024720  3
    382    728    722    719     1  180.0000771  0.4184000  2
    382    728    722    719     1  0.0000000  1.6024720  3
    385    742    736    733     1  180.0000771  0.4184000  2
    385    742    736    733     1  0.0000000  1.6024720  3
    390    391    403    415     1  0.0000000  0.6508444  3
    390    394    406    412     1  0.0000000  0.6508444  3
    390    397    400    409     1  0.0000000  0.6508444  3
    391    390    394    406     1  0.0000000  0.6508444  3
    391    390    397    400     1  0.0000000  0.6508444  3
    391    403    415    770     1  0.0000000  0.6508444  3
    394    390    391    403     1  0.0000000  0.6508444  3
    394    390    397    400     1  0.0000000  0.6508444  3
    394    406    412    756     1  0.0000000  0.6508444  3
    397    390    391    403     1  0.0000000  0.6508444  3
    397    390    394    406     1  0.0000000  0.6508444  3
    397    400    409    418     1  0.0000000  0.6508444  3
    403    415    770    764     1  180.0000771  0.4184000  2
    403    415    770    764     1  0.0000000  1.6024720  3
    406    412    756    750     1  180.0000771  0.4184000  2
    406    412    756    750     1  0.0000000  1.6024720  3
    412    756    750    747     1  180.0000771  0.4184000  2
    412    756    750    747     1  0.0000000  1.6024720  3
    415    770    764    761     1  180.0000771  0.4184000  2
    415    770    764    761     1  0.0000000  1.6024720  3
    420    421    433    445     1  0.0000000  0.6508444  3
    420    424    436    442     1  0.0000000  0.6508444  3
    420    427    430    439     1  0.0000000  0.6508444  3
    421    420    424    436     1  0.0000000  0.6508444  3
    421    420    427    430     1  0.0000000  0.6508444  3
    421    433    445    798     1  0.0000000  0.6508444  3
    424    420    421    433     1  0.0000000  0.6508444  3
    424    420    427    430     1  0.0000000  0.6508444  3
    424    436    442    784     1  0.0000000  0.6508444  3
    427    420    421    433     1  0.0000000  0.6508444  3
    427    420    424    436     1  0.0000000  0.6508444  3
    427    430    439    448     1  0.0000000  0.6508444  3
    433    445    798    792     1  180.0000771  0.4184000  2
    433    445    798    792     1  0.0000000  1.6024720  3
    436    442    784    778     1  180.0000771  0.4184000  2
    436    442    784    778     1  0.0000000  1.6024720  3
    442    784    778    775     1  180.0000771  0.4184000  2
    442    784    778    775     1  0.0000000  1.6024720  3
    445    798    792    789     1  180.0000771  0.4184000  2
    445    798    792    789     1  0.0000000  1.6024720  3
    450    451    463    475     1  0.0000000  0.6508444  3
    450    454    466    472     1  0.0000000  0.6508444  3
    450    457    460    469     1  0.0000000  0.6508444  3
    451    450    454    466     1  0.0000000  0.6508444  3
    451    450    457    460     1  0.0000000  0.6508444  3
    451    463    475    826     1  0.0000000  0.6508444  3
    454    450    451    463     1  0.0000000  0.6508444  3
    454    450    457    460     1  0.0000000  0.6508444  3
    454    466    472    812     1  0.0000000  0.6508444  3
    457    450    451    463     1  0.0000000  0.6508444  3
    457    450    454    466     1  0.0000000  0.6508444  3
    457    460    469    478     1  0.0000000  0.6508444  3
    463    475    826    820     1  180.0000771  0.4184000  2
    463    475    826    820     1  0.0000000  1.6024720  3
    466    472    812    806     1  180.0000771  0.4184000  2
    466    472    812    806     1  0.0000000  1.6024720  3
    472    812    806    803     1  180.0000771  0.4184000  2
    472    812    806    803     1  0.0000000  1.6024720  3
    475    826    820    817     1  180.0000771  0.4184000  2
    475    826    820    817     1  0.0000000  1.6024720  3
    480    481    493    505     1  0.0000000  0.6508444  3
    480    484    496    502     1  0.0000000  0.6508444  3
    480    487    490    499     1  0.0000000  0.6508444  3
    481    480    484    496     1  0.0000000  0.6508444  3
    481    480    487    490     1  0.0000000  0.6508444  3
    481    493    505    854     1  0.0000000  0.6508444  3
    484    480    481    493     1  0.0000000  0.6508444  3
    484    480    487    490     1  0.0000000  0.6508444  3
    484    496    502    840     1  0.0000000  0.6508444  3
    487    480    481    493     1  0.0000000  0.6508444  3
    487    480    484    496     1  0.0000000  0.6508444  3
    487    490    499    508     1  0.0000000  0.6508444  3
    493    505    854    848     1  180.0000771  0.4184000  2
    493    505    854    848     1  0.0000000  1.6024720  3
    496    502    840    834     1  180.0000771  0.4184000  2
    496    502    840    834     1  0.0000000  1.6024720  3
    502    840    834    831     1  180.0000771  0.4184000  2
    502    840    834    831     1  0.0000000  1.6024720  3
    505    854    848    845     1  180.0000771  0.4184000  2
    505    854    848    845     1  0.0000000  1.6024720  3
    510    511    523    535     1  0.0000000  0.6508444  3
    510    514    526    532     1  0.0000000  0.6508444  3
    510    517    520    529     1  0.0000000  0.6508444  3
    511    510    514    526     1  0.0000000  0.6508444  3
    511    510    517    520     1  0.0000000  0.6508444  3
    511    523    535    882     1  0.0000000  0.6508444  3
    514    510    511    523     1  0.0000000  0.6508444  3
    514    510    517    520     1  0.0000000  0.6508444  3
    514    526    532    868     1  0.0000000  0.6508444  3
    517    510    511    523     1  0.0000000  0.6508444  3
    517    510    514    526     1  0.0000000  0.6508444  3
    517    520    529    538     1  0.0000000  0.6508444  3
    523    535    882    876     1  180.0000771  0.4184000  2
    523    535    882    876     1  0.0000000  1.6024720  3
    526    532    868    862     1  180.0000771  0.4184000  2
    526    532    868    862     1  0.0000000  1.6024720  3
    532    868    862    859     1  180.0000771  0.4184000  2
    532    868    862    859     1  0.0000000  1.6024720  3
    535    882    876    873     1  180.0000771  0.4184000  2
    535    882    876    873     1  0.0000000  1.6024720  3
    540    541    553    565     1  0.0000000  0.6508444  3
    540    544    556    562     1  0.0000000  0.6508444  3
    540    547    550    559     1  0.0000000  0.6508444  3
    541    540    544    556     1  0.0000000  0.6508444  3
    541    540    547    550     1  0.0000000  0.6508444  3
    541    553    565    910     1  0.0000000  0.6508444  3
    544    540    541    553     1  0.0000000  0.6508444  3
    544    540    547    550     1  0.0000000  0.6508444  3
    544    556    562    896     1  0.0000000  0.6508444  3
    547    540    541    553     1  0.0000000  0.6508444  3
    547    540    544    556     1  0.0000000  0.6508444  3
    547    550    559    568     1  0.0000000  0.6508444  3
    553    565    910    904     1  180.0000771  0.4184000  2
    553    565    910    904     1  0.0000000  1.6024720  3
    556    562    896    890     1  180.0000771  0.4184000  2
    556    562    896    890     1  0.0000000  1.6024720  3
    562    896    890    887     1  180.0000771  0.4184000  2
    562    896    890    887     1  0.0000000  1.6024720  3
    565    910    904    901     1  180.0000771  0.4184000  2
    565    910    904    901     1  0.0000000  1.6024720  3
    570    571    583    595     1  0.0000000  0.6508444  3
    570    574    586    592     1  0.0000000  0.6508444  3
    570    577    580    589     1  0.0000000  0.6508444  3
    571    570    574    586     1  0.0000000  0.6508444  3
    571    570    577    580     1  0.0000000  0.6508444  3
    571    583    595    938     1  0.0000000  0.6508444  3
    574    570    571    583     1  0.0000000  0.6508444  3
    574    570    577    580     1  0.0000000  0.6508444  3
    574    586    592    924     1  0.0000000  0.6508444  3
    577    570    571    583     1  0.0000000  0.6508444  3
    577    570    574    586     1  0.0000000  0.6508444  3
    577    580    589    598     1  0.0000000  0.6508444  3
    583    595    938    932     1  180.0000771  0.4184000  2
    583    595    938    932     1  0.0000000  1.6024720  3
    586    592    924    918     1  180.0000771  0.4184000  2
    586    592    924    918     1  0.0000000  1.6024720  3
    592    924    918    915     1  180.0000771  0.4184000  2
    592    924    918    915     1  0.0000000  1.6024720  3
    595    938    932    929     1  180.0000771  0.4184000  2
    595    938    932    929     1  0.0000000  1.6024720  3
    600    601    613    625     1  0.0000000  0.6508444  3
    600    604    616    622     1  0.0000000  0.6508444  3
    600    607    610    619     1  0.0000000  0.6508444  3
    601    600    604    616     1  0.0000000  0.6508444  3
    601    600    607    610     1  0.0000000  0.6508444  3
    601    613    625    966     1  0.0000000  0.6508444  3
    604    600    601    613     1  0.0000000  0.6508444  3
    604    600    607    610     1  0.0000000  0.6508444  3
    604    616    622    952     1  0.0000000  0.6508444  3
    607    600    601    613     1  0.0000000  0.6508444  3
    607    600    604    616     1  0.0000000  0.6508444  3
    607    610    619    628     1  0.0000000  0.6508444  3
    613    625    966    960     1  180.0000771  0.4184000  2
    613    625    966    960     1  0.0000000  1.6024720  3
    616    622    952    946     1  180.0000771  0.4184000  2
    616    622    952    946     1  0.0000000  1.6024720  3
    622    952    946    943     1  180.0000771  0.4184000  2
    622    952    946    943     1  0.0000000  1.6024720  3
    625    966    960    957     1  180.0000771  0.4184000  2
    625    966    960    957     1  0.0000000  1.6024720  3
    630    631    643    655     1  0.0000000  0.6508444  3
    630    634    646    652     1  0.0000000  0.6508444  3
    630    637    640    649     1  0.0000000  0.6508444  3
    631    630    634    646     1  0.0000000  0.6508444  3
    631    630    637    640     1  0.0000000  0.6508444  3
    631    643    655    994     1  0.0000000  0.6508444  3
    634    630    631    643     1  0.0000000  0.6508444  3
    634    630    637    640     1  0.0000000  0.6508444  3
    634    646    652    980     1  0.0000000  0.6508444  3
    637    630    631    643     1  0.0000000  0.6508444  3
    637    630    634    646     1  0.0000000  0.6508444  3
    637    640    649    658     1  0.0000000  0.6508444  3
    643    655    994    988     1  180.0000771  0.4184000  2
    643    655    994    988     1  0.0000000  1.6024720  3
    646    652    980    974     1  180.0000771  0.4184000  2
    646    652    980    974     1  0.0000000  1.6024720  3
    652    980    974    971     1  180.0000771  0.4184000  2
    652    980    974    971     1  0.0000000  1.6024720  3
    655    994    988    985     1  180.0000771  0.4184000  2
    655    994    988    985     1  0.0000000  1.6024720  3
    660    663    666    672     1  0.0000000  0.6508444  3
    666    663    660    669     1  0.0000000  0.6508444  3
    674    677    680    686     1  0.0000000  0.6508444  3
    680    677    674    683     1  0.0000000  0.6508444  3
    688    691    694    700     1  0.0000000  0.6508444  3
    694    691    688    697     1  0.0000000  0.6508444  3
    702    705    708    714     1  0.0000000  0.6508444  3
    708    705    702    711     1  0.0000000  0.6508444  3
    716    719    722    728     1  0.0000000  0.6508444  3
    722    719    716    725     1  0.0000000  0.6508444  3
    730    733    736    742     1  0.0000000  0.6508444  3
    736    733    730    739     1  0.0000000  0.6508444  3
    744    747    750    756     1  0.0000000  0.6508444  3
    750    747    744    753     1  0.0000000  0.6508444  3
    758    761    764    770     1  0.0000000  0.6508444  3
    764    761    758    767     1  0.0000000  0.6508444  3
    772    775    778    784     1  0.0000000  0.6508444  3
    778    775    772    781     1  0.0000000  0.6508444  3
    786    789    792    798     1  0.0000000  0.6508444  3
    792    789    786    795     1  0.0000000  0.6508444  3
    800    803    806    812     1  0.0000000  0.6508444  3
    806    803    800    809     1  0.0000000  0.6508444  3
    814    817    820    826     1  0.0000000  0.6508444  3
    820    817    814    823     1  0.0000000  0.6508444  3
    828    831    834    840     1  0.0000000  0.6508444  3
    834    831    828    837     1  0.0000000  0.6508444  3
    842    845    848    854     1  0.0000000  0.6508444  3
    848    845    842    851     1  0.0000000  0.6508444  3
    856    859    862    868     1  0.0000000  0.6508444  3
    862    859    856    865     1  0.0000000  0.6508444  3
    870    873    876    882     1  0.0000000  0.6508444  3
    876    873    870    879     1  0.0000000  0.6508444  3
    884    887    890    896     1  0.0000000  0.6508444  3
    890    887    884    893     1  0.0000000  0.6508444  3
    898    901    904    910     1  0.0000000  0.6508444  3
    904    901    898    907     1  0.0000000  0.6508444  3
    912    915    918    924     1  0.0000000  0.6508444  3
    918    915    912    921     1  0.0000000  0.6508444  3
    926    929    932    938     1  0.0000000  0.6508444  3
    932    929    926    935     1  0.0000000  0.6508444  3
    940    943    946    952     1  0.0000000  0.6508444  3
    946    943    940    949     1  0.0000000  0.6508444  3
    954    957    960    966     1  0.0000000  0.6508444  3
    960    957    954    963     1  0.0000000  0.6508444  3
    968    971    974    980     1  0.0000000  0.6508444  3
    974    971    968    977     1  0.0000000  0.6508444  3
    982    985    988    994     1  0.0000000  0.6508444  3
    988    985    982    991     1  0.0000000  0.6508444  3
      1      2     14     15     1  0.0000000  0.6508444  3
      1      2     14     16     1  0.0000000  0.6508444  3
      1      5     17     18     1  0.0000000  0.6508444  3
      1      5     17     19     1  0.0000000  0.6508444  3
      1      8     11     12     1  0.0000000  0.6508444  3
      1      8     11     13     1  0.0000000  0.6508444  3
      2      1      5      6     1  0.0000000  0.6508444  3
      2      1      5      7     1  0.0000000  0.6508444  3
      2      1      8      9     1  0.0000000  0.6508444  3
      2      1      8     10     1  0.0000000  0.6508444  3
      2     14     26     27     1  0.0000000  0.6508444  3
      2     14     26     28     1  0.0000000  0.6508444  3
      5      1      2      3     1  0.0000000  0.6508444  3
      8      1      2      3     1  0.0000000  0.6508444  3
     29      1      2      3     1  0.0000000  0.6508444  3
      3      2     14     26     1  0.0000000  0.6508444  3
      3      2     14     15     1  0.0000000  0.6508444  3
      3      2     14     16     1  0.0000000  0.6508444  3
      5      1      2      4     1  0.0000000  0.6508444  3
      8      1      2      4     1  0.0000000  0.6508444  3
     29      1      2      4     1  0.0000000  0.6508444  3
      4      2     14     26     1  0.0000000  0.6508444  3
      4      2     14     15     1  0.0000000  0.6508444  3
      4      2     14     16     1  0.0000000  0.6508444  3
      5      1      8      9     1  0.0000000  0.6508444  3
      5      1      8     10     1  0.0000000  0.6508444  3
      5     17     20     21     1  0.0000000  0.6508444  3
      5     17     20     22     1  0.0000000  0.6508444  3
      8      1      5      6     1  0.0000000  0.6508444  3
     29      1      5      6     1  0.0000000  0.6508444  3
      6      5     17     20     1  0.0000000  0.6508444  3
      6      5     17     18     1  0.0000000  0.6508444  3
      6      5     17     19     1  0.0000000  0.6508444  3
      8      1      5      7     1  0.0000000  0.6508444  3
     29      1      5      7     1  0.0000000  0.6508444  3
      7      5     17     20     1  0.0000000  0.6508444  3
      7      5     17     18     1  0.0000000  0.6508444  3
      7      5     17     19     1  0.0000000  0.6508444  3
      8     11     23     24     1  0.0000000  0.6508444  3
      8     11     23     25     1  0.0000000  0.6508444  3
     29      1      8      9     1  0.0000000  0.6508444  3
      9      8     11     23     1  0.0000000  0.6508444  3
      9      8     11     12     1  0.0000000  0.6508444  3
      9      8     11     13     1  0.0000000  0.6508444  3
     29      1      8     10     1  0.0000000  0.6508444  3
     10      8     11     23     1  0.0000000  0.6508444  3
     10      8     11     12     1  0.0000000  0.6508444  3
     10      8     11     13     1  0.0000000  0.6508444  3
     29      1      8     11     1  0.0000000  0.6508444  3
     12     11     23     88     1  0.0000000  1.0460000  1
     12     11     23     88     1  0.0000000  0.0000000  3
     12     11     23     24     1  0.0000000  0.6508444  3
     12     11     23     25     1  0.0000000  0.6508444  3
     13     11     23     88     1  0.0000000  1.0460000  1
     13     11     23     88     1  0.0000000  0.0000000  3
     13     11     23     24     1  0.0000000  0.6508444  3
     13     11     23     25     1  0.0000000  0.6508444  3
     29      1      2     14     1  0.0000000  0.6508444  3
     15     14     26    118     1  0.0000000  1.0460000  1
     15     14     26    118     1  0.0000000  0.0000000  3
     15     14     26     27     1  0.0000000  0.6508444  3
     15     14     26     28     1  0.0000000  0.6508444  3
     16     14     26    118     1  0.0000000  1.0460000  1
     16     14     26    118     1  0.0000000  0.0000000  3
     16     14     26     27     1  0.0000000  0.6508444  3
     16     14     26     28     1  0.0000000  0.6508444  3
     29      1      5     17     1  0.0000000  0.6508444  3
     18     17     20     58     1  0.0000000  1.0460000  1
     18     17     20     58     1  0.0000000  0.0000000  3
     18     17     20     21     1  0.0000000  0.6508444  3
     18     17     20     22     1  0.0000000  0.6508444  3
     19     17     20     58     1  0.0000000  1.0460000  1
     19     17     20     58     1  0.0000000  0.0000000  3
     19     17     20     21     1  0.0000000  0.6508444  3
     19     17     20     22     1  0.0000000  0.6508444  3
     20     58     49     50     1  0.0000000  1.6038667  3
     20     58     49     51     1  0.0000000  1.6038667  3
     21     20     58     49     1  0.0000000  1.6038667  3
     22     20     58     49     1  0.0000000  1.6038667  3
     23     88     79     80     1  0.0000000  1.6038667  3
     23     88     79     81     1  0.0000000  1.6038667  3
     24     23     88     79     1  0.0000000  1.6038667  3
     25     23     88     79     1  0.0000000  1.6038667  3
     26    118    109    110     1  0.0000000  1.6038667  3
     26    118    109    111     1  0.0000000  1.6038667  3
     27     26    118    109     1  0.0000000  1.6038667  3
     28     26    118    109     1  0.0000000  1.6038667  3
     30     31     43     44     1  0.0000000  0.6508444  3
     30     31     43     45     1  0.0000000  0.6508444  3
     30     34     46     47     1  0.0000000  0.6508444  3
     30     34     46     48     1  0.0000000  0.6508444  3
     30     37     40     41     1  0.0000000  0.6508444  3
     30     37     40     42     1  0.0000000  0.6508444  3
     31     30     34     35     1  0.0000000  0.6508444  3
     31     30     34     36     1  0.0000000  0.6508444  3
     31     30     37     38     1  0.0000000  0.6508444  3
     31     30     37     39     1  0.0000000  0.6508444  3
     31     43     55     56     1  0.0000000  0.6508444  3
     31     43     55     57     1  0.0000000  0.6508444  3
     32     31     30     34     1  0.0000000  0.6508444  3
     32     31     30     37     1  0.0000000  0.6508444  3
     32     31     30     59     1  0.0000000  0.6508444  3
     32     31     43     55     1  0.0000000  0.6508444  3
     32     31     43     44     1  0.0000000  0.6508444  3
     32     31     43     45     1  0.0000000  0.6508444  3
     33     31     30     34     1  0.0000000  0.6508444  3
     33     31     30     37     1  0.0000000  0.6508444  3
     33     31     30     59     1  0.0000000  0.6508444  3
     33     31     43     55     1  0.0000000  0.6508444  3
     33     31     43     44     1  0.0000000  0.6508444  3
     33     31     43     45     1  0.0000000  0.6508444  3
     34     30     37     38     1  0.0000000  0.6508444  3
     34     30     37     39     1  0.0000000  0.6508444  3
     34     46     52     53     1  0.0000000  0.6508444  3
     34     46     52     54     1  0.0000000  0.6508444  3
     35     34     30     37     1  0.0000000  0.6508444  3
     35     34     30     59     1  0.0000000  0.6508444  3
     35     34     46     52     1  0.0000000  0.6508444  3
     35     34     46     47     1  0.0000000  0.6508444  3
     35     34     46     48     1  0.0000000  0.6508444  3
     36     34     30     37     1  0.0000000  0.6508444  3
     36     34     30     59     1  0.0000000  0.6508444  3
     36     34     46     52     1  0.0000000  0.6508444  3
     36     34     46     47     1  0.0000000  0.6508444  3
     36     34     46     48     1  0.0000000  0.6508444  3
     37     40     49     50     1  0.0000000  0.6508444  3
     37     40     49     51     1  0.0000000  0.6508444  3
     38     37     30     59     1  0.0000000  0.6508444  3
     38     37     40     49     1  0.0000000  0.6508444  3
     38     37     40     41     1  0.0000000  0.6508444  3
     38     37     40     42     1  0.0000000  0.6508444  3
     39     37     30     59     1  0.0000000  0.6508444  3
     39     37     40     49     1  0.0000000  0.6508444  3
     39     37     40     41     1  0.0000000  0.6508444  3
     39     37     40     42     1  0.0000000  0.6508444  3
     40     37     30     59     1  0.0000000  0.6508444  3
     41     40     49     58     1  0.0000000  1.0460000  1
     41     40     49     58     1  0.0000000  0.0000000  3
     41     40     49     50     1  0.0000000  0.6508444  3
     41     40     49     51     1  0.0000000  0.6508444  3
     42     40     49     58     1  0.0000000  1.0460000  1
     42     40     49     58     1  0.0000000  0.0000000  3
     42     40     49     50     1  0.0000000  0.6508444  3
     42     40     49     51     1  0.0000000  0.6508444  3
     43     31     30     59     1  0.0000000  0.6508444  3
     44     43     55    178     1  0.0000000  1.0460000  1
     44     43     55    178     1  0.0000000  0.0000000  3
     44     43     55     56     1  0.0000000  0.6508444  3
     44     43     55     57     1  0.0000000  0.6508444  3
     45     43     55    178     1  0.0000000  1.0460000  1
     45     43     55    178     1  0.0000000  0.0000000  3
     45     43     55     56     1  0.0000000  0.6508444  3
     45     43     55     57     1  0.0000000  0.6508444  3
     46     34     30     59     1  0.0000000  0.6508444  3
     47     46     52    148     1  0.0000000  1.0460000  1
     47     46     52    148     1  0.0000000  0.0000000  3
     47     46     52     53     1  0.0000000  0.6508444  3
     47     46     52     54     1  0.0000000  0.6508444  3
     48     46     52    148     1  0.0000000  1.0460000  1
     48     46     52    148     1  0.0000000  0.0000000  3
     48     46     52     53     1  0.0000000  0.6508444  3
     48     46     52     54     1  0.0000000  0.6508444  3
     52    148    139    140     1  0.0000000  1.6038667  3
     52    148    139    141     1  0.0000000  1.6038667  3
     53     52    148    139     1  0.0000000  1.6038667  3
     54     52    148    139     1  0.0000000  1.6038667  3
     55    178    169    170     1  0.0000000  1.6038667  3
     55    178    169    171     1  0.0000000  1.6038667  3
     56     55    178    169     1  0.0000000  1.6038667  3
     57     55    178    169     1  0.0000000  1.6038667  3
     60     61     73     74     1  0.0000000  0.6508444  3
     60     61     73     75     1  0.0000000  0.6508444  3
     60     64     76     77     1  0.0000000  0.6508444  3
     60     64     76     78     1  0.0000000  0.6508444  3
     60     67     70     71     1  0.0000000  0.6508444  3
     60     67     70     72     1  0.0000000  0.6508444  3
     61     60     64     65     1  0.0000000  0.6508444  3
     61     60     64     66     1  0.0000000  0.6508444  3
     61     60     67     68     1  0.0000000  0.6508444  3
     61     60     67     69     1  0.0000000  0.6508444  3
     61     73     85     86     1  0.0000000  0.6508444  3
     61     73     85     87     1  0.0000000  0.6508444  3
     62     61     60     64     1  0.0000000  0.6508444  3
     62     61     60     67     1  0.0000000  0.6508444  3
     62     61     60     89     1  0.0000000  0.6508444  3
     62     61     73     85     1  0.0000000  0.6508444  3
     62     61     73     74     1  0.0000000  0.6508444  3
     62     61     73     75     1  0.0000000  0.6508444  3
     63     61     60     64     1  0.0000000  0.6508444  3
     63     61     60     67     1  0.0000000  0.6508444  3
     63     61     60     89     1  0.0000000  0.6508444  3
     63     61     73     85     1  0.0000000  0.6508444  3
     63     61     73     74     1  0.0000000  0.6508444  3
     63     61     73     75     1  0.0000000  0.6508444  3
     64     60     67     68     1  0.0000000  0.6508444  3
     64     60     67     69     1  0.0000000  0.6508444  3
     64     76     82     83     1  0.0000000  0.6508444  3
     64     76     82     84     1  0.0000000  0.6508444  3
     65     64     60     67     1  0.0000000  0.6508444  3
     65     64     60     89     1  0.0000000  0.6508444  3
     65     64     76     82     1  0.0000000  0.6508444  3
     65     64     76     77     1  0.0000000  0.6508444  3
     65     64     76     78     1  0.0000000  0.6508444  3
     66     64     60     67     1  0.0000000  0.6508444  3
     66     64     60     89     1  0.0000000  0.6508444  3
     66     64     76     82     1  0.0000000  0.6508444  3
     66     64     76     77     1  0.0000000  0.6508444  3
     66     64     76     78     1  0.0000000  0.6508444  3
     67     70     79     80     1  0.0000000  0.6508444  3
     67     70     79     81     1  0.0000000  0.6508444  3
     68     67     60     89     1  0.0000000  0.6508444  3
     68     67     70     79     1  0.0000000  0.6508444  3
     68     67     70     71     1  0.0000000  0.6508444  3
     68     67     70     72     1  0.0000000  0.6508444  3
     69     67     60     89     1  0.0000000  0.6508444  3
     69     67     70     79     1  0.0000000  0.6508444  3
     69     67     70     71     1  0.0000000  0.6508444  3
     69     67     70     72     1  0.0000000  0.6508444  3
     70     67     60     89     1  0.0000000  0.6508444  3
     71     70     79     88     1  0.0000000  1.0460000  1
     71     70     79     88     1  0.0000000  0.0000000  3
     71     70     79     80     1  0.0000000  0.6508444  3
     71     70     79     81     1  0.0000000  0.6508444  3
     72     70     79     88     1  0.0000000  1.0460000  1
     72     70     79     88     1  0.0000000  0.0000000  3
     72     70     79     80     1  0.0000000  0.6508444  3
     72     70     79     81     1  0.0000000  0.6508444  3
     73     61     60     89     1  0.0000000  0.6508444  3
     74     73     85    238     1  0.0000000  1.0460000  1
     74     73     85    238     1  0.0000000  0.0000000  3
     74     73     85     86     1  0.0000000  0.6508444  3
     74     73     85     87     1  0.0000000  0.6508444  3
     75     73     85    238     1  0.0000000  1.0460000  1
     75     73     85    238     1  0.0000000  0.0000000  3
     75     73     85     86     1  0.0000000  0.6508444  3
     75     73     85     87     1  0.0000000  0.6508444  3
     76     64     60     89     1  0.0000000  0.6508444  3
     77     76     82    208     1  0.0000000  1.0460000  1
     77     76     82    208     1  0.0000000  0.0000000  3
     77     76     82     83     1  0.0000000  0.6508444  3
     77     76     82     84     1  0.0000000  0.6508444  3
     78     76     82    208     1  0.0000000  1.0460000  1
     78     76     82    208     1  0.0000000  0.0000000  3
     78     76     82     83     1  0.0000000  0.6508444  3
     78     76     82     84     1  0.0000000  0.6508444  3
     82    208    199    200     1  0.0000000  1.6038667  3
     82    208    199    201     1  0.0000000  1.6038667  3
     83     82    208    199     1  0.0000000  1.6038667  3
     84     82    208    199     1  0.0000000  1.6038667  3
     85    238    229    230     1  0.0000000  1.6038667  3
     85    238    229    231     1  0.0000000  1.6038667  3
     86     85    238    229     1  0.0000000  1.6038667  3
     87     85    238    229     1  0.0000000  1.6038667  3
     90     91    103    104     1  0.0000000  0.6508444  3
     90     91    103    105     1  0.0000000  0.6508444  3
     90     94    106    107     1  0.0000000  0.6508444  3
     90     94    106    108     1  0.0000000  0.6508444  3
     90     97    100    101     1  0.0000000  0.6508444  3
     90     97    100    102     1  0.0000000  0.6508444  3
     91     90     94     95     1  0.0000000  0.6508444  3
     91     90     94     96     1  0.0000000  0.6508444  3
     91     90     97     98     1  0.0000000  0.6508444  3
     91     90     97     99     1  0.0000000  0.6508444  3
     91    103    115    116     1  0.0000000  0.6508444  3
     91    103    115    117     1  0.0000000  0.6508444  3
     92     91     90     94     1  0.0000000  0.6508444  3
     92     91     90     97     1  0.0000000  0.6508444  3
     92     91     90    119     1  0.0000000  0.6508444  3
     92     91    103    115     1  0.0000000  0.6508444  3
     92     91    103    104     1  0.0000000  0.6508444  3
     92     91    103    105     1  0.0000000  0.6508444  3
     93     91     90     94     1  0.0000000  0.6508444  3
     93     91     90     97     1  0.0000000  0.6508444  3
     93     91     90    119     1  0.0000000  0.6508444  3
     93     91    103    115     1  0.0000000  0.6508444  3
     93     91    103    104     1  0.0000000  0.6508444  3
     93     91    103    105     1  0.0000000  0.6508444  3
     94     90     97     98     1  0.0000000  0.6508444  3
     94     90     97     99     1  0.0000000  0.6508444  3
     94    106    112    113     1  0.0000000  0.6508444  3
     94    106    112    114     1  0.0000000  0.6508444  3
     95     94     90     97     1  0.0000000  0.6508444  3
     95     94     90    119     1  0.0000000  0.6508444  3
     95     94    106    112     1  0.0000000  0.6508444  3
     95     94    106    107     1  0.0000000  0.6508444  3
     95     94    106    108     1  0.0000000  0.6508444  3
     96     94     90     97     1  0.0000000  0.6508444  3
     96     94     90    119     1  0.0000000  0.6508444  3
     96     94    106    112     1  0.0000000  0.6508444  3
     96     94    106    107     1  0.0000000  0.6508444  3
     96     94    106    108     1  0.0000000  0.6508444  3
     97    100    109    110     1  0.0000000  0.6508444  3
     97    100    109    111     1  0.0000000  0.6508444  3
     98     97     90    119     1  0.0000000  0.6508444  3
     98     97    100    109     1  0.0000000  0.6508444  3
     98     97    100    101     1  0.0000000  0.6508444  3
     98     97    100    102     1  0.0000000  0.6508444  3
     99     97     90    119     1  0.0000000  0.6508444  3
     99     97    100    109     1  0.0000000  0.6508444  3
     99     97    100    101     1  0.0000000  0.6508444  3
     99     97    100    102     1  0.0000000  0.6508444  3
    100     97     90    119     1  0.0000000  0.6508444  3
    101    100    109    118     1  0.0000000  1.0460000  1
    101    100    109    118     1  0.0000000  0.0000000  3
    101    100    109    110     1  0.0000000  0.6508444  3
    101    100    109    111     1  0.0000000  0.6508444  3
    102    100    109    118     1  0.0000000  1.0460000  1
    102    100    109    118     1  0.0000000  0.0000000  3
    102    100    109    110     1  0.0000000  0.6508444  3
    102    100    109    111     1  0.0000000  0.6508444  3
    103     91     90    119     1  0.0000000  0.6508444  3
    104    103    115    298     1  0.0000000  1.0460000  1
    104    103    115    298     1  0.0000000  0.0000000  3
    104    103    115    116     1  0.0000000  0.6508444  3
    104    103    115    117     1  0.0000000  0.6508444  3
    105    103    115    298     1  0.0000000  1.0460000  1
    105    103    115    298     1  0.0000000  0.0000000  3
    105    103    115    116     1  0.0000000  0.6508444  3
    105    103    115    117     1  0.0000000  0.6508444  3
    106     94     90    119     1  0.0000000  0.6508444  3
    107    106    112    268     1  0.0000000  1.0460000  1
    107    106    112    268     1  0.0000000  0.0000000  3
    107    106    112    113     1  0.0000000  0.6508444  3
    107    106    112    114     1  0.0000000  0.6508444  3
    108    106    112    268     1  0.0000000  1.0460000  1
    108    106    112    268     1  0.0000000  0.0000000  3
    108    106    112    113     1  0.0000000  0.6508444  3
    108    106    112    114     1  0.0000000  0.6508444  3
    112    268    259    260     1  0.0000000  1.6038667  3
    112    268    259    261     1  0.0000000  1.6038667  3
    113    112    268    259     1  0.0000000  1.6038667  3
    114    112    268    259     1  0.0000000  1.6038667  3
    115    298    289    290     1  0.0000000  1.6038667  3
    115    298    289    291     1  0.0000000  1.6038667  3
    116    115    298    289     1  0.0000000  1.6038667  3
    117    115    298    289     1  0.0000000  1.6038667  3
    120    121    133    134     1  0.0000000  0.6508444  3
    120    121    133    135     1  0.0000000  0.6508444  3
    120    124    136    137     1  0.0000000  0.6508444  3
    120    124    136    138     1  0.0000000  0.6508444  3
    120    127    130    131     1  0.0000000  0.6508444  3
    120    127    130    132     1  0.0000000  0.6508444  3
    121    120    124    125     1  0.0000000  0.6508444  3
    121    120    124    126     1  0.0000000  0.6508444  3
    121    120    127    128     1  0.0000000  0.6508444  3
    121    120    127    129     1  0.0000000  0.6508444  3
    121    133    145    146     1  0.0000000  0.6508444  3
    121    133    145    147     1  0.0000000  0.6508444  3
    122    121    120    124     1  0.0000000  0.6508444  3
    122    121    120    127     1  0.0000000  0.6508444  3
    122    121    120    149     1  0.0000000  0.6508444  3
    122    121    133    145     1  0.0000000  0.6508444  3
    122    121    133    134     1  0.0000000  0.6508444  3
    122    121    133    135     1  0.0000000  0.6508444  3
    123    121    120    124     1  0.0000000  0.6508444  3
    123    121    120    127     1  0.0000000  0.6508444  3
    123    121    120    149     1  0.0000000  0.6508444  3
    123    121    133    145     1  0.0000000  0.6508444  3
    123    121    133    134     1  0.0000000  0.6508444  3
    123    121    133    135     1  0.0000000  0.6508444  3
    124    120    127    128     1  0.0000000  0.6508444  3
    124    120    127    129     1  0.0000000  0.6508444  3
    124    136    142    143     1  0.0000000  0.6508444  3
    124    136    142    144     1  0.0000000  0.6508444  3
    125    124    120    127     1  0.0000000  0.6508444  3
    125    124    120    149     1  0.0000000  0.6508444  3
    125    124    136    142     1  0.0000000  0.6508444  3
    125    124    136    137     1  0.0000000  0.6508444  3
    125    124    136    138     1  0.0000000  0.6508444  3
    126    124    120    127     1  0.0000000  0.6508444  3
    126    124    120    149     1  0.0000000  0.6508444  3
    126    124    136    142     1  0.0000000  0.6508444  3
    126    124    136    137     1  0.0000000  0.6508444  3
    126    124    136    138     1  0.0000000  0.6508444  3
    127    130    139    140     1  0.0000000  0.6508444  3
    127    130    139    141     1  0.0000000  0.6508444  3
    128    127    120    149     1  0.0000000  0.6508444  3
    128    127    130    139     1  0.0000000  0.6508444  3
    128    127    130    131     1  0.0000000  0.6508444  3
    128    127    130    132     1  0.0000000  0.6508444  3
    129    127    120    149     1  0.0000000  0.6508444  3
    129    127    130    139     1  0.0000000  0.6508444  3
    129    127    130    131     1  0.0000000  0.6508444  3
    129    127    130    132     1  0.0000000  0.6508444  3
    130    127    120    149     1  0.0000000  0.6508444  3
    131    130    139    148     1  0.0000000  1.0460000  1
    131    130    139    148     1  0.0000000  0.0000000  3
    131    130    139    140     1  0.0000000  0.6508444  3
    131    130    139    141     1  0.0000000  0.6508444  3
    132    130    139    148     1  0.0000000  1.0460000  1
    132    130    139    148     1  0.0000000  0.0000000  3
    132    130    139    140     1  0.0000000  0.6508444  3
    132    130    139    141     1  0.0000000  0.6508444  3
    133    121    120    149     1  0.0000000  0.6508444  3
    134    133    145    358     1  0.0000000  1.0460000  1
    134    133    145    358     1  0.0000000  0.0000000  3
    134    133    145    146     1  0.0000000  0.6508444  3
    134    133    145    147     1  0.0000000  0.6508444  3
    135    133    145    358     1  0.0000000  1.0460000  1
    135    133    145    358     1  0.0000000  0.0000000  3
    135    133    145    146     1  0.0000000  0.6508444  3
    135    133    145    147     1  0.0000000  0.6508444  3
    136    124    120    149     1  0.0000000  0.6508444  3
    137    136    142    328     1  0.0000000  1.0460000  1
    137    136    142    328     1  0.0000000  0.0000000  3
    137    136    142    143     1  0.0000000  0.6508444  3
    137    136    142    144     1  0.0000000  0.6508444  3
    138    136    142    328     1  0.0000000  1.0460000  1
    138    136    142    328     1  0.0000000  0.0000000  3
    138    136    142    143     1  0.0000000  0.6508444  3
    138    136    142    144     1  0.0000000  0.6508444  3
    142    328    319    320     1  0.0000000  1.6038667  3
    142    328    319    321     1  0.0000000  1.6038667  3
    143    142    328    319     1  0.0000000  1.6038667  3
    144    142    328    319     1  0.0000000  1.6038667  3
    145    358    349    350     1  0.0000000  1.6038667  3
    145    358    349    351     1  0.0000000  1.6038667  3
    146    145    358    349     1  0.0000000  1.6038667  3
    147    145    358    349     1  0.0000000  1.6038667  3
    150    151    163    164     1  0.0000000  0.6508444  3
    150    151    163    165     1  0.0000000  0.6508444  3
    150    154    166    167     1  0.0000000  0.6508444  3
    150    154    166    168     1  0.0000000  0.6508444  3
    150    157    160    161     1  0.0000000  0.6508444  3
    150    157    160    162     1  0.0000000  0.6508444  3
    151    150    154    155     1  0.0000000  0.6508444  3
    151    150    154    156     1  0.0000000  0.6508444  3
    151    150    157    158     1  0.0000000  0.6508444  3
    151    150    157    159     1  0.0000000  0.6508444  3
    151    163    175    176     1  0.0000000  0.6508444  3
    151    163    175    177     1  0.0000000  0.6508444  3
    152    151    150    154     1  0.0000000  0.6508444  3
    152    151    150    157     1  0.0000000  0.6508444  3
    152    151    150    179     1  0.0000000  0.6508444  3
    152    151    163    175     1  0.0000000  0.6508444  3
    152    151    163    164     1  0.0000000  0.6508444  3
    152    151    163    165     1  0.0000000  0.6508444  3
    153    151    150    154     1  0.0000000  0.6508444  3
    153    151    150    157     1  0.0000000  0.6508444  3
    153    151    150    179     1  0.0000000  0.6508444  3
    153    151    163    175     1  0.0000000  0.6508444  3
    153    151    163    164     1  0.0000000  0.6508444  3
    153    151    163    165     1  0.0000000  0.6508444  3
    154    150    157    158     1  0.0000000  0.6508444  3
    154    150    157    159     1  0.0000000  0.6508444  3
    154    166    172    173     1  0.0000000  0.6508444  3
    154    166    172    174     1  0.0000000  0.6508444  3
    155    154    150    157     1  0.0000000  0.6508444  3
    155    154    150    179     1  0.0000000  0.6508444  3
    155    154    166    172     1  0.0000000  0.6508444  3
    155    154    166    167     1  0.0000000  0.6508444  3
    155    154    166    168     1  0.0000000  0.6508444  3
    156    154    150    157     1  0.0000000  0.6508444  3
    156    154    150    179     1  0.0000000  0.6508444  3
    156    154    166    172     1  0.0000000  0.6508444  3
    156    154    166    167     1  0.0000000  0.6508444  3
    156    154    166    168     1  0.0000000  0.6508444  3
    157    160    169    170     1  0.0000000  0.6508444  3
    157    160    169    171     1  0.0000000  0.6508444  3
    158    157    150    179     1  0.0000000  0.6508444  3
    158    157    160    169     1  0.0000000  0.6508444  3
    158    157    160    161     1  0.0000000  0.6508444  3
    158    157    160    162     1  0.0000000  0.6508444  3
    159    157    150    179     1  0.0000000  0.6508444  3
    159    157    160    169     1  0.0000000  0.6508444  3
    159    157    160    161     1  0.0000000  0.6508444  3
    159    157    160    162     1  0.0000000  0.6508444  3
    160    157    150    179     1  0.0000000  0.6508444  3
    161    160    169    178     1  0.0000000  1.0460000  1
    161    160    169    178     1  0.0000000  0.0000000  3
    161    160    169    170     1  0.0000000  0.6508444  3
    161    160    169    171     1  0.0000000  0.6508444  3
    162    160    169    178     1  0.0000000  1.0460000  1
    162    160    169    178     1  0.0000000  0.0000000  3
    162    160    169    170     1  0.0000000  0.6508444  3
    162    160    169    171     1  0.0000000  0.6508444  3
    163    151    150    179     1  0.0000000  0.6508444  3
    164    163    175    418     1  0.0000000  1.0460000  1
    164    163    175    418     1  0.0000000  0.0000000  3
    164    163    175    176     1  0.0000000  0.6508444  3
    164    163    175    177     1  0.0000000  0.6508444  3
    165    163    175    418     1  0.0000000  1.0460000  1
    165    163    175    418     1  0.0000000  0.0000000  3
    165    163    175    176     1  0.0000000  0.6508444  3
    165    163    175    177     1  0.0000000  0.6508444  3
    166    154    150    179     1  0.0000000  0.6508444  3
    167    166    172    388     1  0.0000000  1.0460000  1
    167    166    172    388     1  0.0000000  0.0000000  3
    167    166    172    173     1  0.0000000  0.6508444  3
    167    166    172    174     1  0.0000000  0.6508444  3
    168    166    172    388     1  0.0000000  1.0460000  1
    168    166    172    388     1  0.0000000  0.0000000  3
    168    166    172    173     1  0.0000000  0.6508444  3
    168    166    172    174     1  0.0000000  0.6508444  3
    172    388    379    380     1  0.0000000  1.6038667  3
    172    388    379    381     1  0.0000000  1.6038667  3
    173    172    388    379     1  0.0000000  1.6038667  3
    174    172    388    379     1  0.0000000  1.6038667  3
    175    418    409    410     1  0.0000000  1.6038667  3
    175    418    409    411     1  0.0000000  1.6038667  3
    176    175    418    409     1  0.0000000  1.6038667  3
    177    175    418    409     1  0.0000000  1.6038667  3
    180    181    193    194     1  0.0000000  0.6508444  3
    180    181    193    195     1  0.0000000  0.6508444  3
    180    184    196    197     1  0.0000000  0.6508444  3
    180    184    196    198     1  0.0000000  0.6508444  3
    180    187    190    191     1  0.0000000  0.6508444  3
    180    187    190    192     1  0.0000000  0.6508444  3
    181    180    184    185     1  0.0000000  0.6508444  3
    181    180    184    186     1  0.0000000  0.6508444  3
    181    180    187    188     1  0.0000000  0.6508444  3
    181    180    187    189     1  0.0000000  0.6508444  3
    181    193    205    206     1  0.0000000  0.6508444  3
    181    193    205    207     1  0.0000000  0.6508444  3
    182    181    180    184     1  0.0000000  0.6508444  3
    182    181    180    187     1  0.0000000  0.6508444  3
    182    181    180    209     1  0.0000000  0.6508444  3
    182    181    193    205     1  0.0000000  0.6508444  3
    182    181    193    194     1  0.0000000  0.6508444  3
    182    181    193    195     1  0.0000000  0.6508444  3
    183    181    180    184     1  0.0000000  0.6508444  3
    183    181    180    187     1  0.0000000  0.6508444  3
    183    181    180    209     1  0.0000000  0.6508444  3
    183    181    193    205     1  0.0000000  0.6508444  3
    183    181    193    194     1  0.0000000  0.6508444  3
    183    181    193    195     1  0.0000000  0.6508444  3
    184    180    187    188     1  0.0000000  0.6508444  3
    184    180    187    189     1  0.0000000  0.6508444  3
    184    196    202    203     1  0.0000000  0.6508444  3
    184    196    202    204     1  0.0000000  0.6508444  3
    185    184    180    187     1  0.0000000  0.6508444  3
    185    184    180    209     1  0.0000000  0.6508444  3
    185    184    196    202     1  0.0000000  0.6508444  3
    185    184    196    197     1  0.0000000  0.6508444  3
    185    184    196    198     1  0.0000000  0.6508444  3
    186    184    180    187     1  0.0000000  0.6508444  3
    186    184    180    209     1  0.0000000  0.6508444  3
    186    184    196    202     1  0.0000000  0.6508444  3
    186    184    196    197     1  0.0000000  0.6508444  3
    186    184    196    198     1  0.0000000  0.6508444  3
    187    190    199    200     1  0.0000000  0.6508444  3
    187    190    199    201     1  0.0000000  0.6508444  3
    188    187    180    209     1  0.0000000  0.6508444  3
    188    187    190    199     1  0.0000000  0.6508444  3
    188    187    190    191     1  0.0000000  0.6508444  3
    188    187    190    192     1  0.0000000  0.6508444  3
    189    187    180    209     1  0.0000000  0.6508444  3
    189    187    190    199     1  0.0000000  0.6508444  3
    189    187    190    191     1  0.0000000  0.6508444  3
    189    187    190    192     1  0.0000000  0.6508444  3
    190    187    180    209     1  0.0000000  0.6508444  3
    191    190    199    208     1  0.0000000  1.0460000  1
    191    190    199    208     1  0.0000000  0.0000000  3
    191    190    199    200     1  0.0000000  0.6508444  3
    191    190    199    201     1  0.0000000  0.6508444  3
    192    190    199    208     1  0.0000000  1.0460000  1
    192    190    199    208     1  0.0000000  0.0000000  3
    192    190    199    200     1  0.0000000  0.6508444  3
    192    190    199    201     1  0.0000000  0.6508444  3
    193    181    180    209     1  0.0000000  0.6508444  3
    194    193    205    478     1  0.0000000  1.0460000  1
    194    193    205    478     1  0.0000000  0.0000000  3
    194    193    205    206     1  0.0000000  0.6508444  3
    194    193    205    207     1  0.0000000  0.6508444  3
    195    193    205    478     1  0.0000000  1.0460000  1
    195    193    205    478     1  0.0000000  0.0000000  3
    195    193    205    206     1  0.0000000  0.6508444  3
    195    193    205    207     1  0.0000000  0.6508444  3
    196    184    180    209     1  0.0000000  0.6508444  3
    197    196    202    448     1  0.0000000  1.0460000  1
    197    196    202    448     1  0.0000000  0.0000000  3
    197    196    202    203     1  0.0000000  0.6508444  3
    197    196    202    204     1  0.0000000  0.6508444  3
    198    196    202    448     1  0.0000000  1.0460000  1
    198    196    202    448     1  0.0000000  0.0000000  3
    198    196    202    203     1  0.0000000  0.6508444  3
    198    196    202    204     1  0.0000000  0.6508444  3
    202    448    439    440     1  0.0000000  1.6038667  3
    202    448    439    441     1  0.0000000  1.6038667  3
    203    202    448    439     1  0.0000000  1.6038667  3
    204    202    448    439     1  0.0000000  1.6038667  3
    205    478    469    470     1  0.0000000  1.6038667  3
    205    478    469    471     1  0.0000000  1.6038667  3
    206    205    478    469     1  0.0000000  1.6038667  3
    207    205    478    469     1  0.0000000  1.6038667  3
    210    211    223    224     1  0.0000000  0.6508444  3
    210    211    223    225     1  0.0000000  0.6508444  3
    210    214    226    227     1  0.0000000  0.6508444  3
    210    214    226    228     1  0.0000000  0.6508444  3
    210    217    220    221     1  0.0000000  0.6508444  3
    210    217    220    222     1  0.0000000  0.6508444  3
    211    210    214    215     1  0.0000000  0.6508444  3
    211    210    214    216     1  0.0000000  0.6508444  3
    211    210    217    218     1  0.0000000  0.6508444  3
    211    210    217    219     1  0.0000000  0.6508444  3
    211    223    235    236     1  0.0000000  0.6508444  3
    211    223    235    237     1  0.0000000  0.6508444  3
    212    211    210    214     1  0.0000000  0.6508444  3
    212    211    210    217     1  0.0000000  0.6508444  3
    212    211    210    239     1  0.0000000  0.6508444  3
    212    211    223    235     1  0.0000000  0.6508444  3
    212    211    223    224     1  0.0000000  0.6508444  3
    212    211    223    225     1  0.0000000  0.6508444  3
    213    211    210    214     1  0.0000000  0.6508444  3
    213    211    210    217     1  0.0000000  0.6508444  3
    213    211    210    239     1  0.0000000  0.6508444  3
    213    211    223    235     1  0.0000000  0.6508444  3
    213    211    223    224     1  0.0000000  0.6508444  3
    213    211    223    225     1  0.0000000  0.6508444  3
    214    210    217    218     1  0.0000000  0.6508444  3
    214    210    217    219     1  0.0000000  0.6508444  3
    214    226    232    233     1  0.0000000  0.6508444  3
    214    226    232    234     1  0.0000000  0.6508444  3
    215    214    210    217     1  0.0000000  0.6508444  3
    215    214    210    239     1  0.0000000  0.6508444  3
    215    214    226    232     1  0.0000000  0.6508444  3
    215    214    226    227     1  0.0000000  0.6508444  3
    215    214    226    228     1  0.0000000  0.6508444  3
    216    214    210    217     1  0.0000000  0.6508444  3
    216    214    210    239     1  0.0000000  0.6508444  3
    216    214    226    232     1  0.0000000  0.6508444  3
    216    214    226    227     1  0.0000000  0.6508444  3
    216    214    226    228     1  0.0000000  0.6508444  3
    217    220    229    230     1  0.0000000  0.6508444  3
    217    220    229    231     1  0.0000000  0.6508444  3
    218    217    210    239     1  0.0000000  0.6508444  3
    218    217    220    229     1  0.0000000  0.6508444  3
    218    217    220    221     1  0.0000000  0.6508444  3
    218    217    220    222     1  0.0000000  0.6508444  3
    219    217    210    239     1  0.0000000  0.6508444  3
    219    217    220    229     1  0.0000000  0.6508444  3
    219    217    220    221     1  0.0000000  0.6508444  3
    219    217    220    222     1  0.0000000  0.6508444  3
    220    217    210    239     1  0.0000000  0.6508444  3
    221    220    229    238     1  0.0000000  1.0460000  1
    221    220    229    238     1  0.0000000  0.0000000  3
    221    220    229    230     1  0.0000000  0.6508444  3
    221    220    229    231     1  0.0000000  0.6508444  3
    222    220    229    238     1  0.0000000  1.0460000  1
    222    220    229    238     1  0.0000000  0.0000000  3
    222    220    229    230     1  0.0000000  0.6508444  3
    222    220    229    231     1  0.0000000  0.6508444  3
    223    211    210    239     1  0.0000000  0.6508444  3
    224    223    235    538     1  0.0000000  1.0460000  1
    224    223    235    538     1  0.0000000  0.0000000  3
    224    223    235    236     1  0.0000000  0.6508444  3
    224    223    235    237     1  0.0000000  0.6508444  3
    225    223    235    538     1  0.0000000  1.0460000  1
    225    223    235    538     1  0.0000000  0.0000000  3
    225    223    235    236     1  0.0000000  0.6508444  3
    225    223    235    237     1  0.0000000  0.6508444  3
    226    214    210    239     1  0.0000000  0.6508444  3
    227    226    232    508     1  0.0000000  1.0460000  1
    227    226    232    508     1  0.0000000  0.0000000  3
    227    226    232    233     1  0.0000000  0.6508444  3
    227    226    232    234     1  0.0000000  0.6508444  3
    228    226    232    508     1  0.0000000  1.0460000  1
    228    226    232    508     1  0.0000000  0.0000000  3
    228    226    232    233     1  0.0000000  0.6508444  3
    228    226    232    234     1  0.0000000  0.6508444  3
    232    508    499    500     1  0.0000000  1.6038667  3
    232    508    499    501     1  0.0000000  1.6038667  3
    233    232    508    499     1  0.0000000  1.6038667  3
    234    232    508    499     1  0.0000000  1.6038667  3
    235    538    529    530     1  0.0000000  1.6038667  3
    235    538    529    531     1  0.0000000  1.6038667  3
    236    235    538    529     1  0.0000000  1.6038667  3
    237    235    538    529     1  0.0000000  1.6038667  3
    240    241    253    254     1  0.0000000  0.6508444  3
    240    241    253    255     1  0.0000000  0.6508444  3
    240    244    256    257     1  0.0000000  0.6508444  3
    240    244    256    258     1  0.0000000  0.6508444  3
    240    247    250    251     1  0.0000000  0.6508444  3
    240    247    250    252     1  0.0000000  0.6508444  3
    241    240    244    245     1  0.0000000  0.6508444  3
    241    240    244    246     1  0.0000000  0.6508444  3
    241    240    247    248     1  0.0000000  0.6508444  3
    241    240    247    249     1  0.0000000  0.6508444  3
    241    253    265    266     1  0.0000000  0.6508444  3
    241    253    265    267     1  0.0000000  0.6508444  3
    242    241    240    244     1  0.0000000  0.6508444  3
    242    241    240    247     1  0.0000000  0.6508444  3
    242    241    240    269     1  0.0000000  0.6508444  3
    242    241    253    265     1  0.0000000  0.6508444  3
    242    241    253    254     1  0.0000000  0.6508444  3
    242    241    253    255     1  0.0000000  0.6508444  3
    243    241    240    244     1  0.0000000  0.6508444  3
    243    241    240    247     1  0.0000000  0.6508444  3
    243    241    240    269     1  0.0000000  0.6508444  3
    243    241    253    265     1  0.0000000  0.6508444  3
    243    241    253    254     1  0.0000000  0.6508444  3
    243    241    253    255     1  0.0000000  0.6508444  3
    244    240    247    248     1  0.0000000  0.6508444  3
    244    240    247    249     1  0.0000000  0.6508444  3
    244    256    262    263     1  0.0000000  0.6508444  3
    244    256    262    264     1  0.0000000  0.6508444  3
    245    244    240    247     1  0.0000000  0.6508444  3
    245    244    240    269     1  0.0000000  0.6508444  3
    245    244    256    262     1  0.0000000  0.6508444  3
    245    244    256    257     1  0.0000000  0.6508444  3
    245    244    256    258     1  0.0000000  0.6508444  3
    246    244    240    247     1  0.0000000  0.6508444  3
    246    244    240    269     1  0.0000000  0.6508444  3
    246    244    256    262     1  0.0000000  0.6508444  3
    246    244    256    257     1  0.0000000  0.6508444  3
    246    244    256    258     1  0.0000000  0.6508444  3
    247    250    259    260     1  0.0000000  0.6508444  3
    247    250    259    261     1  0.0000000  0.6508444  3
    248    247    240    269     1  0.0000000  0.6508444  3
    248    247    250    259     1  0.0000000  0.6508444  3
    248    247    250    251     1  0.0000000  0.6508444  3
    248    247    250    252     1  0.0000000  0.6508444  3
    249    247    240    269     1  0.0000000  0.6508444  3
    249    247    250    259     1  0.0000000  0.6508444  3
    249    247    250    251     1  0.0000000  0.6508444  3
    249    247    250    252     1  0.0000000  0.6508444  3
    250    247    240    269     1  0.0000000  0.6508444  3
    251    250    259    268     1  0.0000000  1.0460000  1
    251    250    259    268     1  0.0000000  0.0000000  3
    251    250    259    260     1  0.0000000  0.6508444  3
    251    250    259    261     1  0.0000000  0.6508444  3
    252    250    259    268     1  0.0000000  1.0460000  1
    252    250    259    268     1  0.0000000  0.0000000  3
    252    250    259    260     1  0.0000000  0.6508444  3
    252    250    259    261     1  0.0000000  0.6508444  3
    253    241    240    269     1  0.0000000  0.6508444  3
    254    253    265    598     1  0.0000000  1.0460000  1
    254    253    265    598     1  0.0000000  0.0000000  3
    254    253    265    266     1  0.0000000  0.6508444  3
    254    253    265    267     1  0.0000000  0.6508444  3
    255    253    265    598     1  0.0000000  1.0460000  1
    255    253    265    598     1  0.0000000  0.0000000  3
    255    253    265    266     1  0.0000000  0.6508444  3
    255    253    265    267     1  0.0000000  0.6508444  3
    256    244    240    269     1  0.0000000  0.6508444  3
    257    256    262    568     1  0.0000000  1.0460000  1
    257    256    262    568     1  0.0000000  0.0000000  3
    257    256    262    263     1  0.0000000  0.6508444  3
    257    256    262    264     1  0.0000000  0.6508444  3
    258    256    262    568     1  0.0000000  1.0460000  1
    258    256    262    568     1  0.0000000  0.0000000  3
    258    256    262    263     1  0.0000000  0.6508444  3
    258    256    262    264     1  0.0000000  0.6508444  3
    262    568    559    560     1  0.0000000  1.6038667  3
    262    568    559    561     1  0.0000000  1.6038667  3
    263    262    568    559     1  0.0000000  1.6038667  3
    264    262    568    559     1  0.0000000  1.6038667  3
    265    598    589    590     1  0.0000000  1.6038667  3
    265    598    589    591     1  0.0000000  1.6038667  3
    266    265    598    589     1  0.0000000  1.6038667  3
    267    265    598    589     1  0.0000000  1.6038667  3
    270    271    283    284     1  0.0000000  0.6508444  3
    270    271    283    285     1  0.0000000  0.6508444  3
    270    274    286    287     1  0.0000000  0.6508444  3
    270    274    286    288     1  0.0000000  0.6508444  3
    270    277    280    281     1  0.0000000  0.6508444  3
    270    277    280    282     1  0.0000000  0.6508444  3
    271    270    274    275     1  0.0000000  0.6508444  3
    271    270    274    276     1  0.0000000  0.6508444  3
    271    270    277    278     1  0.0000000  0.6508444  3
    271    270    277    279     1  0.0000000  0.6508444  3
    271    283    295    296     1  0.0000000  0.6508444  3
    271    283    295    297     1  0.0000000  0.6508444  3
    272    271    270    274     1  0.0000000  0.6508444  3
    272    271    270    277     1  0.0000000  0.6508444  3
    272    271    270    299     1  0.0000000  0.6508444  3
    272    271    283    295     1  0.0000000  0.6508444  3
    272    271    283    284     1  0.0000000  0.6508444  3
    272    271    283    285     1  0.0000000  0.6508444  3
    273    271    270    274     1  0.0000000  0.6508444  3
    273    271    270    277     1  0.0000000  0.6508444  3
    273    271    270    299     1  0.0000000  0.6508444  3
    273    271    283    295     1  0.0000000  0.6508444  3
    273    271    283    284     1  0.0000000  0.6508444  3
    273    271    283    285     1  0.0000000  0.6508444  3
    274    270    277    278     1  0.0000000  0.6508444  3
    274    270    277    279     1  0.0000000  0.6508444  3
    274    286    292    293     1  0.0000000  0.6508444  3
    274    286    292    294     1  0.0000000  0.6508444  3
    275    274    270    277     1  0.0000000  0.6508444  3
    275    274    270    299     1  0.0000000  0.6508444  3
    275    274    286    292     1  0.0000000  0.6508444  3
    275    274    286    287     1  0.0000000  0.6508444  3
    275    274    286    288     1  0.0000000  0.6508444  3
    276    274    270    277     1  0.0000000  0.6508444  3
    276    274    270    299     1  0.0000000  0.6508444  3
    276    274    286    292     1  0.0000000  0.6508444  3
    276    274    286    287     1  0.0000000  0.6508444  3
    276    274    286    288     1  0.0000000  0.6508444  3
    277    280    289    290     1  0.0000000  0.6508444  3
    277    280    289    291     1  0.0000000  0.6508444  3
    278    277    270    299     1  0.0000000  0.6508444  3
    278    277    280    289     1  0.0000000  0.6508444  3
    278    277    280    281     1  0.0000000  0.6508444  3
    278    277    280    282     1  0.0000000  0.6508444  3
    279    277    270    299     1  0.0000000  0.6508444  3
    279    277    280    289     1  0.0000000  0.6508444  3
    279    277    280    281     1  0.0000000  0.6508444  3
    279    277    280    282     1  0.0000000  0.6508444  3
    280    277    270    299     1  0.0000000  0.6508444  3
    281    280    289    298     1  0.0000000  1.0460000  1
    281    280    289    298     1  0.0000000  0.0000000  3
    281    280    289    290     1  0.0000000  0.6508444  3
    281    280    289    291     1  0.0000000  0.6508444  3
    282    280    289    298     1  0.0000000  1.0460000  1
    282    280    289    298     1  0.0000000  0.0000000  3
    282    280    289    290     1  0.0000000  0.6508444  3
    282    280    289    291     1  0.0000000  0.6508444  3
    283    271    270    299     1  0.0000000  0.6508444  3
    284    283    295    658     1  0.0000000  1.0460000  1
    284    283    295    658     1  0.0000000  0.0000000  3
    284    283    295    296     1  0.0000000  0.6508444  3
    284    283    295    297     1  0.0000000  0.6508444  3
    285    283    295    658     1  0.0000000  1.0460000  1
    285    283    295    658     1  0.0000000  0.0000000  3
    285    283    295    296     1  0.0000000  0.6508444  3
    285    283    295    297     1  0.0000000  0.6508444  3
    286    274    270    299     1  0.0000000  0.6508444  3
    287    286    292    628     1  0.0000000  1.0460000  1
    287    286    292    628     1  0.0000000  0.0000000  3
    287    286    292    293     1  0.0000000  0.6508444  3
    287    286    292    294     1  0.0000000  0.6508444  3
    288    286    292    628     1  0.0000000  1.0460000  1
    288    286    292    628     1  0.0000000  0.0000000  3
    288    286    292    293     1  0.0000000  0.6508444  3
    288    286    292    294     1  0.0000000  0.6508444  3
    292    628    619    620     1  0.0000000  1.6038667  3
    292    628    619    621     1  0.0000000  1.6038667  3
    293    292    628    619     1  0.0000000  1.6038667  3
    294    292    628    619     1  0.0000000  1.6038667  3
    295    658    649    650     1  0.0000000  1.6038667  3
    295    658    649    651     1  0.0000000  1.6038667  3
    296    295    658    649     1  0.0000000  1.6038667  3
    297    295    658    649     1  0.0000000  1.6038667  3
    300    301    313    314     1  0.0000000  0.6508444  3
    300    301    313    315     1  0.0000000  0.6508444  3
    300    304    316    317     1  0.0000000  0.6508444  3
    300    304    316    318     1  0.0000000  0.6508444  3
    300    307    310    311     1  0.0000000  0.6508444  3
    300    307    310    312     1  0.0000000  0.6508444  3
    301    300    304    305     1  0.0000000  0.6508444  3
    301    300    304    306     1  0.0000000  0.6508444  3
    301    300    307    308     1  0.0000000  0.6508444  3
    301    300    307    309     1  0.0000000  0.6508444  3
    301    313    325    326     1  0.0000000  0.6508444  3
    301    313    325    327     1  0.0000000  0.6508444  3
    302    301    300    304     1  0.0000000  0.6508444  3
    302    301    300    307     1  0.0000000  0.6508444  3
    302    301    300    329     1  0.0000000  0.6508444  3
    302    301    313    325     1  0.0000000  0.6508444  3
    302    301    313    314     1  0.0000000  0.6508444  3
    302    301    313    315     1  0.0000000  0.6508444  3
    303    301    300    304     1  0.0000000  0.6508444  3
    303    301    300    307     1  0.0000000  0.6508444  3
    303    301    300    329     1  0.0000000  0.6508444  3
    303    301    313    325     1  0.0000000  0.6508444  3
    303    301    313    314     1  0.0000000  0.6508444  3
    303    301    313    315     1  0.0000000  0.6508444  3
    304    300    307    308     1  0.0000000  0.6508444  3
    304    300    307    309     1  0.0000000  0.6508444  3
    304    316    322    323     1  0.0000000  0.6508444  3
    304    316    322    324     1  0.0000000  0.6508444  3
    305    304    300    307     1  0.0000000  0.6508444  3
    305    304    300    329     1  0.0000000  0.6508444  3
    305    304    316    322     1  0.0000000  0.6508444  3
    305    304    316    317     1  0.0000000  0.6508444  3
    305    304    316    318     1  0.0000000  0.6508444  3
    306    304    300    307     1  0.0000000  0.6508444  3
    306    304    300    329     1  0.0000000  0.6508444  3
    306    304    316    322     1  0.0000000  0.6508444  3
    306    304    316    317     1  0.0000000  0.6508444  3
    306    304    316    318     1  0.0000000  0.6508444  3
    307    310    319    320     1  0.0000000  0.6508444  3
    307    310    319    321     1  0.0000000  0.6508444  3
    308    307    300    329     1  0.0000000  0.6508444  3
    308    307    310    319     1  0.0000000  0.6508444  3
    308    307    310    311     1  0.0000000  0.6508444  3
    308    307    310    312     1  0.0000000  0.6508444  3
    309    307    300    329     1  0.0000000  0.6508444  3
    309    307    310    319     1  0.0000000  0.6508444  3
    309    307    310    311     1  0.0000000  0.6508444  3
    309    307    310    312     1  0.0000000  0.6508444  3
    310    307    300    329     1  0.0000000  0.6508444  3
    311    310    319    328     1  0.0000000  1.0460000  1
    311    310    319    328     1  0.0000000  0.0000000  3
    311    310    319    320     1  0.0000000  0.6508444  3
    311    310    319    321     1  0.0000000  0.6508444  3
    312    310    319    328     1  0.0000000  1.0460000  1
    312    310    319    328     1  0.0000000  0.0000000  3
    312    310    319    320     1  0.0000000  0.6508444  3
    312    310    319    321     1  0.0000000  0.6508444  3
    313    301    300    329     1  0.0000000  0.6508444  3
    314    313    325    686     1  0.0000000  1.0460000  1
    314    313    325    686     1  0.0000000  0.0000000  3
    314    313    325    326     1  0.0000000  0.6508444  3
    314    313    325    327     1  0.0000000  0.6508444  3
    315    313    325    686     1  0.0000000  1.0460000  1
    315    313    325    686     1  0.0000000  0.0000000  3
    315    313    325    326     1  0.0000000  0.6508444  3
    315    313    325    327     1  0.0000000  0.6508444  3
    316    304    300    329     1  0.0000000  0.6508444  3
    317    316    322    672     1  0.0000000  1.0460000  1
    317    316    322    672     1  0.0000000  0.0000000  3
    317    316    322    323     1  0.0000000  0.6508444  3
    317    316    322    324     1  0.0000000  0.6508444  3
    318    316    322    672     1  0.0000000  1.0460000  1
    318    316    322    672     1  0.0000000  0.0000000  3
    318    316    322    323     1  0.0000000  0.6508444  3
    318    316    322    324     1  0.0000000  0.6508444  3
    322    672    666    667     1  0.0000000  1.6038667  3
    322    672    666    668     1  0.0000000  1.6038667  3
    323    322    672    666     1  0.0000000  1.6038667  3
    324    322    672    666     1  0.0000000  1.6038667  3
    325    686    680    681     1  0.0000000  1.6038667  3
    325    686    680    682     1  0.0000000  1.6038667  3
    326    325    686    680     1  0.0000000  1.6038667  3
    327    325    686    680     1  0.0000000  1.6038667  3
    330    331    343    344     1  0.0000000  0.6508444  3
    330    331    343    345     1  0.0000000  0.6508444  3
    330    334    346    347     1  0.0000000  0.6508444  3
    330    334    346    348     1  0.0000000  0.6508444  3
    330    337    340    341     1  0.0000000  0.6508444  3
    330    337    340    342     1  0.0000000  0.6508444  3
    331    330    334    335     1  0.0000000  0.6508444  3
    331    330    334    336     1  0.0000000  0.6508444  3
    331    330    337    338     1  0.0000000  0.6508444  3
    331    330    337    339     1  0.0000000  0.6508444  3
    331    343    355    356     1  0.0000000  0.6508444  3
    331    343    355    357     1  0.0000000  0.6508444  3
    332    331    330    334     1  0.0000000  0.6508444  3
    332    331    330    337     1  0.0000000  0.6508444  3
    332    331    330    359     1  0.0000000  0.6508444  3
    332    331    343    355     1  0.0000000  0.6508444  3
    332    331    343    344     1  0.0000000  0.6508444  3
    332    331    343    345     1  0.0000000  0.6508444  3
    333    331    330    334     1  0.0000000  0.6508444  3
    333    331    330    337     1  0.0000000  0.6508444  3
    333    331    330    359     1  0.0000000  0.6508444  3
    333    331    343    355     1  0.0000000  0.6508444  3
    333    331    343    344     1  0.0000000  0.6508444  3
    333    331    343    345     1  0.0000000  0.6508444  3
    334    330    337    338     1  0.0000000  0.6508444  3
    334    330    337    339     1  0.0000000  0.6508444  3
    334    346    352    353     1  0.0000000  0.6508444  3
    334    346    352    354     1  0.0000000  0.6508444  3
    335    334    330    337     1  0.0000000  0.6508444  3
    335    334    330    359     1  0.0000000  0.6508444  3
    335    334    346    352     1  0.0000000  0.6508444  3
    335    334    346    347     1  0.0000000  0.6508444  3
    335    334    346    348     1  0.0000000  0.6508444  3
    336    334    330    337     1  0.0000000  0.6508444  3
    336    334    330    359     1  0.0000000  0.6508444  3
    336    334    346    352     1  0.0000000  0.6508444  3
    336    334    346    347     1  0.0000000  0.6508444  3
    336    334    346    348     1  0.0000000  0.6508444  3
    337    340    349    350     1  0.0000000  0.6508444  3
    337    340    349    351     1  0.0000000  0.6508444  3
    338    337    330    359     1  0.0000000  0.6508444  3
    338    337    340    349     1  0.0000000  0.6508444  3
    338    337    340    341     1  0.0000000  0.6508444  3
    338    337    340    342     1  0.0000000  0.6508444  3
    339    337    330    359     1  0.0000000  0.6508444  3
    339    337    340    349     1  0.0000000  0.6508444  3
    339    337    340    341     1  0.0000000  0.6508444  3
    339    337    340    342     1  0.0000000  0.6508444  3
    340    337    330    359     1  0.0000000  0.6508444  3
    341    340    349    358     1  0.0000000  1.0460000  1
    341    340    349    358     1  0.0000000  0.0000000  3
    341    340    349    350     1  0.0000000  0.6508444  3
    341    340    349    351     1  0.0000000  0.6508444  3
    342    340    349    358     1  0.0000000  1.0460000  1
    342    340    349    358     1  0.0000000  0.0000000  3
    342    340    349    350     1  0.0000000  0.6508444  3
    342    340    349    351     1  0.0000000  0.6508444  3
    343    331    330    359     1  0.0000000  0.6508444  3
    344    343    355    714     1  0.0000000  1.0460000  1
    344    343    355    714     1  0.0000000  0.0000000  3
    344    343    355    356     1  0.0000000  0.6508444  3
    344    343    355    357     1  0.0000000  0.6508444  3
    345    343    355    714     1  0.0000000  1.0460000  1
    345    343    355    714     1  0.0000000  0.0000000  3
    345    343    355    356     1  0.0000000  0.6508444  3
    345    343    355    357     1  0.0000000  0.6508444  3
    346    334    330    359     1  0.0000000  0.6508444  3
    347    346    352    700     1  0.0000000  1.0460000  1
    347    346    352    700     1  0.0000000  0.0000000  3
    347    346    352    353     1  0.0000000  0.6508444  3
    347    346    352    354     1  0.0000000  0.6508444  3
    348    346    352    700     1  0.0000000  1.0460000  1
    348    346    352    700     1  0.0000000  0.0000000  3
    348    346    352    353     1  0.0000000  0.6508444  3
    348    346    352    354     1  0.0000000  0.6508444  3
    352    700    694    695     1  0.0000000  1.6038667  3
    352    700    694    696     1  0.0000000  1.6038667  3
    353    352    700    694     1  0.0000000  1.6038667  3
    354    352    700    694     1  0.0000000  1.6038667  3
    355    714    708    709     1  0.0000000  1.6038667  3
    355    714    708    710     1  0.0000000  1.6038667  3
    356    355    714    708     1  0.0000000  1.6038667  3
    357    355    714    708     1  0.0000000  1.6038667  3
    360    361    373    374     1  0.0000000  0.6508444  3
    360    361    373    375     1  0.0000000  0.6508444  3
    360    364    376    377     1  0.0000000  0.6508444  3
    360    364    376    378     1  0.0000000  0.6508444  3
    360    367    370    371     1  0.0000000  0.6508444  3
    360    367    370    372     1  0.0000000  0.6508444  3
    361    360    364    365     1  0.0000000  0.6508444  3
    361    360    364    366     1  0.0000000  0.6508444  3
    361    360    367    368     1  0.0000000  0.6508444  3
    361    360    367    369     1  0.0000000  0.6508444  3
    361    373    385    386     1  0.0000000  0.6508444  3
    361    373    385    387     1  0.0000000  0.6508444  3
    362    361    360    364     1  0.0000000  0.6508444  3
    362    361    360    367     1  0.0000000  0.6508444  3
    362    361    360    389     1  0.0000000  0.6508444  3
    362    361    373    385     1  0.0000000  0.6508444  3
    362    361    373    374     1  0.0000000  0.6508444  3
    362    361    373    375     1  0.0000000  0.6508444  3
    363    361    360    364     1  0.0000000  0.6508444  3
    363    361    360    367     1  0.0000000  0.6508444  3
    363    361    360    389     1  0.0000000  0.6508444  3
    363    361    373    385     1  0.0000000  0.6508444  3
    363    361    373    374     1  0.0000000  0.6508444  3
    363    361    373    375     1  0.0000000  0.6508444  3
    364    360    367    368     1  0.0000000  0.6508444  3
    364    360    367    369     1  0.0000000  0.6508444  3
    364    376    382    383     1  0.0000000  0.6508444  3
    364    376    382    384     1  0.0000000  0.6508444  3
    365    364    360    367     1  0.0000000  0.6508444  3
    365    364    360    389     1  0.0000000  0.6508444  3
    365    364    376    382     1  0.0000000  0.6508444  3
    365    364    376    377     1  0.0000000  0.6508444  3
    365    364    376    378     1  0.0000000  0.6508444  3
    366    364    360    367     1  0.0000000  0.6508444  3
    366    364    360    389     1  0.0000000  0.6508444  3
    366    364    376    382     1  0.0000000  0.6508444  3
    366    364    376    377     1  0.0000000  0.6508444  3
    366    364    376    378     1  0.0000000  0.6508444  3
    367    370    379    380     1  0.0000000  0.6508444  3
    367    370    379    381     1  0.0000000  0.6508444  3
    368    367    360    389     1  0.0000000  0.6508444  3
    368    367    370    379     1  0.0000000  0.6508444  3
    368    367    370    371     1  0.0000000  0.6508444  3
    368    367    370    372     1  0.0000000  0.6508444  3
    369    367    360    389     1  0.0000000  0.6508444  3
    369    367    370    379     1  0.0000000  0.6508444  3
    369    367    370    371     1  0.0000000  0.6508444  3
    369    367    370    372     1  0.0000000  0.6508444  3
    370    367    360    389     1  0.0000000  0.6508444  3
    371    370    379    388     1  0.0000000  1.0460000  1
    371    370    379    388     1  0.0000000  0.0000000  3
    371    370    379    380     1  0.0000000  0.6508444  3
    371    370    379    381     1  0.0000000  0.6508444  3
    372    370    379    388     1  0.0000000  1.0460000  1
    372    370    379    388     1  0.0000000  0.0000000  3
    372    370    379    380     1  0.0000000  0.6508444  3
    372    370    379    381     1  0.0000000  0.6508444  3
    373    361    360    389     1  0.0000000  0.6508444  3
    374    373    385    742     1  0.0000000  1.0460000  1
    374    373    385    742     1  0.0000000  0.0000000  3
    374    373    385    386     1  0.0000000  0.6508444  3
    374    373    385    387     1  0.0000000  0.6508444  3
    375    373    385    742     1  0.0000000  1.0460000  1
    375    373    385    742     1  0.0000000  0.0000000  3
    375    373    385    386     1  0.0000000  0.6508444  3
    375    373    385    387     1  0.0000000  0.6508444  3
    376    364    360    389     1  0.0000000  0.6508444  3
    377    376    382    728     1  0.0000000  1.0460000  1
    377    376    382    728     1  0.0000000  0.0000000  3
    377    376    382    383     1  0.0000000  0.6508444  3
    377    376    382    384     1  0.0000000  0.6508444  3
    378    376    382    728     1  0.0000000  1.0460000  1
    378    376    382    728     1  0.0000000  0.0000000  3
    378    376    382    383     1  0.0000000  0.6508444  3
    378    376    382    384     1  0.0000000  0.6508444  3
    382    728    722    723     1  0.0000000  1.6038667  3
    382    728    722    724     1  0.0000000  1.6038667  3
    383    382    728    722     1  0.0000000  1.6038667  3
    384    382    728    722     1  0.0000000  1.6038667  3
    385    742    736    737     1  0.0000000  1.6038667  3
    385    742    736    738     1  0.0000000  1.6038667  3
    386    385    742    736     1  0.0000000  1.6038667  3
    387    385    742    736     1  0.0000000  1.6038667  3
    390    391    403    404     1  0.0000000  0.6508444  3
    390    391    403    405     1  0.0000000  0.6508444  3
    390    394    406    407     1  0.0000000  0.6508444  3
    390    394    406    408     1  0.0000000  0.6508444  3
    390    397    400    401     1  0.0000000  0.6508444  3
    390    397    400    402     1  0.0000000  0.6508444  3
    391    390    394    395     1  0.0000000  0.6508444  3
    391    390    394    396     1  0.0000000  0.6508444  3
    391    390    397    398     1  0.0000000  0.6508444  3
    391    390    397    399     1  0.0000000  0.6508444  3
    391    403    415    416     1  0.0000000  0.6508444  3
    391    403    415    417     1  0.0000000  0.6508444  3
    392    391    390    394     1  0.0000000  0.6508444  3
    392    391    390    397     1  0.0000000  0.6508444  3
    392    391    390    419     1  0.0000000  0.6508444  3
    392    391    403    415     1  0.0000000  0.6508444  3
    392    391    403    404     1  0.0000000  0.6508444  3
    392    391    403    405     1  0.0000000  0.6508444  3
    393    391    390    394     1  0.0000000  0.6508444  3
    393    391    390    397     1  0.0000000  0.6508444  3
    393    391    390    419     1  0.0000000  0.6508444  3
    393    391    403    415     1  0.0000000  0.6508444  3
    393    391    403    404     1  0.0000000  0.6508444  3
    393    391    403    405     1  0.0000000  0.6508444  3
    394    390    397    398     1  0.0000000  0.6508444  3
    394    390    397    399     1  0.0000000  0.6508444  3
    394    406    412    413     1  0.0000000  0.6508444  3
    394    406    412    414     1  0.0000000  0.6508444  3
    395    394    390    397     1  0.0000000  0.6508444  3
    395    394    390    419     1  0.0000000  0.6508444  3
    395    394    406    412     1  0.0000000  0.6508444  3
    395    394    406    407     1  0.0000000  0.6508444  3
    395    394    406    408     1  0.0000000  0.6508444  3
    396    394    390    397     1  0.0000000  0.6508444  3
    396    394    390    419     1  0.0000000  0.6508444  3
    396    394    406    412     1  0.0000000  0.6508444  3
    396    394    406    407     1  0.0000000  0.6508444  3
    396    394    406    408     1  0.0000000  0.6508444  3
    397    400    409    410     1  0.0000000  0.6508444  3
    397    400    409    411     1  0.0000000  0.6508444  3
    398    397    390    419     1  0.0000000  0.6508444  3
    398    397    400    409     1  0.0000000  0.6508444  3
    398    397    400    401     1  0.0000000  0.6508444  3
    398    397    400    402     1  0.0000000  0.6508444  3
    399    397    390    419     1  0.0000000  0.6508444  3
    399    397    400    409     1  0.0000000  0.6508444  3
    399    397    400    401     1  0.0000000  0.6508444  3
    399    397    400    402     1  0.0000000  0.6508444  3
    400    397    390    419     1  0.0000000  0.6508444  3
    401    400    409    418     1  0.0000000  1.0460000  1
    401    400    409    418     1  0.0000000  0.0000000  3
    401    400    409    410     1  0.0000000  0.6508444  3
    401    400    409    411     1  0.0000000  0.6508444  3
    402    400    409    418     1  0.0000000  1.0460000  1
    402    400    409    418     1  0.0000000  0.0000000  3
    402    400    409    410     1  0.0000000  0.6508444  3
    402    400    409    411     1  0.0000000  0.6508444  3
    403    391    390    419     1  0.0000000  0.6508444  3
    404    403    415    770     1  0.0000000  1.0460000  1
    404    403    415    770     1  0.0000000  0.0000000  3
    404    403    415    416     1  0.0000000  0.6508444  3
    404    403    415    417     1  0.0000000  0.6508444  3
    405    403    415    770     1  0.0000000  1.0460000  1
    405    403    415    770     1  0.0000000  0.0000000  3
    405    403    415    416     1  0.0000000  0.6508444  3
    405    403    415    417     1  0.0000000  0.6508444  3
    406    394    390    419     1  0.0000000  0.6508444  3
    407    406    412    756     1  0.0000000  1.0460000  1
    407    406    412    756     1  0.0000000  0.0000000  3
    407    406    412    413     1  0.0000000  0.6508444  3
    407    406    412    414     1  0.0000000  0.6508444  3
    408    406    412    756     1  0.0000000  1.0460000  1
    408    406    412    756     1  0.0000000  0.0000000  3
    408    406    412    413     1  0.0000000  0.6508444  3
    408    406    412    414     1  0.0000000  0.6508444  3
    412    756    750    751     1  0.0000000  1.6038667  3
    412    756    750    752     1  0.0000000  1.6038667  3
    413    412    756    750     1  0.0000000  1.6038667  3
    414    412    756    750     1  0.0000000  1.6038667  3
    415    770    764    765     1  0.0000000  1.6038667  3
    415    770    764    766     1  0.0000000  1.6038667  3
    416    415    770    764     1  0.0000000  1.6038667  3
    417    415    770    764     1  0.0000000  1.6038667  3
    420    421    433    434     1  0.0000000  0.6508444  3
    420    421    433    435     1  0.0000000  0.6508444  3
    420    424    436    437     1  0.0000000  0.6508444  3
    420    424    436    438     1  0.0000000  0.6508444  3
    420    427    430    431     1  0.0000000  0.6508444  3
    420    427    430    432     1  0.0000000  0.6508444  3
    421    420    424    425     1  0.0000000  0.6508444  3
    421    420    424    426     1  0.0000000  0.6508444  3
    421    420    427    428     1  0.0000000  0.6508444  3
    421    420    427    429     1  0.0000000  0.6508444  3
    421    433    445    446     1  0.0000000  0.6508444  3
    421    433    445    447     1  0.0000000  0.6508444  3
    422    421    420    424     1  0.0000000  0.6508444  3
    422    421    420    427     1  0.0000000  0.6508444  3
    422    421    420    449     1  0.0000000  0.6508444  3
    422    421    433    445     1  0.0000000  0.6508444  3
    422    421    433    434     1  0.0000000  0.6508444  3
    422    421    433    435     1  0.0000000  0.6508444  3
    423    421    420    424     1  0.0000000  0.6508444  3
    423    421    420    427     1  0.0000000  0.6508444  3
    423    421    420    449     1  0.0000000  0.6508444  3
    423    421    433    445     1  0.0000000  0.6508444  3
    423    421    433    434     1  0.0000000  0.6508444  3
    423    421    433    435     1  0.0000000  0.6508444  3
    424    420    427    428     1  0.0000000  0.6508444  3
    424    420    427    429     1  0.0000000  0.6508444  3
    424    436    442    443     1  0.0000000  0.6508444  3
    424    436    442    444     1  0.0000000  0.6508444  3
    425    424    420    427     1  0.0000000  0.6508444  3
    425    424    420    449     1  0.0000000  0.6508444  3
    425    424    436    442     1  0.0000000  0.6508444  3
    425    424    436    437     1  0.0000000  0.6508444  3
    425    424    436    438     1  0.0000000  0.6508444  3
    426    424    420    427     1  0.0000000  0.6508444  3
    426    424    420    449     1  0.0000000  0.6508444  3
    426    424    436    442     1  0.0000000  0.6508444  3
    426    424    436    437     1  0.0000000  0.6508444  3
    426    424    436    438     1  0.0000000  0.6508444  3
    427    430    439    440     1  0.0000000  0.6508444  3
    427    430    439    441     1  0.0000000  0.6508444  3
    428    427    420    449     1  0.0000000  0.6508444  3
    428    427    430    439     1  0.0000000  0.6508444  3
    428    427    430    431     1  0.0000000  0.6508444  3
    428    427    430    432     1  0.0000000  0.6508444  3
    429    427    420    449     1  0.0000000  0.6508444  3
    429    427    430    439     1  0.0000000  0.6508444  3
    429    427    430    431     1  0.0000000  0.6508444  3
    429    427    430    432     1  0.0000000  0.6508444  3
    430    427    420    449     1  0.0000000  0.6508444  3
    431    430    439    448     1  0.0000000  1.0460000  1
    431    430    439    448     1  0.0000000  0.0000000  3
    431    430    439    440     1  0.0000000  0.6508444  3
    431    430    439    441     1  0.0000000  0.6508444  3
    432    430    439    448     1  0.0000000  1.0460000  1
    432    430    439    448     1  0.0000000  0.0000000  3
    432    430    439    440     1  0.0000000  0.6508444  3
    432    430    439    441     1  0.0000000  0.6508444  3
    433    421    420    449     1  0.0000000  0.6508444  3
    434    433    445    798     1  0.0000000  1.0460000  1
    434    433    445    798     1  0.0000000  0.0000000  3
    434    433    445    446     1  0.0000000  0.6508444  3
    434    433    445    447     1  0.0000000  0.6508444  3
    435    433    445    798     1  0.0000000  1.0460000  1
    435    433    445    798     1  0.0000000  0.0000000  3
    435    433    445    446     1  0.0000000  0.6508444  3
    435    433    445    447     1  0.0000000  0.6508444  3
    436    424    420    449     1  0.0000000  0.6508444  3
    437    436    442    784     1  0.0000000  1.0460000  1
    437    436    442    784     1  0.0000000  0.0000000  3
    437    436    442    443     1  0.0000000  0.6508444  3
    437    436    442    444     1  0.0000000  0.6508444  3
    438    436    442    784     1  0.0000000  1.0460000  1
    438    436    442    784     1  0.0000000  0.0000000  3
    438    436    442    443     1  0.0000000  0.6508444  3
    438    436    442    444     1  0.0000000  0.6508444  3
    442    784    778    779     1  0.0000000  1.6038667  3
    442    784    778    780     1  0.0000000  1.6038667  3
    443    442    784    778     1  0.0000000  1.6038667  3
    444    442    784    778     1  0.0000000  1.6038667  3
    445    798    792    793     1  0.0000000  1.6038667  3
    445    798    792    794     1  0.0000000  1.6038667  3
    446    445    798    792     1  0.0000000  1.6038667  3
    447    445    798    792     1  0.0000000  1.6038667  3
    450    451    463    464     1  0.0000000  0.6508444  3
    450    451    463    465     1  0.0000000  0.6508444  3
    450    454    466    467     1  0.0000000  0.6508444  3
    450    454    466    468     1  0.0000000  0.6508444  3
    450    457    460    461     1  0.0000000  0.6508444  3
    450    457    460    462     1  0.0000000  0.6508444  3
    451    450    454    455     1  0.0000000  0.6508444  3
    451    450    454    456     1  0.0000000  0.6508444  3
    451    450    457    458     1  0.0000000  0.6508444  3
    451    450    457    459     1  0.0000000  0.6508444  3
    451    463    475    476     1  0.0000000  0.6508444  3
    451    463    475    477     1  0.0000000  0.6508444  3
    452    451    450    454     1  0.0000000  0.6508444  3
    452    451    450    457     1  0.0000000  0.6508444  3
    452    451    450    479     1  0.0000000  0.6508444  3
    452    451    463    475     1  0.0000000  0.6508444  3
    452    451    463    464     1  0.0000000  0.6508444  3
    452    451    463    465     1  0.0000000  0.6508444  3
    453    451    450    454     1  0.0000000  0.6508444  3
    453    451    450    457     1  0.0000000  0.6508444  3
    453    451    450    479     1  0.0000000  0.6508444  3
    453    451    463    475     1  0.0000000  0.6508444  3
    453    451    463    464     1  0.0000000  0.6508444  3
    453    451    463    465     1  0.0000000  0.6508444  3
    454    450    457    458     1  0.0000000  0.6508444  3
    454    450    457    459     1  0.0000000  0.6508444  3
    454    466    472    473     1  0.0000000  0.6508444  3
    454    466    472    474     1  0.0000000  0.6508444  3
    455    454    450    457     1  0.0000000  0.6508444  3
    455    454    450    479     1  0.0000000  0.6508444  3
    455    454    466    472     1  0.0000000  0.6508444  3
    455    454    466    467     1  0.0000000  0.6508444  3
    455    454    466    468     1  0.0000000  0.6508444  3
    456    454    450    457     1  0.0000000  0.6508444  3
    456    454    450    479     1  0.0000000  0.6508444  3
    456    454    466    472     1  0.0000000  0.6508444  3
    456    454    466    467     1  0.0000000  0.6508444  3
    456    454    466    468     1  0.0000000  0.6508444  3
    457    460    469    470     1  0.0000000  0.6508444  3
    457    460    469    471     1  0.0000000  0.6508444  3
    458    457    450    479     1  0.0000000  0.6508444  3
    458    457    460    469     1  0.0000000  0.6508444  3
    458    457    460    461     1  0.0000000  0.6508444  3
    458    457    460    462     1  0.0000000  0.6508444  3
    459    457    450    479     1  0.0000000  0.6508444  3
    459    457    460    469     1  0.0000000  0.6508444  3
    459    457    460    461     1  0.0000000  0.6508444  3
    459    457    460    462     1  0.0000000  0.6508444  3
    460    457    450    479     1  0.0000000  0.6508444  3
    461    460    469    478     1  0.0000000  1.0460000  1
    461    460    469    478     1  0.0000000  0.0000000  3
    461    460    469    470     1  0.0000000  0.6508444  3
    461    460    469    471     1  0.0000000  0.6508444  3
    462    460    469    478     1  0.0000000  1.0460000  1
    462    460    469    478     1  0.0000000  0.0000000  3
    462    460    469    470     1  0.0000000  0.6508444  3
    462    460    469    471     1  0.0000000  0.6508444  3
    463    451    450    479     1  0.0000000  0.6508444  3
    464    463    475    826     1  0.0000000  1.0460000  1
    464    463    475    826     1  0.0000000  0.0000000  3
    464    463    475    476     1  0.0000000  0.6508444  3
    464    463    475    477     1  0.0000000  0.6508444  3
    465    463    475    826     1  0.0000000  1.0460000  1
    465    463    475    826     1  0.0000000  0.0000000  3
    465    463    475    476     1  0.0000000  0.6508444  3
    465    463    475    477     1  0.0000000  0.6508444  3
    466    454    450    479     1  0.0000000  0.6508444  3
    467    466    472    812     1  0.0000000  1.0460000  1
    467    466    472    812     1  0.0000000  0.0000000  3
    467    466    472    473     1  0.0000000  0.6508444  3
    467    466    472    474     1  0.0000000  0.6508444  3
    468    466    472    812     1  0.0000000  1.0460000  1
    468    466    472    812     1  0.0000000  0.0000000  3
    468    466    472    473     1  0.0000000  0.6508444  3
    468    466    472    474     1  0.0000000  0.6508444  3
    472    812    806    807     1  0.0000000  1.6038667  3
    472    812    806    808     1  0.0000000  1.6038667  3
    473    472    812    806     1  0.0000000  1.6038667  3
    474    472    812    806     1  0.0000000  1.6038667  3
    475    826    820    821     1  0.0000000  1.6038667  3
    475    826    820    822     1  0.0000000  1.6038667  3
    476    475    826    820     1  0.0000000  1.6038667  3
    477    475    826    820     1  0.0000000  1.6038667  3
    480    481    493    494     1  0.0000000  0.6508444  3
    480    481    493    495     1  0.0000000  0.6508444  3
    480    484    496    497     1  0.0000000  0.6508444  3
    480    484    496    498     1  0.0000000  0.6508444  3
    480    487    490    491     1  0.0000000  0.6508444  3
    480    487    490    492     1  0.0000000  0.6508444  3
    481    480    484    485     1  0.0000000  0.6508444  3
    481    480    484    486     1  0.0000000  0.6508444  3
    481    480    487    488     1  0.0000000  0.6508444  3
    481    480    487    489     1  0.0000000  0.6508444  3
    481    493    505    506     1  0.0000000  0.6508444  3
    481    493    505    507     1  0.0000000  0.6508444  3
    482    481    480    484     1  0.0000000  0.6508444  3
    482    481    480    487     1  0.0000000  0.6508444  3
    482    481    480    509     1  0.0000000  0.6508444  3
    482    481    493    505     1  0.0000000  0.6508444  3
    482    481    493    494     1  0.0000000  0.6508444  3
    482    481    493    495     1  0.0000000  0.6508444  3
    483    481    480    484     1  0.0000000  0.6508444  3
    483    481    480    487     1  0.0000000  0.6508444  3
    483    481    480    509     1  0.0000000  0.6508444  3
    483    481    493    505     1  0.0000000  0.6508444  3
    483    481    493    494     1  0.0000000  0.6508444  3
    483    481    493    495     1  0.0000000  0.6508444  3
    484    480    487    488     1  0.0000000  0.6508444  3
    484    480    487    489     1  0.0000000  0.6508444  3
    484    496    502    503     1  0.0000000  0.6508444  3
    484    496    502    504     1  0.0000000  0.6508444  3
    485    484    480    487     1  0.0000000  0.6508444  3
    485    484    480    509     1  0.0000000  0.6508444  3
    485    484    496    502     1  0.0000000  0.6508444  3
    485    484    496    497     1  0.0000000  0.6508444  3
    485    484    496    498     1  0.0000000  0.6508444  3
    486    484    480    487     1  0.0000000  0.6508444  3
    486    484    480    509     1  0.0000000  0.6508444  3
    486    484    496    502     1  0.0000000  0.6508444  3
    486    484    496    497     1  0.0000000  0.6508444  3
    486    484    496    498     1  0.0000000  0.6508444  3
    487    490    499    500     1  0.0000000  0.6508444  3
    487    490    499    501     1  0.0000000  0.6508444  3
    488    487    480    509     1  0.0000000  0.6508444  3
    488    487    490    499     1  0.0000000  0.6508444  3
    488    487    490    491     1  0.0000000  0.6508444  3
    488    487    490    492     1  0.0000000  0.6508444  3
    489    487    480    509     1  0.0000000  0.6508444  3
    489    487    490    499     1  0.0000000  0.6508444  3
    489    487    490    491     1  0.0000000  0.6508444  3
    489    487    490    492     1  0.0000000  0.6508444  3
    490    487    480    509     1  0.0000000  0.6508444  3
    491    490    499    508     1  0.0000000  1.0460000  1
    491    490    499    508     1  0.0000000  0.0000000  3
    491    490    499    500     1  0.0000000  0.6508444  3
    491    490    499    501     1  0.0000000  0.6508444  3
    492    490    499    508     1  0.0000000  1.0460000  1
    492    490    499    508     1  0.0000000  0.0000000  3
    492    490    499    500     1  0.0000000  0.6508444  3
    492    490    499    501     1  0.0000000  0.6508444  3
    493    481    480    509     1  0.0000000  0.6508444  3
    494    493    505    854     1  0.0000000  1.0460000  1
    494    493    505    854     1  0.0000000  0.0000000  3
    494    493    505    506     1  0.0000000  0.6508444  3
    494    493    505    507     1  0.0000000  0.6508444  3
    495    493    505    854     1  0.0000000  1.0460000  1
    495    493    505    854     1  0.0000000  0.0000000  3
    495    493    505    506     1  0.0000000  0.6508444  3
    495    493    505    507     1  0.0000000  0.6508444  3
    496    484    480    509     1  0.0000000  0.6508444  3
    497    496    502    840     1  0.0000000  1.0460000  1
    497    496    502    840     1  0.0000000  0.0000000  3
    497    496    502    503     1  0.0000000  0.6508444  3
    497    496    502    504     1  0.0000000  0.6508444  3
    498    496    502    840     1  0.0000000  1.0460000  1
    498    496    502    840     1  0.0000000  0.0000000  3
    498    496    502    503     1  0.0000000  0.6508444  3
    498    496    502    504     1  0.0000000  0.6508444  3
    502    840    834    835     1  0.0000000  1.6038667  3
    502    840    834    836     1  0.0000000  1.6038667  3
    503    502    840    834     1  0.0000000  1.6038667  3
    504    502    840    834     1  0.0000000  1.6038667  3
    505    854    848    849     1  0.0000000  1.6038667  3
    505    854    848    850     1  0.0000000  1.6038667  3
    506    505    854    848     1  0.0000000  1.6038667  3
    507    505    854    848     1  0.0000000  1.6038667  3
    510    511    523    524     1  0.0000000  0.6508444  3
    510    511    523    525     1  0.0000000  0.6508444  3
    510    514    526    527     1  0.0000000  0.6508444  3
    510    514    526    528     1  0.0000000  0.6508444  3
    510    517    520    521     1  0.0000000  0.6508444  3
    510    517    520    522     1  0.0000000  0.6508444  3
    511    510    514    515     1  0.0000000  0.6508444  3
    511    510    514    516     1  0.0000000  0.6508444  3
    511    510    517    518     1  0.0000000  0.6508444  3
    511    510    517    519     1  0.0000000  0.6508444  3
    511    523    535    536     1  0.0000000  0.6508444  3
    511    523    535    537     1  0.0000000  0.6508444  3
    512    511    510    514     1  0.0000000  0.6508444  3
    512    511    510    517     1  0.0000000  0.6508444  3
    512    511    510    539     1  0.0000000  0.6508444  3
    512    511    523    535     1  0.0000000  0.6508444  3
    512    511    523    524     1  0.0000000  0.6508444  3
    512    511    523    525     1  0.0000000  0.6508444  3
    513    511    510    514     1  0.0000000  0.6508444  3
    513    511    510    517     1  0.0000000  0.6508444  3
    513    511    510    539     1  0.0000000  0.6508444  3
    513    511    523    535     1  0.0000000  0.6508444  3
    513    511    523    524     1  0.0000000  0.6508444  3
    513    511    523    525     1  0.0000000  0.6508444  3
    514    510    517    518     1  0.0000000  0.6508444  3
    514    510    517    519     1  0.0000000  0.6508444  3
    514    526    532    533     1  0.0000000  0.6508444  3
    514    526    532    534     1  0.0000000  0.6508444  3
    515    514    510    517     1  0.0000000  0.6508444  3
    515    514    510    539     1  0.0000000  0.6508444  3
    515    514    526    532     1  0.0000000  0.6508444  3
    515    514    526    527     1  0.0000000  0.6508444  3
    515    514    526    528     1  0.0000000  0.6508444  3
    516    514    510    517     1  0.0000000  0.6508444  3
    516    514    510    539     1  0.0000000  0.6508444  3
    516    514    526    532     1  0.0000000  0.6508444  3
    516    514    526    527     1  0.0000000  0.6508444  3
    516    514    526    528     1  0.0000000  0.6508444  3
    517    520    529    530     1  0.0000000  0.6508444  3
    517    520    529    531     1  0.0000000  0.6508444  3
    518    517    510    539     1  0.0000000  0.6508444  3
    518    517    520    529     1  0.0000000  0.6508444  3
    518    517    520    521     1  0.0000000  0.6508444  3
    518    517    520    522     1  0.0000000  0.6508444  3
    519    517    510    539     1  0.0000000  0.6508444  3
    519    517    520    529     1  0.0000000  0.6508444  3
    519    517    520    521     1  0.0000000  0.6508444  3
    519    517    520    522     1  0.0000000  0.6508444  3
    520    517    510    539     1  0.0000000  0.6508444  3
    521    520    529    538     1  0.0000000  1.0460000  1
    521    520    529    538     1  0.0000000  0.0000000  3
    521    520    529    530     1  0.0000000  0.6508444  3
    521    520    529    531     1  0.0000000  0.6508444  3
    522    520    529    538     1  0.0000000  1.0460000  1
    522    520    529    538     1  0.0000000  0.0000000  3
    522    520    529    530     1  0.0000000  0.6508444  3
    522    520    529    531     1  0.0000000  0.6508444  3
    523    511    510    539     1  0.0000000  0.6508444  3
    524    523    535    882     1  0.0000000  1.0460000  1
    524    523    535    882     1  0.0000000  0.0000000  3
    524    523    535    536     1  0.0000000  0.6508444  3
    524    523    535    537     1  0.0000000  0.6508444  3
    525    523    535    882     1  0.0000000  1.0460000  1
    525    523    535    882     1  0.0000000  0.0000000  3
    525    523    535    536     1  0.0000000  0.6508444  3
    525    523    535    537     1  0.0000000  0.6508444  3
    526    514    510    539     1  0.0000000  0.6508444  3
    527    526    532    868     1  0.0000000  1.0460000  1
    527    526    532    868     1  0.0000000  0.0000000  3
    527    526    532    533     1  0.0000000  0.6508444  3
    527    526    532    534     1  0.0000000  0.6508444  3
    528    526    532    868     1  0.0000000  1.0460000  1
    528    526    532    868     1  0.0000000  0.0000000  3
    528    526    532    533     1  0.0000000  0.6508444  3
    528    526    532    534     1  0.0000000  0.6508444  3
    532    868    862    863     1  0.0000000  1.6038667  3
    532    868    862    864     1  0.0000000  1.6038667  3
    533    532    868    862     1  0.0000000  1.6038667  3
    534    532    868    862     1  0.0000000  1.6038667  3
    535    882    876    877     1  0.0000000  1.6038667  3
    535    882    876    878     1  0.0000000  1.6038667  3
    536    535    882    876     1  0.0000000  1.6038667  3
    537    535    882    876     1  0.0000000  1.6038667  3
    540    541    553    554     1  0.0000000  0.6508444  3
    540    541    553    555     1  0.0000000  0.6508444  3
    540    544    556    557     1  0.0000000  0.6508444  3
    540    544    556    558     1  0.0000000  0.6508444  3
    540    547    550    551     1  0.0000000  0.6508444  3
    540    547    550    552     1  0.0000000  0.6508444  3
    541    540    544    545     1  0.0000000  0.6508444  3
    541    540    544    546     1  0.0000000  0.6508444  3
    541    540    547    548     1  0.0000000  0.6508444  3
    541    540    547    549     1  0.0000000  0.6508444  3
    541    553    565    566     1  0.0000000  0.6508444  3
    541    553    565    567     1  0.0000000  0.6508444  3
    542    541    540    544     1  0.0000000  0.6508444  3
    542    541    540    547     1  0.0000000  0.6508444  3
    542    541    540    569     1  0.0000000  0.6508444  3
    542    541    553    565     1  0.0000000  0.6508444  3
    542    541    553    554     1  0.0000000  0.6508444  3
    542    541    553    555     1  0.0000000  0.6508444  3
    543    541    540    544     1  0.0000000  0.6508444  3
    543    541    540    547     1  0.0000000  0.6508444  3
    543    541    540    569     1  0.0000000  0.6508444  3
    543    541    553    565     1  0.0000000  0.6508444  3
    543    541    553    554     1  0.0000000  0.6508444  3
    543    541    553    555     1  0.0000000  0.6508444  3
    544    540    547    548     1  0.0000000  0.6508444  3
    544    540    547    549     1  0.0000000  0.6508444  3
    544    556    562    563     1  0.0000000  0.6508444  3
    544    556    562    564     1  0.0000000  0.6508444  3
    545    544    540    547     1  0.0000000  0.6508444  3
    545    544    540    569     1  0.0000000  0.6508444  3
    545    544    556    562     1  0.0000000  0.6508444  3
    545    544    556    557     1  0.0000000  0.6508444  3
    545    544    556    558     1  0.0000000  0.6508444  3
    546    544    540    547     1  0.0000000  0.6508444  3
    546    544    540    569     1  0.0000000  0.6508444  3
    546    544    556    562     1  0.0000000  0.6508444  3
    546    544    556    557     1  0.0000000  0.6508444  3
    546    544    556    558     1  0.0000000  0.6508444  3
    547    550    559    560     1  0.0000000  0.6508444  3
    547    550    559    561     1  0.0000000  0.6508444  3
    548    547    540    569     1  0.0000000  0.6508444  3
    548    547    550    559     1  0.0000000  0.6508444  3
    548    547    550    551     1  0.0000000  0.6508444  3
    548    547    550    552     1  0.0000000  0.6508444  3
    549    547    540    569     1  0.0000000  0.6508444  3
    549    547    550    559     1  0.0000000  0.6508444  3
    549    547    550    551     1  0.0000000  0.6508444  3
    549    547    550    552     1  0.0000000  0.6508444  3
    550    547    540    569     1  0.0000000  0.6508444  3
    551    550    559    568     1  0.0000000  1.0460000  1
    551    550    559    568     1  0.0000000  0.0000000  3
    551    550    559    560     1  0.0000000  0.6508444  3
    551    550    559    561     1  0.0000000  0.6508444  3
    552    550    559    568     1  0.0000000  1.0460000  1
    552    550    559    568     1  0.0000000  0.0000000  3
    552    550    559    560     1  0.0000000  0.6508444  3
    552    550    559    561     1  0.0000000  0.6508444  3
    553    541    540    569     1  0.0000000  0.6508444  3
    554    553    565    910     1  0.0000000  1.0460000  1
    554    553    565    910     1  0.0000000  0.0000000  3
    554    553    565    566     1  0.0000000  0.6508444  3
    554    553    565    567     1  0.0000000  0.6508444  3
    555    553    565    910     1  0.0000000  1.0460000  1
    555    553    565    910     1  0.0000000  0.0000000  3
    555    553    565    566     1  0.0000000  0.6508444  3
    555    553    565    567     1  0.0000000  0.6508444  3
    556    544    540    569     1  0.0000000  0.6508444  3
    557    556    562    896     1  0.0000000  1.0460000  1
    557    556    562    896     1  0.0000000  0.0000000  3
    557    556    562    563     1  0.0000000  0.6508444  3
    557    556    562    564     1  0.0000000  0.6508444  3
    558    556    562    896     1  0.0000000  1.0460000  1
    558    556    562    896     1  0.0000000  0.0000000  3
    558    556    562    563     1  0.0000000  0.6508444  3
    558    556    562    564     1  0.0000000  0.6508444  3
    562    896    890    891     1  0.0000000  1.6038667  3
    562    896    890    892     1  0.0000000  1.6038667  3
    563    562    896    890     1  0.0000000  1.6038667  3
    564    562    896    890     1  0.0000000  1.6038667  3
    565    910    904    905     1  0.0000000  1.6038667  3
    565    910    904    906     1  0.0000000  1.6038667  3
    566    565    910    904     1  0.0000000  1.6038667  3
    567    565    910    904     1  0.0000000  1.6038667  3
    570    571    583    584     1  0.0000000  0.6508444  3
    570    571    583    585     1  0.0000000  0.6508444  3
    570    574    586    587     1  0.0000000  0.6508444  3
    570    574    586    588     1  0.0000000  0.6508444  3
    570    577    580    581     1  0.0000000  0.6508444  3
    570    577    580    582     1  0.0000000  0.6508444  3
    571    570    574    575     1  0.0000000  0.6508444  3
    571    570    574    576     1  0.0000000  0.6508444  3
    571    570    577    578     1  0.0000000  0.6508444  3
    571    570    577    579     1  0.0000000  0.6508444  3
    571    583    595    596     1  0.0000000  0.6508444  3
    571    583    595    597     1  0.0000000  0.6508444  3
    572    571    570    574     1  0.0000000  0.6508444  3
    572    571    570    577     1  0.0000000  0.6508444  3
    572    571    570    599     1  0.0000000  0.6508444  3
    572    571    583    595     1  0.0000000  0.6508444  3
    572    571    583    584     1  0.0000000  0.6508444  3
    572    571    583    585     1  0.0000000  0.6508444  3
    573    571    570    574     1  0.0000000  0.6508444  3
    573    571    570    577     1  0.0000000  0.6508444  3
    573    571    570    599     1  0.0000000  0.6508444  3
    573    571    583    595     1  0.0000000  0.6508444  3
    573    571    583    584     1  0.0000000  0.6508444  3
    573    571    583    585     1  0.0000000  0.6508444  3
    574    570    577    578     1  0.0000000  0.6508444  3
    574    570    577    579     1  0.0000000  0.6508444  3
    574    586    592    593     1  0.0000000  0.6508444  3
    574    586    592    594     1  0.0000000  0.6508444  3
    575    574    570    577     1  0.0000000  0.6508444  3
    575    574    570    599     1  0.0000000  0.6508444  3
    575    574    586    592     1  0.0000000  0.6508444  3
    575    574    586    587     1  0.0000000  0.6508444  3
    575    574    586    588     1  0.0000000  0.6508444  3
    576    574    570    577     1  0.0000000  0.6508444  3
    576    574    570    599     1  0.0000000  0.6508444  3
    576    574    586    592     1  0.0000000  0.6508444  3
    576    574    586    587     1  0.0000000  0.6508444  3
    576    574    586    588     1  0.0000000  0.6508444  3
    577    580    589    590     1  0.0000000  0.6508444  3
    577    580    589    591     1  0.0000000  0.6508444  3
    578    577    570    599     1  0.0000000  0.6508444  3
    578    577    580    589     1  0.0000000  0.6508444  3
    578    577    580    581     1  0.0000000  0.6508444  3
    578    577    580    582     1  0.0000000  0.6508444  3
    579    577    570    599     1  0.0000000  0.6508444  3
    579    577    580    589     1  0.0000000  0.6508444  3
    579    577    580    581     1  0.0000000  0.6508444  3
    579    577    580    582     1  0.0000000  0.6508444  3
    580    577    570    599     1  0.0000000  0.6508444  3
    581    580    589    598     1  0.0000000  1.0460000  1
    581    580    589    598     1  0.0000000  0.0000000  3
    581    580    589    590     1  0.0000000  0.6508444  3
    581    580    589    591     1  0.0000000  0.6508444  3
    582    580    589    598     1  0.0000000  1.0460000  1
    582    580    589    598     1  0.0000000  0.0000000  3
    582    580    589    590     1  0.0000000  0.6508444  3
    582    580    589    591     1  0.0000000  0.6508444  3
    583    571    570    599     1  0.0000000  0.6508444  3
    584    583    595    938     1  0.0000000  1.0460000  1
    584    583    595    938     1  0.0000000  0.0000000  3
    584    583    595    596     1  0.0000000  0.6508444  3
    584    583    595    597     1  0.0000000  0.6508444  3
    585    583    595    938     1  0.0000000  1.0460000  1
    585    583    595    938     1  0.0000000  0.0000000  3
    585    583    595    596     1  0.0000000  0.6508444  3
    585    583    595    597     1  0.0000000  0.6508444  3
    586    574    570    599     1  0.0000000  0.6508444  3
    587    586    592    924     1  0.0000000  1.0460000  1
    587    586    592    924     1  0.0000000  0.0000000  3
    587    586    592    593     1  0.0000000  0.6508444  3
    587    586    592    594     1  0.0000000  0.6508444  3
    588    586    592    924     1  0.0000000  1.0460000  1
    588    586    592    924     1  0.0000000  0.0000000  3
    588    586    592    593     1  0.0000000  0.6508444  3
    588    586    592    594     1  0.0000000  0.6508444  3
    592    924    918    919     1  0.0000000  1.6038667  3
    592    924    918    920     1  0.0000000  1.6038667  3
    593    592    924    918     1  0.0000000  1.6038667  3
    594    592    924    918     1  0.0000000  1.6038667  3
    595    938    932    933     1  0.0000000  1.6038667  3
    595    938    932    934     1  0.0000000  1.6038667  3
    596    595    938    932     1  0.0000000  1.6038667  3
    597    595    938    932     1  0.0000000  1.6038667  3
    600    601    613    614     1  0.0000000  0.6508444  3
    600    601    613    615     1  0.0000000  0.6508444  3
    600    604    616    617     1  0.0000000  0.6508444  3
    600    604    616    618     1  0.0000000  0.6508444  3
    600    607    610    611     1  0.0000000  0.6508444  3
    600    607    610    612     1  0.0000000  0.6508444  3
    601    600    604    605     1  0.0000000  0.6508444  3
    601    600    604    606     1  0.0000000  0.6508444  3
    601    600    607    608     1  0.0000000  0.6508444  3
    601    600    607    609     1  0.0000000  0.6508444  3
    601    613    625    626     1  0.0000000  0.6508444  3
    601    613    625    627     1  0.0000000  0.6508444  3
    602    601    600    604     1  0.0000000  0.6508444  3
    602    601    600    607     1  0.0000000  0.6508444  3
    602    601    600    629     1  0.0000000  0.6508444  3
    602    601    613    625     1  0.0000000  0.6508444  3
    602    601    613    614     1  0.0000000  0.6508444  3
    602    601    613    615     1  0.0000000  0.6508444  3
    603    601    600    604     1  0.0000000  0.6508444  3
    603    601    600    607     1  0.0000000  0.6508444  3
    603    601    600    629     1  0.0000000  0.6508444  3
    603    601    613    625     1  0.0000000  0.6508444  3
    603    601    613    614     1  0.0000000  0.6508444  3
    603    601    613    615     1  0.0000000  0.6508444  3
    604    600    607    608     1  0.0000000  0.6508444  3
    604    600    607    609     1  0.0000000  0.6508444  3
    604    616    622    623     1  0.0000000  0.6508444  3
    604    616    622    624     1  0.0000000  0.6508444  3
    605    604    600    607     1  0.0000000  0.6508444  3
    605    604    600    629     1  0.0000000  0.6508444  3
    605    604    616    622     1  0.0000000  0.6508444  3
    605    604    616    617     1  0.0000000  0.6508444  3
    605    604    616    618     1  0.0000000  0.6508444  3
    606    604    600    607     1  0.0000000  0.6508444  3
    606    604    600    629     1  0.0000000  0.6508444  3
    606    604    616    622     1  0.0000000  0.6508444  3
    606    604    616    617     1  0.0000000  0.6508444  3
    606    604    616    618     1  0.0000000  0.6508444  3
    607    610    619    620     1  0.0000000  0.6508444  3
    607    610    619    621     1  0.0000000  0.6508444  3
    608    607    600    629     1  0.0000000  0.6508444  3
    608    607    610    619     1  0.0000000  0.6508444  3
    608    607    610    611     1  0.0000000  0.6508444  3
    608    607    610    612     1  0.0000000  0.6508444  3
    609    607    600    629     1  0.0000000  0.6508444  3
    609    607    610    619     1  0.0000000  0.6508444  3
    609    607    610    611     1  0.0000000  0.6508444  3
    609    607    610    612     1  0.0000000  0.6508444  3
    610    607    600    629     1  0.0000000  0.6508444  3
    611    610    619    628     1  0.0000000  1.0460000  1
    611    610    619    628     1  0.0000000  0.0000000  3
    611    610    619    620     1  0.0000000  0.6508444  3
    611    610    619    621     1  0.0000000  0.6508444  3
    612    610    619    628     1  0.0000000  1.0460000  1
    612    610    619    628     1  0.0000000  0.0000000  3
    612    610    619    620     1  0.0000000  0.6508444  3
    612    610    619    621     1  0.0000000  0.6508444  3
    613    601    600    629     1  0.0000000  0.6508444  3
    614    613    625    966     1  0.0000000  1.0460000  1
    614    613    625    966     1  0.0000000  0.0000000  3
    614    613    625    626     1  0.0000000  0.6508444  3
    614    613    625    627     1  0.0000000  0.6508444  3
    615    613    625    966     1  0.0000000  1.0460000  1
    615    613    625    966     1  0.0000000  0.0000000  3
    615    613    625    626     1  0.0000000  0.6508444  3
    615    613    625    627     1  0.0000000  0.6508444  3
    616    604    600    629     1  0.0000000  0.6508444  3
    617    616    622    952     1  0.0000000  1.0460000  1
    617    616    622    952     1  0.0000000  0.0000000  3
    617    616    622    623     1  0.0000000  0.6508444  3
    617    616    622    624     1  0.0000000  0.6508444  3
    618    616    622    952     1  0.0000000  1.0460000  1
    618    616    622    952     1  0.0000000  0.0000000  3
    618    616    622    623     1  0.0000000  0.6508444  3
    618    616    622    624     1  0.0000000  0.6508444  3
    622    952    946    947     1  0.0000000  1.6038667  3
    622    952    946    948     1  0.0000000  1.6038667  3
    623    622    952    946     1  0.0000000  1.6038667  3
    624    622    952    946     1  0.0000000  1.6038667  3
    625    966    960    961     1  0.0000000  1.6038667  3
    625    966    960    962     1  0.0000000  1.6038667  3
    626    625    966    960     1  0.0000000  1.6038667  3
    627    625    966    960     1  0.0000000  1.6038667  3
    630    631    643    644     1  0.0000000  0.6508444  3
    630    631    643    645     1  0.0000000  0.6508444  3
    630    634    646    647     1  0.0000000  0.6508444  3
    630    634    646    648     1  0.0000000  0.6508444  3
    630    637    640    641     1  0.0000000  0.6508444  3
    630    637    640    642     1  0.0000000  0.6508444  3
    631    630    634    635     1  0.0000000  0.6508444  3
    631    630    634    636     1  0.0000000  0.6508444  3
    631    630    637    638     1  0.0000000  0.6508444  3
    631    630    637    639     1  0.0000000  0.6508444  3
    631    643    655    656     1  0.0000000  0.6508444  3
    631    643    655    657     1  0.0000000  0.6508444  3
    632    631    630    634     1  0.0000000  0.6508444  3
    632    631    630    637     1  0.0000000  0.6508444  3
    632    631    630    659     1  0.0000000  0.6508444  3
    632    631    643    655     1  0.0000000  0.6508444  3
    632    631    643    644     1  0.0000000  0.6508444  3
    632    631    643    645     1  0.0000000  0.6508444  3
    633    631    630    634     1  0.0000000  0.6508444  3
    633    631    630    637     1  0.0000000  0.6508444  3
    633    631    630    659     1  0.0000000  0.6508444  3
    633    631    643    655     1  0.0000000  0.6508444  3
    633    631    643    644     1  0.0000000  0.6508444  3
    633    631    643    645     1  0.0000000  0.6508444  3
    634    630    637    638     1  0.0000000  0.6508444  3
    634    630    637    639     1  0.0000000  0.6508444  3
    634    646    652    653     1  0.0000000  0.6508444  3
    634    646    652    654     1  0.0000000  0.6508444  3
    635    634    630    637     1  0.0000000  0.6508444  3
    635    634    630    659     1  0.0000000  0.6508444  3
    635    634    646    652     1  0.0000000  0.6508444  3
    635    634    646    647     1  0.0000000  0.6508444  3
    635    634    646    648     1  0.0000000  0.6508444  3
    636    634    630    637     1  0.0000000  0.6508444  3
    636    634    630    659     1  0.0000000  0.6508444  3
    636    634    646    652     1  0.0000000  0.6508444  3
    636    634    646    647     1  0.0000000  0.6508444  3
    636    634    646    648     1  0.0000000  0.6508444  3
    637    640    649    650     1  0.0000000  0.6508444  3
    637    640    649    651     1  0.0000000  0.6508444  3
    638    637    630    659     1  0.0000000  0.6508444  3
    638    637    640    649     1  0.0000000  0.6508444  3
    638    637    640    641     1  0.0000000  0.6508444  3
    638    637    640    642     1  0.0000000  0.6508444  3
    639    637    630    659     1  0.0000000  0.6508444  3
    639    637    640    649     1  0.0000000  0.6508444  3
    639    637    640    641     1  0.0000000  0.6508444  3
    639    637    640    642     1  0.0000000  0.6508444  3
    640    637    630    659     1  0.0000000  0.6508444  3
    641    640    649    658     1  0.0000000  1.0460000  1
    641    640    649    658     1  0.0000000  0.0000000  3
    641    640    649    650     1  0.0000000  0.6508444  3
    641    640    649    651     1  0.0000000  0.6508444  3
    642    640    649    658     1  0.0000000  1.0460000  1
    642    640    649    658     1  0.0000000  0.0000000  3
    642    640    649    650     1  0.0000000  0.6508444  3
    642    640    649    651     1  0.0000000  0.6508444  3
    643    631    630    659     1  0.0000000  0.6508444  3
    644    643    655    994     1  0.0000000  1.0460000  1
    644    643    655    994     1  0.0000000  0.0000000  3
    644    643    655    656     1  0.0000000  0.6508444  3
    644    643    655    657     1  0.0000000  0.6508444  3
    645    643    655    994     1  0.0000000  1.0460000  1
    645    643    655    994     1  0.0000000  0.0000000  3
    645    643    655    656     1  0.0000000  0.6508444  3
    645    643    655    657     1  0.0000000  0.6508444  3
    646    634    630    659     1  0.0000000  0.6508444  3
    647    646    652    980     1  0.0000000  1.0460000  1
    647    646    652    980     1  0.0000000  0.0000000  3
    647    646    652    653     1  0.0000000  0.6508444  3
    647    646    652    654     1  0.0000000  0.6508444  3
    648    646    652    980     1  0.0000000  1.0460000  1
    648    646    652    980     1  0.0000000  0.0000000  3
    648    646    652    653     1  0.0000000  0.6508444  3
    648    646    652    654     1  0.0000000  0.6508444  3
    652    980    974    975     1  0.0000000  1.6038667  3
    652    980    974    976     1  0.0000000  1.6038667  3
    653    652    980    974     1  0.0000000  1.6038667  3
    654    652    980    974     1  0.0000000  1.6038667  3
    655    994    988    989     1  0.0000000  1.6038667  3
    655    994    988    990     1  0.0000000  1.6038667  3
    656    655    994    988     1  0.0000000  1.6038667  3
    657    655    994    988     1  0.0000000  1.6038667  3
    660    663    666    667     1  0.0000000  0.6508444  3
    660    663    666    668     1  0.0000000  0.6508444  3
    661    660    663    666     1  0.0000000  0.6508444  3
    661    660    663    664     1  0.0000000  0.6508444  3
    661    660    663    665     1  0.0000000  0.6508444  3
    661    660    669    670     1  0.0000000  0.6508444  3
    661    660    669    671     1  0.0000000  0.6508444  3
    661    660    669    673     1  0.0000000  0.6508444  3
    662    660    663    666     1  0.0000000  0.6508444  3
    662    660    663    664     1  0.0000000  0.6508444  3
    662    660    663    665     1  0.0000000  0.6508444  3
    662    660    669    670     1  0.0000000  0.6508444  3
    662    660    669    671     1  0.0000000  0.6508444  3
    662    660    669    673     1  0.0000000  0.6508444  3
    663    660    669    670     1  0.0000000  0.6508444  3
    663    660    669    671     1  0.0000000  0.6508444  3
    663    660    669    673     1  0.0000000  0.6508444  3
    664    663    660    669     1  0.0000000  0.6508444  3
    664    663    666    672     1  0.0000000  1.0460000  1
    664    663    666    672     1  0.0000000  0.0000000  3
    664    663    666    667     1  0.0000000  0.6508444  3
    664    663    666    668     1  0.0000000  0.6508444  3
    665    663    660    669     1  0.0000000  0.6508444  3
    665    663    666    672     1  0.0000000  1.0460000  1
    665    663    666    672     1  0.0000000  0.0000000  3
    665    663    666    667     1  0.0000000  0.6508444  3
    665    663    666    668     1  0.0000000  0.6508444  3
    674    677    680    681     1  0.0000000  0.6508444  3
    674    677    680    682     1  0.0000000  0.6508444  3
    675    674    677    680     1  0.0000000  0.6508444  3
    675    674    677    678     1  0.0000000  0.6508444  3
    675    674    677    679     1  0.0000000  0.6508444  3
    675    674    683    684     1  0.0000000  0.6508444  3
    675    674    683    685     1  0.0000000  0.6508444  3
    675    674    683    687     1  0.0000000  0.6508444  3
    676    674    677    680     1  0.0000000  0.6508444  3
    676    674    677    678     1  0.0000000  0.6508444  3
    676    674    677    679     1  0.0000000  0.6508444  3
    676    674    683    684     1  0.0000000  0.6508444  3
    676    674    683    685     1  0.0000000  0.6508444  3
    676    674    683    687     1  0.0000000  0.6508444  3
    677    674    683    684     1  0.0000000  0.6508444  3
    677    674    683    685     1  0.0000000  0.6508444  3
    677    674    683    687     1  0.0000000  0.6508444  3
    678    677    680    686     1  0.0000000  1.0460000  1
    678    677    680    686     1  0.0000000  0.0000000  3
    678    677    680    681     1  0.0000000  0.6508444  3
    678    677    680    682     1  0.0000000  0.6508444  3
    678    677    674    683     1  0.0000000  0.6508444  3
    679    677    680    686     1  0.0000000  1.0460000  1
    679    677    680    686     1  0.0000000  0.0000000  3
    679    677    680    681     1  0.0000000  0.6508444  3
    679    677    680    682     1  0.0000000  0.6508444  3
    679    677    674    683     1  0.0000000  0.6508444  3
    688    691    694    695     1  0.0000000  0.6508444  3
    688    691    694    696     1  0.0000000  0.6508444  3
    689    688    691    694     1  0.0000000  0.6508444  3
    689    688    691    692     1  0.0000000  0.6508444  3
    689    688    691    693     1  0.0000000  0.6508444  3
    689    688    697    698     1  0.0000000  0.6508444  3
    689    688    697    699     1  0.0000000  0.6508444  3
    689    688    697    701     1  0.0000000  0.6508444  3
    690    688    691    694     1  0.0000000  0.6508444  3
    690    688    691    692     1  0.0000000  0.6508444  3
    690    688    691    693     1  0.0000000  0.6508444  3
    690    688    697    698     1  0.0000000  0.6508444  3
    690    688    697    699     1  0.0000000  0.6508444  3
    690    688    697    701     1  0.0000000  0.6508444  3
    691    688    697    698     1  0.0000000  0.6508444  3
    691    688    697    699     1  0.0000000  0.6508444  3
    691    688    697    701     1  0.0000000  0.6508444  3
    692    691    688    697     1  0.0000000  0.6508444  3
    692    691    694    700     1  0.0000000  1.0460000  1
    692    691    694    700     1  0.0000000  0.0000000  3
    692    691    694    695     1  0.0000000  0.6508444  3
    692    691    694    696     1  0.0000000  0.6508444  3
    693    691    688    697     1  0.0000000  0.6508444  3
    693    691    694    700     1  0.0000000  1.0460000  1
    693    691    694    700     1  0.0000000  0.0000000  3
    693    691    694    695     1  0.0000000  0.6508444  3
    693    691    694    696     1  0.0000000  0.6508444  3
    702    705    708    709     1  0.0000000  0.6508444  3
    702    705    708    710     1  0.0000000  0.6508444  3
    703    702    705    708     1  0.0000000  0.6508444  3
    703    702    705    706     1  0.0000000  0.6508444  3
    703    702    705    707     1  0.0000000  0.6508444  3
    703    702    711    712     1  0.0000000  0.6508444  3
    703    702    711    713     1  0.0000000  0.6508444  3
    703    702    711    715     1  0.0000000  0.6508444  3
    704    702    705    708     1  0.0000000  0.6508444  3
    704    702    705    706     1  0.0000000  0.6508444  3
    704    702    705    707     1  0.0000000  0.6508444  3
    704    702    711    712     1  0.0000000  0.6508444  3
    704    702    711    713     1  0.0000000  0.6508444  3
    704    702    711    715     1  0.0000000  0.6508444  3
    705    702    711    712     1  0.0000000  0.6508444  3
    705    702    711    713     1  0.0000000  0.6508444  3
    705    702    711    715     1  0.0000000  0.6508444  3
    706    705    708    714     1  0.0000000  1.0460000  1
    706    705    708    714     1  0.0000000  0.0000000  3
    706    705    708    709     1  0.0000000  0.6508444  3
    706    705    708    710     1  0.0000000  0.6508444  3
    706    705    702    711     1  0.0000000  0.6508444  3
    707    705    708    714     1  0.0000000  1.0460000  1
    707    705    708    714     1  0.0000000  0.0000000  3
    707    705    708    709     1  0.0000000  0.6508444  3
    707    705    708    710     1  0.0000000  0.6508444  3
    707    705    702    711     1  0.0000000  0.6508444  3
    716    719    722    723     1  0.0000000  0.6508444  3
    716    719    722    724     1  0.0000000  0.6508444  3
    717    716    719    722     1  0.0000000  0.6508444  3
    717    716    719    720     1  0.0000000  0.6508444  3
    717    716    719    721     1  0.0000000  0.6508444  3
    717    716    725    726     1  0.0000000  0.6508444  3
    717    716    725    727     1  0.0000000  0.6508444  3
    717    716    725    729     1  0.0000000  0.6508444  3
    718    716    719    722     1  0.0000000  0.6508444  3
    718    716    719    720     1  0.0000000  0.6508444  3
    718    716    719    721     1  0.0000000  0.6508444  3
    718    716    725    726     1  0.0000000  0.6508444  3
    718    716    725    727     1  0.0000000  0.6508444  3
    718    716    725    729     1  0.0000000  0.6508444  3
    719    716    725    726     1  0.0000000  0.6508444  3
    719    716    725    727     1  0.0000000  0.6508444  3
    719    716    725    729     1  0.0000000  0.6508444  3
    720    719    716    725     1  0.0000000  0.6508444  3
    720    719    722    728     1  0.0000000  1.0460000  1
    720    719    722    728     1  0.0000000  0.0000000  3
    720    719    722    723     1  0.0000000  0.6508444  3
    720    719    722    724     1  0.0000000  0.6508444  3
    721    719    716    725     1  0.0000000  0.6508444  3
    721    719    722    728     1  0.0000000  1.0460000  1
    721    719    722    728     1  0.0000000  0.0000000  3
    721    719    722    723     1  0.0000000  0.6508444  3
    721    719    722    724     1  0.0000000  0.6508444  3
    730    733    736    737     1  0.0000000  0.6508444  3
    730    733    736    738     1  0.0000000  0.6508444  3
    731    730    733    736     1  0.0000000  0.6508444  3
    731    730    733    734     1  0.0000000  0.6508444  3
    731    730    733    735     1  0.0000000  0.6508444  3
    731    730    739    740     1  0.0000000  0.6508444  3
    731    730    739    741     1  0.0000000  0.6508444  3
    731    730    739    743     1  0.0000000  0.6508444  3
    732    730    733    736     1  0.0000000  0.6508444  3
    732    730    733    734     1  0.0000000  0.6508444  3
    732    730    733    735     1  0.0000000  0.6508444  3
    732    730    739    740     1  0.0000000  0.6508444  3
    732    730    739    741     1  0.0000000  0.6508444  3
    732    730    739    743     1  0.0000000  0.6508444  3
    733    730    739    740     1  0.0000000  0.6508444  3
    733    730    739    741     1  0.0000000  0.6508444  3
    733    730    739    743     1  0.0000000  0.6508444  3
    734    733    736    742     1  0.0000000  1.0460000  1
    734    733    736    742     1  0.0000000  0.0000000  3
    734    733    736    737     1  0.0000000  0.6508444  3
    734    733    736    738     1  0.0000000  0.6508444  3
    734    733    730    739     1  0.0000000  0.6508444  3
    735    733    736    742     1  0.0000000  1.0460000  1
    735    733    736    742     1  0.0000000  0.0000000  3
    735    733    736    737     1  0.0000000  0.6508444  3
    735    733    736    738     1  0.0000000  0.6508444  3
    735    733    730    739     1  0.0000000  0.6508444  3
    744    747    750    751     1  0.0000000  0.6508444  3
    744    747    750    752     1  0.0000000  0.6508444  3
    745    744    747    750     1  0.0000000  0.6508444  3
    745    744    747    748     1  0.0000000  0.6508444  3
    745    744    747    749     1  0.0000000  0.6508444  3
    745    744    753    754     1  0.0000000  0.6508444  3
    745    744    753    755     1  0.0000000  0.6508444  3
    745    744    753    757     1  0.0000000  0.6508444  3
    746    744    747    750     1  0.0000000  0.6508444  3
    746    744    747    748     1  0.0000000  0.6508444  3
    746    744    747    749     1  0.0000000  0.6508444  3
    746    744    753    754     1  0.0000000  0.6508444  3
    746    744    753    755     1  0.0000000  0.6508444  3
    746    744    753    757     1  0.0000000  0.6508444  3
    747    744    753    754     1  0.0000000  0.6508444  3
    747    744    753    755     1  0.0000000  0.6508444  3
    747    744    753    757     1  0.0000000  0.6508444  3
    748    747    744    753     1  0.0000000  0.6508444  3
    748    747    750    756     1  0.0000000  1.0460000  1
    748    747    750    756     1  0.0000000  0.0000000  3
    748    747    750    751     1  0.0000000  0.6508444  3
    748    747    750    752     1  0.0000000  0.6508444  3
    749    747    744    753     1  0.0000000  0.6508444  3
    749    747    750    756     1  0.0000000  1.0460000  1
    749    747    750    756     1  0.0000000  0.0000000  3
    749    747    750    751     1  0.0000000  0.6508444  3
    749    747    750    752     1  0.0000000  0.6508444  3
    758    761    764    765     1  0.0000000  0.6508444  3
    758    761    764    766     1  0.0000000  0.6508444  3
    759    758    761    764     1  0.0000000  0.6508444  3
    759    758    761    762     1  0.0000000  0.6508444  3
    759    758    761    763     1  0.0000000  0.6508444  3
    759    758    767    768     1  0.0000000  0.6508444  3
    759    758    767    769     1  0.0000000  0.6508444  3
    759    758    767    771     1  0.0000000  0.6508444  3
    760    758    761    764     1  0.0000000  0.6508444  3
    760    758    761    762     1  0.0000000  0.6508444  3
    760    758    761    763     1  0.0000000  0.6508444  3
    760    758    767    768     1  0.0000000  0.6508444  3
    760    758    767    769     1  0.0000000  0.6508444  3
    760    758    767    771     1  0.0000000  0.6508444  3
    761    758    767    768     1  0.0000000  0.6508444  3
    761    758    767    769     1  0.0000000  0.6508444  3
    761    758    767    771     1  0.0000000  0.6508444  3
    762    761    764    770     1  0.0000000  1.0460000  1
    762    761    764    770     1  0.0000000  0.0000000  3
    762    761    764    765     1  0.0000000  0.6508444  3
    762    761    764    766     1  0.0000000  0.6508444  3
    762    761    758    767     1  0.0000000  0.6508444  3
    763    761    764    770     1  0.0000000  1.0460000  1
    763    761    764    770     1  0.0000000  0.0000000  3
    763    761    764    765     1  0.0000000  0.6508444  3
    763    761    764    766     1  0.0000000  0.6508444  3
    763    761    758    767     1  0.0000000  0.6508444  3
    772    775    778    779     1  0.0000000  0.6508444  3
    772    775    778    780     1  0.0000000  0.6508444  3
    773    772    775    778     1  0.0000000  0.6508444  3
    773    772    775    776     1  0.0000000  0.6508444  3
    773    772    775    777     1  0.0000000  0.6508444  3
    773    772    781    782     1  0.0000000  0.6508444  3
    773    772    781    783     1  0.0000000  0.6508444  3
    773    772    781    785     1  0.0000000  0.6508444  3
    774    772    775    778     1  0.0000000  0.6508444  3
    774    772    775    776     1  0.0000000  0.6508444  3
    774    772    775    777     1  0.0000000  0.6508444  3
    774    772    781    782     1  0.0000000  0.6508444  3
    774    772    781    783     1  0.0000000  0.6508444  3
    774    772    781    785     1  0.0000000  0.6508444  3
    775    772    781    782     1  0.0000000  0.6508444  3
    775    772    781    783     1  0.0000000  0.6508444  3
    775    772    781    785     1  0.0000000  0.6508444  3
    776    775    772    781     1  0.0000000  0.6508444  3
    776    775    778    784     1  0.0000000  1.0460000  1
    776    775    778    784     1  0.0000000  0.0000000  3
    776    775    778    779     1  0.0000000  0.6508444  3
    776    775    778    780     1  0.0000000  0.6508444  3
    777    775    772    781     1  0.0000000  0.6508444  3
    777    775    778    784     1  0.0000000  1.0460000  1
    777    775    778    784     1  0.0000000  0.0000000  3
    777    775    778    779     1  0.0000000  0.6508444  3
    777    775    778    780     1  0.0000000  0.6508444  3
    786    789    792    793     1  0.0000000  0.6508444  3
    786    789    792    794     1  0.0000000  0.6508444  3
    787    786    789    792     1  0.0000000  0.6508444  3
    787    786    789    790     1  0.0000000  0.6508444  3
    787    786    789    791     1  0.0000000  0.6508444  3
    787    786    795    796     1  0.0000000  0.6508444  3
    787    786    795    797     1  0.0000000  0.6508444  3
    787    786    795    799     1  0.0000000  0.6508444  3
    788    786    789    792     1  0.0000000  0.6508444  3
    788    786    789    790     1  0.0000000  0.6508444  3
    788    786    789    791     1  0.0000000  0.6508444  3
    788    786    795    796     1  0.0000000  0.6508444  3
    788    786    795    797     1  0.0000000  0.6508444  3
    788    786    795    799     1  0.0000000  0.6508444  3
    789    786    795    796     1  0.0000000  0.6508444  3
    789    786    795    797     1  0.0000000  0.6508444  3
    789    786    795    799     1  0.0000000  0.6508444  3
    790    789    792    798     1  0.0000000  1.0460000  1
    790    789    792    798     1  0.0000000  0.0000000  3
    790    789    792    793     1  0.0000000  0.6508444  3
    790    789    792    794     1  0.0000000  0.6508444  3
    790    789    786    795     1  0.0000000  0.6508444  3
    791    789    792    798     1  0.0000000  1.0460000  1
    791    789    792    798     1  0.0000000  0.0000000  3
    791    789    792    793     1  0.0000000  0.6508444  3
    791    789    792    794     1  0.0000000  0.6508444  3
    791    789    786    795     1  0.0000000  0.6508444  3
    800    803    806    807     1  0.0000000  0.6508444  3
    800    803    806    808     1  0.0000000  0.6508444  3
    801    800    803    806     1  0.0000000  0.6508444  3
    801    800    803    804     1  0.0000000  0.6508444  3
    801    800    803    805     1  0.0000000  0.6508444  3
    801    800    809    810     1  0.0000000  0.6508444  3
    801    800    809    811     1  0.0000000  0.6508444  3
    801    800    809    813     1  0.0000000  0.6508444  3
    802    800    803    806     1  0.0000000  0.6508444  3
    802    800    803    804     1  0.0000000  0.6508444  3
    802    800    803    805     1  0.0000000  0.6508444  3
    802    800    809    810     1  0.0000000  0.6508444  3
    802    800    809    811     1  0.0000000  0.6508444  3
    802    800    809    813     1  0.0000000  0.6508444  3
    803    800    809    810     1  0.0000000  0.6508444  3
    803    800    809    811     1  0.0000000  0.6508444  3
    803    800    809    813     1  0.0000000  0.6508444  3
    804    803    800    809     1  0.0000000  0.6508444  3
    804    803    806    812     1  0.0000000  1.0460000  1
    804    803    806    812     1  0.0000000  0.0000000  3
    804    803    806    807     1  0.0000000  0.6508444  3
    804    803    806    808     1  0.0000000  0.6508444  3
    805    803    800    809     1  0.0000000  0.6508444  3
    805    803    806    812     1  0.0000000  1.0460000  1
    805    803    806    812     1  0.0000000  0.0000000  3
    805    803    806    807     1  0.0000000  0.6508444  3
    805    803    806    808     1  0.0000000  0.6508444  3
    814    817    820    821     1  0.0000000  0.6508444  3
    814    817    820    822     1  0.0000000  0.6508444  3
    815    814    817    820     1  0.0000000  0.6508444  3
    815    814    817    818     1  0.0000000  0.6508444  3
    815    814    817    819     1  0.0000000  0.6508444  3
    815    814    823    824     1  0.0000000  0.6508444  3
    815    814    823    825     1  0.0000000  0.6508444  3
    815    814    823    827     1  0.0000000  0.6508444  3
    816    814    817    820     1  0.0000000  0.6508444  3
    816    814    817    818     1  0.0000000  0.6508444  3
    816    814    817    819     1  0.0000000  0.6508444  3
    816    814    823    824     1  0.0000000  0.6508444  3
    816    814    823    825     1  0.0000000  0.6508444  3
    816    814    823    827     1  0.0000000  0.6508444  3
    817    814    823    824     1  0.0000000  0.6508444  3
    817    814    823    825     1  0.0000000  0.6508444  3
    817    814    823    827     1  0.0000000  0.6508444  3
    818    817    820    826     1  0.0000000  1.0460000  1
    818    817    820    826     1  0.0000000  0.0000000  3
    818    817    820    821     1  0.0000000  0.6508444  3
    818    817    820    822     1  0.0000000  0.6508444  3
    818    817    814    823     1  0.0000000  0.6508444  3
    819    817    820    826     1  0.0000000  1.0460000  1
    819    817    820    826     1  0.0000000  0.0000000  3
    819    817    820    821     1  0.0000000  0.6508444  3
    819    817    820    822     1  0.0000000  0.6508444  3
    819    817    814    823     1  0.0000000  0.6508444  3
    828    831    834    835     1  0.0000000  0.6508444  3
    828    831    834    836     1  0.0000000  0.6508444  3
    829    828    831    834     1  0.0000000  0.6508444  3
    829    828    831    832     1  0.0000000  0.6508444  3
    829    828    831    833     1  0.0000000  0.6508444  3
    829    828    837    838     1  0.0000000  0.6508444  3
    829    828    837    839     1  0.0000000  0.6508444  3
    829    828    837    841     1  0.0000000  0.6508444  3
    830    828    831    834     1  0.0000000  0.6508444  3
    830    828    831    832     1  0.0000000  0.6508444  3
    830    828    831    833     1  0.0000000  0.6508444  3
    830    828    837    838     1  0.0000000  0.6508444  3
    830    828    837    839     1  0.0000000  0.6508444  3
    830    828    837    841     1  0.0000000  0.6508444  3
    831    828    837    838     1  0.0000000  0.6508444  3
    831    828    837    839     1  0.0000000  0.6508444  3
    831    828    837    841     1  0.0000000  0.6508444  3
    832    831    828    837     1  0.0000000  0.6508444  3
    832    831    834    840     1  0.0000000  1.0460000  1
    832    831    834    840     1  0.0000000  0.0000000  3
    832    831    834    835     1  0.0000000  0.6508444  3
    832    831    834    836     1  0.0000000  0.6508444  3
    833    831    828    837     1  0.0000000  0.6508444  3
    833    831    834    840     1  0.0000000  1.0460000  1
    833    831    834    840     1  0.0000000  0.0000000  3
    833    831    834    835     1  0.0000000  0.6508444  3
    833    831    834    836     1  0.0000000  0.6508444  3
    842    845    848    849     1  0.0000000  0.6508444  3
    842    845    848    850     1  0.0000000  0.6508444  3
    843    842    845    848     1  0.0000000  0.6508444  3
    843    842    845    846     1  0.0000000  0.6508444  3
    843    842    845    847     1  0.0000000  0.6508444  3
    843    842    851    852     1  0.0000000  0.6508444  3
    843    842    851    853     1  0.0000000  0.6508444  3
    843    842    851    855     1  0.0000000  0.6508444  3
    844    842    845    848     1  0.0000000  0.6508444  3
    844    842    845    846     1  0.0000000  0.6508444  3
    844    842    845    847     1  0.0000000  0.6508444  3
    844    842    851    852     1  0.0000000  0.6508444  3
    844    842    851    853     1  0.0000000  0.6508444  3
    844    842    851    855     1  0.0000000  0.6508444  3
    845    842    851    852     1  0.0000000  0.6508444  3
    845    842    851    853     1  0.0000000  0.6508444  3
    845    842    851    855     1  0.0000000  0.6508444  3
    846    845    848    854     1  0.0000000  1.0460000  1
    846    845    848    854     1  0.0000000  0.0000000  3
    846    845    848    849     1  0.0000000  0.6508444  3
    846    845    848    850     1  0.0000000  0.6508444  3
    846    845    842    851     1  0.0000000  0.6508444  3
    847    845    848    854     1  0.0000000  1.0460000  1
    847    845    848    854     1  0.0000000  0.0000000  3
    847    845    848    849     1  0.0000000  0.6508444  3
    847    845    848    850     1  0.0000000  0.6508444  3
    847    845    842    851     1  0.0000000  0.6508444  3
    856    859    862    863     1  0.0000000  0.6508444  3
    856    859    862    864     1  0.0000000  0.6508444  3
    857    856    859    862     1  0.0000000  0.6508444  3
    857    856    859    860     1  0.0000000  0.6508444  3
    857    856    859    861     1  0.0000000  0.6508444  3
    857    856    865    866     1  0.0000000  0.6508444  3
    857    856    865    867     1  0.0000000  0.6508444  3
    857    856    865    869     1  0.0000000  0.6508444  3
    858    856    859    862     1  0.0000000  0.6508444  3
    858    856    859    860     1  0.0000000  0.6508444  3
    858    856    859    861     1  0.0000000  0.6508444  3
    858    856    865    866     1  0.0000000  0.6508444  3
    858    856    865    867     1  0.0000000  0.6508444  3
    858    856    865    869     1  0.0000000  0.6508444  3
    859    856    865    866     1  0.0000000  0.6508444  3
    859    856    865    867     1  0.0000000  0.6508444  3
    859    856    865    869     1  0.0000000  0.6508444  3
    860    859    856    865     1  0.0000000  0.6508444  3
    860    859    862    868     1  0.0000000  1.0460000  1
    860    859    862    868     1  0.0000000  0.0000000  3
    860    859    862    863     1  0.0000000  0.6508444  3
    860    859    862    864     1  0.0000000  0.6508444  3
    861    859    856    865     1  0.0000000  0.6508444  3
    861    859    862    868     1  0.0000000  1.0460000  1
    861    859    862    868     1  0.0000000  0.0000000  3
    861    859    862    863     1  0.0000000  0.6508444  3
    861    859    862    864     1  0.0000000  0.6508444  3
    870    873    876    877     1  0.0000000  0.6508444  3
    870    873    876    878     1  0.0000000  0.6508444  3
    871    870    873    876     1  0.0000000  0.6508444  3
    871    870    873    874     1  0.0000000  0.6508444  3
    871    870    873    875     1  0.0000000  0.6508444  3
    871    870    879    880     1  0.0000000  0.6508444  3
    871    870    879    881     1  0.0000000  0.6508444  3
    871    870    879    883     1  0.0000000  0.6508444  3
    872    870    873    876     1  0.0000000  0.6508444  3
    872    870    873    874     1  0.0000000  0.6508444  3
    872    870    873    875     1  0.0000000  0.6508444  3
    872    870    879    880     1  0.0000000  0.6508444  3
    872    870    879    881     1  0.0000000  0.6508444  3
    872    870    879    883     1  0.0000000  0.6508444  3
    873    870    879    880     1  0.0000000  0.6508444  3
    873    870    879    881     1  0.0000000  0.6508444  3
    873    870    879    883     1  0.0000000  0.6508444  3
    874    873    876    882     1  0.0000000  1.0460000  1
    874    873    876    882     1  0.0000000  0.0000000  3
    874    873    876    877     1  0.0000000  0.6508444  3
    874    873    876    878     1  0.0000000  0.6508444  3
    874    873    870    879     1  0.0000000  0.6508444  3
    875    873    876    882     1  0.0000000  1.0460000  1
    875    873    876    882     1  0.0000000  0.0000000  3
    875    873    876    877     1  0.0000000  0.6508444  3
    875    873    876    878     1  0.0000000  0.6508444  3
    875    873    870    879     1  0.0000000  0.6508444  3
    884    887    890    891     1  0.0000000  0.6508444  3
    884    887    890    892     1  0.0000000  0.6508444  3
    885    884    887    890     1  0.0000000  0.6508444  3
    885    884    887    888     1  0.0000000  0.6508444  3
    885    884    887    889     1  0.0000000  0.6508444  3
    885    884    893    894     1  0.0000000  0.6508444  3
    885    884    893    895     1  0.0000000  0.6508444  3
    885    884    893    897     1  0.0000000  0.6508444  3
    886    884    887    890     1  0.0000000  0.6508444  3
    886    884    887    888     1  0.0000000  0.6508444  3
    886    884    887    889     1  0.0000000  0.6508444  3
    886    884    893    894     1  0.0000000  0.6508444  3
    886    884    893    895     1  0.0000000  0.6508444  3
    886    884    893    897     1  0.0000000  0.6508444  3
    887    884    893    894     1  0.0000000  0.6508444  3
    887    884    893    895     1  0.0000000  0.6508444  3
    887    884    893    897     1  0.0000000  0.6508444  3
    888    887    884    893     1  0.0000000  0.6508444  3
    888    887    890    896     1  0.0000000  1.0460000  1
    888    887    890    896     1  0.0000000  0.0000000  3
    888    887    890    891     1  0.0000000  0.6508444  3
    888    887    890    892     1  0.0000000  0.6508444  3
    889    887    884    893     1  0.0000000  0.6508444  3
    889    887    890    896     1  0.0000000  1.0460000  1
    889    887    890    896     1  0.0000000  0.0000000  3
    889    887    890    891     1  0.0000000  0.6508444  3
    889    887    890    892     1  0.0000000  0.6508444  3
    898    901    904    905     1  0.0000000  0.6508444  3
    898    901    904    906     1  0.0000000  0.6508444  3
    899    898    901    904     1  0.0000000  0.6508444  3
    899    898    901    902     1  0.0000000  0.6508444  3
    899    898    901    903     1  0.0000000  0.6508444  3
    899    898    907    908     1  0.0000000  0.6508444  3
    899    898    907    909     1  0.0000000  0.6508444  3
    899    898    907    911     1  0.0000000  0.6508444  3
    900    898    901    904     1  0.0000000  0.6508444  3
    900    898    901    902     1  0.0000000  0.6508444  3
    900    898    901    903     1  0.0000000  0.6508444  3
    900    898    907    908     1  0.0000000  0.6508444  3
    900    898    907    909     1  0.0000000  0.6508444  3
    900    898    907    911     1  0.0000000  0.6508444  3
    901    898    907    908     1  0.0000000  0.6508444  3
    901    898    907    909     1  0.0000000  0.6508444  3
    901    898    907    911     1  0.0000000  0.6508444  3
    902    901    904    910     1  0.0000000  1.0460000  1
    902    901    904    910     1  0.0000000  0.0000000  3
    902    901    904    905     1  0.0000000  0.6508444  3
    902    901    904    906     1  0.0000000  0.6508444  3
    902    901    898    907     1  0.0000000  0.6508444  3
    903    901    904    910     1  0.0000000  1.0460000  1
    903    901    904    910     1  0.0000000  0.0000000  3
    903    901    904    905     1  0.0000000  0.6508444  3
    903    901    904    906     1  0.0000000  0.6508444  3
    903    901    898    907     1  0.0000000  0.6508444  3
    912    915    918    919     1  0.0000000  0.6508444  3
    912    915    918    920     1  0.0000000  0.6508444  3
    913    912    915    918     1  0.0000000  0.6508444  3
    913    912    915    916     1  0.0000000  0.6508444  3
    913    912    915    917     1  0.0000000  0.6508444  3
    913    912    921    922     1  0.0000000  0.6508444  3
    913    912    921    923     1  0.0000000  0.6508444  3
    913    912    921    925     1  0.0000000  0.6508444  3
    914    912    915    918     1  0.0000000  0.6508444  3
    914    912    915    916     1  0.0000000  0.6508444  3
    914    912    915    917     1  0.0000000  0.6508444  3
    914    912    921    922     1  0.0000000  0.6508444  3
    914    912    921    923     1  0.0000000  0.6508444  3
    914    912    921    925     1  0.0000000  0.6508444  3
    915    912    921    922     1  0.0000000  0.6508444  3
    915    912    921    923     1  0.0000000  0.6508444  3
    915    912    921    925     1  0.0000000  0.6508444  3
    916    915    912    921     1  0.0000000  0.6508444  3
    916    915    918    924     1  0.0000000  1.0460000  1
    916    915    918    924     1  0.0000000  0.0000000  3
    916    915    918    919     1  0.0000000  0.6508444  3
    916    915    918    920     1  0.0000000  0.6508444  3
    917    915    912    921     1  0.0000000  0.6508444  3
    917    915    918    924     1  0.0000000  1.0460000  1
    917    915    918    924     1  0.0000000  0.0000000  3
    917    915    918    919     1  0.0000000  0.6508444  3
    917    915    918    920     1  0.0000000  0.6508444  3
    926    929    932    933     1  0.0000000  0.6508444  3
    926    929    932    934     1  0.0000000  0.6508444  3
    927    926    929    932     1  0.0000000  0.6508444  3
    927    926    929    930     1  0.0000000  0.6508444  3
    927    926    929    931     1  0.0000000  0.6508444  3
    927    926    935    936     1  0.0000000  0.6508444  3
    927    926    935    937     1  0.0000000  0.6508444  3
    927    926    935    939     1  0.0000000  0.6508444  3
    928    926    929    932     1  0.0000000  0.6508444  3
    928    926    929    930     1  0.0000000  0.6508444  3
    928    926    929    931     1  0.0000000  0.6508444  3
    928    926    935    936     1  0.0000000  0.6508444  3
    928    926    935    937     1  0.0000000  0.6508444  3
    928    926    935    939     1  0.0000000  0.6508444  3
    929    926    935    936     1  0.0000000  0.6508444  3
    929    926    935    937     1  0.0000000  0.6508444  3
    929    926    935    939     1  0.0000000  0.6508444  3
    930    929    932    938     1  0.0000000  1.0460000  1
    930    929    932    938     1  0.0000000  0.0000000  3
    930    929    932    933     1  0.0000000  0.6508444  3
    930    929    932    934     1  0.0000000  0.6508444  3
    930    929    926    935     1  0.0000000  0.6508444  3
    931    929    932    938     1  0.0000000  1.0460000  1
    931    929    932    938     1  0.0000000  0.0000000  3
    931    929    932    933     1  0.0000000  0.6508444  3
    931    929    932    934     1  0.0000000  0.6508444  3
    931    929    926    935     1  0.0000000  0.6508444  3
    940    943    946    947     1  0.0000000  0.6508444  3
    940    943    946    948     1  0.0000000  0.6508444  3
    941    940    943    946     1  0.0000000  0.6508444  3
    941    940    943    944     1  0.0000000  0.6508444  3
    941    940    943    945     1  0.0000000  0.6508444  3
    941    940    949    950     1  0.0000000  0.6508444  3
    941    940    949    951     1  0.0000000  0.6508444  3
    941    940    949    953     1  0.0000000  0.6508444  3
    942    940    943    946     1  0.0000000  0.6508444  3
    942    940    943    944     1  0.0000000  0.6508444  3
    942    940    943    945     1  0.0000000  0.6508444  3
    942    940    949    950     1  0.0000000  0.6508444  3
    942    940    949    951     1  0.0000000  0.6508444  3
    942    940    949    953     1  0.0000000  0.6508444  3
    943    940    949    950     1  0.0000000  0.6508444  3
    943    940    949    951     1  0.0000000  0.6508444  3
    943    940    949    953     1  0.0000000  0.6508444  3
    944    943    940    949     1  0.0000000  0.6508444  3
    944    943    946    952     1  0.0000000  1.0460000  1
    944    943    946    952     1  0.0000000  0.0000000  3
    944    943    946    947     1  0.0000000  0.6508444  3
    944    943    946    948     1  0.0000000  0.6508444  3
    945    943    940    949     1  0.0000000  0.6508444  3
    945    943    946    952     1  0.0000000  1.0460000  1
    945    943    946    952     1  0.0000000  0.0000000  3
    945    943    946    947     1  0.0000000  0.6508444  3
    945    943    946    948     1  0.0000000  0.6508444  3
    954    957    960    961     1  0.0000000  0.6508444  3
    954    957    960    962     1  0.0000000  0.6508444  3
    955    954    957    960     1  0.0000000  0.6508444  3
    955    954    957    958     1  0.0000000  0.6508444  3
    955    954    957    959     1  0.0000000  0.6508444  3
    955    954    963    964     1  0.0000000  0.6508444  3
    955    954    963    965     1  0.0000000  0.6508444  3
    955    954    963    967     1  0.0000000  0.6508444  3
    956    954    957    960     1  0.0000000  0.6508444  3
    956    954    957    958     1  0.0000000  0.6508444  3
    956    954    957    959     1  0.0000000  0.6508444  3
    956    954    963    964     1  0.0000000  0.6508444  3
    956    954    963    965     1  0.0000000  0.6508444  3
    956    954    963    967     1  0.0000000  0.6508444  3
    957    954    963    964     1  0.0000000  0.6508444  3
    957    954    963    965     1  0.0000000  0.6508444  3
    957    954    963    967     1  0.0000000  0.6508444  3
    958    957    960    966     1  0.0000000  1.0460000  1
    958    957    960    966     1  0.0000000  0.0000000  3
    958    957    960    961     1  0.0000000  0.6508444  3
    958    957    960    962     1  0.0000000  0.6508444  3
    958    957    954    963     1  0.0000000  0.6508444  3
    959    957    960    966     1  0.0000000  1.0460000  1
    959    957    960    966     1  0.0000000  0.0000000  3
    959    957    960    961     1  0.0000000  0.6508444  3
    959    957    960    962     1  0.0000000  0.6508444  3
    959    957    954    963     1  0.0000000  0.6508444  3
    968    971    974    975     1  0.0000000  0.6508444  3
    968    971    974    976     1  0.0000000  0.6508444  3
    969    968    971    974     1  0.0000000  0.6508444  3
    969    968    971    972     1  0.0000000  0.6508444  3
    969    968    971    973     1  0.0000000  0.6508444  3
    969    968    977    978     1  0.0000000  0.6508444  3
    969    968    977    979     1  0.0000000  0.6508444  3
    969    968    977    981     1  0.0000000  0.6508444  3
    970    968    971    974     1  0.0000000  0.6508444  3
    970    968    971    972     1  0.0000000  0.6508444  3
    970    968    971    973     1  0.0000000  0.6508444  3
    970    968    977    978     1  0.0000000  0.6508444  3
    970    968    977    979     1  0.0000000  0.6508444  3
    970    968    977    981     1  0.0000000  0.6508444  3
    971    968    977    978     1  0.0000000  0.6508444  3
    971    968    977    979     1  0.0000000  0.6508444  3
    971    968    977    981     1  0.0000000  0.6508444  3
    972    971    968    977     1  0.0000000  0.6508444  3
    972    971    974    980     1  0.0000000  1.0460000  1
    972    971    974    980     1  0.0000000  0.0000000  3
    972    971    974    975     1  0.0000000  0.6508444  3
    972    971    974    976     1  0.0000000  0.6508444  3
    973    971    968    977     1  0.0000000  0.6508444  3
    973    971    974    980     1  0.0000000  1.0460000  1
    973    971    974    980     1  0.0000000  0.0000000  3
    973    971    974    975     1  0.0000000  0.6508444  3
    973    971    974    976     1  0.0000000  0.6508444  3
    982    985    988    989     1  0.0000000  0.6508444  3
    982    985    988    990     1  0.0000000  0.6508444  3
    983    982    985    988     1  0.0000000  0.6508444  3
    983    982    985    986     1  0.0000000  0.6508444  3
    983    982    985    987     1  0.0000000  0.6508444  3
    983    982    991    992     1  0.0000000  0.6508444  3
    983    982    991    993     1  0.0000000  0.6508444  3
    983    982    991    995     1  0.0000000  0.6508444  3
    984    982    985    988     1  0.0000000  0.6508444  3
    984    982    985    986     1  0.0000000  0.6508444  3
    984    982    985    987     1  0.0000000  0.6508444  3
    984    982    991    992     1  0.0000000  0.6508444  3
    984    982    991    993     1  0.0000000  0.6508444  3
    984    982    991    995     1  0.0000000  0.6508444  3
    985    982    991    992     1  0.0000000  0.6508444  3
    985    982    991    993     1  0.0000000  0.6508444  3
    985    982    991    995     1  0.0000000  0.6508444  3
    986    985    988    994     1  0.0000000  1.0460000  1
    986    985    988    994     1  0.0000000  0.0000000  3
    986    985    988    989     1  0.0000000  0.6508444  3
    986    985    988    990     1  0.0000000  0.6508444  3
    986    985    982    991     1  0.0000000  0.6508444  3
    987    985    988    994     1  0.0000000  1.0460000  1
    987    985    988    994     1  0.0000000  0.0000000  3
    987    985    988    989     1  0.0000000  0.6508444  3
    987    985    988    990     1  0.0000000  0.6508444  3
    987    985    982    991     1  0.0000000  0.6508444  3

;[ system ]
;; Name
;Generic title
;
;[ molecules ]
;; Compound       #mols
;system1              1
