G2Pncore-PETIM in water
50761
    1aaa     N1    1   3.085   0.867   5.962 -0.3333 -0.2138 -0.7400
    1aaa     C1    2   2.937   0.839   5.987  0.4454 -0.0352  0.6685
    1aaa     H1    3   2.925   0.822   6.094  0.9689  1.5304  1.0140
    1aaa     H2    4   2.896   0.937   5.962  1.2032 -0.3084 -1.9113
    1aaa     C2    5   3.121   1.000   6.033  0.1747  0.2211  0.3727
    1aaa     H3    6   3.057   1.011   6.121 -0.1286  1.1502  0.0451
    1aaa     H4    7   3.223   0.998   6.071  0.4445  0.4161 -0.3217
    1aaa     C3    8   3.171   0.752   6.008 -0.2515 -0.5473 -0.5254
    1aaa     H5    9   3.176   0.744   6.117 -1.9178  1.4134 -0.2475
    1aaa     H6   10   3.107   0.668   5.984 -2.0994  0.4338  0.7301
    1aaa     C4   11   3.308   0.737   5.940  0.4670  0.0180  0.3605
    1aaa     H7   12   3.364   0.819   5.987 -0.5200 -0.0990  1.8115
    1aaa     H8   13   3.353   0.645   5.979 -1.9895 -1.3349  0.1413
    1aaa     C5   14   2.869   0.736   5.901 -0.2419 -0.3544 -0.5297
    1aaa     H9   15   2.915   0.639   5.924  1.4608  0.5111 -0.1348
    1aaa    H10   16   2.767   0.726   5.942  0.8480 -0.8685  2.3053
    1aaa     C6   17   3.105   1.122   5.944  0.1370  0.4387  0.0183
    1aaa    H11   18   3.185   1.137   5.871 -1.9206  1.4164 -2.1464
    1aaa    H12   19   3.014   1.115   5.883  0.9305 -3.6454 -1.0457
    1aaa     C7   20   3.067   1.254   6.018  0.3769 -0.2020 -0.3178
    1aaa    H13   21   2.999   1.314   5.956  1.2001 -0.4514 -1.4861
    1aaa    H14   22   3.000   1.235   6.103  1.0721  0.3370  0.3580
    1aaa     C8   23   3.304   0.749   5.782  0.8879 -0.3219 -0.2469
    1aaa    H15   24   3.239   0.668   5.745  0.2827  0.5229 -1.0891
    1aaa    H16   25   3.251   0.841   5.754  0.4561 -1.0204 -1.8185
    1aaa     C9   26   2.864   0.760   5.751 -0.6618  0.0914  0.5995
    1aaa    H17   27   2.821   0.861   5.744  0.2628  0.4983  0.7499
    1aaa    H18   28   2.967   0.767   5.714 -0.6265  1.8487  0.9602
    1aaa    H19   29   3.103   0.871   5.861 -0.5064 -1.9947 -0.8862
    2bbb     N1   30   3.562   1.648   5.915  0.3942 -0.0327 -0.0202
    2bbb     C1   31   3.572   1.690   6.059  0.2277  0.2900 -0.5696
    2bbb     H1   32   3.667   1.670   6.108  1.7144  3.4588 -1.8861
    2bbb     H2   33   3.495   1.633   6.111  0.0638  0.6899 -0.3698
    2bbb     C2   34   3.697   1.639   5.852 -0.0995  0.2465 -0.0503
    2bbb     H3   35   3.757   1.728   5.871  2.3968 -1.2040 -0.6111
    2bbb     H4   36   3.690   1.640   5.743 -0.6014 -0.6221 -0.0340
    2bbb     C3   37   3.486   1.509   5.923 -0.3483  0.1895 -0.5559
    2bbb     H5   38   3.552   1.439   5.976 -1.3801  1.1456  2.1464
    2bbb     H6   39   3.478   1.463   5.824 -1.9946  0.9388 -0.8003
    2bbb     C4   40   3.339   1.505   5.974 -0.0671 -0.0287 -0.5075
    2bbb     H7   41   3.275   1.586   5.936  0.6720  1.4162  1.2110
    2bbb     H8   42   3.352   1.518   6.082  1.0607 -0.3222 -0.5916
    2bbb     C5   43   3.559   1.838   6.078 -0.1362  0.4041 -0.4404
    2bbb     H9   44   3.644   1.887   6.029 -0.4543  0.1861 -1.2179
    2bbb    H10   45   3.560   1.845   6.187 -3.3613  0.4154 -0.3119
    2bbb     C6   46   3.791   1.521   5.879  0.7055  0.0459  0.4360
    2bbb    H11   47   3.747   1.427   5.844  0.2887  0.5010 -0.2740
    2bbb    H12   48   3.799   1.501   5.987  0.9156  0.3961  0.4861
    2bbb     C7   49   3.279   1.366   5.948  0.1436  0.0012 -0.4789
    2bbb    H13   50   3.361   1.296   5.963 -0.0908  0.3507  3.3203
    2bbb    H14   51   3.233   1.361   5.848  0.0163 -1.6127 -0.3581
    2bbb     C8   52   3.935   1.527   5.819  0.0802 -0.1569 -0.8270
    2bbb    H15   53   3.993   1.441   5.855  0.1653  0.1489 -0.2302
    2bbb    H16   54   3.937   1.526   5.709  2.5326  2.0574 -0.9082
    2bbb     C9   55   3.428   1.899   6.030  0.2430 -0.4774 -0.2472
    2bbb    H17   56   3.416   2.001   6.068 -2.2125 -0.6508 -0.3602
    2bbb    H18   57   3.349   1.842   6.080  0.3834  1.8529  2.8803
    2bbb     O1   58   3.185   1.330   6.056 -0.3739 -0.8303  0.2641
    2bbb    H19   59   3.507   1.728   5.881 -1.4382 -1.2153  0.0709
    3bbb     N1   60   3.706   0.595   5.719  0.4627  0.0920 -0.8444
    3bbb     C1   61   3.732   0.441   5.718 -0.0888  0.1569  0.1214
    3bbb     H1   62   3.637   0.404   5.680 -0.5576 -0.1102  1.4801
    3bbb     H2   63   3.756   0.408   5.819  2.6210  1.0429 -0.1285
    3bbb     C2   64   3.830   0.667   5.772 -0.4683  0.5295 -0.2090
    3bbb     H3   65   3.897   0.683   5.687  0.6895  1.2414  0.8009
    3bbb     H4   66   3.882   0.597   5.838 -2.3296 -0.8084 -0.0857
    3bbb     C3   67   3.673   0.643   5.575  0.1916 -0.0306  0.0156
    3bbb     H5   68   3.609   0.564   5.536 -1.4618  1.4966 -0.5207
    3bbb     H6   69   3.767   0.650   5.521  0.4192  0.2694  0.4474
    3bbb     C4   70   3.596   0.779   5.551 -0.9918 -0.0510 -0.3492
    3bbb     H7   71   3.605   0.800   5.444  0.5910  0.5436 -0.1155
    3bbb     H8   72   3.638   0.861   5.611 -0.9994 -1.6843  2.0427
    3bbb     C5   73   3.846   0.386   5.629 -0.6403 -0.1707  0.3136
    3bbb     H9   74   3.936   0.433   5.669 -1.2726 -0.3455  2.0541
    3bbb    H10   75   3.832   0.424   5.527  0.6806 -1.0439 -0.2160
    3bbb     C6   76   3.812   0.799   5.850 -0.2032  0.6054  0.8091
    3bbb    H11   77   3.778   0.877   5.781  1.3771  0.7146  0.1119
    3bbb    H12   78   3.910   0.827   5.889 -0.8446  2.3354  1.2692
    3bbb     C7   79   3.454   0.761   5.592  0.4077  0.3495 -0.3360
    3bbb    H13   80   3.412   0.684   5.527  2.0425 -2.0933  1.3136
    3bbb    H14   81   3.404   0.857   5.576 -1.7938 -0.6816  0.0135
    3bbb     C8   82   3.725   0.789   5.979  0.9047  0.1480  0.4299
    3bbb    H15   83   3.744   0.876   6.043  1.8950  0.1426  0.1602
    3bbb    H16   84   3.618   0.781   5.953  1.0727  1.9395 -1.0208
    3bbb     C9   85   3.842   0.234   5.618 -0.8202  0.1179  0.3370
    3bbb    H17   86   3.892   0.224   5.521  0.4874  0.8105  0.9179
    3bbb    H18   87   3.743   0.187   5.617 -0.8515  0.1821 -0.5787
    3bbb     O1   88   3.440   0.737   5.736 -0.7744  0.2018  0.1358
    3bbb    H19   89   3.635   0.625   5.787  1.4880 -0.5814  0.5712
    4bbb     N1   90   2.429   0.415   5.550  0.2767 -0.4132  0.5507
    4bbb     C1   91   2.493   0.280   5.543 -0.1721 -0.2995  0.5248
    4bbb     H1   92   2.426   0.209   5.590 -0.6984  1.0132  1.8066
    4bbb     H2   93   2.586   0.276   5.601 -1.2644 -1.8625  2.2662
    4bbb     C2   94   2.324   0.420   5.654 -0.6339  0.8741 -0.3635
    4bbb     H3   95   2.374   0.450   5.746 -0.4826 -0.7108  0.1069
    4bbb     H4   96   2.281   0.320   5.659 -1.8036  1.1545 -3.2079
    4bbb     C3   97   2.532   0.523   5.600  0.3703  0.5672  0.4119
    4bbb     H5   98   2.574   0.486   5.693  1.0905 -0.7917 -0.4263
    4bbb     H6   99   2.471   0.611   5.620 -0.6814 -0.0349 -0.0526
    4bbb     C4  100   2.653   0.562   5.511 -0.7036 -0.6499 -0.9086
    4bbb     H7  101   2.625   0.575   5.406  2.6430  0.1795 -1.8235
    4bbb     H8  102   2.717   0.474   5.516 -2.6295 -2.0898  2.7828
    4bbb     C5  103   2.533   0.246   5.393 -0.1505 -0.0365  0.2309
    4bbb     H9  104   2.604   0.323   5.360  1.6632 -1.4568  0.6804
    4bbb    H10  105   2.453   0.259   5.319  1.9560  0.2282 -2.1234
    4bbb     C6  106   2.206   0.514   5.631 -0.4881 -0.1560  0.1610
    4bbb    H11  107   2.219   0.623   5.641 -0.4089 -0.2806  1.7442
    4bbb    H12  108   2.136   0.508   5.716  0.2467  0.1731  0.8108
    4bbb     C7  109   2.725   0.685   5.559 -0.0300 -1.4095  0.0942
    4bbb    H13  110   2.657   0.769   5.544  0.3435 -1.3492 -1.3733
    4bbb    H14  111   2.804   0.702   5.485 -1.1454 -0.2647 -0.8769
    4bbb     C8  112   2.137   0.488   5.504  0.2619  0.0596 -0.5846
    4bbb    H15  113   2.121   0.380   5.493 -0.3959  0.0631  0.2608
    4bbb    H16  114   2.039   0.537   5.504 -0.2490 -0.9217  0.3050
    4bbb     C9  115   2.588   0.107   5.378  0.6084  0.5833 -0.1594
    4bbb    H17  116   2.606   0.082   5.273 -0.1805  0.8078 -0.3622
    4bbb    H18  117   2.529   0.031   5.431 -0.8946  1.3422 -0.6743
    4bbb     O1  118   2.779   0.658   5.695  0.5130 -0.0837  0.1184
    4bbb    H19  119   2.383   0.440   5.461  1.2546 -0.4590  0.0159
    5bbb     N1  120   4.182   2.027   5.960 -0.0606  0.3559  0.1814
    5bbb     C1  121   4.151   2.102   6.091 -0.2398 -0.0790  0.1127
    5bbb     H1  122   4.200   2.199   6.080  4.4932 -2.3262 -1.5032
    5bbb     H2  123   4.198   2.049   6.174 -2.8104 -0.6794  1.2942
    5bbb     C2  124   4.327   2.055   5.924 -0.2051  0.6065  0.5525
    5bbb     H3  125   4.343   2.004   5.829 -2.2451  1.9228 -0.5908
    5bbb     H4  126   4.394   2.013   5.999  0.9852  0.8722 -0.3274
    5bbb     C3  127   4.149   1.878   5.959  0.1251  1.1542 -0.3882
    5bbb     H5  128   4.045   1.876   5.992  0.2480  1.6618  0.0547
    5bbb     H6  129   4.209   1.837   6.040  0.2408  2.9836  0.5074
    5bbb     C4  130   4.188   1.802   5.827  0.3343 -0.0769  0.4106
    5bbb     H7  131   4.297   1.800   5.815  0.4053  0.0617  0.9750
    5bbb     H8  132   4.151   1.855   5.738 -0.7152 -0.9271  0.3204
    5bbb     C5  133   4.002   2.102   6.145 -0.4079 -0.2124  0.3185
    5bbb     H9  134   4.010   2.110   6.254  2.7470 -2.6485  0.3760
    5bbb    H10  135   3.972   1.998   6.131  0.3705 -0.3514 -0.3860
    5bbb     C6  136   4.369   2.202   5.901  0.3215  0.1660 -0.2540
    5bbb    H11  137   4.378   2.251   5.998 -0.9467 -0.1700  0.0527
    5bbb    H12  138   4.282   2.247   5.852  0.2805 -0.0789 -0.4085
    5bbb     C7  139   4.143   1.659   5.839  0.3610  0.4117 -0.0012
    5bbb    H13  140   4.188   1.624   5.934 -1.2555  1.0173  1.0255
    5bbb    H14  141   4.169   1.597   5.752 -1.3683 -0.5956  0.1636
    5bbb     C8  142   4.507   2.213   5.821 -0.3682 -0.3492 -0.4419
    5bbb    H15  143   4.489   2.167   5.723  1.6787  0.2976 -1.1789
    5bbb    H16  144   4.543   2.316   5.810 -1.8834  0.0976 -1.5289
    5bbb     C9  145   3.910   2.201   6.071 -0.4888  0.0229  0.5288
    5bbb    H17  146   3.804   2.173   6.078 -1.1266  2.0206 -0.4543
    5bbb    H18  147   3.933   2.195   5.964 -0.1204 -1.1693  0.6589
    5bbb     O1  148   4.000   1.649   5.862  0.2673  0.0618 -0.3001
    5bbb    H19  149   4.133   2.072   5.880  1.7903 -0.0985 -1.2899
    6bbb     N1  150   3.196   1.971   5.460 -0.2578 -0.3645  0.4950
    6bbb     C1  151   3.235   1.836   5.401  0.3017 -0.1599 -0.2352
    6bbb     H1  152   3.158   1.803   5.331  1.0610  1.0407 -1.6937
    6bbb     H2  153   3.253   1.761   5.478 -0.4257  0.1207  0.2203
    6bbb     C2  154   3.071   2.011   5.386  1.2071  0.7016  0.3994
    6bbb     H3  155   2.990   1.951   5.428  0.9620  0.8378  0.1215
    6bbb     H4  156   3.098   1.989   5.283  0.4258 -3.2998  0.8746
    6bbb     C3  157   3.186   1.980   5.608  0.0748 -0.1899  0.0277
    6bbb     H5  158   3.102   1.914   5.631 -0.5715  0.6347  0.0760
    6bbb     H6  159   3.169   2.084   5.636 -0.1026 -0.3657  0.5839
    6bbb     C4  160   3.316   1.946   5.679  0.1063  0.3846 -0.2717
    6bbb     H7  161   3.399   2.010   5.645  0.4452  0.5965  0.9009
    6bbb     H8  162   3.349   1.844   5.655 -0.1110  0.3319 -0.3453
    6bbb     C5  163   3.368   1.842   5.314  0.4338 -0.3316 -0.0797
    6bbb     H9  164   3.375   1.741   5.273 -1.5473 -0.2035 -0.8730
    6bbb    H10  165   3.454   1.855   5.381  0.3078 -2.9389  0.6755
    6bbb     C6  166   3.028   2.157   5.381 -0.0117 -0.1899  0.2134
    6bbb    H11  167   3.113   2.222   5.359 -0.6252  0.9529  1.1047
    6bbb    H12  168   2.972   2.186   5.471 -1.2728  2.1368 -1.2178
    6bbb     C7  169   3.310   1.941   5.829 -0.0112  0.4382 -0.6220
    6bbb    H13  170   3.232   1.869   5.860 -0.0598  1.4799  1.9150
    6bbb    H14  171   3.285   2.037   5.875 -3.1164  0.2127 -1.6176
    6bbb     C8  172   2.942   2.184   5.259 -0.4447  0.1482 -0.8577
    6bbb    H15  173   2.920   2.291   5.255  0.9141  0.4527 -0.7394
    6bbb    H16  174   2.994   2.141   5.172  1.3079  0.7629 -0.1626
    6bbb     C9  175   3.356   1.939   5.200  0.0842  0.6571  0.4177
    6bbb    H17  176   3.259   1.924   5.151  1.3656  3.8065 -3.6179
    6bbb    H18  177   3.437   1.917   5.130  0.7103 -0.8351  1.5383
    6bbb     O1  178   3.428   1.892   5.890 -0.2537 -0.1240  0.6227
    6bbb    H19  179   3.264   2.036   5.417 -4.0374  1.8806 -2.7593
    7bbb     N1  180   4.017   0.440   6.344 -0.1726  0.3817  0.1578
    7bbb     C1  181   4.001   0.301   6.290 -0.3879  0.2398 -0.4743
    7bbb     H1  182   4.095   0.250   6.311 -0.3437  0.4169 -0.2461
    7bbb     H2  183   3.991   0.301   6.181 -2.1858  0.1053 -0.3426
    7bbb     C2  184   4.162   0.467   6.372 -0.1159 -0.0657  0.3858
    7bbb     H3  185   4.204   0.500   6.277  0.5907 -0.8087  0.4288
    7bbb     H4  186   4.216   0.374   6.388 -0.4148 -0.2094  0.5598
    7bbb     C3  187   3.950   0.542   6.255 -0.0757 -0.1789  0.5038
    7bbb     H5  188   3.977   0.510   6.155  2.8902 -0.0726  1.1703
    7bbb     H6  189   3.989   0.643   6.269 -0.2500 -0.0525  0.0933
    7bbb     C4  190   3.798   0.545   6.259  0.3364  0.3223  0.1892
    7bbb     H7  191   3.769   0.545   6.365 -0.6887 -0.2983 -0.0691
    7bbb     H8  192   3.761   0.452   6.213 -0.9359  0.3653  1.0624
    7bbb     C5  193   3.883   0.222   6.341  0.5732 -0.2584  0.6899
    7bbb     H9  194   3.872   0.128   6.285 -1.5648  1.7106 -2.5133
    7bbb    H10  195   3.791   0.266   6.301  0.1268 -1.7662 -0.0370
    7bbb     C6  196   4.198   0.568   6.480  0.2780  0.1614 -0.1805
    7bbb    H11  197   4.133   0.655   6.475  0.1837  0.2595  1.8473
    7bbb    H12  198   4.296   0.615   6.466  0.1729  0.5785  0.4406
    7bbb     C7  199   3.732   0.662   6.190 -0.0682 -0.2979  0.4927
    7bbb    H13  200   3.760   0.749   6.250  1.6546 -1.5713  1.6669
    7bbb    H14  201   3.624   0.641   6.196 -0.5970  2.1749  0.5708
    7bbb     C8  202   4.187   0.497   6.615  0.0523  0.3561 -0.0821
    7bbb    H15  203   4.231   0.561   6.692 -2.9775 -0.5255  2.6163
    7bbb    H16  204   4.085   0.465   6.637 -0.2501 -0.3730 -2.3205
    7bbb     C9  205   3.877   0.205   6.494  0.5572 -0.3268 -0.0497
    7bbb    H17  206   3.969   0.158   6.531  0.2101 -0.1298  1.1159
    7bbb    H18  207   3.794   0.134   6.509  0.7142 -0.4545  0.2144
    7bbb     O1  208   3.769   0.672   6.043 -0.1224 -0.2342  0.2084
    7bbb    H19  209   3.981   0.436   6.441  2.2760 -0.5224  1.1077
    8bbb     N1  210   4.283   0.046   5.725  0.2597 -0.1817  0.3929
    8bbb     C1  211   4.243   0.093   5.583  0.5527 -0.2037  0.5561
    8bbb     H1  212   4.151   0.038   5.565  0.7852 -1.3405  2.5590
    8bbb     H2  213   4.321   0.071   5.509 -0.5788  0.7687 -1.0007
    8bbb     C2  214   4.427   0.082   5.755 -0.2494 -0.7882 -0.6162
    8bbb     H3  215   4.448   0.049   5.857  2.0586  1.4438 -0.2707
    8bbb     H4  216   4.434   0.191   5.758 -2.2422 -0.6307  1.5740
    8bbb     C3  217   4.175   0.097   5.823 -0.4471  0.4896 -0.2807
    8bbb     H5  218   4.145   0.199   5.797  0.1707  0.7123 -0.1407
    8bbb     H6  219   4.220   0.099   5.922 -2.9173 -0.3702  0.9340
    8bbb     C4  220   4.044   0.008   5.834 -0.4286 -0.3373  0.3163
    8bbb     H7  221   4.000   0.029   5.932  0.3453 -1.2619  0.8829
    8bbb     H8  222   4.079  -0.096   5.832  0.8480  0.0878 -0.6208
    8bbb     C5  223   4.223   0.250   5.564  0.1838  1.1298  0.0673
    8bbb     H9  224   4.296   0.315   5.612 -0.2658  1.0095  0.9404
    8bbb    H10  225   4.131   0.287   5.611 -0.5617  1.5470 -1.6220
    8bbb     C6  226   4.528   0.007   5.667 -0.1325 -0.1753  0.1765
    8bbb    H11  227   4.513   0.042   5.563 -1.1181  1.0013  0.6791
    8bbb    H12  228   4.502  -0.099   5.669  0.7522 -0.3855  0.8946
    8bbb     C7  229   3.941   0.040   5.721  0.0780  0.1041 -1.0375
    8bbb    H13  230   3.856  -0.027   5.742  0.6715 -0.7582 -1.3100
    8bbb    H14  231   3.978   0.016   5.621 -0.3123  0.7145 -1.3338
    8bbb     C8  232   4.675   0.014   5.727 -0.1637 -0.4783 -0.4382
    8bbb    H15  233   4.718   0.114   5.715 -1.5100  0.0905 -0.7960
    8bbb    H16  234   4.661   0.004   5.835  2.3628 -1.7046 -0.1573
    8bbb     C9  235   4.217   0.280   5.411  0.0815 -0.0613 -0.5422
    8bbb    H17  236   4.193   0.385   5.394 -2.4505 -0.7088 -1.4485
    8bbb    H18  237   4.132   0.222   5.372 -1.7159  1.6745  0.5667
    8bbb     O1  238   3.927   0.189   5.726  0.0970  0.2219 -0.0205
    8bbb    H19  239   4.288  -0.057   5.727  0.6030 -0.1760 -0.1029
    9bbb     N1  240   1.888   0.645   5.149  0.3505  0.1805 -0.1880
    9bbb     C1  241   1.834   0.507   5.119 -0.9636 -0.3006  0.5190
    9bbb     H1  242   1.796   0.463   5.211 -1.0178  0.3168  0.7989
    9bbb     H2  243   1.924   0.449   5.100 -1.2024 -0.7666  0.7985
    9bbb     C2  244   1.782   0.737   5.196 -0.3540  0.0955  0.0427
    9bbb     H3  245   1.706   0.747   5.118 -0.3596  1.7251  0.2129
    9bbb     H4  246   1.833   0.832   5.214  2.5793 -0.9972 -1.6983
    9bbb     C3  247   2.000   0.636   5.257  0.7430  0.1375  0.0279
    9bbb     H5  248   1.955   0.562   5.323 -2.2028  0.5902 -1.2909
    9bbb     H6  249   1.999   0.732   5.308 -1.3683  0.3578 -0.3368
    9bbb     C4  250   2.136   0.606   5.193  0.2018 -0.4637 -0.1118
    9bbb     H7  251   2.201   0.694   5.194 -0.6515  0.1728  1.5503
    9bbb     H8  252   2.120   0.583   5.087 -1.2745  1.6635 -0.4045
    9bbb     C5  253   1.733   0.500   4.997  0.0015 -0.3514 -0.0166
    9bbb     H9  254   1.655   0.578   4.995  0.6902  0.3789  0.6129
    9bbb    H10  255   1.688   0.400   4.995  2.6373 -1.7592  2.9250
    9bbb     C6  256   1.710   0.691   5.318 -0.0410  0.5589 -0.5794
    9bbb    H11  257   1.776   0.690   5.405 -0.4622  1.4541 -0.2431
    9bbb    H12  258   1.684   0.585   5.305 -2.4284  0.7241  1.9125
    9bbb     C7  259   2.202   0.490   5.268  0.1742  0.2900 -0.2981
    9bbb    H13  260   2.300   0.483   5.220 -0.9537  0.3666 -2.7668
    9bbb    H14  261   2.144   0.397   5.260  2.0433 -0.9477 -0.2212
    9bbb     C8  262   1.586   0.777   5.351 -0.0582  0.5903 -0.6200
    9bbb    H15  263   1.526   0.805   5.263  0.9454  1.8864 -0.9131
    9bbb    H16  264   1.522   0.711   5.411  1.7147 -0.6802 -0.0168
    9bbb     C9  265   1.815   0.511   4.868 -0.0640 -0.6103 -0.3497
    9bbb    H17  266   1.743   0.516   4.785 -0.1101  1.1381 -0.2322
    9bbb    H18  267   1.877   0.422   4.851  0.1492 -0.4705 -0.3123
    9bbb     O1  268   2.223   0.535   5.400 -0.2759  0.0230 -0.1726
    9bbb    H19  269   1.926   0.687   5.063  1.3781 -0.7625 -0.2186
   10bbb     N1  270   2.830  -0.217   5.741 -0.9874  0.5566  0.2206
   10bbb     C1  271   2.923  -0.201   5.861 -0.1711  0.4267 -0.2053
   10bbb     H1  272   2.870  -0.221   5.954  2.4481  0.9370  1.4954
   10bbb     H2  273   2.964  -0.101   5.869 -1.2446  0.7367  2.6395
   10bbb     C2  274   2.687  -0.227   5.784  0.3238 -0.1324 -0.0776
   10bbb     H3  275   2.634  -0.225   5.689  0.8645  2.2599 -0.3882
   10bbb     H4  276   2.654  -0.142   5.844  3.0244  0.3439  0.8941
   10bbb     C3  277   2.853  -0.098   5.644  0.5047 -0.3460  0.1763
   10bbb     H5  278   2.960  -0.097   5.622  0.2444 -1.5707 -1.2692
   10bbb     H6  279   2.813  -0.006   5.688 -1.9687 -0.8721 -0.8116
   10bbb     C4  280   2.775  -0.122   5.509 -0.8823 -0.1791 -0.5938
   10bbb     H7  281   2.667  -0.129   5.522 -1.0635  0.8094 -1.4011
   10bbb     H8  282   2.817  -0.215   5.470  1.5459  0.4590  0.2495
   10bbb     C5  283   3.053  -0.283   5.851  0.4030 -0.1183 -0.2919
   10bbb     H9  284   3.114  -0.260   5.940 -1.0428  0.7688  0.4997
   10bbb    H10  285   3.119  -0.239   5.775  0.2238 -1.9394 -1.5695
   10bbb     C6  286   2.655  -0.352   5.875 -0.3027  0.0008  0.1444
   10bbb    H11  287   2.683  -0.326   5.978  1.5716  3.4866 -1.0696
   10bbb    H12  288   2.719  -0.436   5.844  1.2726  0.0066  3.0692
   10bbb     C7  289   2.803  -0.006   5.401  0.3094 -0.3645 -0.1473
   10bbb    H13  290   2.774  -0.041   5.301  0.5228  1.6071 -0.9514
   10bbb    H14  291   2.907   0.027   5.413 -0.7786  3.3941  0.4221
   10bbb     C8  292   2.500  -0.375   5.859  0.3597 -0.0367 -0.2467
   10bbb    H15  293   2.451  -0.291   5.908 -0.4314 -0.7386  0.1878
   10bbb    H16  294   2.467  -0.367   5.755  2.3066  3.1272 -0.7566
   10bbb     C9  295   3.040  -0.430   5.835  0.0941  0.9705 -0.3066
   10bbb    H17  296   3.007  -0.469   5.933  2.2237 -0.2266  0.0086
   10bbb    H18  297   3.136  -0.480   5.818 -0.4682 -0.8056  1.3639
   10bbb     O1  298   2.716   0.111   5.438  0.5502  0.5832  0.4112
   10bbb    H19  299   2.864  -0.303   5.694 -1.0691  1.1738 -0.9908
   11bbb     N1  300   5.005   1.967   5.991 -0.0758 -0.6085 -0.6015
   11bbb     C1  301   5.101   2.044   6.085 -0.6302 -0.5265  0.1553
   11bbb     H1  302   5.161   1.959   6.120 -3.0835 -1.2359  3.0925
   11bbb     H2  303   5.046   2.076   6.173  0.0275 -0.3184  0.4960
   11bbb     C2  304   4.974   1.844   6.076  0.0359  0.1092 -0.1235
   11bbb     H3  305   4.921   1.866   6.169 -1.2669 -5.1345  0.6927
   11bbb     H4  306   5.070   1.804   6.108  0.5649  0.3466 -1.3430
   11bbb     C3  307   4.877   2.041   5.953  0.3750  0.5811 -0.3988
   11bbb     H5  308   4.828   1.977   5.880 -1.3659 -0.1795  1.3351
   11bbb     H6  309   4.900   2.141   5.916 -0.6834  1.5111  1.3248
   11bbb     C4  310   4.767   2.075   6.057 -0.0041 -0.2091  0.0947
   11bbb     H7  311   4.814   2.096   6.154  0.2169  1.2739 -0.3073
   11bbb     H8  312   4.710   1.984   6.080 -1.0070  0.3227 -0.2053
   11bbb     C5  313   5.184   2.165   6.036  0.2396  0.0223 -0.6558
   11bbb     H9  314   5.111   2.247   6.032 -0.5832 -0.4585  2.1728
   11bbb    H10  315   5.227   2.155   5.935  1.0186  1.7297 -0.5292
   11bbb     C6  316   4.900   1.725   5.998  0.4484 -0.2644  0.1106
   11bbb    H11  317   4.933   1.719   5.894 -1.4601 -1.5466 -0.4854
   11bbb    H12  318   4.793   1.749   6.007  0.7209  0.4770  1.8003
   11bbb     C7  319   4.667   2.179   6.007 -0.1625  0.0289  0.0226
   11bbb    H13  320   4.718   2.276   5.994 -0.8445 -0.0194 -4.3828
   11bbb    H14  321   4.591   2.181   6.086 -1.9779  1.6040 -1.6641
   11bbb     C8  322   4.921   1.583   6.050  0.6141  0.6192 -0.7226
   11bbb    H15  323   4.859   1.525   5.980 -0.8826  0.3005  0.8047
   11bbb    H16  324   5.028   1.559   6.047  0.5331 -1.4069  4.1816
   11bbb     C9  325   5.294   2.200   6.137 -0.3485 -0.5598  0.1877
   11bbb    H17  326   5.367   2.118   6.140 -1.0086 -1.1463  0.4200
   11bbb    H18  327   5.250   2.221   6.235 -1.0470 -0.0141 -0.2343
   11bbb     O1  328   4.604   2.131   5.886 -0.1733  0.3025  0.6277
   11bbb    H19  329   5.063   1.936   5.912  1.4138  1.6359 -0.4699
   12bbb     N1  330   3.877   2.754   6.279 -0.2373 -0.4386  0.2156
   12bbb     C1  331   3.750   2.799   6.351 -0.6560  0.7590  0.0540
   12bbb     H1  332   3.752   2.749   6.448 -0.2927 -1.7959 -1.2050
   12bbb     H2  333   3.668   2.757   6.292 -2.2113 -0.8067  3.0557
   12bbb     C2  334   4.002   2.742   6.368  0.2470  0.1720 -0.1464
   12bbb     H3  335   4.020   2.639   6.397 -1.3286  0.1828  0.9606
   12bbb     H4  336   3.988   2.802   6.458  0.2215 -1.6203  1.0776
   12bbb     C3  337   3.863   2.615   6.207  0.6495  0.3282 -0.4729
   12bbb     H5  338   3.763   2.577   6.229  0.7159 -0.0326 -0.7857
   12bbb     H6  339   3.931   2.551   6.264 -0.2182 -0.7222 -0.5866
   12bbb     C4  340   3.910   2.578   6.065  0.3040 -0.3007 -1.3405
   12bbb     H7  341   4.015   2.604   6.051  0.4948 -0.9347 -1.1024
   12bbb     H8  342   3.856   2.648   5.999 -0.9729 -0.0401 -0.0591
   12bbb     C5  343   3.728   2.947   6.377  0.1362  0.4975 -0.1104
   12bbb     H9  344   3.711   3.007   6.287 -2.0962 -0.1158 -0.1548
   12bbb    H10  345   3.814   2.988   6.432  0.8371 -2.4608  1.2165
   12bbb     C6  346   4.132   2.796   6.299  0.4035  0.0507 -0.2898
   12bbb    H11  347   4.118   2.904   6.287 -0.8107  0.0955  1.2217
   12bbb    H12  348   4.133   2.755   6.197  3.3682  4.2529 -2.2501
   12bbb     C7  349   3.876   2.434   6.024 -0.2639 -0.0416  0.5619
   12bbb    H13  350   3.905   2.436   5.918 -0.7004  5.7739  0.2230
   12bbb    H14  351   3.767   2.424   6.023 -0.4152  1.4577  0.3661
   12bbb     C8  352   4.260   2.780   6.387 -0.1715  0.0284 -0.0055
   12bbb    H15  353   4.355   2.808   6.338  0.9532 -0.5762  1.7370
   12bbb    H16  354   4.247   2.850   6.469 -0.7157 -1.1560  0.9503
   12bbb     C9  355   3.611   2.977   6.461 -0.0046  0.4673  0.4922
   12bbb    H17  356   3.519   2.949   6.409  0.1507 -0.0370  0.4811
   12bbb    H18  357   3.600   3.086   6.457 -3.0657  0.2782  1.5605
   12bbb     O1  358   3.942   2.334   6.114 -0.3703 -0.4279  0.3710
   12bbb    H19  359   3.891   2.821   6.202 -0.3777  1.5376  1.8290
   13bbb     N1  360   2.590   1.982   5.446  0.1838  0.1524  0.0921
   13bbb     C1  361   2.660   2.071   5.553  0.0211  0.2078 -0.2052
   13bbb     H1  362   2.573   2.112   5.604  0.1972 -2.0272  2.0667
   13bbb     H2  363   2.711   2.149   5.496 -1.5235 -0.6086 -2.8856
   13bbb     C2  364   2.486   1.898   5.520 -0.6875 -0.1860  0.4384
   13bbb     H3  365   2.426   1.967   5.578 -0.2621  0.0849  0.5614
   13bbb     H4  366   2.538   1.836   5.593  0.6266  0.1212 -0.2085
   13bbb     C3  367   2.520   2.048   5.323 -0.2409 -0.4421  0.4294
   13bbb     H5  368   2.500   2.153   5.345  0.3318 -0.0910 -0.6145
   13bbb     H6  369   2.428   1.994   5.301 -1.5727  1.6097  0.6509
   13bbb     C4  370   2.608   2.036   5.188  0.2487 -0.3149  0.5166
   13bbb     H7  371   2.551   2.061   5.098  0.8574  0.5474  0.3562
   13bbb     H8  372   2.637   1.931   5.174 -1.2280 -0.5388 -1.2870
   13bbb     C5  373   2.767   2.014   5.650  0.1226  0.1229 -0.5633
   13bbb     H9  374   2.866   1.999   5.605  1.2892 -0.2067  1.9094
   13bbb    H10  375   2.729   1.917   5.685 -1.2764  0.3085 -1.4717
   13bbb     C6  376   2.387   1.805   5.442 -0.2488 -0.1212 -0.6841
   13bbb    H11  377   2.441   1.742   5.371  0.6845 -0.9183  0.6720
   13bbb    H12  378   2.307   1.861   5.392 -0.7773 -0.7476 -0.5522
   13bbb     C7  379   2.728   2.140   5.169  0.5957  0.1360 -0.4527
   13bbb    H13  380   2.698   2.244   5.183 -0.9229 -0.5959  2.5031
   13bbb    H14  381   2.783   2.123   5.075  0.1518 -0.5266 -0.5986
   13bbb     C8  382   2.321   1.713   5.549  0.0881  0.6803 -0.8161
   13bbb    H15  383   2.339   1.608   5.526 -0.3376  0.7756 -1.6145
   13bbb    H16  384   2.360   1.741   5.648  0.8188  0.4269 -1.0218
   13bbb     C9  385   2.803   2.112   5.768  0.0027 -0.4148 -0.1845
   13bbb    H17  386   2.863   2.057   5.840 -1.3431  0.1598  1.4492
   13bbb    H18  387   2.721   2.152   5.829  0.1733  1.5760 -1.1658
   13bbb     O1  388   2.816   2.118   5.276  0.3807  0.0912  0.5145
   13bbb    H19  389   2.662   1.917   5.411  1.0531  0.3922  1.3493
   14bbb     N1  390   3.716   2.234   5.057 -0.4495 -0.9289  0.3051
   14bbb     C1  391   3.733   2.083   5.067 -0.4518 -0.1862  0.0575
   14bbb     H1  392   3.801   2.049   4.988 -0.5896  0.2209 -0.2371
   14bbb     H2  393   3.634   2.039   5.064 -0.3108 -0.5520  0.6480
   14bbb     C2  394   3.714   2.264   4.907  0.3900  0.0633 -0.5938
   14bbb     H3  395   3.643   2.197   4.860 -0.9687  1.2376 -0.2903
   14bbb     H4  396   3.806   2.222   4.866  0.1071  0.2813 -1.4863
   14bbb     C3  397   3.574   2.269   5.115  0.4039  0.3298  0.8546
   14bbb     H5  398   3.554   2.376   5.120 -0.2772  0.3285 -1.0678
   14bbb     H6  399   3.589   2.234   5.217  3.3528 -1.5259 -0.0604
   14bbb     C4  400   3.445   2.207   5.043 -1.0750 -0.7331  0.1103
   14bbb     H7  401   3.478   2.110   5.006  2.8097 -0.1003  1.4799
   14bbb     H8  402   3.422   2.279   4.964  2.1462  1.2164  0.7610
   14bbb     C5  403   3.797   2.038   5.202 -0.1242  0.5294 -0.4188
   14bbb     H9  404   3.721   2.043   5.281  1.5317 -3.5220  1.7186
   14bbb    H10  405   3.880   2.101   5.237 -1.0810  0.9463  1.1979
   14bbb     C6  406   3.694   2.411   4.863 -0.0974 -0.0508 -0.5859
   14bbb    H11  407   3.781   2.469   4.896 -1.4672  0.9926  1.3419
   14bbb    H12  408   3.616   2.462   4.920  1.8748  0.7760  1.5032
   14bbb     C7  409   3.329   2.181   5.141  1.3611  0.3492 -0.1724
   14bbb    H13  410   3.245   2.157   5.074  0.5130 -1.4893  1.4442
   14bbb    H14  411   3.312   2.276   5.194  0.6456 -0.0201  0.2799
   14bbb     C8  412   3.678   2.433   4.709 -0.2042  0.0599  0.2299
   14bbb    H15  413   3.588   2.384   4.667 -0.7322  0.3884  0.9650
   14bbb    H16  414   3.669   2.540   4.691 -1.6446 -0.2112 -0.9026
   14bbb     C9  415   3.841   1.890   5.191  0.2892 -0.1029  0.9493
   14bbb    H17  416   3.911   1.868   5.272  0.7796  1.4046  0.9808
   14bbb    H18  417   3.897   1.860   5.101  0.5755 -0.3148  1.1957
   14bbb     O1  418   3.347   2.077   5.243 -0.1396  0.0790  0.2176
   14bbb    H19  419   3.800   2.276   5.099  0.2918 -1.6093 -0.4626
   15bbb     N1  420   4.502   0.002   6.574  0.0624 -0.6957  0.3233
   15bbb     C1  421   4.473  -0.091   6.455  0.1229 -0.1013 -0.2586
   15bbb     H1  422   4.558  -0.159   6.445  0.9370  0.8791 -0.2121
   15bbb     H2  423   4.473  -0.021   6.372  1.4599 -1.6011 -1.6053
   15bbb     C2  424   4.645   0.057   6.550 -0.1928 -0.1117  0.3682
   15bbb     H3  425   4.700  -0.036   6.536  1.2609  0.8016 -0.2163
   15bbb     H4  426   4.682   0.102   6.642  0.3433 -0.5135  0.3546
   15bbb     C3  427   4.402   0.116   6.590  0.2734  0.0855 -0.9256
   15bbb     H5  428   4.306   0.065   6.584  0.9689 -1.2998 -0.8397
   15bbb     H6  429   4.403   0.184   6.504  2.8723  3.4026  1.4654
   15bbb     C4  430   4.410   0.202   6.719  0.3668 -0.1306 -0.5565
   15bbb     H7  431   4.513   0.237   6.733  1.1541 -3.0905  2.2148
   15bbb     H8  432   4.396   0.134   6.804  0.8755  0.3775 -0.0556
   15bbb     C5  433   4.337  -0.151   6.473  0.0613  0.5822  0.3274
   15bbb     H9  434   4.255  -0.081   6.450 -0.2053 -0.7103 -3.3637
   15bbb    H10  435   4.324  -0.174   6.579  1.1069  0.9460  0.5459
   15bbb     C6  436   4.672   0.155   6.432  0.4210  0.3046  0.4527
   15bbb    H11  437   4.632   0.255   6.451 -2.4441 -0.7346  0.2722
   15bbb    H12  438   4.615   0.133   6.342 -3.1586  0.1762  2.5608
   15bbb     C7  439   4.296   0.308   6.734 -0.2838  0.3651  0.3107
   15bbb    H13  440   4.319   0.387   6.806  1.2656  1.4378 -1.2693
   15bbb    H14  441   4.202   0.266   6.770 -0.0125 -0.1877  0.3811
   15bbb     C8  442   4.823   0.158   6.403 -0.5481  0.1374  0.8070
   15bbb    H15  443   4.853   0.057   6.375  2.1652  1.2059 -0.4703
   15bbb    H16  444   4.847   0.234   6.328 -0.0031  0.1709  1.0089
   15bbb     C9  445   4.320  -0.275   6.385 -0.2179 -0.3131  0.1666
   15bbb    H17  446   4.405  -0.342   6.399 -0.5838 -0.5986  1.1542
   15bbb    H18  447   4.309  -0.231   6.286  0.8022  1.1419  0.6757
   15bbb     O1  448   4.280   0.380   6.607 -0.2566 -0.0615 -0.1517
   15bbb    H19  449   4.501  -0.057   6.659  1.5109  2.9632  3.1653
   16bbb     N1  450   3.780   0.653   6.947 -0.0223 -0.7496  0.2659
   16bbb     C1  451   3.669   0.748   6.904 -0.3095  0.5071 -0.5090
   16bbb     H1  452   3.585   0.721   6.969 -0.2258  3.9228  1.2321
   16bbb     H2  453   3.631   0.745   6.802  0.3993 -0.1185 -0.7586
   16bbb     C2  454   3.758   0.626   7.098  0.1904 -0.1014 -0.1057
   16bbb     H3  455   3.679   0.551   7.107 -0.3203  0.4743  0.2606
   16bbb     H4  456   3.722   0.723   7.132 -1.1339 -0.1045 -1.4066
   16bbb     C3  457   3.761   0.524   6.883 -0.1775  0.3988 -0.0610
   16bbb     H5  458   3.656   0.496   6.888 -0.1227  0.2519  0.2953
   16bbb     H6  459   3.822   0.453   6.940  1.9487  1.7137 -0.5683
   16bbb     C4  460   3.816   0.495   6.735 -0.4783 -0.2566  0.4174
   16bbb     H7  461   3.915   0.542   6.734 -0.2196 -0.6361  2.6295
   16bbb     H8  462   3.758   0.558   6.666  2.6049  0.9070 -1.3162
   16bbb     C5  463   3.711   0.891   6.931  0.0475 -0.2136  0.0788
   16bbb     H9  464   3.800   0.922   6.875  0.8076 -0.6560  1.0119
   16bbb    H10  465   3.752   0.903   7.032  1.9984 -1.2923 -0.5437
   16bbb     C6  466   3.888   0.587   7.180 -0.0586  0.8988 -0.1359
   16bbb    H11  467   3.960   0.670   7.174 -2.7442  3.3156 -3.2968
   16bbb    H12  468   3.936   0.496   7.142 -1.5030  0.8994 -2.1139
   16bbb     C7  469   3.827   0.345   6.697 -0.9389  0.2497  0.0801
   16bbb    H13  470   3.735   0.290   6.717 -0.7060  0.3199  1.4370
   16bbb    H14  471   3.915   0.318   6.757 -1.5626  0.3423  1.0570
   16bbb     C8  472   3.844   0.578   7.328  0.1939 -0.3046 -0.1571
   16bbb    H15  473   3.772   0.654   7.360  0.1753  0.3535 -1.6660
   16bbb    H16  474   3.798   0.480   7.344  0.2683 -0.1879  0.8211
   16bbb     C9  475   3.605   0.999   6.914  1.1133 -0.6861  1.1461
   16bbb    H17  476   3.633   1.098   6.952 -1.1000 -0.4494  2.3738
   16bbb    H18  477   3.520   0.968   6.977 -1.8774 -0.9576 -2.6373
   16bbb     O1  478   3.857   0.337   6.555 -0.0370  0.0773 -0.0171
   16bbb    H19  479   3.871   0.696   6.925 -0.1460 -1.5320 -1.9897
   17bbb     N1  480   4.969  -0.461   5.595 -0.4587 -0.3155  0.4921
   17bbb     C1  481   5.067  -0.512   5.692  0.1989 -0.4454  0.0081
   17bbb     H1  482   5.007  -0.558   5.771 -0.3365 -3.4918 -1.9975
   17bbb     H2  483   5.120  -0.420   5.719 -1.3356  0.5068 -0.0831
   17bbb     C2  484   4.872  -0.563   5.560  0.9608  0.4229  0.1582
   17bbb     H3  485   4.813  -0.583   5.649 -0.5294 -3.0952 -1.4193
   17bbb     H4  486   4.917  -0.662   5.548 -0.2471 -0.2076  0.6190
   17bbb     C3  487   4.885  -0.351   5.655 -0.1379 -1.1249 -0.3036
   17bbb     H5  488   4.839  -0.376   5.751  0.6576  0.1506  0.4400
   17bbb     H6  489   4.806  -0.329   5.583  1.3262  1.5341 -1.2169
   17bbb     C4  490   4.963  -0.216   5.674  0.1750 -0.9297 -0.0582
   17bbb     H7  491   5.013  -0.184   5.582  0.4843  1.0492  0.7299
   17bbb     H8  492   5.047  -0.223   5.744 -0.4003  1.0908  0.9346
   17bbb     C5  493   5.174  -0.616   5.630  1.2761 -0.6630 -0.3939
   17bbb     H9  494   5.226  -0.558   5.553  0.6673  0.4018 -0.0274
   17bbb    H10  495   5.132  -0.702   5.575  0.1195 -0.6008  0.3511
   17bbb     C6  496   4.779  -0.529   5.439 -0.4881 -0.2651 -0.8202
   17bbb    H11  497   4.836  -0.526   5.345 -0.7368 -0.1525 -0.9663
   17bbb    H12  498   4.744  -0.427   5.459  1.1601  0.0345  0.8537
   17bbb     C7  499   4.883  -0.101   5.731  0.5404  0.5294  0.2890
   17bbb    H13  500   4.942  -0.010   5.744  0.9929  0.3204 -0.2626
   17bbb    H14  501   4.855  -0.138   5.831 -1.4332 -0.2285 -0.5087
   17bbb     C8  502   4.658  -0.622   5.426 -0.8047 -0.2772  0.3714
   17bbb    H15  503   4.598  -0.618   5.518  0.1200  0.4882  0.9659
   17bbb    H16  504   4.599  -0.596   5.337 -0.1311 -1.4669 -0.4438
   17bbb     C9  505   5.278  -0.658   5.735 -0.2723  0.5810  0.9622
   17bbb    H17  506   5.362  -0.715   5.692 -0.3690 -0.6118  2.2534
   17bbb    H18  507   5.229  -0.729   5.803  0.0928 -1.1846 -0.5480
   17bbb     O1  508   4.760  -0.086   5.658  0.4417 -0.2193  0.2188
   17bbb    H19  509   5.026  -0.437   5.512  2.0256 -3.0069  1.2421
   18bbb     N1  510   4.606  -0.024   5.146 -0.1593  0.3764 -0.3492
   18bbb     C1  511   4.622  -0.022   4.991  0.3334 -0.4172 -0.9959
   18bbb     H1  512   4.625   0.082   4.958  0.3157  0.0675  0.4528
   18bbb     H2  513   4.533  -0.072   4.953  0.4777 -1.3209 -0.1950
   18bbb     C2  514   4.729   0.047   5.205  0.9144 -1.0245 -0.3272
   18bbb     H3  515   4.733   0.146   5.160  0.4819 -1.8661 -2.3154
   18bbb     H4  516   4.816   0.002   5.158 -0.0343 -1.2130 -1.9725
   18bbb     C3  517   4.480   0.046   5.194 -0.5520 -0.1469  0.5958
   18bbb     H5  518   4.485   0.028   5.302 -1.2125 -0.4630  0.5769
   18bbb     H6  519   4.394  -0.014   5.165  1.4884 -2.4705 -1.1245
   18bbb     C4  520   4.467   0.193   5.147 -0.2788 -0.2210  0.4762
   18bbb     H7  521   4.467   0.194   5.038  2.3466  0.2055  0.4099
   18bbb     H8  522   4.553   0.253   5.180 -0.6868  0.5832  0.0948
   18bbb     C5  523   4.749  -0.090   4.936 -0.0743 -0.5847  0.1782
   18bbb     H9  524   4.763  -0.189   4.981  0.2171 -0.7150 -0.1924
   18bbb    H10  525   4.847  -0.043   4.954 -0.2926  0.5276 -1.3553
   18bbb     C6  526   4.742   0.052   5.359  0.1411 -0.2469  0.3225
   18bbb    H11  527   4.734  -0.053   5.391  0.5558  0.1333  1.7447
   18bbb    H12  528   4.660   0.108   5.405  0.6131 -0.1679  1.0821
   18bbb     C7  529   4.339   0.249   5.204  0.5469  0.0630  0.2334
   18bbb    H13  530   4.255   0.197   5.157  2.1746 -1.9864 -0.5661
   18bbb    H14  531   4.333   0.352   5.167 -1.7036 -0.2641 -0.4420
   18bbb     C8  532   4.874   0.112   5.402  0.4498 -0.0111  0.5196
   18bbb    H15  533   4.891   0.089   5.508 -0.5767 -1.6922  0.3597
   18bbb    H16  534   4.954   0.060   5.348 -0.4071  0.9058 -1.7052
   18bbb     C9  535   4.740  -0.099   4.785  0.3537  0.7653 -0.1655
   18bbb    H17  536   4.646  -0.148   4.756 -1.0063  0.6974  3.8458
   18bbb    H18  537   4.827  -0.148   4.738  0.4773  0.6010  0.2302
   18bbb     O1  538   4.344   0.242   5.349 -0.3451 -0.8627 -0.8705
   18bbb    H19  539   4.609  -0.123   5.175  0.2883  0.2679 -0.7614
   19bbb     N1  540   1.653   1.123   5.800 -0.2534 -0.1206  1.1176
   19bbb     C1  541   1.533   1.196   5.851  0.2530  0.5630  0.6026
   19bbb     H1  542   1.515   1.258   5.762  1.4388  1.1548  0.7590
   19bbb     H2  543   1.572   1.265   5.926  0.0715  2.5348 -1.0169
   19bbb     C2  544   1.724   1.047   5.911  0.4798 -0.5072  0.0430
   19bbb     H3  545   1.798   0.988   5.855 -1.0605  0.1929 -2.9557
   19bbb     H4  546   1.647   0.982   5.952 -0.1854  0.5501  0.4979
   19bbb     C3  547   1.614   1.020   5.700 -0.0800 -0.4038  0.3341
   19bbb     H5  548   1.542   0.952   5.747 -0.3075 -0.0426  0.5124
   19bbb     H6  549   1.704   0.966   5.670  0.4023 -0.5949  2.0162
   19bbb     C4  550   1.562   1.088   5.574 -0.3582 -0.2955 -0.8502
   19bbb     H7  551   1.628   1.169   5.539  0.7773 -0.1329  1.4853
   19bbb     H8  552   1.465   1.135   5.595  0.9933  1.0005  3.3650
   19bbb     C5  553   1.409   1.121   5.890 -0.4176  0.5542  0.3309
   19bbb     H9  554   1.441   1.060   5.976 -1.2961 -0.3439  0.0433
   19bbb    H10  555   1.366   1.062   5.808  0.0291  2.0469 -1.0367
   19bbb     C6  556   1.800   1.133   6.012 -0.2507  0.0744  0.7945
   19bbb    H11  557   1.736   1.215   6.049 -3.9563 -2.0985 -0.2185
   19bbb    H12  558   1.881   1.174   5.951  1.2151 -1.2173  1.8105
   19bbb     C7  559   1.534   0.994   5.453  0.1987  0.8334 -0.3244
   19bbb    H13  560   1.503   1.046   5.362  2.3907 -1.9960 -2.9136
   19bbb    H14  561   1.438   0.943   5.469  0.6471 -0.3330 -1.1619
   19bbb     C8  562   1.872   1.040   6.118 -0.7172  0.6430  0.7362
   19bbb    H15  563   1.930   0.964   6.063  0.2783  2.3510 -0.6816
   19bbb    H16  564   1.938   1.102   6.179  0.1644 -0.2633  0.7261
   19bbb     C9  565   1.294   1.208   5.924 -0.9294  0.0105 -0.1629
   19bbb    H17  566   1.203   1.149   5.939 -0.7345  0.2197  2.3026
   19bbb    H18  567   1.287   1.275   5.838  0.8175 -0.6106 -0.8399
   19bbb     O1  568   1.636   0.897   5.418  0.7452  0.1858 -0.3166
   19bbb    H19  569   1.711   1.192   5.750 -1.8343  0.4406 -0.0650
   20bbb     N1  570   2.044   1.035   4.762 -0.0587  0.3878  0.3222
   20bbb     C1  571   2.156   1.047   4.653 -0.3061  0.0263 -0.6511
   20bbb     H1  572   2.097   1.037   4.562  0.3695 -0.6028 -1.0255
   20bbb     H2  573   2.225   0.963   4.647 -1.7226 -1.2212 -0.2774
   20bbb     C2  574   1.940   1.146   4.739 -0.5470 -0.1562 -0.2976
   20bbb     H3  575   1.989   1.238   4.770 -0.2095 -0.9129  1.5454
   20bbb     H4  576   1.854   1.127   4.804 -0.4995 -0.1724 -0.2400
   20bbb     C3  577   1.982   0.902   4.739  0.4661  0.7406  0.6700
   20bbb     H5  578   1.942   0.897   4.637 -3.3670  2.8350  1.8765
   20bbb     H6  579   1.901   0.907   4.812 -1.5928  2.4484 -1.5733
   20bbb     C4  580   2.076   0.780   4.767  0.6349  0.0795 -0.1887
   20bbb     H7  581   2.107   0.786   4.872  0.6194 -1.0031 -0.1134
   20bbb     H8  582   2.166   0.790   4.705 -0.5680  0.1715 -2.0014
   20bbb     C5  583   2.231   1.182   4.659  0.0220  0.5172 -0.1254
   20bbb     H9  584   2.280   1.204   4.754  0.9742 -4.7905  0.9528
   20bbb    H10  585   2.165   1.268   4.642 -0.1167  0.7108  1.2458
   20bbb     C6  586   1.885   1.159   4.590  0.0830 -0.2753 -0.1612
   20bbb    H11  587   1.868   1.064   4.537 -1.1910  1.1922 -2.5670
   20bbb    H12  588   1.962   1.211   4.533 -0.0388 -0.6807 -0.7082
   20bbb     C7  589   2.001   0.645   4.758  0.5065 -0.4709  0.5735
   20bbb    H13  590   2.076   0.565   4.752  3.9168  2.3953  1.6182
   20bbb    H14  591   1.944   0.653   4.664  1.0542 -1.3486  0.1516
   20bbb     C8  592   1.756   1.238   4.582  0.2626  0.3008  0.4341
   20bbb    H15  593   1.726   1.241   4.477 -3.0478  2.6130  1.2732
   20bbb    H16  594   1.677   1.199   4.648  1.3057  0.4535  1.8068
   20bbb     C9  595   2.350   1.183   4.561  0.3561 -0.6169 -0.1717
   20bbb    H17  596   2.431   1.122   4.601  0.4916  0.7525  1.7661
   20bbb    H18  597   2.390   1.285   4.565  0.2425 -0.6030  1.7969
   20bbb     O1  598   1.900   0.638   4.867  0.2306 -0.5453 -0.1800
   20bbb    H19  599   2.096   1.038   4.850  0.1551 -1.6632  0.3228
   21bbb     N1  600   2.292  -0.777   6.252  0.5080 -0.3989  0.8148
   21bbb     C1  601   2.360  -0.908   6.193 -0.2117  0.4058 -0.5276
   21bbb     H1  602   2.323  -0.927   6.093 -0.0245 -0.8780 -0.3833
   21bbb     H2  603   2.322  -0.984   6.261 -3.2629  2.0999 -0.2051
   21bbb     C2  604   2.327  -0.756   6.399  0.7092  0.5418 -0.4494
   21bbb     H3  605   2.422  -0.704   6.408  0.7068  0.3482  0.9820
   21bbb     H4  606   2.332  -0.857   6.442 -0.8500  0.8996  0.6652
   21bbb     C3  607   2.318  -0.648   6.168  0.8287 -0.6389 -0.2464
   21bbb     H5  608   2.416  -0.606   6.191 -0.2021  1.0078  1.4548
   21bbb     H6  609   2.244  -0.573   6.195  1.2297  0.7202 -2.6809
   21bbb     C4  610   2.310  -0.661   6.012 -0.8722 -0.2846 -0.0194
   21bbb     H7  611   2.216  -0.704   5.976 -0.2710 -1.0077 -0.7947
   21bbb     H8  612   2.386  -0.737   5.987 -0.4443  0.1404 -0.0271
   21bbb     C5  613   2.519  -0.910   6.189 -0.3504  0.4225 -0.1401
   21bbb     H9  614   2.561  -0.875   6.284 -1.3850 -1.9835  1.3245
   21bbb    H10  615   2.547  -0.841   6.108 -0.1198 -0.2511 -0.6448
   21bbb     C6  616   2.223  -0.665   6.465 -0.2268 -0.4474  0.0564
   21bbb    H11  617   2.125  -0.676   6.417  0.6162 -1.4609 -1.5300
   21bbb    H12  618   2.245  -0.559   6.446 -1.1440  0.1776  2.2711
   21bbb     C7  619   2.323  -0.537   5.933 -0.1361 -0.1262  0.3750
   21bbb    H13  620   2.269  -0.460   5.988  0.5534 -0.2280  1.2073
   21bbb    H14  621   2.296  -0.543   5.826 -1.6247  0.9375  0.6659
   21bbb     C8  622   2.208  -0.694   6.622 -0.2976 -0.0539 -0.4670
   21bbb    H15  623   2.176  -0.798   6.640  0.9959 -0.3043  0.4574
   21bbb    H16  624   2.306  -0.681   6.669 -1.3060  0.7784  1.5070
   21bbb     C9  625   2.579  -1.047   6.160 -0.6543  0.1425  0.4064
   21bbb    H17  626   2.685  -1.039   6.187 -0.7454  2.8192  0.2658
   21bbb    H18  627   2.573  -1.070   6.053  1.2955 -1.7951  0.6432
   21bbb     O1  628   2.463  -0.506   5.920  0.6971 -0.1470  0.1169
   21bbb    H19  629   2.191  -0.792   6.237  0.4134  0.9385  0.0313
   22bbb     N1  630   2.732  -0.764   5.385 -0.1730 -0.1036  0.0157
   22bbb     C1  631   2.588  -0.721   5.396 -0.3798 -0.3027 -0.0747
   22bbb     H1  632   2.545  -0.717   5.296 -1.0409 -0.3122  0.2025
   22bbb     H2  633   2.596  -0.619   5.435 -1.6453  0.5228 -1.8416
   22bbb     C2  634   2.802  -0.688   5.270 -0.2885  0.2128  0.6931
   22bbb     H3  635   2.837  -0.591   5.305  0.3780  0.5375 -0.7775
   22bbb     H4  636   2.740  -0.675   5.181  2.2341  2.1977 -0.9220
   22bbb     C3  637   2.816  -0.749   5.512  0.0381 -0.4616  0.4202
   22bbb     H5  638   2.921  -0.768   5.490  0.2992  1.4962 -0.2692
   22bbb     H6  639   2.787  -0.832   5.577 -0.9175 -0.4634  0.0065
   22bbb     C4  640   2.812  -0.613   5.590  0.4159  0.3011 -0.0080
   22bbb     H7  641   2.713  -0.612   5.638  1.1110 -0.9003  1.5405
   22bbb     H8  642   2.824  -0.525   5.526 -1.2752  0.1249 -0.6201
   22bbb     C5  643   2.493  -0.800   5.492  0.3031 -0.0141  0.0933
   22bbb     H9  644   2.395  -0.751   5.478  0.6076  0.9221  1.1301
   22bbb    H10  645   2.525  -0.788   5.596 -1.2110  0.7483  0.5044
   22bbb     C6  646   2.922  -0.760   5.206  0.6089 -0.4531 -0.0057
   22bbb    H11  647   2.887  -0.839   5.138  1.4704  1.3276 -2.6941
   22bbb    H12  648   2.986  -0.807   5.282  1.3550  0.4479 -0.0693
   22bbb     C7  649   2.921  -0.604   5.699 -0.4830 -0.5282 -0.1022
   22bbb    H13  650   3.010  -0.649   5.653  0.8727  2.1384 -0.2648
   22bbb    H14  651   2.887  -0.668   5.781 -0.5154 -0.5371 -0.1227
   22bbb     C8  652   2.999  -0.662   5.122 -0.1790  0.0786  0.7857
   22bbb    H15  653   3.037  -0.577   5.180  1.4116  0.3263 -0.5610
   22bbb    H16  654   3.091  -0.705   5.081  0.6579  1.1748  1.4813
   22bbb     C9  655   2.478  -0.950   5.454 -0.1735 -0.3147 -0.3220
   22bbb    H17  656   2.473  -0.969   5.346 -1.2673 -0.8623 -0.1873
   22bbb    H18  657   2.386  -0.990   5.498 -0.6078  1.0241  0.0109
   22bbb     O1  658   2.945  -0.462   5.722  0.3523 -0.3697  0.6843
   22bbb    H19  659   2.722  -0.864   5.363 -0.1313 -0.7364  2.5619
   23ccc     C1  660   4.656   1.452   6.354  0.1733 -0.4686 -0.1632
   23ccc     H1  661   4.626   1.374   6.283  1.1069 -0.7617 -0.2552
   23ccc     H2  662   4.622   1.552   6.327  0.7352 -0.1773  0.1815
   23ccc     C2  663   4.807   1.454   6.368  0.7048  0.1399  0.8077
   23ccc     H3  664   4.847   1.543   6.418  0.9938  0.7626 -0.4978
   23ccc     H4  665   4.844   1.376   6.436  0.9436  1.4811  2.2943
   23ccc     C3  666   4.877   1.437   6.230 -0.7358 -0.1288 -0.0188
   23ccc     H5  667   4.836   1.361   6.163 -0.2165  0.2933 -0.8244
   23ccc     H6  668   4.983   1.417   6.252 -0.2752  1.2275 -0.9104
   23ccc     N1  669   4.587   1.413   6.482 -0.3651 -0.0230  0.4766
   23ccc     H7  670   4.485   1.411   6.468 -0.1694 -0.3494 -1.0758
   23ccc     H8  671   4.612   1.322   6.523 -0.6069 -0.2225  0.1821
   23ccc     O1  672   4.864   1.565   6.177  0.4415 -0.5448  0.1552
   23ccc    H17  673   4.597   1.488   6.553 -0.6673  1.3490 -0.8822
   24ccc     C1  674   5.677   2.402   6.029  0.1475 -0.2703 -0.9465
   24ccc     H1  675   5.690   2.497   6.082  0.6420 -1.9180  2.1604
   24ccc     H2  676   5.611   2.412   5.943  0.5107  0.1848 -1.1776
   24ccc     C2  677   5.607   2.299   6.120 -0.0611 -0.7252  0.2786
   24ccc     H3  678   5.597   2.204   6.064 -1.2515 -0.5292  0.1289
   24ccc     H4  679   5.664   2.287   6.213 -2.1840 -0.8488  1.6272
   24ccc     C3  680   5.473   2.354   6.164  0.7231 -0.0927  0.0578
   24ccc     H5  681   5.481   2.463   6.155  0.4800  0.0433  1.3560
   24ccc     H6  682   5.470   2.323   6.269  3.1410  1.9588  0.8300
   24ccc     N1  683   5.805   2.351   5.966 -0.2690  0.2295 -0.4297
   24ccc     H7  684   5.787   2.272   5.903 -0.6356  0.0307 -0.0863
   24ccc     H8  685   5.854   2.423   5.911  4.0247 -0.1239  2.4469
   24ccc     O1  686   5.363   2.308   6.079 -0.5129  0.3170  0.2226
   24ccc    H17  687   5.869   2.320   6.040 -1.0513  0.2924  0.2948
   25ccc     C1  688   4.326   2.363   6.609 -0.5883  0.0662 -0.2522
   25ccc     H1  689   4.263   2.379   6.696  0.9479  1.0576  0.7058
   25ccc     H2  690   4.400   2.287   6.636 -0.7499  0.2866  0.8531
   25ccc     C2  691   4.413   2.484   6.561  0.0900  0.3989 -0.2246
   25ccc     H3  692   4.489   2.498   6.639  0.6942 -0.4550 -0.6418
   25ccc     H4  693   4.461   2.470   6.464 -1.7553 -0.0784 -1.1199
   25ccc     C3  694   4.346   2.628   6.555 -0.7368 -0.1450 -0.7699
   25ccc     H5  695   4.421   2.708   6.565 -1.5504  0.3141  3.3479
   25ccc     H6  696   4.278   2.650   6.638  3.4664  0.0872  3.0473
   25ccc     N1  697   4.243   2.305   6.504 -0.1136 -0.2278  0.2397
   25ccc     H7  698   4.168   2.244   6.539  0.0853 -1.5817 -1.5546
   25ccc     H8  699   4.201   2.378   6.444 -3.3793 -1.2262  1.1262
   25ccc     O1  700   4.286   2.645   6.433  0.3850  0.0434  0.2574
   25ccc    H17  701   4.308   2.242   6.454  0.4893 -0.6026  1.4503
   26ccc     C1  702   3.763   3.042   6.928  0.2040  0.1436 -0.1509
   26ccc     H1  703   3.855   3.076   6.881 -0.7691  2.4707 -0.4788
   26ccc     H2  704   3.785   2.983   7.017 -0.7067 -1.6678 -1.0684
   26ccc     C2  705   3.679   2.952   6.832  0.4799  0.0678 -0.1524
   26ccc     H3  706   3.714   2.849   6.844 -2.9755 -1.3263 -0.8121
   26ccc     H4  707   3.574   2.951   6.862  0.4197 -1.1028 -0.3458
   26ccc     C3  708   3.699   3.012   6.690 -0.4558 -0.7077 -0.0381
   26ccc     H5  709   3.806   3.002   6.669  0.0650 -0.6054  2.2264
   26ccc     H6  710   3.665   3.116   6.686 -0.7648 -0.8227 -0.4831
   26ccc     N1  711   3.695   3.166   6.968 -0.0679 -0.1059  0.1096
   26ccc     H7  712   3.605   3.140   7.010  0.8700 -2.1049  0.9943
   26ccc     H8  713   3.743   3.221   7.041  0.0836  2.4396 -1.7805
   26ccc     O1  714   3.622   2.935   6.601 -0.7640  0.5772 -1.1965
   26ccc    H17  715   3.674   3.233   6.892  0.0645  0.0379  0.1996
   27ccc     C1  716   1.937   1.866   5.512  0.0981 -0.3274  0.8861
   27ccc     H1  717   2.002   1.865   5.425  3.7002  0.1727  3.3663
   27ccc     H2  718   1.975   1.952   5.566 -0.8065  0.9414 -0.4388
   27ccc     C2  719   1.947   1.726   5.579 -0.7257 -0.2670 -0.0620
   27ccc     H3  720   1.880   1.714   5.665 -0.4000  0.6021  0.3218
   27ccc     H4  721   1.932   1.645   5.507  1.1385 -1.3146  0.6597
   27ccc     C3  722   2.095   1.709   5.634 -0.4563 -0.1011  0.3517
   27ccc     H5  723   2.108   1.608   5.675  1.8884 -0.6889 -1.6149
   27ccc     H6  724   2.117   1.777   5.717  0.2510 -1.7333  1.5614
   27ccc     N1  725   1.791   1.901   5.477 -0.0900  0.6099  0.7188
   27ccc     H7  726   1.781   1.992   5.430  1.8676  0.2375 -0.5560
   27ccc     H8  727   1.750   1.828   5.417 -1.0513  0.9416  0.9547
   27ccc     O1  728   2.183   1.744   5.530 -0.6719  0.0840 -0.2451
   27ccc    H17  729   1.735   1.918   5.561 -0.6634  0.8816  0.2938
   28ccc     C1  730   2.901   2.524   5.712  0.0146 -0.2701 -0.5914
   28ccc     H1  731   2.861   2.546   5.811  0.4166 -2.4061  0.1101
   28ccc     H2  732   2.823   2.476   5.653  0.1512  0.0572 -1.0499
   28ccc     C2  733   3.011   2.422   5.746  0.6257  0.9148 -0.8394
   28ccc     H3  734   3.065   2.382   5.660  3.2429 -0.6206  1.3767
   28ccc     H4  735   3.083   2.470   5.813  2.1335 -1.7983 -0.4241
   28ccc     C3  736   2.963   2.298   5.827 -0.0800  0.4371 -0.0958
   28ccc     H5  737   2.899   2.321   5.913  1.1265  1.7377  0.4920
   28ccc     H6  738   3.049   2.240   5.865 -0.3064 -0.2144 -0.5524
   28ccc     N1  739   2.956   2.647   5.634 -0.2974 -0.5740  0.6196
   28ccc     H7  740   2.897   2.732   5.633  2.3238  1.3957 -1.3886
   28ccc     H8  741   3.049   2.682   5.660 -1.4563  3.0036  0.6012
   28ccc     O1  742   2.887   2.226   5.728  0.2615  0.4005 -0.2789
   28ccc    H17  743   2.970   2.620   5.536 -0.8262  0.5600  0.2142
   29ccc     C1  744   3.921   2.286   4.295  0.0728 -0.4938 -0.6379
   29ccc     H1  745   3.944   2.388   4.265 -2.3349 -0.4257 -2.5649
   29ccc     H2  746   3.839   2.238   4.242 -0.4700 -0.1245 -0.1465
   29ccc     C2  747   3.912   2.279   4.447 -0.1046 -0.0201  0.1127
   29ccc     H3  748   3.905   2.173   4.473 -0.9626 -0.0035 -0.0075
   29ccc     H4  749   4.003   2.324   4.488 -1.1918  1.1489  1.3387
   29ccc     C3  750   3.782   2.359   4.497  0.0907 -0.0152  0.1728
   29ccc     H5  751   3.687   2.309   4.472 -1.0139  0.7511  2.4950
   29ccc     H6  752   3.795   2.454   4.445  3.0788 -1.9137 -2.9223
   29ccc     N1  753   4.036   2.208   4.239 -0.3302  0.3361  0.2063
   29ccc     H7  754   4.118   2.243   4.292 -2.9067 -1.0681  5.9509
   29ccc     H8  755   4.017   2.107   4.244  0.7452  0.1758  2.3951
   29ccc     O1  756   3.793   2.379   4.644  0.0156  0.5339 -0.2645
   29ccc    H17  757   4.040   2.235   4.140  0.7351 -0.6315 -0.0401
   30ccc     C1  758   3.607   1.468   5.062  0.8225  0.9640  0.0965
   30ccc     H1  759   3.668   1.409   5.131 -0.1417  0.0599  0.1951
   30ccc     H2  760   3.649   1.471   4.962 -2.9453  1.3789 -1.6220
   30ccc     C2  761   3.593   1.606   5.116  0.2202  0.2518 -0.3074
   30ccc     H3  762   3.532   1.675   5.056 -0.5584 -0.4712 -0.3582
   30ccc     H4  763   3.548   1.595   5.215  0.1615 -0.6472 -0.4269
   30ccc     C3  764   3.734   1.668   5.149  0.9048  0.1001 -0.5225
   30ccc     H5  765   3.794   1.659   5.057  0.9892  0.8331 -0.5470
   30ccc     H6  766   3.785   1.611   5.227  1.0694  0.7088 -0.1837
   30ccc     N1  767   3.473   1.396   5.058  0.0653 -0.3095  0.2419
   30ccc     H7  768   3.401   1.462   5.027  0.4837 -0.0061 -0.0927
   30ccc     H8  769   3.470   1.316   4.994 -0.5802 -0.7697  0.8235
   30ccc     O1  770   3.719   1.807   5.191  0.4086  0.0054 -0.0660
   30ccc    H17  771   3.444   1.364   5.152  1.5729  1.6865  1.4539
   31ccc     C1  772   5.199   0.130   6.729 -0.4251  0.3846  0.0269
   31ccc     H1  773   5.271   0.173   6.659  1.4024 -0.7257  1.1476
   31ccc     H2  774   5.226   0.025   6.737  1.8595  0.9777  0.8030
   31ccc     C2  775   5.051   0.152   6.699  0.1123 -0.1015  0.7187
   31ccc     H3  776   4.994   0.066   6.737 -1.8292  1.0300  0.4413
   31ccc     H4  777   5.020   0.245   6.747 -0.7132  0.1514 -0.2766
   31ccc     C3  778   5.021   0.164   6.549  0.4223 -0.2139 -0.3911
   31ccc     H5  779   5.039   0.068   6.498 -1.9613 -2.3954  2.5083
   31ccc     H6  780   5.090   0.240   6.510  1.8692 -0.5091  1.4591
   31ccc     N1  781   5.244   0.183   6.867 -0.1217 -0.9567  0.3211
   31ccc     H7  782   5.234   0.285   6.875  2.3041 -0.7324  1.2507
   31ccc     H8  783   5.196   0.145   6.949  3.2775 -1.3272  2.3464
   31ccc     O1  784   4.887   0.196   6.527 -0.2441 -0.1615  0.6296
   31ccc    H17  785   5.344   0.160   6.880  0.2129  0.5079  0.5333
   32ccc     C1  786   3.927  -0.483   6.367 -0.5911  0.2657 -0.0623
   32ccc     H1  787   3.926  -0.513   6.262 -0.8582 -2.2444  0.5928
   32ccc     H2  788   3.920  -0.374   6.368  0.8312  0.3929 -0.9140
   32ccc     C2  789   4.049  -0.524   6.450 -0.3906  0.1395 -0.4056
   32ccc     H3  790   4.030  -0.478   6.548 -2.0044  0.8527 -1.0097
   32ccc     H4  791   4.041  -0.633   6.458 -3.8560  0.3415  0.8576
   32ccc     C3  792   4.186  -0.475   6.389  0.1290  0.8417  0.4311
   32ccc     H5  793   4.192  -0.490   6.281 -1.9056  0.4609  0.3320
   32ccc     H6  794   4.270  -0.537   6.425 -1.4466 -0.6453  1.7144
   32ccc     N1  795   3.789  -0.525   6.432  0.3629 -0.4941 -0.3449
   32ccc     H7  796   3.775  -0.472   6.519 -0.5713  2.0534 -1.9203
   32ccc     H8  797   3.714  -0.487   6.373  1.7282  2.9050 -0.1348
   32ccc     O1  798   4.204  -0.339   6.430  0.2754 -0.1753 -0.0552
   32ccc    H17  799   3.780  -0.626   6.449  1.3425 -0.1026  3.2688
   33ccc     C1  800   4.109   0.499   7.727 -0.7577 -0.9405 -0.4153
   33ccc     H1  801   4.094   0.392   7.711 -0.1497 -1.0553 -0.2298
   33ccc     H2  802   4.049   0.545   7.806 -0.2052 -0.1162 -0.4644
   33ccc     C2  803   4.080   0.581   7.598  0.2289  0.7026 -0.5206
   33ccc     H3  804   4.116   0.684   7.614 -2.3256  1.2076  3.0429
   33ccc     H4  805   4.147   0.530   7.528 -0.2801  0.1196 -0.5891
   33ccc     C3  806   3.940   0.576   7.546  0.2539  0.5259  0.2481
   33ccc     H5  807   3.877   0.659   7.580  1.2528  1.8682 -1.0409
   33ccc     H6  808   3.898   0.476   7.565  1.7135  0.0108  0.8598
   33ccc     N1  809   4.252   0.512   7.779  0.5958  0.0716 -0.0564
   33ccc     H7  810   4.320   0.508   7.701  2.1624  0.9477  1.2157
   33ccc     H8  811   4.272   0.606   7.815 -3.1783  1.0852 -0.1947
   33ccc     O1  812   3.959   0.591   7.410  0.2650  0.5705  0.1253
   33ccc    H17  813   4.277   0.440   7.848  2.2147 -0.5450 -1.2191
   34ccc     C1  814   3.428   1.256   6.530  0.2789 -0.5554  0.2579
   34ccc     H1  815   3.400   1.328   6.607  0.3496 -1.4131  1.1192
   34ccc     H2  816   3.333   1.203   6.519 -0.2835  0.1130  1.6244
   34ccc     C2  817   3.533   1.158   6.596  0.1480  0.0626 -0.0730
   34ccc     H3  818   3.542   1.062   6.543  1.7967 -0.0650  0.3735
   34ccc     H4  819   3.634   1.201   6.590  0.2391  0.0204  1.0615
   34ccc     C3  820   3.497   1.120   6.745 -0.7120  0.2309 -0.8399
   34ccc     H5  821   3.395   1.086   6.764 -0.0432 -2.3334 -1.4444
   34ccc     H6  822   3.524   1.204   6.810 -1.2760  0.7702 -1.2854
   34ccc     N1  823   3.463   1.331   6.407 -0.1923 -0.1881 -0.0335
   34ccc     H7  824   3.545   1.392   6.422 -0.4240  0.5438 -1.5572
   34ccc     H8  825   3.491   1.259   6.338  1.0671 -0.6520  0.9239
   34ccc     O1  826   3.581   1.006   6.773  0.7334  0.2604  0.3450
   34ccc    H17  827   3.393   1.395   6.366  0.6163  1.6539  1.3710
   35ccc     C1  828   4.599  -1.091   5.320  0.2163  0.3321 -0.2108
   35ccc     H1  829   4.497  -1.080   5.357  0.0950 -2.7986  0.7114
   35ccc     H2  830   4.635  -1.190   5.349 -0.7778 -0.3133 -1.0609
   35ccc     C2  831   4.690  -0.985   5.374 -0.0121  0.5249  0.5300
   35ccc     H3  832   4.714  -1.002   5.480 -0.0575 -0.3719  0.4015
   35ccc     H4  833   4.783  -0.998   5.317 -0.6022 -1.2795 -0.0829
   35ccc     C3  834   4.631  -0.848   5.348  0.3376  0.4294  0.1458
   35ccc     H5  835   4.529  -0.843   5.390  0.2230 -0.1022 -0.0657
   35ccc     H6  836   4.623  -0.836   5.239 -0.6749  0.5870  0.2195
   35ccc     N1  837   4.596  -1.094   5.175  0.2216  0.0417 -0.2350
   35ccc     H7  838   4.537  -1.022   5.129  0.6900  0.9236  0.5078
   35ccc     H8  839   4.691  -1.077   5.140  0.1216  1.3526  0.0686
   35ccc     O1  840   4.711  -0.755   5.414 -0.3068 -0.1373 -0.4912
   35ccc    H17  841   4.572  -1.184   5.132  0.4798  0.3405 -1.0123
   36ccc     C1  842   5.544  -0.435   6.099  0.6734 -0.1804 -0.4259
   36ccc     H1  843   5.645  -0.445   6.059  0.4777 -1.1790 -0.6875
   36ccc     H2  844   5.514  -0.514   6.168 -0.4836 -0.2360 -0.9755
   36ccc     C2  845   5.439  -0.426   5.983 -0.1208  0.0169  0.3260
   36ccc     H3  846   5.347  -0.374   6.013  0.7990  2.0729 -0.1934
   36ccc     H4  847   5.467  -0.364   5.897 -2.5762  0.7972  0.0126
   36ccc     C3  848   5.405  -0.558   5.923 -0.4098  0.3138 -0.9448
   36ccc     H5  849   5.354  -0.609   6.006  2.5742 -0.0765  0.7711
   36ccc     H6  850   5.494  -0.615   5.894  0.6212  1.0313  0.6383
   36ccc     N1  851   5.547  -0.308   6.183 -0.2322 -0.0434  0.4213
   36ccc     H7  852   5.457  -0.278   6.224 -1.4384 -0.7250 -1.6027
   36ccc     H8  853   5.610  -0.318   6.264  0.1559 -0.7994  0.0382
   36ccc     O1  854   5.317  -0.534   5.810 -0.4408 -0.1522  0.0510
   36ccc    H17  855   5.570  -0.229   6.120 -0.3953 -0.8201 -0.6390
   37ccc     C1  856   5.039   0.479   5.268 -0.0079  0.2388  0.2720
   37ccc     H1  857   4.968   0.468   5.186 -0.7440 -1.3219  1.0705
   37ccc     H2  858   5.118   0.405   5.256  0.0834  0.3581  0.1348
   37ccc     C2  859   4.974   0.469   5.407 -0.3152 -0.1681  0.1817
   37ccc     H3  860   5.042   0.525   5.473 -0.9867  0.0421  0.7201
   37ccc     H4  861   4.876   0.518   5.400 -1.6726 -2.7732 -0.4050
   37ccc     C3  862   4.964   0.326   5.453  0.3145  0.1038  0.3772
   37ccc     H5  863   4.924   0.322   5.555  1.4430 -0.1122  0.8205
   37ccc     H6  864   5.063   0.279   5.454 -0.6112 -2.0034 -0.9234
   37ccc     N1  865   5.101   0.617   5.232  0.2783  0.2516 -0.7035
   37ccc     H7  866   5.134   0.604   5.135  2.2522  2.0582 -0.3392
   37ccc     H8  867   5.033   0.694   5.234 -0.6845 -0.5114 -2.1918
   37ccc     O1  868   4.868   0.255   5.371  0.2424 -0.0342 -0.3309
   37ccc    H17  869   5.178   0.640   5.296 -0.1759  2.9819 -1.0055
   38ccc     C1  870   4.834   0.218   4.492  0.2014 -0.4360  0.1933
   38ccc     H1  871   4.909   0.191   4.566  1.1850 -0.3845 -0.7599
   38ccc     H2  872   4.834   0.327   4.483  0.4540 -0.4991 -0.5952
   38ccc     C2  873   4.699   0.188   4.562  0.8796 -0.6977  0.3573
   38ccc     H3  874   4.676   0.248   4.651 -1.2698 -2.2880  0.9679
   38ccc     H4  875   4.622   0.210   4.487 -0.5469  0.9179  2.1685
   38ccc     C3  876   4.678   0.048   4.606  0.7054  0.2889  0.3894
   38ccc     H5  877   4.716  -0.036   4.546  0.5142 -1.2376  2.3207
   38ccc     H6  878   4.571   0.028   4.613  0.6710  0.5469  0.5847
   38ccc     N1  879   4.856   0.154   4.354 -0.2345 -0.4707 -0.4407
   38ccc     H7  880   4.932   0.207   4.308  0.3453 -0.4235  0.5424
   38ccc     H8  881   4.885   0.055   4.360 -0.1729 -0.3402  2.5924
   38ccc     O1  882   4.734   0.038   4.740 -0.2888 -0.2726 -0.0524
   38ccc    H17  883   4.767   0.171   4.304 -0.9678  0.2681  1.0744
   39ccc     C1  884   1.802   0.686   6.464  0.2650 -0.3061  0.3792
   39ccc     H1  885   1.908   0.706   6.476 -0.2163  1.4764  2.1637
   39ccc     H2  886   1.795   0.596   6.402  1.8037  0.1486 -0.5065
   39ccc     C2  887   1.734   0.805   6.380  0.6317 -0.1122  0.3826
   39ccc     H3  888   1.655   0.755   6.323  0.8272 -0.5701  0.5125
   39ccc     H4  889   1.686   0.879   6.446 -2.5285 -0.3586 -1.4655
   39ccc     C3  890   1.838   0.874   6.286 -0.4415 -0.4946 -0.6496
   39ccc     H5  891   1.885   0.791   6.232  0.4927  0.3514 -1.1828
   39ccc     H6  892   1.917   0.929   6.338 -1.1137 -1.5018  1.5295
   39ccc     N1  893   1.747   0.646   6.598 -0.0769  0.1525 -0.4022
   39ccc     H7  894   1.648   0.619   6.588  0.4007 -1.1682 -2.0350
   39ccc     H8  895   1.797   0.565   6.639  0.9067  0.6988 -0.5085
   39ccc     O1  896   1.772   0.975   6.202  0.7827 -0.0305  0.5771
   39ccc    H17  897   1.757   0.724   6.665 -0.5393  0.2731 -0.4733
   40ccc     C1  898   1.344   1.411   6.313 -0.4260 -0.0145  0.1722
   40ccc     H1  899   1.370   1.496   6.376  0.3240 -0.1639  0.0760
   40ccc     H2  900   1.440   1.361   6.297  0.2782 -0.2871  4.1842
   40ccc     C2  901   1.274   1.463   6.186 -0.7080 -0.2803  0.1904
   40ccc     H3  902   1.197   1.536   6.214  0.1729  0.4601  0.7413
   40ccc     H4  903   1.355   1.518   6.136  0.3829  1.9771  4.0293
   40ccc     C3  904   1.217   1.356   6.098  0.6821 -0.0382 -0.2871
   40ccc     H5  905   1.160   1.404   6.018 -0.0580  0.4591  0.5201
   40ccc     H6  906   1.141   1.293   6.146  0.2818  1.3613  0.9879
   40ccc     N1  907   1.247   1.317   6.385 -0.2185  0.8412 -0.1086
   40ccc     H7  908   1.159   1.370   6.395 -0.0144  1.0536  0.6706
   40ccc     H8  909   1.228   1.229   6.336 -0.9148  2.2887 -2.5960
   40ccc     O1  910   1.325   1.279   6.042 -0.0776 -0.3013 -0.4209
   40ccc    H17  911   1.281   1.297   6.481  0.0911  1.0400 -0.1762
   41ccc     C1  912   1.856   1.638   4.526  0.0664  0.6614  1.2046
   41ccc     H1  913   1.841   1.645   4.418  1.1708  1.3095  1.0774
   41ccc     H2  914   1.925   1.559   4.552  1.9646  0.7036 -2.8887
   41ccc     C2  915   1.717   1.612   4.593 -1.4207 -0.2085 -0.0854
   41ccc     H3  916   1.717   1.630   4.701 -3.7542 -1.0456  0.1199
   41ccc     H4  917   1.641   1.681   4.553 -0.4367  1.5247  0.9028
   41ccc     C3  918   1.682   1.470   4.572 -0.2965  0.3733  0.3383
   41ccc     H5  919   1.662   1.453   4.465 -2.1862 -1.1744  0.8785
   41ccc     H6  920   1.598   1.441   4.636  3.4675 -1.5894  5.0570
   41ccc     N1  921   1.919   1.768   4.578 -0.1843  0.0828 -0.3672
   41ccc     H7  922   2.015   1.787   4.544  0.0219 -0.1334  0.0814
   41ccc     H8  923   1.859   1.850   4.561 -0.4095  1.1070  4.0732
   41ccc     O1  924   1.782   1.376   4.619 -0.2065 -0.1062  0.2456
   41ccc    H17  925   1.931   1.755   4.680  2.2637 -1.8799 -0.7972
   42ccc     C1  926   2.477   1.036   4.111  1.0173 -0.2864  0.1332
   42ccc     H1  927   2.568   1.035   4.170  1.4040  1.0745 -0.4116
   42ccc     H2  928   2.491   1.127   4.053 -0.6270  0.4233  0.7949
   42ccc     C2  929   2.359   1.062   4.204  0.0732  0.1528  0.4549
   42ccc     H3  930   2.306   1.149   4.162 -1.4416 -1.5370 -1.3539
   42ccc     H4  931   2.295   0.974   4.223  0.0375  0.6314  2.7932
   42ccc     C3  932   2.413   1.097   4.347  0.5146 -0.0756 -0.4369
   42ccc     H5  933   2.493   1.171   4.342 -0.6386  1.1769 -1.2659
   42ccc     H6  934   2.444   1.001   4.391 -0.7854  0.0703  0.8543
   42ccc     N1  935   2.472   0.914   4.021 -0.1801  0.6544  0.2528
   42ccc     H7  936   2.488   0.827   4.073 -2.2770  0.1451  0.1353
   42ccc     H8  937   2.383   0.908   3.969 -0.2555 -2.0131  0.5375
   42ccc     O1  938   2.304   1.152   4.426  0.3007  0.3974  0.3820
   42ccc    H17  939   2.540   0.920   3.943  0.3062 -2.3434  0.3317
   43ccc     C1  940   1.868  -0.483   6.720  1.1322 -0.1470  0.1916
   43ccc     H1  941   1.801  -0.570   6.716 -0.1139  0.8343 -1.6843
   43ccc     H2  942   1.920  -0.473   6.625  0.6599 -1.0813 -0.1851
   43ccc     C2  943   1.978  -0.498   6.832  0.6871 -0.2894 -0.0293
   43ccc     H3  944   2.036  -0.405   6.838 -0.8617  0.7151 -0.0420
   43ccc     H4  945   1.933  -0.509   6.931  1.0829 -0.3692  0.1438
   43ccc     C3  946   2.069  -0.614   6.804 -0.4016 -0.4930 -0.1218
   43ccc     H5  947   2.011  -0.705   6.820  0.7739 -1.2023  0.3004
   43ccc     H6  948   2.150  -0.609   6.879  1.6484  1.3349 -2.2904
   43ccc     N1  949   1.776  -0.358   6.743 -0.2104  0.0723 -0.2248
   43ccc     H7  950   1.701  -0.354   6.673 -1.6139 -1.8464  1.0953
   43ccc     H8  951   1.744  -0.347   6.840  2.9843 -0.8364  1.0613
   43ccc     O1  952   2.108  -0.604   6.672 -1.0464 -0.3248 -0.1444
   43ccc    H17  953   1.830  -0.274   6.716 -1.0235  0.0396 -2.0796
   44ccc     C1  954   2.385  -1.431   6.259  0.1703  0.4897  0.7829
   44ccc     H1  955   2.384  -1.422   6.150  0.0124  3.9501  0.9647
   44ccc     H2  956   2.309  -1.361   6.295 -1.2888 -0.7981  0.3118
   44ccc     C2  957   2.529  -1.398   6.308  0.0962  0.0980  0.3018
   44ccc     H3  958   2.533  -1.382   6.416 -0.2163  2.2607  0.0414
   44ccc     H4  959   2.591  -1.484   6.280  1.0057  1.0131 -0.5595
   44ccc     C3  960   2.595  -1.278   6.226 -0.6116 -0.9891 -0.3994
   44ccc     H5  961   2.597  -1.296   6.118  0.7150  1.3225 -0.8361
   44ccc     H6  962   2.698  -1.263   6.262 -0.4820 -0.1744 -1.0767
   44ccc     N1  963   2.340  -1.576   6.294 -0.0164  0.0940 -0.0833
   44ccc     H7  964   2.409  -1.652   6.298 -0.8551 -0.6537  0.4034
   44ccc     H8  965   2.298  -1.573   6.388 -1.2072 -0.8984 -0.5551
   44ccc     O1  966   2.530  -1.154   6.254 -0.2248 -0.3234  0.4282
   44ccc    H17  967   2.256  -1.608   6.245 -1.1333  0.6647  1.3660
   45ccc     C1  968   3.043  -0.595   4.732  0.5454  0.6859  0.1590
   45ccc     H1  969   2.944  -0.579   4.687 -0.1732  1.4591  1.9454
   45ccc     H2  970   3.050  -0.697   4.769  0.2948  1.4170  2.3500
   45ccc     C2  971   3.067  -0.510   4.857 -0.5860  0.2383  0.3174
   45ccc     H3  972   3.163  -0.540   4.899 -0.5724  0.6052  0.5491
   45ccc     H4  973   3.078  -0.407   4.821 -0.2358  0.8155  2.0211
   45ccc     C3  974   2.944  -0.503   4.947  0.4693 -0.6972  0.1646
   45ccc     H5  975   2.862  -0.482   4.877  0.2309 -3.4186 -0.4661
   45ccc     H6  976   2.963  -0.419   5.015 -0.6816 -0.2485 -0.0498
   45ccc     N1  977   3.140  -0.574   4.619 -0.2101 -0.3980  0.3451
   45ccc     H7  978   3.104  -0.621   4.534 -0.6300 -0.2941  0.4617
   45ccc     H8  979   3.141  -0.472   4.602 -0.6320 -0.3125  0.8231
   45ccc     O1  980   2.911  -0.618   5.015  0.3843  0.8150  0.2054
   45ccc    H17  981   3.235  -0.604   4.644  0.1831  0.3333 -0.2454
   46ccc     C1  982   2.710  -1.376   5.556  0.5577  0.5358  0.4074
   46ccc     H1  983   2.669  -1.428   5.469  0.0656 -0.3808  1.1644
   46ccc     H2  984   2.639  -1.391   5.639  0.9474 -1.7347  0.4007
   46ccc     C2  985   2.706  -1.224   5.529 -0.6285 -0.0870 -0.9492
   46ccc     H3  986   2.750  -1.168   5.612 -0.7139  0.3583 -1.1966
   46ccc     H4  987   2.768  -1.205   5.441  1.6750  0.7003  0.7580
   46ccc     C3  988   2.570  -1.167   5.497  0.4341 -0.2501 -0.1785
   46ccc     H5  989   2.491  -1.202   5.564 -0.5428  0.3255 -1.0020
   46ccc     H6  990   2.550  -1.193   5.392 -0.4889 -2.3021  0.4587
   46ccc     N1  991   2.843  -1.440   5.582  0.2414 -0.2029 -0.9610
   46ccc     H7  992   2.840  -1.531   5.630 -0.9269  0.3280  0.0171
   46ccc     H8  993   2.899  -1.450   5.496  0.8920  1.4546 -0.7761
   46ccc     O1  994   2.586  -1.020   5.515  0.2731 -0.1594 -0.3179
   46ccc    H17  995   2.897  -1.371   5.638 -1.8042  1.6648 -1.1627
   47SOL     OW  996   1.260   1.335   7.061 -0.0947 -0.0155  0.0130
   47SOL    HW1  997   1.300   1.294   7.138  0.3008  0.3938  0.0296
   47SOL    HW2  998   1.213   1.410   7.097  1.9209  1.5024 -0.3627
   48SOL     OW  999   0.595   6.022   2.401 -0.1120 -0.1431  0.2321
   48SOL    HW1 1000   0.550   5.946   2.438 -1.6076  1.7876  2.7669
   48SOL    HW2 1001   0.540   6.049   2.328  0.6308 -1.6144 -0.9315
   49SOL     OW 1002   3.517   4.674   6.420 -0.1907 -0.3904 -0.0502
   49SOL    HW1 1003   3.558   4.760   6.415  0.9129 -0.6754  2.3910
   49SOL    HW2 1004   3.591   4.613   6.417 -0.9314 -1.2616 -1.3367
   50SOL     OW 1005   7.892   0.977   7.416 -0.3930 -0.2676  0.3937
   50SOL    HW1 1006   7.929   1.051   7.465  1.1953 -2.3109  2.5490
   50SOL    HW2 1007   7.950   0.967   7.341 -0.6394  0.6633  0.0643
   51SOL     OW 1008   6.100   7.958   2.403  0.1792  0.2603 -0.6252
   51SOL    HW1 1009   6.077   7.874   2.362 -0.6362 -0.1448  0.5961
   51SOL    HW2 1010   6.096   8.021   2.331 -0.3344 -0.5648 -1.3502
   52SOL     OW 1011   5.530   2.566   2.546  0.2437  0.1854  0.6534
   52SOL    HW1 1012   5.444   2.530   2.566  0.7334 -2.2614 -1.2016
   52SOL    HW2 1013   5.533   2.571   2.450  2.5568 -1.0250  0.5753
   53SOL     OW 1014   2.861   3.633   3.790 -0.0013 -0.1400 -0.0890
   53SOL    HW1 1015   2.853   3.604   3.881 -1.3207 -0.5169 -0.2962
   53SOL    HW2 1016   2.820   3.563   3.739  0.8019  0.0237 -0.9875
   54SOL     OW 1017   6.647   2.131   4.414  0.5794  0.4358  0.5896
   54SOL    HW1 1018   6.553   2.111   4.418  0.2155  2.0441  0.7627
   54SOL    HW2 1019   6.688   2.047   4.394 -0.8630 -0.3682  0.8306
   55SOL     OW 1020   3.425   2.639   5.126 -0.1566 -0.2012 -0.0456
   55SOL    HW1 1021   3.442   2.672   5.038 -0.9227 -0.8018 -0.4301
   55SOL    HW2 1022   3.336   2.667   5.145 -0.6572 -1.6243 -0.1970
   56SOL     OW 1023   3.509   4.807   5.047  0.6670  0.4155 -0.0315
   56SOL    HW1 1024   3.559   4.733   5.013  1.5477  1.3129 -0.7896
   56SOL    HW2 1025   3.560   4.884   5.020  0.3443  1.2686  1.6369
   57SOL     OW 1026   6.682   7.420   1.702 -0.0309 -0.0761  0.1555
   57SOL    HW1 1027   6.686   7.332   1.739  1.2721 -0.8465 -1.6539
   57SOL    HW2 1028   6.739   7.416   1.624 -2.5027  1.4131 -1.8941
   58SOL     OW 1029   7.653   1.517   6.225 -0.2928  0.2013 -0.1666
   58SOL    HW1 1030   7.621   1.488   6.139 -0.3147  1.0401 -0.4487
   58SOL    HW2 1031   7.723   1.579   6.205  0.7923 -0.7911  0.4440
   59SOL     OW 1032   2.791   6.452   0.042  0.1331 -0.3827  0.0471
   59SOL    HW1 1033   2.860   6.388   0.057 -0.5023 -0.9208  0.7894
   59SOL    HW2 1034   2.836   6.529   0.008  0.9925 -0.9979 -0.2460
   60SOL     OW 1035   0.363   6.543   6.552 -0.8836  0.0323 -0.1981
   60SOL    HW1 1036   0.312   6.553   6.632 -1.3539  1.7813 -0.6666
   60SOL    HW2 1037   0.435   6.606   6.561 -0.4716 -0.3423 -0.7950
   61SOL     OW 1038   2.531   0.726   4.696 -0.0342 -0.0755  0.3835
   61SOL    HW1 1039   2.489   0.696   4.616 -1.0343 -0.2799  0.9653
   61SOL    HW2 1040   2.517   0.655   4.759  0.6534  0.1202  0.7779
   62SOL     OW 1041   0.570   4.567   6.459  0.3794 -0.5657 -0.1133
   62SOL    HW1 1042   0.590   4.602   6.545  0.0085 -1.0017  0.1564
   62SOL    HW2 1043   0.477   4.588   6.445  0.6026  0.0793 -0.6875
   63SOL     OW 1044   3.116   5.852   1.205  0.1629 -0.7498 -0.5417
   63SOL    HW1 1045   3.117   5.910   1.282 -0.4068 -0.7563 -0.5295
   63SOL    HW2 1046   3.043   5.792   1.221 -0.1220 -0.5855 -1.2170
   64SOL     OW 1047   2.138   3.445   7.301 -0.1173 -0.0700  0.0996
   64SOL    HW1 1048   2.085   3.367   7.316  0.8905 -0.9116 -0.5581
   64SOL    HW2 1049   2.106   3.480   7.218 -1.9170  1.3958  1.3411
   65SOL     OW 1050   5.689   6.301   2.805 -0.7863  0.2355 -0.7586
   65SOL    HW1 1051   5.738   6.298   2.887 -3.7263 -0.2660  1.1361
   65SOL    HW2 1052   5.747   6.347   2.744  1.0632  1.7592  1.9330
   66SOL     OW 1053   0.117   6.670   2.268 -0.3352  0.3548  0.0968
   66SOL    HW1 1054   0.080   6.584   2.252  2.1653 -0.6868 -0.6487
   66SOL    HW2 1055   0.043   6.725   2.293 -2.6430 -1.0429 -3.0638
   67SOL     OW 1056   6.732   5.077   5.353  0.2880 -0.3826 -0.4952
   67SOL    HW1 1057   6.642   5.061   5.326 -0.4009  2.9592 -0.6313
   67SOL    HW2 1058   6.781   5.081   5.271  0.9268 -3.3732 -0.3801
   68SOL     OW 1059   1.144   0.919   6.017  0.5065  0.2003 -0.0886
   68SOL    HW1 1060   1.057   0.882   6.000  1.0602 -2.1207  1.6887
   68SOL    HW2 1061   1.202   0.875   5.955  0.9645 -1.0104  1.1655
   69SOL     OW 1062   7.204   3.560   1.542 -1.0062  0.9546  0.4922
   69SOL    HW1 1063   7.147   3.588   1.471  0.2293  0.8207 -0.5876
   69SOL    HW2 1064   7.225   3.468   1.522 -0.1703  1.0931  0.6726
   70SOL     OW 1065   3.403   0.263   1.232  0.4138  0.9036  0.3892
   70SOL    HW1 1066   3.497   0.245   1.235  0.6231  1.2927 -1.8557
   70SOL    HW2 1067   3.394   0.352   1.267  0.4913 -0.1123  3.1549
   71SOL     OW 1068   5.905   4.981   2.132 -0.4763  0.1548 -0.2429
   71SOL    HW1 1069   5.919   5.070   2.099 -1.0607  0.8867  1.4029
   71SOL    HW2 1070   5.813   4.980   2.158 -0.6860 -1.2044 -0.9583
   72SOL     OW 1071   2.310   1.091   5.778 -0.0512 -0.0911  0.2834
   72SOL    HW1 1072   2.314   1.095   5.874 -0.2542 -3.9972  0.6473
   72SOL    HW2 1073   2.398   1.064   5.751 -0.1346  0.4822 -0.5882
   73SOL     OW 1074   2.330   2.124   1.727 -0.1573 -0.0085 -0.0810
   73SOL    HW1 1075   2.334   2.082   1.813  0.0303 -1.9039 -0.9704
   73SOL    HW2 1076   2.298   2.056   1.668 -0.5921  1.3383 -1.4830
   74SOL     OW 1077   1.902   4.696   0.351 -0.4465  0.0850 -0.0310
   74SOL    HW1 1078   1.927   4.629   0.415 -0.1005  0.7929  0.5865
   74SOL    HW2 1079   1.878   4.772   0.404  0.2469  0.8170 -0.7545
   75SOL     OW 1080   1.470   5.638   2.479  0.3575 -0.7195 -0.5105
   75SOL    HW1 1081   1.421   5.558   2.496 -0.1011 -0.6728 -1.5635
   75SOL    HW2 1082   1.424   5.680   2.407  0.6446  0.4539 -0.0367
   76SOL     OW 1083   5.650   7.294   5.622 -0.0757  0.1094  0.4797
   76SOL    HW1 1084   5.727   7.293   5.566 -1.1170 -0.1909 -0.9930
   76SOL    HW2 1085   5.667   7.225   5.686  0.0068 -1.3963 -1.0873
   77SOL     OW 1086   5.640   7.952   7.761 -0.3072 -0.5530 -0.0791
   77SOL    HW1 1087   5.581   7.921   7.831  0.5166 -1.7613  0.1027
   77SOL    HW2 1088   5.704   7.883   7.751  1.2525  0.8420 -0.1120
   78SOL     OW 1089   7.023   6.476   1.285 -0.0349  0.7864  0.1802
   78SOL    HW1 1090   7.087   6.460   1.216 -1.6735  0.7296 -1.3827
   78SOL    HW2 1091   7.036   6.404   1.347  1.2770  0.6930 -0.1693
   79SOL     OW 1092   0.163   3.515   3.374  0.7103 -0.2304 -0.0144
   79SOL    HW1 1093   0.259   3.518   3.377  0.7341 -0.9773  0.2033
   79SOL    HW2 1094   0.135   3.594   3.419  1.2247  1.0113 -1.7764
   80SOL     OW 1095   1.813   6.747   3.286  0.1895  0.0846  0.2027
   80SOL    HW1 1096   1.811   6.656   3.314  0.1987 -0.0507 -0.2311
   80SOL    HW2 1097   1.892   6.783   3.326  1.0873 -0.5316 -0.9552
   81SOL     OW 1098   4.421   3.019   0.044  0.4838 -0.0674 -0.1610
   81SOL    HW1 1099   4.347   3.018   0.105  1.2841 -1.8196  0.8589
   81SOL    HW2 1100   4.498   3.004   0.099  1.2785 -1.2790 -1.5343
   82SOL     OW 1101   1.496   5.348   4.828  0.1856  0.4429 -0.1998
   82SOL    HW1 1102   1.569   5.304   4.872 -0.5144  0.0123  0.5490
   82SOL    HW2 1103   1.538   5.402   4.761  1.0880 -1.1763 -0.9986
   83SOL     OW 1104   5.621   2.112   0.302 -0.5333  0.5355 -0.8031
   83SOL    HW1 1105   5.691   2.171   0.330  0.1240 -0.1864 -0.9069
   83SOL    HW2 1106   5.560   2.169   0.253 -1.1629  1.6124  1.1054
   84SOL     OW 1107   3.942   3.099   1.332 -0.1830 -0.2635  0.3086
   84SOL    HW1 1108   3.852   3.091   1.364  0.0983  0.4878  1.3654
   84SOL    HW2 1109   3.932   3.125   1.241 -1.0297 -0.7636  0.2394
   85SOL     OW 1110   0.385   5.394   3.417  0.0024  0.0759  0.1978
   85SOL    HW1 1111   0.368   5.300   3.418 -1.1561  0.2791  0.2907
   85SOL    HW2 1112   0.362   5.422   3.328  3.3565 -0.2240 -0.9117
   86SOL     OW 1113   7.668   5.890   4.335  0.1140 -0.3826 -0.6220
   86SOL    HW1 1114   7.729   5.917   4.267 -0.3968 -2.7956 -2.1333
   86SOL    HW2 1115   7.639   5.803   4.309 -3.6398  0.4120  0.2254
   87SOL     OW 1116   4.740   1.444   3.800  0.0020 -0.3206  0.0947
   87SOL    HW1 1117   4.802   1.379   3.832  1.0472  0.3980 -0.3953
   87SOL    HW2 1118   4.680   1.396   3.743  0.4587 -0.9242  0.1228
   88SOL     OW 1119   6.155   2.906   1.653  0.0274 -0.0947  0.5048
   88SOL    HW1 1120   6.060   2.896   1.655  0.0982 -1.0053  0.0088
   88SOL    HW2 1121   6.183   2.885   1.742 -0.2302  0.2144  0.6629
   89SOL     OW 1122   4.614   6.580   4.738  0.3091  0.1989  0.3628
   89SOL    HW1 1123   4.681   6.597   4.805 -0.7955 -0.8831  1.8094
   89SOL    HW2 1124   4.604   6.485   4.738 -0.9536  0.3182 -0.0807
   90SOL     OW 1125   3.751   0.229   0.136  0.4568 -0.4663  0.0897
   90SOL    HW1 1126   3.724   0.315   0.103  0.3812 -0.2398  0.7246
   90SOL    HW2 1127   3.682   0.170   0.107  1.4475 -0.6793 -1.9911
   91SOL     OW 1128   1.433   2.039   6.533 -0.4295 -0.5495  0.2431
   91SOL    HW1 1129   1.504   2.053   6.470  0.5337  0.7883  1.5528
   91SOL    HW2 1130   1.360   2.091   6.500 -0.1354 -0.3404 -0.0836
   92SOL     OW 1131   3.860   1.125   0.094  0.5201  0.0377  0.0987
   92SOL    HW1 1132   3.933   1.107   0.035  0.3686 -0.6904  0.1330
   92SOL    HW2 1133   3.896   1.188   0.157  0.8003  0.5012 -0.5152
   93SOL     OW 1134   5.650   6.422   0.688  0.1124 -0.2692  0.1593
   93SOL    HW1 1135   5.670   6.329   0.680  1.0832 -0.0551  0.0455
   93SOL    HW2 1136   5.726   6.467   0.652 -0.1075  0.5785  0.7094
   94SOL     OW 1137   1.925   5.308   0.490 -0.0722  0.0194 -0.5052
   94SOL    HW1 1138   1.884   5.388   0.522 -2.0895 -0.9798 -0.4694
   94SOL    HW2 1139   1.873   5.283   0.413  1.4074 -0.5010 -1.3760
   95SOL     OW 1140   7.066   6.254   2.089 -0.1672  0.1549 -0.0477
   95SOL    HW1 1141   6.992   6.198   2.111 -1.0912  1.3643  0.0035
   95SOL    HW2 1142   7.093   6.291   2.173  1.6152 -1.5304  0.2229
   96SOL     OW 1143   7.023   4.646   7.728 -0.0694  0.5023 -0.2649
   96SOL    HW1 1144   7.079   4.608   7.796  1.7330 -0.6097 -2.2489
   96SOL    HW2 1145   6.967   4.573   7.700  0.4020  0.4608 -1.1257
   97SOL     OW 1146   0.164   5.730   3.942 -0.1495 -0.0422 -0.1158
   97SOL    HW1 1147   0.216   5.800   3.904  0.2337  0.2381  0.8942
   97SOL    HW2 1148   0.175   5.740   4.037  0.7479 -2.0912  0.0451
   98SOL     OW 1149   5.899   1.086   0.252 -0.0319 -0.8326  0.0198
   98SOL    HW1 1150   5.905   0.999   0.214  0.1504 -0.2709 -1.2826
   98SOL    HW2 1151   5.897   1.146   0.177 -1.9283  0.2019  0.8288
   99SOL     OW 1152   5.548   3.684   6.077  0.2552  1.1981 -0.5235
   99SOL    HW1 1153   5.473   3.700   6.019 -1.5362  0.1377  1.3883
   99SOL    HW2 1154   5.541   3.751   6.145 -0.3162 -0.2771  0.9152
  100SOL     OW 1155   1.033   0.140   0.129 -0.2295 -0.5468 -0.3284
  100SOL    HW1 1156   1.121   0.145   0.091 -0.5155 -2.7649 -1.4535
  100SOL    HW2 1157   1.044   0.088   0.209 -0.5053 -0.8719 -0.4981
  101SOL     OW 1158   6.177   1.850   0.816 -0.6058 -0.2543  0.4600
  101SOL    HW1 1159   6.142   1.938   0.826 -0.3651  0.1041 -1.3654
  101SOL    HW2 1160   6.100   1.795   0.802 -0.7439 -0.3194  1.4316
  102SOL     OW 1161   1.488   2.645   0.344  0.8056 -0.2436  0.2142
  102SOL    HW1 1162   1.501   2.566   0.398 -2.0909 -1.4346 -0.6267
  102SOL    HW2 1163   1.561   2.702   0.367  1.3018 -1.8661  3.2450
  103SOL     OW 1164   0.587   5.099   2.256  0.3708  0.2618  0.1585
  103SOL    HW1 1165   0.632   5.130   2.177 -2.3550 -1.7901 -2.4130
  103SOL    HW2 1166   0.585   5.003   2.246 -2.3683  0.1175  1.2930
  104SOL     OW 1167   0.912   0.874   4.112 -0.1696 -0.1276  0.0842
  104SOL    HW1 1168   0.829   0.885   4.159 -0.0721  0.2253  0.1777
  104SOL    HW2 1169   0.938   0.964   4.089  0.5241 -0.1791  0.6425
  105SOL     OW 1170   6.546   4.466   7.896  0.3678  0.0072 -0.7539
  105SOL    HW1 1171   6.576   4.453   7.985  0.1114  0.1465 -0.6457
  105SOL    HW2 1172   6.502   4.551   7.897 -1.8657 -1.0755 -0.4123
  106SOL     OW 1173   0.295   7.758   7.706 -0.6716 -0.0825 -0.4755
  106SOL    HW1 1174   0.239   7.836   7.708 -1.3647 -0.5603 -0.6429
  106SOL    HW2 1175   0.255   7.698   7.769  0.2534 -0.0422  0.1501
  107SOL     OW 1176   2.906   4.619   5.622 -0.0686 -0.0819  0.1101
  107SOL    HW1 1177   2.823   4.605   5.668 -1.0380  0.8199 -1.2778
  107SOL    HW2 1178   2.882   4.625   5.530  1.4723  0.8100 -0.2748
  108SOL     OW 1179   7.976   0.947   1.130  0.5156  0.7701  0.1842
  108SOL    HW1 1180   8.044   0.940   1.062 -0.2778  0.8726 -0.6414
  108SOL    HW2 1181   7.995   1.030   1.174  0.2133  1.4235 -0.8645
  109SOL     OW 1182   0.834   5.870   1.585  0.9653  0.2897  0.2113
  109SOL    HW1 1183   0.805   5.801   1.645 -1.7064  1.3241  0.2304
  109SOL    HW2 1184   0.796   5.845   1.501  0.1681  1.5712  0.1717
  110SOL     OW 1185   4.079   5.913   7.862  0.2526  0.1079  0.5228
  110SOL    HW1 1186   4.038   5.958   7.935  1.1014  1.3438  0.2716
  110SOL    HW2 1187   4.159   5.963   7.845 -0.2944  0.3011 -1.7319
  111SOL     OW 1188   0.547   6.976   7.797  0.5103 -0.2509  0.1761
  111SOL    HW1 1189   0.553   7.062   7.757 -1.0668 -0.5595 -0.7907
  111SOL    HW2 1190   0.621   6.928   7.761  0.0126 -0.0321 -1.2023
  112SOL     OW 1191   3.548   2.165   3.393  0.0398  0.3078  0.6275
  112SOL    HW1 1192   3.620   2.126   3.444  0.2387  0.0171  0.1300
  112SOL    HW2 1193   3.472   2.111   3.414  0.1149  0.2044  0.6336
  113SOL     OW 1194   1.667   7.015   0.680 -0.0386  0.3955  0.4344
  113SOL    HW1 1195   1.572   7.010   0.681 -0.1228  0.8208 -1.1639
  113SOL    HW2 1196   1.690   7.073   0.753 -0.8731 -0.8766  1.7469
  114SOL     OW 1197   6.311   7.691   4.852  0.5219  0.4405 -0.0388
  114SOL    HW1 1198   6.381   7.631   4.878  1.1273  0.5287 -1.4114
  114SOL    HW2 1199   6.357   7.768   4.819 -0.2475  1.0387  0.2575
  115SOL     OW 1200   0.281   6.829   7.792  0.0341 -0.0072  0.0541
  115SOL    HW1 1201   0.193   6.820   7.754 -0.8807 -1.3320  2.2717
  115SOL    HW2 1202   0.306   6.919   7.773 -1.0304 -0.0880 -2.1119
  116SOL     OW 1203   7.322   4.993   5.739 -0.2347  0.0606  0.2482
  116SOL    HW1 1204   7.322   4.988   5.644 -0.2645  2.1538  0.0903
  116SOL    HW2 1205   7.234   4.967   5.765  0.4049 -2.7710 -0.0603
  117SOL     OW 1206   6.108   4.868   6.650 -0.2896  0.1304 -0.0798
  117SOL    HW1 1207   6.141   4.956   6.670  2.1284 -0.5772 -0.6394
  117SOL    HW2 1208   6.187   4.815   6.640 -1.6772 -1.9267 -0.6328
  118SOL     OW 1209   4.308   4.712   6.913 -0.1171 -0.7012 -0.1176
  118SOL    HW1 1210   4.374   4.781   6.902  0.7763 -1.7746 -1.8916
  118SOL    HW2 1211   4.250   4.722   6.838 -0.8506 -0.9833  0.4041
  119SOL     OW 1212   5.456   3.635   7.101 -0.3697  0.2891  0.4186
  119SOL    HW1 1213   5.516   3.689   7.153  0.7460 -0.7648  0.2897
  119SOL    HW2 1214   5.504   3.553   7.088 -1.2379 -0.0282 -0.9890
  120SOL     OW 1215   1.143   7.761   5.210 -0.2685  0.8179  0.3273
  120SOL    HW1 1216   1.224   7.809   5.196  0.1603 -0.2359 -0.8888
  120SOL    HW2 1217   1.074   7.826   5.196  0.3288  1.7929  1.6545
  121SOL     OW 1218   1.512   7.276   0.626 -0.4521  0.3538  0.7831
  121SOL    HW1 1219   1.459   7.276   0.547  1.6948 -0.2684 -0.7729
  121SOL    HW2 1220   1.465   7.220   0.688 -0.7357 -1.6853 -1.1697
  122SOL     OW 1221   1.889   6.536   7.105  0.1233 -0.5897 -0.4114
  122SOL    HW1 1222   1.794   6.543   7.104  0.0181 -1.6045 -2.2606
  122SOL    HW2 1223   1.908   6.475   7.176 -0.5894 -0.3596 -0.0157
  123SOL     OW 1224   5.647   2.762   2.261 -0.5485  0.0078 -0.0752
  123SOL    HW1 1225   5.579   2.696   2.273 -0.1790 -0.5188 -0.8228
  123SOL    HW2 1226   5.729   2.713   2.256 -0.2109  0.5592 -0.1499
  124SOL     OW 1227   5.756   0.613   4.848  0.2560 -0.1192 -0.4627
  124SOL    HW1 1228   5.826   0.659   4.896 -1.4418 -0.4979  2.6022
  124SOL    HW2 1229   5.684   0.676   4.845 -0.3408 -0.8054 -0.7805
  125SOL     OW 1230   3.395   2.516   7.662 -0.1570 -0.1488 -0.4242
  125SOL    HW1 1231   3.471   2.572   7.649 -0.2029 -0.2005 -0.9453
  125SOL    HW2 1232   3.324   2.561   7.616 -0.7851  0.5913  1.1614
  126SOL     OW 1233   3.468   4.317   1.799 -0.1549 -0.0285  0.2299
  126SOL    HW1 1234   3.510   4.274   1.724 -1.1635  0.7603 -0.8378
  126SOL    HW2 1235   3.450   4.406   1.768 -1.4780  0.0169  1.0502
  127SOL     OW 1236   1.437   1.005   3.157  0.5363  0.2429  0.3455
  127SOL    HW1 1237   1.460   1.080   3.211 -1.8035  0.3918  1.2589
  127SOL    HW2 1238   1.385   1.042   3.085 -0.4388 -0.4425  0.6769
  128SOL     OW 1239   5.676   4.551   5.510  0.5163  0.5227  0.2535
  128SOL    HW1 1240   5.646   4.604   5.583 -2.4264  1.2235 -1.3161
  128SOL    HW2 1241   5.757   4.593   5.481  1.7519  0.2207  3.0014
  129SOL     OW 1242   5.755   7.105   5.802  0.6518  0.3356  0.4454
  129SOL    HW1 1243   5.775   7.020   5.842  2.4234  0.0025 -1.0198
  129SOL    HW2 1244   5.758   7.167   5.876  0.3621 -0.7152  1.3632
  130SOL     OW 1245   4.059   2.918   4.252 -0.0209  0.1571 -0.2855
  130SOL    HW1 1246   4.127   2.984   4.243  1.1370 -1.1794 -2.4313
  130SOL    HW2 1247   4.036   2.918   4.344  2.5335  1.0409  0.4206
  131SOL     OW 1248   2.675   4.968   4.868 -0.5929  0.3493  0.2193
  131SOL    HW1 1249   2.758   4.993   4.826 -1.1977  1.1101 -0.5617
  131SOL    HW2 1250   2.649   5.046   4.917 -0.2721 -0.2835  1.4538
  132SOL     OW 1251   4.227   0.427   7.161 -0.2431  0.0071 -0.0568
  132SOL    HW1 1252   4.202   0.500   7.218 -0.2475 -1.6477  2.2106
  132SOL    HW2 1253   4.321   0.415   7.177 -0.2626 -0.5402 -0.3282
  133SOL     OW 1254   5.193   4.081   7.986  0.2722 -0.5377  0.5003
  133SOL    HW1 1255   5.134   4.013   7.955 -1.8823  0.7897  1.4176
  133SOL    HW2 1256   5.142   4.129   8.051  1.4451  2.2794 -0.4920
  134SOL     OW 1257   1.984   3.784   0.195  0.0987  0.3677  0.2786
  134SOL    HW1 1258   1.941   3.831   0.267  1.1311  2.5589 -0.4666
  134SOL    HW2 1259   1.983   3.845   0.122 -0.0602 -1.4617 -1.3178
  135SOL     OW 1260   4.285   1.756   5.482  0.1662 -0.5150 -0.0701
  135SOL    HW1 1261   4.191   1.738   5.489 -0.2450  1.4684  0.0869
  135SOL    HW2 1262   4.320   1.681   5.433 -1.9134 -0.0720 -2.4456
  136SOL     OW 1263   2.205   3.714   5.905 -0.1880  0.1286 -0.5118
  136SOL    HW1 1264   2.248   3.775   5.845 -0.4769  0.4122 -0.4370
  136SOL    HW2 1265   2.247   3.630   5.889 -2.1412 -0.4610 -3.0877
  137SOL     OW 1266   4.697   0.530   4.376 -0.5065 -0.1326  0.1530
  137SOL    HW1 1267   4.733   0.536   4.465 -1.7861  1.1964  0.6263
  137SOL    HW2 1268   4.607   0.562   4.385 -0.4238  0.7747 -1.7721
  138SOL     OW 1269   0.557   6.986   2.658 -0.1374 -0.1468 -0.0328
  138SOL    HW1 1270   0.537   7.051   2.590  2.7873  1.3418  0.3720
  138SOL    HW2 1271   0.547   7.034   2.740 -0.7650 -1.0884  0.4508
  139SOL     OW 1272   0.453   2.377   6.529 -0.1891  0.1085 -0.8486
  139SOL    HW1 1273   0.526   2.436   6.544 -0.3839  0.1227  0.1035
  139SOL    HW2 1274   0.429   2.346   6.616 -1.4738  0.3009 -1.1144
  140SOL     OW 1275   4.861   5.461   7.562 -0.3500  0.0817 -0.4228
  140SOL    HW1 1276   4.803   5.388   7.542 -0.0693 -0.8886  1.9089
  140SOL    HW2 1277   4.934   5.453   7.500 -1.6507  0.0708 -2.0000
  141SOL     OW 1278   0.665   6.954   5.253 -0.3621  0.6295 -0.0382
  141SOL    HW1 1279   0.574   6.985   5.250 -0.2961  0.7754 -0.5303
  141SOL    HW2 1280   0.664   6.873   5.203 -0.3738  0.2361  0.5951
  142SOL     OW 1281   7.618   5.396   0.564 -0.3000 -0.1517 -0.1714
  142SOL    HW1 1282   7.641   5.449   0.487  0.8676 -0.1343  0.1673
  142SOL    HW2 1283   7.549   5.337   0.533 -0.2341  0.2367 -1.0840
  143SOL     OW 1284   4.548   0.755   3.461 -0.3711 -0.3525  0.3055
  143SOL    HW1 1285   4.558   0.702   3.540  0.6534  0.4868  0.7681
  143SOL    HW2 1286   4.574   0.844   3.488  1.4219 -0.3110 -1.2791
  144SOL     OW 1287   1.236   6.902   3.137  0.2373  0.2588 -0.0705
  144SOL    HW1 1288   1.209   6.843   3.208  1.4473  0.6546  0.7474
  144SOL    HW2 1289   1.164   6.897   3.074 -1.6350  1.0714  1.8528
  145SOL     OW 1290   6.370   7.749   1.068 -1.0194  0.4704  0.4779
  145SOL    HW1 1291   6.309   7.781   1.001  0.4535  0.3607 -0.9557
  145SOL    HW2 1292   6.442   7.812   1.066  0.4148 -1.1392 -0.1357
  146SOL     OW 1293   4.352   5.414   2.380 -0.2467  0.5664  0.1741
  146SOL    HW1 1294   4.353   5.441   2.472  1.2418  1.9685 -0.2076
  146SOL    HW2 1295   4.405   5.334   2.379 -1.5429 -0.3325  0.7372
  147SOL     OW 1296   6.812   4.685   6.964 -0.4820  0.3071  0.3625
  147SOL    HW1 1297   6.864   4.605   6.969 -0.4502  0.2820 -0.2607
  147SOL    HW2 1298   6.751   4.679   7.038 -0.6099 -0.3921  0.2077
  148SOL     OW 1299   6.447   3.786   2.377  0.3894  0.6102 -0.4139
  148SOL    HW1 1300   6.433   3.694   2.353  2.8626 -0.0393  0.2947
  148SOL    HW2 1301   6.399   3.797   2.459 -0.6489  0.2354 -0.9454
  149SOL     OW 1302   3.820   2.392   7.405 -0.2174  0.2740  0.2968
  149SOL    HW1 1303   3.866   2.415   7.486 -0.1944 -1.9075  0.9630
  149SOL    HW2 1304   3.888   2.362   7.346 -0.1041  2.7608 -0.9735
  150SOL     OW 1305   2.830   7.096   3.757  0.2224  1.1152 -0.1320
  150SOL    HW1 1306   2.900   7.146   3.716 -0.1861  1.1757 -0.7752
  150SOL    HW2 1307   2.863   7.006   3.758  1.2187  1.4637  1.6004
  151SOL     OW 1308   6.345   3.818   6.000  0.1841 -0.2332 -0.7181
  151SOL    HW1 1309   6.328   3.872   6.077 -1.3693 -0.7728 -0.6489
  151SOL    HW2 1310   6.437   3.794   6.007  0.2229  0.2435  0.6292
  152SOL     OW 1311   1.493   7.087   1.697  0.1870  0.0454 -0.6001
  152SOL    HW1 1312   1.529   7.169   1.732  0.3709 -0.4439  0.3918
  152SOL    HW2 1313   1.402   7.108   1.676 -0.0596  0.2630  0.5801
  153SOL     OW 1314   4.381   1.745   3.575  0.4591 -0.8508  0.5459
  153SOL    HW1 1315   4.366   1.681   3.506 -1.4124 -0.2617  0.3624
  153SOL    HW2 1316   4.402   1.826   3.529 -1.8291 -0.1860  0.5595
  154SOL     OW 1317   4.314   7.357   2.054 -0.6883  0.2072  0.6377
  154SOL    HW1 1318   4.286   7.393   1.970  1.3831  0.2190 -0.0901
  154SOL    HW2 1319   4.259   7.403   2.118 -1.0622  1.5403 -0.5678
  155SOL     OW 1320   2.831   6.070   7.417 -0.0701 -0.1536 -0.2179
  155SOL    HW1 1321   2.815   5.997   7.357  0.2166 -1.5393  1.3296
  155SOL    HW2 1322   2.925   6.086   7.412  0.6398 -2.6826  2.3859
  156SOL     OW 1323   4.217   2.047   5.173 -0.0502  0.1923  0.2720
  156SOL    HW1 1324   4.213   1.971   5.115 -2.6760  2.4976 -2.9619
  156SOL    HW2 1325   4.307   2.078   5.167  0.3848 -1.1572 -0.4302
  157SOL     OW 1326   0.251   0.739   5.812  0.0725 -0.6325  0.1150
  157SOL    HW1 1327   0.196   0.777   5.743  0.6790 -0.2605 -0.1741
  157SOL    HW2 1328   0.200   0.666   5.846 -1.1281  0.4265  0.6794
  158SOL     OW 1329   4.551   3.442   1.209 -0.0283 -0.1439  0.2058
  158SOL    HW1 1330   4.534   3.513   1.271 -0.8909  0.6386 -0.8986
  158SOL    HW2 1331   4.623   3.473   1.155 -1.6514  0.8045 -1.5544
  159SOL     OW 1332   0.614   3.660   1.526  0.4240 -0.5602 -0.7613
  159SOL    HW1 1333   0.675   3.657   1.452  1.1815  0.6290 -0.2230
  159SOL    HW2 1334   0.665   3.700   1.597 -0.8502  0.0371 -0.1564
  160SOL     OW 1335   5.130   6.570   0.599 -0.2899  0.2689  0.4795
  160SOL    HW1 1336   5.134   6.569   0.694 -0.0544  1.4617  0.4940
  160SOL    HW2 1337   5.213   6.610   0.572  1.7266 -3.9612 -0.4089
  161SOL     OW 1338   1.505   1.442   7.467  0.0490  0.2844 -0.2657
  161SOL    HW1 1339   1.586   1.427   7.515 -0.8586  0.9099  1.5461
  161SOL    HW2 1340   1.522   1.522   7.416  0.9866 -0.3308 -0.9529
  162SOL     OW 1341   1.523   5.118   7.825 -0.1900  0.3097  0.5255
  162SOL    HW1 1342   1.484   5.193   7.780 -0.1085  0.5605  0.8736
  162SOL    HW2 1343   1.460   5.095   7.893 -0.6561 -0.5283 -0.1730
  163SOL     OW 1344   7.062   1.600   1.245 -0.1089 -0.1208 -0.4328
  163SOL    HW1 1345   7.073   1.649   1.163  0.3617  0.2293 -0.1629
  163SOL    HW2 1346   7.045   1.666   1.311 -0.0424 -0.3704 -0.1631
  164SOL     OW 1347   1.063   1.598   1.668  0.3220  0.3267 -0.2851
  164SOL    HW1 1348   0.983   1.562   1.629 -0.5518  0.9643  0.8668
  164SOL    HW2 1349   1.072   1.685   1.630 -0.9559  1.2590  1.4002
  165SOL     OW 1350   6.707   0.726   6.014  0.0084 -0.4945  0.0352
  165SOL    HW1 1351   6.675   0.812   5.988 -2.1670 -1.4125 -0.5354
  165SOL    HW2 1352   6.756   0.695   5.938  0.6694  0.1627  0.1867
  166SOL     OW 1353   5.404   0.912   7.491  0.2479 -0.0069 -0.0780
  166SOL    HW1 1354   5.445   0.902   7.577  0.0211  0.9751  0.1544
  166SOL    HW2 1355   5.375   1.003   7.489 -0.3774 -0.2177 -0.9212
  167SOL     OW 1356   5.255   5.543   3.983  0.2624 -0.1756 -0.1734
  167SOL    HW1 1357   5.247   5.616   3.921 -1.9613 -1.6542 -1.7571
  167SOL    HW2 1358   5.188   5.560   4.049  2.0592  0.9433  1.4730
  168SOL     OW 1359   4.557   0.210   1.032  0.4742  0.7815 -0.0580
  168SOL    HW1 1360   4.482   0.160   1.064  0.1085 -0.4874 -2.6430
  168SOL    HW2 1361   4.631   0.177   1.084 -0.5212  1.1549  1.6662
  169SOL     OW 1362   5.216   0.807   4.782  0.2264 -0.3718  0.1571
  169SOL    HW1 1363   5.164   0.732   4.810 -0.8241  0.2402 -0.1239
  169SOL    HW2 1364   5.205   0.872   4.851  1.1649 -0.4728  0.4182
  170SOL     OW 1365   1.088   7.570   3.155 -0.2234 -0.0984 -0.5926
  170SOL    HW1 1366   1.179   7.559   3.182 -0.4936 -0.7833  0.1103
  170SOL    HW2 1367   1.044   7.604   3.233 -0.3653  1.3826 -1.2780
  171SOL     OW 1368   5.557   0.569   4.599 -0.4864  0.0809  0.8989
  171SOL    HW1 1369   5.483   0.582   4.540 -1.6556  0.4880  2.3993
  171SOL    HW2 1370   5.553   0.476   4.622  0.3313 -0.2227 -0.0611
  172SOL     OW 1371   5.359   7.920   5.833  0.2266  0.7983 -0.2582
  172SOL    HW1 1372   5.412   7.948   5.908 -2.1024  0.8159  1.4890
  172SOL    HW2 1373   5.278   7.886   5.872 -1.8839  2.4856 -2.8154
  173SOL     OW 1374   7.555   0.295   4.886 -0.5827  0.2670  0.3224
  173SOL    HW1 1375   7.618   0.367   4.887  0.7285 -0.8402  0.0875
  173SOL    HW2 1376   7.547   0.269   4.978  0.6783 -0.7326  0.1648
  174SOL     OW 1377   7.630   6.168   0.774 -0.3249  0.1425  0.0214
  174SOL    HW1 1378   7.595   6.093   0.821 -1.1701  1.1553  1.0552
  174SOL    HW2 1379   7.625   6.241   0.836 -0.6804  1.3465 -1.3464
  175SOL     OW 1380   1.205   0.477   4.341 -0.4536  0.1717 -0.2620
  175SOL    HW1 1381   1.171   0.414   4.277 -1.2073  0.6627 -0.3576
  175SOL    HW2 1382   1.166   0.560   4.316 -0.2422  0.4935  0.4530
  176SOL     OW 1383   3.441   4.686   0.020 -0.0275 -0.4097  0.4188
  176SOL    HW1 1384   3.423   4.749   0.090 -0.4383  0.2093 -0.2296
  176SOL    HW2 1385   3.394   4.721  -0.056 -0.4444 -1.6206  0.1013
  177SOL     OW 1386   7.490   6.610   6.262  0.3268  1.0865 -0.1405
  177SOL    HW1 1387   7.483   6.653   6.177 -0.0430  0.0323 -0.6663
  177SOL    HW2 1388   7.407   6.564   6.273  0.4717  1.0075  0.6801
  178SOL     OW 1389   4.254   0.914   3.746 -0.4874  0.1582  0.0369
  178SOL    HW1 1390   4.320   0.964   3.697  0.1651 -0.1485  0.5962
  178SOL    HW2 1391   4.215   0.857   3.680  0.6162 -0.4882 -0.0888
  179SOL     OW 1392   1.122   2.709   0.344 -0.1197  0.3347 -0.8424
  179SOL    HW1 1393   1.051   2.749   0.294 -2.3259  0.0708  1.7745
  179SOL    HW2 1394   1.106   2.615   0.336 -0.3066  0.2838 -0.0049
  180SOL     OW 1395   6.223   3.060   7.884 -0.1511  0.3195 -0.2074
  180SOL    HW1 1396   6.142   3.083   7.929  0.9790  0.2451  2.0183
  180SOL    HW2 1397   6.259   3.145   7.856 -0.4138  0.4563 -0.1355
  181SOL     OW 1398   5.520   2.192   5.512  0.3330  0.3043  0.0918
  181SOL    HW1 1399   5.450   2.254   5.490  0.1159 -0.2482 -0.8389
  181SOL    HW2 1400   5.561   2.171   5.428 -0.1848 -1.4919  0.2437
  182SOL     OW 1401   1.235   7.286   5.293  0.2028  0.5412  0.3252
  182SOL    HW1 1402   1.247   7.362   5.349 -0.1914 -0.2379  1.4954
  182SOL    HW2 1403   1.276   7.311   5.210  0.1364  1.9906  0.7013
  183SOL     OW 1404   4.820   3.156   0.374  0.7591  0.1921 -0.4676
  183SOL    HW1 1405   4.736   3.162   0.419  0.6126  1.2551 -0.8391
  183SOL    HW2 1406   4.876   3.105   0.432 -0.5505 -1.7977 -0.8611
  184SOL     OW 1407   0.336   3.031   3.809 -0.3091 -0.6569  0.2607
  184SOL    HW1 1408   0.345   3.006   3.718  0.1189 -1.6076  0.5525
  184SOL    HW2 1409   0.241   3.031   3.825 -0.3851 -0.4329 -0.1913
  185SOL     OW 1410   7.961   7.075   5.421 -0.5936  0.5992  0.0377
  185SOL    HW1 1411   7.915   7.129   5.357 -1.8190  0.0070  0.3803
  185SOL    HW2 1412   7.897   7.061   5.491 -0.9850 -2.6638 -0.8071
  186SOL     OW 1413   4.708   1.794   7.155 -0.0652  0.3325 -0.3381
  186SOL    HW1 1414   4.639   1.732   7.176 -0.3463  1.1097  1.1532
  186SOL    HW2 1415   4.663   1.878   7.143  0.5162  0.6533 -0.3343
  187SOL     OW 1416   1.623   3.709   2.665  0.4505 -0.6371  0.1313
  187SOL    HW1 1417   1.650   3.638   2.723 -0.9312  1.0149  3.0009
  187SOL    HW2 1418   1.565   3.668   2.602 -0.0961 -2.1406  1.5523
  188SOL     OW 1419   1.427   2.789   0.979  0.4581  0.0688  0.1421
  188SOL    HW1 1420   1.457   2.762   0.893  0.2150  0.5448 -0.0962
  188SOL    HW2 1421   1.465   2.876   0.992 -0.5811  0.5752 -0.0603
  189SOL     OW 1422   0.684   3.460   3.560  0.3048 -0.0275 -0.1718
  189SOL    HW1 1423   0.690   3.365   3.553 -0.9293 -0.0479 -1.4575
  189SOL    HW2 1424   0.603   3.476   3.608  1.0267  0.3995  0.9680
  190SOL     OW 1425   1.547   0.998   2.593 -0.2585  0.3755 -0.3559
  190SOL    HW1 1426   1.549   0.904   2.575 -0.1822  0.2695  0.1856
  190SOL    HW2 1427   1.488   1.006   2.668  0.4702  0.6553  0.1958
  191SOL     OW 1428   6.866   4.734   5.084 -0.3241 -0.3830 -0.4469
  191SOL    HW1 1429   6.934   4.677   5.048  0.3172  0.8923 -1.3101
  191SOL    HW2 1430   6.901   4.823   5.075 -1.5772  0.2067  0.2548
  192SOL     OW 1431   0.601   0.126   5.215  0.7270 -0.0909  0.0085
  192SOL    HW1 1432   0.686   0.146   5.176  0.2010  1.4200 -0.4088
  192SOL    HW2 1433   0.539   0.177   5.164 -0.2750 -0.0550  1.2393
  193SOL     OW 1434   3.703   6.614   4.965 -0.3670  0.2279  0.1709
  193SOL    HW1 1435   3.643   6.542   4.942  0.2199 -0.4154  0.6000
  193SOL    HW2 1436   3.784   6.570   4.991 -0.0450  1.0456  0.5870
  194SOL     OW 1437   3.932   3.424   5.083  0.4300 -0.2781 -0.1523
  194SOL    HW1 1438   3.846   3.383   5.094  0.0540  0.4654 -0.2491
  194SOL    HW2 1439   3.959   3.447   5.172  0.4207 -0.2948 -0.1452
  195SOL     OW 1440   6.784   0.474   4.248  0.1321 -0.0095  0.4848
  195SOL    HW1 1441   6.856   0.457   4.309  1.4167  1.1130 -0.6647
  195SOL    HW2 1442   6.715   0.514   4.302  0.4222 -0.9115  1.5607
  196SOL     OW 1443   4.584   3.483   2.822  0.4544 -0.2139  0.2517
  196SOL    HW1 1444   4.531   3.445   2.752  2.0513 -0.3811 -0.9292
  196SOL    HW2 1445   4.671   3.444   2.811  0.6990 -0.4422  2.5164
  197SOL     OW 1446   0.581   1.563   3.121 -0.0204 -0.3046 -0.5235
  197SOL    HW1 1447   0.557   1.604   3.204  1.2028  1.4982 -1.0207
  197SOL    HW2 1448   0.659   1.609   3.092 -0.4247 -0.8513 -2.7172
  198SOL     OW 1449   5.254   6.232   1.613  0.4054 -0.0828  0.2056
  198SOL    HW1 1450   5.320   6.210   1.548 -0.5596 -0.2038 -0.7688
  198SOL    HW2 1451   5.203   6.152   1.625  0.5663 -0.0630  1.1234
  199SOL     OW 1452   2.453   4.186   2.192 -0.3013  0.2987 -0.1817
  199SOL    HW1 1453   2.539   4.154   2.217 -0.1330  0.8154 -0.0803
  199SOL    HW2 1454   2.421   4.123   2.127  0.3283  0.3381 -0.5271
  200SOL     OW 1455   3.117   6.093   1.004 -0.2988  0.1426 -0.1602
  200SOL    HW1 1456   3.092   6.029   1.070 -1.4300  0.4625 -0.2567
  200SOL    HW2 1457   3.041   6.150   0.996  0.3641  0.9748 -0.7060
  201SOL     OW 1458   0.894   5.543   4.986 -0.2401 -0.1820 -0.1480
  201SOL    HW1 1459   0.904   5.453   4.955 -2.0057 -0.8372  1.0147
  201SOL    HW2 1460   0.799   5.559   4.984  0.0402  1.7077 -0.4409
  202SOL     OW 1461   7.707   3.866   3.649 -0.5044  0.1066  0.6823
  202SOL    HW1 1462   7.747   3.779   3.648  1.2460  0.8717 -0.1768
  202SOL    HW2 1463   7.631   3.857   3.706 -0.7946 -2.1629  0.0042
  203SOL     OW 1464   7.861   1.749   4.429  0.2175  0.1172  0.0432
  203SOL    HW1 1465   7.896   1.706   4.351 -2.1502  0.9625 -1.6106
  203SOL    HW2 1466   7.771   1.770   4.405 -1.3115 -1.4044  3.7352
  204SOL     OW 1467   5.965   1.400   2.615 -0.0060  0.2248 -0.0226
  204SOL    HW1 1468   6.006   1.415   2.530  1.2523 -0.0793  0.5007
  204SOL    HW2 1469   5.950   1.488   2.650 -1.3264  0.3705 -0.9004
  205SOL     OW 1470   2.141   5.299   4.274  0.0891  0.3840 -0.8713
  205SOL    HW1 1471   2.073   5.270   4.335  0.7986 -2.0236 -1.1446
  205SOL    HW2 1472   2.097   5.301   4.189  0.8226 -3.9184 -1.5738
  206SOL     OW 1473   1.813   7.779   0.129 -0.3102 -0.5987 -0.4352
  206SOL    HW1 1474   1.876   7.776   0.057  0.2567 -0.4051  0.0381
  206SOL    HW2 1475   1.832   7.701   0.181 -0.1407 -0.3004 -0.0372
  207SOL     OW 1476   1.209   0.810   6.624  0.1803  0.1181 -0.0580
  207SOL    HW1 1477   1.146   0.766   6.682  1.2037 -1.0892  0.1916
  207SOL    HW2 1478   1.202   0.903   6.647 -0.6207 -0.1442  0.8303
  208SOL     OW 1479   2.201   1.441   6.745 -0.1264 -0.0138  0.3511
  208SOL    HW1 1480   2.145   1.400   6.679  1.3384  0.4711 -1.2817
  208SOL    HW2 1481   2.141   1.492   6.800 -1.7440 -2.6566  1.2257
  209SOL     OW 1482   4.651   0.942   4.803  0.0510 -0.0554 -0.0865
  209SOL    HW1 1483   4.649   0.998   4.726  1.6889 -0.5081 -0.5063
  209SOL    HW2 1484   4.744   0.918   4.813 -0.2618 -0.7585  1.4721
  210SOL     OW 1485   3.275   3.964   2.193  0.4979  0.3312  0.3332
  210SOL    HW1 1486   3.280   3.973   2.288  1.3193 -0.3561  0.3765
  210SOL    HW2 1487   3.358   3.922   2.169 -0.2485 -0.7248 -0.5286
  211SOL     OW 1488   7.122   7.769   5.550 -0.2706  0.7876  0.3315
  211SOL    HW1 1489   7.104   7.729   5.635  2.0160 -1.2135 -0.0398
  211SOL    HW2 1490   7.063   7.724   5.490  1.5799 -1.4253  0.0879
  212SOL     OW 1491   7.622   5.483   7.523 -0.0550 -0.4313  0.3255
  212SOL    HW1 1492   7.538   5.503   7.483  0.6853  1.3615 -0.4256
  212SOL    HW2 1493   7.629   5.387   7.519 -1.4717 -0.5092 -0.7762
  213SOL     OW 1494   4.185   7.031   6.663  0.2337 -0.3652 -0.6355
  213SOL    HW1 1495   4.143   7.070   6.587 -0.0117 -0.2096 -0.4233
  213SOL    HW2 1496   4.119   7.035   6.732  0.5328 -0.2875 -0.3486
  214SOL     OW 1497   5.143   7.321   2.141  0.1658 -0.3481  0.1019
  214SOL    HW1 1498   5.192   7.390   2.095 -0.9789  1.0504  0.8986
  214SOL    HW2 1499   5.053   7.331   2.110  0.2176 -2.4820 -0.8773
  215SOL     OW 1500   3.490   4.351   5.574  0.0842  0.4848 -0.4346
  215SOL    HW1 1501   3.401   4.333   5.545  0.2918 -0.1427 -0.6799
  215SOL    HW2 1502   3.542   4.357   5.494  0.8267 -2.1242 -0.2241
  216SOL     OW 1503   3.906   6.618   5.463 -0.1049  0.8279 -0.6094
  216SOL    HW1 1504   3.998   6.634   5.484 -0.4832 -0.4465  2.7808
  216SOL    HW2 1505   3.865   6.705   5.468  0.1868  0.9512  3.2191
  217SOL     OW 1506   2.060   6.543   2.885 -0.0445 -0.0088  0.1616
  217SOL    HW1 1507   2.043   6.459   2.844 -2.0828  0.0960  0.6653
  217SOL    HW2 1508   2.119   6.589   2.825 -2.1106 -0.2314 -2.1845
  218SOL     OW 1509   4.591   0.227   4.228  0.1216 -0.0541 -0.4841
  218SOL    HW1 1510   4.506   0.264   4.251  0.7155  0.8269  0.4199
  218SOL    HW2 1511   4.630   0.291   4.168  0.3095 -0.2428 -0.5657
  219SOL     OW 1512   0.017   3.459   0.692  0.2803 -0.3336  0.1677
  219SOL    HW1 1513   0.040   3.483   0.781  0.1688 -0.2440  0.1720
  219SOL    HW2 1514   0.087   3.496   0.638 -0.3751  0.8192  0.0752
  220SOL     OW 1515   0.173   5.090   0.780  0.0866 -0.1842 -1.1835
  220SOL    HW1 1516   0.251   5.047   0.744  0.1253 -0.2495 -1.0206
  220SOL    HW2 1517   0.099   5.047   0.736 -0.0371 -2.4277  1.0356
  221SOL     OW 1518   1.153   1.670   5.544  0.0288  0.5207  1.0724
  221SOL    HW1 1519   1.120   1.606   5.481  0.4846  0.9412  0.3757
  221SOL    HW2 1520   1.091   1.743   5.539  0.2700  0.7155  0.8089
  222SOL     OW 1521   0.746   3.654   0.354 -0.3519  0.0658 -0.0885
  222SOL    HW1 1522   0.718   3.699   0.274 -1.4736 -1.5499 -0.6302
  222SOL    HW2 1523   0.761   3.564   0.327 -0.8233 -0.5263  1.5541
  223SOL     OW 1524   6.750   3.702   3.125 -0.2822  0.1345  0.1551
  223SOL    HW1 1525   6.655   3.692   3.133 -0.2124 -0.3333  0.4791
  223SOL    HW2 1526   6.766   3.704   3.030 -0.6265  0.3431  0.1000
  224SOL     OW 1527   7.909   1.722   2.616  0.4398 -0.3406  0.2089
  224SOL    HW1 1528   7.955   1.698   2.697  0.9079  0.4693  0.1883
  224SOL    HW2 1529   7.843   1.786   2.644  1.3797  0.8400 -0.2025
  225SOL     OW 1530   3.654   3.048   5.977 -0.1809 -0.2381  0.3277
  225SOL    HW1 1531   3.612   2.963   5.995 -1.2758  0.0400 -0.7191
  225SOL    HW2 1532   3.634   3.101   6.054 -0.7471 -0.4893  0.3632
  226SOL     OW 1533   4.505   2.893   1.909 -0.1733  0.0571  0.0872
  226SOL    HW1 1534   4.495   2.987   1.926  0.8802 -0.0244  1.3770
  226SOL    HW2 1535   4.416   2.858   1.910 -0.6456  1.1620 -1.2743
  227SOL     OW 1536   4.330   1.515   4.168 -0.0017 -0.1751  0.0171
  227SOL    HW1 1537   4.261   1.576   4.140  1.2771  1.4289  0.2174
  227SOL    HW2 1538   4.311   1.434   4.122 -1.4937  0.5146 -0.6367
  228SOL     OW 1539   5.837   7.338   3.570 -0.2523 -0.1937 -0.4316
  228SOL    HW1 1540   5.918   7.357   3.618 -0.9747  3.3437 -0.3507
  228SOL    HW2 1541   5.774   7.315   3.638 -0.1217  0.2576 -0.1554
  229SOL     OW 1542   7.694   6.333   5.423  0.2971 -0.3721 -0.9352
  229SOL    HW1 1543   7.776   6.361   5.381  1.4700 -1.1600  0.7594
  229SOL    HW2 1544   7.658   6.414   5.461  1.5614 -0.4222  0.4142
  230SOL     OW 1545   3.337   7.881   1.516  0.2214  0.0968 -0.1885
  230SOL    HW1 1546   3.295   7.806   1.475 -0.6870 -0.1978  1.2041
  230SOL    HW2 1547   3.337   7.949   1.448  1.2334 -1.1893 -1.5202
  231SOL     OW 1548   1.373   6.275   6.997 -0.2145 -0.0350  0.3430
  231SOL    HW1 1549   1.452   6.275   6.943  1.3848 -1.1479  2.5054
  231SOL    HW2 1550   1.346   6.367   7.001  1.8775  0.6202  0.7095
  232SOL     OW 1551   6.593   4.016   4.568 -0.0484 -0.1091 -0.2685
  232SOL    HW1 1552   6.510   4.058   4.545 -0.4866 -1.0827 -0.5148
  232SOL    HW2 1553   6.607   4.040   4.660 -1.6088 -1.4856  0.3978
  233SOL     OW 1554   7.090   6.085   3.025 -0.0075 -0.2492  0.3833
  233SOL    HW1 1555   7.151   6.081   2.952 -0.1218  1.0511  0.1966
  233SOL    HW2 1556   7.018   6.138   2.994 -0.0700  0.3133  1.4200
  234SOL     OW 1557   6.212   6.552   6.479 -0.9240 -0.0128  0.5903
  234SOL    HW1 1558   6.117   6.539   6.476 -0.8472 -0.6732  0.9088
  234SOL    HW2 1559   6.246   6.499   6.408 -0.8554  0.9324 -0.1058
  235SOL     OW 1560   6.655   4.642   1.227 -0.2155  0.3959  0.2159
  235SOL    HW1 1561   6.723   4.667   1.290 -0.1405  0.9380 -0.0709
  235SOL    HW2 1562   6.593   4.591   1.279  1.4976 -2.0745  0.0200
  236SOL     OW 1563   3.574   2.478   5.747  0.4271  0.1241  0.2470
  236SOL    HW1 1564   3.506   2.524   5.796  0.9524  1.4061 -0.1984
  236SOL    HW2 1565   3.579   2.523   5.663  1.4742 -0.2669  0.0790
  237SOL     OW 1566   2.795   4.462   4.646 -0.1502  0.2854  0.0525
  237SOL    HW1 1567   2.788   4.399   4.717 -2.0043  0.2300 -0.1326
  237SOL    HW2 1568   2.889   4.471   4.631  0.1840 -1.9106  0.5284
  238SOL     OW 1569   6.783   4.943   7.468 -0.3899 -0.2303 -0.7050
  238SOL    HW1 1570   6.870   4.967   7.499 -0.5823  0.3129 -0.5562
  238SOL    HW2 1571   6.758   5.015   7.410 -1.2719  0.2979  0.2977
  239SOL     OW 1572   5.429   0.809   3.560 -0.2186  0.4923  0.2025
  239SOL    HW1 1573   5.410   0.893   3.518  0.4114  0.0097 -1.0881
  239SOL    HW2 1574   5.509   0.825   3.610 -0.6727  0.9264  0.8014
  240SOL     OW 1575   2.043   7.110   7.134 -0.1840 -0.4749  0.3367
  240SOL    HW1 1576   1.966   7.065   7.168  0.0310  0.3911  2.1101
  240SOL    HW2 1577   2.115   7.048   7.148 -0.4951 -1.1744 -1.0643
  241SOL     OW 1578   2.345   7.498   0.162 -0.0278  0.0208 -0.4130
  241SOL    HW1 1579   2.317   7.575   0.212 -1.4744 -1.1818  0.7568
  241SOL    HW2 1580   2.372   7.435   0.229  1.3510 -0.4425 -1.3532
  242SOL     OW 1581   7.765   2.747   5.110  0.3839  0.0251  0.0514
  242SOL    HW1 1582   7.788   2.731   5.018  0.3240  0.2893 -0.0098
  242SOL    HW2 1583   7.824   2.817   5.138  0.3877 -0.0403  0.2091
  243SOL     OW 1584   7.412   5.356   4.106 -0.9697 -0.1061 -0.8251
  243SOL    HW1 1585   7.407   5.359   4.202  0.2194 -0.6696 -0.7285
  243SOL    HW2 1586   7.397   5.264   4.084  0.0675 -0.2304 -1.0703
  244SOL     OW 1587   0.482   6.155   1.913  0.4188 -0.0268 -0.1292
  244SOL    HW1 1588   0.540   6.227   1.936  1.0520 -0.9894  1.3895
  244SOL    HW2 1589   0.540   6.083   1.888 -0.1184 -0.7284  0.5771
  245SOL     OW 1590   6.855   6.209   0.644 -0.0855 -0.2249 -0.0965
  245SOL    HW1 1591   6.876   6.297   0.677 -1.0064  0.0121 -0.1225
  245SOL    HW2 1592   6.925   6.190   0.581  0.2854  0.3644  0.1233
  246SOL     OW 1593   7.185   4.834   4.004  0.1460 -0.5151 -0.4317
  246SOL    HW1 1594   7.210   4.900   3.939  1.6826  0.0113  0.6276
  246SOL    HW2 1595   7.101   4.865   4.038  0.0625  0.0108 -1.0898
  247SOL     OW 1596   0.281   5.810   1.840  0.3674  0.0270  0.0654
  247SOL    HW1 1597   0.343   5.871   1.882  1.0592 -0.6998  0.1316
  247SOL    HW2 1598   0.291   5.729   1.889 -0.5090 -0.1620 -0.0579
  248SOL     OW 1599   0.451   2.559   2.986  0.5163  0.0518  0.1965
  248SOL    HW1 1600   0.421   2.550   3.077  3.0035 -0.2363  1.0543
  248SOL    HW2 1601   0.434   2.650   2.965 -3.6701 -0.6853 -0.5172
  249SOL     OW 1602   2.275   6.061   7.919  0.0353  0.4043  0.4338
  249SOL    HW1 1603   2.278   6.052   7.824  1.7256  3.9425 -0.0072
  249SOL    HW2 1604   2.348   6.009   7.951 -0.6066 -0.8912 -0.1527
  250SOL     OW 1605   7.207   6.102   2.488  0.8043  0.4157  0.1549
  250SOL    HW1 1606   7.221   6.197   2.483 -1.2332  0.8098  0.7869
  250SOL    HW2 1607   7.139   6.085   2.424  0.1754 -0.3833  1.0154
  251SOL     OW 1608   5.460   6.581   2.430  0.3884  0.2036 -0.5280
  251SOL    HW1 1609   5.389   6.603   2.369  0.4105  1.0674 -0.2553
  251SOL    HW2 1610   5.415   6.550   2.508  0.3174  0.6035 -0.4108
  252SOL     OW 1611   6.482   4.825   7.211  0.2956 -0.1507  0.2286
  252SOL    HW1 1612   6.415   4.757   7.203 -1.2644  1.4717 -1.1504
  252SOL    HW2 1613   6.459   4.889   7.144  2.6212  1.0019  0.4562
  253SOL     OW 1614   1.679   7.179   5.193  0.4227  0.1781  0.3843
  253SOL    HW1 1615   1.643   7.176   5.105  1.1836 -1.7490  0.0938
  253SOL    HW2 1616   1.622   7.121   5.244  0.3945  0.7436  1.0180
  254SOL     OW 1617   6.750   0.531   7.513  0.1579 -0.2085 -0.0636
  254SOL    HW1 1618   6.826   0.574   7.475  1.1177 -2.4864 -0.8878
  254SOL    HW2 1619   6.714   0.477   7.443 -3.3784  2.0945 -0.2608
  255SOL     OW 1620   7.140   6.759   7.171 -0.7238  0.9019  0.2254
  255SOL    HW1 1621   7.158   6.843   7.214 -1.8364  0.7665  1.0101
  255SOL    HW2 1622   7.137   6.780   7.078 -0.9624  1.7391  0.4079
  256SOL     OW 1623   6.808   2.392   1.138  0.1792 -0.3352  0.3083
  256SOL    HW1 1624   6.874   2.438   1.087  0.4282  0.3668  1.2469
  256SOL    HW2 1625   6.729   2.446   1.129 -0.8245 -2.0063 -2.1817
  257SOL     OW 1626   2.832   1.690   6.796 -0.1500 -0.2274 -0.4558
  257SOL    HW1 1627   2.801   1.710   6.885 -0.2527  0.5294 -0.6541
  257SOL    HW2 1628   2.786   1.752   6.740 -0.5188 -1.0773 -1.1171
  258SOL     OW 1629   5.097   6.816   7.598 -0.4003  0.7243 -0.5234
  258SOL    HW1 1630   5.062   6.737   7.557 -0.1291  0.2916  0.0724
  258SOL    HW2 1631   5.185   6.792   7.626 -0.4996  1.0851  0.1097
  259SOL     OW 1632   5.663   7.211   3.756  0.5863  0.0042 -0.0296
  259SOL    HW1 1633   5.723   7.136   3.755  1.5980  0.7632  0.7780
  259SOL    HW2 1634   5.577   7.174   3.775  0.9329 -1.0269 -0.4290
  260SOL     OW 1635   0.207   7.001   1.986  0.4130  0.7274 -0.3591
  260SOL    HW1 1636   0.220   7.026   2.077  0.3198  1.4599 -0.5361
  260SOL    HW2 1637   0.113   7.013   1.971  0.3067 -0.0545 -0.3661
  261SOL     OW 1638   2.230   7.753   6.997  0.6420  0.5998  0.0210
  261SOL    HW1 1639   2.247   7.723   6.908 -0.2387  1.5148 -0.4759
  261SOL    HW2 1640   2.310   7.798   7.023  0.5756  1.1356 -0.6707
  262SOL     OW 1641   1.569   6.108   2.308  0.3910 -0.3542  0.4408
  262SOL    HW1 1642   1.590   6.197   2.336 -0.8923  0.4494 -0.9943
  262SOL    HW2 1643   1.511   6.119   2.233  1.3295 -2.3995 -0.6827
  263SOL     OW 1644   0.157   5.618   0.294 -0.0971 -0.1410 -0.8055
  263SOL    HW1 1645   0.208   5.541   0.266  1.6082  1.2293 -1.6982
  263SOL    HW2 1646   0.191   5.638   0.381 -1.0215 -0.7805 -0.2908
  264SOL     OW 1647   3.076   7.953   1.584  0.1132  0.3494  0.2097
  264SOL    HW1 1648   3.165   7.923   1.569 -0.3590 -1.5978  0.9642
  264SOL    HW2 1649   3.081   8.049   1.577  1.7475  0.1672 -2.1769
  265SOL     OW 1650   2.424   0.979   1.784  0.4701  0.4607  0.1941
  265SOL    HW1 1651   2.457   0.896   1.816 -0.5508  0.1242  0.3800
  265SOL    HW2 1652   2.423   0.969   1.688  0.1191  0.1715  0.2276
  266SOL     OW 1653   5.273   3.376   5.136  0.2989 -0.5791  0.1193
  266SOL    HW1 1654   5.321   3.454   5.107 -0.3115  0.4406  1.7429
  266SOL    HW2 1655   5.321   3.303   5.097  1.5964  0.5419 -0.4597
  267SOL     OW 1656   6.801   6.645   1.270 -0.2213  0.3817 -0.1236
  267SOL    HW1 1657   6.881   6.600   1.243 -1.3543 -3.2038  1.8767
  267SOL    HW2 1658   6.758   6.668   1.188  1.2508 -0.7243 -1.2699
  268SOL     OW 1659   4.459   1.828   1.565  0.0304 -0.3025  0.1001
  268SOL    HW1 1660   4.531   1.811   1.627  1.7026 -3.1056 -2.3163
  268SOL    HW2 1661   4.412   1.745   1.561  0.9863 -0.8485 -3.3969
  269SOL     OW 1662   7.811   7.423   4.402  0.1959  0.0717  0.5856
  269SOL    HW1 1663   7.839   7.476   4.327  0.2482 -1.2751 -0.3754
  269SOL    HW2 1664   7.724   7.457   4.424 -0.0610  0.1197 -0.4506
  270SOL     OW 1665   6.906   1.885   4.160 -0.0015 -0.8577  0.2680
  270SOL    HW1 1666   6.987   1.924   4.193  0.3789  0.9381 -2.4887
  270SOL    HW2 1667   6.927   1.792   4.148  1.0856 -0.7525  1.1925
  271SOL     OW 1668   4.139   3.448   6.154  0.0610  0.0770 -0.3565
  271SOL    HW1 1669   4.174   3.496   6.229  0.1802  0.3774 -0.6059
  271SOL    HW2 1670   4.046   3.471   6.152  0.5114  1.9228 -1.6982
  272SOL     OW 1671   7.872   3.393   2.381 -0.6333  0.3054 -0.2262
  272SOL    HW1 1672   7.781   3.393   2.352 -1.0379  0.7595  0.9767
  272SOL    HW2 1673   7.917   3.450   2.319 -1.7280  2.3210  0.7321
  273SOL     OW 1674   5.725   3.763   5.547 -0.6643 -0.4601  0.2012
  273SOL    HW1 1675   5.697   3.733   5.634 -1.8647  0.9634  0.3477
  273SOL    HW2 1676   5.693   3.853   5.541  0.8882  0.0574 -1.0673
  274SOL     OW 1677   3.120   1.420   2.401  0.4351 -0.5652 -0.4406
  274SOL    HW1 1678   3.075   1.473   2.467  1.2408 -0.7836  0.3037
  274SOL    HW2 1679   3.157   1.484   2.341  0.2381 -0.3357 -0.3218
  275SOL     OW 1680   1.368   4.732   1.141 -0.1627 -0.9660  0.1648
  275SOL    HW1 1681   1.285   4.739   1.188 -1.0302 -0.8637 -1.2961
  275SOL    HW2 1682   1.387   4.638   1.140 -1.0820 -1.1652 -0.7835
  276SOL     OW 1683   4.690   2.669   4.868 -0.2699 -0.1897  0.9549
  276SOL    HW1 1684   4.750   2.631   4.804 -0.0489  3.1815 -1.0559
  276SOL    HW2 1685   4.607   2.679   4.821 -0.3673  1.5181  1.4346
  277SOL     OW 1686   1.392   2.430   2.360 -0.1173  0.2348  0.3837
  277SOL    HW1 1687   1.474   2.452   2.316 -1.1700  3.2228 -0.3041
  277SOL    HW2 1688   1.343   2.512   2.362 -3.9404 -1.7513 -1.0273
  278SOL     OW 1689   1.301   0.922   7.041  0.4509  0.0862 -0.0350
  278SOL    HW1 1690   1.383   0.957   7.077  0.0383  0.5364  0.4695
  278SOL    HW2 1691   1.234   0.983   7.070 -0.1528 -0.6238  0.0941
  279SOL     OW 1692   7.020   5.640   7.746  0.2717  0.8846 -0.1698
  279SOL    HW1 1693   7.027   5.730   7.713 -0.0986 -0.1577 -3.3689
  279SOL    HW2 1694   7.106   5.602   7.729  0.1325  0.3427  0.3238
  280SOL     OW 1695   4.656   4.469   3.434  0.2602 -0.2041 -0.0709
  280SOL    HW1 1696   4.643   4.388   3.385 -1.0987  1.0706 -1.9351
  280SOL    HW2 1697   4.571   4.488   3.472  0.2639  0.9430 -0.6123
  281SOL     OW 1698   6.825   5.853   3.317  0.0790  0.4379 -0.0944
  281SOL    HW1 1699   6.782   5.877   3.235 -0.8812  2.3696  0.9247
  281SOL    HW2 1700   6.826   5.933   3.369  2.7477 -0.1370  0.9216
  282SOL     OW 1701   0.645   0.774   4.073  0.0424 -0.4045  0.2963
  282SOL    HW1 1702   0.722   0.726   4.041 -0.4568 -0.0661 -1.5060
  282SOL    HW2 1703   0.573   0.743   4.019 -0.5544  1.3401  0.0128
  283SOL     OW 1704   6.449   6.974   2.413  0.2342  0.4853 -0.5251
  283SOL    HW1 1705   6.508   7.047   2.391 -0.2467  1.4760  1.2677
  283SOL    HW2 1706   6.402   7.004   2.490 -1.2858 -1.0473 -0.7964
  284SOL     OW 1707   5.687   0.626   7.660 -0.0862  0.3428  0.4138
  284SOL    HW1 1708   5.613   0.568   7.680 -0.9535  1.1265 -0.4098
  284SOL    HW2 1709   5.764   0.572   7.675 -0.8396 -0.7692  0.4648
  285SOL     OW 1710   6.934   5.952   4.243 -0.3056  0.3774  0.7845
  285SOL    HW1 1711   6.990   5.968   4.319  0.3941 -1.2641  0.6472
  285SOL    HW2 1712   6.994   5.946   4.169 -0.8015 -0.0170  0.4054
  286SOL     OW 1713   5.292   1.793   1.309  0.2072 -0.5068  0.1114
  286SOL    HW1 1714   5.264   1.808   1.219  2.0232 -0.8045 -0.5511
  286SOL    HW2 1715   5.339   1.872   1.333  0.1460 -0.6263  0.6416
  287SOL     OW 1716   3.510   2.810   5.990 -0.7228  0.9068 -0.6606
  287SOL    HW1 1717   3.490   2.757   5.913  0.6875  0.7665 -0.9661
  287SOL    HW2 1718   3.520   2.746   6.060 -1.1614  0.9629 -0.5443
  288SOL     OW 1719   2.165   4.119   0.176  0.0739  0.3487  0.2107
  288SOL    HW1 1720   2.109   4.172   0.233 -0.7090 -1.4675  1.2054
  288SOL    HW2 1721   2.104   4.068   0.123  0.7834 -0.7793  0.4593
  289SOL     OW 1722   5.212   6.767   4.081 -0.0588 -0.2804  0.3203
  289SOL    HW1 1723   5.137   6.720   4.042 -0.7745  1.6360 -0.7311
  289SOL    HW2 1724   5.278   6.766   4.012  0.7033 -1.4205  1.0254
  290SOL     OW 1725   7.959   2.083   4.691  0.4296 -0.4573  0.0342
  290SOL    HW1 1726   8.040   2.112   4.733  2.2828 -4.3515 -0.4320
  290SOL    HW2 1727   7.903   2.054   4.763  0.4560 -0.0759  0.2126
  291SOL     OW 1728   1.520   0.638   4.647 -0.0694  0.3760  0.6844
  291SOL    HW1 1729   1.464   0.691   4.590  0.7060  0.0362 -0.4432
  291SOL    HW2 1730   1.585   0.601   4.588  1.4928  0.9309  1.9849
  292SOL     OW 1731   2.122   0.417   4.533 -0.0976 -0.0789  0.5851
  292SOL    HW1 1732   2.029   0.395   4.541 -0.3854  0.3146 -1.3294
  292SOL    HW2 1733   2.153   0.365   4.460  0.9897  0.4291  0.6734
  293SOL     OW 1734   4.658   5.897   1.536  0.5698 -0.4483 -0.0144
  293SOL    HW1 1735   4.721   5.935   1.476  1.1259 -0.7100  0.3854
  293SOL    HW2 1736   4.711   5.868   1.611 -0.2104  0.7357  1.0362
  294SOL     OW 1737   1.007   2.834   3.176  0.1586  0.4558 -0.7915
  294SOL    HW1 1738   1.089   2.849   3.128  0.0246 -1.3143 -1.6307
  294SOL    HW2 1739   1.005   2.740   3.193 -1.3172  0.5906 -0.0485
  295SOL     OW 1740   3.043   7.924   4.501 -0.2293 -0.3872  0.4941
  295SOL    HW1 1741   3.126   7.954   4.464 -0.6636  0.9067  0.5285
  295SOL    HW2 1742   2.976   7.961   4.445 -0.8537  0.6235  1.8470
  296SOL     OW 1743   5.179   0.870   0.853  0.1906 -0.3652 -0.0869
  296SOL    HW1 1744   5.107   0.897   0.796 -0.2975 -0.8834  0.2645
  296SOL    HW2 1745   5.145   0.793   0.899  0.7658 -0.2776  0.5004
  297SOL     OW 1746   3.566   5.992   6.503 -0.0685 -0.2627 -0.0018
  297SOL    HW1 1747   3.606   6.070   6.542 -2.5370  1.6579 -0.9817
  297SOL    HW2 1748   3.553   5.933   6.576  3.1099 -0.4460  0.5638
  298SOL     OW 1749   5.533   3.085   5.729 -0.3802  0.1020 -0.6205
  298SOL    HW1 1750   5.503   3.175   5.743  1.1696  0.7257 -1.1171
  298SOL    HW2 1751   5.552   3.080   5.636  1.7017 -0.0110 -0.2377
  299SOL     OW 1752   7.595   0.431   0.530 -0.0039  0.1459  0.0135
  299SOL    HW1 1753   7.596   0.508   0.474 -2.2546 -0.9063 -1.6534
  299SOL    HW2 1754   7.566   0.463   0.615 -0.0454  1.2767 -0.4115
  300SOL     OW 1755   6.168   1.996   0.122 -0.0532  0.6162  0.1873
  300SOL    HW1 1756   6.114   1.943   0.064 -0.9460  0.2062  1.3616
  300SOL    HW2 1757   6.178   1.943   0.201  1.0334  1.2161  0.4754
  301SOL     OW 1758   2.548   0.285   2.379  0.2964  0.1995 -0.1991
  301SOL    HW1 1759   2.556   0.244   2.465 -0.1291 -0.5693 -0.5162
  301SOL    HW2 1760   2.638   0.290   2.346  0.5354  1.1268  0.5673
  302SOL     OW 1761   2.189   1.379   6.182 -0.7101  0.7196  0.1610
  302SOL    HW1 1762   2.235   1.460   6.160 -3.1866  3.2546  3.2265
  302SOL    HW2 1763   2.253   1.327   6.231  0.3494  1.6878 -0.1503
  303SOL     OW 1764   5.820   7.846   1.499  0.1552  0.4604 -0.2249
  303SOL    HW1 1765   5.880   7.920   1.489  0.6600  0.3341  1.5724
  303SOL    HW2 1766   5.751   7.879   1.556 -1.6473  0.6446 -2.3708
  304SOL     OW 1767   0.003   7.362   5.010 -0.0271 -0.3193 -0.1584
  304SOL    HW1 1768  -0.039   7.439   5.048 -0.8941 -0.7381 -0.2268
  304SOL    HW2 1769  -0.069   7.315   4.967  0.4552 -1.2428  0.0259
  305SOL     OW 1770   4.522   1.117   7.457  0.3585  0.0729 -0.2326
  305SOL    HW1 1771   4.545   1.160   7.374 -1.0117  1.0019 -0.1684
  305SOL    HW2 1772   4.468   1.042   7.430  0.8523 -0.2955 -0.2207
  306SOL     OW 1773   5.879   5.679   4.947  0.0771  0.3606  0.2562
  306SOL    HW1 1774   5.900   5.720   4.864 -0.3779 -0.9090 -0.5216
  306SOL    HW2 1775   5.797   5.720   4.974 -0.7332 -0.4630 -0.8509
  307SOL     OW 1776   3.412   5.134   4.098 -0.2395 -0.5669  0.3280
  307SOL    HW1 1777   3.334   5.099   4.056 -0.3846 -0.2749  0.3526
  307SOL    HW2 1778   3.483   5.077   4.067 -0.2028  0.1578 -1.0297
  308SOL     OW 1779   5.813   2.760   7.970  0.2273  0.1584 -0.2831
  308SOL    HW1 1780   5.801   2.740   7.877  0.3413  0.8799 -0.4591
  308SOL    HW2 1781   5.806   2.676   8.014 -2.8770  0.1295 -0.6120
  309SOL     OW 1782   7.011   4.703   1.956 -0.0488 -0.2850 -0.1657
  309SOL    HW1 1783   6.997   4.623   2.008  0.7922  0.4486  1.2551
  309SOL    HW2 1784   6.993   4.774   2.018  0.5357  0.6258 -1.0237
  310SOL     OW 1785   2.614   6.400   1.296  0.1864 -0.0196 -0.5849
  310SOL    HW1 1786   2.633   6.340   1.224 -1.9323  0.6302 -1.7906
  310SOL    HW2 1787   2.610   6.486   1.255  1.1783  0.7052  0.7522
  311SOL     OW 1788   5.989   1.371   6.662  0.9343 -1.0362  0.6595
  311SOL    HW1 1789   6.076   1.405   6.684 -1.2250  4.3243  2.3187
  311SOL    HW2 1790   5.978   1.392   6.569  0.8084 -0.0777  0.8824
  312SOL     OW 1791   7.738   6.344   3.569 -0.3660  0.3802 -0.4601
  312SOL    HW1 1792   7.685   6.324   3.646 -0.0563  1.1046 -0.0415
  312SOL    HW2 1793   7.737   6.263   3.517 -1.5173  0.2508 -0.2636
  313SOL     OW 1794   0.035   4.799   2.991 -0.0451  0.0416 -0.0549
  313SOL    HW1 1795  -0.057   4.805   2.966 -0.4664 -1.2275  1.0749
  313SOL    HW2 1796   0.083   4.825   2.912 -1.3380  2.6529 -0.0790
  314SOL     OW 1797   4.013   6.112   3.256  0.0789  0.3355 -0.1193
  314SOL    HW1 1798   4.093   6.061   3.251  0.2316  0.6006 -0.4139
  314SOL    HW2 1799   3.956   6.076   3.188 -0.6719 -0.9012  1.1253
  315SOL     OW 1800   2.235   1.254   3.432  0.5252 -0.0587 -0.2237
  315SOL    HW1 1801   2.217   1.164   3.459 -0.3692 -0.3287 -1.6282
  315SOL    HW2 1802   2.149   1.294   3.422  0.9079  1.5105  1.9886
  316SOL     OW 1803   1.730   3.008   1.327  0.2206 -0.2560  0.4164
  316SOL    HW1 1804   1.641   3.035   1.347  0.3416 -0.3979  1.1769
  316SOL    HW2 1805   1.729   2.990   1.233 -0.5736 -0.3660  0.4388
  317SOL     OW 1806   3.175   1.530   7.604  0.0947  0.0557  0.2444
  317SOL    HW1 1807   3.114   1.595   7.571 -0.5640  0.0487  1.3801
  317SOL    HW2 1808   3.248   1.581   7.639 -0.6116  0.2346  1.5115
  318SOL     OW 1809   3.623   4.737   1.093  0.2969 -0.1459 -0.3060
  318SOL    HW1 1810   3.691   4.680   1.129  0.7065  0.3292 -0.3083
  318SOL    HW2 1811   3.563   4.752   1.166  0.4881 -0.1277 -0.1535
  319SOL     OW 1812   1.400   7.502   6.203 -0.0969  0.2716 -0.1274
  319SOL    HW1 1813   1.466   7.455   6.255  0.4239  0.4326 -0.6282
  319SOL    HW2 1814   1.326   7.441   6.199 -0.0640  0.1701  0.6166
  320SOL     OW 1815   1.078   5.627   3.297  0.5343 -0.1648  0.0744
  320SOL    HW1 1816   1.105   5.659   3.212 -1.0816 -0.2278 -0.4883
  320SOL    HW2 1817   1.029   5.699   3.336  0.3418 -0.5153  0.4921
  321SOL     OW 1818   5.645   2.774   1.567  0.3463  0.3697 -0.2443
  321SOL    HW1 1819   5.725   2.722   1.557  0.8109  1.0256 -0.0410
  321SOL    HW2 1820   5.616   2.756   1.656  0.5556  0.5157 -0.1437
  322SOL     OW 1821   5.861   3.805   1.469 -0.3307  0.0712 -0.0212
  322SOL    HW1 1822   5.834   3.871   1.405 -2.5134 -0.3840  0.3273
  322SOL    HW2 1823   5.778   3.765   1.497  0.8703 -2.7179 -0.1075
  323SOL     OW 1824   4.083   5.962   2.360 -0.7572  0.2247  0.2185
  323SOL    HW1 1825   4.130   5.902   2.303 -0.3479 -0.7767  1.5465
  323SOL    HW2 1826   4.026   6.011   2.302 -1.1759 -1.5193 -0.9293
  324SOL     OW 1827   3.801   1.514   4.546 -0.3840 -0.1520  0.6590
  324SOL    HW1 1828   3.866   1.571   4.588  0.8618 -2.2789  1.8204
  324SOL    HW2 1829   3.842   1.488   4.464 -1.0558  0.7856  0.0149
  325SOL     OW 1830   7.895   2.289   3.218 -0.4927 -0.0280  0.5277
  325SOL    HW1 1831   7.878   2.195   3.226 -0.0720 -0.0700  0.9542
  325SOL    HW2 1832   7.915   2.301   3.125  0.6155 -0.5655  0.6761
  326SOL     OW 1833   3.563   0.583   7.704 -0.8592  0.3531 -0.2470
  326SOL    HW1 1834   3.520   0.628   7.631 -1.2829  0.1127 -0.1445
  326SOL    HW2 1835   3.587   0.653   7.764  1.2936  0.7979 -1.5191
  327SOL     OW 1836   4.857   1.660   0.738 -0.0755  0.4652  0.5802
  327SOL    HW1 1837   4.808   1.635   0.659  2.5998 -1.3219 -0.6856
  327SOL    HW2 1838   4.848   1.755   0.743  2.1837  1.1772 -3.8598
  328SOL     OW 1839   1.795   5.849   0.775  0.9154  0.5728  0.0071
  328SOL    HW1 1840   1.701   5.863   0.779  0.9834  0.9562  0.3145
  328SOL    HW2 1841   1.805   5.754   0.769  0.5064  0.5418 -0.2028
  329SOL     OW 1842   5.788   4.366   3.586  0.2862  0.2224  0.0757
  329SOL    HW1 1843   5.831   4.328   3.510 -1.3068 -2.0982  0.2515
  329SOL    HW2 1844   5.856   4.419   3.628  2.2521 -1.3561 -0.9563
  330SOL     OW 1845   6.490   0.565   2.952 -0.0214  0.4467  0.0731
  330SOL    HW1 1846   6.431   0.631   2.989  2.4619  2.2830  1.0199
  330SOL    HW2 1847   6.542   0.613   2.887  0.4984 -1.0860 -0.6930
  331SOL     OW 1848   6.832   5.790   5.711 -0.0667  0.3903  0.1920
  331SOL    HW1 1849   6.906   5.843   5.740  0.0643  0.0191  0.5434
  331SOL    HW2 1850   6.845   5.705   5.753 -0.3269  0.1097 -0.2884
  332SOL     OW 1851   0.887   2.884   4.903 -0.3552 -0.1175 -0.4200
  332SOL    HW1 1852   0.874   2.801   4.949 -0.2285 -0.6008 -1.2261
  332SOL    HW2 1853   0.866   2.864   4.811  0.8503  0.4232 -0.8444
  333SOL     OW 1854   0.917   5.935   4.024  0.9108 -0.0234  0.0414
  333SOL    HW1 1855   0.962   5.851   4.026  0.8398 -0.0484  1.2340
  333SOL    HW2 1856   0.926   5.970   4.113 -0.8310  0.2778  0.1405
  334SOL     OW 1857   0.909   7.257   1.896  1.2855  0.9437  0.3703
  334SOL    HW1 1858   0.946   7.285   1.979  1.0212 -1.9169  1.5741
  334SOL    HW2 1859   0.908   7.161   1.901 -2.4682  0.7197 -1.2353
  335SOL     OW 1860   7.598   0.150   3.061  0.1317  0.5402 -0.2316
  335SOL    HW1 1861   7.588   0.167   2.967  0.9216  1.5688 -0.1482
  335SOL    HW2 1862   7.639   0.064   3.067 -2.2443 -0.7097 -0.7413
  336SOL     OW 1863   4.851   4.283   1.494 -0.6654 -0.0338 -0.2278
  336SOL    HW1 1864   4.866   4.366   1.539  0.9349  0.0407 -0.8507
  336SOL    HW2 1865   4.901   4.219   1.545 -0.1725 -0.2343 -0.9594
  337SOL     OW 1866   3.843   3.344   0.030  0.0741  0.2779 -0.3643
  337SOL    HW1 1867   3.906   3.320   0.098 -1.4807  2.8189  2.1328
  337SOL    HW2 1868   3.897   3.358  -0.048  2.1639 -0.7390  0.8026
  338SOL     OW 1869   5.744   6.804   7.062 -0.2556  0.0173  0.0539
  338SOL    HW1 1870   5.812   6.740   7.081 -0.0647 -0.1605 -1.1386
  338SOL    HW2 1871   5.722   6.843   7.147  0.5101 -0.7411  0.6053
  339SOL     OW 1872   2.360   0.753   5.419  0.4642  0.0527 -0.0865
  339SOL    HW1 1873   2.322   0.666   5.403  1.7931 -0.8568  1.3750
  339SOL    HW2 1874   2.286   0.807   5.445 -0.6297 -0.2177 -2.3285
  340SOL     OW 1875   3.272   4.371   4.566  0.8451  0.3062 -0.3865
  340SOL    HW1 1876   3.195   4.328   4.527  0.4766  0.1887  0.4516
  340SOL    HW2 1877   3.240   4.409   4.647  1.2102  2.0531 -1.0266
  341SOL     OW 1878   3.430   3.213   2.023  0.3848 -0.0390  0.2332
  341SOL    HW1 1879   3.413   3.302   1.990 -3.4741 -0.1730  1.4269
  341SOL    HW2 1880   3.419   3.220   2.118 -1.3060 -1.9808  0.2463
  342SOL     OW 1881   7.957   3.603   3.760 -0.3172  0.4293  0.5055
  342SOL    HW1 1882   7.909   3.639   3.686 -0.2578 -0.4624  0.0275
  342SOL    HW2 1883   8.047   3.598   3.731 -0.2114  0.5214  0.8093
  343SOL     OW 1884   2.832   6.697   2.637  0.5745  0.7163 -0.4094
  343SOL    HW1 1885   2.829   6.619   2.693  0.6713  1.0877  0.1249
  343SOL    HW2 1886   2.922   6.701   2.607  0.1461 -0.4454 -2.0078
  344SOL     OW 1887   2.880   3.006   0.245 -0.1769  0.2313  0.1706
  344SOL    HW1 1888   2.969   2.972   0.250 -0.0324  0.3289 -1.3406
  344SOL    HW2 1889   2.886   3.083   0.188 -1.0315  0.9745  1.0356
  345SOL     OW 1890   0.043   7.941   1.630  0.4049  0.8922 -0.0917
  345SOL    HW1 1891   0.114   7.952   1.567 -0.3016  1.0022 -0.9004
  345SOL    HW2 1892   0.085   7.906   1.709  1.1839 -0.1226 -0.9273
  346SOL     OW 1893   1.627   7.465   5.629 -1.3041 -0.1482  0.0689
  346SOL    HW1 1894   1.537   7.442   5.651 -0.9151 -0.3982  1.5309
  346SOL    HW2 1895   1.672   7.381   5.621 -1.0486 -0.0132  0.0625
  347SOL     OW 1896   4.143   0.538   2.080  0.1055  0.1748 -0.4073
  347SOL    HW1 1897   4.078   0.510   2.145  0.9614 -0.6025  0.1494
  347SOL    HW2 1898   4.190   0.458   2.057  1.3270  0.8254 -0.2736
  348SOL     OW 1899   1.115   4.524   6.120  0.5703 -0.7515  0.4228
  348SOL    HW1 1900   1.155   4.503   6.205  0.1877 -0.6443  0.6316
  348SOL    HW2 1901   1.143   4.614   6.103  1.2752 -1.0290  0.0684
  349SOL     OW 1902   5.583   2.605   1.782  0.1714 -0.1933 -0.1601
  349SOL    HW1 1903   5.648   2.633   1.846  0.3981 -0.1589 -0.4064
  349SOL    HW2 1904   5.578   2.510   1.793 -1.3485  0.0119  1.4001
  350SOL     OW 1905   2.271   2.900   0.692  0.4317 -0.5477  0.3567
  350SOL    HW1 1906   2.283   2.848   0.771  0.5150 -1.7279 -0.3990
  350SOL    HW2 1907   2.296   2.989   0.717 -0.4495 -0.6957  1.8998
  351SOL     OW 1908   7.630   0.552   6.746  0.0780 -0.4537 -0.1600
  351SOL    HW1 1909   7.553   0.569   6.692  0.1825  1.7611  0.2851
  351SOL    HW2 1910   7.616   0.606   6.824  2.2057  0.2838 -0.2196
  352SOL     OW 1911   4.099   6.374   3.190  0.5427 -0.1083 -0.0769
  352SOL    HW1 1912   4.077   6.283   3.213 -0.6598 -0.1702 -1.2946
  352SOL    HW2 1913   4.015   6.413   3.167  1.1725  1.0326 -0.5077
  353SOL     OW 1914   7.266   3.268   1.490 -0.1706  0.0150 -0.5824
  353SOL    HW1 1915   7.341   3.209   1.479  0.5697  1.2211 -2.4348
  353SOL    HW2 1916   7.234   3.249   1.579  1.5285 -1.4179 -0.2082
  354SOL     OW 1917   6.128   1.639   5.896 -0.2871  0.5874  0.1998
  354SOL    HW1 1918   6.059   1.622   5.832  1.5780 -0.0877 -1.7634
  354SOL    HW2 1919   6.190   1.696   5.850  1.7536 -0.9353  0.9019
  355SOL     OW 1920   0.665   4.108   4.602 -0.0450 -0.1714 -0.0438
  355SOL    HW1 1921   0.619   4.093   4.520  0.2587  1.7488 -0.6326
  355SOL    HW2 1922   0.746   4.058   4.593 -0.9555 -1.7167  0.0341
  356SOL     OW 1923   3.868   5.395   6.880 -0.0786 -0.3540 -0.5295
  356SOL    HW1 1924   3.926   5.447   6.824  0.7253  1.5085  1.8096
  356SOL    HW2 1925   3.780   5.421   6.855  0.2826  1.0292 -0.4952
  357SOL     OW 1926   4.685   3.994   1.949  0.6948  0.1990  0.0743
  357SOL    HW1 1927   4.747   4.006   2.021  0.2406  1.3932  0.2833
  357SOL    HW2 1928   4.738   4.005   1.870  0.9411  0.2385  0.2442
  358SOL     OW 1929   4.458   5.364   3.374  0.2026 -0.1983 -0.1068
  358SOL    HW1 1930   4.450   5.335   3.283  0.2764 -0.8931  0.1056
  358SOL    HW2 1931   4.546   5.338   3.400 -0.3818 -1.5290  0.6803
  359SOL     OW 1932   1.750   7.037   7.221 -0.0270  0.3387  0.0119
  359SOL    HW1 1933   1.799   7.047   7.303 -0.4101  2.3360  0.0451
  359SOL    HW2 1934   1.803   6.977   7.169 -0.0114 -1.3967  1.8574
  360SOL     OW 1935   7.173   1.006   1.144 -0.3108  0.4454  0.0839
  360SOL    HW1 1936   7.091   0.958   1.154 -0.4683  0.5828 -0.4710
  360SOL    HW2 1937   7.146   1.094   1.118 -0.0590  1.0706  1.7997
  361SOL     OW 1938   0.822   1.923   2.243 -0.3783  0.2705 -0.0352
  361SOL    HW1 1939   0.873   1.854   2.200 -0.7264  0.5086 -0.8432
  361SOL    HW2 1940   0.767   1.959   2.173 -0.4566  1.1247  0.4607
  362SOL     OW 1941   5.176   4.302   2.959  0.4051 -0.4492 -0.4630
  362SOL    HW1 1942   5.121   4.314   3.036 -0.5435  0.1091 -1.1988
  362SOL    HW2 1943   5.174   4.207   2.942 -1.5663 -0.3217 -1.3065
  363SOL     OW 1944   3.162   4.924   1.346  0.9760  0.4034 -0.0184
  363SOL    HW1 1945   3.197   4.945   1.433  1.1988 -2.8927  0.8115
  363SOL    HW2 1946   3.075   4.964   1.345  1.3044  1.2295  1.3577
  364SOL     OW 1947   6.467   5.671   7.325 -0.3232 -0.2378  0.1829
  364SOL    HW1 1948   6.405   5.598   7.324 -0.4444 -0.2931  2.7969
  364SOL    HW2 1949   6.496   5.675   7.416  1.2967  1.6551 -0.3628
  365SOL     OW 1950   1.222   4.047   4.453 -0.1554  0.0969  0.0346
  365SOL    HW1 1951   1.281   4.053   4.527 -0.2497  0.8343  0.0621
  365SOL    HW2 1952   1.141   4.010   4.489  0.1412 -0.5192  0.0797
  366SOL     OW 1953   3.774   6.267   1.257 -0.4095 -0.0787 -0.3657
  366SOL    HW1 1954   3.806   6.262   1.347  2.0712 -0.8737 -1.2116
  366SOL    HW2 1955   3.736   6.181   1.240 -1.1678  0.1768  0.0000
  367SOL     OW 1956   1.442   0.323   2.611  0.3134 -0.3515  0.0748
  367SOL    HW1 1957   1.392   0.242   2.624 -1.7904  0.8577 -0.0243
  367SOL    HW2 1958   1.443   0.364   2.697  0.3448  0.0648 -0.1240
  368SOL     OW 1959   3.368   0.220   1.939  0.6944 -0.2441 -0.4638
  368SOL    HW1 1960   3.298   0.169   1.978 -0.9696  0.5091 -2.2943
  368SOL    HW2 1961   3.403   0.273   2.011 -0.9191 -0.3171  0.4186
  369SOL     OW 1962   6.186   5.566   0.280 -0.2520 -0.0200  0.1505
  369SOL    HW1 1963   6.272   5.543   0.315  0.6218  2.3821 -0.2049
  369SOL    HW2 1964   6.158   5.488   0.233  0.1754 -2.0768  2.9902
  370SOL     OW 1965   0.372   7.650   4.488  0.1445 -0.5522  0.1859
  370SOL    HW1 1966   0.296   7.669   4.544 -0.4309 -1.6758 -0.1948
  370SOL    HW2 1967   0.374   7.555   4.482  1.0085 -0.4927 -0.6172
  371SOL     OW 1968   3.717   3.666   0.231 -0.6158  0.8043 -0.5710
  371SOL    HW1 1969   3.737   3.661   0.138  4.7907 -0.8999  0.2631
  371SOL    HW2 1970   3.709   3.574   0.258 -1.1782  1.2200  0.7527
  372SOL     OW 1971   5.748   7.368   6.535  0.7121 -0.6048  0.1231
  372SOL    HW1 1972   5.767   7.349   6.627  2.4076 -0.9110 -0.2510
  372SOL    HW2 1973   5.791   7.297   6.487  0.3814 -0.1066 -0.9364
  373SOL     OW 1974   6.879   6.952   5.597  0.2387 -0.3580 -1.0018
  373SOL    HW1 1975   6.795   6.979   5.561  0.8046 -1.1222 -3.0470
  373SOL    HW2 1976   6.925   7.035   5.615 -0.9124  0.0557  0.1106
  374SOL     OW 1977   0.711   3.497   4.737 -0.8498 -0.4505  0.1454
  374SOL    HW1 1978   0.764   3.483   4.658 -0.1935  0.6958  0.3621
  374SOL    HW2 1979   0.675   3.585   4.726 -2.5330 -1.1041  0.1293
  375SOL     OW 1980   2.174   4.135   5.549  0.1737  0.0364 -0.2339
  375SOL    HW1 1981   2.254   4.189   5.551 -0.6892  1.3423  1.2899
  375SOL    HW2 1982   2.121   4.174   5.480  1.2292 -1.5273 -2.0451
  376SOL     OW 1983   3.178   5.719   5.395 -0.3957 -0.0586 -0.6219
  376SOL    HW1 1984   3.187   5.629   5.362 -1.6731 -0.1921 -0.6360
  376SOL    HW2 1985   3.268   5.753   5.395  0.4563 -2.0480  1.4916
  377SOL     OW 1986   4.746   3.148   6.907  0.0285 -0.5924 -0.4824
  377SOL    HW1 1987   4.781   3.083   6.846 -1.4249 -1.8378 -0.0569
  377SOL    HW2 1988   4.813   3.158   6.973  0.6583 -0.9698 -1.0517
  378SOL     OW 1989   4.890   5.894   7.498 -0.2953  0.3897  0.6103
  378SOL    HW1 1990   4.879   5.968   7.557  1.4753  1.7735 -0.6966
  378SOL    HW2 1991   4.975   5.857   7.521  0.4950  1.0385 -1.0916
  379SOL     OW 1992   0.236   0.070   5.054  0.4520 -0.0572  0.0932
  379SOL    HW1 1993   0.319   0.042   5.092  0.0411 -0.2673  0.8517
  379SOL    HW2 1994   0.255   0.082   4.961  0.9582 -1.5879 -0.0313
  380SOL     OW 1995   2.544   0.560   2.352 -0.2214  0.0346  0.0096
  380SOL    HW1 1996   2.624   0.579   2.401 -0.7447  1.1932  0.4425
  380SOL    HW2 1997   2.531   0.465   2.364  0.4942  0.0281  0.8424
  381SOL     OW 1998   1.909   6.364   7.360  0.3016 -0.0331 -0.1218
  381SOL    HW1 1999   1.946   6.345   7.446  0.4018  1.0743  0.0953
  381SOL    HW2 2000   1.864   6.448   7.371  0.8301  0.4261 -1.2932
  382SOL     OW 2001   3.978   6.370   0.878 -0.0402  0.2555  0.0343
  382SOL    HW1 2002   3.894   6.394   0.916  0.5249  1.0922  0.8210
  382SOL    HW2 2003   3.961   6.361   0.785 -0.6245  2.3434 -0.1160
  383SOL     OW 2004   1.052   2.721   1.564  0.0394  0.4726 -0.0385
  383SOL    HW1 2005   1.112   2.655   1.529 -0.0718 -0.6455  1.7450
  383SOL    HW2 2006   0.967   2.676   1.570  0.3348  0.0981  2.8378
  384SOL     OW 2007   3.965   0.734   0.269  0.6173  0.7467 -0.5738
  384SOL    HW1 2008   3.919   0.670   0.215 -1.1748 -0.2725  2.0220
  384SOL    HW2 2009   3.908   0.811   0.268  1.3713  1.3225 -1.3496
  385SOL     OW 2010   5.394   3.076   7.386 -0.1888 -0.1707  0.3936
  385SOL    HW1 2011   5.338   3.147   7.356  2.5812  1.6346 -0.8696
  385SOL    HW2 2012   5.425   3.104   7.472  3.8057  2.2494 -1.5332
  386SOL     OW 2013   7.710   7.820   2.032 -0.3813  0.0860  0.4098
  386SOL    HW1 2014   7.770   7.888   2.001  1.0550 -0.9388  0.8373
  386SOL    HW2 2015   7.680   7.776   1.952  0.4375 -0.1996  0.2524
  387SOL     OW 2016   7.908   0.822   4.380 -0.1009 -0.1325  0.0938
  387SOL    HW1 2017   7.827   0.843   4.334  1.2824 -1.0870 -3.0526
  387SOL    HW2 2018   7.969   0.891   4.353  0.6262 -0.4173  0.9671
  388SOL     OW 2019   3.038   1.751   7.022  0.4519  0.4523 -0.4842
  388SOL    HW1 2020   3.043   1.842   7.053  0.2677  0.4572 -0.4674
  388SOL    HW2 2021   2.945   1.737   7.004  0.5247  0.3679 -0.7927
  389SOL     OW 2022   7.004   7.875   2.803  0.2901  0.0412 -0.0687
  389SOL    HW1 2023   6.957   7.955   2.780  1.7509  0.9271 -0.0396
  389SOL    HW2 2024   6.939   7.823   2.851 -0.9803  0.7492 -0.9755
  390SOL     OW 2025   4.742   0.422   5.008 -0.4993  0.0161  0.0012
  390SOL    HW1 2026   4.728   0.477   5.086 -2.6087  0.6252 -0.7435
  390SOL    HW2 2027   4.829   0.447   4.977  0.8152 -0.9081  2.6460
  391SOL     OW 2028   1.149   6.259   1.501 -0.3706 -0.1142 -0.3465
  391SOL    HW1 2029   1.150   6.170   1.467 -1.0077 -0.4192  0.4053
  391SOL    HW2 2030   1.191   6.312   1.433  0.4721 -1.0616 -0.5851
  392SOL     OW 2031   6.288   0.653   3.586  0.3307  0.2226 -0.5302
  392SOL    HW1 2032   6.275   0.668   3.680  1.1941  1.0389 -0.5263
  392SOL    HW2 2033   6.300   0.558   3.579 -0.3831  0.0687  0.0889
  393SOL     OW 2034   7.658   1.036   2.640 -0.7971 -0.1156  0.4134
  393SOL    HW1 2035   7.718   1.025   2.714  0.8021  2.0830 -0.4304
  393SOL    HW2 2036   7.599   1.106   2.667  0.4129  1.3976 -0.6484
  394SOL     OW 2037   0.140   7.357   2.242 -0.0806  0.0494 -0.1754
  394SOL    HW1 2038   0.184   7.430   2.286  2.3106 -1.7461  0.6573
  394SOL    HW2 2039   0.047   7.368   2.263  0.2640  2.5310  0.3300
  395SOL     OW 2040   7.923   7.547   1.115 -0.3118 -0.0238  0.3497
  395SOL    HW1 2041   7.932   7.459   1.150 -0.3957 -0.3574 -0.4398
  395SOL    HW2 2042   7.993   7.597   1.157 -0.8109 -0.2374  1.4800
  396SOL     OW 2043   6.663   4.939   1.521  0.2692  0.4739 -0.4604
  396SOL    HW1 2044   6.620   5.025   1.524  0.6826  0.6669 -0.1297
  396SOL    HW2 2045   6.635   4.896   1.602 -0.3314  0.1022 -0.8541
  397SOL     OW 2046   5.674   0.501   0.873  0.5910 -0.4212 -0.0486
  397SOL    HW1 2047   5.712   0.575   0.826 -0.4572 -0.6394 -1.3099
  397SOL    HW2 2048   5.686   0.522   0.965 -0.1944  1.6225 -0.3580
  398SOL     OW 2049   0.348   1.706   2.892 -0.1500 -0.0269 -0.1109
  398SOL    HW1 2050   0.357   1.688   2.799 -0.4457 -0.3199 -0.0852
  398SOL    HW2 2051   0.378   1.796   2.903  0.2720 -0.1296 -0.4232
  399SOL     OW 2052   0.119   0.872   3.491  0.2397 -0.2169  0.1147
  399SOL    HW1 2053   0.052   0.939   3.475  1.0940  1.3884  2.5897
  399SOL    HW2 2054   0.109   0.851   3.584  2.0736 -1.1951  0.1308
  400SOL     OW 2055   7.761   3.862   7.180  0.1485  0.0869 -0.5478
  400SOL    HW1 2056   7.851   3.873   7.213  1.0955 -0.3116 -2.8184
  400SOL    HW2 2057   7.726   3.951   7.180  0.4824  0.2367  0.4760
  401SOL     OW 2058   7.041   2.522   7.104  0.0761  0.0895 -0.3726
  401SOL    HW1 2059   6.964   2.466   7.112 -0.4055  0.7905 -0.0746
  401SOL    HW2 2060   7.112   2.470   7.141 -0.5168 -0.0286  0.6309
  402SOL     OW 2061   4.383   1.449   5.794 -0.5495  0.3611 -0.4516
  402SOL    HW1 2062   4.440   1.510   5.839  1.6044 -2.3863  0.8633
  402SOL    HW2 2063   4.408   1.456   5.702 -0.9752  2.0074 -0.4715
  403SOL     OW 2064   7.148   3.160   4.100  0.0599  0.1378 -0.6843
  403SOL    HW1 2065   7.100   3.104   4.039 -0.3937 -0.1161 -0.0977
  403SOL    HW2 2066   7.081   3.209   4.146  0.4300  0.7336 -0.7746
  404SOL     OW 2067   7.083   4.466   5.338  0.1803 -0.0705 -0.5392
  404SOL    HW1 2068   7.070   4.468   5.433  0.2854  1.7269 -0.5247
  404SOL    HW2 2069   7.013   4.409   5.305 -0.7491  0.4302  0.5019
  405SOL     OW 2070   4.361   2.286   2.997 -0.1444 -0.1475 -0.2909
  405SOL    HW1 2071   4.298   2.215   3.009 -0.5979  0.1573 -0.8354
  405SOL    HW2 2072   4.441   2.242   2.968 -0.2192 -0.4949  0.0159
  406SOL     OW 2073   3.613   6.826   7.494  0.6172  0.3990  0.1318
  406SOL    HW1 2074   3.541   6.764   7.511 -0.8380  1.9066 -0.2070
  406SOL    HW2 2075   3.592   6.862   7.408  0.8544  2.0728  0.7452
  407SOL     OW 2076   3.051   7.472   2.695 -0.0925  0.3104 -0.7942
  407SOL    HW1 2077   2.985   7.451   2.761 -0.6093  0.2876 -1.3130
  407SOL    HW2 2078   3.135   7.457   2.739 -0.4365 -0.1557 -0.2895
  408SOL     OW 2079   1.684   6.558   1.966 -0.2969 -0.1565  0.7951
  408SOL    HW1 2080   1.613   6.620   1.980 -2.1046 -1.1242 -2.8305
  408SOL    HW2 2081   1.754   6.610   1.926 -0.1179  0.2414  1.6013
  409SOL     OW 2082   6.702   6.281   4.009  0.3226 -0.0252  0.0738
  409SOL    HW1 2083   6.638   6.341   4.048 -2.2848 -2.0784 -0.7594
  409SOL    HW2 2084   6.715   6.315   3.920 -0.6473 -0.2840 -0.1809
  410SOL     OW 2085   6.211   5.299   6.818 -0.1233  0.1250 -0.0709
  410SOL    HW1 2086   6.259   5.260   6.890 -2.6443 -0.5566  1.3402
  410SOL    HW2 2087   6.214   5.233   6.748 -1.2404 -1.0864  0.9770
  411SOL     OW 2088   2.809   5.832   1.616 -0.1616 -0.4858  0.2120
  411SOL    HW1 2089   2.847   5.840   1.704 -0.1906 -1.9815  0.3830
  411SOL    HW2 2090   2.798   5.738   1.603 -0.7213 -0.2525 -1.1663
  412SOL     OW 2091   3.328   1.157   6.207  0.0865  0.1551 -0.0667
  412SOL    HW1 2092   3.402   1.159   6.146 -0.2863  3.7573 -0.6329
  412SOL    HW2 2093   3.254   1.192   6.156 -1.0563  0.1904  1.5451
  413SOL     OW 2094   6.281   4.248   3.140  0.1526  0.1839 -0.6064
  413SOL    HW1 2095   6.285   4.159   3.175  0.1992  1.4568  3.1260
  413SOL    HW2 2096   6.221   4.242   3.065 -1.1201 -2.7135  0.4784
  414SOL     OW 2097   3.687   6.403   7.860 -0.1809 -0.4243 -0.5523
  414SOL    HW1 2098   3.635   6.322   7.858 -0.3581 -0.3236 -2.8192
  414SOL    HW2 2099   3.650   6.457   7.790  0.3372  1.3863  0.5190
  415SOL     OW 2100   4.055   7.292   6.078 -0.0254 -0.4116 -0.0152
  415SOL    HW1 2101   4.024   7.351   6.010  0.9632 -0.8556 -0.8852
  415SOL    HW2 2102   4.150   7.308   6.082 -0.1137 -0.1217  1.5276
  416SOL     OW 2103   7.730   6.738   1.131  0.4598 -0.2920 -0.4449
  416SOL    HW1 2104   7.677   6.699   1.062 -1.5099  1.3580  0.0289
  416SOL    HW2 2105   7.671   6.798   1.176  2.3145  0.4311  1.2067
  417SOL     OW 2106   4.967   1.538   4.568 -0.0696 -0.0999  0.0740
  417SOL    HW1 2107   4.873   1.526   4.553  0.3598 -2.1563 -1.3677
  417SOL    HW2 2108   5.004   1.550   4.480  1.1437 -0.3627  0.5310
  418SOL     OW 2109   6.438   3.009   0.171  0.4179  0.8109 -0.3720
  418SOL    HW1 2110   6.511   2.955   0.143  1.0910  2.2240 -1.4642
  418SOL    HW2 2111   6.365   2.947   0.183  1.1612 -0.3205 -1.5086
  419SOL     OW 2112   0.539   2.166   6.027  0.0471  0.4174 -0.3268
  419SOL    HW1 2113   0.524   2.073   6.006  0.6899 -0.0485  1.1020
  419SOL    HW2 2114   0.462   2.211   5.992 -0.7942 -0.8105 -0.1296
  420SOL     OW 2115   6.405   5.295   5.150  0.4170  0.0905 -0.5549
  420SOL    HW1 2116   6.488   5.268   5.112 -0.6340 -0.1188 -2.8286
  420SOL    HW2 2117   6.348   5.314   5.075 -0.7208  3.1023  0.8880
  421SOL     OW 2118   1.068   2.023   3.720  0.0675  1.1318 -0.4676
  421SOL    HW1 2119   0.978   2.008   3.690 -0.4406 -1.4888  1.9440
  421SOL    HW2 2120   1.058   2.068   3.804  0.9819  0.6360 -0.0855
  422SOL     OW 2121   6.376   0.476   2.433  0.3202 -0.1013 -0.1266
  422SOL    HW1 2122   6.393   0.468   2.339  0.7863 -0.4068 -0.0205
  422SOL    HW2 2123   6.345   0.389   2.459 -0.7002  0.2304 -0.1636
  423SOL     OW 2124   7.296   4.490   7.381  0.4637  0.4730 -0.4704
  423SOL    HW1 2125   7.375   4.514   7.331  0.6431  2.9792  0.8535
  423SOL    HW2 2126   7.323   4.414   7.433  1.4517  0.2273 -1.3043
  424SOL     OW 2127   0.700   3.416   5.216 -0.0755  0.3446  0.0846
  424SOL    HW1 2128   0.785   3.372   5.207 -0.0385  0.2519  0.7692
  424SOL    HW2 2129   0.671   3.432   5.127  1.4618  1.9262 -0.1925
  425SOL     OW 2130   5.251   6.959   7.364 -0.4547  0.2672  0.3532
  425SOL    HW1 2131   5.190   7.023   7.327  0.4600 -0.1009 -1.9287
  425SOL    HW2 2132   5.195   6.890   7.399 -1.3834  0.8627  0.0791
  426SOL     OW 2133   3.656   5.904   2.701  0.0614  0.4151 -0.4258
  426SOL    HW1 2134   3.599   5.913   2.778  0.1677 -1.7409 -0.0538
  426SOL    HW2 2135   3.668   5.810   2.690  2.3238  0.7563 -1.4291
  427SOL     OW 2136   2.777   2.459   6.929  0.0962 -0.0565 -0.1022
  427SOL    HW1 2137   2.768   2.415   6.845 -0.7101 -0.6469  0.2834
  427SOL    HW2 2138   2.692   2.499   6.945 -0.0821 -0.7895  0.8918
  428SOL     OW 2139   5.504   4.124   0.855 -0.2260 -0.2990  0.0479
  428SOL    HW1 2140   5.529   4.190   0.790 -2.5018 -0.8748 -1.5315
  428SOL    HW2 2141   5.498   4.172   0.937 -1.0062  1.3149 -0.9089
  429SOL     OW 2142   5.750   0.845   3.150  0.1209 -0.2581  0.1375
  429SOL    HW1 2143   5.732   0.756   3.119 -0.7099 -0.1228  0.2126
  429SOL    HW2 2144   5.792   0.887   3.075  1.3301 -0.9673  0.4001
  430SOL     OW 2145   4.668   7.554   3.462  0.7767  0.5018  0.4285
  430SOL    HW1 2146   4.749   7.541   3.413  1.5483  1.3030  1.4575
  430SOL    HW2 2147   4.648   7.468   3.499 -0.2253 -0.3110 -1.8408
  431SOL     OW 2148   6.062   0.311   2.948 -0.0592  0.1348 -0.4415
  431SOL    HW1 2149   6.152   0.312   2.982 -0.1969 -2.8922  0.3158
  431SOL    HW2 2150   6.045   0.402   2.923  3.3213  0.7777 -0.9614
  432SOL     OW 2151   6.387   2.518   2.843  0.6217  0.0649 -0.4865
  432SOL    HW1 2152   6.367   2.530   2.750  0.0918  0.4567 -0.3280
  432SOL    HW2 2153   6.302   2.497   2.883  0.3334  2.4778  0.3247
  433SOL     OW 2154   7.823   7.607   5.468  0.3297  0.1101 -0.0740
  433SOL    HW1 2155   7.878   7.616   5.390  0.5726 -0.4904  0.0252
  433SOL    HW2 2156   7.819   7.513   5.484 -2.5952 -0.1216 -1.4185
  434SOL     OW 2157   0.016   5.482   0.012  0.3420 -0.0584  0.5676
  434SOL    HW1 2158  -0.037   5.559   0.031  1.6011  1.3521 -1.2572
  434SOL    HW2 2159   0.084   5.483   0.080  0.2249  0.3236  0.6844
  435SOL     OW 2160   5.439   2.264   6.963  0.1779 -0.1915  0.0558
  435SOL    HW1 2161   5.509   2.319   6.928 -0.3617  0.7935  0.4724
  435SOL    HW2 2162   5.396   2.319   7.028 -1.2216 -0.6272 -0.4564
  436SOL     OW 2163   3.555   2.191   2.139  0.3644 -0.2986  0.0729
  436SOL    HW1 2164   3.588   2.178   2.050  1.1049 -1.2332  0.4602
  436SOL    HW2 2165   3.468   2.151   2.139 -0.6460  1.7647 -0.8325
  437SOL     OW 2166   5.287   2.653   0.091 -0.4726 -0.7707 -0.3761
  437SOL    HW1 2167   5.343   2.582   0.061  0.7555  0.5024 -1.2377
  437SOL    HW2 2168   5.260   2.697   0.010 -0.1088  0.5301  0.1876
  438SOL     OW 2169   3.346   2.323   7.837 -0.4121  0.3644  0.1288
  438SOL    HW1 2170   3.360   2.371   7.919 -1.1000  2.0164 -0.6572
  438SOL    HW2 2171   3.374   2.385   7.769 -0.8995 -0.5462 -0.9245
  439SOL     OW 2172   4.699   1.890   6.699 -0.4463  0.0614 -0.7648
  439SOL    HW1 2173   4.725   1.945   6.773 -0.7349  0.0097 -0.6234
  439SOL    HW2 2174   4.782   1.866   6.658 -0.2584 -0.1466 -0.2833
  440SOL     OW 2175   2.323   5.001   2.051  0.3267 -0.1050 -0.2543
  440SOL    HW1 2176   2.349   5.080   2.098 -0.2487  0.8928 -1.5478
  440SOL    HW2 2177   2.270   4.952   2.113  1.5715 -0.0299  0.9237
  441SOL     OW 2178   0.341   6.772   3.730 -0.3586 -1.3643  0.1224
  441SOL    HW1 2179   0.382   6.744   3.648  0.1836 -0.6631  0.1559
  441SOL    HW2 2180   0.264   6.823   3.702  0.8591  0.4894 -0.0013
  442SOL     OW 2181   1.579   6.827   5.134 -0.0798  0.2050 -0.0198
  442SOL    HW1 2182   1.512   6.889   5.164  0.2506  1.6691 -2.0684
  442SOL    HW2 2183   1.552   6.743   5.170 -2.6672  0.8609 -0.2169
  443SOL     OW 2184   4.571   7.170   6.588 -0.0227 -0.1010 -0.3129
  443SOL    HW1 2185   4.564   7.142   6.497  0.4843 -1.5857  0.0822
  443SOL    HW2 2186   4.662   7.198   6.598 -0.2810  0.8443 -0.4484
  444SOL     OW 2187   6.406   1.354   4.389 -0.0671 -0.8876 -0.2997
  444SOL    HW1 2188   6.319   1.318   4.405 -0.4126 -0.8551 -1.9106
  444SOL    HW2 2189   6.452   1.286   4.340  0.2998 -0.3319 -0.7441
  445SOL     OW 2190   5.453   0.295   3.241  0.0329  0.0126  0.5592
  445SOL    HW1 2191   5.365   0.315   3.210  0.1024  2.4238  1.6873
  445SOL    HW2 2192   5.441   0.275   3.334  0.7788  1.7010  1.0509
  446SOL     OW 2193   1.094   5.833   0.320 -0.0759 -0.6022  0.4747
  446SOL    HW1 2194   1.012   5.793   0.350  0.9214 -1.1295  2.6693
  446SOL    HW2 2195   1.104   5.911   0.375 -0.0421  0.5862 -1.1300
  447SOL     OW 2196   6.252   7.285   5.269  0.4395 -0.3323  0.1533
  447SOL    HW1 2197   6.320   7.244   5.215  0.2953 -0.6514  0.2105
  447SOL    HW2 2198   6.207   7.344   5.209 -0.3759 -1.4321 -0.3552
  448SOL     OW 2199   6.894   2.130   1.002  0.0078 -0.4233  0.0216
  448SOL    HW1 2200   6.968   2.112   1.060 -1.0083  0.1785  1.5741
  448SOL    HW2 2201   6.855   2.210   1.037  1.2674  1.9614 -3.4942
  449SOL     OW 2202   3.539   4.670   5.731 -0.4875  0.6178 -0.5415
  449SOL    HW1 2203   3.538   4.753   5.779  1.7508  1.4199 -1.7396
  449SOL    HW2 2204   3.524   4.695   5.640  2.1524  0.0432 -1.2219
  450SOL     OW 2205   2.771   6.877   1.500 -0.1428 -0.1787 -0.1451
  450SOL    HW1 2206   2.729   6.810   1.554 -1.8840  1.3914  0.5329
  450SOL    HW2 2207   2.841   6.912   1.556  2.2048 -2.7328 -1.2436
  451SOL     OW 2208   3.904   2.958   6.075  0.0423 -0.0741  0.1415
  451SOL    HW1 2209   3.956   2.947   5.995  0.8352 -0.5484  0.7146
  451SOL    HW2 2210   3.821   2.995   6.044  0.1234 -0.7694 -0.9689
  452SOL     OW 2211   1.680   2.471   1.062 -0.0691 -0.4831  0.5187
  452SOL    HW1 2212   1.771   2.487   1.040 -0.3440  2.3381  0.9674
  452SOL    HW2 2213   1.675   2.482   1.157 -1.0489  0.7130  0.3592
  453SOL     OW 2214   4.368   7.373   4.314  0.3652  0.2794 -0.4009
  453SOL    HW1 2215   4.391   7.318   4.239  1.0099  0.7493 -0.5584
  453SOL    HW2 2216   4.373   7.314   4.389  2.0222  0.3077 -0.4401
  454SOL     OW 2217   4.921   7.924   7.001 -0.3927 -0.2203  0.0677
  454SOL    HW1 2218   4.905   7.873   6.922  1.7877  1.3156 -1.4629
  454SOL    HW2 2219   5.013   7.950   6.995 -0.8122  1.9661  1.8981
  455SOL     OW 2220   6.885   1.141   3.655 -0.1791  0.3426 -0.0814
  455SOL    HW1 2221   6.870   1.061   3.705 -1.1722  0.2823 -0.4624
  455SOL    HW2 2222   6.865   1.117   3.565  3.1219 -0.0108 -0.8665
  456SOL     OW 2223   6.881   0.762   3.090 -0.3867 -0.1745  0.1160
  456SOL    HW1 2224   6.884   0.751   2.995 -0.5335 -2.0353  0.2988
  456SOL    HW2 2225   6.839   0.682   3.123  0.9002 -0.2042  1.8504
  457SOL     OW 2226   2.486   1.528   0.198 -0.0284  0.0373  0.3423
  457SOL    HW1 2227   2.467   1.441   0.233  0.0110 -0.0686  0.1008
  457SOL    HW2 2228   2.495   1.583   0.276 -1.4540  0.1220  0.4800
  458SOL     OW 2229   5.179   1.955   4.844  0.7773 -0.5967  0.0077
  458SOL    HW1 2230   5.111   1.899   4.807  2.7437 -2.1575 -1.4784
  458SOL    HW2 2231   5.181   1.932   4.937 -0.7659 -0.4004  0.1163
  459SOL     OW 2232   5.464   2.252   2.911  0.0387 -0.9524  0.7204
  459SOL    HW1 2233   5.428   2.340   2.900  0.0247 -0.7444  2.2334
  459SOL    HW2 2234   5.465   2.216   2.823  1.2466  1.0127 -0.1544
  460SOL     OW 2235   2.227   3.208   3.956  0.3336 -0.0488  0.0515
  460SOL    HW1 2236   2.267   3.146   3.896 -0.9267  0.1075 -1.0041
  460SOL    HW2 2237   2.211   3.286   3.903 -2.0209 -0.3736  0.1435
  461SOL     OW 2238   4.021   2.693   0.587 -0.3466  0.0230  0.5712
  461SOL    HW1 2239   4.061   2.708   0.673  0.5327  0.1162  0.1584
  461SOL    HW2 2240   3.987   2.779   0.561 -1.2749 -0.1559  1.1335
  462SOL     OW 2241   0.850   3.237   3.118  0.1187  0.5613  0.3584
  462SOL    HW1 2242   0.864   3.248   3.212 -3.2491 -0.0234  1.0420
  462SOL    HW2 2243   0.755   3.233   3.108  0.3397  1.0411 -3.1559
  463SOL     OW 2244   6.227   1.658   6.945 -0.3578 -0.5762 -0.4156
  463SOL    HW1 2245   6.257   1.748   6.948 -1.2333 -0.2629 -0.7122
  463SOL    HW2 2246   6.206   1.636   7.036 -0.1915 -0.4715 -0.3519
  464SOL     OW 2247   4.775   0.863   7.524 -0.7266 -0.1997 -0.0412
  464SOL    HW1 2248   4.782   0.768   7.528 -0.1173 -0.2073 -1.0163
  464SOL    HW2 2249   4.842   0.890   7.462 -0.6292  0.9090  0.5222
  465SOL     OW 2250   1.573   2.838   7.646  0.3242 -0.5970 -0.0360
  465SOL    HW1 2251   1.644   2.887   7.687 -1.4132  0.2578  2.1892
  465SOL    HW2 2252   1.504   2.903   7.631  0.2864 -1.1884 -3.0669
  466SOL     OW 2253   4.687   7.842   1.148  0.4429  0.3137  0.8531
  466SOL    HW1 2254   4.622   7.839   1.217  1.5334  0.6769  1.9370
  466SOL    HW2 2255   4.747   7.770   1.167  1.2685  0.9733  0.8393
  467SOL     OW 2256   2.237   7.737   0.832  0.1060 -0.1058 -0.4431
  467SOL    HW1 2257   2.225   7.666   0.895 -0.4165  1.4429  1.3052
  467SOL    HW2 2258   2.151   7.745   0.790 -0.9593  1.6255  1.8182
  468SOL     OW 2259   7.004   1.375   6.733 -0.2826 -0.2260 -0.3301
  468SOL    HW1 2260   7.008   1.468   6.709  1.0788 -0.6582 -1.9130
  468SOL    HW2 2261   6.962   1.375   6.819  0.0557  1.8916 -0.1079
  469SOL     OW 2262   3.898   4.839   5.039 -0.0566  0.5784 -0.2093
  469SOL    HW1 2263   3.952   4.852   4.961  0.3684 -0.5285 -0.1260
  469SOL    HW2 2264   3.948   4.879   5.110  0.4720 -0.0789 -0.2021
  470SOL     OW 2265   7.178   1.133   5.130 -0.5622  0.3471  0.4748
  470SOL    HW1 2266   7.117   1.074   5.086  1.1440 -0.3618 -1.0480
  470SOL    HW2 2267   7.186   1.207   5.070 -0.5820  0.8504  1.0860
  471SOL     OW 2268   0.233   3.366   0.513  0.4427 -0.7061 -0.1872
  471SOL    HW1 2269   0.320   3.380   0.476  0.5547  1.0042  0.6300
  471SOL    HW2 2270   0.247   3.364   0.607 -0.5714  1.2236  0.0418
  472SOL     OW 2271   6.281   0.757   1.830 -0.0341 -0.1241 -0.4239
  472SOL    HW1 2272   6.285   0.730   1.921  0.5404  0.4897 -0.2610
  472SOL    HW2 2273   6.372   0.759   1.800 -0.1706  0.2573 -0.8334
  473SOL     OW 2274   5.682   0.651   2.654  0.0692  0.1929  0.0032
  473SOL    HW1 2275   5.705   0.738   2.623 -0.2889  1.3385  2.7329
  473SOL    HW2 2276   5.736   0.637   2.731  0.5355 -2.3005 -0.6833
  474SOL     OW 2277   4.293   5.173   5.183  0.3769  0.3281 -0.2481
  474SOL    HW1 2278   4.243   5.097   5.152  0.6253  0.0612 -0.0029
  474SOL    HW2 2279   4.291   5.165   5.279  4.3049 -2.0086 -0.1324
  475SOL     OW 2280   0.659   7.677   6.354 -0.1438 -0.2132 -0.6252
  475SOL    HW1 2281   0.731   7.676   6.418 -0.7256  3.2191  0.2862
  475SOL    HW2 2282   0.698   7.643   6.274  1.4043 -1.9990  0.7873
  476SOL     OW 2283   0.875   0.811   2.370 -0.4534  0.4263  0.1765
  476SOL    HW1 2284   0.829   0.793   2.288 -0.7732  1.9069  0.0076
  476SOL    HW2 2285   0.968   0.813   2.346 -0.4724 -0.0834  0.0447
  477SOL     OW 2286   7.408   2.641   2.196 -0.4573 -0.5291 -0.0782
  477SOL    HW1 2287   7.368   2.682   2.272 -0.8543 -0.3764 -0.3650
  477SOL    HW2 2288   7.445   2.713   2.146 -0.5048 -0.5927 -0.2071
  478SOL     OW 2289   5.775   3.427   4.352 -0.1193 -0.2781  0.2934
  478SOL    HW1 2290   5.842   3.421   4.421 -0.3687  1.5669  0.7464
  478SOL    HW2 2291   5.749   3.336   4.337  3.8454 -1.3994 -1.3068
  479SOL     OW 2292   1.164   6.346   5.740  0.3267 -0.4208  0.2203
  479SOL    HW1 2293   1.233   6.295   5.781  0.3332 -0.0062  0.7366
  479SOL    HW2 2294   1.193   6.358   5.650  0.4568 -1.0819  0.1691
  480SOL     OW 2295   1.085   6.343   7.172 -0.1951  0.1595  0.2070
  480SOL    HW1 2296   1.172   6.355   7.209  0.2106  0.0879 -0.6968
  480SOL    HW2 2297   1.026   6.350   7.247  0.5834  0.1983  0.8303
  481SOL     OW 2298   4.940   0.820   2.580  0.4030 -0.1596 -0.5282
  481SOL    HW1 2299   4.991   0.805   2.500 -1.0797 -2.2069 -1.1642
  481SOL    HW2 2300   4.850   0.829   2.550  0.0643  1.2048  0.7701
  482SOL     OW 2301   1.459   5.919   1.903  0.0454  0.0544  0.4352
  482SOL    HW1 2302   1.383   5.963   1.941  0.5886  0.4819  1.0493
  482SOL    HW2 2303   1.423   5.846   1.853 -0.7150 -0.2533  1.4234
  483SOL     OW 2304   2.646   5.219   6.787 -0.0387  0.5583 -0.3231
  483SOL    HW1 2305   2.668   5.200   6.696 -0.5210 -1.6971 -0.0394
  483SOL    HW2 2306   2.556   5.186   6.797 -0.4741  1.9513  0.6618
  484SOL     OW 2307   0.649   5.978   0.101 -0.4735 -0.3418 -0.3459
  484SOL    HW1 2308   0.708   5.959   0.029  1.0044 -0.8209  0.9279
  484SOL    HW2 2309   0.578   6.030   0.062 -0.5300 -1.8617 -2.4039
  485SOL     OW 2310   2.817   6.143   4.498  0.1257  0.2119 -0.5014
  485SOL    HW1 2311   2.912   6.150   4.510  0.1041 -0.3522  0.0245
  485SOL    HW2 2312   2.804   6.058   4.457 -0.1684  0.2308 -0.4493
  486SOL     OW 2313   2.077   4.223   6.734 -0.1411 -0.1352  0.0708
  486SOL    HW1 2314   2.095   4.207   6.827  0.1766 -0.8594 -0.1098
  486SOL    HW2 2315   2.163   4.234   6.694 -0.2388 -0.6077 -0.2724
  487SOL     OW 2316   7.893   2.899   6.062 -0.2865  0.3798  0.3631
  487SOL    HW1 2317   7.889   2.968   5.995  0.4207 -1.0185 -1.1909
  487SOL    HW2 2318   7.815   2.846   6.045 -0.3515  0.2799  0.9670
  488SOL     OW 2319   7.688   4.866   7.994 -0.5422 -0.1141  0.1214
  488SOL    HW1 2320   7.679   4.952   7.954 -0.6228  0.0291  0.4433
  488SOL    HW2 2321   7.657   4.805   7.927 -1.4745  0.1816  0.2592
  489SOL     OW 2322   6.458   5.514   2.416 -0.1295 -0.3381 -0.3655
  489SOL    HW1 2323   6.464   5.436   2.471 -1.3281 -1.1169 -1.2888
  489SOL    HW2 2324   6.545   5.554   2.421  0.5631 -1.8268 -0.0356
  490SOL     OW 2325   3.110   4.616   0.847  0.7261 -0.1961  0.4305
  490SOL    HW1 2326   3.096   4.529   0.812 -1.8059  0.2902  0.0167
  490SOL    HW2 2327   3.204   4.620   0.866  0.7661 -3.3393  1.4417
  491SOL     OW 2328   3.093   0.900   4.159 -0.2988 -0.4374  0.2226
  491SOL    HW1 2329   3.072   0.843   4.232 -0.6515 -0.7218 -0.0969
  491SOL    HW2 2330   3.152   0.848   4.104 -0.9121 -0.6466 -0.2585
  492SOL     OW 2331   7.591   0.257   3.702  0.6052  0.5383  0.3704
  492SOL    HW1 2332   7.609   0.240   3.795 -0.0416  1.6108  0.7150
  492SOL    HW2 2333   7.673   0.237   3.658  0.9196 -0.0032  1.1705
  493SOL     OW 2334   0.427   7.908   5.140 -0.1205  0.2058  0.3369
  493SOL    HW1 2335   0.487   7.908   5.066 -2.0511  2.9126 -1.4067
  493SOL    HW2 2336   0.477   7.947   5.212  0.5563  1.4698 -0.7713
  494SOL     OW 2337   5.616   3.822   1.181  0.2751 -0.3265  0.1018
  494SOL    HW1 2338   5.528   3.852   1.205  1.5644  1.9413  2.6160
  494SOL    HW2 2339   5.646   3.885   1.115  0.6320  0.0706  0.6253
  495SOL     OW 2340   5.030   0.298   3.935  0.1772 -0.4655  0.1682
  495SOL    HW1 2341   4.964   0.234   3.961  0.3971 -0.3793  0.9544
  495SOL    HW2 2342   4.998   0.333   3.852 -0.4365 -0.8874  0.2205
  496SOL     OW 2343   0.361   3.277   3.329  0.0482  0.4808 -0.1574
  496SOL    HW1 2344   0.322   3.230   3.402  0.1339 -1.9336 -1.5654
  496SOL    HW2 2345   0.394   3.359   3.368 -1.6782  0.2171  2.0547
  497SOL     OW 2346   2.621   3.888   6.246 -0.5776 -0.3549  0.1843
  497SOL    HW1 2347   2.554   3.820   6.240 -0.2345 -0.7755  0.9837
  497SOL    HW2 2348   2.580   3.959   6.295 -0.1613 -0.9892  1.4947
  498SOL     OW 2349   5.683   3.641   0.500  0.6432 -0.2754  0.3874
  498SOL    HW1 2350   5.691   3.551   0.469 -2.5463 -0.2387 -0.9199
  498SOL    HW2 2351   5.640   3.633   0.585  0.2869  0.0013  0.2349
  499SOL     OW 2352   0.226   6.875   6.242  1.0068  0.2397  0.1126
  499SOL    HW1 2353   0.174   6.868   6.162  2.2012  0.1718 -0.6855
  499SOL    HW2 2354   0.309   6.831   6.222  1.8084  1.2727  0.9660
  500SOL     OW 2355   4.847   4.110   4.938  0.6046  0.0814  0.0326
  500SOL    HW1 2356   4.910   4.043   4.962  0.7480  0.3888  0.5283
  500SOL    HW2 2357   4.884   4.191   4.973 -0.4496  0.1482  1.0484
  501SOL     OW 2358   7.989   1.535   5.126  0.4569 -0.3927 -0.0359
  501SOL    HW1 2359   8.081   1.513   5.113  0.0174 -1.6338 -1.3167
  501SOL    HW2 2360   7.941   1.467   5.079 -1.1919 -1.0351  2.3424
  502SOL     OW 2361   6.371   0.734   4.093  0.0156  0.0260  0.5870
  502SOL    HW1 2362   6.363   0.773   4.180  0.5314 -1.4730  1.3391
  502SOL    HW2 2363   6.464   0.714   4.083 -0.2302 -1.0575  0.2772
  503SOL     OW 2364   2.473   5.527   1.026  0.2625 -0.7329 -0.5250
  503SOL    HW1 2365   2.424   5.485   0.956 -0.7471  0.7942 -0.8004
  503SOL    HW2 2366   2.488   5.617   0.995 -0.2768  0.0099  1.2124
  504SOL     OW 2367   1.017   0.716   7.759  0.3798  0.1432 -0.1378
  504SOL    HW1 2368   1.010   0.641   7.818  1.5857 -0.3720 -0.6149
  504SOL    HW2 2369   1.033   0.790   7.817 -2.9806  0.4894  0.5422
  505SOL     OW 2370   3.428   7.662   1.206  0.4291 -0.5551 -0.5489
  505SOL    HW1 2371   3.444   7.648   1.113 -0.8411 -1.4532 -0.6618
  505SOL    HW2 2372   3.336   7.688   1.210 -0.2113 -2.7360  0.6101
  506SOL     OW 2373   7.141   1.505   5.104  0.1132  0.1536 -0.1333
  506SOL    HW1 2374   7.132   1.456   5.022  0.4535  0.0612 -0.1165
  506SOL    HW2 2375   7.201   1.576   5.083 -0.5745  0.7211 -0.2254
  507SOL     OW 2376   7.979   7.451   2.527  0.0936  0.2698 -0.1029
  507SOL    HW1 2377   7.899   7.492   2.561  1.0670  0.9124  1.5566
  507SOL    HW2 2378   7.972   7.359   2.553 -1.4444 -0.3896 -2.5963
  508SOL     OW 2379   4.084   7.692   7.681 -0.1683 -0.7127 -0.1449
  508SOL    HW1 2380   4.157   7.653   7.631 -0.1408 -2.4132  1.1129
  508SOL    HW2 2381   4.123   7.768   7.724  0.8472 -1.4483  0.3082
  509SOL     OW 2382   6.153   2.559   6.384  0.4819  0.3031 -0.0332
  509SOL    HW1 2383   6.165   2.640   6.333 -0.7155  0.4294 -0.1436
  509SOL    HW2 2384   6.113   2.588   6.466 -4.1784 -0.4533 -1.7266
  510SOL     OW 2385   2.886   2.092   1.652 -0.8425 -0.1069  0.4906
  510SOL    HW1 2386   2.976   2.071   1.679 -0.7862  0.3074  0.6461
  510SOL    HW2 2387   2.891   2.101   1.557 -1.5974 -4.2700 -0.0975
  511SOL     OW 2388   7.248   3.851   3.735 -0.0599  0.3304  0.4027
  511SOL    HW1 2389   7.159   3.847   3.771  0.3648  1.2318  1.6297
  511SOL    HW2 2390   7.249   3.785   3.665 -1.0424 -1.2246  1.7844
  512SOL     OW 2391   5.988   5.808   7.518  0.1053  0.0850  0.1336
  512SOL    HW1 2392   6.026   5.887   7.478 -0.2413  0.3734  0.3781
  512SOL    HW2 2393   5.981   5.746   7.445  0.7875  0.1247  0.0276
  513SOL     OW 2394   7.626   0.511   5.269  0.2074  0.2814  0.3521
  513SOL    HW1 2395   7.589   0.494   5.182  1.7887  1.9393 -0.6957
  513SOL    HW2 2396   7.680   0.434   5.287  0.4239  0.2340 -0.4497
  514SOL     OW 2397   6.278   3.943   2.905 -0.2869  0.1424  0.1565
  514SOL    HW1 2398   6.321   4.007   2.848 -2.8354  2.1523  0.3603
  514SOL    HW2 2399   6.350   3.905   2.956  1.5565  1.2324 -1.4932
  515SOL     OW 2400   5.914   4.777   5.868  0.6859 -0.1762 -0.4676
  515SOL    HW1 2401   6.006   4.755   5.879  0.5782  0.0971  1.2834
  515SOL    HW2 2402   5.867   4.701   5.902  0.3046  0.6144  0.8722
  516SOL     OW 2403   4.139   0.437   5.979 -0.1592 -0.0268 -1.1580
  516SOL    HW1 2404   4.139   0.520   5.931  0.5311  0.5974 -0.1391
  516SOL    HW2 2405   4.052   0.401   5.966 -0.2346  0.5105 -2.2069
  517SOL     OW 2406   7.741   0.126   7.851 -0.3398 -0.4001 -0.1031
  517SOL    HW1 2407   7.763   0.095   7.763  1.1478  1.2550 -0.3531
  517SOL    HW2 2408   7.750   0.221   7.846 -1.7061 -0.1418  1.4654
  518SOL     OW 2409   2.657   4.877   1.485 -0.0619  0.4349  0.2952
  518SOL    HW1 2410   2.637   4.926   1.405 -0.6825 -1.2502 -0.6360
  518SOL    HW2 2411   2.727   4.818   1.460 -0.0202  0.1313  1.1064
  519SOL     OW 2412   7.931   5.681   7.092  0.2768 -0.1542 -0.2353
  519SOL    HW1 2413   8.017   5.703   7.127  0.6706 -1.4741 -0.3074
  519SOL    HW2 2414   7.931   5.586   7.085 -0.4735 -0.0763 -2.0640
  520SOL     OW 2415   3.339   7.373   1.755  0.0317  0.1621 -0.4426
  520SOL    HW1 2416   3.280   7.448   1.763  0.0294  0.1424 -0.2722
  520SOL    HW2 2417   3.419   7.409   1.717  0.4018  0.4435  0.5739
  521SOL     OW 2418   1.129   7.934   0.796 -0.3871  0.1615  0.3721
  521SOL    HW1 2419   1.056   7.914   0.855 -0.3826 -2.2560 -0.3467
  521SOL    HW2 2420   1.188   7.987   0.848 -0.7742 -1.1977  2.3039
  522SOL     OW 2421   3.197   1.217   7.754 -0.3919 -0.4515  0.2800
  522SOL    HW1 2422   3.198   1.294   7.811 -0.9831 -0.3176  0.1133
  522SOL    HW2 2423   3.204   1.143   7.813 -0.6679 -0.3009  0.5014
  523SOL     OW 2424   3.164   2.238   4.815 -0.4030 -0.4339 -0.8610
  523SOL    HW1 2425   3.219   2.316   4.820 -0.0485 -0.6925 -0.6909
  523SOL    HW2 2426   3.167   2.212   4.723 -0.6246 -0.1747 -0.9420
  524SOL     OW 2427   5.938   2.807   1.127  0.4681  0.0493 -0.6745
  524SOL    HW1 2428   5.845   2.827   1.140  0.6818 -0.0500  1.2460
  524SOL    HW2 2429   5.980   2.892   1.116  0.2658  0.1490 -0.6765
  525SOL     OW 2430   2.041   2.652   5.608  0.3330  0.0603  0.2824
  525SOL    HW1 2431   2.059   2.697   5.525  1.3853  1.0813  1.0339
  525SOL    HW2 2432   2.122   2.660   5.658 -0.1896 -0.7969  1.3031
  526SOL     OW 2433   7.573   4.484   5.950  0.6322 -0.2964  0.2729
  526SOL    HW1 2434   7.620   4.551   6.001  0.6049 -0.7565  0.9068
  526SOL    HW2 2435   7.482   4.513   5.952  0.8118  0.3525 -0.5711
  527SOL     OW 2436   5.843   1.573   7.769 -0.1433  0.3283  0.5778
  527SOL    HW1 2437   5.938   1.571   7.762 -0.2306 -0.0658 -0.8660
  527SOL    HW2 2438   5.817   1.481   7.777 -0.3783  0.4640  1.4116
  528SOL     OW 2439   5.451   7.944   1.443 -0.3307  0.1444  0.2128
  528SOL    HW1 2440   5.438   8.027   1.397 -0.3232  0.6139  1.0241
  528SOL    HW2 2441   5.498   7.889   1.381 -2.2421 -0.0347 -1.1485
  529SOL     OW 2442   1.201   1.083   7.782 -0.3015  0.0971  0.7299
  529SOL    HW1 2443   1.129   1.143   7.802 -1.3003 -0.9026  0.3038
  529SOL    HW2 2444   1.280   1.136   7.791 -1.0783  1.2059  1.3313
  530SOL     OW 2445   0.460   0.442   2.441 -0.6246 -0.3836 -0.0719
  530SOL    HW1 2446   0.398   0.386   2.394 -0.9221  0.4457 -0.6926
  530SOL    HW2 2447   0.546   0.415   2.407 -0.7736 -0.3838 -0.4532
  531SOL     OW 2448   1.123   4.378   3.850  0.1354 -0.3268 -0.1605
  531SOL    HW1 2449   1.107   4.284   3.843  1.0684 -0.5755  0.8407
  531SOL    HW2 2450   1.127   4.408   3.759  2.6408 -1.7669 -0.6158
  532SOL     OW 2451   7.411   3.416   7.114  0.8698  0.0875 -0.0121
  532SOL    HW1 2452   7.446   3.354   7.178  1.2015  2.0721  1.8808
  532SOL    HW2 2453   7.488   3.462   7.082  0.6213 -0.3746 -1.3142
  533SOL     OW 2454   7.557   6.225   7.105 -0.1299 -0.2393  0.1312
  533SOL    HW1 2455   7.515   6.283   7.040  0.5328  0.0710 -0.0318
  533SOL    HW2 2456   7.509   6.143   7.098 -1.7722  0.5985  1.0962
  534SOL     OW 2457   3.288   7.982   4.417 -0.3180  0.3007 -0.2598
  534SOL    HW1 2458   3.271   7.938   4.334  0.3338  1.0476 -0.8012
  534SOL    HW2 2459   3.321   7.913   4.475 -0.9999 -0.2705 -0.5411
  535SOL     OW 2460   5.419   1.459   7.134  0.1221 -0.1583 -0.3309
  535SOL    HW1 2461   5.467   1.535   7.166  1.5351  0.0680 -2.6942
  535SOL    HW2 2462   5.485   1.407   7.089 -0.8859 -2.6362  0.8768
  536SOL     OW 2463   5.850   1.331   1.709  0.1766 -0.1166 -0.5114
  536SOL    HW1 2464   5.915   1.395   1.738  0.3261 -0.6298  0.3247
  536SOL    HW2 2465   5.793   1.380   1.650  0.0063  0.9204  0.4695
  537SOL     OW 2466   3.164   1.772   7.868  0.2975  0.1187 -0.4574
  537SOL    HW1 2467   3.171   1.698   7.927 -2.3348 -0.2398 -0.4677
  537SOL    HW2 2468   3.254   1.790   7.841  1.1698 -2.0569  0.7511
  538SOL     OW 2469   7.400   1.896   6.511  0.0910 -0.0881  0.1599
  538SOL    HW1 2470   7.315   1.907   6.554 -1.2457 -0.7534 -2.1077
  538SOL    HW2 2471   7.382   1.916   6.419  2.2494 -0.9313 -0.4947
  539SOL     OW 2472   5.832   7.725   6.939  0.6222  0.1645  0.0558
  539SOL    HW1 2473   5.864   7.652   6.991 -0.5070  0.4406  1.2030
  539SOL    HW2 2474   5.874   7.802   6.977 -1.8576  0.6236  2.1080
  540SOL     OW 2475   3.060   7.399   3.039  0.0865 -0.2087 -0.1056
  540SOL    HW1 2476   2.985   7.440   3.083 -0.5606  0.8955 -2.1380
  540SOL    HW2 2477   3.131   7.462   3.051  0.1700 -0.3613  0.1961
  541SOL     OW 2478   2.542   7.121   7.892 -0.1397  0.4482 -0.2804
  541SOL    HW1 2479   2.601   7.132   7.818 -0.3976 -1.3402 -0.7963
  541SOL    HW2 2480   2.510   7.209   7.911  3.1441  1.6147  0.4591
  542SOL     OW 2481   1.595   6.118   1.495 -0.0314  0.1237 -0.5038
  542SOL    HW1 2482   1.647   6.058   1.442 -0.3362 -0.6031  0.0015
  542SOL    HW2 2483   1.659   6.170   1.544  0.2362 -1.1869  0.5798
  543SOL     OW 2484   5.757   1.880   4.118  0.4540  0.1442 -0.5264
  543SOL    HW1 2485   5.809   1.950   4.157 -0.5853  1.0142 -0.6580
  543SOL    HW2 2486   5.758   1.899   4.024 -2.3762  1.8315 -0.3069
  544SOL     OW 2487   6.038   4.322   5.681 -0.1254  0.0823  0.0793
  544SOL    HW1 2488   6.078   4.392   5.732 -1.9830  1.7506 -0.6143
  544SOL    HW2 2489   6.107   4.294   5.621  0.6888  1.2445  0.4325
  545SOL     OW 2490   1.819   7.484   7.937  0.2563 -0.0724 -0.4194
  545SOL    HW1 2491   1.901   7.482   7.988  0.4671 -0.5532 -0.7635
  545SOL    HW2 2492   1.750   7.492   8.003  0.6085  1.1461 -0.1644
  546SOL     OW 2493   1.697   3.748   5.244 -0.7556  0.0484  0.0995
  546SOL    HW1 2494   1.680   3.776   5.334 -1.3665 -0.4412  0.1470
  546SOL    HW2 2495   1.721   3.656   5.252 -1.7210 -0.2562 -0.3092
  547SOL     OW 2496   2.175   6.146   1.016 -0.1082 -0.7294  0.3560
  547SOL    HW1 2497   2.171   6.173   1.108 -0.1257 -0.6948  0.3452
  547SOL    HW2 2498   2.222   6.217   0.972  1.3178 -1.4918  0.6142
  548SOL     OW 2499   4.510   0.435   5.411  0.3132 -0.0106  0.1325
  548SOL    HW1 2500   4.550   0.410   5.494  2.0698 -0.3442 -0.7522
  548SOL    HW2 2501   4.457   0.359   5.385  1.4686 -0.7911 -0.0431
  549SOL     OW 2502   6.482   1.976   1.915 -0.2566 -0.1926  0.9514
  549SOL    HW1 2503   6.425   1.928   1.854  0.7883  0.1356 -0.3170
  549SOL    HW2 2504   6.543   1.910   1.948 -0.3174 -0.2027  1.0469
  550SOL     OW 2505   6.501   3.513   0.788  0.0671 -0.8455  0.3173
  550SOL    HW1 2506   6.558   3.461   0.844  0.4366 -2.0483 -1.1124
  550SOL    HW2 2507   6.479   3.454   0.715 -0.8710  0.4599 -0.4946
  551SOL     OW 2508   0.263   7.624   0.179 -0.4448  0.8443 -0.0038
  551SOL    HW1 2509   0.328   7.692   0.193  1.0477 -0.1931 -1.5749
  551SOL    HW2 2510   0.216   7.651   0.100  2.0042 -1.1689 -2.3220
  552SOL     OW 2511   5.886   3.964   4.563  0.1744  0.9756 -0.3441
  552SOL    HW1 2512   5.855   3.936   4.477 -0.9620  0.1943  0.2945
  552SOL    HW2 2513   5.827   4.035   4.588  0.8455  1.5748 -0.4352
  553SOL     OW 2514   3.212   0.039   3.350  0.3117  0.1107  0.0446
  553SOL    HW1 2515   3.148   0.094   3.306  0.2533 -0.0573 -0.0796
  553SOL    HW2 2516   3.166   0.006   3.428  0.1891 -0.1508 -0.1369
  554SOL     OW 2517   1.170   1.430   4.052 -0.0690  0.0039 -0.2355
  554SOL    HW1 2518   1.210   1.475   4.126  0.5742 -1.0264  0.0660
  554SOL    HW2 2519   1.236   1.367   4.024 -0.7890 -0.4699 -0.8946
  555SOL     OW 2520   3.363   3.191   1.726 -0.2378 -0.0664  0.4056
  555SOL    HW1 2521   3.393   3.196   1.635  0.4984  0.2796  0.6650
  555SOL    HW2 2522   3.399   3.269   1.768 -0.2391 -0.4313  1.0996
  556SOL     OW 2523   3.852   6.758   7.169  0.5788 -0.6189  0.0930
  556SOL    HW1 2524   3.938   6.777   7.205  0.8159 -0.6040 -0.4853
  556SOL    HW2 2525   3.847   6.663   7.164 -0.3922 -0.7590  2.4494
  557SOL     OW 2526   2.162   6.990   7.604 -0.5390 -0.4486  0.1484
  557SOL    HW1 2527   2.233   6.938   7.565 -1.1649 -2.0789  1.0965
  557SOL    HW2 2528   2.184   6.994   7.697 -0.0770  1.7506 -0.0080
  558SOL     OW 2529   4.503   4.352   2.324 -0.5333  0.1722 -0.6673
  558SOL    HW1 2530   4.546   4.288   2.267  0.5642 -1.2837  1.6560
  558SOL    HW2 2531   4.573   4.412   2.351 -0.6943 -0.0517  0.2936
  559SOL     OW 2532   2.038   6.098   0.111  0.3631  0.2087  0.4070
  559SOL    HW1 2533   2.114   6.110   0.054 -1.8330  0.3143 -2.7943
  559SOL    HW2 2534   1.979   6.170   0.089 -2.4989 -2.2158 -0.6887
  560SOL     OW 2535   4.086   6.047   0.808 -0.4118  0.0899 -0.7062
  560SOL    HW1 2536   4.065   6.139   0.796 -0.0739  0.1107 -1.1674
  560SOL    HW2 2537   4.043   6.002   0.735 -1.0700 -0.1972 -0.1540
  561SOL     OW 2538   7.130   5.756   4.706 -0.3560 -0.3048  0.3485
  561SOL    HW1 2539   7.179   5.675   4.724 -0.9573 -0.6632  0.3974
  561SOL    HW2 2540   7.183   5.801   4.640  1.5305  0.7003  2.4044
  562SOL     OW 2541   4.810   5.833   0.094 -0.1769  0.1785 -0.2346
  562SOL    HW1 2542   4.886   5.879   0.129 -0.6895  1.7348 -1.0992
  562SOL    HW2 2543   4.846   5.754   0.054  0.8912  0.5491 -0.0298
  563SOL     OW 2544   7.705   3.629   4.975  0.2461 -0.1332 -0.2596
  563SOL    HW1 2545   7.779   3.575   4.949  0.4332  0.0630 -0.1326
  563SOL    HW2 2546   7.730   3.718   4.952  0.6619  0.1306  1.0917
  564SOL     OW 2547   1.130   6.968   2.526 -0.1680 -0.6828  0.3734
  564SOL    HW1 2548   1.185   7.042   2.551 -0.9312  0.3984 -0.9911
  564SOL    HW2 2549   1.184   6.919   2.464  0.7155 -1.8803  2.0144
  565SOL     OW 2550   7.175   1.870   7.158  0.4571  0.2438 -0.3342
  565SOL    HW1 2551   7.089   1.911   7.161  0.3497  0.1427 -1.6256
  565SOL    HW2 2552   7.166   1.793   7.214 -0.4285 -0.0188 -0.8219
  566SOL     OW 2553   7.107   1.577   7.004  0.3691  0.2104  0.1870
  566SOL    HW1 2554   7.098   1.593   7.098 -0.7085  0.4954  0.0446
  566SOL    HW2 2555   7.032   1.522   6.981 -0.0491  1.1424 -0.7286
  567SOL     OW 2556   0.671   3.541   5.613 -0.1252 -0.3520 -0.1535
  567SOL    HW1 2557   0.742   3.573   5.557 -1.0420  0.4528 -0.9136
  567SOL    HW2 2558   0.674   3.599   5.690  0.6359 -0.9436  0.2703
  568SOL     OW 2559   3.718   5.466   4.375  0.1226 -0.6030  0.3314
  568SOL    HW1 2560   3.634   5.449   4.416  0.1759 -2.7848 -0.3244
  568SOL    HW2 2561   3.725   5.400   4.306  1.1655  1.2837 -1.5000
  569SOL     OW 2562   7.824   6.840   2.343  0.3435  0.0680 -0.2301
  569SOL    HW1 2563   7.790   6.804   2.261  0.0677  0.0032 -0.0893
  569SOL    HW2 2564   7.751   6.891   2.378  1.0153  1.5140 -0.8696
  570SOL     OW 2565   4.079   0.050   3.596  0.2733 -0.1332  0.2151
  570SOL    HW1 2566   4.137   0.122   3.573  1.2015 -0.3616  1.7756
  570SOL    HW2 2567   4.122   0.005   3.668 -1.1874 -1.1413  0.5115
  571SOL     OW 2568   5.145   5.935   4.448 -0.1448  0.1089  0.2592
  571SOL    HW1 2569   5.203   5.870   4.410 -2.7045 -0.5226 -3.0566
  571SOL    HW2 2570   5.196   6.016   4.447  1.0658 -0.6231 -1.4373
  572SOL     OW 2571   7.758   7.874   3.324  0.6875 -0.5646  0.1148
  572SOL    HW1 2572   7.809   7.816   3.268 -0.5246 -2.2519  0.6593
  572SOL    HW2 2573   7.802   7.871   3.409  0.9626 -0.1874 -0.0101
  573SOL     OW 2574   4.201   5.085   7.497  0.3334  0.3767 -0.2550
  573SOL    HW1 2575   4.222   4.994   7.518  0.6425  0.3936 -0.4760
  573SOL    HW2 2576   4.112   5.098   7.530  0.0978 -0.1519 -0.6663
  574SOL     OW 2577   5.255   4.721   4.927  0.2351  0.0899  0.4834
  574SOL    HW1 2578   5.218   4.806   4.952  1.3528  0.6339  0.3546
  574SOL    HW2 2579   5.179   4.666   4.910 -0.5099  1.0516  0.6084
  575SOL     OW 2580   6.670   3.378   4.589  0.1650  0.0846  0.2936
  575SOL    HW1 2581   6.739   3.437   4.620  1.3690 -1.4818  0.7092
  575SOL    HW2 2582   6.618   3.359   4.667  0.7485 -0.6450  0.5176
  576SOL     OW 2583   5.121   5.981   0.680  0.1487 -0.1854  0.2608
  576SOL    HW1 2584   5.177   6.053   0.710  1.5070 -1.0561 -0.1206
  576SOL    HW2 2585   5.032   6.015   0.689  0.7439  1.4340  0.3874
  577SOL     OW 2586   5.561   3.207   5.208 -0.6167  0.2164  0.3469
  577SOL    HW1 2587   5.550   3.133   5.149 -2.1350 -0.1909  1.0908
  577SOL    HW2 2588   5.601   3.275   5.154  0.8320 -1.1188 -0.3540
  578SOL     OW 2589   3.321   7.328   7.210 -0.7979  0.2979  0.2754
  578SOL    HW1 2590   3.325   7.347   7.117  1.4613 -2.5667 -0.3367
  578SOL    HW2 2591   3.249   7.265   7.218  0.5116 -1.2794  0.0198
  579SOL     OW 2592   0.179   2.925   5.052 -0.1855 -0.0049  0.3213
  579SOL    HW1 2593   0.121   2.945   4.978  0.2659 -1.3463 -0.4352
  579SOL    HW2 2594   0.197   3.010   5.092 -0.6314  0.7320 -0.9761
  580SOL     OW 2595   1.004   4.337   4.739 -0.7205  0.0189 -0.0038
  580SOL    HW1 2596   0.994   4.378   4.654 -1.0800 -1.3664 -0.6690
  580SOL    HW2 2597   0.957   4.393   4.800 -0.7578  0.8316 -0.7781
  581SOL     OW 2598   7.574   4.887   5.487 -0.3577  0.3278  0.5277
  581SOL    HW1 2599   7.656   4.925   5.516 -0.8899  1.9255  0.0635
  581SOL    HW2 2600   7.591   4.793   5.481  1.1693  0.5377  1.2227
  582SOL     OW 2601   0.232   6.964   0.862 -0.2988  0.5998  0.1947
  582SOL    HW1 2602   0.247   7.038   0.802 -0.4840  1.6715  1.4190
  582SOL    HW2 2603   0.314   6.915   0.860 -0.7718 -0.1859 -1.9650
  583SOL     OW 2604   0.930   1.826   2.939 -0.7046  0.2535 -0.5176
  583SOL    HW1 2605   0.903   1.900   2.993 -2.2516 -0.5491 -0.1072
  583SOL    HW2 2606   0.895   1.845   2.852 -0.0478  0.5613 -0.7183
  584SOL     OW 2607   2.436   5.867   7.678 -0.7197 -0.2988 -0.3519
  584SOL    HW1 2608   2.361   5.913   7.640 -0.8555 -0.9551 -0.9187
  584SOL    HW2 2609   2.397   5.807   7.742 -0.5729  0.1355  0.1531
  585SOL     OW 2610   2.175   6.284   1.258 -0.2500 -0.6812 -0.7155
  585SOL    HW1 2611   2.218   6.351   1.311 -0.6816 -2.2124  1.7699
  585SOL    HW2 2612   2.093   6.324   1.230  0.2639  0.3806 -0.7574
  586SOL     OW 2613   4.741   7.410   6.151  0.5059  0.2186  0.9574
  586SOL    HW1 2614   4.745   7.321   6.187 -2.3248  0.3757  1.9123
  586SOL    HW2 2615   4.773   7.466   6.222 -1.5219  0.2132  1.9543
  587SOL     OW 2616   0.405   5.278   5.371  0.0201  0.3830  0.1463
  587SOL    HW1 2617   0.377   5.213   5.435 -0.5154 -0.1318 -0.5947
  587SOL    HW2 2618   0.433   5.353   5.424 -0.7124  0.0962  0.9696
  588SOL     OW 2619   0.303   6.605   7.553 -0.6336 -0.0708  0.4715
  588SOL    HW1 2620   0.275   6.613   7.644 -0.6555 -0.3535  0.4909
  588SOL    HW2 2621   0.398   6.604   7.557 -0.6332  0.0441  0.4811
  589SOL     OW 2622   5.684   1.512   5.283 -0.0673  0.3401  0.0369
  589SOL    HW1 2623   5.649   1.548   5.364  0.7443 -0.5064  0.7852
  589SOL    HW2 2624   5.609   1.510   5.223 -0.7802  0.5871  0.8981
  590SOL     OW 2625   7.903   2.667   0.192 -0.1239 -0.0595  0.5087
  590SOL    HW1 2626   7.866   2.738   0.140  0.5511  0.0100  0.1121
  590SOL    HW2 2627   7.933   2.603   0.127 -0.4566 -0.5758  0.8553
  591SOL     OW 2628   2.006   4.092   7.388  0.0230 -0.0060 -0.8852
  591SOL    HW1 2629   2.075   4.027   7.374 -2.1085 -2.1706 -2.0381
  591SOL    HW2 2630   2.030   4.134   7.471  1.8749 -1.8178 -0.4031
  592SOL     OW 2631   0.465   0.533   7.892 -0.0618 -0.4646  0.4384
  592SOL    HW1 2632   0.451   0.578   7.975 -2.0214 -0.1350 -0.0319
  592SOL    HW2 2633   0.416   0.451   7.900 -1.3128  0.1216 -0.8060
  593SOL     OW 2634   2.404   4.964   6.071 -0.2342  0.5886  0.5763
  593SOL    HW1 2635   2.429   4.972   5.979 -0.0902  0.5223  0.6100
  593SOL    HW2 2636   2.359   4.879   6.076 -0.6375  0.7912  0.4782
  594SOL     OW 2637   6.690   4.926   4.616 -0.1624  0.0124  0.1089
  594SOL    HW1 2638   6.705   5.016   4.589  0.8677 -0.9391 -2.9543
  594SOL    HW2 2639   6.623   4.893   4.557  0.8515 -1.7364 -0.1712
  595SOL     OW 2640   4.259   3.434   1.356  0.8151 -0.7270 -0.3236
  595SOL    HW1 2641   4.221   3.422   1.269 -1.8886 -0.7749  0.7627
  595SOL    HW2 2642   4.222   3.364   1.408  0.9177  0.3661  1.2834
  596SOL     OW 2643   7.265   6.089   7.912  0.4789  1.1755  0.5681
  596SOL    HW1 2644   7.269   6.184   7.898 -0.2601  1.1907  0.4439
  596SOL    HW2 2645   7.309   6.052   7.835 -1.6172  1.3335 -0.7919
  597SOL     OW 2646   5.824   3.974   3.505  0.7599  0.0750 -0.2046
  597SOL    HW1 2647   5.736   4.003   3.526  0.8733  1.0769 -1.0217
  597SOL    HW2 2648   5.815   3.929   3.420  0.7760 -1.3360  0.5050
  598SOL     OW 2649   2.708   1.442   6.231 -0.6215 -1.0692 -0.4971
  598SOL    HW1 2650   2.644   1.513   6.235 -0.0947 -0.3902 -2.6281
  598SOL    HW2 2651   2.747   1.440   6.318 -0.6611  1.2945 -0.3593
  599SOL     OW 2652   3.280   6.303   1.047 -0.0870  0.4131  0.3558
  599SOL    HW1 2653   3.228   6.223   1.058 -2.3589  1.6051 -0.8748
  599SOL    HW2 2654   3.248   6.362   1.116  0.3930  0.8272  0.2291
  600SOL     OW 2655   6.400   1.733   4.195  0.2941  0.4805  0.2491
  600SOL    HW1 2656   6.388   1.648   4.237  1.5321  0.1472 -0.0373
  600SOL    HW2 2657   6.450   1.785   4.258 -1.5630  1.4855  0.9874
  601SOL     OW 2658   4.907   3.831   6.846  0.6018  0.1226  0.5187
  601SOL    HW1 2659   4.826   3.792   6.816 -0.3132  3.2193 -1.5793
  601SOL    HW2 2660   4.896   3.842   6.940 -0.0883 -2.1873  0.7451
  602SOL     OW 2661   1.011   0.627   2.724  0.4101  0.0721  0.4769
  602SOL    HW1 2662   1.074   0.645   2.793 -0.6271  0.2165  1.4235
  602SOL    HW2 2663   0.931   0.602   2.771 -0.3352  0.2248 -0.6720
  603SOL     OW 2664   1.716   4.587   7.020  0.2886  0.5793 -0.1389
  603SOL    HW1 2665   1.727   4.596   7.115  1.3994  1.0034 -0.2914
  603SOL    HW2 2666   1.659   4.510   7.010  0.7879  0.0585  0.8424
  604SOL     OW 2667   1.082   5.365   0.288  0.2405  0.7818  0.3203
  604SOL    HW1 2668   1.106   5.273   0.282  0.2720  0.8844 -2.1183
  604SOL    HW2 2669   1.084   5.385   0.382  1.2532 -1.4077  0.8132
  605SOL     OW 2670   0.239   1.157   3.522 -0.8417 -0.2270  0.4839
  605SOL    HW1 2671   0.167   1.154   3.460  0.1907 -2.1527 -0.7126
  605SOL    HW2 2672   0.199   1.134   3.606 -1.6616 -1.0967 -0.1280
  606SOL     OW 2673   2.513   5.226   4.909  0.4041  0.9671 -0.8450
  606SOL    HW1 2674   2.457   5.211   4.985  0.1792  1.6909 -0.8571
  606SOL    HW2 2675   2.508   5.321   4.894  0.3017  0.8107 -1.8700
  607SOL     OW 2676   1.719   2.292   6.108 -0.1380  0.1138 -0.1498
  607SOL    HW1 2677   1.746   2.328   6.192  1.9051  0.6912 -0.9898
  607SOL    HW2 2678   1.767   2.209   6.101 -0.2525  0.0946 -0.7607
  608SOL     OW 2679   3.239   6.056   4.284 -0.3258 -0.2666  0.5204
  608SOL    HW1 2680   3.315   6.026   4.333 -0.5606 -2.4884 -0.3865
  608SOL    HW2 2681   3.274   6.077   4.197 -0.3430  1.2413  0.8480
  609SOL     OW 2682   7.295   1.006   6.408 -0.1636  0.1105  0.2260
  609SOL    HW1 2683   7.374   1.024   6.459  0.7967 -0.5136 -0.9604
  609SOL    HW2 2684   7.328   0.988   6.320 -1.6354 -0.2928 -0.2680
  610SOL     OW 2685   5.164   1.545   2.994  0.0494 -0.3779  0.2058
  610SOL    HW1 2686   5.159   1.546   3.089  0.1916  1.7648  0.2339
  610SOL    HW2 2687   5.251   1.510   2.975  0.2442 -0.2702  0.8723
  611SOL     OW 2688   5.399   1.883   2.245  0.1684 -0.3300  0.0026
  611SOL    HW1 2689   5.385   1.890   2.339 -0.4797  0.2601 -0.1303
  611SOL    HW2 2690   5.354   1.803   2.219 -0.9947  0.3196 -0.0440
  612SOL     OW 2691   6.358   4.845   0.880 -0.2194 -0.1437  0.2041
  612SOL    HW1 2692   6.400   4.883   0.803  0.9071 -0.7955  0.4736
  612SOL    HW2 2693   6.264   4.846   0.859  0.1028 -0.8639 -1.4401
  613SOL     OW 2694   7.715   7.939   5.256 -0.0949  0.5176  0.1607
  613SOL    HW1 2695   7.633   7.982   5.234 -1.0752 -1.3317  0.0344
  613SOL    HW2 2696   7.690   7.861   5.304  1.6355  0.2639  0.7284
  614SOL     OW 2697   0.737   6.439   2.382  0.1500  0.3406 -0.2804
  614SOL    HW1 2698   0.718   6.416   2.473 -2.1105 -0.8913 -1.0040
  614SOL    HW2 2699   0.805   6.377   2.355  1.1137  0.9546  0.6271
  615SOL     OW 2700   5.249   0.793   0.360 -0.7065 -0.0122 -0.4241
  615SOL    HW1 2701   5.217   0.703   0.362 -0.6772 -0.0300 -0.7213
  615SOL    HW2 2702   5.326   0.792   0.417 -1.8160  0.2692  1.1696
  616SOL     OW 2703   7.127   4.293   0.001  0.5162 -0.3464 -0.1225
  616SOL    HW1 2704   7.157   4.211   0.039 -0.1756 -0.2667  0.6083
  616SOL    HW2 2705   7.112   4.351   0.076  0.3865  0.2406 -0.5909
  617SOL     OW 2706   7.104   6.188   6.869  0.2073  1.3299  0.3569
  617SOL    HW1 2707   7.045   6.113   6.863  1.2017  0.6323 -1.5470
  617SOL    HW2 2708   7.056   6.253   6.920 -0.5627 -0.6987  2.4002
  618SOL     OW 2709   4.720   3.204   0.873  0.5729 -0.1957 -0.2047
  618SOL    HW1 2710   4.696   3.152   0.797  2.4049  1.0017 -1.7255
  618SOL    HW2 2711   4.813   3.224   0.859  0.0324  3.3690  0.2484
  619SOL     OW 2712   5.229   5.068   6.428 -0.0951  0.0705  0.1361
  619SOL    HW1 2713   5.237   5.149   6.379  0.4694 -0.3710 -0.5159
  619SOL    HW2 2714   5.143   5.074   6.472 -0.1220  0.9348 -0.0328
  620SOL     OW 2715   5.534   3.587   2.053  0.0892  0.0790 -0.0266
  620SOL    HW1 2716   5.547   3.532   1.976 -2.0400  0.7802 -0.9393
  620SOL    HW2 2717   5.612   3.642   2.056 -1.0115  2.1191 -3.4859
  621SOL     OW 2718   7.543   7.819   2.250  0.2202  0.1411 -0.0444
  621SOL    HW1 2719   7.607   7.824   2.179 -1.4456  1.7286 -1.5723
  621SOL    HW2 2720   7.474   7.763   2.214 -0.4241  0.5735  0.5038
  622SOL     OW 2721   4.059   6.688   1.711 -0.0249 -0.2611 -0.0689
  622SOL    HW1 2722   4.057   6.671   1.805 -0.0572 -0.4863 -0.1085
  622SOL    HW2 2723   3.982   6.642   1.677 -0.8083  0.9708 -0.0287
  623SOL     OW 2724   1.870   6.823   7.071 -0.1466 -0.3039  0.4382
  623SOL    HW1 2725   1.888   6.808   6.978  3.7057 -1.0738  1.1293
  623SOL    HW2 2726   1.830   6.741   7.101 -0.9471 -0.2387 -0.4323
  624SOL     OW 2727   0.919   7.770   6.434 -0.3350  0.4792  0.3619
  624SOL    HW1 2728   0.911   7.839   6.368  0.5222 -0.1225 -0.3851
  624SOL    HW2 2729   1.013   7.749   6.436 -0.7069 -1.3429 -0.1281
  625SOL     OW 2730   4.210   6.006   2.604 -0.1372 -0.3466 -0.0295
  625SOL    HW1 2731   4.155   6.016   2.526 -0.9095  0.7638  0.6396
  625SOL    HW2 2732   4.237   6.095   2.627  2.3721 -0.8821 -0.6002
  626SOL     OW 2733   1.702   2.196   6.785 -0.1843 -0.4418 -0.2440
  626SOL    HW1 2734   1.754   2.155   6.715  0.6334  0.5185 -0.2241
  626SOL    HW2 2735   1.643   2.127   6.814  0.4537 -1.2957 -0.8994
  627SOL     OW 2736   3.058   0.651   5.379  0.2791 -0.0689  0.5715
  627SOL    HW1 2737   3.054   0.664   5.474 -0.8038 -1.3710  0.7456
  627SOL    HW2 2738   3.027   0.734   5.342 -0.7515 -0.0501  1.4142
  628SOL     OW 2739   6.343   0.076   5.479 -0.2167 -0.4079 -0.2107
  628SOL    HW1 2740   6.252   0.094   5.458  0.1609 -0.2916 -1.8995
  628SOL    HW2 2741   6.373   0.154   5.526 -1.3253 -1.0287  1.6374
  629SOL     OW 2742   2.199   6.342   2.562 -0.9073  0.1522 -0.2963
  629SOL    HW1 2743   2.131   6.333   2.629 -1.2648 -2.1364 -0.8689
  629SOL    HW2 2744   2.275   6.376   2.610 -2.3088  2.5119  0.4059
  630SOL     OW 2745   1.659   6.653   0.302  0.0505  0.1345  1.1292
  630SOL    HW1 2746   1.609   6.573   0.312 -0.3712  0.2147 -0.0783
  630SOL    HW2 2747   1.707   6.641   0.219  0.0604  1.0693  0.9835
  631SOL     OW 2748   0.845   1.929   7.858 -0.2800  0.5805  0.3341
  631SOL    HW1 2749   0.833   2.000   7.794 -1.2307 -1.0028 -1.3440
  631SOL    HW2 2750   0.764   1.928   7.909 -1.1394 -0.5295 -0.9879
  632SOL     OW 2751   0.609   7.917   1.882 -0.2938  0.2831  0.3040
  632SOL    HW1 2752   0.696   7.879   1.893 -1.1503 -2.3746 -1.1055
  632SOL    HW2 2753   0.625   8.008   1.854  2.0748 -0.5044 -1.1344
  633SOL     OW 2754   0.469   3.142   7.885  0.3807  0.1282 -0.2874
  633SOL    HW1 2755   0.407   3.109   7.820  0.3690  0.9164 -0.6897
  633SOL    HW2 2756   0.533   3.072   7.896  0.3534 -0.0290 -1.1097
  634SOL     OW 2757   4.230   4.539   3.836 -0.3213  0.6951 -0.0125
  634SOL    HW1 2758   4.144   4.523   3.799 -0.1402  0.2549 -0.2485
  634SOL    HW2 2759   4.240   4.634   3.834 -0.3357  0.6820 -1.0340
  635SOL     OW 2760   0.862   2.361   3.110  0.0422  0.3130  0.2329
  635SOL    HW1 2761   0.801   2.291   3.088 -1.2665  1.6881 -0.7796
  635SOL    HW2 2762   0.934   2.351   3.048 -0.7715  0.6089 -0.7928
  636SOL     OW 2763   5.885   3.766   7.400  0.5869  0.0831  0.4095
  636SOL    HW1 2764   5.830   3.844   7.399 -1.3245 -1.2180 -0.3735
  636SOL    HW2 2765   5.895   3.745   7.493 -0.2258  0.3574  0.5681
  637SOL     OW 2766   4.635   2.256   3.582 -0.7017 -0.0719  0.4820
  637SOL    HW1 2767   4.665   2.320   3.518  0.3283  2.2473  3.0684
  637SOL    HW2 2768   4.698   2.184   3.576  0.0013  0.5987 -0.3648
  638SOL     OW 2769   3.624   3.425   1.387 -0.2697  0.3293  0.0121
  638SOL    HW1 2770   3.686   3.498   1.390 -0.5468  0.5799 -0.3108
  638SOL    HW2 2771   3.666   3.360   1.331  0.0359  0.1816  0.4036
  639SOL     OW 2772   3.234   7.514   3.754 -0.4636 -0.0074 -0.2127
  639SOL    HW1 2773   3.260   7.577   3.821 -0.0437 -1.1637  0.7601
  639SOL    HW2 2774   3.316   7.492   3.710 -0.4378 -0.5861  0.1094
  640SOL     OW 2775   2.491   0.328   2.903 -0.4435  0.3529 -0.0257
  640SOL    HW1 2776   2.542   0.293   2.830  1.0988  0.8049  0.8018
  640SOL    HW2 2777   2.528   0.414   2.920  0.3709 -0.3983  2.3556
  641SOL     OW 2778   6.797   3.120   0.162  0.0062  0.3678  0.3771
  641SOL    HW1 2779   6.831   3.033   0.183  0.7134  0.3109 -0.9184
  641SOL    HW2 2780   6.807   3.170   0.243 -1.1752 -0.9585  1.3993
  642SOL     OW 2781   3.822   6.401   5.729  0.3503  0.1769 -0.3539
  642SOL    HW1 2782   3.781   6.329   5.681 -2.3941  1.8997 -0.8142
  642SOL    HW2 2783   3.844   6.466   5.662  2.2908  0.0687  0.1120
  643SOL     OW 2784   0.532   1.931   1.507 -0.5169 -0.2969  0.4877
  643SOL    HW1 2785   0.533   2.027   1.507 -2.0378 -0.2141  2.4375
  643SOL    HW2 2786   0.444   1.908   1.478 -0.0341 -1.1518 -0.3580
  644SOL     OW 2787   7.845   6.273   0.001  0.2205  0.6963  0.1269
  644SOL    HW1 2788   7.938   6.292  -0.013  1.0841 -1.1416  2.5800
  644SOL    HW2 2789   7.818   6.333   0.071 -0.2438  0.7636 -0.1085
  645SOL     OW 2790   6.063   3.911   5.165 -0.3178  0.1089  1.1022
  645SOL    HW1 2791   6.026   3.919   5.253 -0.6421  0.4659  0.9419
  645SOL    HW2 2792   6.032   3.826   5.134 -0.2452  0.0047  1.3161
  646SOL     OW 2793   5.746   2.772   4.518 -0.3639  0.3819  0.0976
  646SOL    HW1 2794   5.825   2.792   4.467  0.3828 -0.2024  0.9832
  646SOL    HW2 2795   5.777   2.768   4.609 -1.3071 -0.4522  0.3955
  647SOL     OW 2796   5.588   5.517   5.273  0.1247  0.4078 -0.3045
  647SOL    HW1 2797   5.533   5.442   5.295 -0.2656  0.1640 -1.9980
  647SOL    HW2 2798   5.533   5.593   5.288 -0.0281  0.2716 -0.1677
  648SOL     OW 2799   3.794   0.159   4.116  0.5207 -0.5217 -0.4074
  648SOL    HW1 2800   3.806   0.133   4.024 -0.9574  0.2270 -0.8382
  648SOL    HW2 2801   3.734   0.233   4.112  1.4360  0.3458  1.0917
  649SOL     OW 2802   3.850   6.118   2.189 -0.3473 -0.0845 -0.2494
  649SOL    HW1 2803   3.811   6.134   2.275  0.9174  0.8275  0.1796
  649SOL    HW2 2804   3.775   6.111   2.129 -1.3388 -2.2842  1.1267
  650SOL     OW 2805   1.134   5.462   3.512 -0.0072  0.3519 -0.2807
  650SOL    HW1 2806   1.055   5.408   3.520 -0.6935  1.5161  1.5385
  650SOL    HW2 2807   1.115   5.521   3.439 -0.0970 -0.4863 -0.9506
  651SOL     OW 2808   1.191   7.348   3.536  0.0270 -0.3656  0.0299
  651SOL    HW1 2809   1.192   7.291   3.613 -0.2088 -0.7170 -0.2248
  651SOL    HW2 2810   1.283   7.361   3.514  0.1235 -2.9700 -1.6120
  652SOL     OW 2811   2.651   6.385   2.615 -0.3739  0.1019  0.0223
  652SOL    HW1 2812   2.612   6.303   2.585  0.8192 -0.5545  0.2378
  652SOL    HW2 2813   2.586   6.421   2.676 -0.9897 -0.5695 -0.2207
  653SOL     OW 2814   5.301   3.052   1.689 -0.9330  0.1169  0.2371
  653SOL    HW1 2815   5.344   3.003   1.759 -1.6056  0.2855  0.7884
  653SOL    HW2 2816   5.224   3.090   1.731 -1.2686  0.3477 -0.5664
  654SOL     OW 2817   6.198   5.311   3.477  0.6110  0.4748  0.8156
  654SOL    HW1 2818   6.199   5.225   3.434 -0.9897  0.6212  0.4120
  654SOL    HW2 2819   6.290   5.328   3.499  0.7240 -2.3875  3.0985
  655SOL     OW 2820   0.020   3.959   5.788 -0.3497 -0.0318 -0.1897
  655SOL    HW1 2821   0.048   3.907   5.863 -1.4486 -0.5373 -0.1128
  655SOL    HW2 2822   0.056   3.913   5.712  1.2190  0.7707  0.0176
  656SOL     OW 2823   2.164   7.359   5.506  0.1503  0.0375  0.4225
  656SOL    HW1 2824   2.164   7.454   5.494  1.0126 -0.2964 -3.1135
  656SOL    HW2 2825   2.073   7.337   5.524 -0.2256  1.4381  0.3248
  657SOL     OW 2826   7.396   7.647   7.533 -0.2596  0.1963  0.0056
  657SOL    HW1 2827   7.311   7.620   7.498  0.4183 -1.2583 -0.6197
  657SOL    HW2 2828   7.460   7.608   7.473  0.8938 -0.1252  1.3758
  658SOL     OW 2829   1.181   0.302   3.936 -0.1577 -0.2598  0.3179
  658SOL    HW1 2830   1.146   0.274   4.021 -2.2368  0.6814 -0.1905
  658SOL    HW2 2831   1.173   0.224   3.881 -0.7557 -0.2831  0.4272
  659SOL     OW 2832   1.854   1.395   0.489 -0.1230 -0.0703 -0.0223
  659SOL    HW1 2833   1.941   1.389   0.527  0.2546 -0.6007 -0.9326
  659SOL    HW2 2834   1.824   1.304   0.485 -0.7546  0.1169  0.3577
  660SOL     OW 2835   5.120   0.899   6.998 -1.0277 -0.2906 -0.2614
  660SOL    HW1 2836   5.178   0.976   6.998  0.0440 -1.0654  0.4621
  660SOL    HW2 2837   5.033   0.936   7.011 -0.4339  0.7684  1.1074
  661SOL     OW 2838   6.183   0.331   7.664 -0.6112  0.4698  0.1409
  661SOL    HW1 2839   6.248   0.393   7.631 -0.6641  0.4439 -0.0105
  661SOL    HW2 2840   6.209   0.316   7.755  0.0758 -0.1597 -0.1392
  662SOL     OW 2841   3.704   0.741   5.022 -0.1652 -0.0928  0.0489
  662SOL    HW1 2842   3.733   0.675   4.960 -1.5194 -1.8280  1.1730
  662SOL    HW2 2843   3.634   0.788   4.977 -1.2116 -1.4112  0.2493
  663SOL     OW 2844   5.718   7.697   7.620  0.2053 -0.0616  0.0742
  663SOL    HW1 2845   5.803   7.664   7.649 -0.3845 -0.6106  1.2574
  663SOL    HW2 2846   5.661   7.620   7.620  0.0135  0.0382 -2.0106
  664SOL     OW 2847   6.460   1.540   3.842  0.0832  0.0913  0.3865
  664SOL    HW1 2848   6.451   1.461   3.788  2.3084  0.8839 -1.3220
  664SOL    HW2 2849   6.380   1.589   3.827 -1.4231 -1.8409  1.6158
  665SOL     OW 2850   1.188   1.837   7.788  0.3049 -0.4161 -0.2764
  665SOL    HW1 2851   1.214   1.912   7.735  0.9880 -0.9798 -0.7455
  665SOL    HW2 2852   1.135   1.783   7.730  0.0479 -0.4449 -0.0203
  666SOL     OW 2853   1.783   2.529   5.995 -0.6632 -0.2903 -0.0215
  666SOL    HW1 2854   1.877   2.511   5.988 -0.4653  0.9995 -1.4960
  666SOL    HW2 2855   1.745   2.450   6.033  0.9943 -0.9126  0.4098
  667SOL     OW 2856   3.619   1.304   3.597  0.0348  0.0152  0.0941
  667SOL    HW1 2857   3.595   1.282   3.507 -0.0859  0.8036 -0.0685
  667SOL    HW2 2858   3.535   1.310   3.642  0.0033  1.1637 -0.1018
  668SOL     OW 2859   0.516   5.627   1.452  0.0066 -0.3836  0.2543
  668SOL    HW1 2860   0.499   5.550   1.397 -1.7355  1.4493 -1.9637
  668SOL    HW2 2861   0.430   5.658   1.478  0.6219  1.2892  0.4128
  669SOL     OW 2862   4.028   5.651   4.347  0.2556 -0.0796 -0.8995
  669SOL    HW1 2863   3.977   5.645   4.428  0.3163 -1.0639 -0.9162
  669SOL    HW2 2864   4.044   5.744   4.335 -0.7787  0.1713 -0.4166
  670SOL     OW 2865   3.034   3.703   4.402  0.0892 -0.0501  0.0233
  670SOL    HW1 2866   3.077   3.781   4.367 -0.1583  0.0658 -0.0172
  670SOL    HW2 2867   3.107   3.648   4.432  0.4670 -0.9798 -2.3307
  671SOL     OW 2868   5.494   6.607   7.466 -0.0815 -0.0635  0.5278
  671SOL    HW1 2869   5.539   6.530   7.502  1.9638 -0.1967 -2.0591
  671SOL    HW2 2870   5.454   6.577   7.385  0.0836  1.4150 -0.1374
  672SOL     OW 2871   1.978   4.227   1.108 -0.0756 -0.2119  0.1410
  672SOL    HW1 2872   1.883   4.233   1.101 -0.0678  1.6839  1.0371
  672SOL    HW2 2873   2.004   4.170   1.035 -1.5867  2.1146 -2.3807
  673SOL     OW 2874   2.192   5.217   0.110 -0.0482 -0.1699  0.4423
  673SOL    HW1 2875   2.269   5.255   0.069  0.4956  0.4310  1.9453
  673SOL    HW2 2876   2.209   5.223   0.204 -2.0998  0.3499  0.8316
  674SOL     OW 2877   6.829   3.178   3.515  0.1975  0.1513  0.5826
  674SOL    HW1 2878   6.892   3.114   3.550 -1.4982  0.1524  4.0740
  674SOL    HW2 2879   6.747   3.157   3.560 -2.0842  0.9285 -2.8499
  675SOL     OW 2880   2.228   5.490   2.420 -0.2052  0.2682  0.0230
  675SOL    HW1 2881   2.233   5.490   2.325  1.6367 -0.0147  0.0795
  675SOL    HW2 2882   2.220   5.583   2.444  0.3320  0.4177 -0.3775
  676SOL     OW 2883   1.185   4.023   3.302  0.0952  0.5257 -0.3525
  676SOL    HW1 2884   1.214   4.013   3.392  1.2143 -1.0771 -0.8388
  676SOL    HW2 2885   1.109   3.966   3.293  1.3226 -1.1136 -0.9361
  677SOL     OW 2886   2.749   1.357   2.133  0.5351 -0.0145 -0.0343
  677SOL    HW1 2887   2.822   1.328   2.186  0.9002  0.3634 -0.3243
  677SOL    HW2 2888   2.777   1.343   2.042  0.5841  0.8965 -0.1693
  678SOL     OW 2889   2.805   3.248   6.400 -0.0966  0.1033  0.3686
  678SOL    HW1 2890   2.810   3.234   6.494 -2.6423 -1.1359  0.3878
  678SOL    HW2 2891   2.847   3.171   6.362 -1.2475 -0.6143  0.5139
  679SOL     OW 2892   0.896   4.896   5.971  0.5396  0.9010  0.1749
  679SOL    HW1 2893   0.834   4.910   6.043 -0.9239  0.3959 -0.9282
  679SOL    HW2 2894   0.890   4.976   5.919  0.5903  0.7220 -0.1041
  680SOL     OW 2895   3.042   1.563   6.501 -0.2674  0.5474  0.6456
  680SOL    HW1 2896   3.069   1.519   6.421  0.1969  0.0552  1.0663
  680SOL    HW2 2897   3.107   1.537   6.566  0.3464  2.2975  0.7890
  681SOL     OW 2898   5.943   2.606   5.762 -0.1828 -0.3099  0.0884
  681SOL    HW1 2899   5.850   2.616   5.742 -0.6700  1.4540  2.6689
  681SOL    HW2 2900   5.989   2.651   5.691 -1.3619 -0.1742 -0.5952
  682SOL     OW 2901   4.499   2.544   4.562 -0.1440  0.2106 -0.1943
  682SOL    HW1 2902   4.534   2.457   4.546  1.0524  0.6969 -0.3460
  682SOL    HW2 2903   4.569   2.604   4.533 -0.3132  1.1927  1.3190
  683SOL     OW 2904   5.634   4.061   1.943  0.2133 -0.7406  0.3274
  683SOL    HW1 2905   5.678   4.137   1.980  0.4723 -0.1378 -1.1499
  683SOL    HW2 2906   5.652   4.066   1.849 -0.6921 -2.0183  0.0555
  684SOL     OW 2907   4.491   3.266   3.034 -0.2636 -0.1045 -0.1588
  684SOL    HW1 2908   4.498   3.291   2.942 -0.2081  1.3124  0.2036
  684SOL    HW2 2909   4.581   3.255   3.063 -0.1941  1.0123  0.1050
  685SOL     OW 2910   4.589   6.501   7.726  0.0842 -0.2818 -0.0480
  685SOL    HW1 2911   4.585   6.496   7.631  1.3942 -1.9056 -0.0636
  685SOL    HW2 2912   4.679   6.524   7.746 -0.7839  2.8751  0.8082
  686SOL     OW 2913   5.114   7.181   1.327 -0.2663  0.1825  0.0966
  686SOL    HW1 2914   5.132   7.123   1.401 -1.3493 -0.0374  0.1992
  686SOL    HW2 2915   5.019   7.184   1.322 -0.2031  0.7183 -0.8849
  687SOL     OW 2916   4.454   6.240   4.058  0.4743  0.0163  0.5186
  687SOL    HW1 2917   4.548   6.248   4.077  0.5583  2.7469 -0.6007
  687SOL    HW2 2918   4.431   6.323   4.017 -2.1283 -1.2044 -0.6830
  688SOL     OW 2919   6.097   0.997   4.177 -0.0677 -0.1929  0.4455
  688SOL    HW1 2920   6.033   0.950   4.123  2.8131 -0.8940 -2.7060
  688SOL    HW2 2921   6.135   0.931   4.233  0.5677 -0.6506 -0.4950
  689SOL     OW 2922   2.493   3.279   5.789  0.3576 -0.0193 -0.2510
  689SOL    HW1 2923   2.507   3.282   5.695  1.8377  0.5097 -0.0482
  689SOL    HW2 2924   2.558   3.216   5.821 -1.0620 -1.2808  0.3007
  690SOL     OW 2925   4.635   6.559   4.139  0.4374  0.1015 -0.3256
  690SOL    HW1 2926   4.705   6.605   4.185 -0.8859  1.2583  0.6232
  690SOL    HW2 2927   4.569   6.627   4.121 -0.2871 -0.8708 -1.5246
  691SOL     OW 2928   4.856   1.603   2.869 -0.1846 -0.2791 -0.5022
  691SOL    HW1 2929   4.916   1.633   2.937 -0.3468 -2.0756  0.5081
  691SOL    HW2 2930   4.911   1.589   2.792  0.0704  1.4006 -0.6460
  692SOL     OW 2931   2.291   5.609   1.851 -0.3070  0.0081 -0.2374
  692SOL    HW1 2932   2.272   5.528   1.897  0.7421  0.2117  0.5904
  692SOL    HW2 2933   2.386   5.619   1.857 -0.5147  1.9509  0.8604
  693SOL     OW 2934   5.592   7.986   6.607 -0.1386 -0.0370  0.0912
  693SOL    HW1 2935   5.501   7.982   6.578 -0.4970  2.3142  0.6589
  693SOL    HW2 2936   5.602   7.911   6.666 -1.5141 -0.6966 -0.4705
  694SOL     OW 2937   6.896   1.011   3.397  0.2821 -0.3026  0.6722
  694SOL    HW1 2938   6.974   1.021   3.344 -1.1197  1.0260 -1.2992
  694SOL    HW2 2939   6.873   0.918   3.389  1.3226 -0.5816  0.8247
  695SOL     OW 2940   6.184   4.828   7.988  0.3673  0.2926 -0.0649
  695SOL    HW1 2941   6.177   4.765   7.917  2.1895 -0.6835  0.5546
  695SOL    HW2 2942   6.117   4.894   7.968 -0.0770 -0.6435 -1.9303
  696SOL     OW 2943   0.409   4.616   7.734 -0.1793 -0.6582  0.4156
  696SOL    HW1 2944   0.362   4.684   7.686 -0.0079 -0.3642  0.6594
  696SOL    HW2 2945   0.390   4.535   7.687  1.1065 -0.2018 -0.9728
  697SOL     OW 2946   5.173   4.476   7.479 -0.1378  0.1798 -0.0958
  697SOL    HW1 2947   5.130   4.428   7.408 -0.5787  1.0249 -0.4208
  697SOL    HW2 2948   5.149   4.568   7.463  1.0548  0.5670  0.2415
  698SOL     OW 2949   7.364   4.260   7.508  0.4839 -0.0821 -0.2496
  698SOL    HW1 2950   7.283   4.266   7.558 -0.2657 -0.9507 -1.3070
  698SOL    HW2 2951   7.398   4.172   7.526 -0.1425 -0.6649 -1.7077
  699SOL     OW 2952   2.863   1.298   7.646 -0.3283 -0.6389 -0.0563
  699SOL    HW1 2953   2.835   1.273   7.734  0.5722  0.7797  0.6632
  699SOL    HW2 2954   2.951   1.260   7.637  0.8468  1.6766  0.8626
  700SOL     OW 2955   0.701   3.143   7.616 -0.9008  0.3708  0.9175
  700SOL    HW1 2956   0.787   3.137   7.574 -0.8156  0.6551  1.0487
  700SOL    HW2 2957   0.672   3.052   7.625 -1.2542  0.3283 -0.4209
  701SOL     OW 2958   4.485   5.327   2.099  0.1193  0.2482  0.0183
  701SOL    HW1 2959   4.573   5.362   2.107 -0.2069  1.7397 -2.1509
  701SOL    HW2 2960   4.480   5.260   2.167  3.2333 -0.5550 -0.3766
  702SOL     OW 2961   1.609   7.278   6.766  0.0074  0.0884 -0.6165
  702SOL    HW1 2962   1.640   7.279   6.857  1.4120 -1.1482 -1.0426
  702SOL    HW2 2963   1.517   7.252   6.773 -0.4233  1.7448  0.5490
  703SOL     OW 2964   5.572   2.872   6.772  0.6964  0.9321 -0.1873
  703SOL    HW1 2965   5.517   2.794   6.781  0.6828  0.9375 -0.2214
  703SOL    HW2 2966   5.513   2.945   6.792  0.8063  0.9114  0.2196
  704SOL     OW 2967   5.417   4.152   6.209  0.2288 -0.6594 -0.8759
  704SOL    HW1 2968   5.364   4.105   6.144 -0.7210 -0.8359 -0.0069
  704SOL    HW2 2969   5.353   4.186   6.271  0.9330  1.3433 -1.1735
  705SOL     OW 2970   0.215   5.837   6.486 -0.5156  0.4418  0.3456
  705SOL    HW1 2971   0.184   5.761   6.536 -0.5686  1.3971  1.8285
  705SOL    HW2 2972   0.236   5.902   6.553  0.6327  1.3357 -0.8321
  706SOL     OW 2973   4.437   6.365   1.171  0.0091  0.0467 -0.1389
  706SOL    HW1 2974   4.390   6.302   1.225  0.2460 -1.0465 -1.1619
  706SOL    HW2 2975   4.402   6.450   1.197 -2.2992 -0.6853 -0.6186
  707SOL     OW 2976   2.677   3.174   1.338  0.0257  0.0905  0.0779
  707SOL    HW1 2977   2.637   3.223   1.410 -0.8716 -1.1045  0.4398
  707SOL    HW2 2978   2.606   3.163   1.274  0.9765  1.6902 -1.3353
  708SOL     OW 2979   1.458   0.696   6.957 -0.6589  0.1533  0.3695
  708SOL    HW1 2980   1.425   0.687   7.046  2.4427  2.0178  1.9178
  708SOL    HW2 2981   1.546   0.733   6.969 -0.4275  1.2500 -3.5168
  709SOL     OW 2982   7.815   7.015   6.881  0.3844 -0.2213  0.0386
  709SOL    HW1 2983   7.881   6.946   6.888 -0.6947 -1.4440 -1.1663
  709SOL    HW2 2984   7.816   7.040   6.789  0.1689  0.7732  0.2985
  710SOL     OW 2985   2.173   0.725   1.154 -0.1643  0.2463  0.1110
  710SOL    HW1 2986   2.238   0.781   1.111 -0.1707 -0.3317 -0.6677
  710SOL    HW2 2987   2.152   0.659   1.089  1.3630 -1.8987  1.6422
  711SOL     OW 2988   2.215   2.967   5.585  0.0641 -0.0845  0.4617
  711SOL    HW1 2989   2.190   3.041   5.640 -2.3162 -1.5552  1.4829
  711SOL    HW2 2990   2.283   2.922   5.635 -0.3229 -0.0441  1.0185
  712SOL     OW 2991   7.003   2.290   5.129  0.7510  0.0115  0.5223
  712SOL    HW1 2992   6.928   2.252   5.174  1.3971 -1.4860  0.3857
  712SOL    HW2 2993   6.987   2.385   5.131 -1.2275 -0.2794  0.3007
  713SOL     OW 2994   2.297   4.672   0.035 -0.0407 -0.1415  0.2962
  713SOL    HW1 2995   2.253   4.587   0.042 -1.9223  0.5780 -1.5835
  713SOL    HW2 2996   2.254   4.726   0.101  0.6783 -0.4500  1.0249
  714SOL     OW 2997   7.953   0.053   1.339  0.4443  0.7861  0.4932
  714SOL    HW1 2998   8.004  -0.007   1.392  1.3426  0.2957 -0.8616
  714SOL    HW2 2999   7.979   0.140   1.370  1.2363  0.5155  0.6290
  715SOL     OW 3000   2.902   6.030   5.653  0.4052  0.1547 -0.7144
  715SOL    HW1 3001   2.856   5.946   5.654 -0.2510  0.4713 -2.0038
  715SOL    HW2 3002   2.924   6.046   5.745 -1.6956 -0.2249 -0.0799
  716SOL     OW 3003   6.012   2.905   6.164 -0.4490  0.1804 -0.2455
  716SOL    HW1 3004   6.096   2.892   6.207 -0.0058  3.2826  0.0024
  716SOL    HW2 3005   5.973   2.980   6.209 -1.7452  1.0491 -2.6404
  717SOL     OW 3006   3.146   4.438   2.649 -0.4401  0.3479  0.3718
  717SOL    HW1 3007   3.079   4.373   2.671  0.8035 -0.7638  1.0031
  717SOL    HW2 3008   3.172   4.475   2.733  1.0518 -0.6022  0.3705
  718SOL     OW 3009   4.496   1.642   5.636 -0.2221 -0.0406  0.3334
  718SOL    HW1 3010   4.565   1.704   5.662  0.3478 -0.8549  0.8287
  718SOL    HW2 3011   4.442   1.690   5.574  1.4917  0.2605 -0.9904
  719SOL     OW 3012   6.455   5.401   7.894 -0.0851  0.3552  0.2576
  719SOL    HW1 3013   6.362   5.402   7.916 -0.5620  2.2288 -1.4640
  719SOL    HW2 3014   6.460   5.346   7.816  0.2965  0.0268  0.5148
  720SOL     OW 3015   0.557   4.831   7.848  0.2575 -0.1900 -0.4589
  720SOL    HW1 3016   0.563   4.897   7.780 -1.1734  1.2164  0.7060
  720SOL    HW2 3017   0.502   4.762   7.810 -2.1334  1.4447 -0.1623
  721SOL     OW 3018   1.937   2.759   4.619 -0.0603 -0.1914  0.2584
  721SOL    HW1 3019   1.868   2.822   4.639 -1.3879 -1.0783 -1.3518
  721SOL    HW2 3020   1.995   2.806   4.559  0.2331  0.2256  0.8505
  722SOL     OW 3021   2.578   3.775   0.416  0.1772  0.1350 -0.1885
  722SOL    HW1 3022   2.661   3.732   0.392 -0.1841 -1.7101  1.6064
  722SOL    HW2 3023   2.594   3.812   0.503 -0.1401  2.0547 -0.8985
  723SOL     OW 3024   3.028   6.985   3.929  0.1272  0.0753  0.4486
  723SOL    HW1 3025   3.122   7.000   3.914 -0.1335  0.4942 -0.9229
  723SOL    HW2 3026   2.991   7.073   3.935 -0.3525 -0.0669 -0.2823
  724SOL     OW 3027   2.416   3.566   5.613  0.2580 -0.1994 -0.1204
  724SOL    HW1 3028   2.442   3.657   5.598 -0.4607  0.3438  1.6297
  724SOL    HW2 3029   2.492   3.528   5.658  0.7552 -0.6321 -1.2898
  725SOL     OW 3030   6.591   1.449   4.601  0.9048  0.6002 -0.1065
  725SOL    HW1 3031   6.545   1.426   4.520 -1.8173  2.0501  0.9119
  725SOL    HW2 3032   6.596   1.368   4.650  0.3774  0.1992 -0.7047
  726SOL     OW 3033   4.331   3.391   1.798  0.4882 -0.0391 -0.2842
  726SOL    HW1 3034   4.394   3.397   1.726  0.6734  0.6905 -0.0671
  726SOL    HW2 3035   4.341   3.473   1.846  0.4361 -0.5649  0.6370
  727SOL     OW 3036   0.669   0.847   6.360 -0.2069  0.1787 -0.0114
  727SOL    HW1 3037   0.694   0.808   6.276 -0.9006  0.5061 -0.3788
  727SOL    HW2 3038   0.582   0.813   6.378  0.5938 -1.2233  1.4286
  728SOL     OW 3039   5.486   6.058   7.996 -0.0421 -0.7716  1.1346
  728SOL    HW1 3040   5.470   5.965   7.980  2.1633 -0.9312 -0.7712
  728SOL    HW2 3041   5.493   6.065   8.091 -0.5309 -2.5011  1.3368
  729SOL     OW 3042   3.770   6.461   2.181 -0.2552  0.1288 -0.0836
  729SOL    HW1 3043   3.817   6.379   2.172  0.2627  0.1809  1.8124
  729SOL    HW2 3044   3.836   6.529   2.167 -0.4815  0.2308 -0.6950
  730SOL     OW 3045   2.156   0.103   2.355 -0.3566 -0.2869 -0.2376
  730SOL    HW1 3046   2.121   0.133   2.439  0.9799 -1.0966  0.6472
  730SOL    HW2 3047   2.078   0.089   2.300 -1.2887 -0.2606  1.0379
  731SOL     OW 3048   4.603   5.570   3.996 -0.3111 -0.7521 -0.3504
  731SOL    HW1 3049   4.509   5.588   3.999 -0.5194 -1.7810 -0.2997
  731SOL    HW2 3050   4.616   5.528   3.911  0.6038  1.8935 -1.6367
  732SOL     OW 3051   0.792   0.531   3.425 -0.1252  0.1585  0.0568
  732SOL    HW1 3052   0.855   0.582   3.475 -0.0209  0.0509  0.0362
  732SOL    HW2 3053   0.837   0.449   3.406 -0.6788 -0.4054  1.0643
  733SOL     OW 3054   4.384   1.440   1.122 -0.1860  0.0390 -0.1306
  733SOL    HW1 3055   4.479   1.444   1.111 -0.2489 -0.8158 -1.0756
  733SOL    HW2 3056   4.365   1.347   1.134 -0.9213  0.1919 -0.0709
  734SOL     OW 3057   4.215   6.817   0.058  0.1082  0.9483  0.0824
  734SOL    HW1 3058   4.306   6.847   0.052  0.7208  0.3969  3.8925
  734SOL    HW2 3059   4.223   6.723   0.075 -1.0779  1.0052  1.1140
  735SOL     OW 3060   7.848   0.687   3.140 -0.5507  0.2105  0.5813
  735SOL    HW1 3061   7.882   0.646   3.219 -0.5045  2.3998  1.7734
  735SOL    HW2 3062   7.903   0.764   3.126  0.1056 -0.6234 -2.2387
  736SOL     OW 3063   2.996   3.844   0.522 -0.2943 -0.5464 -0.1875
  736SOL    HW1 3064   3.050   3.798   0.587 -0.4278 -1.7390 -0.8875
  736SOL    HW2 3065   3.033   3.932   0.519  0.9694 -1.0422  0.0838
  737SOL     OW 3066   7.625   6.419   2.003  0.7500  0.0097  0.1452
  737SOL    HW1 3067   7.637   6.352   2.070  1.8578  0.1175  0.0704
  737SOL    HW2 3068   7.705   6.415   1.950  0.7849  1.3150  0.0684
  738SOL     OW 3069   7.566   2.736   1.028  0.1310  0.0389  0.6826
  738SOL    HW1 3070   7.523   2.784   1.099 -0.6367  0.0752  0.2090
  738SOL    HW2 3071   7.505   2.665   1.006 -0.6177  1.2044 -1.2807
  739SOL     OW 3072   5.567   4.063   6.429  0.1504 -0.2548  0.4383
  739SOL    HW1 3073   5.522   4.123   6.370 -1.4592 -0.1436  1.7107
  739SOL    HW2 3074   5.513   4.061   6.508  1.4076 -1.5821  1.3297
  740SOL     OW 3075   1.608   1.210   1.768  0.8544  0.2274  0.2813
  740SOL    HW1 3076   1.667   1.250   1.831 -0.8023  0.5987  1.6538
  740SOL    HW2 3077   1.666   1.173   1.701  2.5516  3.3045 -0.1456
  741SOL     OW 3078   2.088   0.901   2.430  0.1188  0.3985  0.4796
  741SOL    HW1 3079   2.047   0.835   2.485 -0.8510  1.1922  0.7453
  741SOL    HW2 3080   2.022   0.921   2.364  0.2708  1.3197  0.5939
  742SOL     OW 3081   3.082   5.410   4.765 -0.2997  0.1488 -0.1661
  742SOL    HW1 3082   3.059   5.329   4.810 -1.7300  0.4421 -0.3456
  742SOL    HW2 3083   3.121   5.465   4.833 -1.7795  0.3159  0.5872
  743SOL     OW 3084   7.952   4.254   6.317 -0.1385 -0.8623 -0.0238
  743SOL    HW1 3085   7.858   4.273   6.325  0.2864  2.1598 -1.1629
  743SOL    HW2 3086   7.967   4.246   6.223  1.2400  2.0661 -0.1420
  744SOL     OW 3087   4.456   3.898   4.267  0.5959  0.4159 -0.6843
  744SOL    HW1 3088   4.417   3.967   4.321 -1.7691 -1.0438 -0.3916
  744SOL    HW2 3089   4.501   3.841   4.329 -0.2298 -0.0373 -0.4781
  745SOL     OW 3090   7.366   0.748   2.327  0.3192  0.2175 -0.3631
  745SOL    HW1 3091   7.345   0.770   2.236  0.0516 -1.7894 -0.8432
  745SOL    HW2 3092   7.282   0.747   2.371  0.1177 -1.3661 -0.7363
  746SOL     OW 3093   8.003   5.850   2.662  0.1152 -0.4555  0.8175
  746SOL    HW1 3094   7.973   5.930   2.705 -0.0733 -1.2113  2.1513
  746SOL    HW2 3095   7.977   5.779   2.721 -0.1919 -1.5605 -0.5744
  747SOL     OW 3096   2.918   3.307   5.338 -0.0011 -0.2456  0.2411
  747SOL    HW1 3097   2.981   3.370   5.374  0.5856 -0.0438 -1.0787
  747SOL    HW2 3098   2.834   3.334   5.373  0.6196 -0.4937  2.0265
  748SOL     OW 3099   4.773   1.900   0.847 -0.0368  0.1585 -0.1449
  748SOL    HW1 3100   4.799   1.931   0.933  1.5057  1.2711 -0.9635
  748SOL    HW2 3101   4.682   1.873   0.857  0.3105 -0.3820  1.9739
  749SOL     OW 3102   5.986   3.453   5.214  0.1039 -0.3415 -0.0799
  749SOL    HW1 3103   5.967   3.405   5.295  0.8193 -0.1702  0.2037
  749SOL    HW2 3104   6.049   3.520   5.241  0.0278 -0.0123 -0.7025
  750SOL     OW 3105   6.321   6.274   3.335  0.2221 -0.4024 -0.1984
  750SOL    HW1 3106   6.340   6.348   3.278 -0.6862  0.7204  0.8782
  750SOL    HW2 3107   6.231   6.250   3.315 -0.4811  0.6911  1.4110
  751SOL     OW 3108   4.510   0.491   6.524 -0.3403  0.2809  0.0763
  751SOL    HW1 3109   4.432   0.449   6.560 -2.4904  3.2053 -0.7623
  751SOL    HW2 3110   4.512   0.463   6.432 -0.4179  0.2103  0.0954
  752SOL     OW 3111   1.010   1.803   4.506 -0.2084  0.1179 -0.1549
  752SOL    HW1 3112   1.104   1.789   4.496 -0.3013  0.4367 -1.6891
  752SOL    HW2 3113   0.996   1.803   4.601  1.4165  0.6446  0.1225
  753SOL     OW 3114   6.980   6.824   0.920  0.5966 -0.5624  0.0423
  753SOL    HW1 3115   7.047   6.850   0.857  0.3131 -1.4763 -0.6627
  753SOL    HW2 3116   7.004   6.735   0.946  0.7126 -0.1914  1.2421
  754SOL     OW 3117   2.573   3.721   7.936  0.0085  0.1852 -0.4592
  754SOL    HW1 3118   2.541   3.745   8.023  1.6411  2.3187 -0.3514
  754SOL    HW2 3119   2.649   3.666   7.954  0.8800  1.3392 -0.4371
  755SOL     OW 3120   1.856   3.966   6.242  0.4801 -0.3198  0.5231
  755SOL    HW1 3121   1.946   3.942   6.220  0.2275 -0.2920 -0.5696
  755SOL    HW2 3122   1.803   3.895   6.207 -0.2759  1.6098 -2.5815
  756SOL     OW 3123   4.149   5.189   0.815 -0.4288  0.3872  0.2358
  756SOL    HW1 3124   4.160   5.155   0.904 -0.6091 -0.2189  0.0374
  756SOL    HW2 3125   4.209   5.263   0.809  0.3951 -0.2383  0.5119
  757SOL     OW 3126   3.495   5.810   6.057 -0.2749 -0.1199  0.0194
  757SOL    HW1 3127   3.465   5.765   5.977 -1.8959 -1.4770  1.3145
  757SOL    HW2 3128   3.554   5.878   6.025 -0.2592 -1.1116 -2.2860
  758SOL     OW 3129   4.485   7.475   0.274 -0.1411 -0.1281  0.0317
  758SOL    HW1 3130   4.537   7.531   0.332  0.3099 -1.5207  1.0396
  758SOL    HW2 3131   4.551   7.421   0.229 -0.5778 -0.0895 -0.6601
  759SOL     OW 3132   1.632   3.445   1.170  0.5992 -0.4270 -0.2438
  759SOL    HW1 3133   1.564   3.411   1.113 -0.9576  0.1828  1.1809
  759SOL    HW2 3134   1.659   3.528   1.130  0.2084 -0.4729 -0.5959
  760SOL     OW 3135   5.650   6.672   1.460 -0.2007 -0.2139 -0.2690
  760SOL    HW1 3136   5.735   6.634   1.439 -0.0634  0.2052 -0.4876
  760SOL    HW2 3137   5.664   6.717   1.544 -0.1173  0.1183 -0.4561
  761SOL     OW 3138   7.623   5.113   5.191 -0.1315  0.3385  0.2119
  761SOL    HW1 3139   7.696   5.064   5.229 -0.7050 -1.1915 -0.5598
  761SOL    HW2 3140   7.656   5.143   5.106 -0.4501 -0.5395 -0.2322
  762SOL     OW 3141   0.602   4.415   3.313 -0.3291 -0.2397  0.4099
  762SOL    HW1 3142   0.548   4.353   3.265 -3.9298  1.9953  1.1904
  762SOL    HW2 3143   0.583   4.399   3.405  2.2144 -0.8419  0.9171
  763SOL     OW 3144   7.263   2.579   1.266  0.1645  0.1711 -0.0995
  763SOL    HW1 3145   7.205   2.653   1.248  1.4299  1.1748 -0.2108
  763SOL    HW2 3146   7.301   2.599   1.352  2.7231  1.2038 -1.3692
  764SOL     OW 3147   2.469   4.625   0.324  0.2925  0.2920 -0.1483
  764SOL    HW1 3148   2.413   4.600   0.250 -2.3613 -0.5927  1.9823
  764SOL    HW2 3149   2.446   4.716   0.341  0.6026  0.3743 -0.1666
  765SOL     OW 3150   1.006   3.443   6.986 -0.6193  0.1495 -0.2512
  765SOL    HW1 3151   0.910   3.450   6.984 -0.5919  1.4137  1.0261
  765SOL    HW2 3152   1.024   3.395   7.067 -0.1579  0.6164 -0.0728
  766SOL     OW 3153   6.461   0.652   5.817 -0.5730 -0.1366 -0.0989
  766SOL    HW1 3154   6.400   0.617   5.752  0.2433 -1.0069 -0.4289
  766SOL    HW2 3155   6.430   0.740   5.834 -3.0272 -1.1588  1.1646
  767SOL     OW 3156   7.134   7.850   1.505  0.0881 -0.0099  0.7049
  767SOL    HW1 3157   7.204   7.852   1.570  0.4550 -0.9671  0.3548
  767SOL    HW2 3158   7.154   7.922   1.445  0.1402  0.4271  1.2440
  768SOL     OW 3159   6.504   5.859   2.623 -0.1862 -0.1325 -0.1200
  768SOL    HW1 3160   6.452   5.936   2.600 -0.9111 -0.6043 -0.0753
  768SOL    HW2 3161   6.475   5.836   2.711  0.6154  0.0246  0.1932
  769SOL     OW 3162   5.403   6.311   6.989 -0.3532  0.3941  0.7785
  769SOL    HW1 3163   5.464   6.259   6.937  0.9024  2.6643 -0.1633
  769SOL    HW2 3164   5.332   6.250   7.011  1.9291 -2.2316  1.4680
  770SOL     OW 3165   3.743   7.169   2.990 -0.1806 -0.0595 -0.6583
  770SOL    HW1 3166   3.679   7.102   2.969 -0.1874 -0.4724  0.6003
  770SOL    HW2 3167   3.824   7.120   3.005 -0.0968  0.2481 -0.1043
  771SOL     OW 3168   0.043   7.592   5.887 -0.0775  0.3256  0.3304
  771SOL    HW1 3169   0.053   7.658   5.956  2.4268 -0.2147  0.5595
  771SOL    HW2 3170   0.018   7.642   5.809 -2.8894  0.9491  1.5167
  772SOL     OW 3171   6.925   6.562   6.798  0.4053 -0.0363  0.2646
  772SOL    HW1 3172   6.951   6.561   6.890 -0.5737 -0.1536  0.5505
  772SOL    HW2 3173   6.990   6.507   6.754  1.0148  0.2036  0.8411
  773SOL     OW 3174   6.209   4.641   2.575  0.3787 -0.8504  0.4971
  773SOL    HW1 3175   6.118   4.623   2.598  0.1906  0.2660  0.7032
  773SOL    HW2 3176   6.214   4.737   2.572  1.2783 -0.9166 -0.5945
  774SOL     OW 3177   0.620   1.481   1.068 -0.1199 -0.2421 -0.4624
  774SOL    HW1 3178   0.642   1.521   0.984  0.7600  2.3508  0.9178
  774SOL    HW2 3179   0.539   1.524   1.094 -1.0922 -1.9627 -0.5235
  775SOL     OW 3180   4.910   1.578   1.734  0.4804 -0.7227  0.2801
  775SOL    HW1 3181   4.908   1.566   1.639 -0.0874 -1.3099  0.3556
  775SOL    HW2 3182   4.839   1.640   1.751  2.0896  1.2781  0.1029
  776SOL     OW 3183   7.237   2.478   0.709  0.0837 -0.3093 -0.6139
  776SOL    HW1 3184   7.249   2.426   0.788  1.9909 -1.5158 -1.6227
  776SOL    HW2 3185   7.224   2.413   0.639 -1.3871  0.7119 -1.3590
  777SOL     OW 3186   7.275   3.862   5.437  0.4554 -0.2343  0.3990
  777SOL    HW1 3187   7.205   3.915   5.476  0.6407 -0.1520  0.6221
  777SOL    HW2 3188   7.312   3.814   5.511  0.8835  0.0070  0.3410
  778SOL     OW 3189   2.352   3.475   5.952  0.0632 -0.2935 -0.1953
  778SOL    HW1 3190   2.328   3.384   5.971  0.7872 -0.6034 -0.7078
  778SOL    HW2 3191   2.388   3.472   5.863  0.6084  0.3859 -0.0056
  779SOL     OW 3192   2.157   7.842   5.182 -0.0813  0.2948  0.0105
  779SOL    HW1 3193   2.139   7.772   5.120  1.6857 -0.0894 -0.1072
  779SOL    HW2 3194   2.104   7.916   5.151 -1.6452 -0.8262 -0.0992
  780SOL     OW 3195   4.452   4.727   1.673 -0.2575  0.5603 -0.0969
  780SOL    HW1 3196   4.383   4.766   1.727 -0.4387  1.1295 -0.7346
  780SOL    HW2 3197   4.513   4.798   1.656  0.0855  0.2465 -0.1912
  781SOL     OW 3198   0.398   6.612   0.642  0.4081  0.1944 -0.1301
  781SOL    HW1 3199   0.399   6.707   0.648 -1.0460  0.1635  1.4337
  781SOL    HW2 3200   0.305   6.589   0.645  0.7616 -1.2998  0.2440
  782SOL     OW 3201   0.152   3.380   3.892 -0.3025 -0.2973 -0.2284
  782SOL    HW1 3202   0.180   3.452   3.835 -1.2811 -1.3014 -2.0592
  782SOL    HW2 3203   0.232   3.329   3.906  0.1205  0.4099  0.0201
  783SOL     OW 3204   7.393   2.174   7.595  0.0314 -0.0923  0.1542
  783SOL    HW1 3205   7.455   2.242   7.620 -0.7550  0.3174  1.0530
  783SOL    HW2 3206   7.315   2.221   7.566 -0.0855 -0.6086 -0.3977
  784SOL     OW 3207   2.343   6.479   5.466 -0.0848 -0.7391 -0.0975
  784SOL    HW1 3208   2.414   6.427   5.430 -0.4089 -1.1345 -0.1595
  784SOL    HW2 3209   2.347   6.561   5.417  0.5078 -0.6438  0.0925
  785SOL     OW 3210   0.277   7.736   3.003  0.5137 -0.1166  0.1451
  785SOL    HW1 3211   0.264   7.644   3.028  0.4347 -0.6399 -1.6841
  785SOL    HW2 3212   0.192   7.777   3.018 -0.1375 -0.9123 -1.1819
  786SOL     OW 3213   1.410   6.119   6.284  0.2409  0.5660  0.0928
  786SOL    HW1 3214   1.489   6.070   6.260 -0.8574 -0.3450 -1.8900
  786SOL    HW2 3215   1.353   6.054   6.325  0.5075  1.2363  1.5864
  787SOL     OW 3216   7.061   4.081   2.885  0.5161 -0.0631  0.0209
  787SOL    HW1 3217   7.061   4.138   2.962 -0.8156  0.7119 -0.5189
  787SOL    HW2 3218   7.020   4.134   2.816 -0.2927 -1.4766 -0.6316
  788SOL     OW 3219   3.719   2.984   0.099  0.2089  0.3704 -0.5225
  788SOL    HW1 3220   3.797   3.006   0.048  0.6299 -1.0823 -0.5522
  788SOL    HW2 3221   3.667   2.930   0.040 -0.5512  0.8358 -0.2919
  789SOL     OW 3222   6.783   0.714   5.471 -0.2516  0.1795  0.7440
  789SOL    HW1 3223   6.757   0.772   5.542  0.4356 -1.4634  2.4349
  789SOL    HW2 3224   6.706   0.660   5.454  0.6133 -1.9683  2.9678
  790SOL     OW 3225   3.765   5.625   0.350  0.3578  0.0286  0.4110
  790SOL    HW1 3226   3.849   5.608   0.394 -0.0965 -0.6544  1.0269
  790SOL    HW2 3227   3.775   5.713   0.315  1.6852 -0.3810 -0.3332
  791SOL     OW 3228   2.748   5.445   7.904  0.4757  0.0988 -0.3988
  791SOL    HW1 3229   2.691   5.368   7.901 -1.5905  1.5533 -0.7225
  791SOL    HW2 3230   2.750   5.477   7.814  0.3815  1.0280 -0.0857
  792SOL     OW 3231   3.772   6.901   3.125  0.3793  0.7863  0.1781
  792SOL    HW1 3232   3.842   6.952   3.086  1.3733 -0.9163 -0.3952
  792SOL    HW2 3233   3.786   6.812   3.091  0.7512 -0.6346  3.6281
  793SOL     OW 3234   7.843   1.881   3.656 -0.4419  0.3549  0.0147
  793SOL    HW1 3235   7.795   1.838   3.726  0.1907  0.2413  0.3876
  793SOL    HW2 3236   7.869   1.966   3.691 -1.5813  1.0144 -0.6807
  794SOL     OW 3237   2.664   5.250   5.220  0.1499 -0.0522  0.1592
  794SOL    HW1 3238   2.703   5.335   5.240  2.0793 -0.8962  0.2216
  794SOL    HW2 3239   2.683   5.237   5.127 -0.1133 -0.4037  0.1532
  795SOL     OW 3240   1.138   5.404   7.989 -0.2843 -0.1762 -0.1212
  795SOL    HW1 3241   1.175   5.364   8.068  0.8346 -2.6993 -1.8002
  795SOL    HW2 3242   1.073   5.341   7.958  0.6457 -0.1799 -2.2074
  796SOL     OW 3243   6.666   5.680   6.292  0.1388 -0.0215  0.5075
  796SOL    HW1 3244   6.580   5.714   6.269 -0.7192 -1.6222  1.1213
  796SOL    HW2 3245   6.676   5.601   6.238  0.8221 -0.3532  1.0965
  797SOL     OW 3246   2.044   2.968   7.134  0.4738  0.2308  0.0019
  797SOL    HW1 3247   2.129   2.955   7.176  0.6329 -1.2583 -0.6942
  797SOL    HW2 3248   2.040   3.062   7.115  1.3455  0.5465  1.3026
  798SOL     OW 3249   6.586   1.111   7.319 -0.0914 -0.5547 -0.2145
  798SOL    HW1 3250   6.582   1.119   7.414 -0.7150  0.0112 -0.2880
  798SOL    HW2 3251   6.588   1.016   7.303 -0.7202 -0.6605  0.3290
  799SOL     OW 3252   5.037   6.172   7.137  0.4195  0.0197 -0.0515
  799SOL    HW1 3253   4.974   6.167   7.065 -1.0016 -1.8815  1.2089
  799SOL    HW2 3254   5.117   6.131   7.102  0.7163  1.6195 -1.3740
  800SOL     OW 3255   5.820   4.085   5.154 -0.2968  0.1190 -0.3749
  800SOL    HW1 3256   5.808   4.041   5.237 -1.9197 -1.5722 -1.4301
  800SOL    HW2 3257   5.894   4.040   5.113  0.7609  1.2121  0.2664
  801SOL     OW 3258   2.028   5.029   0.747 -0.2238 -0.1881 -0.3589
  801SOL    HW1 3259   2.068   5.111   0.719 -0.7730 -0.1698 -1.1188
  801SOL    HW2 3260   1.982   5.051   0.828 -1.0320  0.4516 -0.9777
  802SOL     OW 3261   1.313   7.826   7.074 -0.3528  0.1147  0.8469
  802SOL    HW1 3262   1.266   7.852   6.995  1.8118  0.9233 -0.2534
  802SOL    HW2 3263   1.368   7.901   7.095  0.2574 -0.6827  2.2432
  803SOL     OW 3264   3.907   0.909   7.311  0.5785  0.4899 -0.3184
  803SOL    HW1 3265   3.841   0.946   7.254 -0.1856  1.3168  1.0419
  803SOL    HW2 3266   3.991   0.929   7.269  0.0083 -0.4354 -1.9816
  804SOL     OW 3267   5.246   7.949   3.210 -0.0887  0.4483  0.1427
  804SOL    HW1 3268   5.185   7.968   3.281 -0.3813 -1.0073  0.3106
  804SOL    HW2 3269   5.246   7.853   3.203 -0.3845  0.5471 -2.0922
  805SOL     OW 3270   7.844   3.382   7.542 -0.4433  0.1040 -0.0036
  805SOL    HW1 3271   7.776   3.438   7.505 -0.9722 -1.0267 -0.7735
  805SOL    HW2 3272   7.842   3.302   7.489  0.2191 -0.7042  1.1446
  806SOL     OW 3273   0.958   3.528   4.842 -0.3077  0.1283  0.1364
  806SOL    HW1 3274   0.866   3.513   4.821 -0.0998 -0.1472 -0.6248
  806SOL    HW2 3275   0.961   3.616   4.879 -0.6219  0.9224 -1.6445
  807SOL     OW 3276   0.282   7.317   7.216  0.8609  0.1811  0.0174
  807SOL    HW1 3277   0.317   7.353   7.297  0.2785 -0.4865  0.5696
  807SOL    HW2 3278   0.207   7.373   7.196 -0.3721 -1.0055  1.1638
  808SOL     OW 3279   5.521   0.464   0.653 -0.2468 -0.1645  0.4005
  808SOL    HW1 3280   5.559   0.462   0.740  1.1240  1.2128 -0.1087
  808SOL    HW2 3281   5.446   0.523   0.660  0.5011  0.8064  0.4488
  809SOL     OW 3282   6.686   2.692   5.298 -0.4870 -0.3868  0.1988
  809SOL    HW1 3283   6.730   2.722   5.377 -1.8295  0.1053  0.7868
  809SOL    HW2 3284   6.626   2.763   5.275 -1.1508 -1.1198 -0.4299
  810SOL     OW 3285   3.771   2.974   4.439 -0.0065 -0.3502  0.2237
  810SOL    HW1 3286   3.708   3.033   4.481  0.4825 -0.4231  1.0758
  810SOL    HW2 3287   3.849   2.979   4.493  0.6453 -0.4640 -0.6788
  811SOL     OW 3288   1.694   0.922   1.650  0.5862 -0.2879 -0.4547
  811SOL    HW1 3289   1.759   0.855   1.630  1.1166  0.3052 -0.7524
  811SOL    HW2 3290   1.736   1.004   1.623  1.1656  0.5324  2.5704
  812SOL     OW 3291   0.103   1.794   3.573  0.1382  0.1215 -0.4454
  812SOL    HW1 3292   0.015   1.812   3.538  0.5046  0.6398 -1.1237
  812SOL    HW2 3293   0.132   1.716   3.525  0.4987  0.6247 -1.0653
  813SOL     OW 3294   0.060   0.027   2.690  0.3834  0.0875  0.0053
  813SOL    HW1 3295  -0.029   0.029   2.653 -0.0842  2.0200  1.1106
  813SOL    HW2 3296   0.058  -0.044   2.754 -0.6789  0.7286  0.7126
  814SOL     OW 3297   3.576   5.181   2.563  0.6914 -0.6205  0.2652
  814SOL    HW1 3298   3.646   5.142   2.615  1.0737  0.2050  0.3821
  814SOL    HW2 3299   3.570   5.271   2.594 -0.3722 -0.6475  0.1990
  815SOL     OW 3300   0.127   2.231   1.950  0.3305 -0.2636  0.0836
  815SOL    HW1 3301   0.205   2.190   1.988 -0.2507 -1.6229 -0.1380
  815SOL    HW2 3302   0.111   2.308   2.004  1.2695 -0.5055  0.7242
  816SOL     OW 3303   0.464   7.024   4.730 -0.4955 -0.7461  0.1778
  816SOL    HW1 3304   0.489   7.089   4.796 -0.7113 -0.5112  0.0291
  816SOL    HW2 3305   0.541   7.016   4.674 -1.6801  2.3122 -2.1929
  817SOL     OW 3306   5.608   3.193   6.606 -0.4432  0.0455 -0.0683
  817SOL    HW1 3307   5.513   3.195   6.613 -0.4241  2.1850  0.2810
  817SOL    HW2 3308   5.626   3.191   6.512 -0.7990 -1.0611 -0.1288
  818SOL     OW 3309   2.916   3.749   4.646 -0.3454 -0.2686 -0.1389
  818SOL    HW1 3310   2.947   3.726   4.559  1.4440  0.1168  0.3679
  818SOL    HW2 3311   2.929   3.844   4.652  0.3095 -0.4023  0.8236
  819SOL     OW 3312   6.710   3.776   5.240 -0.1701 -0.0675  0.1810
  819SOL    HW1 3313   6.709   3.860   5.194 -1.4675 -0.2786 -0.2155
  819SOL    HW2 3314   6.798   3.743   5.227 -0.2651  0.2418 -1.5149
  820SOL     OW 3315   5.847   7.562   1.699  0.2435 -0.4435  0.0681
  820SOL    HW1 3316   5.786   7.510   1.752 -0.2620 -0.5252 -0.5811
  820SOL    HW2 3317   5.801   7.575   1.616  1.0420 -0.3487 -0.3652
  821SOL     OW 3318   4.445   2.712   7.308  0.1232 -0.5170 -0.7915
  821SOL    HW1 3319   4.425   2.621   7.284  1.3507 -0.9988 -0.0603
  821SOL    HW2 3320   4.360   2.751   7.325 -0.3636 -1.8970  0.1264
  822SOL     OW 3321   5.919   0.601   7.398 -0.3552  0.7015 -0.6776
  822SOL    HW1 3322   5.955   0.617   7.486 -0.4321 -3.5888  0.3489
  822SOL    HW2 3323   5.996   0.595   7.342 -0.0155 -0.2695 -0.1245
  823SOL     OW 3324   1.111   0.835   1.911  0.0326 -0.5944 -0.2686
  823SOL    HW1 3325   1.175   0.896   1.948 -0.7269  0.5081 -0.6866
  823SOL    HW2 3326   1.026   0.870   1.940 -0.4585 -1.0152 -1.1672
  824SOL     OW 3327   5.676   1.549   6.956  0.0887 -0.0921  0.0850
  824SOL    HW1 3328   5.711   1.461   6.946 -0.1575 -0.2365  0.4681
  824SOL    HW2 3329   5.636   1.569   6.871 -1.7645 -1.1969  0.6494
  825SOL     OW 3330   0.946   0.884   0.112 -0.2744 -0.3285 -0.3690
  825SOL    HW1 3331   0.885   0.860   0.042  0.9960 -1.6933 -1.0864
  825SOL    HW2 3332   0.902   0.857   0.193 -1.2051  0.0276 -0.7433
  826SOL     OW 3333   2.470   1.350   2.918 -0.0874 -0.3985 -0.5534
  826SOL    HW1 3334   2.398   1.288   2.931  0.5355 -1.3127 -1.3320
  826SOL    HW2 3335   2.442   1.404   2.844  0.6127 -1.7174 -1.8424
  827SOL     OW 3336   1.578   0.143   6.162 -0.3692  0.3987  0.0585
  827SOL    HW1 3337   1.603   0.185   6.245 -0.4751  0.5948 -0.0066
  827SOL    HW2 3338   1.484   0.127   6.171 -0.1595 -0.6828  0.4558
  828SOL     OW 3339   3.113   5.496   1.830 -0.4423 -0.2650  0.0591
  828SOL    HW1 3340   3.134   5.488   1.737  0.7549 -1.9709  0.4487
  828SOL    HW2 3341   3.192   5.533   1.870 -0.0669 -1.7555  0.7413
  829SOL     OW 3342   5.435   4.279   2.420  0.1087  0.4850  0.3060
  829SOL    HW1 3343   5.427   4.186   2.396  0.3544  0.4497  0.3588
  829SOL    HW2 3344   5.506   4.281   2.484 -0.3040  0.6287  0.7613
  830SOL     OW 3345   5.747   5.817   0.238  0.0404  0.3426  0.2032
  830SOL    HW1 3346   5.773   5.868   0.162  1.8166  0.4537  0.8413
  830SOL    HW2 3347   5.700   5.879   0.294  1.0749  0.9617  0.3985
  831SOL     OW 3348   6.818   4.988   2.000  0.2443 -0.3002 -0.2213
  831SOL    HW1 3349   6.756   5.038   2.055  1.1205 -1.6711  2.1785
  831SOL    HW2 3350   6.859   5.054   1.945 -0.1068  1.3562  1.3718
  832SOL     OW 3351   6.580   0.909   6.758  0.4533  0.3040  0.0719
  832SOL    HW1 3352   6.521   0.933   6.830 -0.7556  2.5155 -1.5292
  832SOL    HW2 3353   6.581   0.813   6.759 -2.9338  0.1445  0.4150
  833SOL     OW 3354   1.211   6.005   5.663 -0.2714  0.0136 -0.1572
  833SOL    HW1 3355   1.222   6.062   5.588 -2.2808  1.2910  0.4366
  833SOL    HW2 3356   1.147   6.050   5.719 -0.4422 -1.8781  1.2982
  834SOL     OW 3357   1.814   3.984   3.371 -0.1317  0.2746 -0.8627
  834SOL    HW1 3358   1.789   3.893   3.386  1.3501  0.1553  1.5471
  834SOL    HW2 3359   1.867   3.982   3.292  4.6257 -2.1620  1.9243
  835SOL     OW 3360   3.934   2.804   1.356 -0.4009  0.1259  0.1194
  835SOL    HW1 3361   3.945   2.898   1.342  2.0081 -0.1099 -0.1111
  835SOL    HW2 3362   3.921   2.794   1.450 -0.0319  0.6554  0.2291
  836SOL     OW 3363   5.864   1.801   5.602 -0.0931 -0.2311 -0.2007
  836SOL    HW1 3364   5.870   1.860   5.527  0.9012  1.8226  1.3699
  836SOL    HW2 3365   5.906   1.849   5.673  1.0162 -2.9995  1.1583
  837SOL     OW 3366   6.402   0.342   5.659  0.1380 -0.1995 -0.6635
  837SOL    HW1 3367   6.393   0.436   5.644 -0.9265 -0.2967 -0.7160
  837SOL    HW2 3368   6.312   0.308   5.653  0.3892 -1.0782  0.2493
  838SOL     OW 3369   4.583   7.956   0.468  0.3637 -0.5147  0.5465
  838SOL    HW1 3370   4.596   8.050   0.457 -2.0388 -0.3518 -2.0117
  838SOL    HW2 3371   4.540   7.948   0.554 -0.5615  0.8936  0.2539
  839SOL     OW 3372   6.448   5.352   6.040  0.5011  0.3881 -0.1378
  839SOL    HW1 3373   6.435   5.406   5.962 -1.2272  0.6817  0.3190
  839SOL    HW2 3374   6.364   5.309   6.054  1.2804 -0.9462  0.6254
  840SOL     OW 3375   1.932   2.958   4.955 -0.1049  0.1328  0.2974
  840SOL    HW1 3376   1.846   2.987   4.925 -0.5135 -1.2621  0.0668
  840SOL    HW2 3377   1.916   2.877   5.002  0.6721  1.6220  3.3936
  841SOL     OW 3378   3.956   5.553   1.653 -0.0084 -0.0926 -0.0864
  841SOL    HW1 3379   3.883   5.513   1.606  0.3927 -0.0054 -0.7825
  841SOL    HW2 3380   3.919   5.634   1.690 -0.4359 -0.3834  0.1275
  842SOL     OW 3381   6.241   2.776   6.246 -0.3455  0.6469 -0.0664
  842SOL    HW1 3382   6.272   2.760   6.156  1.5468 -0.2961  0.6997
  842SOL    HW2 3383   6.320   2.796   6.295 -1.4717  2.1458  1.2348
  843SOL     OW 3384   2.818   7.307   4.013  0.1248 -1.2043 -0.2596
  843SOL    HW1 3385   2.849   7.303   3.923 -0.3688  0.4751 -0.5362
  843SOL    HW2 3386   2.723   7.293   4.006 -0.1601  0.5618 -0.2094
  844SOL     OW 3387   6.416   0.948   5.020  0.0714  0.5950  0.3211
  844SOL    HW1 3388   6.360   1.022   4.995  0.9546  1.1715  0.0206
  844SOL    HW2 3389   6.417   0.892   4.942  0.1816  0.7454  0.2147
  845SOL     OW 3390   2.043   0.283   7.696 -0.4788 -0.3087 -0.2700
  845SOL    HW1 3391   1.995   0.300   7.615 -0.0997 -0.2358 -0.4842
  845SOL    HW2 3392   2.126   0.331   7.684  0.4432 -1.9411 -0.6944
  846SOL     OW 3393   3.153   2.560   5.199 -0.0286 -0.0894 -0.6024
  846SOL    HW1 3394   3.126   2.557   5.108 -0.0554 -0.2207 -0.5904
  846SOL    HW2 3395   3.081   2.520   5.247  1.0364 -2.3644 -0.7707
  847SOL     OW 3396   5.846   1.294   3.155 -0.1793  0.4510  0.3716
  847SOL    HW1 3397   5.806   1.231   3.215  0.8949 -1.6257 -0.9635
  847SOL    HW2 3398   5.857   1.245   3.073  3.7615  1.2554  0.2391
  848SOL     OW 3399   0.235   0.559   4.387 -0.0654  0.7998 -0.6321
  848SOL    HW1 3400   0.288   0.487   4.352 -0.2468  0.3344  0.0422
  848SOL    HW2 3401   0.245   0.629   4.322  0.9994  0.5572 -0.7462
  849SOL     OW 3402   1.264   5.224   3.472 -0.0406  0.1142  0.6055
  849SOL    HW1 3403   1.200   5.189   3.533  0.3359 -1.4803  0.1179
  849SOL    HW2 3404   1.231   5.312   3.450 -1.3672 -0.1817  1.3199
  850SOL     OW 3405   1.203   5.228   6.202  0.4341 -0.4329  0.4004
  850SOL    HW1 3406   1.112   5.226   6.172  0.7936  1.1965 -0.9653
  850SOL    HW2 3407   1.230   5.136   6.204 -0.6336 -0.8160 -1.1764
  851SOL     OW 3408   0.886   1.771   7.458 -0.5517 -0.1018  0.2080
  851SOL    HW1 3409   0.869   1.754   7.551 -2.0780 -0.3980 -0.0893
  851SOL    HW2 3410   0.833   1.705   7.413 -0.0568  0.2362 -0.8753
  852SOL     OW 3411   5.611   3.771   4.016  0.3517  0.1454  0.4612
  852SOL    HW1 3412   5.641   3.804   3.931 -1.4809  0.7306 -0.0215
  852SOL    HW2 3413   5.691   3.761   4.068  1.4281  0.6799 -1.0164
  853SOL     OW 3414   6.799   3.160   7.555 -0.2156  0.3008 -0.3709
  853SOL    HW1 3415   6.783   3.090   7.491 -0.4285 -0.5851  0.6274
  853SOL    HW2 3416   6.747   3.135   7.631 -0.2322  1.5176  0.0412
  854SOL     OW 3417   7.537   3.808   1.603 -0.3775  0.1974 -0.4905
  854SOL    HW1 3418   7.595   3.854   1.663  0.7881 -2.7464  0.8562
  854SOL    HW2 3419   7.449   3.825   1.637  0.1804 -0.4379  1.3903
  855SOL     OW 3420   0.674   2.783   3.657 -0.5340 -0.3904  0.1858
  855SOL    HW1 3421   0.752   2.759   3.708 -0.8460  0.2585  0.9944
  855SOL    HW2 3422   0.676   2.724   3.581  1.0699  0.0317 -0.1319
  856SOL     OW 3423   3.939   2.799   7.890 -0.2338 -0.0996 -0.3778
  856SOL    HW1 3424   3.933   2.754   7.973  1.8100 -0.6935 -0.4818
  856SOL    HW2 3425   3.952   2.891   7.913  0.2396 -0.2523 -0.0219
  857SOL     OW 3426   6.122   4.487   3.173 -0.1677  0.4316  0.5493
  857SOL    HW1 3427   6.173   4.429   3.116  0.2552  1.6102 -0.2867
  857SOL    HW2 3428   6.041   4.502   3.126  0.1217  1.2904  0.3208
  858SOL     OW 3429   6.826   1.805   0.913  0.1156  0.4061 -0.0613
  858SOL    HW1 3430   6.770   1.842   0.982  1.4943 -0.1242  1.4334
  858SOL    HW2 3431   6.772   1.807   0.834 -0.9062  2.7919  0.5972
  859SOL     OW 3432   2.535   5.570   4.352  0.0518  0.1468 -0.7409
  859SOL    HW1 3433   2.624   5.539   4.336  0.3566  0.3956  0.3815
  859SOL    HW2 3434   2.506   5.522   4.429 -0.7311  0.1991 -0.9911
  860SOL     OW 3435   2.985   6.131   6.557  0.0211  0.3109 -0.6896
  860SOL    HW1 3436   2.983   6.036   6.562  0.5659  0.3420  0.4808
  860SOL    HW2 3437   3.018   6.151   6.470 -0.1109 -0.5675 -0.9428
  861SOL     OW 3438   2.647   7.723   6.906 -0.0425  0.1051  0.0949
  861SOL    HW1 3439   2.700   7.787   6.859 -0.8095  2.2098  1.8867
  861SOL    HW2 3440   2.710   7.668   6.952  0.6384 -0.0195 -0.9794
  862SOL     OW 3441   5.881   5.008   3.274  0.4681  0.0478 -0.2665
  862SOL    HW1 3442   5.900   4.931   3.328 -0.3746 -0.7598 -1.0797
  862SOL    HW2 3443   5.815   5.056   3.323  0.0172 -0.4623 -0.3615
  863SOL     OW 3444   1.667   6.749   1.238 -0.6769  0.5774 -0.1552
  863SOL    HW1 3445   1.590   6.701   1.206  0.0646 -0.4669 -0.4207
  863SOL    HW2 3446   1.741   6.704   1.198  0.0301  2.5301 -1.1761
  864SOL     OW 3447   4.122   7.554   2.357 -0.2150  0.7136  0.1191
  864SOL    HW1 3448   4.177   7.595   2.291  1.3241  0.7775  1.3606
  864SOL    HW2 3449   4.112   7.622   2.425  0.2824 -0.1232  1.0502
  865SOL     OW 3450   5.649   2.485   5.172  0.0091 -0.1537 -0.2778
  865SOL    HW1 3451   5.637   2.426   5.097  0.6412  1.1798 -1.4760
  865SOL    HW2 3452   5.695   2.561   5.136  1.0748  0.1792  1.6563
  866SOL     OW 3453   1.757   4.367   5.687  0.2013  0.1194  0.0747
  866SOL    HW1 3454   1.721   4.402   5.769 -0.9882  0.1503 -0.4579
  866SOL    HW2 3455   1.776   4.275   5.707 -1.9237 -0.4114 -0.1580
  867SOL     OW 3456   4.448   4.343   0.330 -0.4561  0.1683 -0.1603
  867SOL    HW1 3457   4.434   4.351   0.235 -1.1937  0.5671 -0.0334
  867SOL    HW2 3458   4.517   4.278   0.339 -2.0094 -1.6915 -0.8910
  868SOL     OW 3459   2.523   7.421   4.277 -0.1755 -0.1882 -0.2528
  868SOL    HW1 3460   2.467   7.499   4.281  0.6492  0.3841  0.4797
  868SOL    HW2 3461   2.531   7.402   4.184 -0.5379  0.4948 -0.4344
  869SOL     OW 3462   2.960   7.741   6.516 -0.1544 -0.5722  0.2014
  869SOL    HW1 3463   3.030   7.771   6.458 -0.7449 -0.5745 -0.5346
  869SOL    HW2 3464   2.986   7.770   6.603 -0.4335  1.6272 -0.3893
  870SOL     OW 3465   7.322   2.160   4.402 -0.1365  0.2223  0.0639
  870SOL    HW1 3466   7.273   2.183   4.481  0.6703  2.4800 -0.0268
  870SOL    HW2 3467   7.412   2.148   4.433 -0.3176 -1.9596 -0.0806
  871SOL     OW 3468   1.298   3.661   6.757 -0.0974  0.6694 -0.3654
  871SOL    HW1 3469   1.275   3.746   6.718 -3.2934 -0.2270 -0.7082
  871SOL    HW2 3470   1.243   3.655   6.835  1.7551 -0.1996  0.9675
  872SOL     OW 3471   0.727   6.120   2.610 -0.4453 -0.2203  0.4724
  872SOL    HW1 3472   0.671   6.097   2.536 -0.6462 -1.4991  0.9917
  872SOL    HW2 3473   0.680   6.089   2.687  0.2915  0.0286  1.0414
  873SOL     OW 3474   5.775   7.272   0.723  0.2552  0.2865 -0.3343
  873SOL    HW1 3475   5.867   7.296   0.714  0.8187 -1.7692 -0.4175
  873SOL    HW2 3476   5.754   7.226   0.642 -0.3279 -0.7928  0.4011
  874SOL     OW 3477   6.675   7.318   3.509  0.1716 -0.0270 -0.0898
  874SOL    HW1 3478   6.700   7.256   3.578  2.0523  0.6128 -0.1632
  874SOL    HW2 3479   6.621   7.266   3.449  0.9448 -1.3638  0.3274
  875SOL     OW 3480   3.656   5.294   7.777  0.3883 -0.4360  0.4648
  875SOL    HW1 3481   3.580   5.251   7.739  0.7556  0.3950 -1.3120
  875SOL    HW2 3482   3.641   5.388   7.764  0.3420 -0.0504  2.8274
  876SOL     OW 3483   5.306   1.874   7.628 -0.1233 -0.2152 -0.3706
  876SOL    HW1 3484   5.236   1.846   7.687 -0.5264  0.9097 -0.3019
  876SOL    HW2 3485   5.261   1.907   7.551  0.3284  0.3397 -0.4038
  877SOL     OW 3486   7.207   2.709   4.758 -0.0899  0.5118  0.7231
  877SOL    HW1 3487   7.197   2.800   4.732  1.0963  0.6969  0.8329
  877SOL    HW2 3488   7.120   2.671   4.748 -0.5659  1.6167  0.5424
  878SOL     OW 3489   1.381   7.747   6.086  0.3389 -0.7021 -0.1263
  878SOL    HW1 3490   1.391   7.659   6.122 -0.0523 -1.4162 -1.7097
  878SOL    HW2 3491   1.342   7.734   6.000  1.8985  0.8989 -1.1295
  879SOL     OW 3492   1.271   7.632   1.602 -0.5745 -0.4665  0.5939
  879SOL    HW1 3493   1.318   7.608   1.681 -0.9029 -2.5053  0.2265
  879SOL    HW2 3494   1.339   7.660   1.541 -0.3159  1.0561  1.5220
  880SOL     OW 3495   0.504   3.746   2.550 -0.0758  0.1733 -0.2680
  880SOL    HW1 3496   0.514   3.795   2.631  0.4680 -1.1945  0.5419
  880SOL    HW2 3497   0.414   3.761   2.523 -0.3032  0.5395  0.6693
  881SOL     OW 3498   2.502   3.702   7.211 -0.7263  0.1372  0.3710
  881SOL    HW1 3499   2.504   3.606   7.207  2.3512  0.0731  0.5375
  881SOL    HW2 3500   2.532   3.730   7.124  1.7982  0.7485  1.3447
  882SOL     OW 3501   3.787   0.821   6.521 -0.5628 -0.0384 -0.2383
  882SOL    HW1 3502   3.768   0.890   6.457 -1.4717  0.3333  0.4157
  882SOL    HW2 3503   3.706   0.811   6.570  0.1348 -0.2861  0.8856
  883SOL     OW 3504   5.547   7.067   6.391  0.3281  0.5362  0.4200
  883SOL    HW1 3505   5.620   7.084   6.332  2.4798  0.0431  2.7812
  883SOL    HW2 3506   5.472   7.050   6.333  2.1828  0.4633 -2.1010
  884SOL     OW 3507   7.118   4.456   0.228  0.0327  0.4742 -0.2870
  884SOL    HW1 3508   7.178   4.509   0.281  0.9374 -0.6316 -0.1480
  884SOL    HW2 3509   7.089   4.387   0.287 -0.7132  0.5015 -0.6111
  885SOL     OW 3510   6.573   3.225   0.048  0.2617  0.0987  0.0290
  885SOL    HW1 3511   6.665   3.202   0.064  0.0497 -0.0355  1.0957
  885SOL    HW2 3512   6.523   3.158   0.095 -0.3899  0.1646 -0.5529
  886SOL     OW 3513   7.133   5.865   1.216 -0.6358 -0.0009  0.0942
  886SOL    HW1 3514   7.075   5.847   1.290 -0.8478 -0.3676 -0.1537
  886SOL    HW2 3515   7.077   5.855   1.139 -0.5814  1.0676 -0.0884
  887SOL     OW 3516   6.680   4.785   5.279 -0.0823  0.0856  0.4921
  887SOL    HW1 3517   6.753   4.790   5.219  0.8096  1.5153  1.6290
  887SOL    HW2 3518   6.626   4.862   5.258 -0.8418 -0.5061  0.2112
  888SOL     OW 3519   5.456   1.559   4.385  0.0342  0.1635  0.3112
  888SOL    HW1 3520   5.458   1.540   4.291  1.9605  0.8072  0.1589
  888SOL    HW2 3521   5.438   1.475   4.426  3.8614 -1.3088 -0.5112
  889SOL     OW 3522   2.787   5.935   4.283 -0.2283 -0.1296  0.7589
  889SOL    HW1 3523   2.834   5.858   4.316  0.9766  0.3903  0.3159
  889SOL    HW2 3524   2.694   5.912   4.292  0.1021 -1.4165  1.1282
  890SOL     OW 3525   6.751   1.063   7.912  0.0506 -0.3004 -0.3507
  890SOL    HW1 3526   6.796   1.124   7.855  0.1439  2.0523  2.0245
  890SOL    HW2 3527   6.821   1.006   7.946  0.8525  1.4287  1.0560
  891SOL     OW 3528   7.313   2.569   1.012 -0.2856  0.7351  0.5078
  891SOL    HW1 3529   7.312   2.577   1.107  2.9420 -0.5055  0.7771
  891SOL    HW2 3530   7.298   2.476   0.995 -1.2815  1.0237 -0.2405
  892SOL     OW 3531   1.350   6.714   3.728  0.3838 -0.5033 -0.2392
  892SOL    HW1 3532   1.317   6.700   3.639 -0.5677 -2.7331  0.3860
  892SOL    HW2 3533   1.328   6.805   3.747  1.6115  0.3903 -2.6533
  893SOL     OW 3534   4.161   6.499   7.492  0.0301 -0.3931 -0.1488
  893SOL    HW1 3535   4.121   6.445   7.560 -0.1354 -0.3175 -0.1864
  893SOL    HW2 3536   4.241   6.452   7.469  0.7223  0.2132  0.9645
  894SOL     OW 3537   4.464   4.382   0.602  0.0996  0.4389  0.0682
  894SOL    HW1 3538   4.481   4.371   0.509 -0.8671 -2.5498  0.1335
  894SOL    HW2 3539   4.531   4.328   0.645 -1.0181 -0.3126  0.9328
  895SOL     OW 3540   2.900   4.783   1.420 -0.2174  0.2432 -0.6911
  895SOL    HW1 3541   2.987   4.781   1.380  0.2730  0.7497  0.3032
  895SOL    HW2 3542   2.916   4.811   1.511 -1.7103  3.5393 -1.2879
  896SOL     OW 3543   2.911   7.639   2.081  0.3474 -0.2889  0.3002
  896SOL    HW1 3544   2.924   7.606   1.992  3.1030 -0.8795  0.8025
  896SOL    HW2 3545   2.833   7.594   2.113 -0.3883 -0.4490 -1.6273
  897SOL     OW 3546   1.995   0.445   6.236  0.2956 -0.4130  0.6139
  897SOL    HW1 3547   1.998   0.524   6.183 -0.5212 -0.0773  1.0619
  897SOL    HW2 3548   2.079   0.402   6.219  0.1625 -0.1778 -0.7248
  898SOL     OW 3549   2.946   3.878   5.250  0.2814  0.2580  0.0055
  898SOL    HW1 3550   2.919   3.825   5.325  0.8915  0.8386  0.6464
  898SOL    HW2 3551   2.997   3.950   5.288 -1.3437  1.8913 -0.7410
  899SOL     OW 3552   1.766   5.201   6.243 -0.1282 -0.3981 -0.1195
  899SOL    HW1 3553   1.755   5.122   6.191 -0.4054  1.0580 -2.4097
  899SOL    HW2 3554   1.860   5.217   6.245 -0.0155 -1.1194  0.9235
  900SOL     OW 3555   2.457   7.412   7.940 -0.3967  0.4039  0.2224
  900SOL    HW1 3556   2.541   7.456   7.927 -0.1224  0.2461  1.3019
  900SOL    HW2 3557   2.421   7.452   8.020 -1.0934  0.0869  0.0772
  901SOL     OW 3558   7.579   3.549   3.599 -0.2829 -0.1837  0.3752
  901SOL    HW1 3559   7.544   3.546   3.689 -1.0968  0.7469  0.1192
  901SOL    HW2 3560   7.589   3.458   3.574  0.0342 -0.4603  1.4481
  902SOL     OW 3561   6.613   1.377   7.719 -0.7402  0.1721  0.0161
  902SOL    HW1 3562   6.592   1.457   7.671  1.2254  0.8580  0.1878
  902SOL    HW2 3563   6.578   1.391   7.807 -3.0167 -0.4521 -0.7346
  903SOL     OW 3564   2.548   5.812   3.485  0.2111  0.2538 -0.0414
  903SOL    HW1 3565   2.631   5.848   3.515  0.0972 -0.7395  1.6083
  903SOL    HW2 3566   2.572   5.735   3.433  0.3736  1.4429 -1.8139
  904SOL     OW 3567   7.836   2.892   5.534 -0.1291  0.3505 -0.1216
  904SOL    HW1 3568   7.817   2.980   5.499 -2.3204  0.4787  1.2436
  904SOL    HW2 3569   7.884   2.909   5.615  0.2940  0.2226 -0.3392
  905SOL     OW 3570   4.312   4.630   7.784 -0.2754 -0.6816 -0.1460
  905SOL    HW1 3571   4.290   4.685   7.709 -1.9117  0.5876  1.1894
  905SOL    HW2 3572   4.344   4.548   7.745  0.5901  0.5536 -2.1926
  906SOL     OW 3573   1.000   0.842   4.650  0.1048 -0.7041  0.0149
  906SOL    HW1 3574   0.977   0.878   4.565 -2.6460 -1.6325  0.2792
  906SOL    HW2 3575   0.954   0.758   4.655 -0.4491 -0.3512  2.6651
  907SOL     OW 3576   6.472   1.721   2.385 -0.0771 -0.3907 -0.0287
  907SOL    HW1 3577   6.539   1.665   2.345 -1.3299 -1.8309 -0.2167
  907SOL    HW2 3578   6.512   1.753   2.466  0.4306 -2.1828  0.4624
  908SOL     OW 3579   3.977   7.595   3.197 -0.3782  0.0026 -0.4350
  908SOL    HW1 3580   4.054   7.538   3.195 -0.3905 -0.0325  0.0762
  908SOL    HW2 3581   3.983   7.642   3.280  0.3856  1.8148 -1.4770
  909SOL     OW 3582   4.516   1.376   3.614 -0.3832  0.0350 -0.0518
  909SOL    HW1 3583   4.487   1.467   3.612  0.9985  0.5266  0.8527
  909SOL    HW2 3584   4.435   1.325   3.615 -1.1753  1.2201 -1.0831
  910SOL     OW 3585   3.423   1.994   1.000 -0.2709  0.0782  0.0890
  910SOL    HW1 3586   3.490   1.964   0.939 -1.3165 -0.3149 -0.8967
  910SOL    HW2 3587   3.472   2.021   1.078  1.0533  0.1691 -0.7436
  911SOL     OW 3588   6.933   2.998   2.738  0.6505  0.4125 -0.2411
  911SOL    HW1 3589   6.852   2.990   2.789  0.5792 -0.0671 -0.4201
  911SOL    HW2 3590   6.959   3.090   2.748  1.2672  0.0836  1.6126
  912SOL     OW 3591   6.545   6.067   2.209 -0.3419  0.3706  1.0669
  912SOL    HW1 3592   6.575   6.134   2.148  0.0284  0.7544  1.6573
  912SOL    HW2 3593   6.454   6.050   2.183 -0.0409  0.1662  0.1073
  913SOL     OW 3594   5.349   2.229   3.398  0.4350  0.7028  0.4159
  913SOL    HW1 3595   5.304   2.162   3.450  0.4972  0.5195  0.2318
  913SOL    HW2 3596   5.350   2.195   3.309 -0.9463  1.6486 -0.0098
  914SOL     OW 3597   2.901   6.641   7.825  0.0355  0.7367  0.2027
  914SOL    HW1 3598   2.943   6.569   7.778 -0.2709  0.4468  0.3659
  914SOL    HW2 3599   2.811   6.640   7.793  0.0959  1.2244  0.0056
  915SOL     OW 3600   6.869   3.742   2.039  0.2260  0.9208 -0.3779
  915SOL    HW1 3601   6.907   3.749   1.951  0.9107  0.7836 -0.1013
  915SOL    HW2 3602   6.930   3.790   2.095  1.0169 -0.8648  0.3725
  916SOL     OW 3603   0.348   3.064   5.773  0.3154  0.0462  0.2423
  916SOL    HW1 3604   0.322   3.096   5.687  0.7001  2.0143  0.8028
  916SOL    HW2 3605   0.423   3.006   5.755 -0.5037 -0.7309 -0.8285
  917SOL     OW 3606   2.163   5.706   3.544 -0.3858  0.3500  0.2128
  917SOL    HW1 3607   2.145   5.627   3.492 -0.8800  0.4642  0.2049
  917SOL    HW2 3608   2.109   5.695   3.622 -1.1070  1.0768 -0.1719
  918SOL     OW 3609   2.842   5.604   6.487 -0.6432  0.0519 -0.0779
  918SOL    HW1 3610   2.845   5.518   6.445  1.7167 -0.3324  0.7380
  918SOL    HW2 3611   2.786   5.656   6.429 -1.5944 -1.8190 -0.9542
  919SOL     OW 3612   0.620   2.673   0.285 -0.2415  0.1313  0.0552
  919SOL    HW1 3613   0.629   2.758   0.240 -1.1931 -0.1931 -0.7785
  919SOL    HW2 3614   0.595   2.697   0.374 -0.8550  0.7277 -0.2645
  920SOL     OW 3615   2.432   7.013   1.277  0.6618 -0.3792 -0.1985
  920SOL    HW1 3616   2.396   7.038   1.362 -0.5129  1.0463 -1.0515
  920SOL    HW2 3617   2.521   7.047   1.278  0.9358 -1.0842  0.7414
  921SOL     OW 3618   1.943   0.616   2.147  0.6096 -0.2945  0.5025
  921SOL    HW1 3619   1.994   0.538   2.127  0.2652 -1.1339  2.6159
  921SOL    HW2 3620   2.009   0.684   2.164  0.9495 -0.5376  0.1462
  922SOL     OW 3621   6.136   0.280   2.556 -0.2449  0.0291 -0.4590
  922SOL    HW1 3622   6.095   0.279   2.642  0.7485  1.1757  0.0408
  922SOL    HW2 3623   6.087   0.345   2.506  0.0135  0.3081 -0.3466
  923SOL     OW 3624   0.122   7.732   4.592 -0.3731  0.4690 -0.4393
  923SOL    HW1 3625   0.160   7.816   4.616  1.8443 -0.7972  0.8477
  923SOL    HW2 3626   0.070   7.706   4.668  0.1181  0.0515 -0.2407
  924SOL     OW 3627   5.825   2.919   2.527  0.4058  0.2033  0.0832
  924SOL    HW1 3628   5.820   2.978   2.451  0.9627 -0.0536 -0.1638
  924SOL    HW2 3629   5.763   2.955   2.590 -0.3788  0.1783 -0.6614
  925SOL     OW 3630   5.467   5.234   7.468 -0.6582 -0.4639 -0.0221
  925SOL    HW1 3631   5.509   5.189   7.395 -3.3311 -2.8211 -0.2768
  925SOL    HW2 3632   5.374   5.235   7.445 -1.2056  1.6313  1.9235
  926SOL     OW 3633   7.892   3.800   2.099 -0.2844 -0.0078  0.1923
  926SOL    HW1 3634   7.923   3.880   2.057  1.7672 -1.8366 -2.0975
  926SOL    HW2 3635   7.804   3.786   2.063 -0.0938  0.4812 -0.4745
  927SOL     OW 3636   2.971   4.823   6.310 -0.0202 -0.1212  0.0652
  927SOL    HW1 3637   2.985   4.918   6.315 -2.3568  0.2533  0.7091
  927SOL    HW2 3638   2.881   4.814   6.280 -0.1811 -2.1295  0.9981
  928SOL     OW 3639   5.759   3.559   5.113 -0.9367  0.8405  0.3815
  928SOL    HW1 3640   5.841   3.535   5.156 -1.0343  0.2394  0.2376
  928SOL    HW2 3641   5.716   3.475   5.095 -2.0913  1.1670  1.4484
  929SOL     OW 3642   1.576   1.380   0.304 -0.3534 -0.0143 -0.1526
  929SOL    HW1 3643   1.524   1.412   0.377  0.4273  1.9176 -0.3822
  929SOL    HW2 3644   1.513   1.368   0.233 -0.6339  1.6959 -0.2452
  930SOL     OW 3645   3.400   5.483   4.463 -0.1949  0.1433  0.5511
  930SOL    HW1 3646   3.337   5.445   4.402 -0.0366  1.8394 -0.7349
  930SOL    HW2 3647   3.451   5.408   4.495 -0.8161 -0.8880 -0.7862
  931SOL     OW 3648   4.268   3.484   3.619 -0.1269  0.0018 -0.6588
  931SOL    HW1 3649   4.199   3.420   3.602  0.8702 -1.6525  1.1510
  931SOL    HW2 3650   4.224   3.569   3.617 -2.5041 -1.0557  1.6237
  932SOL     OW 3651   0.452   6.825   0.883  0.7239 -0.4054 -0.1624
  932SOL    HW1 3652   0.449   6.863   0.971  0.9182 -0.9524  0.0835
  932SOL    HW2 3653   0.480   6.734   0.897  0.3969 -0.5996 -0.7565
  933SOL     OW 3654   4.669   5.933   6.530  0.1198  0.5138 -0.2109
  933SOL    HW1 3655   4.748   5.987   6.519  0.5308  0.3443  1.5767
  933SOL    HW2 3656   4.674   5.869   6.459  1.3585  0.7993 -0.4121
  934SOL     OW 3657   4.214   1.381   4.412 -0.0204  0.5868  0.4977
  934SOL    HW1 3658   4.188   1.328   4.337  0.4982 -0.2579  0.8894
  934SOL    HW2 3659   4.174   1.466   4.397 -1.5474 -0.1438  0.2398
  935SOL     OW 3660   6.631   4.874   1.786 -0.5911  0.1163 -0.1782
  935SOL    HW1 3661   6.645   4.780   1.799 -0.1500  0.3530  1.2186
  935SOL    HW2 3662   6.690   4.916   1.848  0.0522  1.3612 -1.5740
  936SOL     OW 3663   6.650   1.364   6.104 -0.2511  0.4876 -0.5505
  936SOL    HW1 3664   6.724   1.420   6.126 -1.6143  2.9200 -1.6546
  936SOL    HW2 3665   6.581   1.426   6.079 -2.7476 -1.6228  0.6512
  937SOL     OW 3666   4.816   2.222   4.807 -0.3111 -0.7886 -0.6112
  937SOL    HW1 3667   4.759   2.272   4.866  1.2688  0.4280 -0.0518
  937SOL    HW2 3668   4.788   2.131   4.818 -1.0218 -0.4119  0.9035
  938SOL     OW 3669   1.037   3.506   4.164  0.3537 -0.3279  0.2047
  938SOL    HW1 3670   1.110   3.480   4.220  0.8942  0.0104 -0.3300
  938SOL    HW2 3671   1.054   3.598   4.144 -0.2521 -0.2331  0.1188
  939SOL     OW 3672   0.374   3.709   2.125 -0.1353  0.1870 -0.2741
  939SOL    HW1 3673   0.430   3.784   2.145 -0.2068  0.0983  0.2765
  939SOL    HW2 3674   0.332   3.688   2.208  0.8013 -1.2208 -0.1257
  940SOL     OW 3675   2.618   1.432   8.003  0.0048  0.4648 -0.0275
  940SOL    HW1 3676   2.648   1.502   7.945  1.3822  1.1088  1.3793
  940SOL    HW2 3677   2.563   1.476   8.067  0.8361  0.2844  0.8359
  941SOL     OW 3678   5.256   7.946   4.207  0.5782 -0.0935 -0.4258
  941SOL    HW1 3679   5.226   7.872   4.259 -0.0709 -1.6123 -2.8151
  941SOL    HW2 3680   5.350   7.954   4.227  1.0059 -2.5561 -1.1919
  942SOL     OW 3681   4.479   5.608   3.705 -0.8113  0.4451  0.3284
  942SOL    HW1 3682   4.404   5.631   3.760 -1.4771 -0.2949 -0.2395
  942SOL    HW2 3683   4.505   5.521   3.736 -0.5441  0.4597  0.1466
  943SOL     OW 3684   5.822   2.035   6.772 -0.4557  0.4643 -0.0127
  943SOL    HW1 3685   5.774   2.058   6.852 -0.6662 -0.2523  0.0720
  943SOL    HW2 3686   5.914   2.040   6.798 -0.5271  0.0227  0.3361
  944SOL     OW 3687   5.452   1.553   2.898  0.3900  0.7318  0.2010
  944SOL    HW1 3688   5.504   1.506   2.833  0.6958  0.0337  0.9448
  944SOL    HW2 3689   5.478   1.517   2.982 -1.4933  0.1550  0.5937
  945SOL     OW 3690   1.489   2.200   1.281 -0.2321  0.2223  0.4098
  945SOL    HW1 3691   1.415   2.219   1.339 -0.3898  1.7113 -0.2362
  945SOL    HW2 3692   1.465   2.239   1.197  0.4649 -0.9610 -0.3825
  946SOL     OW 3693   5.903   7.978   5.335 -0.1875  0.3421 -0.8563
  946SOL    HW1 3694   5.984   7.951   5.293  0.3317  0.9023 -0.2303
  946SOL    HW2 3695   5.852   8.019   5.264 -0.1829 -0.5418 -1.3789
  947SOL     OW 3696   3.150   2.410   1.611  0.2196 -0.1583 -0.1901
  947SOL    HW1 3697   3.184   2.488   1.567 -0.5105  0.5747  0.5211
  947SOL    HW2 3698   3.164   2.428   1.705  0.7305 -1.2113 -0.0494
  948SOL     OW 3699   0.157   7.884   0.748  0.3965 -0.4473 -0.3931
  948SOL    HW1 3700   0.068   7.907   0.774  0.3410  0.7716 -1.6021
  948SOL    HW2 3701   0.152   7.870   0.653  1.2429 -1.6411 -0.2878
  949SOL     OW 3702   6.815   5.032   7.041 -0.0130  0.3004 -0.2578
  949SOL    HW1 3703   6.871   4.995   6.972  1.8790  0.7521  0.9503
  949SOL    HW2 3704   6.826   5.127   7.032  1.0821  0.3583  1.2294
  950SOL     OW 3705   5.017   3.764   4.452 -0.0874 -0.0961  0.1921
  950SOL    HW1 3706   5.034   3.833   4.517  0.0640 -0.6686  0.7715
  950SOL    HW2 3707   5.086   3.699   4.468 -0.0152 -0.2150 -0.5840
  951SOL     OW 3708   6.986   6.355   0.028  0.1572  0.1142 -0.1225
  951SOL    HW1 3709   6.928   6.432   0.028 -0.3780 -0.1372 -3.1375
  951SOL    HW2 3710   7.020   6.351  -0.062  0.9558 -2.5916  0.2044
  952SOL     OW 3711   1.846   7.535   0.633 -0.2338  0.5445 -0.4746
  952SOL    HW1 3712   1.833   7.471   0.703  4.0922 -1.3424 -1.0718
  952SOL    HW2 3713   1.820   7.488   0.554  0.5054  0.4517 -0.6657
  953SOL     OW 3714   2.985   6.455   3.674  0.2516 -0.2068 -0.0517
  953SOL    HW1 3715   3.035   6.442   3.593  0.5217 -0.6230  0.1788
  953SOL    HW2 3716   3.048   6.438   3.744  0.2978  1.1768  0.2601
  954SOL     OW 3717   1.087   3.302   3.749  0.0370 -0.2419  0.3832
  954SOL    HW1 3718   1.050   3.234   3.804 -2.5247  0.6598 -0.1035
  954SOL    HW2 3719   1.141   3.255   3.685 -0.1897 -1.6293  1.1797
  955SOL     OW 3720   1.879   4.314   6.043 -0.4098  0.2044  0.0215
  955SOL    HW1 3721   1.840   4.395   6.010  0.5563  0.6403 -0.1085
  955SOL    HW2 3722   1.960   4.343   6.087  1.0775 -0.8433 -1.8485
  956SOL     OW 3723   0.046   7.860   3.119 -1.0631 -0.0714  0.1016
  956SOL    HW1 3724   0.068   7.817   3.202 -0.9115  1.1261  0.7114
  956SOL    HW2 3725   0.068   7.952   3.134  0.6537 -0.0897 -1.8650
  957SOL     OW 3726   1.503   0.504   6.738 -0.2969 -0.2747  0.1947
  957SOL    HW1 3727   1.423   0.457   6.715 -0.5068  0.2797 -0.2374
  957SOL    HW2 3728   1.480   0.552   6.818 -0.0020 -1.0962  0.7848
  958SOL     OW 3729   1.738   3.114   2.926  0.1731  0.6372  0.4133
  958SOL    HW1 3730   1.815   3.171   2.931  0.3843  0.3062  0.9227
  958SOL    HW2 3731   1.768   3.029   2.958 -0.1196  0.2064 -0.4027
  959SOL     OW 3732   4.143   1.801   3.007 -0.8745 -0.5416  0.0512
  959SOL    HW1 3733   4.194   1.881   3.018  0.3250 -1.4626  1.3923
  959SOL    HW2 3734   4.205   1.730   3.021 -1.9301 -1.7381 -1.0693
  960SOL     OW 3735   6.856   3.475   1.511 -0.0785  0.6007  0.2677
  960SOL    HW1 3736   6.914   3.536   1.464 -1.2078  1.1743 -0.4193
  960SOL    HW2 3737   6.868   3.392   1.466 -0.0462  0.7991 -0.0962
  961SOL     OW 3738   4.135   5.701   1.998  0.0609 -0.6989  0.5133
  961SOL    HW1 3739   4.212   5.644   2.004  0.3882 -0.4937 -1.2899
  961SOL    HW2 3740   4.083   5.665   1.927 -0.7247  0.0980  0.6594
  962SOL     OW 3741   3.599   6.530   6.624 -0.3133 -1.1315  0.2357
  962SOL    HW1 3742   3.546   6.561   6.551 -1.3791 -2.3673  0.4478
  962SOL    HW2 3743   3.689   6.529   6.591 -0.0790  2.6613  0.3982
  963SOL     OW 3744   6.128   7.391   5.051 -0.2503  0.1924 -0.1548
  963SOL    HW1 3745   6.144   7.398   4.957  1.0121  2.6283  0.1503
  963SOL    HW2 3746   6.071   7.464   5.072 -1.6324 -1.1096  0.8109
  964SOL     OW 3747   3.390   4.101   3.804 -0.0040  0.1372  0.7870
  964SOL    HW1 3748   3.323   4.107   3.736  0.8239 -1.9784 -0.3112
  964SOL    HW2 3749   3.468   4.139   3.765  0.5231 -1.2509  0.4170
  965SOL     OW 3750   7.807   5.805   4.882 -0.5522 -0.2526 -0.0220
  965SOL    HW1 3751   7.787   5.898   4.877  3.2411  0.6287 -2.2277
  965SOL    HW2 3752   7.844   5.792   4.969 -0.5137  0.4482  0.0692
  966SOL     OW 3753   6.310   2.740   4.774 -0.1075  0.4281  0.7156
  966SOL    HW1 3754   6.279   2.669   4.829  0.4849 -1.9490 -1.7792
  966SOL    HW2 3755   6.244   2.747   4.704  1.4792 -0.0265 -0.9068
  967SOL     OW 3756   4.239   3.572   0.694 -0.7530  0.6346  0.5069
  967SOL    HW1 3757   4.248   3.632   0.619 -1.9472 -0.7583 -0.8237
  967SOL    HW2 3758   4.306   3.505   0.680  0.0970  1.2310  1.5945
  968SOL     OW 3759   6.584   0.020   0.505 -0.1126 -0.1461  0.3066
  968SOL    HW1 3760   6.633  -0.049   0.550  2.0296  1.0962  0.0398
  968SOL    HW2 3761   6.495   0.012   0.539  0.4834 -1.8467  1.6611
  969SOL     OW 3762   2.427   2.367   5.325 -0.1252  0.2614 -0.0121
  969SOL    HW1 3763   2.439   2.329   5.238  0.3626 -0.6201  0.4301
  969SOL    HW2 3764   2.360   2.313   5.367  0.3451  0.0743  0.5117
  970SOL     OW 3765   1.655   2.176   0.198  0.3139  0.1374  0.2554
  970SOL    HW1 3766   1.603   2.236   0.145  1.2778 -0.1367 -1.0394
  970SOL    HW2 3767   1.746   2.203   0.183  0.7636 -1.5213 -0.2305
  971SOL     OW 3768   0.477   2.047   3.424  0.5930  0.2978  0.3976
  971SOL    HW1 3769   0.432   2.029   3.341  0.9738 -1.0352  0.4516
  971SOL    HW2 3770   0.519   2.132   3.410 -0.5295  0.7672 -0.2480
  972SOL     OW 3771   0.532   7.325   5.980 -1.1332 -0.0535 -0.2462
  972SOL    HW1 3772   0.485   7.398   6.021 -0.4016  1.7428 -2.3526
  972SOL    HW2 3773   0.467   7.256   5.970 -2.7007  1.4360 -0.8301
  973SOL     OW 3774   6.202   6.730   1.095  0.4728  0.5407  0.5575
  973SOL    HW1 3775   6.181   6.710   1.004 -0.8158  0.9434  0.7452
  973SOL    HW2 3776   6.294   6.705   1.104  0.9222  1.4214 -1.1146
  974SOL     OW 3777   2.246   1.066   4.991  0.2829 -0.1382 -0.1492
  974SOL    HW1 3778   2.276   1.138   5.046 -0.2888  1.5181 -1.9370
  974SOL    HW2 3779   2.327   1.027   4.957  0.5721 -0.0381  0.4024
  975SOL     OW 3780   7.351   1.554   6.845 -0.0306  0.2537  0.2442
  975SOL    HW1 3781   7.374   1.627   6.787  0.5558  0.2401  0.4556
  975SOL    HW2 3782   7.280   1.589   6.898 -0.2731  0.4160 -0.1748
  976SOL     OW 3783   0.328   2.929   1.659  0.0824  0.3389 -0.4661
  976SOL    HW1 3784   0.327   3.018   1.625  0.1273  0.7040  0.4798
  976SOL    HW2 3785   0.242   2.893   1.635  0.4077  0.3142 -1.6523
  977SOL     OW 3786   3.670   6.312   7.430 -0.0726 -0.2740  0.3832
  977SOL    HW1 3787   3.661   6.229   7.477 -0.9050  0.5475  1.7428
  977SOL    HW2 3788   3.615   6.303   7.353 -1.4320 -0.4372  1.3396
  978SOL     OW 3789   6.948   6.571   3.596 -0.3503 -0.0397 -0.5549
  978SOL    HW1 3790   6.921   6.480   3.587 -0.5621  0.0163 -0.4880
  978SOL    HW2 3791   7.042   6.570   3.579 -0.3086 -0.3074 -0.3136
  979SOL     OW 3792   6.207   6.351   2.021  0.4873 -0.1151  0.3819
  979SOL    HW1 3793   6.292   6.396   2.027  0.2036  0.5218 -0.2304
  979SOL    HW2 3794   6.191   6.342   1.927  0.0787 -0.6175  0.4978
  980SOL     OW 3795   7.646   3.298   6.335  0.6547 -0.2907 -0.3289
  980SOL    HW1 3796   7.656   3.230   6.401  1.2359 -0.2766 -0.4013
  980SOL    HW2 3797   7.726   3.294   6.283 -0.1243 -0.8433 -1.5425
  981SOL     OW 3798   7.312   3.061   6.578  0.1968  0.6596  0.1906
  981SOL    HW1 3799   7.328   2.989   6.638  1.3640 -1.2060 -2.1840
  981SOL    HW2 3800   7.217   3.075   6.582  0.1253 -0.1178  1.6510
  982SOL     OW 3801   3.369   6.359   5.357  1.0215  0.2991 -0.2966
  982SOL    HW1 3802   3.463   6.344   5.352  1.1190  0.9098 -0.4497
  982SOL    HW2 3803   3.330   6.276   5.331  1.4973 -0.5249  1.4541
  983SOL     OW 3804   3.447   2.911   7.387 -0.1825 -0.2590  0.1506
  983SOL    HW1 3805   3.379   2.952   7.333  0.8331  1.4825  0.1368
  983SOL    HW2 3806   3.398   2.862   7.453 -1.4355 -1.0253 -1.2691
  984SOL     OW 3807   3.184   7.000   3.015  0.3277  0.1497  0.3156
  984SOL    HW1 3808   3.231   6.918   3.001  0.3859  0.4586 -1.5909
  984SOL    HW2 3809   3.248   7.058   3.055  0.4462 -0.5521  1.1742
  985SOL     OW 3810   5.131   2.120   4.023  0.5255  0.1482  0.4252
  985SOL    HW1 3811   5.160   2.205   4.057 -0.6132  0.5863  0.3406
  985SOL    HW2 3812   5.207   2.063   4.032  1.6567  1.4452 -0.4600
  986SOL     OW 3813   7.480   6.108   2.319 -0.1331 -0.6123 -0.0634
  986SOL    HW1 3814   7.414   6.064   2.265 -1.1116 -0.5686  1.0687
  986SOL    HW2 3815   7.558   6.111   2.263 -0.6516 -1.9345 -0.9162
  987SOL     OW 3816   0.686   6.418   2.649  0.3597 -0.1839 -0.0329
  987SOL    HW1 3817   0.599   6.423   2.688  0.3375  0.8731 -0.1885
  987SOL    HW2 3818   0.743   6.392   2.721 -0.1323 -1.2864 -0.0225
  988SOL     OW 3819   1.465   6.973   7.811  0.0170  0.1990  0.2395
  988SOL    HW1 3820   1.429   6.947   7.726  2.8846  1.0572 -1.3469
  988SOL    HW2 3821   1.488   7.065   7.800 -0.2823  0.5634  2.2705
  989SOL     OW 3822   4.684   1.517   4.566 -0.5651  0.3356 -0.1320
  989SOL    HW1 3823   4.616   1.517   4.499 -1.1645 -0.1968  0.4653
  989SOL    HW2 3824   4.663   1.442   4.622 -0.0439  0.7294  0.6148
  990SOL     OW 3825   3.902   6.770   4.440 -0.5253  0.0013 -0.4719
  990SOL    HW1 3826   3.905   6.694   4.382  0.2928  0.7612 -1.4652
  990SOL    HW2 3827   3.858   6.738   4.519  1.0530 -1.8917 -0.2855
  991SOL     OW 3828   1.239   0.243   4.879 -0.2836  0.1930  0.3547
  991SOL    HW1 3829   1.234   0.207   4.968  0.0226  0.4964  0.4959
  991SOL    HW2 3830   1.172   0.311   4.876 -0.3419  0.1346  0.3304
  992SOL     OW 3831   0.641   3.427   3.866  0.0775 -0.0720  0.6203
  992SOL    HW1 3832   0.718   3.434   3.923  1.4177  0.8185 -1.1873
  992SOL    HW2 3833   0.608   3.517   3.859  0.0807 -0.1280 -0.1776
  993SOL     OW 3834   7.358   7.172   3.837  0.4472 -0.3479 -0.1897
  993SOL    HW1 3835   7.403   7.175   3.921 -2.4490 -3.2512  1.6849
  993SOL    HW2 3836   7.292   7.242   3.842  0.7607 -0.0330 -0.3969
  994SOL     OW 3837   6.689   6.839   2.198  0.2656 -0.1160  0.3587
  994SOL    HW1 3838   6.604   6.813   2.232  0.5766  0.4271  1.5742
  994SOL    HW2 3839   6.669   6.890   2.120 -0.4346 -1.8236 -0.6537
  995SOL     OW 3840   4.757   2.508   6.745 -0.0761  0.2985 -0.1917
  995SOL    HW1 3841   4.828   2.552   6.699 -0.5674  0.8492 -0.4408
  995SOL    HW2 3842   4.777   2.523   6.838 -1.1296  2.5996 -0.2608
  996SOL     OW 3843   0.144   0.411   2.827 -0.5697  0.3951 -0.0069
  996SOL    HW1 3844   0.196   0.341   2.788 -1.5589  0.4504 -1.5078
  996SOL    HW2 3845   0.130   0.382   2.917 -0.3295 -0.9763 -0.3782
  997SOL     OW 3846   1.557   7.771   6.305 -0.4243 -0.5231 -0.0264
  997SOL    HW1 3847   1.489   7.729   6.252 -0.1505 -0.9009 -0.0838
  997SOL    HW2 3848   1.601   7.831   6.244 -0.4168 -0.6072 -0.1043
  998SOL     OW 3849   0.144   0.546   1.960 -0.0255  0.1068 -0.5841
  998SOL    HW1 3850   0.169   0.455   1.978 -0.7953 -0.1203 -0.6395
  998SOL    HW2 3851   0.126   0.584   2.046 -1.4475 -0.3162 -0.6726
  999SOL     OW 3852   6.859   2.410   6.746  0.1422 -0.0659 -0.2211
  999SOL    HW1 3853   6.763   2.405   6.743  0.1489  0.0695 -1.7935
  999SOL    HW2 3854   6.877   2.486   6.801 -0.6435 -0.3222  0.4078
 1000SOL     OW 3855   7.830   0.694   5.127 -0.1874 -0.1111 -0.2042
 1000SOL    HW1 3856   7.912   0.690   5.176 -0.0681  0.4815 -0.3559
 1000SOL    HW2 3857   7.766   0.651   5.185  0.0601  0.1334  0.2555
 1001SOL     OW 3858   5.517   1.652   7.330  0.3269 -0.4847 -0.2565
 1001SOL    HW1 3859   5.429   1.631   7.362 -0.1781  0.8983 -0.6426
 1001SOL    HW2 3860   5.576   1.627   7.401 -0.5783  0.5869  0.9272
 1002SOL     OW 3861   6.990   2.563   5.043  0.0794 -0.3759  0.5759
 1002SOL    HW1 3862   7.071   2.527   5.007  0.9180 -0.0967  2.0721
 1002SOL    HW2 3863   6.995   2.657   5.026 -0.8441 -0.5735 -0.9677
 1003SOL     OW 3864   4.945   3.370   6.671  0.6119 -0.3607 -0.1127
 1003SOL    HW1 3865   4.863   3.378   6.719  0.3324  2.3351 -0.8640
 1003SOL    HW2 3866   5.010   3.347   6.737 -0.0442  1.6195  1.3269
 1004SOL     OW 3867   0.849   7.049   2.121 -0.1418  0.4004  0.1915
 1004SOL    HW1 3868   0.920   7.000   2.164  0.0352 -0.4631 -1.0241
 1004SOL    HW2 3869   0.833   7.124   2.179  1.4160  0.3406  0.7511
 1005SOL     OW 3870   4.841   2.454   4.237  0.5146 -0.3029 -0.5857
 1005SOL    HW1 3871   4.805   2.385   4.181  1.2742 -0.1518 -1.2809
 1005SOL    HW2 3872   4.876   2.409   4.313 -1.3583 -0.4361  0.2479
 1006SOL     OW 3873   2.525   0.879   6.152  0.5552  0.0854  0.6138
 1006SOL    HW1 3874   2.566   0.822   6.217  0.9445 -1.3515 -0.8099
 1006SOL    HW2 3875   2.474   0.820   6.097 -0.0810  1.3011 -0.1542
 1007SOL     OW 3876   0.432   7.228   3.980  0.4402  0.3249  0.2931
 1007SOL    HW1 3877   0.473   7.253   4.062 -0.5689 -0.8452  1.1797
 1007SOL    HW2 3878   0.350   7.277   3.978  1.0548  1.3747 -0.6798
 1008SOL     OW 3879   1.816   0.569   2.774  0.2676 -0.1810  0.2202
 1008SOL    HW1 3880   1.789   0.516   2.699  0.3562 -1.2972  0.9570
 1008SOL    HW2 3881   1.734   0.602   2.811  0.2550  0.9162 -0.7269
 1009SOL     OW 3882   4.533   6.282   3.285 -0.2047  0.2003 -0.1288
 1009SOL    HW1 3883   4.481   6.231   3.347  0.7296  1.2266  1.5791
 1009SOL    HW2 3884   4.483   6.279   3.203 -2.5745  0.5163  1.2045
 1010SOL     OW 3885   0.343   2.964   7.272 -0.7969  0.3753  0.0361
 1010SOL    HW1 3886   0.385   2.892   7.225 -0.2531 -1.1238  2.6606
 1010SOL    HW2 3887   0.250   2.942   7.273 -1.0198  1.1299 -1.4474
 1011SOL     OW 3888   4.818   7.659   0.198  0.2705 -0.3053  0.0606
 1011SOL    HW1 3889   4.906   7.691   0.181  0.1158 -0.1297 -0.4475
 1011SOL    HW2 3890   4.823   7.616   0.283  1.1353 -1.3686 -0.4962
 1012SOL     OW 3891   0.256   5.250   4.518  0.2890  0.0985  0.0864
 1012SOL    HW1 3892   0.277   5.301   4.596  0.9032  0.8196 -0.5328
 1012SOL    HW2 3893   0.337   5.249   4.467  0.3291 -1.6222  0.1324
 1013SOL     OW 3894   3.991   6.514   3.905  0.3063  0.4705 -0.2712
 1013SOL    HW1 3895   4.069   6.530   3.851  0.4225 -0.8772 -0.5325
 1013SOL    HW2 3896   3.929   6.471   3.846  0.1763 -0.3969  0.4819
 1014SOL     OW 3897   4.708   0.480   3.003 -0.5133  0.3063  0.8437
 1014SOL    HW1 3898   4.777   0.415   2.987 -2.3371 -1.1131 -2.2035
 1014SOL    HW2 3899   4.637   0.430   3.045 -1.4975  0.5190 -0.5025
 1015SOL     OW 3900   1.982   1.361   1.680  0.3166  0.0939  0.2364
 1015SOL    HW1 3901   2.054   1.406   1.723  0.9061  0.0845 -0.7204
 1015SOL    HW2 3902   1.920   1.431   1.657 -0.3924  0.0122  1.7867
 1016SOL     OW 3903   7.555   7.315   3.636  0.3047  0.2516  0.1583
 1016SOL    HW1 3904   7.582   7.224   3.629 -0.5163 -0.0274  0.4589
 1016SOL    HW2 3905   7.520   7.323   3.725  0.2451  0.8179  0.0893
 1017SOL     OW 3906   5.280   4.735   1.220  0.0499 -0.1461 -0.3638
 1017SOL    HW1 3907   5.283   4.828   1.198 -0.8286 -0.1295 -0.4544
 1017SOL    HW2 3908   5.370   4.713   1.245  0.0050  1.0502  1.0090
 1018SOL     OW 3909   1.006   0.058   7.213  0.6424 -0.2408 -0.3705
 1018SOL    HW1 3910   1.000   0.029   7.121 -0.3629 -2.5831  0.3618
 1018SOL    HW2 3911   1.079   0.007   7.248  2.6932  2.4719 -0.4065
 1019SOL     OW 3912   1.204   6.041   2.003  0.2877 -0.1368  0.1742
 1019SOL    HW1 3913   1.189   6.021   2.096 -1.7750 -0.8023 -0.2526
 1019SOL    HW2 3914   1.167   5.966   1.956 -0.3911  1.0216 -1.2406
 1020SOL     OW 3915   0.922   4.120   6.770 -0.5647 -0.1495 -0.6796
 1020SOL    HW1 3916   0.969   4.164   6.841  0.5004 -0.0820 -1.4155
 1020SOL    HW2 3917   0.948   4.028   6.778 -0.5807 -0.1711 -0.8793
 1021SOL     OW 3918   3.800   4.284   0.475 -0.3736 -0.7990 -0.5944
 1021SOL    HW1 3919   3.789   4.353   0.409 -1.1794 -0.6694 -0.3299
 1021SOL    HW2 3920   3.860   4.221   0.434 -0.5366 -0.5122 -1.2869
 1022SOL     OW 3921   1.984   3.732   2.006  0.0055  0.0160 -0.1148
 1022SOL    HW1 3922   2.027   3.767   2.085  0.2080  0.6008 -0.4779
 1022SOL    HW2 3923   1.912   3.680   2.040 -1.4193  2.2200  0.4424
 1023SOL     OW 3924   5.302   3.305   1.469  0.0062 -0.3773 -0.1547
 1023SOL    HW1 3925   5.352   3.359   1.531  0.4540 -0.6855 -0.2396
 1023SOL    HW2 3926   5.353   3.309   1.388  0.3208 -1.3307 -0.0195
 1024SOL     OW 3927   1.696   5.328   3.248 -0.3055  0.4287  0.1544
 1024SOL    HW1 3928   1.784   5.332   3.209 -0.3240 -0.8692 -0.0808
 1024SOL    HW2 3929   1.713   5.330   3.343  0.0363 -0.3498  0.1228
 1025SOL     OW 3930   0.640   6.279   7.377  0.2668  0.1656  0.2984
 1025SOL    HW1 3931   0.595   6.241   7.452 -0.8628  0.5920 -0.1417
 1025SOL    HW2 3932   0.623   6.373   7.385 -0.5967  0.1345 -0.9349
 1026SOL     OW 3933   0.448   2.982   3.286  0.5667 -0.5041  0.0813
 1026SOL    HW1 3934   0.431   2.914   3.221 -0.0552 -0.8153  0.5590
 1026SOL    HW2 3935   0.375   3.043   3.277  0.0510 -0.9568  0.9974
 1027SOL     OW 3936   0.335   6.590   4.976  0.3210  0.0851  0.1867
 1027SOL    HW1 3937   0.324   6.685   4.984  0.0001  0.0632 -0.0097
 1027SOL    HW2 3938   0.349   6.575   4.883  0.1191 -0.0885  0.1838
 1028SOL     OW 3939   1.932   7.082   5.156 -0.4302  0.0679 -0.1864
 1028SOL    HW1 3940   2.005   7.125   5.112  0.0765 -0.0725  0.5142
 1028SOL    HW2 3941   1.854   7.124   5.118  0.0059  0.3497 -0.7936
 1029SOL     OW 3942   2.118   3.663   6.699  0.1653 -0.5236 -0.1656
 1029SOL    HW1 3943   2.128   3.646   6.792 -1.3761 -1.8654 -0.1974
 1029SOL    HW2 3944   2.190   3.615   6.658  1.3278  0.7254  0.3505
 1030SOL     OW 3945   6.411   7.196   0.196  0.3496  0.3210 -0.3876
 1030SOL    HW1 3946   6.344   7.211   0.130 -1.4043  0.1210  1.2714
 1030SOL    HW2 3947   6.435   7.283   0.227 -1.2660  0.3329  0.9822
 1031SOL     OW 3948   1.300   5.403   1.283 -0.6858  0.0182 -0.1912
 1031SOL    HW1 3949   1.283   5.308   1.286  1.3493 -0.4637 -1.5354
 1031SOL    HW2 3950   1.214   5.443   1.276 -1.5452 -1.8137 -0.7291
 1032SOL     OW 3951   7.146   7.977   6.879  0.3205  0.1666  0.2253
 1032SOL    HW1 3952   7.065   7.997   6.927  0.6661  1.2809  0.3523
 1032SOL    HW2 3953   7.212   8.033   6.919  1.3354 -1.2222  0.5897
 1033SOL     OW 3954   2.486   4.915   4.370 -0.1304  0.2951  0.0830
 1033SOL    HW1 3955   2.398   4.876   4.374 -0.6558  1.5144  2.1569
 1033SOL    HW2 3956   2.535   4.858   4.310 -1.5753 -2.0338  0.9571
 1034SOL     OW 3957   6.205   1.620   1.334  0.2065  0.0146  0.6278
 1034SOL    HW1 3958   6.143   1.606   1.262 -0.5132  1.0141  1.0248
 1034SOL    HW2 3959   6.217   1.715   1.337  1.5160 -0.1308  0.7827
 1035SOL     OW 3960   5.995   4.797   5.156  0.2547 -0.1310 -0.6044
 1035SOL    HW1 3961   5.947   4.763   5.232  0.1938  0.0267 -0.5711
 1035SOL    HW2 3962   5.947   4.763   5.080  0.8822 -1.0900 -0.5807
 1036SOL     OW 3963   7.481   4.786   4.616  0.1620  0.4786  0.1779
 1036SOL    HW1 3964   7.463   4.791   4.522 -4.3041  0.1469  0.7805
 1036SOL    HW2 3965   7.433   4.860   4.654 -1.4375 -1.5253  2.4169
 1037SOL     OW 3966   4.407   1.904   1.874  0.2330 -0.3211 -0.1363
 1037SOL    HW1 3967   4.328   1.856   1.848  0.2098 -0.2629 -0.1731
 1037SOL    HW2 3968   4.474   1.837   1.884  0.1385 -0.3904  0.0504
 1038SOL     OW 3969   6.053   0.746   7.587 -0.0264 -0.8084  0.2817
 1038SOL    HW1 3970   6.138   0.777   7.617 -0.5140  1.2610 -0.3148
 1038SOL    HW2 3971   5.993   0.819   7.603 -1.2181 -1.3187 -1.4824
 1039SOL     OW 3972   5.707   2.099   4.775 -0.5121  0.8264  0.1007
 1039SOL    HW1 3973   5.763   2.055   4.711 -0.2576  1.2627  0.0123
 1039SOL    HW2 3974   5.620   2.097   4.736 -0.8029 -0.9084  0.7827
 1040SOL     OW 3975   7.194   4.344   5.709  0.2019 -0.3812 -0.2569
 1040SOL    HW1 3976   7.194   4.414   5.644 -0.3702 -0.6595 -0.5637
 1040SOL    HW2 3977   7.274   4.295   5.692  0.4713  0.0458 -0.2118
 1041SOL     OW 3978   0.079   1.632   3.251  0.5368  0.5394 -0.1994
 1041SOL    HW1 3979   0.053   1.590   3.169  2.4223  0.4966 -0.8386
 1041SOL    HW2 3980   0.174   1.620   3.254  0.6626  1.6703  1.3668
 1042SOL     OW 3981   5.396   0.093   2.878 -0.1040  0.1912  0.2119
 1042SOL    HW1 3982   5.375   0.063   2.790  1.0316 -0.4423  0.1327
 1042SOL    HW2 3983   5.492   0.100   2.878 -0.0665 -0.1402  1.4895
 1043SOL     OW 3984   5.752   6.643   2.241 -0.3433  0.3459 -0.0797
 1043SOL    HW1 3985   5.789   6.556   2.227 -2.5642 -0.6086 -0.3855
 1043SOL    HW2 3986   5.756   6.685   2.154 -0.0480  0.2456 -0.1170
 1044SOL     OW 3987   2.157   4.179   7.023 -0.0816 -0.3810 -0.0495
 1044SOL    HW1 3988   2.070   4.169   7.063 -0.3869 -1.1262 -0.8673
 1044SOL    HW2 3989   2.177   4.272   7.032  0.2774 -0.6298  2.6321
 1045SOL     OW 3990   7.350   5.556   2.905  0.2700 -0.2245  0.2958
 1045SOL    HW1 3991   7.434   5.550   2.860  0.5973  1.1604  0.6666
 1045SOL    HW2 3992   7.367   5.522   2.993  0.3795 -0.2038  0.2824
 1046SOL     OW 3993   6.825   5.198   3.145  0.0484  0.6248  0.5004
 1046SOL    HW1 3994   6.817   5.282   3.189 -2.6504 -0.1068  1.5795
 1046SOL    HW2 3995   6.748   5.193   3.089  1.8887  0.2495 -2.2121
 1047SOL     OW 3996   6.235   4.519   3.426 -0.0110 -0.1213  0.3032
 1047SOL    HW1 3997   6.299   4.455   3.457  0.2833 -0.3704 -0.7654
 1047SOL    HW2 3998   6.203   4.482   3.343  0.4640  1.3070 -0.5448
 1048SOL     OW 3999   7.164   4.358   2.626 -0.1214 -0.2306  0.4167
 1048SOL    HW1 4000   7.102   4.367   2.699  0.9844  2.1288  1.1671
 1048SOL    HW2 4001   7.209   4.442   2.622 -0.1821 -0.1906 -3.0876
 1049SOL     OW 4002   2.149   0.708   4.442 -0.0514 -0.7909  0.4497
 1049SOL    HW1 4003   2.125   0.794   4.408  0.3642 -0.3980  1.1285
 1049SOL    HW2 4004   2.145   0.650   4.365  4.1951  0.6684 -1.1782
 1050SOL     OW 4005   2.702   0.898   7.216  0.3757  0.1717  0.1684
 1050SOL    HW1 4006   2.623   0.854   7.183  0.8736  0.2671 -1.2312
 1050SOL    HW2 4007   2.734   0.840   7.285 -0.1114 -0.6183 -0.2518
 1051SOL     OW 4008   5.915   2.947   0.832 -0.4629  0.3719  0.4596
 1051SOL    HW1 4009   5.927   2.980   0.743  0.7441  2.6686  1.3804
 1051SOL    HW2 4010   5.979   2.877   0.840 -1.9576 -1.2774 -1.0432
 1052SOL     OW 4011   1.480   6.060   5.170  0.3460 -0.2671  0.2476
 1052SOL    HW1 4012   1.398   6.015   5.150  0.0632  0.8688 -1.3755
 1052SOL    HW2 4013   1.548   5.994   5.159 -0.3452 -1.3176  1.9784
 1053SOL     OW 4014   2.924   7.857   2.217 -0.8177 -0.2597 -0.0281
 1053SOL    HW1 4015   2.870   7.908   2.156 -1.5028 -0.9296  0.0080
 1053SOL    HW2 4016   2.925   7.769   2.180 -0.2016 -0.3816  0.2697
 1054SOL     OW 4017   6.869   5.449   5.345 -0.0444  0.5733  0.2907
 1054SOL    HW1 4018   6.902   5.381   5.286  0.6398  1.1555 -0.0041
 1054SOL    HW2 4019   6.821   5.509   5.287 -1.2923 -0.0383  0.6539
 1055SOL     OW 4020   1.751   1.406   7.577 -0.0773  0.3661  0.7222
 1055SOL    HW1 4021   1.810   1.415   7.652  2.1152  0.2296 -0.8999
 1055SOL    HW2 4022   1.780   1.472   7.514  1.2224 -2.4087 -1.8563
 1056SOL     OW 4023   7.488   0.671   1.221 -0.0563  0.8566 -0.0142
 1056SOL    HW1 4024   7.562   0.699   1.275  0.9940 -0.6912 -0.5747
 1056SOL    HW2 4025   7.444   0.604   1.274  0.6829 -0.3053 -0.8174
 1057SOL     OW 4026   6.624   1.413   7.309 -0.0937 -0.9245 -0.2499
 1057SOL    HW1 4027   6.535   1.439   7.330  0.1532 -0.1567 -0.1208
 1057SOL    HW2 4028   6.624   1.318   7.319 -0.8555 -0.9175 -0.1129
 1058SOL     OW 4029   4.187   4.081   0.039 -0.2336  0.4220 -0.4158
 1058SOL    HW1 4030   4.281   4.100   0.033 -0.1035  0.0679  0.3766
 1058SOL    HW2 4031   4.166   4.037  -0.044 -0.0491  1.9031 -1.2693
 1059SOL     OW 4032   5.332   3.960   3.486 -0.0268  0.5752 -0.3032
 1059SOL    HW1 4033   5.278   3.881   3.474 -1.9035  1.7869 -0.1559
 1059SOL    HW2 4034   5.321   4.008   3.404 -1.6100  2.2250  0.8030
 1060SOL     OW 4035   1.975   4.770   2.079  0.0496 -0.1027 -0.1899
 1060SOL    HW1 4036   1.896   4.778   2.027  0.4139 -0.9598 -0.9073
 1060SOL    HW2 4037   1.950   4.717   2.154 -0.5755  1.4669  0.7551
 1061SOL     OW 4038   4.748   5.011   2.003 -0.5665 -0.5890 -0.2038
 1061SOL    HW1 4039   4.757   5.104   2.022  0.8879 -1.2616  3.2874
 1061SOL    HW2 4040   4.681   4.980   2.064  0.2708 -2.0930  0.0249
 1062SOL     OW 4041   1.461   2.273   4.325  0.5642 -0.4408  0.1690
 1062SOL    HW1 4042   1.492   2.349   4.276  0.6552  0.5899  1.7709
 1062SOL    HW2 4043   1.372   2.296   4.351  1.5764  0.4688  3.1909
 1063SOL     OW 4044   1.364   7.675   5.023  0.1772 -0.5472  0.5959
 1063SOL    HW1 4045   1.356   7.707   4.933 -0.4681 -0.6043  0.6278
 1063SOL    HW2 4046   1.378   7.754   5.076  0.0595 -0.4643  0.5025
 1064SOL     OW 4047   4.768   5.872   5.223 -0.1331  0.6972  0.9410
 1064SOL    HW1 4048   4.794   5.837   5.138  1.7722  1.0250  1.3314
 1064SOL    HW2 4049   4.725   5.799   5.268  0.7351 -0.1172  0.4722
 1065SOL     OW 4050   7.593   6.477   6.523 -0.6375  0.0828  0.4508
 1065SOL    HW1 4051   7.613   6.419   6.596  1.6042 -0.7169 -0.7029
 1065SOL    HW2 4052   7.545   6.421   6.461 -0.8632  0.2234  0.4987
 1066SOL     OW 4053   2.459   4.669   2.557 -0.4145 -0.0824 -0.3807
 1066SOL    HW1 4054   2.508   4.741   2.516  1.9495 -1.2688  0.1798
 1066SOL    HW2 4055   2.415   4.626   2.484 -1.9962  1.9158 -0.7221
 1067SOL     OW 4056   2.293   0.358   7.588  0.6114  0.1576 -0.1468
 1067SOL    HW1 4057   2.294   0.452   7.567  0.0172  0.2856  0.3606
 1067SOL    HW2 4058   2.375   0.344   7.637 -0.0924  0.7915  1.2816
 1068SOL     OW 4059   4.731   6.070   3.305 -0.4275 -0.3973 -0.2155
 1068SOL    HW1 4060   4.779   6.042   3.383  0.0485 -1.4988 -0.8776
 1068SOL    HW2 4061   4.722   6.165   3.316 -1.0705 -0.6145  1.5524
 1069SOL     OW 4062   1.150   6.159   0.857 -0.0618  0.0026 -0.1837
 1069SOL    HW1 4063   1.197   6.165   0.774  0.1154  1.4863 -0.0147
 1069SOL    HW2 4064   1.075   6.218   0.845 -0.9450 -1.0299  0.1466
 1070SOL     OW 4065   3.145   6.673   3.925 -0.4749 -0.4702  0.5892
 1070SOL    HW1 4066   3.144   6.764   3.956  0.5284 -0.1649 -0.2393
 1070SOL    HW2 4067   3.052   6.652   3.912 -0.6812  0.7659 -0.1569
 1071SOL     OW 4068   4.409   0.658   0.748  0.3656  0.4753 -0.6085
 1071SOL    HW1 4069   4.383   0.742   0.784 -1.1954 -0.7291  1.2776
 1071SOL    HW2 4070   4.368   0.655   0.662  0.1670  1.4973 -0.5614
 1072SOL     OW 4071   7.078   7.060   2.764 -0.0479 -0.0436 -0.7037
 1072SOL    HW1 4072   7.078   7.022   2.676 -0.3273  2.8011 -2.0547
 1072SOL    HW2 4073   7.147   7.012   2.810  0.8719 -0.9197 -2.8242
 1073SOL     OW 4074   1.513   2.709   7.149 -0.4524 -0.0700 -0.3075
 1073SOL    HW1 4075   1.532   2.720   7.242 -0.5643  0.0054 -0.2940
 1073SOL    HW2 4076   1.419   2.722   7.141 -0.3932  0.2564 -0.4821
 1074SOL     OW 4077   7.685   7.388   3.410  0.2831  0.5644 -0.0050
 1074SOL    HW1 4078   7.628   7.350   3.477  0.5784  0.9434  0.4682
 1074SOL    HW2 4079   7.643   7.470   3.387 -0.6791 -0.2934 -1.4697
 1075SOL     OW 4080   7.759   6.323   1.276 -0.4826 -0.0359  0.1726
 1075SOL    HW1 4081   7.711   6.267   1.338 -1.2877 -2.7254 -2.6188
 1075SOL    HW2 4082   7.810   6.261   1.223  0.6764  2.1864 -1.4514
 1076SOL     OW 4083   6.043   7.865   2.926  0.2300  0.6531  0.0698
 1076SOL    HW1 4084   5.953   7.838   2.911  1.2472 -1.8876 -2.1509
 1076SOL    HW2 4085   6.077   7.803   2.990  0.9399  0.2997 -0.6264
 1077SOL     OW 4086   7.865   0.479   6.647  0.4716 -0.7344 -0.5213
 1077SOL    HW1 4087   7.924   0.531   6.702  0.7064  1.5034 -2.7380
 1077SOL    HW2 4088   7.778   0.515   6.664  0.2007 -1.6261  0.0738
 1078SOL     OW 4089   2.297   3.180   1.146 -0.1741 -0.4218 -0.3521
 1078SOL    HW1 4090   2.315   3.273   1.137  0.6908 -0.4485  0.7662
 1078SOL    HW2 4091   2.258   3.154   1.063  1.7645  0.4327 -1.5790
 1079SOL     OW 4092   7.730   7.707   1.592 -1.0089  0.7317  0.1227
 1079SOL    HW1 4093   7.688   7.704   1.677  1.1837  1.7198  1.3213
 1079SOL    HW2 4094   7.706   7.792   1.556 -1.0228  0.7875  0.2652
 1080SOL     OW 4095   0.074   1.703   3.826  0.2484  0.2942 -0.3061
 1080SOL    HW1 4096   0.052   1.748   3.744 -1.7536 -0.1045 -0.0529
 1080SOL    HW2 4097   0.156   1.743   3.854  0.2994  1.3630 -1.8342
 1081SOL     OW 4098   4.070   7.713   7.024  0.3826 -0.0341  0.1100
 1081SOL    HW1 4099   4.135   7.745   7.086  0.2198  1.4078 -0.4120
 1081SOL    HW2 4100   4.119   7.696   6.944  0.3884 -0.6213  0.2392
 1082SOL     OW 4101   4.707   0.108   1.335  0.1526 -0.1790 -0.1437
 1082SOL    HW1 4102   4.771   0.170   1.301 -0.2326 -1.3182 -3.2861
 1082SOL    HW2 4103   4.622   0.145   1.311 -0.3523  0.3508  2.2334
 1083SOL     OW 4104   0.858   7.005   5.428 -0.4561 -0.2442  0.3608
 1083SOL    HW1 4105   0.841   6.974   5.339  0.3801 -0.2485  0.1950
 1083SOL    HW2 4106   0.772   7.001   5.472 -0.7776 -0.7034 -0.2955
 1084SOL     OW 4107   0.703   4.497   4.389 -0.0742  0.5394  0.0696
 1084SOL    HW1 4108   0.754   4.461   4.317  0.3982 -2.4094  1.7127
 1084SOL    HW2 4109   0.612   4.475   4.367  0.1385 -1.1257  0.6588
 1085SOL     OW 4110   7.623   7.421   2.768  0.0505  0.7424  0.3551
 1085SOL    HW1 4111   7.579   7.338   2.751  0.2595  0.7957 -0.4588
 1085SOL    HW2 4112   7.616   7.433   2.863 -0.0192 -0.1787  0.4696
 1086SOL     OW 4113   5.885   1.311   3.945 -0.1678  0.0155 -0.9860
 1086SOL    HW1 4114   5.872   1.389   3.999  0.0641 -0.5095 -0.1491
 1086SOL    HW2 4115   5.806   1.306   3.891 -1.0056 -0.1359  0.1980
 1087SOL     OW 4116   4.344   7.089   1.590 -0.4991 -0.4789  0.1562
 1087SOL    HW1 4117   4.304   7.021   1.645 -0.7896 -0.4820 -0.0571
 1087SOL    HW2 4118   4.379   7.153   1.653  1.2437 -1.6248  0.4130
 1088SOL     OW 4119   1.079   1.532   5.811  0.2385 -0.3701  0.0318
 1088SOL    HW1 4120   1.169   1.518   5.839  0.3947  1.6812  0.7704
 1088SOL    HW2 4121   1.087   1.574   5.725  0.0085 -0.1533  0.1141
 1089SOL     OW 4122   7.605   4.075   6.476  0.0310 -0.2824  0.2215
 1089SOL    HW1 4123   7.537   4.127   6.518  0.0144 -0.8079  0.8569
 1089SOL    HW2 4124   7.687   4.111   6.509  0.0292 -0.4267  0.3832
 1090SOL     OW 4125   2.457   4.503   0.767 -0.2876  0.6500  0.0066
 1090SOL    HW1 4126   2.529   4.546   0.720 -0.1612  0.7573  0.2978
 1090SOL    HW2 4127   2.496   4.425   0.805 -0.8477 -0.5830 -1.7864
 1091SOL     OW 4128   0.386   3.990   7.146 -0.3443  0.1653  0.2001
 1091SOL    HW1 4129   0.410   3.898   7.132 -0.0109  0.0065  1.6873
 1091SOL    HW2 4130   0.460   4.040   7.111 -0.4200 -0.1371 -0.3948
 1092SOL     OW 4131   5.102   4.178   7.142 -0.6494  0.0265  0.4973
 1092SOL    HW1 4132   5.190   4.185   7.104 -1.1567  0.1765 -0.6766
 1092SOL    HW2 4133   5.106   4.234   7.220  0.2882  0.0499  0.4486
 1093SOL     OW 4134   5.705   1.436   0.528 -0.3311 -0.0764  0.6423
 1093SOL    HW1 4135   5.731   1.355   0.572 -0.8292 -0.2285  0.6656
 1093SOL    HW2 4136   5.667   1.490   0.598  2.3096  1.2573  1.1792
 1094SOL     OW 4137   1.338   1.233   7.322  0.7659  0.2659  0.2767
 1094SOL    HW1 4138   1.385   1.311   7.352  1.0197  0.4632 -0.6096
 1094SOL    HW2 4139   1.262   1.227   7.380  0.7263  1.2001  0.3333
 1095SOL     OW 4140   7.160   4.914   3.544  0.1462 -0.4571 -0.0177
 1095SOL    HW1 4141   7.169   4.979   3.474 -1.4245 -1.6230 -1.3901
 1095SOL    HW2 4142   7.148   4.831   3.498 -2.3768 -1.0784  1.5614
 1096SOL     OW 4143   4.750   1.615   3.449  0.2282 -0.1908  1.0318
 1096SOL    HW1 4144   4.739   1.640   3.541  1.5163 -0.8766  1.4136
 1096SOL    HW2 4145   4.766   1.697   3.403 -2.0543  0.3551  1.0991
 1097SOL     OW 4146   6.118   3.005   7.278  0.3806 -0.2102 -0.6999
 1097SOL    HW1 4147   6.037   3.035   7.319 -0.1675 -0.6535 -1.4373
 1097SOL    HW2 4148   6.139   2.923   7.324  1.4348  0.8311  0.7544
 1098SOL     OW 4149   7.033   2.287   0.001  0.2257 -0.3787  0.2780
 1098SOL    HW1 4150   6.950   2.270  -0.044  0.6845 -0.3886 -0.5887
 1098SOL    HW2 4151   7.009   2.344   0.074 -0.3997  0.5879 -0.6427
 1099SOL     OW 4152   2.386   3.653   6.214  0.5879 -0.0675 -0.0088
 1099SOL    HW1 4153   2.388   3.566   6.255  1.9581 -0.3485 -0.6195
 1099SOL    HW2 4154   2.344   3.639   6.129  1.3726 -0.2579 -0.3683
 1100SOL     OW 4155   3.525   0.050   3.845  0.0910 -0.2992 -0.0107
 1100SOL    HW1 4156   3.467  -0.019   3.813 -0.1760 -1.3646  2.5612
 1100SOL    HW2 4157   3.470   0.128   3.849  0.2366  0.0026 -2.3505
 1101SOL     OW 4158   5.522   5.833   4.638 -0.0887  0.2508  0.0536
 1101SOL    HW1 4159   5.561   5.753   4.673  0.2494 -0.4507 -1.7806
 1101SOL    HW2 4160   5.586   5.902   4.656 -0.5081  0.2000  1.8987
 1102SOL     OW 4161   0.429   4.395   3.646 -0.0393  0.3867 -0.1542
 1102SOL    HW1 4162   0.394   4.311   3.675 -0.6336  0.3899 -0.8268
 1102SOL    HW2 4163   0.362   4.429   3.586  1.0464  0.4592 -1.3651
 1103SOL     OW 4164   7.206   6.536   4.065 -0.2529  0.1381  0.4978
 1103SOL    HW1 4165   7.266   6.479   4.017 -0.4871  0.0242  0.3399
 1103SOL    HW2 4166   7.119   6.505   4.042 -0.5053  2.0052 -1.4642
 1104SOL     OW 4167   6.316   7.944   3.834 -0.2121  0.2946 -0.0258
 1104SOL    HW1 4168   6.304   8.019   3.892 -1.0754 -1.7714  2.7167
 1104SOL    HW2 4169   6.229   7.930   3.795  0.3878  1.7340 -2.0345
 1105SOL     OW 4170   0.728   5.964   3.552 -0.3155 -0.7504  0.4197
 1105SOL    HW1 4171   0.684   5.888   3.588  0.6894 -1.0023  1.1753
 1105SOL    HW2 4172   0.803   5.978   3.610 -0.1955  0.4996 -0.0066
 1106SOL     OW 4173   5.312   2.874   2.101 -0.5083 -0.2666 -0.2210
 1106SOL    HW1 4174   5.342   2.860   2.011 -0.1391 -0.1605 -0.1164
 1106SOL    HW2 4175   5.392   2.874   2.153 -0.7996 -1.6165  0.2775
 1107SOL     OW 4176   3.290   1.503   1.494  0.6831  0.3090  0.0638
 1107SOL    HW1 4177   3.363   1.505   1.432  1.8255  0.8355  1.3955
 1107SOL    HW2 4178   3.220   1.551   1.449  1.5730  0.9162 -0.7205
 1108SOL     OW 4179   7.213   3.187   3.376 -0.2926 -0.2646  0.2735
 1108SOL    HW1 4180   7.282   3.124   3.357 -1.9228 -1.9952 -0.2807
 1108SOL    HW2 4181   7.212   3.196   3.471  0.9633  0.1562  0.2595
 1109SOL     OW 4182   1.988   5.640   2.217  0.2627  0.0120 -0.4542
 1109SOL    HW1 4183   1.991   5.730   2.186 -1.0899 -0.6103 -2.6529
 1109SOL    HW2 4184   1.921   5.640   2.285  1.1327  0.8700  0.4189
 1110SOL     OW 4185   7.867   0.586   0.585 -0.0864  0.5511 -0.2100
 1110SOL    HW1 4186   7.810   0.570   0.660  0.6103  0.1045  0.2365
 1110SOL    HW2 4187   7.831   0.531   0.515  0.4613 -0.6166  0.4033
 1111SOL     OW 4188   1.853   2.201   4.100 -0.1031  0.4621 -0.0756
 1111SOL    HW1 4189   1.768   2.179   4.138 -0.5761  0.4594 -1.1033
 1111SOL    HW2 4190   1.916   2.180   4.169 -0.9263  0.3836  0.6689
 1112SOL     OW 4191   0.294   4.371   6.210  0.2401 -0.3492 -0.1644
 1112SOL    HW1 4192   0.296   4.433   6.283 -0.8695  0.6720 -0.9516
 1112SOL    HW2 4193   0.374   4.389   6.161 -0.3728  0.9161 -0.7278
 1113SOL     OW 4194   3.555   3.208   6.189  0.3388  0.0183 -0.4310
 1113SOL    HW1 4195   3.637   3.256   6.181 -0.1613  1.0429  0.4249
 1113SOL    HW2 4196   3.490   3.273   6.215 -1.3463 -0.2259 -3.5147
 1114SOL     OW 4197   6.026   6.528   3.102  0.4618 -0.2861  0.4189
 1114SOL    HW1 4198   6.012   6.539   3.196  0.0032  1.6493  0.1637
 1114SOL    HW2 4199   6.028   6.617   3.067  1.0855 -0.9497 -1.3511
 1115SOL     OW 4200   7.125   7.315   2.123  0.2722 -0.4483  0.2039
 1115SOL    HW1 4201   7.117   7.410   2.136  0.3567 -0.4660  0.3784
 1115SOL    HW2 4202   7.044   7.279   2.158  0.5480 -0.5067  0.7878
 1116SOL     OW 4203   1.429   3.908   4.231 -0.6656 -0.2053  0.0097
 1116SOL    HW1 4204   1.421   3.882   4.322 -0.4164  0.5553  0.2562
 1116SOL    HW2 4205   1.398   3.832   4.181  1.6940 -1.7002  0.6363
 1117SOL     OW 4206   0.043   2.541   3.528  0.2251  0.2427  0.0460
 1117SOL    HW1 4207   0.115   2.478   3.524 -1.1764 -1.3755 -2.1677
 1117SOL    HW2 4208   0.062   2.604   3.460  0.8509  1.4031  1.2514
 1118SOL     OW 4209   1.051   1.050   7.033 -0.0606  0.3476  0.5263
 1118SOL    HW1 4210   0.991   1.104   7.084 -1.8165 -1.0853  0.1154
 1118SOL    HW2 4211   1.059   1.095   6.949 -0.0262  0.8878  0.8146
 1119SOL     OW 4212   0.813   7.756   3.558 -0.1292  0.4265  0.1600
 1119SOL    HW1 4213   0.751   7.730   3.626 -0.1094  0.7743  0.3143
 1119SOL    HW2 4214   0.758   7.795   3.490 -0.2092 -0.4517 -0.2907
 1120SOL     OW 4215   4.458   3.326   1.540  0.2122  0.1315  0.1138
 1120SOL    HW1 4216   4.467   3.232   1.558 -0.8509  0.0430  0.2664
 1120SOL    HW2 4217   4.437   3.331   1.447 -2.4736 -0.0068  0.6502
 1121SOL     OW 4218   5.722   0.291   0.067 -0.0759 -0.3122 -0.5837
 1121SOL    HW1 4219   5.638   0.265   0.029  0.0003  0.5328 -1.3623
 1121SOL    HW2 4220   5.743   0.374   0.025  1.5946 -0.9465 -1.0678
 1122SOL     OW 4221   7.923   6.486   6.811 -0.4887  0.1966  0.2066
 1122SOL    HW1 4222   7.952   6.436   6.887 -0.8260 -1.5194 -0.7370
 1122SOL    HW2 4223   8.003   6.501   6.760 -0.4283  0.3864  0.3564
 1123SOL     OW 4224   3.041   4.239   4.766  0.0524 -0.0310  0.1222
 1123SOL    HW1 4225   3.002   4.295   4.832 -1.2225 -1.2739  0.4749
 1123SOL    HW2 4226   3.135   4.237   4.787 -0.2544  0.0085  1.5814
 1124SOL     OW 4227   0.310   4.647   7.107  0.4687  0.0409 -0.2668
 1124SOL    HW1 4228   0.316   4.559   7.145  0.8809  0.7368  1.3972
 1124SOL    HW2 4229   0.376   4.648   7.038  0.5907 -0.8925 -0.1788
 1125SOL     OW 4230   5.414   4.104   6.658 -0.3943 -0.3019  0.0840
 1125SOL    HW1 4231   5.418   4.199   6.665  1.4600 -0.4021  0.9362
 1125SOL    HW2 4232   5.331   4.081   6.698 -0.9889  0.9722 -0.3586
 1126SOL     OW 4233   7.237   6.589   2.824  0.1478 -0.4013 -0.1582
 1126SOL    HW1 4234   7.161   6.553   2.869  0.1159  1.8697  1.8250
 1126SOL    HW2 4235   7.310   6.534   2.851 -0.4822 -1.4947 -0.6121
 1127SOL     OW 4236   7.296   3.628   3.554 -0.2882  0.5039  0.5339
 1127SOL    HW1 4237   7.392   3.618   3.551 -0.1505  0.9894  2.2906
 1127SOL    HW2 4238   7.265   3.548   3.595 -0.6290  0.4380  0.1549
 1128SOL     OW 4239   2.568   5.190   4.447 -0.3074 -0.0083  0.2880
 1128SOL    HW1 4240   2.516   5.209   4.368  0.0830 -0.4163 -0.0750
 1128SOL    HW2 4241   2.569   5.095   4.452  2.5533 -0.1643 -1.2071
 1129SOL     OW 4242   4.198   5.045   2.939  0.0992  0.5597  0.6976
 1129SOL    HW1 4243   4.215   5.079   3.027 -2.1211 -0.2545  1.4970
 1129SOL    HW2 4244   4.170   5.122   2.889 -1.4289  0.5846  1.5268
 1130SOL     OW 4245   2.508   1.821   6.119  0.2037  0.1088 -0.1545
 1130SOL    HW1 4246   2.484   1.913   6.135 -0.2771 -0.3749  2.3352
 1130SOL    HW2 4247   2.538   1.789   6.204 -1.3521 -2.5423 -0.4931
 1131SOL     OW 4248   5.652   7.776   0.260  0.0565  0.0253  0.2849
 1131SOL    HW1 4249   5.597   7.744   0.332 -0.0530  0.2568  0.3025
 1131SOL    HW2 4250   5.731   7.809   0.302  0.9610 -1.8148  0.1639
 1132SOL     OW 4251   7.876   0.624   2.638 -0.1063  0.0770 -0.2978
 1132SOL    HW1 4252   7.956   0.653   2.681 -0.3832  0.8473 -0.2734
 1132SOL    HW2 4253   7.844   0.552   2.692  0.5765 -0.2563 -0.3253
 1133SOL     OW 4254   2.538   7.042   4.426  0.4307  0.0208  0.4840
 1133SOL    HW1 4255   2.555   6.957   4.386  0.8059  1.1086 -1.8506
 1133SOL    HW2 4256   2.512   7.022   4.516 -1.4808 -2.6898 -0.5438
 1134SOL     OW 4257   2.048   2.502   2.665  0.2716  0.0385  1.2005
 1134SOL    HW1 4258   1.985   2.451   2.716 -1.0208 -1.5594 -1.7780
 1134SOL    HW2 4259   2.129   2.450   2.668  0.3536  0.1991  1.9563
 1135SOL     OW 4260   0.398   6.870   1.153  0.1088  0.7435 -0.2693
 1135SOL    HW1 4261   0.368   6.960   1.157  1.1662  1.0876  0.2267
 1135SOL    HW2 4262   0.461   6.862   1.225 -2.0051 -1.1717  1.5575
 1136SOL     OW 4263   7.209   1.317   4.070 -0.2419  0.1424 -0.9903
 1136SOL    HW1 4264   7.122   1.297   4.034 -0.1459 -0.3626 -0.9424
 1136SOL    HW2 4265   7.256   1.234   4.069 -0.6621 -0.2072  1.5400
 1137SOL     OW 4266   6.477   6.625   5.262  0.6528  0.0688  0.2310
 1137SOL    HW1 4267   6.423   6.650   5.336 -0.7615 -0.0274 -0.7410
 1137SOL    HW2 4268   6.567   6.630   5.296  0.0918  0.7276  1.7224
 1138SOL     OW 4269   5.042   0.990   1.493  0.6027  0.2995 -0.4710
 1138SOL    HW1 4270   5.062   1.074   1.535 -0.9499  0.8960 -0.8793
 1138SOL    HW2 4271   4.948   0.992   1.476  0.9718 -0.3628 -3.0199
 1139SOL     OW 4272   5.176   3.874   3.741 -0.2014  0.0247 -0.1935
 1139SOL    HW1 4273   5.095   3.841   3.702  0.3201  0.1107 -1.3925
 1139SOL    HW2 4274   5.196   3.952   3.691 -0.0300  0.7203  0.9239
 1140SOL     OW 4275   7.040   0.773   1.986  0.4633 -0.0928  0.4081
 1140SOL    HW1 4276   6.997   0.837   1.930  2.1764  0.0049 -0.8538
 1140SOL    HW2 4277   7.121   0.814   2.014  0.3395 -0.7125  1.7856
 1141SOL     OW 4278   1.201   6.719   5.594 -0.4474  0.6467 -0.1195
 1141SOL    HW1 4279   1.166   6.787   5.537  0.3622  0.2711 -1.0749
 1141SOL    HW2 4280   1.241   6.656   5.535  0.0769  0.0550  0.8452
 1142SOL     OW 4281   5.394   7.143   3.833 -0.5207  0.1165 -0.5914
 1142SOL    HW1 4282   5.301   7.126   3.821 -0.1360 -2.4619 -0.5053
 1142SOL    HW2 4283   5.403   7.168   3.925 -1.0017 -0.8173 -0.2809
 1143SOL     OW 4284   4.191   7.588   6.788 -0.0141 -0.3390  0.1563
 1143SOL    HW1 4285   4.224   7.508   6.746  0.0658 -1.0009  1.4316
 1143SOL    HW2 4286   4.269   7.630   6.824 -0.2929 -0.9813  1.6152
 1144SOL     OW 4287   2.380   1.701   1.206  0.0853  0.0480  0.6487
 1144SOL    HW1 4288   2.308   1.752   1.244 -1.2992 -0.0811 -1.5718
 1144SOL    HW2 4289   2.457   1.756   1.218 -1.1398  2.1702 -0.5165
 1145SOL     OW 4290   1.120   4.641   1.265  0.4128  0.0902  0.3233
 1145SOL    HW1 4291   1.069   4.657   1.344 -1.8643 -0.4828 -0.9396
 1145SOL    HW2 4292   1.153   4.551   1.276 -0.3922 -0.2034  0.3603
 1146SOL     OW 4293   0.211   3.991   2.717 -0.0082 -0.5686 -0.3589
 1146SOL    HW1 4294   0.230   3.927   2.648 -1.0132 -1.3004  0.0183
 1146SOL    HW2 4295   0.239   4.075   2.681  0.4865 -1.0955 -1.2239
 1147SOL     OW 4296   4.529   7.913   6.107 -0.1327 -0.0344  0.1919
 1147SOL    HW1 4297   4.556   7.852   6.176 -0.9083  1.1889  1.6283
 1147SOL    HW2 4298   4.608   7.965   6.090  0.9179 -2.1450 -1.9300
 1148SOL     OW 4299   5.714   4.761   5.277 -0.0982 -0.2965 -0.1934
 1148SOL    HW1 4300   5.666   4.755   5.194  0.1535 -0.0387 -0.3606
 1148SOL    HW2 4301   5.703   4.675   5.318 -0.6996 -0.2373 -0.2313
 1149SOL     OW 4302   0.591   4.768   3.776  0.3579 -0.4774 -0.2155
 1149SOL    HW1 4303   0.562   4.829   3.843 -0.5546 -0.7641 -0.3321
 1149SOL    HW2 4304   0.659   4.815   3.727  0.3397  0.0827  0.2938
 1150SOL     OW 4305   1.996   2.647   4.196 -0.6729 -0.2863  0.0403
 1150SOL    HW1 4306   1.977   2.575   4.136 -0.7747 -1.7749  1.7589
 1150SOL    HW2 4307   1.967   2.615   4.281  0.0540  1.4853  1.0025
 1151SOL     OW 4308   4.131   0.295   7.391 -0.1704 -0.2706  0.0768
 1151SOL    HW1 4309   4.203   0.308   7.453  0.2346 -1.0535 -0.2175
 1151SOL    HW2 4310   4.170   0.313   7.305 -0.0509 -1.6751 -0.1792
 1152SOL     OW 4311   6.883   1.637   0.006  0.5014  0.5027 -0.0623
 1152SOL    HW1 4312   6.915   1.550  -0.021 -0.1974 -0.1664  1.1770
 1152SOL    HW2 4313   6.811   1.656  -0.055 -0.8904 -0.8755  1.0490
 1153SOL     OW 4314   1.295   4.321   0.595 -0.1492 -0.1943  0.3517
 1153SOL    HW1 4315   1.257   4.296   0.679  0.4386 -0.1057  0.6505
 1153SOL    HW2 4316   1.340   4.243   0.564 -0.6911 -0.3453 -0.0754
 1154SOL     OW 4317   0.501   1.250   6.339  0.1319  0.4165  0.0074
 1154SOL    HW1 4318   0.460   1.170   6.308 -1.1022  1.0107  0.0504
 1154SOL    HW2 4319   0.428   1.307   6.365  1.0268  0.6981  2.1496
 1155SOL     OW 4320   3.731   6.119   3.018  0.0248 -0.0996 -0.1034
 1155SOL    HW1 4321   3.651   6.067   3.027  0.6882 -1.1293  0.1478
 1155SOL    HW2 4322   3.788   6.065   2.964  1.0571 -0.0330  0.8710
 1156SOL     OW 4323   4.873   2.005   3.988 -0.0222 -0.4704 -0.0693
 1156SOL    HW1 4324   4.939   2.055   4.035 -0.6653  1.3638 -1.0034
 1156SOL    HW2 4325   4.908   1.917   3.983  0.7503 -0.3877  2.4663
 1157SOL     OW 4326   0.746   6.567   4.258 -0.0178  0.2970  0.4456
 1157SOL    HW1 4327   0.816   6.504   4.239  0.0342 -0.4568  2.8012
 1157SOL    HW2 4328   0.671   6.536   4.208  0.7941  0.0094 -0.6217
 1158SOL     OW 4329   7.488   6.357   2.879  0.7293 -0.0720  0.5318
 1158SOL    HW1 4330   7.459   6.275   2.919  2.2287 -1.9194 -1.9554
 1158SOL    HW2 4331   7.573   6.375   2.920 -0.1920  1.0792  2.0681
 1159SOL     OW 4332   1.611   6.560   1.659 -0.3772  0.6855 -0.2651
 1159SOL    HW1 4333   1.520   6.564   1.630 -0.3624  1.0847 -0.2627
 1159SOL    HW2 4334   1.630   6.648   1.692  0.7825  1.4144 -2.6547
 1160SOL     OW 4335   5.288   5.491   1.362  0.3634 -0.5396 -0.0095
 1160SOL    HW1 4336   5.336   5.528   1.436  0.1668 -2.1418  0.9524
 1160SOL    HW2 4337   5.224   5.559   1.339  0.6193  0.1007  1.1020
 1161SOL     OW 4338   7.022   0.957   5.904 -0.1903 -0.4291  0.0649
 1161SOL    HW1 4339   6.977   0.879   5.871  1.1842 -0.9625 -0.6186
 1161SOL    HW2 4340   6.982   0.974   5.989  0.3285 -2.6470  0.8126
 1162SOL     OW 4341   4.157   3.570   1.039 -0.1360 -0.0032 -0.6455
 1162SOL    HW1 4342   4.227   3.508   1.021  1.0871  1.2109 -0.1741
 1162SOL    HW2 4343   4.081   3.533   0.993  1.2727 -0.3161 -2.9096
 1163SOL     OW 4344   7.776   5.624   5.217  0.8266 -0.4959  0.2731
 1163SOL    HW1 4345   7.698   5.666   5.252  1.3222  0.1681  0.6093
 1163SOL    HW2 4346   7.847   5.655   5.273  1.3384 -1.0507 -0.0566
 1164SOL     OW 4347   5.795   4.264   7.415  0.2790  0.1882  0.2844
 1164SOL    HW1 4348   5.871   4.276   7.357 -0.6493  0.2311 -0.9559
 1164SOL    HW2 4349   5.747   4.346   7.407  0.4178  0.4125  1.5776
 1165SOL     OW 4350   0.262   1.210   2.077  0.2752  0.0445  0.0728
 1165SOL    HW1 4351   0.233   1.218   2.168  0.5214  1.3577  0.0501
 1165SOL    HW2 4352   0.355   1.186   2.083  0.8435  2.1041  0.2208
 1166SOL     OW 4353   5.491   5.365   4.352  0.3870 -0.5116 -0.3052
 1166SOL    HW1 4354   5.459   5.298   4.292 -1.3301  1.6346 -1.9653
 1166SOL    HW2 4355   5.506   5.442   4.297 -0.7829  1.4381  1.9143
 1167SOL     OW 4356   2.279   2.223   4.735  0.5422 -0.2266  0.2609
 1167SOL    HW1 4357   2.190   2.234   4.701  0.7471  0.2997 -0.1253
 1167SOL    HW2 4358   2.273   2.149   4.794 -0.0173 -0.6090 -0.2619
 1168SOL     OW 4359   4.486   3.921   2.271  0.1999 -0.8076  0.4666
 1168SOL    HW1 4360   4.479   3.960   2.358 -0.1333  1.1729 -0.4021
 1168SOL    HW2 4361   4.524   3.990   2.216 -1.3980 -1.2956 -1.3811
 1169SOL     OW 4362   6.734   1.103   0.755 -0.1718  0.4919 -0.4508
 1169SOL    HW1 4363   6.652   1.055   0.769  0.1193  0.0065 -0.3976
 1169SOL    HW2 4364   6.712   1.194   0.776 -0.8172  0.4438 -0.8944
 1170SOL     OW 4365   2.489   6.598   0.518 -0.6018 -0.1516  0.5755
 1170SOL    HW1 4366   2.573   6.554   0.503 -0.3587  0.5261 -0.1007
 1170SOL    HW2 4367   2.424   6.538   0.482 -0.1822  0.5393 -1.4444
 1171SOL     OW 4368   2.512   0.743   1.918 -0.0131  0.3480  0.1742
 1171SOL    HW1 4369   2.505   0.712   2.009  1.7536  0.1821  0.2924
 1171SOL    HW2 4370   2.458   0.683   1.868  0.6673 -0.8731  0.8511
 1172SOL     OW 4371   5.395   2.656   6.729  0.2358 -0.2498  0.1884
 1172SOL    HW1 4372   5.407   2.670   6.635  0.8819  0.4767  0.3689
 1172SOL    HW2 4373   5.301   2.638   6.739  0.1700 -0.3615 -0.5946
 1173SOL     OW 4374   2.198   7.242   0.804 -0.5906  0.1870  0.0889
 1173SOL    HW1 4375   2.270   7.188   0.770 -0.7658  0.1116 -0.1668
 1173SOL    HW2 4376   2.121   7.210   0.759 -0.6096  1.0477 -0.5241
 1174SOL     OW 4377   5.166   4.623   6.819  0.2158 -0.0119 -0.3377
 1174SOL    HW1 4378   5.224   4.654   6.890 -0.1220 -0.6103  0.2117
 1174SOL    HW2 4379   5.122   4.702   6.789  0.6841  0.3209 -0.1743
 1175SOL     OW 4380   7.440   4.217   1.712  0.6539 -0.1026  0.0567
 1175SOL    HW1 4381   7.412   4.303   1.681  0.1722  0.2215  1.3196
 1175SOL    HW2 4382   7.535   4.216   1.696  0.7697  0.9078  0.5754
 1176SOL     OW 4383   1.051   3.652   1.099 -0.2338  0.0609  0.7574
 1176SOL    HW1 4384   1.058   3.629   1.006  0.3508 -0.7326  0.9878
 1176SOL    HW2 4385   1.055   3.748   1.100  0.8113  0.0425  0.0442
 1177SOL     OW 4386   5.035   3.324   4.271 -0.7473 -0.1105 -0.3320
 1177SOL    HW1 4387   5.036   3.320   4.175  2.0768 -0.7085 -0.3531
 1177SOL    HW2 4388   5.110   3.379   4.294 -0.9826 -0.5203  1.5456
 1178SOL     OW 4389   7.659   2.571   2.825  0.0398 -0.1218 -0.1931
 1178SOL    HW1 4390   7.651   2.619   2.907  2.2746  0.3857 -0.2057
 1178SOL    HW2 4391   7.587   2.603   2.771  0.8040  2.4526  0.1883
 1179SOL     OW 4392   6.049   5.775   7.987  0.0356  0.5622 -0.5565
 1179SOL    HW1 4393   5.999   5.702   8.023 -0.3550  1.0676 -0.0694
 1179SOL    HW2 4394   6.081   5.743   7.903 -0.5929  0.0252 -0.5942
 1180SOL     OW 4395   2.059   4.349   2.875 -0.6163 -0.0586  0.6839
 1180SOL    HW1 4396   1.981   4.359   2.820  0.0888  0.1951 -0.2955
 1180SOL    HW2 4397   2.106   4.432   2.865 -0.4055 -0.0666  1.5611
 1181SOL     OW 4398   5.101   2.465   5.774  0.4212 -0.1735  0.4491
 1181SOL    HW1 4399   5.028   2.438   5.828  0.2666 -1.4067 -0.3404
 1181SOL    HW2 4400   5.092   2.414   5.693  1.3212  0.7205 -0.2507
 1182SOL     OW 4401   3.723   5.250   3.937 -0.5660  0.2486 -0.2353
 1182SOL    HW1 4402   3.633   5.278   3.921 -0.4813 -0.1719 -1.6350
 1182SOL    HW2 4403   3.715   5.163   3.976 -0.7901  1.3717  2.4245
 1183SOL     OW 4404   0.686   6.701   2.684  0.3184  0.2037 -0.3524
 1183SOL    HW1 4405   0.690   6.613   2.646  1.7161  0.7893 -1.6121
 1183SOL    HW2 4406   0.732   6.693   2.767  1.8722  0.0764 -1.1951
 1184SOL     OW 4407   3.217   5.994   6.468 -0.2605 -0.1884  0.7141
 1184SOL    HW1 4408   3.260   5.930   6.411 -1.3031 -1.8785  1.7281
 1184SOL    HW2 4409   3.123   5.974   6.458 -0.5269  0.3523  2.0123
 1185SOL     OW 4410   2.395   3.566   0.328 -0.1534 -0.2980  0.1717
 1185SOL    HW1 4411   2.439   3.641   0.368  1.4083 -0.2308 -1.5015
 1185SOL    HW2 4412   2.306   3.569   0.362  0.4235  1.1136  1.7074
 1186SOL     OW 4413   2.155   6.081   3.299 -0.3150  0.4522 -0.2223
 1186SOL    HW1 4414   2.186   6.012   3.358 -0.2912  0.2931 -0.4168
 1186SOL    HW2 4415   2.234   6.113   3.256 -0.4445 -0.2464 -1.0317
 1187SOL     OW 4416   0.652   5.944   5.999  0.1972 -0.1509  0.2622
 1187SOL    HW1 4417   0.643   6.004   5.924  1.2569  0.3044  0.4722
 1187SOL    HW2 4418   0.573   5.890   5.997 -0.6305  1.0366 -0.1366
 1188SOL     OW 4419   2.480   1.999   4.252 -0.0075  0.3407  0.1854
 1188SOL    HW1 4420   2.456   1.908   4.234 -1.8825  1.2721 -2.7940
 1188SOL    HW2 4421   2.399   2.040   4.281  0.4592  1.3657  0.0888
 1189SOL     OW 4422   6.113   6.319   0.761  0.4144  0.1980 -0.4439
 1189SOL    HW1 4423   6.183   6.265   0.724  0.3866  1.0400 -1.7693
 1189SOL    HW2 4424   6.058   6.342   0.687 -0.7876  0.2892  0.4453
 1190SOL     OW 4425   1.545   7.979   0.433 -0.6916  0.1074 -0.2179
 1190SOL    HW1 4426   1.515   8.069   0.447 -1.3826 -0.2918  1.0748
 1190SOL    HW2 4427   1.496   7.950   0.355 -1.4270  0.4417  0.1059
 1191SOL     OW 4428   7.761   5.067   2.475 -0.3964  0.2595  0.4729
 1191SOL    HW1 4429   7.761   5.025   2.389 -1.3439  1.7909 -0.3181
 1191SOL    HW2 4430   7.678   5.042   2.515 -0.6525  0.7915  0.2862
 1192SOL     OW 4431   7.726   5.238   4.623 -0.3487  0.4493 -0.4968
 1192SOL    HW1 4432   7.644   5.240   4.673 -0.0318  0.3284  0.0411
 1192SOL    HW2 4433   7.763   5.325   4.634 -0.0495  0.2782 -0.1253
 1193SOL     OW 4434   5.082   4.864   5.973  0.1338  0.0684  0.2446
 1193SOL    HW1 4435   5.113   4.850   6.063 -0.5988 -0.7722  0.3929
 1193SOL    HW2 4436   5.135   4.936   5.939 -0.8958  1.7794  2.0279
 1194SOL     OW 4437   7.327   6.202   0.661 -0.5309  0.3479  0.1710
 1194SOL    HW1 4438   7.356   6.245   0.580 -0.4784 -0.2178 -0.1164
 1194SOL    HW2 4439   7.319   6.109   0.637 -0.9693  0.2494  0.6915
 1195SOL     OW 4440   2.559   3.814   3.167 -0.2123 -0.2320 -0.0967
 1195SOL    HW1 4441   2.546   3.862   3.085 -1.3303 -0.8461 -0.2971
 1195SOL    HW2 4442   2.652   3.825   3.186 -0.2487  1.2531 -0.6015
 1196SOL     OW 4443   7.374   5.084   7.431  0.2829 -0.2712 -0.1570
 1196SOL    HW1 4444   7.438   5.022   7.397 -0.3321 -2.0752  1.7239
 1196SOL    HW2 4445   7.301   5.079   7.369  0.1567 -1.6328  0.0677
 1197SOL     OW 4446   4.941   2.469   0.587 -0.3219 -0.1397 -0.4283
 1197SOL    HW1 4447   5.028   2.437   0.612  0.1828  1.1971 -0.3721
 1197SOL    HW2 4448   4.880   2.404   0.624  0.6319 -0.9526 -0.2375
 1198SOL     OW 4449   0.972   4.615   2.309  0.0802 -0.4180  0.1257
 1198SOL    HW1 4450   0.895   4.588   2.259 -0.3373 -2.0606  1.5694
 1198SOL    HW2 4451   1.040   4.551   2.285  0.5317  0.0757  0.0606
 1199SOL     OW 4452   5.882   7.218   7.045  0.0950 -0.1541  0.5820
 1199SOL    HW1 4453   5.973   7.196   7.066  0.8689  1.6868 -0.5499
 1199SOL    HW2 4454   5.871   7.308   7.077 -0.5736  0.4825 -1.2658
 1200SOL     OW 4455   2.871   0.084   2.021 -0.5468  0.0103 -0.0789
 1200SOL    HW1 4456   2.817   0.163   2.020  1.1768  1.2561 -1.4964
 1200SOL    HW2 4457   2.831   0.027   1.955 -1.3008  0.0389  0.3405
 1201SOL     OW 4458   5.273   0.583   3.605 -0.3773  0.4668  0.6050
 1201SOL    HW1 4459   5.343   0.544   3.552 -1.6377 -1.6376  0.3416
 1201SOL    HW2 4460   5.274   0.676   3.583  1.5266  0.2812 -0.2935
 1202SOL     OW 4461   1.925   3.565   3.282 -0.1205 -0.2157  0.5769
 1202SOL    HW1 4462   2.003   3.561   3.227 -0.2447  1.2082  0.2640
 1202SOL    HW2 4463   1.947   3.629   3.350 -1.5923  1.5587 -0.5212
 1203SOL     OW 4464   6.685   0.214   0.117 -0.0934  0.6643  0.6801
 1203SOL    HW1 4465   6.691   0.150   0.045 -0.0413  1.1482  0.2433
 1203SOL    HW2 4466   6.776   0.229   0.142 -0.1723 -2.1177  3.2617
 1204SOL     OW 4467   5.694   5.449   5.978 -0.5678  0.1741  0.1840
 1204SOL    HW1 4468   5.726   5.539   5.976 -0.2160  0.0738  1.0024
 1204SOL    HW2 4469   5.773   5.395   5.974 -0.8209 -0.1397 -1.5025
 1205SOL     OW 4470   4.635   6.911   6.461 -0.0466  0.5106  0.1404
 1205SOL    HW1 4471   4.652   6.949   6.548  1.5064 -1.6764  0.8745
 1205SOL    HW2 4472   4.547   6.874   6.468 -0.4776  1.5182  0.2982
 1206SOL     OW 4473   1.848   2.570   7.460 -0.0526 -0.2372 -0.7095
 1206SOL    HW1 4474   1.902   2.576   7.538  0.3010  1.7851 -1.0699
 1206SOL    HW2 4475   1.909   2.578   7.387 -0.5428 -0.7003 -1.1866
 1207SOL     OW 4476   3.555   3.940   0.065 -0.1031  0.1081  0.1686
 1207SOL    HW1 4477   3.516   3.857   0.090  0.5703  0.0987  1.2395
 1207SOL    HW2 4478   3.492   4.006   0.093  0.2098  0.0477  1.0321
 1208SOL     OW 4479   4.861   4.281   7.984 -0.4077 -0.0094  0.2530
 1208SOL    HW1 4480   4.924   4.348   7.959 -2.3365  1.4384 -1.0893
 1208SOL    HW2 4481   4.889   4.253   8.071  1.4881  1.2634  0.1056
 1209SOL     OW 4482   0.222   4.870   6.834 -0.2290 -0.2101  0.1295
 1209SOL    HW1 4483   0.205   4.934   6.765 -1.4365 -0.6827 -0.0511
 1209SOL    HW2 4484   0.232   4.922   6.914  2.9268  0.4845 -0.5920
 1210SOL     OW 4485   0.089   2.663   1.840 -0.0744  0.2923  0.5105
 1210SOL    HW1 4486   0.130   2.713   1.769  1.7214 -0.4013  1.0052
 1210SOL    HW2 4487   0.032   2.600   1.796  0.8187  0.0410 -0.3042
 1211SOL     OW 4488   4.343   2.036   0.880 -0.1478  0.6603 -0.0289
 1211SOL    HW1 4489   4.266   2.023   0.824 -0.1112  2.1108 -0.4685
 1211SOL    HW2 4490   4.408   2.076   0.822  0.5628  0.4157  0.5951
 1212SOL     OW 4491   6.619   6.296   1.527  0.4216 -0.4326  0.2812
 1212SOL    HW1 4492   6.610   6.389   1.503  1.6742 -0.2777  0.3775
 1212SOL    HW2 4493   6.531   6.271   1.555  0.3532  1.1179  1.6044
 1213SOL     OW 4494   0.537   2.079   4.208 -0.0965  0.2460 -0.1621
 1213SOL    HW1 4495   0.473   2.124   4.153  0.8881  0.1699 -1.4012
 1213SOL    HW2 4496   0.618   2.077   4.156  0.5595 -0.8272  0.8286
 1214SOL     OW 4497   5.759   0.420   0.533 -0.2533 -0.0373  0.5213
 1214SOL    HW1 4498   5.669   0.425   0.566 -0.8596 -1.1591 -0.8332
 1214SOL    HW2 4499   5.808   0.376   0.602 -0.4599  1.6175  1.7620
 1215SOL     OW 4500   5.849   1.448   4.550 -0.2179  0.3420 -0.1813
 1215SOL    HW1 4501   5.776   1.443   4.611 -1.5663  1.8692 -1.5804
 1215SOL    HW2 4502   5.867   1.356   4.527 -2.1510 -0.0552 -0.2901
 1216SOL     OW 4503   4.687   0.269   7.795 -0.0111  0.0572  0.9053
 1216SOL    HW1 4504   4.629   0.341   7.767 -1.4442 -1.1689  0.5776
 1216SOL    HW2 4505   4.682   0.272   7.891 -0.6865 -0.0764  0.8805
 1217SOL     OW 4506   4.865   6.063   6.979 -0.0491  0.8146 -0.3968
 1217SOL    HW1 4507   4.820   5.998   6.927 -0.0734  0.4538  0.0652
 1217SOL    HW2 4508   4.814   6.069   7.060 -1.1588  2.7912 -1.1705
 1218SOL     OW 4509   6.979   0.610   0.512  0.6757  1.1307 -0.2208
 1218SOL    HW1 4510   7.060   0.561   0.503  0.7577  1.5201 -1.9205
 1218SOL    HW2 4511   6.980   0.643   0.602  1.3695 -0.6166  0.4533
 1219SOL     OW 4512   5.055   3.242   1.662 -0.3013  0.2168 -0.2186
 1219SOL    HW1 4513   5.147   3.230   1.637 -0.0956 -2.2114  1.3659
 1219SOL    HW2 4514   5.005   3.194   1.597 -0.2520 -0.4042  0.1907
 1220SOL     OW 4515   7.641   3.181   2.644  0.2415  0.3940  0.0499
 1220SOL    HW1 4516   7.621   3.263   2.598  0.0138  0.3597  0.0872
 1220SOL    HW2 4517   7.566   3.124   2.624  0.7327 -0.0555 -0.5732
 1221SOL     OW 4518   5.317   6.175   4.457  0.7597  0.1003  0.5834
 1221SOL    HW1 4519   5.378   6.195   4.528 -1.1172  0.1428  2.2506
 1221SOL    HW2 4520   5.253   6.246   4.459  0.8962  0.3632 -1.5034
 1222SOL     OW 4521   2.659   4.473   6.476 -0.2746  0.3356 -0.1209
 1222SOL    HW1 4522   2.734   4.529   6.497  0.2207 -0.9757  1.8635
 1222SOL    HW2 4523   2.586   4.512   6.525  0.4794 -1.6640  2.8905
 1223SOL     OW 4524   2.162   7.495   5.195 -0.0195  0.0650  0.4195
 1223SOL    HW1 4525   2.132   7.522   5.282 -1.5228  0.4117 -0.1793
 1223SOL    HW2 4526   2.257   7.505   5.199 -0.0515 -0.0452  2.0591
 1224SOL     OW 4527   3.628   7.467   5.358  0.0177  0.4606  0.4558
 1224SOL    HW1 4528   3.706   7.504   5.315  0.0601 -0.1488  0.0017
 1224SOL    HW2 4529   3.600   7.396   5.300 -3.2842  3.1346 -1.5514
 1225SOL     OW 4530   2.936   4.744   4.766  0.5098  0.4930  0.4497
 1225SOL    HW1 4531   3.028   4.715   4.762  1.4344  3.2229 -0.2372
 1225SOL    HW2 4532   2.940   4.837   4.745 -2.4296  0.7496  0.7169
 1226SOL     OW 4533   6.729   0.487   0.640  0.0864 -0.0407 -0.4096
 1226SOL    HW1 4534   6.815   0.507   0.605  0.0040  0.2443 -0.4485
 1226SOL    HW2 4535   6.697   0.415   0.585 -0.1854  0.6350 -1.1544
 1227SOL     OW 4536   4.368   3.072   1.611 -0.1889 -0.2979  0.5779
 1227SOL    HW1 4537   4.326   2.994   1.646 -0.8881  0.1855  0.8309
 1227SOL    HW2 4538   4.297   3.135   1.599 -0.0181 -0.4401 -1.7318
 1228SOL     OW 4539   1.113   2.095   4.898 -0.1442  0.6033 -0.1824
 1228SOL    HW1 4540   1.079   2.185   4.906 -1.2017  0.2814 -0.8349
 1228SOL    HW2 4541   1.052   2.052   4.837  0.4770 -0.4979 -0.0455
 1229SOL     OW 4542   7.546   6.122   1.159  0.3035  0.0393 -0.2670
 1229SOL    HW1 4543   7.640   6.107   1.150  0.1804 -1.3675  0.4255
 1229SOL    HW2 4544   7.530   6.118   1.254 -0.2300  1.9186 -0.2337
 1230SOL     OW 4545   7.443   5.822   6.157 -0.0189 -0.2097 -0.5006
 1230SOL    HW1 4546   7.355   5.838   6.191 -0.0880  0.5222 -0.9878
 1230SOL    HW2 4547   7.502   5.859   6.222 -0.1333  0.7185 -0.9029
 1231SOL     OW 4548   4.897   5.540   0.112  0.1026  0.0392  0.2725
 1231SOL    HW1 4549   4.851   5.495   0.041 -1.1487  1.0666  0.4054
 1231SOL    HW2 4550   4.981   5.495   0.118  0.3461  0.0793 -2.0278
 1232SOL     OW 4551   0.701   6.787   5.683  0.4297 -0.3013 -0.3478
 1232SOL    HW1 4552   0.702   6.881   5.703  2.1339 -0.6561  1.6409
 1232SOL    HW2 4553   0.621   6.755   5.725  0.6772  0.0402  0.4166
 1233SOL     OW 4554   1.398   7.279   5.707 -0.1306  0.3595  0.0160
 1233SOL    HW1 4555   1.428   7.252   5.794  2.8417 -3.3829 -1.8805
 1233SOL    HW2 4556   1.367   7.199   5.666  1.1860  1.3560 -3.2793
 1234SOL     OW 4557   2.341   0.062   6.419 -0.1893  0.3001 -0.3716
 1234SOL    HW1 4558   2.247   0.048   6.428  0.2336 -2.7103  0.1725
 1234SOL    HW2 4559   2.376   0.051   6.508  0.5708  3.1755 -0.2136
 1235SOL     OW 4560   7.741   2.960   2.809  0.4235 -0.4857 -0.2929
 1235SOL    HW1 4561   7.661   2.927   2.850  1.1548 -0.7962  0.9356
 1235SOL    HW2 4562   7.711   3.029   2.750 -0.7201 -0.3314  0.4325
 1236SOL     OW 4563   4.638   7.105   4.135  0.2011 -0.2159  0.4406
 1236SOL    HW1 4564   4.545   7.102   4.112  0.6201 -1.5659 -1.3146
 1236SOL    HW2 4565   4.639   7.116   4.230 -1.7271  0.8052  0.3832
 1237SOL     OW 4566   3.370   5.316   1.433  0.5322 -0.5811 -0.3041
 1237SOL    HW1 4567   3.379   5.409   1.415 -0.3228 -0.3212  0.5212
 1237SOL    HW2 4568   3.438   5.274   1.380  0.4229  0.4335 -1.2724
 1238SOL     OW 4569   0.295   3.702   1.052 -0.8522  0.2077  0.2870
 1238SOL    HW1 4570   0.258   3.695   0.964  0.6598  2.1102 -0.5732
 1238SOL    HW2 4571   0.347   3.623   1.063 -0.1104  0.4816 -1.0435
 1239SOL     OW 4572   1.739   3.299   3.803  0.5054  0.1932  0.0870
 1239SOL    HW1 4573   1.747   3.224   3.744 -0.0046  1.1918 -1.3166
 1239SOL    HW2 4574   1.661   3.281   3.855 -1.9209  1.3510 -2.8332
 1240SOL     OW 4575   7.708   3.588   1.541 -0.5497 -0.3148 -0.5122
 1240SOL    HW1 4576   7.674   3.512   1.589 -1.1479  2.2809  3.7100
 1240SOL    HW2 4577   7.650   3.660   1.567  1.4565  2.1057 -2.2587
 1241SOL     OW 4578   1.561   2.505   2.121  0.5598  0.4311  0.3595
 1241SOL    HW1 4579   1.609   2.545   2.049 -0.7332 -0.3890 -1.0008
 1241SOL    HW2 4580   1.567   2.411   2.105  0.5767  0.2116  1.5516
 1242SOL     OW 4581   1.178   5.061   7.428 -0.6407  0.0619  0.0906
 1242SOL    HW1 4582   1.113   4.993   7.443  0.3180 -0.7270  0.8216
 1242SOL    HW2 4583   1.231   5.028   7.356 -1.1949  0.8302 -0.6921
 1243SOL     OW 4584   5.880   0.120   1.242  0.5215  0.7073 -0.1548
 1243SOL    HW1 4585   5.865   0.042   1.187 -1.5127  1.3778 -0.6421
 1243SOL    HW2 4586   5.933   0.088   1.315 -1.5212 -1.5553  0.4819
 1244SOL     OW 4587   3.460   3.378   5.494  0.3404  0.2530  0.0787
 1244SOL    HW1 4588   3.452   3.299   5.547 -0.5232  0.8934  0.9385
 1244SOL    HW2 4589   3.390   3.435   5.525  0.0877  0.8331 -1.4517
 1245SOL     OW 4590   7.989   7.830   2.457  0.6656 -0.7401  0.0189
 1245SOL    HW1 4591   7.920   7.891   2.484 -0.1167 -1.8386  0.5946
 1245SOL    HW2 4592   8.041   7.817   2.535  0.7019 -0.9704 -0.0438
 1246SOL     OW 4593   1.788   1.154   6.991  0.0289  0.1226 -0.1538
 1246SOL    HW1 4594   1.798   1.228   7.051  0.1325  1.6464 -1.9540
 1246SOL    HW2 4595   1.743   1.191   6.915 -0.3637 -1.8024 -0.9043
 1247SOL     OW 4596   6.513   7.999   4.190  0.1839  0.3417  0.3955
 1247SOL    HW1 4597   6.517   8.094   4.176 -0.6546  0.7566  2.4491
 1247SOL    HW2 4598   6.427   7.985   4.229 -0.3610 -1.5317 -1.3159
 1248SOL     OW 4599   1.902   5.165   5.100  0.2665 -0.0321 -0.0960
 1248SOL    HW1 4600   1.813   5.176   5.132  0.0772 -1.0730 -0.2391
 1248SOL    HW2 4601   1.957   5.185   5.175  0.0590  3.3120 -0.6766
 1249SOL     OW 4602   3.016   0.502   0.671 -0.3251 -0.4735  0.4881
 1249SOL    HW1 4603   2.923   0.480   0.680 -0.0489 -1.6831  0.5380
 1249SOL    HW2 4604   3.038   0.478   0.581 -0.4271  1.3258 -0.0576
 1250SOL     OW 4605   5.315   1.205   5.953 -0.0397 -0.2225  0.1747
 1250SOL    HW1 4606   5.289   1.203   5.861  0.2761 -0.9848  0.0938
 1250SOL    HW2 4607   5.402   1.164   5.954 -0.0386 -0.2124  0.8114
 1251SOL     OW 4608   0.986   2.484   6.451 -0.1061  0.2364 -0.4848
 1251SOL    HW1 4609   1.078   2.487   6.426  0.3201  0.5440  0.9898
 1251SOL    HW2 4610   0.982   2.415   6.518 -0.6849  1.0724  0.3658
 1252SOL     OW 4611   1.847   6.385   0.892 -0.0708 -0.2229 -0.1267
 1252SOL    HW1 4612   1.875   6.296   0.915  1.5195  0.2421 -0.1046
 1252SOL    HW2 4613   1.904   6.409   0.819 -0.7414  0.6358 -0.3754
 1253SOL     OW 4614   0.361   1.986   1.029 -0.0183 -0.4115 -0.2720
 1253SOL    HW1 4615   0.289   2.046   1.011  0.1204 -0.5756 -1.4157
 1253SOL    HW2 4616   0.327   1.900   1.006  0.3597 -0.5623 -0.2792
 1254SOL     OW 4617   4.377   4.020   6.463 -0.3029 -0.0701 -0.1041
 1254SOL    HW1 4618   4.472   4.036   6.461 -0.5744  1.6334 -0.9499
 1254SOL    HW2 4619   4.366   3.951   6.528  1.4638  0.1079  0.4324
 1255SOL     OW 4620   6.779   7.225   1.214 -0.0978 -0.4617 -0.5554
 1255SOL    HW1 4621   6.814   7.178   1.138  0.3292 -1.3724  0.1842
 1255SOL    HW2 4622   6.807   7.173   1.289  0.3549  0.9704  0.2997
 1256SOL     OW 4623   2.493   2.642   3.776 -0.0898  0.2337  0.0851
 1256SOL    HW1 4624   2.495   2.736   3.792  3.0841  0.4455 -0.7314
 1256SOL    HW2 4625   2.577   2.611   3.810 -0.9551 -2.2960  0.1048
 1257SOL     OW 4626   4.718   2.926   3.991  0.1389 -0.1632  0.4283
 1257SOL    HW1 4627   4.731   3.019   3.972  0.6822 -0.3004  0.1068
 1257SOL    HW2 4628   4.801   2.884   3.966 -0.4472 -0.8840 -0.3929
 1258SOL     OW 4629   6.874   3.192   1.273 -0.5659  0.1091  0.4661
 1258SOL    HW1 4630   6.784   3.210   1.299 -0.4844  0.7031  0.3565
 1258SOL    HW2 4631   6.895   3.108   1.314 -1.9370 -1.2336 -1.4102
 1259SOL     OW 4632   7.264   0.631   1.047  0.0972  0.3855  0.4290
 1259SOL    HW1 4633   7.331   0.652   1.113  2.4151  0.7370 -1.8760
 1259SOL    HW2 4634   7.288   0.684   0.971 -0.6008 -2.2278 -1.7598
 1260SOL     OW 4635   6.207   4.142   6.606 -0.3322 -0.3208 -0.4091
 1260SOL    HW1 4636   6.152   4.105   6.537 -0.1684  1.8145 -1.8118
 1260SOL    HW2 4637   6.289   4.164   6.562  0.2431 -0.0168  0.7705
 1261SOL     OW 4638   6.642   0.494   1.295  0.6569 -0.2399  0.5368
 1261SOL    HW1 4639   6.586   0.449   1.231  1.9692  0.6052 -1.2869
 1261SOL    HW2 4640   6.597   0.481   1.378 -0.5615 -2.3315 -0.3564
 1262SOL     OW 4641   4.878   4.881   1.710  0.2819 -0.2214  0.6791
 1262SOL    HW1 4642   4.810   4.938   1.674  1.7760  1.5235  0.4763
 1262SOL    HW2 4643   4.941   4.942   1.750  0.7316 -1.8745  2.6554
 1263SOL     OW 4644   2.484   6.430   1.906  0.3545 -0.0008  0.4329
 1263SOL    HW1 4645   2.524   6.466   1.985 -0.1692  1.2629  0.1490
 1263SOL    HW2 4646   2.399   6.474   1.900 -1.0841 -2.5416  0.9661
 1264SOL     OW 4647   0.515   0.308   2.831 -0.3353  0.3577  0.4793
 1264SOL    HW1 4648   0.495   0.258   2.752  1.4617  0.8681 -0.3572
 1264SOL    HW2 4649   0.523   0.398   2.801 -1.0866  0.7892  1.5241
 1265SOL     OW 4650   1.142   3.679   2.998 -0.0241  0.0127  0.2522
 1265SOL    HW1 4651   1.180   3.646   2.917  0.2212 -1.1646  0.8154
 1265SOL    HW2 4652   1.095   3.604   3.035  0.0487  0.4607  1.2983
 1266SOL     OW 4653   0.962   5.310   1.931  0.6881 -0.8134  0.0779
 1266SOL    HW1 4654   1.029   5.370   1.899 -0.7192  0.2819 -0.9498
 1266SOL    HW2 4655   0.951   5.247   1.859 -1.2968  0.6616 -1.0015
 1267SOL     OW 4656   2.616   3.938   3.452 -0.2765 -0.0933 -0.9554
 1267SOL    HW1 4657   2.694   3.914   3.402  0.2221  1.1690 -0.8091
 1267SOL    HW2 4658   2.642   3.928   3.543 -0.0726  0.9530 -0.8949
 1268SOL     OW 4659   3.754   7.734   3.881  0.3170 -0.5593 -0.3354
 1268SOL    HW1 4660   3.794   7.718   3.966  1.7593  1.2618 -0.5932
 1268SOL    HW2 4661   3.685   7.798   3.898 -0.1029 -0.9888 -0.4014
 1269SOL     OW 4662   3.595   7.554   7.460 -0.0028  0.0058 -0.0698
 1269SOL    HW1 4663   3.548   7.605   7.526  1.0551  0.6323  0.2196
 1269SOL    HW2 4664   3.650   7.494   7.510  1.4296  1.0473 -0.3263
 1270SOL     OW 4665   1.521   6.353   2.451  0.7489  0.4814 -0.3237
 1270SOL    HW1 4666   1.515   6.309   2.536 -0.3157 -0.7586 -1.0146
 1270SOL    HW2 4667   1.431   6.361   2.420  0.8677  3.2594 -0.2353
 1271SOL     OW 4668   2.304   5.847   3.359 -0.0137  0.2924 -0.0069
 1271SOL    HW1 4669   2.255   5.779   3.406  0.7213 -0.5892 -0.4731
 1271SOL    HW2 4670   2.394   5.837   3.390 -0.2142  2.4035  1.4254
 1272SOL     OW 4671   2.817   5.095   4.049 -0.3064 -0.2458  0.0333
 1272SOL    HW1 4672   2.827   5.014   4.099 -0.6666 -0.0995  0.3513
 1272SOL    HW2 4673   2.891   5.149   4.074 -0.8081  0.0690  0.8882
 1273SOL     OW 4674   7.648   5.499   6.504 -0.2522 -0.4275 -0.2652
 1273SOL    HW1 4675   7.673   5.574   6.450  0.9750  0.4947  1.4678
 1273SOL    HW2 4676   7.580   5.533   6.562 -0.3253 -0.9009 -0.0723
 1274SOL     OW 4677   2.000   2.266   4.694 -0.3160 -0.0606  0.3791
 1274SOL    HW1 4678   1.984   2.286   4.602  0.2384 -0.5140  0.1773
 1274SOL    HW2 4679   1.958   2.338   4.741  1.3718  1.4554 -0.3159
 1275SOL     OW 4680   2.950   7.880   7.931 -0.3094  0.3928  0.7074
 1275SOL    HW1 4681   3.031   7.861   7.980 -0.8678 -0.5002  1.3189
 1275SOL    HW2 4682   2.881   7.876   7.997 -0.7541  2.3898  0.4300
 1276SOL     OW 4683   0.251   6.239   0.186 -0.4567 -0.0211 -0.0055
 1276SOL    HW1 4684   0.231   6.165   0.242 -0.5043 -0.6345 -0.8228
 1276SOL    HW2 4685   0.223   6.316   0.236  3.1026 -0.1443  2.6055
 1277SOL     OW 4686   2.709   7.962   6.080  0.0916  0.2094 -0.0691
 1277SOL    HW1 4687   2.678   8.049   6.105 -1.5592  0.1614 -1.7140
 1277SOL    HW2 4688   2.800   7.976   6.054 -0.7483  1.9356 -2.4229
 1278SOL     OW 4689   5.186   0.144   3.035  0.2011 -0.4028 -0.0682
 1278SOL    HW1 4690   5.255   0.146   2.969  1.3096  0.7004  1.0553
 1278SOL    HW2 4691   5.195   0.059   3.078  0.4981 -0.4831 -0.2910
 1279SOL     OW 4692   1.376   1.783   5.367 -0.1385 -0.4716  0.1042
 1279SOL    HW1 4693   1.292   1.741   5.386  0.2542 -0.4097  2.2046
 1279SOL    HW2 4694   1.352   1.861   5.316 -1.2953 -0.7968  0.1145
 1280SOL     OW 4695   0.889   1.684   1.116  0.6150  0.3617 -0.1478
 1280SOL    HW1 4696   0.816   1.727   1.160 -0.4426 -2.4741  1.1213
 1280SOL    HW2 4697   0.858   1.668   1.027  0.3801  0.7344 -0.1331
 1281SOL     OW 4698   1.204   4.356   0.283 -0.6299 -0.0481 -0.3197
 1281SOL    HW1 4699   1.235   4.389   0.367 -2.0384  0.7584 -0.1019
 1281SOL    HW2 4700   1.112   4.336   0.297 -0.6668 -0.7453 -1.4380
 1282SOL     OW 4701   5.401   0.827   2.693  0.4716  0.4054 -0.1053
 1282SOL    HW1 4702   5.390   0.756   2.630  0.8132  1.4390 -1.3698
 1282SOL    HW2 4703   5.313   0.864   2.703  0.5499  0.7308 -0.5871
 1283SOL     OW 4704   2.013   2.443   5.878 -0.4171  0.0521  0.5805
 1283SOL    HW1 4705   2.097   2.485   5.858  0.9694 -2.0745  1.5627
 1283SOL    HW2 4706   2.000   2.382   5.806 -2.1699  1.6941 -0.5831
 1284SOL     OW 4707   1.596   3.973   4.031 -0.1339  0.0281 -0.5938
 1284SOL    HW1 4708   1.669   3.910   4.032 -1.0115 -1.0573  1.2384
 1284SOL    HW2 4709   1.544   3.949   4.108 -2.4755  0.7249 -1.8930
 1285SOL     OW 4710   7.600   5.685   2.391  0.0530 -0.1712 -0.0814
 1285SOL    HW1 4711   7.648   5.717   2.315 -1.1756 -1.1684 -1.3398
 1285SOL    HW2 4712   7.529   5.632   2.354 -0.7186 -0.5121  1.7605
 1286SOL     OW 4713   3.678   0.297   4.856 -0.2311  0.0638 -0.3075
 1286SOL    HW1 4714   3.673   0.209   4.895  0.0277  0.1397 -0.0987
 1286SOL    HW2 4715   3.602   0.302   4.799 -0.2656 -0.2868 -0.2967
 1287SOL     OW 4716   5.085   5.597   6.543  0.2412  0.0909  0.5344
 1287SOL    HW1 4717   5.097   5.692   6.540  0.9421  0.0943  2.3242
 1287SOL    HW2 4718   5.172   5.562   6.563 -0.3855 -0.7415  2.0282
 1288SOL     OW 4719   1.134   3.592   7.777 -0.6103 -0.7738 -0.1518
 1288SOL    HW1 4720   1.207   3.531   7.785  0.3814  0.1821 -1.6229
 1288SOL    HW2 4721   1.097   3.596   7.865  1.4285 -0.8848  0.7665
 1289SOL     OW 4722   5.570   6.957   0.003 -0.0226  0.3229  0.1424
 1289SOL    HW1 4723   5.549   7.051  -0.000 -0.7310  0.1511 -0.5766
 1289SOL    HW2 4724   5.514   6.918  -0.064 -0.7936 -0.8165  1.3895
 1290SOL     OW 4725   0.712   6.804   7.095 -0.0776 -0.4897  0.0666
 1290SOL    HW1 4726   0.797   6.763   7.075 -0.7183 -1.6999 -0.2677
 1290SOL    HW2 4727   0.652   6.768   7.029 -1.0059 -0.2129  0.7447
 1291SOL     OW 4728   6.261   0.791   0.358 -0.2602 -0.3377  0.2530
 1291SOL    HW1 4729   6.243   0.714   0.413 -2.1977 -0.0112  0.1491
 1291SOL    HW2 4730   6.300   0.854   0.418  0.6976 -1.1310  0.4979
 1292SOL     OW 4731   6.485   2.933   7.206 -0.9512 -0.2423 -0.3091
 1292SOL    HW1 4732   6.421   3.001   7.228 -0.4078 -0.3425  1.8494
 1292SOL    HW2 4733   6.442   2.851   7.230  0.1385 -0.2701  1.7388
 1293SOL     OW 4734   5.810   3.431   0.809  0.9460  0.1012 -0.7425
 1293SOL    HW1 4735   5.824   3.356   0.868  1.7541  0.6096 -0.2684
 1293SOL    HW2 4736   5.858   3.409   0.730 -0.2110 -0.6228 -1.2638
 1294SOL     OW 4737   7.681   6.027   1.520 -0.4190  0.3380 -0.0950
 1294SOL    HW1 4738   7.605   6.061   1.472  0.4006 -0.6335 -2.2022
 1294SOL    HW2 4739   7.650   5.944   1.557 -0.1197 -0.6718 -1.9789
 1295SOL     OW 4740   4.902   3.238   2.728  0.0445  0.2295 -0.1304
 1295SOL    HW1 4741   4.908   3.142   2.733  0.7884  0.2698 -0.0852
 1295SOL    HW2 4742   4.955   3.269   2.801 -0.5664  0.6745  0.1245
 1296SOL     OW 4743   6.515   5.213   3.823  0.0148  0.0593 -0.0380
 1296SOL    HW1 4744   6.599   5.231   3.781 -0.2905  1.3046 -0.1412
 1296SOL    HW2 4745   6.452   5.205   3.752  0.1361 -1.5425 -0.0023
 1297SOL     OW 4746   4.025   7.049   6.432  0.2838 -0.3226 -0.1606
 1297SOL    HW1 4747   4.087   7.029   6.362  1.1389 -0.5859  0.6547
 1297SOL    HW2 4748   3.971   6.970   6.440  0.5070 -0.4767 -0.1819
 1298SOL     OW 4749   5.889   1.771   3.193 -0.4192 -0.1940 -0.2637
 1298SOL    HW1 4750   5.829   1.705   3.157  0.3127 -1.3237  0.5175
 1298SOL    HW2 4751   5.849   1.855   3.169 -2.4306 -0.8895  0.3781
 1299SOL     OW 4752   7.815   0.822   1.906 -0.1660 -0.2268 -0.3252
 1299SOL    HW1 4753   7.842   0.734   1.929  0.2004  0.2431  1.1415
 1299SOL    HW2 4754   7.730   0.833   1.950  0.0346  0.3292 -0.0753
 1300SOL     OW 4755   4.109   1.657   4.416  0.4617  0.7276  0.2043
 1300SOL    HW1 4756   4.050   1.718   4.371 -0.5524  0.6197  1.3718
 1300SOL    HW2 4757   4.158   1.712   4.477  0.3788  0.5540  0.4272
 1301SOL     OW 4758   1.372   4.193   2.125  0.2346  0.1478 -0.0090
 1301SOL    HW1 4759   1.424   4.263   2.086 -0.1410 -0.3764 -1.5032
 1301SOL    HW2 4760   1.429   4.116   2.121  0.3593  0.1822  0.9225
 1302SOL     OW 4761   0.607   6.446   6.959  0.1489 -0.0617  0.0704
 1302SOL    HW1 4762   0.691   6.477   6.991  0.9240 -0.6526 -1.3182
 1302SOL    HW2 4763   0.564   6.525   6.926  0.2575  0.1971  0.5313
 1303SOL     OW 4764   4.804   2.590   3.260 -0.0287 -0.3552  0.0508
 1303SOL    HW1 4765   4.895   2.561   3.268  0.3104  0.8702  1.0573
 1303SOL    HW2 4766   4.798   2.627   3.172 -0.3638 -2.9567 -1.1072
 1304SOL     OW 4767   5.333   3.660   0.687  0.1026  0.3944 -0.3894
 1304SOL    HW1 4768   5.427   3.678   0.694 -0.1239  1.1463  1.0596
 1304SOL    HW2 4769   5.292   3.747   0.681 -0.4725  0.0611 -1.8154
 1305SOL     OW 4770   1.773   7.247   1.397  0.0196  0.3638  0.4045
 1305SOL    HW1 4771   1.748   7.158   1.371  1.0925 -0.4219  1.9204
 1305SOL    HW2 4772   1.700   7.277   1.451 -0.6977  0.7383 -0.7232
 1306SOL     OW 4773   7.122   6.808   4.055  0.0231  0.4318  0.0465
 1306SOL    HW1 4774   7.156   6.848   4.135  0.2763  1.6577 -0.6502
 1306SOL    HW2 4775   7.137   6.714   4.068  3.5426  0.8272 -0.1148
 1307SOL     OW 4776   5.122   4.286   4.067 -0.0516  0.1223 -0.4575
 1307SOL    HW1 4777   5.053   4.349   4.045  0.4445  0.5648 -0.7689
 1307SOL    HW2 4778   5.197   4.341   4.092 -0.4305 -0.3321  1.8918
 1308SOL     OW 4779   7.442   3.670   4.976 -0.1848  0.1134  0.0031
 1308SOL    HW1 4780   7.531   3.638   4.987  0.3469  1.4512 -0.2801
 1308SOL    HW2 4781   7.398   3.602   4.924  0.4435 -0.8993  0.7739
 1309SOL     OW 4782   1.489   0.693   3.480  0.2260  0.1767  0.2101
 1309SOL    HW1 4783   1.434   0.760   3.521 -0.4315 -0.8490  1.0684
 1309SOL    HW2 4784   1.478   0.707   3.386 -1.3454  0.1496  0.3570
 1310SOL     OW 4785   5.731   3.090   3.186 -0.0798 -0.0738 -0.4757
 1310SOL    HW1 4786   5.757   3.146   3.259 -0.9766 -0.9806  0.5735
 1310SOL    HW2 4787   5.814   3.063   3.146  0.5261 -0.8778  1.2353
 1311SOL     OW 4788   4.994   0.209   2.200  0.0865  0.1066  0.2824
 1311SOL    HW1 4789   4.970   0.118   2.183  0.9576 -0.5299  2.1913
 1311SOL    HW2 4790   4.926   0.242   2.259  0.1275  0.5041  0.1169
 1312SOL     OW 4791   2.210   3.190   6.904  0.0525 -0.0746  0.4193
 1312SOL    HW1 4792   2.244   3.275   6.933  0.6309  0.0321 -0.5312
 1312SOL    HW2 4793   2.132   3.176   6.958 -1.8413  2.4704 -1.4420
 1313SOL     OW 4794   5.020   7.258   1.747  0.5079 -0.0134  0.1739
 1313SOL    HW1 4795   4.991   7.264   1.656 -1.1150 -0.2485  0.6488
 1313SOL    HW2 4796   5.075   7.336   1.760  0.4498  0.2187 -0.8979
 1314SOL     OW 4797   1.470   2.820   4.954  0.0710  0.5295  0.0305
 1314SOL    HW1 4798   1.457   2.898   4.899  2.5128  0.4185 -0.7970
 1314SOL    HW2 4799   1.381   2.790   4.974 -0.9008  1.9170 -1.9322
 1315SOL     OW 4800   6.574   0.867   5.584 -0.0528 -0.1697  0.7221
 1315SOL    HW1 4801   6.518   0.914   5.645 -0.0343  0.4204  0.2897
 1315SOL    HW2 4802   6.513   0.834   5.517  0.0731  0.2100  0.4170
 1316SOL     OW 4803   1.885   2.335   2.847  0.0588  0.3205 -0.0056
 1316SOL    HW1 4804   1.820   2.332   2.776  0.3949  0.3843 -0.3184
 1316SOL    HW2 4805   1.948   2.267   2.825 -0.1150 -0.0132  0.5122
 1317SOL     OW 4806   5.774   7.080   6.252  0.8921 -0.5765  0.4338
 1317SOL    HW1 4807   5.819   7.106   6.333  0.8064 -1.3877  0.7537
 1317SOL    HW2 4808   5.784   6.985   6.249  2.0922 -0.4322 -1.2371
 1318SOL     OW 4809   5.551   5.776   3.985 -0.4905 -0.3576 -0.4160
 1318SOL    HW1 4810   5.516   5.754   3.899 -0.6769  3.1977 -1.3943
 1318SOL    HW2 4811   5.479   5.821   4.030  1.1096  2.5029 -0.4959
 1319SOL     OW 4812   0.282   3.195   1.867  0.0624 -0.1745 -0.2789
 1319SOL    HW1 4813   0.271   3.100   1.871 -1.4222 -0.0070  1.5382
 1319SOL    HW2 4814   0.353   3.213   1.929 -1.7786  0.0592  1.9119
 1320SOL     OW 4815   3.940   0.100   2.716  0.4060  0.6595 -0.4138
 1320SOL    HW1 4816   3.911   0.094   2.625 -0.3026 -0.7958 -0.1267
 1320SOL    HW2 4817   3.863   0.129   2.764  0.8459  1.6626 -0.2935
 1321SOL     OW 4818   0.312   6.326   1.272  0.0765 -0.5031  0.2772
 1321SOL    HW1 4819   0.245   6.282   1.218 -0.2450 -0.2110  0.4331
 1321SOL    HW2 4820   0.330   6.263   1.342  0.3736 -0.8145 -0.0758
 1322SOL     OW 4821   7.366   1.834   3.228  0.2948 -0.0899  0.3881
 1322SOL    HW1 4822   7.418   1.756   3.242  1.4059  0.7615  1.1571
 1322SOL    HW2 4823   7.383   1.859   3.137 -0.6314 -1.1121 -0.0947
 1323SOL     OW 4824   4.305   0.246   7.864 -0.5429 -0.0542  0.3239
 1323SOL    HW1 4825   4.363   0.175   7.835  1.8095  1.9560 -0.2320
 1323SOL    HW2 4826   4.226   0.201   7.893 -0.1058 -2.7482 -2.1295
 1324SOL     OW 4827   4.918   5.910   3.166  0.0959  0.2762 -0.1352
 1324SOL    HW1 4828   4.861   5.833   3.163  0.3076  0.1414 -1.1025
 1324SOL    HW2 4829   4.859   5.983   3.182 -0.4683  0.2182 -1.7191
 1325SOL     OW 4830   3.734   7.685   3.416 -0.3854  0.2987  0.3508
 1325SOL    HW1 4831   3.735   7.591   3.432  2.0929 -0.1412 -1.6953
 1325SOL    HW2 4832   3.813   7.718   3.459 -0.1844  1.0999 -0.5938
 1326SOL     OW 4833   4.155   7.342   4.022  0.1590 -0.2158 -0.4642
 1326SOL    HW1 4834   4.158   7.323   3.929  2.2465  0.2042 -0.5204
 1326SOL    HW2 4835   4.137   7.436   4.027  0.6029 -0.1275 -0.4717
 1327SOL     OW 4836   5.192   1.120   3.573 -0.1690 -0.0904  0.2061
 1327SOL    HW1 4837   5.269   1.096   3.522  1.9491  1.7229  2.3062
 1327SOL    HW2 4838   5.186   1.051   3.639  0.8167  0.6535  1.1191
 1328SOL     OW 4839   2.490   5.343   1.265 -0.0569  0.2607  0.1164
 1328SOL    HW1 4840   2.403   5.352   1.303  0.3175 -1.4792  1.5070
 1328SOL    HW2 4841   2.484   5.386   1.180 -2.1022  0.6665  0.4302
 1329SOL     OW 4842   2.439   6.741   6.654  0.0303 -0.2850 -0.0631
 1329SOL    HW1 4843   2.437   6.659   6.704  0.8535  0.4302  1.2089
 1329SOL    HW2 4844   2.438   6.810   6.721  0.2819  0.7370 -1.0719
 1330SOL     OW 4845   1.533   7.412   7.638  0.5194  0.4656  0.1855
 1330SOL    HW1 4846   1.615   7.378   7.603  1.1749 -0.0060  2.1002
 1330SOL    HW2 4847   1.496   7.340   7.688 -0.8807  0.8062 -0.3028
 1331SOL     OW 4848   3.960   5.508   2.059  0.2435 -0.4336 -0.3832
 1331SOL    HW1 4849   3.981   5.601   2.066 -1.3966  0.0152 -0.8750
 1331SOL    HW2 4850   3.866   5.504   2.076 -0.2678 -1.6432 -3.0736
 1332SOL     OW 4851   7.975   6.685   7.141  0.5931  0.2978  0.2298
 1332SOL    HW1 4852   7.930   6.734   7.073 -1.1289 -1.0982  0.2998
 1332SOL    HW2 4853   8.033   6.749   7.182  2.0083  1.1059 -2.7612
 1333SOL     OW 4854   3.489   4.310   0.793  0.3126  0.4091 -0.0736
 1333SOL    HW1 4855   3.577   4.341   0.774  0.5441 -0.4013 -0.3672
 1333SOL    HW2 4856   3.493   4.215   0.781 -0.4804  0.3006  0.3758
 1334SOL     OW 4857   5.683   5.025   1.715  0.5014 -0.2069 -0.0674
 1334SOL    HW1 4858   5.761   5.001   1.666  0.7571 -0.6167  0.5278
 1334SOL    HW2 4859   5.696   5.118   1.736  1.8983 -0.7852  1.9058
 1335SOL     OW 4860   0.807   4.738   2.793  0.1580 -0.0364  0.4810
 1335SOL    HW1 4861   0.867   4.680   2.840  0.2943  0.3736  0.8180
 1335SOL    HW2 4862   0.721   4.697   2.805  0.3017 -0.3694  0.3975
 1336SOL     OW 4863   7.784   3.566   7.309 -0.0373  0.3955 -0.6636
 1336SOL    HW1 4864   7.705   3.613   7.283 -0.2645 -0.1995 -1.0795
 1336SOL    HW2 4865   7.845   3.578   7.237  1.0108  2.5154  0.5073
 1337SOL     OW 4866   4.715   6.668   3.804  0.3531 -0.1470  0.1341
 1337SOL    HW1 4867   4.782   6.726   3.768  0.9234  1.0840  2.8948
 1337SOL    HW2 4868   4.762   6.586   3.824  0.3348 -0.3446 -0.6003
 1338SOL     OW 4869   3.677   7.891   2.778  0.6091  0.1927 -0.0554
 1338SOL    HW1 4870   3.721   7.894   2.693  1.0536  0.9760  0.1874
 1338SOL    HW2 4871   3.640   7.802   2.783  0.5683  0.1381 -1.0584
 1339SOL     OW 4872   4.151   5.373   7.756  0.5457 -0.5905  0.2734
 1339SOL    HW1 4873   4.236   5.371   7.711  0.8740  1.0048  0.7680
 1339SOL    HW2 4874   4.173   5.373   7.849 -0.0171 -0.7577  0.4062
 1340SOL     OW 4875   0.775   2.311   6.860 -0.2122  0.0791 -0.2843
 1340SOL    HW1 4876   0.714   2.384   6.858 -1.3881 -0.6911  2.4657
 1340SOL    HW2 4877   0.852   2.346   6.905 -0.9656 -0.4074  1.4797
 1341SOL     OW 4878   6.698   2.829   4.274  0.0547 -0.0632 -0.0703
 1341SOL    HW1 4879   6.714   2.750   4.326  2.3320 -1.0117 -1.9818
 1341SOL    HW2 4880   6.775   2.884   4.290 -0.2068  0.5432 -0.8263
 1342SOL     OW 4881   7.898   6.120   2.303 -0.4478  0.3573  0.3332
 1342SOL    HW1 4882   7.981   6.111   2.256  1.5207  2.2847  3.0815
 1342SOL    HW2 4883   7.883   6.034   2.341  1.6573  0.5158  1.7108
 1343SOL     OW 4884   3.653   7.933   6.456  0.4048  0.4154  0.1591
 1343SOL    HW1 4885   3.592   8.004   6.434 -0.4820 -0.1408  0.7656
 1343SOL    HW2 4886   3.652   7.875   6.380  2.5611  1.9337 -1.1731
 1344SOL     OW 4887   3.365   1.460   0.809 -0.3141  0.2274 -0.2327
 1344SOL    HW1 4888   3.357   1.369   0.780  0.1703  0.4083 -0.9710
 1344SOL    HW2 4889   3.285   1.503   0.780 -0.6124  0.0109  0.2512
 1345SOL     OW 4890   4.043   7.841   1.746 -0.3809 -0.4781  0.3411
 1345SOL    HW1 4891   3.964   7.847   1.800 -1.5232 -0.7717 -1.2480
 1345SOL    HW2 4892   4.115   7.860   1.807 -1.7214  0.6925  1.6244
 1346SOL     OW 4893   3.866   3.734   0.562 -0.7538 -0.0805  0.0006
 1346SOL    HW1 4894   3.846   3.778   0.645 -0.5792 -0.0260  0.0147
 1346SOL    HW2 4895   3.803   3.662   0.557 -0.1419 -0.6731  0.6489
 1347SOL     OW 4896   7.960   6.154   3.842  0.7782 -0.4404  0.0168
 1347SOL    HW1 4897   7.935   6.224   3.903 -2.3362  1.6094 -3.1550
 1347SOL    HW2 4898   7.918   6.076   3.875 -0.1065  0.4144  0.9640
 1348SOL     OW 4899   0.289   6.031   6.663 -0.2031  0.6743  0.1384
 1348SOL    HW1 4900   0.374   6.001   6.695  0.2095  0.3432 -1.2089
 1348SOL    HW2 4901   0.241   6.057   6.742  0.2715 -1.3591  1.1559
 1349SOL     OW 4902   5.012   6.112   4.039  0.1890 -0.1215  0.2661
 1349SOL    HW1 4903   5.014   6.072   4.126 -1.1804  0.6731  0.6845
 1349SOL    HW2 4904   5.030   6.205   4.054  0.4152 -0.0547 -0.3674
 1350SOL     OW 4905   5.848   0.736   1.324  0.5195  0.1440 -0.1999
 1350SOL    HW1 4906   5.832   0.805   1.260 -1.5479 -0.8045 -0.8164
 1350SOL    HW2 4907   5.858   0.656   1.272 -0.3685 -0.5091  0.5731
 1351SOL     OW 4908   0.801   1.598   6.084 -0.6368  0.0268 -0.1386
 1351SOL    HW1 4909   0.878   1.643   6.050 -0.6530 -1.2092 -1.9385
 1351SOL    HW2 4910   0.815   1.595   6.179  1.3729  0.0968 -0.3897
 1352SOL     OW 4911   0.450   5.321   1.309  0.1390  0.1336 -0.8837
 1352SOL    HW1 4912   0.383   5.276   1.360  1.3003 -1.5113 -0.7601
 1352SOL    HW2 4913   0.415   5.321   1.219 -0.3403 -0.0376 -0.7017
 1353SOL     OW 4914   1.584   0.492   6.378  0.0858  0.1123 -0.0102
 1353SOL    HW1 4915   1.535   0.415   6.405 -0.0133 -0.1087 -0.7942
 1353SOL    HW2 4916   1.521   0.545   6.329  0.6787 -0.3094 -1.2747
 1354SOL     OW 4917   6.951   4.895   0.880  0.1021 -0.9925 -0.0846
 1354SOL    HW1 4918   7.004   4.973   0.861 -1.0685 -0.3338 -0.7979
 1354SOL    HW2 4919   6.931   4.902   0.974 -0.1403 -0.3183 -0.1782
 1355SOL     OW 4920   0.968   6.398   4.241 -0.0280 -0.1882  0.2897
 1355SOL    HW1 4921   1.008   6.372   4.158 -1.1769  0.5790 -0.5393
 1355SOL    HW2 4922   1.001   6.334   4.305  1.5699 -0.2612 -0.5669
 1356SOL     OW 4923   1.144   7.253   1.162 -0.5237 -0.0208 -0.0901
 1356SOL    HW1 4924   1.219   7.221   1.212  0.4509 -2.2075 -2.7334
 1356SOL    HW2 4925   1.172   7.339   1.130  0.3186 -0.2216  0.0811
 1357SOL     OW 4926   5.373   7.440   2.433 -0.0068  0.1190  0.1558
 1357SOL    HW1 4927   5.292   7.491   2.437 -0.0681  0.0200  0.1860
 1357SOL    HW2 4928   5.377   7.395   2.517  1.0274  1.5535  0.9088
 1358SOL     OW 4929   7.716   0.980   6.228 -0.4834  0.0882 -0.1619
 1358SOL    HW1 4930   7.678   0.989   6.140 -0.5594  2.5139  0.0346
 1358SOL    HW2 4931   7.810   0.993   6.215 -0.6195  1.6422  0.2039
 1359SOL     OW 4932   4.151   1.764   2.702 -0.3396 -0.2264 -0.1328
 1359SOL    HW1 4933   4.166   1.763   2.797  1.1088 -0.4397 -0.3413
 1359SOL    HW2 4934   4.163   1.673   2.675 -0.5124 -0.1253 -0.5557
 1360SOL     OW 4935   0.534   1.411   0.052  0.4194  0.1561 -0.4474
 1360SOL    HW1 4936   0.491   1.327   0.036  0.6237 -0.1504  0.5588
 1360SOL    HW2 4937   0.509   1.435   0.141 -2.1656  2.7071 -1.7164
 1361SOL     OW 4938   2.630   7.947   2.130  0.3463 -0.0780  0.4438
 1361SOL    HW1 4939   2.665   7.908   2.050 -0.8026 -0.8551  0.2939
 1361SOL    HW2 4940   2.595   8.032   2.102 -1.5221 -1.0149 -0.2708
 1362SOL     OW 4941   3.203   3.905   6.518 -0.3487 -0.3112 -0.2201
 1362SOL    HW1 4942   3.129   3.953   6.556  1.0199  0.2279  1.9580
 1362SOL    HW2 4943   3.186   3.813   6.539  0.4188 -0.0154  1.9150
 1363SOL     OW 4944   2.134   1.942   7.754  0.5292  0.1155 -0.1192
 1363SOL    HW1 4945   2.124   1.948   7.849  1.3316 -3.0646  0.2762
 1363SOL    HW2 4946   2.163   2.030   7.728  1.6597  0.7201  2.7639
 1364SOL     OW 4947   1.395   3.242   7.628  0.1748 -0.8552 -0.1802
 1364SOL    HW1 4948   1.369   3.214   7.716  0.3176 -0.7529 -0.1037
 1364SOL    HW2 4949   1.477   3.290   7.642 -0.4388  0.2393 -0.2172
 1365SOL     OW 4950   5.637   2.511   2.797  0.3175  0.7164  0.4212
 1365SOL    HW1 4951   5.601   2.517   2.709 -1.9055 -0.7367  1.1330
 1365SOL    HW2 4952   5.571   2.550   2.853  0.5166 -0.6185  1.6604
 1366SOL     OW 4953   1.267   0.148   4.501  0.2514 -0.0636 -0.0748
 1366SOL    HW1 4954   1.318   0.226   4.524 -0.0531  0.5246 -1.3373
 1366SOL    HW2 4955   1.295   0.125   4.413  0.7988 -1.7931  0.4962
 1367SOL     OW 4956   5.128   4.973   1.093  0.3962 -0.1042  0.1411
 1367SOL    HW1 4957   5.081   4.937   1.018 -0.0293  0.4485  0.1306
 1367SOL    HW2 4958   5.199   5.025   1.054  0.3273 -0.0190  0.1296
 1368SOL     OW 4959   0.664   2.211   3.786  0.2373 -0.1315 -0.2656
 1368SOL    HW1 4960   0.601   2.282   3.774 -0.8040 -0.9116  0.4287
 1368SOL    HW2 4961   0.689   2.216   3.878  1.1430  0.1216 -0.5181
 1369SOL     OW 4962   3.684   1.592   1.605  0.1701 -0.0675  0.1109
 1369SOL    HW1 4963   3.644   1.679   1.609  1.7133  0.6342  1.1153
 1369SOL    HW2 4964   3.631   1.544   1.542 -1.0916  1.4020  0.0026
 1370SOL     OW 4965   2.097   4.243   7.591 -0.1702 -0.7056  0.0858
 1370SOL    HW1 4966   2.132   4.291   7.516 -0.5920 -0.6013 -0.0474
 1370SOL    HW2 4967   2.174   4.214   7.639  0.0936  0.0560  0.1380
 1371SOL     OW 4968   2.688   3.082   7.474 -0.0102  0.8228  0.2097
 1371SOL    HW1 4969   2.706   3.066   7.567  2.7050  0.0468 -0.3687
 1371SOL    HW2 4970   2.773   3.107   7.437 -0.8605  0.3906 -2.2125
 1372SOL     OW 4971   7.687   2.547   5.298  0.3802  0.1748 -0.4757
 1372SOL    HW1 4972   7.712   2.599   5.222  0.2062  0.7755 -0.1265
 1372SOL    HW2 4973   7.749   2.573   5.366  0.9251 -0.8036 -0.5756
 1373SOL     OW 4974   4.095   0.481   0.081 -0.5209 -0.3685 -0.3901
 1373SOL    HW1 4975   4.093   0.403   0.136 -0.6231 -0.7146 -0.8790
 1373SOL    HW2 4976   4.015   0.477   0.029 -0.4801  0.0094 -0.4905
 1374SOL     OW 4977   7.343   1.600   5.885  0.2364 -0.0824  0.0173
 1374SOL    HW1 4978   7.265   1.614   5.939  1.1001 -0.2467  1.3664
 1374SOL    HW2 4979   7.399   1.675   5.905  1.5953 -1.3707  1.2499
 1375SOL     OW 4980   2.444   4.183   0.775 -0.0998  0.5396  0.0695
 1375SOL    HW1 4981   2.513   4.118   0.786 -1.6348 -1.2266 -0.2294
 1375SOL    HW2 4982   2.396   4.181   0.858 -1.8940 -0.9106 -0.9134
 1376SOL     OW 4983   0.817   3.544   1.944  0.1782 -0.7777 -0.5580
 1376SOL    HW1 4984   0.870   3.624   1.953 -1.2866  0.3468 -1.4691
 1376SOL    HW2 4985   0.778   3.530   2.030 -0.9480  0.5348 -0.8267
 1377SOL     OW 4986   0.611   0.992   2.768  0.0378 -0.1949  0.5103
 1377SOL    HW1 4987   0.553   0.986   2.845 -0.3771 -0.2272  0.1995
 1377SOL    HW2 4988   0.624   1.086   2.755 -1.1323 -0.1234 -0.2891
 1378SOL     OW 4989   3.504   4.935   2.077 -0.4878 -0.3472 -0.7083
 1378SOL    HW1 4990   3.476   5.003   2.138 -1.3149 -1.7159  0.5096
 1378SOL    HW2 4991   3.474   4.965   1.991 -0.4125  1.0236 -0.2726
 1379SOL     OW 4992   7.645   2.734   3.640  0.2944 -0.0525 -0.4466
 1379SOL    HW1 4993   7.733   2.740   3.600  0.3239  1.0604 -0.2473
 1379SOL    HW2 4994   7.587   2.769   3.573  0.0629 -0.3264 -0.3868
 1380SOL     OW 4995   6.822   5.547   7.411 -0.3418  0.4574  0.5786
 1380SOL    HW1 4996   6.794   5.610   7.344 -1.7571 -0.3888  0.3335
 1380SOL    HW2 4997   6.832   5.599   7.491 -0.5438  1.1494  0.1653
 1381SOL     OW 4998   4.592   7.544   7.675 -0.3299 -0.7950  0.5140
 1381SOL    HW1 4999   4.623   7.620   7.726 -0.2251 -0.3335 -0.2324
 1381SOL    HW2 5000   4.587   7.473   7.740  2.4966 -0.9722  0.7059
 1382SOL     OW 5001   2.108   6.164   5.434 -0.0305 -0.0946 -0.0652
 1382SOL    HW1 5002   2.059   6.224   5.378 -1.1202 -0.4557  0.4782
 1382SOL    HW2 5003   2.092   6.077   5.396  2.7990  0.0101 -1.7983
 1383SOL     OW 5004   1.900   4.697   6.060 -0.3329 -0.6171  0.1949
 1383SOL    HW1 5005   1.888   4.699   5.965 -0.9377  3.1269  0.1902
 1383SOL    HW2 5006   1.823   4.651   6.093 -1.1689 -0.1759 -1.0529
 1384SOL     OW 5007   7.357   5.641   1.774  0.5579  0.0884  0.1428
 1384SOL    HW1 5008   7.367   5.549   1.797 -1.0910  0.1228  1.1454
 1384SOL    HW2 5009   7.364   5.643   1.679 -1.6068 -1.4420 -0.1208
 1385SOL     OW 5010   5.247   2.605   0.498 -0.4415  0.3531  0.1661
 1385SOL    HW1 5011   5.193   2.527   0.482  1.3528 -1.3793  1.9839
 1385SOL    HW2 5012   5.199   2.676   0.455 -2.6497 -1.5588 -0.7765
 1386SOL     OW 5013   3.292   5.897   7.536 -0.1114 -0.3447  0.0928
 1386SOL    HW1 5014   3.237   5.857   7.603 -1.5624  1.2166 -0.1039
 1386SOL    HW2 5015   3.273   5.846   7.457 -2.0009  0.6993 -0.1750
 1387SOL     OW 5016   2.733   7.658   4.592 -0.3485 -0.2030  0.0225
 1387SOL    HW1 5017   2.655   7.603   4.585 -0.3516 -0.2109  0.1101
 1387SOL    HW2 5018   2.705   7.743   4.559 -0.0207 -0.5587 -1.2031
 1388SOL     OW 5019   7.554   2.864   5.244 -0.4876 -0.7330 -0.4986
 1388SOL    HW1 5020   7.487   2.815   5.196  0.4000 -1.1416 -1.3521
 1388SOL    HW2 5021   7.635   2.816   5.227  0.0699 -0.1007  0.3146
 1389SOL     OW 5022   4.253   6.250   2.129  0.6414  0.0835  0.5294
 1389SOL    HW1 5023   4.297   6.165   2.132 -0.3141 -0.4878 -0.6316
 1389SOL    HW2 5024   4.312   6.306   2.078  0.7939 -0.1911  0.4039
 1390SOL     OW 5025   2.491   7.863   6.222 -0.4494 -0.0801  0.3105
 1390SOL    HW1 5026   2.494   7.936   6.284 -0.7889 -1.2459  1.7606
 1390SOL    HW2 5027   2.569   7.875   6.168  0.0350  0.8175  1.1710
 1391SOL     OW 5028   6.395   6.658   2.933 -0.8236 -0.4152 -0.5645
 1391SOL    HW1 5029   6.347   6.706   3.000 -0.6747 -4.1652  2.6014
 1391SOL    HW2 5030   6.329   6.639   2.866 -2.2448 -0.3592  0.7660
 1392SOL     OW 5031   7.883   5.929   4.151 -0.4783 -0.4276  0.8823
 1392SOL    HW1 5032   7.873   5.971   4.065  0.0118  1.1141  1.5508
 1392SOL    HW2 5033   7.959   5.872   4.141  1.6770  2.1806  1.1350
 1393SOL     OW 5034   7.954   6.528   7.760  0.6807  0.5726 -0.4681
 1393SOL    HW1 5035   8.034   6.478   7.746  0.7203  0.6651 -0.5677
 1393SOL    HW2 5036   7.888   6.462   7.781  1.5051  0.6588  3.0350
 1394SOL     OW 5037   0.679   3.011   6.285 -0.3495  0.1457 -0.1425
 1394SOL    HW1 5038   0.585   2.995   6.285 -0.3572  0.1640  0.3484
 1394SOL    HW2 5039   0.687   3.107   6.285 -0.3414  0.1491  0.2116
 1395SOL     OW 5040   1.088   0.689   0.602  0.2067 -0.1918  0.3355
 1395SOL    HW1 5041   1.093   0.595   0.584 -1.4125 -0.4383  0.9837
 1395SOL    HW2 5042   1.179   0.719   0.598  0.7148 -1.6917 -0.2973
 1396SOL     OW 5043   5.308   5.478   6.625 -0.4917  0.3033  0.0221
 1396SOL    HW1 5044   5.372   5.529   6.674 -0.3272 -1.7076  2.0489
 1396SOL    HW2 5045   5.360   5.417   6.572 -0.7067  1.4407 -1.5705
 1397SOL     OW 5046   7.323   4.959   6.770  0.2750  0.1217  0.1361
 1397SOL    HW1 5047   7.335   4.980   6.863  0.5905 -2.0642  0.6274
 1397SOL    HW2 5048   7.384   4.888   6.753 -1.4276 -1.1263 -1.1221
 1398SOL     OW 5049   4.790   1.871   1.942  0.4384  0.3766 -0.2951
 1398SOL    HW1 5050   4.812   1.814   2.015 -1.6717 -0.8913 -0.5701
 1398SOL    HW2 5051   4.869   1.924   1.928  2.0610 -1.6516  0.7089
 1399SOL     OW 5052   1.879   6.734   1.800  0.4219 -0.0073  0.2973
 1399SOL    HW1 5053   1.934   6.796   1.847  1.3300 -0.1469 -0.5534
 1399SOL    HW2 5054   1.905   6.743   1.708 -2.7210  1.7726 -0.5842
 1400SOL     OW 5055   5.611   5.656   0.817 -0.0643 -0.2586  0.1242
 1400SOL    HW1 5056   5.629   5.563   0.799  1.3865  0.4725 -2.7764
 1400SOL    HW2 5057   5.570   5.656   0.903  0.7968 -3.5068  0.6655
 1401SOL     OW 5058   4.028   6.066   2.943  0.1105 -0.3685  0.6012
 1401SOL    HW1 5059   3.979   6.082   2.862 -0.5450  0.1710  1.0868
 1401SOL    HW2 5060   4.119   6.084   2.920  0.0748 -1.2754 -0.2913
 1402SOL     OW 5061   4.314   0.180   3.239 -0.0788 -0.0876  0.3690
 1402SOL    HW1 5062   4.360   0.100   3.213  0.8433  0.4748  0.2513
 1402SOL    HW2 5063   4.234   0.180   3.186  0.3482 -0.4656 -0.2869
 1403SOL     OW 5064   5.110   0.299   1.970 -0.5896  0.1064 -0.1261
 1403SOL    HW1 5065   5.069   0.244   2.037 -0.5365  0.5866  0.3133
 1403SOL    HW2 5066   5.203   0.277   1.973 -0.8987 -1.7403 -1.8410
 1404SOL     OW 5067   0.187   3.878   1.514 -0.0631 -0.3162  0.6845
 1404SOL    HW1 5068   0.119   3.928   1.558  0.1272 -0.7735  1.5227
 1404SOL    HW2 5069   0.195   3.919   1.428 -2.0803 -0.8707  0.1832
 1405SOL     OW 5070   2.948   3.783   2.153  0.3133 -0.0178 -0.0928
 1405SOL    HW1 5071   3.031   3.785   2.105  1.0808  3.4452  1.0926
 1405SOL    HW2 5072   2.886   3.829   2.095  0.5045  1.6220  0.9563
 1406SOL     OW 5073   0.417   4.436   4.341 -0.2363 -0.3113 -0.1142
 1406SOL    HW1 5074   0.367   4.406   4.417  0.5360  0.6007  0.7743
 1406SOL    HW2 5075   0.399   4.371   4.274  0.5890 -2.2043  1.4224
 1407SOL     OW 5076   1.118   2.639   6.833  0.5098  0.1749 -1.0774
 1407SOL    HW1 5077   1.065   2.709   6.794 -0.2154 -0.2212 -0.8253
 1407SOL    HW2 5078   1.059   2.597   6.896  0.7872 -0.9547 -1.5519
 1408SOL     OW 5079   5.003   2.293   3.473 -0.1927 -0.1546 -0.1345
 1408SOL    HW1 5080   4.918   2.253   3.453  0.4248 -1.1919 -0.7861
 1408SOL    HW2 5081   5.023   2.346   3.396 -0.9821  1.4260  0.7034
 1409SOL     OW 5082   0.026   7.437   0.726 -0.2883 -0.5266  0.3612
 1409SOL    HW1 5083   0.027   7.359   0.781  2.5423 -0.9400 -0.1499
 1409SOL    HW2 5084  -0.004   7.507   0.784  1.2632 -1.2134  2.0685
 1410SOL     OW 5085   1.842   3.185   2.602  0.1404  0.0967  0.6496
 1410SOL    HW1 5086   1.892   3.163   2.681  0.8114 -0.4791  0.0822
 1410SOL    HW2 5087   1.753   3.157   2.622  0.1345  0.6988  1.5005
 1411SOL     OW 5088   3.549   2.644   3.090 -0.2083 -0.3435 -0.2541
 1411SOL    HW1 5089   3.527   2.552   3.105  0.1130 -0.2777  0.6673
 1411SOL    HW2 5090   3.496   2.669   3.014 -0.5549 -1.1943 -0.3024
 1412SOL     OW 5091   2.750   2.784   4.135 -0.3077 -0.5462 -0.5491
 1412SOL    HW1 5092   2.729   2.690   4.139 -1.0284 -0.4059 -0.9440
 1412SOL    HW2 5093   2.818   2.791   4.068  1.9325 -1.1502  1.4957
 1413SOL     OW 5094   3.279   7.733   2.807  1.0754  0.4314 -0.4683
 1413SOL    HW1 5095   3.301   7.754   2.898 -1.8044  0.5698  0.2896
 1413SOL    HW2 5096   3.231   7.809   2.775 -0.4471 -0.7629 -1.1355
 1414SOL     OW 5097   6.333   6.835   6.012 -0.0649  0.2042 -0.3442
 1414SOL    HW1 5098   6.330   6.893   5.937  0.5982  0.6105 -0.0625
 1414SOL    HW2 5099   6.388   6.880   6.076  0.2850 -0.6310 -0.0372
 1415SOL     OW 5100   3.884   7.125   1.793 -0.6236  0.3607  0.2942
 1415SOL    HW1 5101   3.864   7.195   1.855 -2.3266 -0.1106  0.3463
 1415SOL    HW2 5102   3.844   7.153   1.711 -0.0127  0.1334 -0.0823
 1416SOL     OW 5103   0.316   7.109   0.644  0.7797  0.0666  0.3176
 1416SOL    HW1 5104   0.376   7.182   0.655  0.6764  0.6210 -2.2719
 1416SOL    HW2 5105   0.255   7.138   0.576 -0.7658 -1.5198  0.9454
 1417SOL     OW 5106   1.635   6.278   1.949 -0.7588 -0.5640  0.1319
 1417SOL    HW1 5107   1.557   6.260   2.002 -0.9288 -0.4774 -0.0885
 1417SOL    HW2 5108   1.661   6.366   1.976  0.3801 -1.2948  1.5947
 1418SOL     OW 5109   7.702   3.163   1.075  0.5110  0.1123 -0.3111
 1418SOL    HW1 5110   7.787   3.120   1.086  0.8406  1.2166  2.1036
 1418SOL    HW2 5111   7.683   3.202   1.160 -1.5619  1.4944 -1.3049
 1419SOL     OW 5112   0.197   4.326   6.815 -0.4680  0.2975 -0.0453
 1419SOL    HW1 5113   0.290   4.301   6.814 -0.9843 -1.7732 -0.2305
 1419SOL    HW2 5114   0.199   4.421   6.821  1.6760  0.3300 -0.2293
 1420SOL     OW 5115   0.403   5.821   5.972  0.3406  0.2222  0.3536
 1420SOL    HW1 5116   0.315   5.838   6.007 -0.1471  2.8861 -1.7800
 1420SOL    HW2 5117   0.394   5.836   5.878  3.2431  1.4652  0.1713
 1421SOL     OW 5118   1.653   2.631   4.838 -0.5382 -0.4457  0.7332
 1421SOL    HW1 5119   1.724   2.629   4.902  0.5023 -1.0220 -0.3948
 1421SOL    HW2 5120   1.584   2.682   4.881  1.2297  1.7557  1.1985
 1422SOL     OW 5121   1.527   4.146   4.303  0.3899 -0.8002 -0.4921
 1422SOL    HW1 5122   1.473   4.067   4.303  0.2570 -0.7139 -0.1364
 1422SOL    HW2 5123   1.481   4.206   4.362  1.0813 -0.8699  0.1332
 1423SOL     OW 5124   3.058   7.844   7.032  1.0908 -0.0931 -0.3847
 1423SOL    HW1 5125   3.114   7.774   7.066  1.7931  1.6531  2.2979
 1423SOL    HW2 5126   3.057   7.910   7.100 -2.8644  0.7929 -1.0497
 1424SOL     OW 5127   0.936   3.173   4.549  0.0626  0.0418 -0.1619
 1424SOL    HW1 5128   0.904   3.173   4.459 -2.7177 -2.3505  0.6690
 1424SOL    HW2 5129   1.028   3.148   4.543 -0.2253 -0.6403 -2.2941
 1425SOL     OW 5130   7.458   5.771   3.028 -0.1389 -0.4589 -0.1119
 1425SOL    HW1 5131   7.390   5.707   3.008 -1.4679  0.3397  1.5205
 1425SOL    HW2 5132   7.452   5.783   3.123  0.8217  1.2171 -0.2171
 1426SOL     OW 5133   2.277   5.006   3.236 -0.2910 -0.4548 -0.0986
 1426SOL    HW1 5134   2.371   4.991   3.251 -0.2116  0.2663  0.1594
 1426SOL    HW2 5135   2.251   4.934   3.178  0.8628  0.3805 -1.7784
 1427SOL     OW 5136   1.282   2.918   7.271  0.5772 -0.4502 -0.0186
 1427SOL    HW1 5137   1.234   2.917   7.354  1.3245 -0.5246  0.4244
 1427SOL    HW2 5138   1.357   2.974   7.288 -0.0605  0.7844 -1.1209
 1428SOL     OW 5139   3.138   4.957   0.548 -0.3958  0.5194  0.3225
 1428SOL    HW1 5140   3.099   4.931   0.464 -1.2494  0.1822  0.8140
 1428SOL    HW2 5141   3.076   5.021   0.584  1.2000  2.6435 -0.4386
 1429SOL     OW 5142   1.528   7.550   0.692  0.3407 -0.6682  0.0062
 1429SOL    HW1 5143   1.617   7.559   0.726  0.8684 -2.8356 -0.6068
 1429SOL    HW2 5144   1.524   7.460   0.660 -1.5919 -0.1295 -1.4393
 1430SOL     OW 5145   2.011   0.485   2.927  0.1594 -0.1974 -0.2818
 1430SOL    HW1 5146   2.084   0.503   2.869  1.6991  1.9322  2.0911
 1430SOL    HW2 5147   1.934   0.519   2.880  0.7725 -1.5135 -2.3645
 1431SOL     OW 5148   0.093   7.432   7.742 -0.3139  0.0142  0.2353
 1431SOL    HW1 5149   0.079   7.419   7.836  1.3194  1.8362  0.7928
 1431SOL    HW2 5150   0.007   7.455   7.708 -0.6644  0.7996  1.5729
 1432SOL     OW 5151   1.300   4.427   6.689  0.6751  0.2126  0.2305
 1432SOL    HW1 5152   1.395   4.426   6.673  0.8843  1.4383  1.1651
 1432SOL    HW2 5153   1.288   4.498   6.752 -0.8613 -0.0189  0.2322
 1433SOL     OW 5154   2.779   3.444   1.408 -0.5512 -1.0368 -0.2792
 1433SOL    HW1 5155   2.874   3.450   1.403 -0.5947 -0.5518 -0.5754
 1433SOL    HW2 5156   2.758   3.461   1.500 -0.4203 -0.1348 -0.4113
 1434SOL     OW 5157   6.578   5.013   5.930 -0.3119 -0.5383 -0.5276
 1434SOL    HW1 5158   6.647   5.032   5.993  1.0612 -1.4615 -1.6822
 1434SOL    HW2 5159   6.585   5.082   5.864 -1.3731  0.1101  0.0217
 1435SOL     OW 5160   3.307   6.095   7.977 -0.2798 -0.0177 -0.4155
 1435SOL    HW1 5161   3.373   6.050   8.030 -0.5078  0.6068  0.4232
 1435SOL    HW2 5162   3.230   6.099   8.034 -0.8138 -0.0947 -1.1192
 1436SOL     OW 5163   6.003   1.983   2.790  0.0503  0.3076  0.0861
 1436SOL    HW1 5164   5.934   2.021   2.844 -0.0239  2.2005 -1.2578
 1436SOL    HW2 5165   6.077   1.974   2.850  0.1569  2.9024  0.4718
 1437SOL     OW 5166   5.240   0.512   0.334  0.7268 -0.0773  0.4242
 1437SOL    HW1 5167   5.189   0.431   0.326 -1.5023  1.4128 -2.0630
 1437SOL    HW2 5168   5.330   0.482   0.348 -0.4031 -2.8807  2.6941
 1438SOL     OW 5169   7.575   5.211   7.569 -0.3636 -0.4148 -0.6861
 1438SOL    HW1 5170   7.493   5.180   7.529 -0.7112  1.5163 -1.5776
 1438SOL    HW2 5171   7.643   5.157   7.529 -0.9233  0.0073 -2.3007
 1439SOL     OW 5172   5.367   4.701   2.452  0.4789  0.3259 -0.1812
 1439SOL    HW1 5173   5.307   4.659   2.514  0.4571  0.0851 -0.3647
 1439SOL    HW2 5174   5.328   4.685   2.366  0.1377  1.2642 -0.2163
 1440SOL     OW 5175   5.202   3.224   3.861 -0.7445 -0.1308  0.0549
 1440SOL    HW1 5176   5.266   3.217   3.932  0.2014 -0.1868 -0.7682
 1440SOL    HW2 5177   5.248   3.272   3.792 -2.2172  1.4377  0.0964
 1441SOL     OW 5178   0.282   5.842   5.253 -0.4793 -0.2583  0.0576
 1441SOL    HW1 5179   0.280   5.768   5.313  0.7804 -0.2844  0.0989
 1441SOL    HW2 5180   0.372   5.844   5.220 -1.2039 -0.4732 -2.1233
 1442SOL     OW 5181   6.252   3.140   2.958 -0.3008  0.0891  0.2196
 1442SOL    HW1 5182   6.276   3.172   2.871  0.6308 -0.4494  0.2651
 1442SOL    HW2 5183   6.255   3.045   2.949 -0.6720  0.0284  0.7201
 1443SOL     OW 5184   3.786   1.335   0.617  0.0867  0.3463  0.2635
 1443SOL    HW1 5185   3.804   1.301   0.705 -0.1758 -0.5384 -0.0122
 1443SOL    HW2 5186   3.847   1.407   0.607 -0.2923  0.8557  1.4016
 1444SOL     OW 5187   5.052   1.062   6.033 -0.0251  0.1254  0.3489
 1444SOL    HW1 5188   5.062   0.991   5.969  0.3464 -1.5576  2.1745
 1444SOL    HW2 5189   5.138   1.103   6.037  0.3153 -0.6048  0.6898
 1445SOL     OW 5190   1.459   2.525   1.479  0.0257 -0.1603 -0.2573
 1445SOL    HW1 5191   1.368   2.501   1.459 -0.2907  0.6195  0.2052
 1445SOL    HW2 5192   1.467   2.511   1.573 -0.7251  3.1252  0.4157
 1446SOL     OW 5193   7.024   5.916   7.712 -0.0625  0.0908  0.4399
 1446SOL    HW1 5194   6.997   5.904   7.621 -1.4423  2.7891  0.3860
 1446SOL    HW2 5195   7.118   5.931   7.707  0.1513 -1.2901 -0.3269
 1447SOL     OW 5196   3.391   7.281   4.025  0.0810 -0.2296  0.4093
 1447SOL    HW1 5197   3.483   7.256   4.018  0.1881  0.0056  0.9014
 1447SOL    HW2 5198   3.345   7.219   3.968  0.8577  1.6069 -2.3910
 1448SOL     OW 5199   7.464   7.197   2.718 -0.6043 -0.0303  0.0994
 1448SOL    HW1 5200   7.392   7.147   2.680 -0.5414 -1.1927  1.4394
 1448SOL    HW2 5201   7.472   7.163   2.807  0.8380  0.9062  0.3505
 1449SOL     OW 5202   2.764   2.790   1.888 -0.0913 -0.1374  0.2943
 1449SOL    HW1 5203   2.681   2.760   1.851  0.4142 -0.5997 -0.4979
 1449SOL    HW2 5204   2.752   2.884   1.901 -0.8474 -0.2538  0.5048
 1450SOL     OW 5205   3.716   0.473   1.800 -0.1035 -0.3045 -0.1443
 1450SOL    HW1 5206   3.642   0.457   1.741  0.2430  0.6214 -0.8619
 1450SOL    HW2 5207   3.769   0.394   1.794 -0.8458 -0.8361  0.1129
 1451SOL     OW 5208   0.128   6.125   6.861  0.0209  0.4656  0.1476
 1451SOL    HW1 5209   0.187   6.106   6.933 -1.7602 -2.8459  0.9745
 1451SOL    HW2 5210   0.046   6.149   6.903 -0.6860 -0.2629 -0.7541
 1452SOL     OW 5211   1.125   0.692   3.179  0.0621  0.1853  0.4072
 1452SOL    HW1 5212   1.114   0.771   3.232 -0.2065 -0.2571  1.0268
 1452SOL    HW2 5213   1.170   0.630   3.237 -2.4503 -1.1772  1.0145
 1453SOL     OW 5214   3.143   4.606   6.632 -0.1246 -0.4761  0.0115
 1453SOL    HW1 5215   3.185   4.613   6.547  1.7378 -1.8871  0.7417
 1453SOL    HW2 5216   3.171   4.685   6.679 -1.1368  0.2923 -0.6122
 1454SOL     OW 5217   3.999   4.654   1.756  0.5949 -0.7795 -0.2008
 1454SOL    HW1 5218   4.033   4.743   1.748  0.1031 -0.6254 -0.7075
 1454SOL    HW2 5219   4.054   4.602   1.697 -0.1630 -0.4844 -1.2158
 1455SOL     OW 5220   2.607   0.510   0.653 -0.3941 -0.2466  0.0747
 1455SOL    HW1 5221   2.657   0.442   0.699  0.6006 -0.3141 -1.0557
 1455SOL    HW2 5222   2.546   0.461   0.598 -0.9668 -0.1767  0.6332
 1456SOL     OW 5223   4.553   3.868   5.781  0.5097  0.6968 -0.5681
 1456SOL    HW1 5224   4.626   3.876   5.720  0.8755 -0.2838 -0.2678
 1456SOL    HW2 5225   4.476   3.858   5.726  1.0339 -2.0364 -0.9249
 1457SOL     OW 5226   2.962   0.788   7.064 -0.3871 -0.0879  0.1704
 1457SOL    HW1 5227   2.899   0.718   7.079 -0.3501 -0.6636 -1.9676
 1457SOL    HW2 5228   2.992   0.775   6.974  0.1011  2.2904 -0.1012
 1458SOL     OW 5229   6.127   1.195   3.977  0.2894 -0.3217 -0.0710
 1458SOL    HW1 5230   6.119   1.133   4.049  1.0733 -0.5969 -0.2097
 1458SOL    HW2 5231   6.041   1.236   3.971  0.6457  0.9093  2.0916
 1459SOL     OW 5232   6.469   0.160   7.337 -0.1603  0.2677 -0.5053
 1459SOL    HW1 5233   6.550   0.168   7.287  0.3637  0.7811  0.3909
 1459SOL    HW2 5234   6.488   0.094   7.404  0.4500  2.2481  1.3784
 1460SOL     OW 5235   0.704   5.135   3.786 -0.1469  0.4385  0.3919
 1460SOL    HW1 5236   0.786   5.138   3.834 -0.5724  0.2464  1.1471
 1460SOL    HW2 5237   0.648   5.077   3.838 -0.8424  0.7646  0.0187
 1461SOL     OW 5238   3.755   5.991   6.310 -0.1731 -0.0476  0.2118
 1461SOL    HW1 5239   3.803   6.071   6.332  0.3053 -0.7011  1.6836
 1461SOL    HW2 5240   3.684   5.988   6.375 -0.8701 -0.2495 -0.5448
 1462SOL     OW 5241   1.571   2.584   2.678 -0.8102 -0.3835  0.1290
 1462SOL    HW1 5242   1.608   2.671   2.689  0.1904 -0.6873 -0.6401
 1462SOL    HW2 5243   1.483   2.599   2.643 -1.6689  0.3700  2.4127
 1463SOL     OW 5244   7.843   4.581   2.159  0.0334 -0.1695  0.4430
 1463SOL    HW1 5245   7.864   4.651   2.097  0.2895 -0.0720  0.6348
 1463SOL    HW2 5246   7.795   4.517   2.107 -1.0364  0.5832  0.4868
 1464SOL     OW 5247   3.796   3.710   5.025  0.1663 -0.6559  0.0632
 1464SOL    HW1 5248   3.848   3.631   5.010  1.2577  0.0879 -0.1189
 1464SOL    HW2 5249   3.852   3.782   4.996 -0.7736  0.2028  0.3296
 1465SOL     OW 5250   5.909   6.094   4.466  0.7605  0.4716  0.0759
 1465SOL    HW1 5251   5.993   6.136   4.487  1.1094 -0.5627  0.8238
 1465SOL    HW2 5252   5.855   6.111   4.543  0.6611  0.1741  0.0717
 1466SOL     OW 5253   3.064   3.620   1.766 -0.1814 -0.2470 -0.5138
 1466SOL    HW1 5254   3.137   3.664   1.810  0.4368 -1.6457 -0.1041
 1466SOL    HW2 5255   2.989   3.676   1.784  0.6195  0.7588 -0.1975
 1467SOL     OW 5256   4.382   1.081   0.494 -0.2349 -0.0525  0.3421
 1467SOL    HW1 5257   4.356   1.103   0.404  1.3722 -0.5386 -0.2844
 1467SOL    HW2 5258   4.457   1.022   0.483 -0.6289 -0.9297  2.0075
 1468SOL     OW 5259   3.053   5.631   7.492 -0.5135 -0.3654  0.0334
 1468SOL    HW1 5260   3.125   5.640   7.431 -0.4223  2.2015  0.3948
 1468SOL    HW2 5261   2.974   5.638   7.437 -0.4298  1.0728  0.0433
 1469SOL     OW 5262   7.331   1.092   3.716 -0.5480  0.6348  0.2066
 1469SOL    HW1 5263   7.310   1.067   3.805  1.0355 -1.4202  0.1019
 1469SOL    HW2 5264   7.322   1.010   3.666 -3.1878  2.0948 -1.9259
 1470SOL     OW 5265   5.753   2.668   1.987  0.1663  0.0475  0.9138
 1470SOL    HW1 5266   5.783   2.699   2.072  0.7260  1.5370  0.2140
 1470SOL    HW2 5267   5.830   2.623   1.950  0.1529  0.0314  0.9058
 1471SOL     OW 5268   0.298   4.387   7.210  0.1663  0.0766  0.0616
 1471SOL    HW1 5269   0.392   4.397   7.227  0.7680 -1.6123 -1.8717
 1471SOL    HW2 5270   0.283   4.293   7.221 -1.6425  0.5076  1.7320
 1472SOL     OW 5271   4.154   0.492   0.799  0.0520  0.8361  0.2131
 1472SOL    HW1 5272   4.140   0.406   0.838 -1.3184  0.6227 -0.6862
 1472SOL    HW2 5273   4.245   0.514   0.822  1.4917 -2.1255 -1.9819
 1473SOL     OW 5274   2.204   7.366   7.724 -0.3217  0.2613 -0.0525
 1473SOL    HW1 5275   2.141   7.339   7.658  0.8301 -1.5646 -0.4911
 1473SOL    HW2 5276   2.258   7.433   7.681 -0.3487 -0.0362 -0.5479
 1474SOL     OW 5277   7.856   1.605   5.390 -0.2755  0.2813  0.0580
 1474SOL    HW1 5278   7.805   1.681   5.361 -2.4993 -1.5935 -1.2704
 1474SOL    HW2 5279   7.898   1.572   5.311 -1.5090 -1.3829  0.0493
 1475SOL     OW 5280   5.474   3.089   3.255 -0.2259  0.0173 -0.3046
 1475SOL    HW1 5281   5.466   3.072   3.349 -1.2048  0.1917 -0.3501
 1475SOL    HW2 5282   5.568   3.081   3.238 -0.2162 -1.6235  0.3700
 1476SOL     OW 5283   6.032   3.991   6.121  0.2926  0.3194  0.3603
 1476SOL    HW1 5284   6.088   3.970   6.195 -1.5667 -0.0833  1.7398
 1476SOL    HW2 5285   6.041   3.916   6.062  0.5882 -0.1151  0.9454
 1477SOL     OW 5286   6.965   3.403   3.499 -0.0106  0.1926 -0.1706
 1477SOL    HW1 5287   6.901   3.332   3.512  0.1804 -0.0673 -0.6178
 1477SOL    HW2 5288   7.038   3.380   3.557  0.8859 -1.0191 -1.6816
 1478SOL     OW 5289   1.846   6.650   0.078 -0.9039  0.5675 -0.0639
 1478SOL    HW1 5290   1.832   6.606  -0.006 -1.5793  0.6331  0.0098
 1478SOL    HW2 5291   1.877   6.738   0.054 -2.3382  1.0308 -0.2917
 1479SOL     OW 5292   3.931   3.787   1.944  0.0839 -0.4181 -0.3660
 1479SOL    HW1 5293   3.970   3.786   1.857  0.1459  0.2287 -0.3511
 1479SOL    HW2 5294   3.939   3.878   1.973  1.6882 -0.9691  1.0567
 1480SOL     OW 5295   3.019   0.793   0.628  0.1661 -0.5283 -0.2459
 1480SOL    HW1 5296   2.971   0.718   0.595  1.3159 -0.5977 -1.8953
 1480SOL    HW2 5297   3.103   0.790   0.582  0.7126  1.0619  0.5662
 1481SOL     OW 5298   2.442   1.277   3.645 -0.1374 -0.0046  0.4851
 1481SOL    HW1 5299   2.375   1.219   3.680 -1.7374  1.7949  0.5371
 1481SOL    HW2 5300   2.469   1.331   3.719  0.9433 -0.2624  0.3080
 1482SOL     OW 5301   4.462   7.541   6.893  0.0393 -0.4933  0.4813
 1482SOL    HW1 5302   4.534   7.535   6.956 -0.2296 -1.3634  0.7156
 1482SOL    HW2 5303   4.397   7.480   6.926  0.4303 -1.9897 -1.3666
 1483SOL     OW 5304   4.116   4.947   6.843 -0.1206 -0.0911 -0.3061
 1483SOL    HW1 5305   4.163   5.029   6.858  0.2800 -0.1806 -1.0471
 1483SOL    HW2 5306   4.055   4.941   6.917 -0.6789  1.2408 -0.6155
 1484SOL     OW 5307   5.689   2.326   3.635  0.0399  0.2760 -0.6810
 1484SOL    HW1 5308   5.654   2.406   3.673 -0.8096 -0.5976  0.4880
 1484SOL    HW2 5309   5.682   2.338   3.541  0.9786  2.0019 -0.5714
 1485SOL     OW 5310   4.004   6.826   6.211  0.3835 -0.1116  0.3285
 1485SOL    HW1 5311   3.923   6.783   6.238 -0.2900  1.9935  1.8862
 1485SOL    HW2 5312   3.979   6.884   6.139  1.2164 -1.8993 -1.5032
 1486SOL     OW 5313   1.652   5.741   6.662 -0.1058 -0.1522 -0.0435
 1486SOL    HW1 5314   1.577   5.684   6.672 -0.0522 -0.0785  0.8335
 1486SOL    HW2 5315   1.629   5.799   6.589 -0.3484 -0.9678 -0.6269
 1487SOL     OW 5316   7.147   3.438   5.660 -0.0164  0.3756 -0.2098
 1487SOL    HW1 5317   7.078   3.470   5.719 -0.3364 -1.3045  0.3674
 1487SOL    HW2 5318   7.110   3.449   5.572 -0.5098  0.6373  0.0244
 1488SOL     OW 5319   6.865   6.685   3.358 -0.3810 -0.2861 -0.4656
 1488SOL    HW1 5320   6.772   6.663   3.351 -0.4187 -0.1301 -0.4576
 1488SOL    HW2 5321   6.887   6.665   3.449 -0.7881  1.1245 -0.0337
 1489SOL     OW 5322   1.453   0.300   2.293  0.1066  0.0234 -0.0500
 1489SOL    HW1 5323   1.446   0.320   2.386 -0.9560 -1.9729  0.3349
 1489SOL    HW2 5324   1.392   0.360   2.251 -2.1566 -1.4475  0.9512
 1490SOL     OW 5325   7.883   5.312   5.220  0.6848 -0.0997  0.0157
 1490SOL    HW1 5326   7.874   5.403   5.192 -1.8610  0.2567  1.6987
 1490SOL    HW2 5327   7.827   5.304   5.297  2.4419 -2.6048  1.1875
 1491SOL     OW 5328   3.347   2.044   2.891  0.1944  0.1789  0.1994
 1491SOL    HW1 5329   3.295   2.072   2.815 -0.4445  1.9034  1.1976
 1491SOL    HW2 5330   3.316   2.100   2.962  2.4711  0.3044  1.1725
 1492SOL     OW 5331   7.947   4.399   7.737 -0.2603  0.2058 -0.0929
 1492SOL    HW1 5332   7.864   4.409   7.690  0.0003 -1.3337 -0.9282
 1492SOL    HW2 5333   7.921   4.370   7.824 -0.5935 -0.2843 -0.3551
 1493SOL     OW 5334   0.340   6.049   7.013  0.3745 -0.4964  0.3619
 1493SOL    HW1 5335   0.383   6.130   7.042  0.3729  0.1243 -1.2579
 1493SOL    HW2 5336   0.410   5.984   7.014  0.3154 -0.5696  1.9491
 1494SOL     OW 5337   1.205   5.144   1.878 -1.1724  0.3891 -0.1888
 1494SOL    HW1 5338   1.207   5.048   1.883  2.1533  0.3536  0.0208
 1494SOL    HW2 5339   1.155   5.162   1.798 -2.5983 -1.4530  0.2237
 1495SOL     OW 5340   7.431   0.001   5.256  0.5482 -0.2832  0.0824
 1495SOL    HW1 5341   7.343   0.019   5.223  0.4148  0.5484  0.8342
 1495SOL    HW2 5342   7.417  -0.061   5.327  0.6741 -0.8997 -0.4292
 1496SOL     OW 5343   3.646   3.271   0.758 -0.0756  0.0469  0.0374
 1496SOL    HW1 5344   3.661   3.332   0.830  1.5282 -2.1260  1.7159
 1496SOL    HW2 5345   3.567   3.223   0.782  1.8041 -2.4335  1.8718
 1497SOL     OW 5346   7.475   4.338   1.000  0.1104  0.4770 -0.4716
 1497SOL    HW1 5347   7.495   4.314   1.091  0.6562 -1.3277 -1.0128
 1497SOL    HW2 5348   7.386   4.308   0.987  0.3286 -0.0637 -0.7623
 1498SOL     OW 5349   2.040   4.102   5.943  0.0554 -0.0495 -0.2698
 1498SOL    HW1 5350   1.966   4.138   5.993 -1.0573 -1.4130 -0.8573
 1498SOL    HW2 5351   2.062   4.171   5.880 -1.9290 -0.2429 -1.2744
 1499SOL     OW 5352   3.472   5.222   6.229  0.0401 -0.2451 -0.5697
 1499SOL    HW1 5353   3.555   5.184   6.260  0.6327 -1.0120 -2.8792
 1499SOL    HW2 5354   3.492   5.314   6.215 -0.2783  0.1518  1.3138
 1500SOL     OW 5355   3.123   7.205   0.588  0.5745  0.1310 -0.1242
 1500SOL    HW1 5356   3.162   7.145   0.526 -2.4025 -1.5816 -0.5359
 1500SOL    HW2 5357   3.124   7.158   0.672  0.6701  0.6296  0.1593
 1501SOL     OW 5358   2.763   1.597   0.907 -0.2759  0.0159  0.2430
 1501SOL    HW1 5359   2.844   1.580   0.860 -0.6624 -0.5409 -0.2334
 1501SOL    HW2 5360   2.777   1.561   0.995 -0.7352 -1.9706 -0.4559
 1502SOL     OW 5361   5.205   1.775   2.765  0.1810  0.1462  0.7066
 1502SOL    HW1 5362   5.157   1.695   2.783  0.3094 -0.0004  0.3996
 1502SOL    HW2 5363   5.288   1.765   2.813  0.3772 -0.0942  0.3254
 1503SOL     OW 5364   6.748   3.122   5.438  0.1701 -0.1473 -0.4439
 1503SOL    HW1 5365   6.806   3.067   5.385  0.5619  0.4567 -0.6635
 1503SOL    HW2 5366   6.679   3.063   5.468  0.6302 -0.7716 -0.5922
 1504SOL     OW 5367   7.871   7.162   2.903  0.4932 -0.1585  0.1791
 1504SOL    HW1 5368   7.893   7.148   2.995  0.9313 -0.1383  0.0796
 1504SOL    HW2 5369   7.784   7.201   2.906  0.2064 -0.8102  0.5498
 1505SOL     OW 5370   3.353   1.906   4.493 -0.0243  0.1185  0.1564
 1505SOL    HW1 5371   3.282   1.931   4.552 -1.2024  0.9417 -1.5147
 1505SOL    HW2 5372   3.427   1.962   4.518 -0.7553  1.0097  0.3557
 1506SOL     OW 5373   7.902   4.075   0.395 -0.1577  0.7523  0.4542
 1506SOL    HW1 5374   7.857   4.141   0.448  1.0336  1.8155  0.1780
 1506SOL    HW2 5375   7.904   4.112   0.307 -0.1220  0.0066  0.1359
 1507SOL     OW 5376   3.332   5.982   7.098  0.1077 -0.2492  0.0767
 1507SOL    HW1 5377   3.262   6.046   7.086 -0.2962 -1.0813 -2.5401
 1507SOL    HW2 5378   3.400   6.009   7.036 -0.3086 -2.5919 -1.5152
 1508SOL     OW 5379   1.642   2.787   6.447 -0.2594  0.3588 -1.2059
 1508SOL    HW1 5380   1.608   2.761   6.532  0.3762 -0.0503 -1.0671
 1508SOL    HW2 5381   1.735   2.805   6.462 -0.5290  2.0824 -1.4467
 1509SOL     OW 5382   2.894   4.000   7.600 -0.8568 -0.1903  0.0272
 1509SOL    HW1 5383   2.831   4.027   7.667 -1.5181  0.3112 -0.7780
 1509SOL    HW2 5384   2.868   3.910   7.578 -0.7091 -0.3152  0.3509
 1510SOL     OW 5385   7.132   5.944   0.572 -0.1710 -0.6862  0.7473
 1510SOL    HW1 5386   7.080   5.873   0.612  1.1622 -1.4214  1.2298
 1510SOL    HW2 5387   7.165   5.906   0.491 -0.4091 -0.2056  0.4215
 1511SOL     OW 5388   7.156   2.655   7.823  0.0399 -0.3251 -0.0874
 1511SOL    HW1 5389   7.122   2.578   7.778 -0.5239 -1.4151  2.0756
 1511SOL    HW2 5390   7.169   2.720   7.753 -0.0922 -2.1302 -1.8715
 1512SOL     OW 5391   7.765   6.974   5.078  0.3651 -0.4822 -0.3459
 1512SOL    HW1 5392   7.764   6.901   5.140  2.9628  1.0376  1.7096
 1512SOL    HW2 5393   7.799   6.936   4.997 -0.0126 -1.8985  0.1297
 1513SOL     OW 5394   4.512   0.956   1.562 -0.6814 -0.2138  0.4988
 1513SOL    HW1 5395   4.472   1.036   1.597  0.2088 -0.1505  1.4110
 1513SOL    HW2 5396   4.490   0.888   1.625  0.1935 -0.2822  0.7389
 1514SOL     OW 5397   5.585   7.123   4.598  0.6009  0.6069  0.3699
 1514SOL    HW1 5398   5.515   7.070   4.637  0.7974  0.2755  0.2730
 1514SOL    HW2 5399   5.664   7.069   4.605  0.7233  0.7146 -0.1003
 1515SOL     OW 5400   6.101   3.685   6.084 -0.4220 -0.1407  0.2403
 1515SOL    HW1 5401   6.190   3.720   6.071 -0.5621  0.2692  0.3806
 1515SOL    HW2 5402   6.100   3.658   6.175  0.2850 -2.2381 -0.3103
 1516SOL     OW 5403   0.321   7.776   0.913  0.1424 -0.0182 -0.0369
 1516SOL    HW1 5404   0.339   7.688   0.881  0.6675 -0.7950  2.2275
 1516SOL    HW2 5405   0.268   7.816   0.844 -1.2188 -2.5345 -0.5589
 1517SOL     OW 5406   4.256   6.812   7.671 -0.4721  0.0398  0.7403
 1517SOL    HW1 5407   4.255   6.732   7.724 -1.8709  0.2174  1.0394
 1517SOL    HW2 5408   4.189   6.796   7.604 -0.3115  0.7123  0.4130
 1518SOL     OW 5409   7.959   6.451   3.339 -0.1567 -0.2653  0.0749
 1518SOL    HW1 5410   8.035   6.440   3.397 -0.0733 -0.1906 -0.0179
 1518SOL    HW2 5411   7.887   6.410   3.386 -0.1397 -0.0049  0.3375
 1519SOL     OW 5412   7.114   5.415   7.614  0.2294 -0.2158  0.4434
 1519SOL    HW1 5413   7.071   5.334   7.587 -0.2329  0.4652 -0.9272
 1519SOL    HW2 5414   7.046   5.482   7.609  1.0863  0.6139 -0.3769
 1520SOL     OW 5415   2.095   5.652   5.489  0.0070 -0.2546  0.3546
 1520SOL    HW1 5416   2.104   5.608   5.405 -0.9183  1.1744 -0.5293
 1520SOL    HW2 5417   2.004   5.680   5.492  0.0566 -0.1409  1.7849
 1521SOL     OW 5418   4.375   5.153   4.176 -0.6206  0.0488 -0.1822
 1521SOL    HW1 5419   4.470   5.143   4.176 -0.6525 -0.2594 -0.5073
 1521SOL    HW2 5420   4.354   5.191   4.091 -0.7327  0.6818  0.1240
 1522SOL     OW 5421   5.493   3.937   6.984  0.0601  0.0071 -0.3077
 1522SOL    HW1 5422   5.540   3.862   7.020 -0.6593 -0.1259  0.3728
 1522SOL    HW2 5423   5.468   3.988   7.061 -0.2128  0.4954 -0.7169
 1523SOL     OW 5424   5.960   5.451   0.697  0.0609  0.1751  0.4824
 1523SOL    HW1 5425   5.875   5.408   0.683 -0.3124  0.6421  1.2431
 1523SOL    HW2 5426   6.017   5.412   0.631 -0.8528  0.1535 -0.3330
 1524SOL     OW 5427   2.966   1.520   3.457 -0.2071  0.1876 -0.5606
 1524SOL    HW1 5428   2.925   1.478   3.533  0.1228 -0.8593 -0.9341
 1524SOL    HW2 5429   3.002   1.447   3.406  0.2900  0.9302 -1.3070
 1525SOL     OW 5430   1.667   4.427   4.579 -0.8632  0.1919 -0.4234
 1525SOL    HW1 5431   1.643   4.373   4.655 -2.2627  1.5279  0.1311
 1525SOL    HW2 5432   1.592   4.421   4.520 -1.5872  2.3705  0.1683
 1526SOL     OW 5433   1.883   5.064   1.598  0.4383  0.0868  0.4604
 1526SOL    HW1 5434   1.955   5.045   1.659  2.5621  1.5521 -1.4313
 1526SOL    HW2 5435   1.895   5.000   1.528  1.9078  2.2147 -1.3638
 1527SOL     OW 5436   0.538   3.914   2.168 -0.3037 -0.0289  0.0746
 1527SOL    HW1 5437   0.534   3.939   2.076  0.6783 -1.6858 -0.4662
 1527SOL    HW2 5438   0.493   3.985   2.214 -1.5201  0.4531 -1.7336
 1528SOL     OW 5439   5.633   5.826   7.411  0.0708 -0.6368 -0.5050
 1528SOL    HW1 5440   5.708   5.854   7.359  0.1769 -0.4103 -0.2351
 1528SOL    HW2 5441   5.668   5.817   7.500 -0.1288 -0.9285 -0.4547
 1529SOL     OW 5442   4.943   0.289   1.755 -0.2094 -0.2246  0.1709
 1529SOL    HW1 5443   5.022   0.290   1.810 -0.2795  0.3003  0.2644
 1529SOL    HW2 5444   4.922   0.382   1.742  0.3551 -0.3024 -1.5155
 1530SOL     OW 5445   5.201   6.289   2.568 -0.1811 -0.4327  0.7462
 1530SOL    HW1 5446   5.207   6.262   2.476 -0.5514  1.9726 -0.0350
 1530SOL    HW2 5447   5.289   6.270   2.603 -0.3160 -2.2716  0.2192
 1531SOL     OW 5448   0.662   4.951   5.661  0.4649  0.1997  0.1388
 1531SOL    HW1 5449   0.718   5.004   5.718 -1.1564  2.0905  0.0837
 1531SOL    HW2 5450   0.580   5.000   5.655 -0.8779 -1.9699 -0.5655
 1532SOL     OW 5451   3.516   5.274   4.603  0.1914  0.2812 -0.2431
 1532SOL    HW1 5452   3.462   5.209   4.648  0.2805  0.0531 -0.4649
 1532SOL    HW2 5453   3.525   5.240   4.514  0.5753  0.3968 -0.2477
 1533SOL     OW 5454   5.136   1.419   0.653  0.2469 -0.0509  0.7844
 1533SOL    HW1 5455   5.195   1.355   0.614 -1.1764 -0.7147 -0.4135
 1533SOL    HW2 5456   5.072   1.437   0.584 -0.9689  0.5860  2.0247
 1534SOL     OW 5457   1.028   0.749   3.909 -0.2022 -0.1315  0.3624
 1534SOL    HW1 5458   0.996   0.801   3.983  0.1270 -0.5724  0.8289
 1534SOL    HW2 5459   1.121   0.769   3.905 -0.2504  0.0100 -0.0361
 1535SOL     OW 5460   6.355   2.469   6.144  0.7731  0.9789 -0.0297
 1535SOL    HW1 5461   6.413   2.413   6.094 -0.2090  0.0861 -0.2106
 1535SOL    HW2 5462   6.333   2.541   6.085 -1.5081 -0.7924 -1.4881
 1536SOL     OW 5463   2.283   5.636   4.867 -0.1791 -0.1015 -0.1297
 1536SOL    HW1 5464   2.283   5.540   4.859 -0.7420 -0.2335  1.1950
 1536SOL    HW2 5465   2.225   5.665   4.797 -0.1236 -0.7396 -0.4562
 1537SOL     OW 5466   0.021   3.612   7.604  0.6587 -0.5578 -0.0355
 1537SOL    HW1 5467  -0.004   3.664   7.680 -0.6815 -0.3904 -0.5613
 1537SOL    HW2 5468  -0.050   3.550   7.592  1.6764 -1.7483 -0.1343
 1538SOL     OW 5469   0.793   2.092   3.341  0.1765 -0.2983  0.4834
 1538SOL    HW1 5470   0.747   2.173   3.363 -0.6404 -0.8874  1.0009
 1538SOL    HW2 5471   0.808   2.049   3.425  2.8084  0.4476  0.4617
 1539SOL     OW 5472   1.332   0.065   2.153  0.2658  0.1649 -0.4487
 1539SOL    HW1 5473   1.383   0.140   2.181 -0.6347  0.9421 -0.8504
 1539SOL    HW2 5474   1.337   0.066   2.057  0.2452 -0.2884 -0.4603
 1540SOL     OW 5475   0.781   7.488   5.118  0.1849 -0.2846  1.0128
 1540SOL    HW1 5476   0.708   7.486   5.180  0.7110  0.9438  1.6937
 1540SOL    HW2 5477   0.854   7.448   5.166  0.3630 -0.1333  0.8698
 1541SOL     OW 5478   2.008   2.066   3.258 -0.3011 -0.3436  0.4565
 1541SOL    HW1 5479   2.005   2.121   3.337  3.4123 -1.9012  1.9446
 1541SOL    HW2 5480   1.969   1.983   3.284 -0.4560 -0.3682  0.1516
 1542SOL     OW 5481   7.174   5.059   0.890  0.2415  0.7010  0.6033
 1542SOL    HW1 5482   7.215   5.054   0.977  2.4020 -3.2303 -0.3772
 1542SOL    HW2 5483   7.248   5.066   0.830 -0.9485 -0.3010 -1.0507
 1543SOL     OW 5484   7.654   0.260   6.819 -0.2558 -0.0668 -0.2767
 1543SOL    HW1 5485   7.674   0.343   6.776 -0.7084  0.3632  0.3309
 1543SOL    HW2 5486   7.704   0.195   6.769 -1.0996  0.3471 -1.7277
 1544SOL     OW 5487   6.761   4.170   1.888 -0.0349  0.3099  0.4093
 1544SOL    HW1 5488   6.710   4.104   1.934 -2.1408  1.8853  0.5197
 1544SOL    HW2 5489   6.851   4.155   1.916 -0.3192 -2.8121 -0.0253
 1545SOL     OW 5490   5.977   3.448   2.514  0.3736 -0.2489  0.6062
 1545SOL    HW1 5491   5.955   3.376   2.455 -0.6619 -0.2355  0.9444
 1545SOL    HW2 5492   6.026   3.509   2.460  1.0438 -1.0831  0.2431
 1546SOL     OW 5493   6.300   4.434   7.772  0.7527 -0.0563  0.9981
 1546SOL    HW1 5494   6.395   4.428   7.774  0.9534 -0.5227 -2.5490
 1546SOL    HW2 5495   6.271   4.348   7.742 -0.7030  0.3891  1.0452
 1547SOL     OW 5496   1.730   2.374   1.879 -0.4830  0.0942 -0.9571
 1547SOL    HW1 5497   1.692   2.302   1.929 -0.2275  0.0222 -0.8657
 1547SOL    HW2 5498   1.659   2.403   1.822 -0.1391 -1.2871 -2.1701
 1548SOL     OW 5499   5.724   4.796   2.772  0.1577 -0.4700  0.0965
 1548SOL    HW1 5500   5.630   4.799   2.751  0.1586  1.2622  0.2448
 1548SOL    HW2 5501   5.728   4.816   2.865  0.7754  1.1374 -0.2545
 1549SOL     OW 5502   6.154   1.152   0.243 -0.6084 -0.2810 -0.3711
 1549SOL    HW1 5503   6.075   1.100   0.255 -1.2764  0.5809 -0.8438
 1549SOL    HW2 5504   6.138   1.232   0.293  0.0726 -0.2089 -0.2563
 1550SOL     OW 5505   2.847   3.836   2.782  0.2872  0.2848  0.0815
 1550SOL    HW1 5506   2.934   3.876   2.775  1.3890 -1.7316  1.3298
 1550SOL    HW2 5507   2.840   3.809   2.874 -0.6735 -1.6784 -0.5145
 1551SOL     OW 5508   7.919   6.130   7.008 -0.4935 -0.3640 -0.3857
 1551SOL    HW1 5509   7.930   6.070   7.082  1.2407  0.3989  0.0283
 1551SOL    HW2 5510   7.905   6.215   7.048  1.3106  0.2076 -0.8717
 1552SOL     OW 5511   1.737   3.369   3.463 -0.6671  0.0108 -0.5068
 1552SOL    HW1 5512   1.759   3.425   3.537 -0.8330  0.8901 -1.1058
 1552SOL    HW2 5513   1.804   3.300   3.464 -0.0524  0.6009 -0.1507
 1553SOL     OW 5514   5.448   0.257   6.473  0.1226  0.1175 -0.1283
 1553SOL    HW1 5515   5.392   0.332   6.455  2.7081  1.7529 -1.9268
 1553SOL    HW2 5516   5.410   0.186   6.420 -0.5973  1.0092 -0.8502
 1554SOL     OW 5517   0.858   5.351   6.801 -0.1154 -0.3278 -0.0245
 1554SOL    HW1 5518   0.929   5.352   6.738 -1.1424 -1.3754 -1.2523
 1554SOL    HW2 5519   0.815   5.436   6.791  1.1945  0.5127  1.0695
 1555SOL     OW 5520   2.812   5.963   5.360  0.2421  0.5815  0.3743
 1555SOL    HW1 5521   2.717   5.974   5.351  0.1472 -1.3965 -2.3494
 1555SOL    HW2 5522   2.835   6.014   5.437 -2.9383  1.6183  0.7782
 1556SOL     OW 5523   5.492   2.511   1.248  0.0899  0.0708 -0.5020
 1556SOL    HW1 5524   5.491   2.573   1.175 -0.2790  0.1505 -0.4340
 1556SOL    HW2 5525   5.458   2.562   1.323  0.1944 -0.0902 -0.3445
 1557SOL     OW 5526   4.600   6.243   6.589 -0.1224  0.0713  0.4533
 1557SOL    HW1 5527   4.635   6.270   6.675  0.3366  1.9869 -0.2729
 1557SOL    HW2 5528   4.662   6.177   6.558  0.3407  0.1820  1.1169
 1558SOL     OW 5529   2.141   0.856   1.791  0.5314  0.1078 -0.2964
 1558SOL    HW1 5530   2.180   0.899   1.715  0.1108  0.0664 -0.5392
 1558SOL    HW2 5531   2.145   0.921   1.860 -1.5233  1.1445 -1.0688
 1559SOL     OW 5532   3.350   3.428   1.372  0.3007  0.4823 -0.4079
 1559SOL    HW1 5533   3.442   3.403   1.383  0.0886  0.3675  1.3899
 1559SOL    HW2 5534   3.347   3.520   1.398 -0.1645  0.3661 -0.0418
 1560SOL     OW 5535   6.402   4.904   7.482  0.1996 -0.2465 -0.5500
 1560SOL    HW1 5536   6.449   4.892   7.565  2.6379 -1.0059 -1.9277
 1560SOL    HW2 5537   6.451   4.851   7.419 -2.4895 -0.9559 -2.2127
 1561SOL     OW 5538   6.463   2.650   7.246  0.1757 -0.0027 -0.0862
 1561SOL    HW1 5539   6.550   2.627   7.277 -0.1008 -0.9736  0.0201
 1561SOL    HW2 5540   6.404   2.613   7.312 -0.3616 -0.6990 -0.9363
 1562SOL     OW 5541   1.609   7.015   1.315  0.5233  0.9774  0.6232
 1562SOL    HW1 5542   1.626   6.922   1.299  0.7928  0.8319  1.6744
 1562SOL    HW2 5543   1.527   7.016   1.364  0.5964  1.2885  0.7381
 1563SOL     OW 5544   0.631   7.315   3.582  0.0721 -0.2227  0.6830
 1563SOL    HW1 5545   0.567   7.386   3.570  1.3931  1.2229  1.6994
 1563SOL    HW2 5546   0.716   7.357   3.570  1.1334 -0.6168  4.9435
 1564SOL     OW 5547   1.173   1.368   2.331 -0.2135 -0.0735  0.4772
 1564SOL    HW1 5548   1.236   1.429   2.293  0.9228  0.5267  3.0910
 1564SOL    HW2 5549   1.223   1.287   2.344 -0.2061  0.1249  1.7561
 1565SOL     OW 5550   6.439   5.924   7.200 -0.2115 -0.1370  0.4066
 1565SOL    HW1 5551   6.500   5.908   7.128  0.0847  0.7758  0.4451
 1565SOL    HW2 5552   6.435   5.840   7.247 -2.7451 -1.7516 -2.3457
 1566SOL     OW 5553   6.050   1.714   5.119  0.5462  0.1619 -0.1960
 1566SOL    HW1 5554   6.026   1.743   5.030 -0.8443 -0.2304  0.0284
 1566SOL    HW2 5555   6.070   1.621   5.109 -0.5568 -0.1178  0.0424
 1567SOL     OW 5556   5.793   4.007   1.067  0.0817 -0.0873  0.5250
 1567SOL    HW1 5557   5.835   4.000   1.153 -0.0721 -0.9296  0.5345
 1567SOL    HW2 5558   5.820   4.093   1.035  0.3891  0.1109  1.2835
 1568SOL     OW 5559   0.623   0.334   3.080 -0.3078  0.1264 -0.1561
 1568SOL    HW1 5560   0.602   0.361   2.990  1.0349  0.0430 -0.5208
 1568SOL    HW2 5561   0.668   0.410   3.118 -1.2995  0.3397  0.6229
 1569SOL     OW 5562   7.091   1.287   0.528  0.4135 -0.4706  0.5101
 1569SOL    HW1 5563   7.087   1.277   0.432  1.3812  1.7999  0.1564
 1569SOL    HW2 5564   7.018   1.235   0.561  0.1333 -1.4166 -1.4533
 1570SOL     OW 5565   1.105   6.047   7.239  0.1965 -0.4399 -0.1480
 1570SOL    HW1 5566   1.057   6.090   7.168 -1.3761  0.8530  1.5561
 1570SOL    HW2 5567   1.186   6.097   7.246  0.1537 -0.2758 -0.7360
 1571SOL     OW 5568   4.995   4.336   7.336 -0.2168  0.4234  0.5235
 1571SOL    HW1 5569   4.910   4.352   7.295 -0.8087 -2.1453  0.6204
 1571SOL    HW2 5570   4.979   4.268   7.400  2.2910 -1.9093 -1.0866
 1572SOL     OW 5571   6.717   3.513   2.853 -0.3058 -0.4860  0.4811
 1572SOL    HW1 5572   6.768   3.550   2.781 -0.9648  0.1254  0.3070
 1572SOL    HW2 5573   6.654   3.455   2.810  0.5422 -1.6096  0.7333
 1573SOL     OW 5574   1.062   2.345   7.602  0.2292  0.3236 -0.2555
 1573SOL    HW1 5575   1.013   2.420   7.638  0.2983  0.6815 -0.8945
 1573SOL    HW2 5576   1.126   2.385   7.543 -1.2841 -0.3416 -2.4460
 1574SOL     OW 5577   1.697   6.404   4.498  0.5129 -0.2663  0.2014
 1574SOL    HW1 5578   1.734   6.399   4.410 -0.3828 -0.2473 -0.1941
 1574SOL    HW2 5579   1.603   6.388   4.485  0.4580 -0.8388  1.2254
 1575SOL     OW 5580   4.199   4.234   6.563  0.1751 -0.4522 -0.2012
 1575SOL    HW1 5581   4.264   4.172   6.529  0.2540  0.1888 -1.2794
 1575SOL    HW2 5582   4.248   4.316   6.573 -0.0396 -0.4347  0.7650
 1576SOL     OW 5583   0.671   0.167   1.990 -0.1588  0.4871  0.1624
 1576SOL    HW1 5584   0.740   0.101   1.993 -1.5812 -1.0747  0.0476
 1576SOL    HW2 5585   0.623   0.157   2.072 -1.7868 -0.2450 -0.8238
 1577SOL     OW 5586   6.639   7.527   3.277 -0.3804  0.2762 -0.3577
 1577SOL    HW1 5587   6.734   7.533   3.263 -0.0962 -1.2198  0.7024
 1577SOL    HW2 5588   6.627   7.553   3.369 -0.9968  0.4370 -0.4812
 1578SOL     OW 5589   5.400   4.280   3.536 -0.5047  0.0580  0.1567
 1578SOL    HW1 5590   5.372   4.365   3.502  0.9520  0.8729  0.9059
 1578SOL    HW2 5591   5.386   4.219   3.463  0.2886  1.2994 -1.0845
 1579SOL     OW 5592   0.505   7.801   4.191  0.6696 -0.1677  0.5954
 1579SOL    HW1 5593   0.521   7.748   4.269 -4.8677 -2.1588  0.8058
 1579SOL    HW2 5594   0.464   7.881   4.224 -1.9876 -1.1517 -0.0713
 1580SOL     OW 5595   7.913   4.180   5.862 -0.1938 -0.1585  0.9764
 1580SOL    HW1 5596   7.972   4.212   5.930 -0.8318  0.7462  1.1168
 1580SOL    HW2 5597   7.947   4.093   5.841  1.5390  0.5628  0.6243
 1581SOL     OW 5598   4.804   2.177   5.598 -0.1155  0.1799 -0.0490
 1581SOL    HW1 5599   4.899   2.179   5.603 -0.0526 -1.0132 -0.4872
 1581SOL    HW2 5600   4.774   2.207   5.683  0.6607 -0.3907  0.4308
 1582SOL     OW 5601   5.851   7.258   6.779  0.9758 -0.1835 -0.3173
 1582SOL    HW1 5602   5.924   7.301   6.734  2.2898 -2.1612 -0.2291
 1582SOL    HW2 5603   5.889   7.229   6.862 -0.9985  2.1037  1.5441
 1583SOL     OW 5604   7.656   3.651   2.920 -0.3971 -0.0174 -0.2484
 1583SOL    HW1 5605   7.684   3.560   2.926 -0.7095 -0.0424  1.0986
 1583SOL    HW2 5606   7.616   3.658   2.833 -0.0464 -1.0609 -0.5083
 1584SOL     OW 5607   4.691   4.601   7.747 -0.5342  0.2517  0.7513
 1584SOL    HW1 5608   4.691   4.634   7.837 -2.2879  0.2260  0.7901
 1584SOL    HW2 5609   4.669   4.677   7.693 -2.9431 -0.4243  0.6912
 1585SOL     OW 5610   0.429   2.726   6.350  0.0037  0.1195 -0.5159
 1585SOL    HW1 5611   0.427   2.809   6.303  0.0629 -0.0453 -0.8189
 1585SOL    HW2 5612   0.408   2.660   6.283 -1.4331  0.0065  0.0182
 1586SOL     OW 5613   1.104   2.807   3.587 -0.3250  0.3014 -0.1424
 1586SOL    HW1 5614   1.049   2.878   3.553  1.0227  1.6465  0.3893
 1586SOL    HW2 5615   1.193   2.838   3.576  0.2995 -1.1240  0.5751
 1587SOL     OW 5616   0.572   7.766   6.880 -0.4133 -0.1059 -0.2211
 1587SOL    HW1 5617   0.555   7.747   6.788  0.4642  0.0124 -0.4145
 1587SOL    HW2 5618   0.537   7.855   6.892 -2.0193 -0.7285 -0.0056
 1588SOL     OW 5619   3.701   6.947   7.966  0.5367 -0.3002  0.2206
 1588SOL    HW1 5620   3.779   6.940   7.912  0.8717  0.6416  0.5576
 1588SOL    HW2 5621   3.680   6.856   7.990  0.8485 -0.6514 -0.8085
 1589SOL     OW 5622   3.580   0.763   7.890  0.4881  0.6054  0.0965
 1589SOL    HW1 5623   3.486   0.783   7.888 -0.1277 -1.7302  1.4103
 1589SOL    HW2 5624   3.606   0.783   7.980  0.5838 -1.1633  0.4999
 1590SOL     OW 5625   0.807   1.664   6.367 -0.8440  0.3825 -0.3822
 1590SOL    HW1 5626   0.830   1.670   6.460  0.2182  0.7861 -0.6517
 1590SOL    HW2 5627   0.718   1.698   6.361 -2.1035 -2.3590  0.9070
 1591SOL     OW 5628   3.757   7.439   2.617 -0.1461 -0.0857  0.2057
 1591SOL    HW1 5629   3.829   7.484   2.661 -1.9941  2.7722  0.5527
 1591SOL    HW2 5630   3.731   7.497   2.546 -1.1619 -1.7628 -0.8816
 1592SOL     OW 5631   7.671   1.461   4.974 -0.5349  1.0034 -0.1834
 1592SOL    HW1 5632   7.672   1.445   5.069  1.4089  2.1900  0.0442
 1592SOL    HW2 5633   7.662   1.556   4.966 -3.2120  0.7423 -1.3086
 1593SOL     OW 5634   4.055   3.777   3.048 -0.5192 -0.4365 -0.0723
 1593SOL    HW1 5635   4.148   3.796   3.062  0.3319 -3.6551 -0.5161
 1593SOL    HW2 5636   4.025   3.744   3.133 -0.3767 -2.2915 -0.7028
 1594SOL     OW 5637   0.145   7.193   0.423  0.4815  0.0107  0.1487
 1594SOL    HW1 5638   0.061   7.239   0.427  0.2621 -0.4143  0.5568
 1594SOL    HW2 5639   0.195   7.239   0.355 -0.0202  0.3643  0.0155
 1595SOL     OW 5640   6.127   0.595   7.215 -0.4456 -0.6762  0.0973
 1595SOL    HW1 5641   6.130   0.571   7.123 -1.0918 -0.7178  0.0821
 1595SOL    HW2 5642   6.197   0.545   7.256  0.6226  0.2215 -0.5645
 1596SOL     OW 5643   3.158   3.927   4.238  0.1743 -0.8266 -0.1867
 1596SOL    HW1 5644   3.191   3.986   4.170  1.1008 -0.1789  0.7935
 1596SOL    HW2 5645   3.227   3.861   4.248  0.5134 -0.3409  0.8147
 1597SOL     OW 5646   4.953   7.803   5.280 -0.7168 -0.7970 -0.1710
 1597SOL    HW1 5647   4.876   7.767   5.237 -0.5632  0.3172 -1.4500
 1597SOL    HW2 5648   4.996   7.855   5.212  0.7622 -0.7931  0.7242
 1598SOL     OW 5649   0.894   0.239   3.718 -0.2250  0.2625 -0.6016
 1598SOL    HW1 5650   0.861   0.150   3.723  1.6943 -0.4244  1.9405
 1598SOL    HW2 5651   0.818   0.294   3.735 -1.2226 -0.9251 -1.0827
 1599SOL     OW 5652   0.974   7.631   5.024 -0.0545 -0.3165 -0.2727
 1599SOL    HW1 5653   1.038   7.657   5.090 -1.6815  1.5116  0.6850
 1599SOL    HW2 5654   0.899   7.600   5.075 -1.5947  1.7255 -1.1573
 1600SOL     OW 5655   1.200   2.317   4.392  0.1419  0.2825  0.5204
 1600SOL    HW1 5656   1.199   2.301   4.486 -0.1828  1.6542  0.7599
 1600SOL    HW2 5657   1.108   2.328   4.368  0.2503  0.2825  0.0948
 1601SOL     OW 5658   5.289   1.642   5.724 -0.1985  0.3001 -0.0782
 1601SOL    HW1 5659   5.344   1.601   5.657 -0.8120  0.9815 -1.0335
 1601SOL    HW2 5660   5.323   1.610   5.807  1.5443  0.5856 -0.6500
 1602SOL     OW 5661   4.155   5.929   6.376  0.3164  0.6779  0.5552
 1602SOL    HW1 5662   4.133   6.021   6.362 -1.7470  0.4813  2.0746
 1602SOL    HW2 5663   4.077   5.881   6.349  1.4173 -0.6715 -0.3471
 1603SOL     OW 5664   6.014   7.222   4.765  0.2121 -1.2375  0.0977
 1603SOL    HW1 5665   6.053   7.283   4.702  0.0143 -0.6167  0.5765
 1603SOL    HW2 5666   6.083   7.157   4.780  0.5435 -0.9529 -0.1654
 1604SOL     OW 5667   5.871   0.196   5.095 -0.8502 -0.1800  0.5931
 1604SOL    HW1 5668   5.818   0.121   5.069 -1.2438 -1.4023  4.3814
 1604SOL    HW2 5669   5.817   0.272   5.071 -2.1281 -1.2193  0.0048
 1605SOL     OW 5670   4.536   6.903   3.288 -0.6507  0.2268  0.1337
 1605SOL    HW1 5671   4.594   6.913   3.363 -0.9250 -0.2182  0.4135
 1605SOL    HW2 5672   4.503   6.813   3.295 -2.5011  0.8899  0.8359
 1606SOL     OW 5673   1.889   4.550   4.525  0.1234 -0.0530 -0.0416
 1606SOL    HW1 5674   1.810   4.500   4.544  1.0205 -1.5889 -0.1220
 1606SOL    HW2 5675   1.961   4.488   4.543  1.2523  0.8180 -1.3468
 1607SOL     OW 5676   0.134   2.326   6.506  0.0492  0.3182 -0.0627
 1607SOL    HW1 5677   0.107   2.408   6.548  1.0765 -0.3226  1.9624
 1607SOL    HW2 5678   0.225   2.341   6.480  0.2345 -0.1695  0.3013
 1608SOL     OW 5679   2.936   3.100   0.699 -0.0655 -0.1196 -0.0135
 1608SOL    HW1 5680   2.844   3.111   0.674  0.1063  2.8141  0.3473
 1608SOL    HW2 5681   2.939   3.128   0.791  1.6621  3.2768 -0.9585
 1609SOL     OW 5682   7.471   6.754   4.977 -0.2813  0.5668 -0.2109
 1609SOL    HW1 5683   7.523   6.674   4.967 -1.1831  0.0914 -1.3008
 1609SOL    HW2 5684   7.454   6.759   5.071  1.5862  0.6744  0.1740
 1610SOL     OW 5685   1.495   2.418   0.496  0.0868 -0.2561 -0.3388
 1610SOL    HW1 5686   1.581   2.404   0.535 -0.2637  0.4549  0.7343
 1610SOL    HW2 5687   1.471   2.334   0.457  1.2388 -0.4710 -0.6009
 1611SOL     OW 5688   1.374   2.027   5.204 -0.0996  0.5277  0.6426
 1611SOL    HW1 5689   1.342   1.955   5.149  1.0719 -0.6814  1.4839
 1611SOL    HW2 5690   1.335   2.106   5.165 -2.7090 -0.6660  0.6279
 1612SOL     OW 5691   1.290   2.590   7.444 -0.2028  0.0060 -0.2735
 1612SOL    HW1 5692   1.365   2.645   7.423  1.6384 -2.2749 -0.0102
 1612SOL    HW2 5693   1.264   2.617   7.533  1.8902 -0.7801  0.6318
 1613SOL     OW 5694   1.150   7.546   7.984 -0.3340  0.3038  0.3916
 1613SOL    HW1 5695   1.243   7.528   7.977 -0.5508 -0.1677 -2.7537
 1613SOL    HW2 5696   1.141   7.637   7.955 -0.9380  0.0458 -0.2487
 1614SOL     OW 5697   6.118   4.258   2.929 -0.2370 -1.0848  0.1868
 1614SOL    HW1 5698   6.047   4.224   2.875 -0.2861 -1.0605  0.2362
 1614SOL    HW2 5699   6.167   4.317   2.871  1.0977 -2.8234 -0.5230
 1615SOL     OW 5700   7.573   3.954   7.960 -0.1753 -0.8157  0.0461
 1615SOL    HW1 5701   7.652   3.918   7.999 -0.4222 -1.3416  0.0721
 1615SOL    HW2 5702   7.601   3.988   7.875 -0.1718 -2.2576 -0.5550
 1616SOL     OW 5703   0.959   7.420   2.685  0.4124 -0.0683  0.3039
 1616SOL    HW1 5704   0.974   7.326   2.685 -0.3083 -0.1974  1.1237
 1616SOL    HW2 5705   0.866   7.430   2.705  0.0544  0.7719 -1.5792
 1617SOL     OW 5706   5.825   7.306   3.296  0.3936  0.3866 -0.1721
 1617SOL    HW1 5707   5.789   7.348   3.374  0.2785  0.5318 -0.3025
 1617SOL    HW2 5708   5.819   7.373   3.228 -0.5013 -0.0896 -0.5817
 1618SOL     OW 5709   4.320   5.241   1.460 -0.1147 -0.2557 -0.1484
 1618SOL    HW1 5710   4.330   5.166   1.401 -0.4038 -0.0644 -0.4475
 1618SOL    HW2 5711   4.229   5.237   1.489  0.3628 -1.1119  1.3447
 1619SOL     OW 5712   3.285   6.894   5.664 -0.3510  0.1634 -0.0751
 1619SOL    HW1 5713   3.282   6.805   5.698  0.9796 -0.4837 -1.5373
 1619SOL    HW2 5714   3.356   6.893   5.600 -1.6276  1.7419 -1.6300
 1620SOL     OW 5715   5.306   1.606   7.516 -0.1222 -0.8256  0.2033
 1620SOL    HW1 5716   5.341   1.534   7.568 -0.9041 -0.7492  0.8548
 1620SOL    HW2 5717   5.316   1.684   7.571  0.6458 -0.4335 -0.4635
 1621SOL     OW 5718   1.858   7.386   6.338  0.2037 -0.1742  0.0172
 1621SOL    HW1 5719   1.774   7.396   6.384 -0.3961  1.4650 -1.2878
 1621SOL    HW2 5720   1.834   7.354   6.251  0.8690  0.6085 -0.4762
 1622SOL     OW 5721   4.138   6.215   6.557 -0.2167 -0.0866  0.0936
 1622SOL    HW1 5722   4.158   6.302   6.522 -1.2120  0.2916  0.4493
 1622SOL    HW2 5723   4.223   6.183   6.589  0.2053  0.6538 -0.2460
 1623SOL     OW 5724   4.257   1.291   3.665  0.2196 -0.6296  0.3839
 1623SOL    HW1 5725   4.203   1.229   3.714  1.5373 -0.6652  1.8771
 1623SOL    HW2 5726   4.224   1.377   3.690 -2.5459 -0.5866 -2.7612
 1624SOL     OW 5727   4.959   3.980   3.385 -0.1437 -0.0618 -0.2421
 1624SOL    HW1 5728   4.982   4.033   3.309  0.1941  0.5227  0.2592
 1624SOL    HW2 5729   4.974   4.037   3.460 -0.2437 -0.7041  0.2800
 1625SOL     OW 5730   5.181   2.876   2.930  0.1743  0.6536  0.5040
 1625SOL    HW1 5731   5.214   2.812   2.994  1.1510  0.3406 -0.2826
 1625SOL    HW2 5732   5.198   2.961   2.970  0.5532  0.4558  0.7769
 1626SOL     OW 5733   1.449   6.658   3.183 -0.1181  0.6551 -0.2561
 1626SOL    HW1 5734   1.458   6.750   3.206  1.9344  1.1045 -2.4652
 1626SOL    HW2 5735   1.464   6.610   3.264 -0.0764  2.2277  0.6865
 1627SOL     OW 5736   1.000   6.920   2.962  0.3530  0.2738  0.5265
 1627SOL    HW1 5737   0.945   6.994   2.936  0.7012  0.6287  0.8056
 1627SOL    HW2 5738   1.010   6.869   2.882 -0.5708  0.0821  0.5182
 1628SOL     OW 5739   6.889   7.483   3.450  0.1165 -0.4377 -0.1233
 1628SOL    HW1 5740   6.818   7.418   3.448  0.8438 -1.2219 -1.3970
 1628SOL    HW2 5741   6.876   7.529   3.533 -1.7887 -0.6625 -0.2423
 1629SOL     OW 5742   3.006   2.685   6.701  0.7897  0.3581  0.0269
 1629SOL    HW1 5743   2.927   2.714   6.657  0.5216 -0.7050 -0.2162
 1629SOL    HW2 5744   3.077   2.725   6.651  0.4203  2.5785  1.1457
 1630SOL     OW 5745   0.301   4.482   3.385 -0.2105 -0.0360 -1.0122
 1630SOL    HW1 5746   0.296   4.570   3.347 -1.0726  0.3492 -0.0444
 1630SOL    HW2 5747   0.211   4.460   3.408 -0.1328 -1.5332 -1.9767
 1631SOL     OW 5748   3.596   2.767   1.902 -0.2385  0.7272 -0.2359
 1631SOL    HW1 5749   3.621   2.734   1.988  1.0048  3.6195  0.6262
 1631SOL    HW2 5750   3.507   2.734   1.889  0.1381 -1.1094  1.3908
 1632SOL     OW 5751   7.093   6.120   0.885 -0.1746 -0.3416  0.1728
 1632SOL    HW1 5752   7.052   6.127   0.970  0.0345 -1.2457  0.3561
 1632SOL    HW2 5753   7.022   6.129   0.822 -0.6831 -1.9756  0.4848
 1633SOL     OW 5754   6.824   1.510   7.472 -0.5712  0.0406  0.1276
 1633SOL    HW1 5755   6.748   1.486   7.420  0.2640 -1.4947 -0.4713
 1633SOL    HW2 5756   6.898   1.501   7.411  0.0618  2.0050  0.5357
 1634SOL     OW 5757   3.044   2.373   0.452 -0.1125 -0.3553 -0.0264
 1634SOL    HW1 5758   2.976   2.392   0.386 -0.2905  3.2642  0.9783
 1634SOL    HW2 5759   3.127   2.386   0.405 -0.2357  1.1200  0.1023
 1635SOL     OW 5760   1.379   4.214   0.118  0.0189 -0.0740  0.1696
 1635SOL    HW1 5761   1.408   4.256   0.037  1.1078 -0.5489  0.3004
 1635SOL    HW2 5762   1.335   4.284   0.166 -0.1816  0.3416 -0.5968
 1636SOL     OW 5763   6.361   4.762   5.206  0.5976  0.6148  0.1655
 1636SOL    HW1 5764   6.288   4.785   5.148  0.0194  0.0722  0.6629
 1636SOL    HW2 5765   6.410   4.695   5.158 -0.6901 -0.8959  0.8343
 1637SOL     OW 5766   5.374   6.865   1.583 -0.6694  0.1167 -0.5140
 1637SOL    HW1 5767   5.347   6.792   1.527 -0.5332 -0.3179 -0.0126
 1637SOL    HW2 5768   5.378   6.828   1.671  0.7995  0.3556 -0.4559
 1638SOL     OW 5769   5.078   7.917   2.622  0.2862  0.2223 -0.2583
 1638SOL    HW1 5770   5.040   8.004   2.611  0.9920  0.5578 -0.0461
 1638SOL    HW2 5771   5.071   7.877   2.535 -2.6144 -0.5816  0.2439
 1639SOL     OW 5772   0.456   0.240   3.467 -0.5088  0.7394 -0.0783
 1639SOL    HW1 5773   0.481   0.282   3.549  0.0749  0.1209  0.0695
 1639SOL    HW2 5774   0.536   0.197   3.436 -1.2949 -1.0276  0.2504
 1640SOL     OW 5775   1.601   5.062   2.503  0.1066 -0.0880 -0.2598
 1640SOL    HW1 5776   1.628   5.083   2.413 -0.8744  1.4805 -0.2361
 1640SOL    HW2 5777   1.612   5.145   2.550  0.3821 -0.8335  1.0231
 1641SOL     OW 5778   6.863   1.531   0.953  0.0198 -0.5290 -0.1856
 1641SOL    HW1 5779   6.872   1.605   0.894 -0.0122  0.1672  0.6604
 1641SOL    HW2 5780   6.832   1.569   1.036  0.5268 -1.4090  0.4322
 1642SOL     OW 5781   1.063   6.673   2.305 -0.0507  0.0753  0.5305
 1642SOL    HW1 5782   1.051   6.593   2.254 -1.4452 -0.3213  1.4223
 1642SOL    HW2 5783   1.150   6.664   2.344  0.8407  0.1643 -1.3386
 1643SOL     OW 5784   6.748   0.433   2.888 -0.0910 -0.2470  0.0473
 1643SOL    HW1 5785   6.711   0.500   2.829 -2.1115 -1.0924  0.2769
 1643SOL    HW2 5786   6.752   0.476   2.973 -0.6657 -0.1611  0.0366
 1644SOL     OW 5787   3.668   6.282   0.397 -0.5883  0.3134 -0.0974
 1644SOL    HW1 5788   3.700   6.370   0.380 -0.5545  0.3477  0.1385
 1644SOL    HW2 5789   3.694   6.231   0.320 -1.2089  0.6650 -0.5450
 1645SOL     OW 5790   3.196   3.665   0.971  0.0712  0.3420  0.1687
 1645SOL    HW1 5791   3.132   3.651   1.041  1.5494  1.8874  1.9516
 1645SOL    HW2 5792   3.281   3.659   1.015  1.0640  1.2926 -1.5040
 1646SOL     OW 5793   0.957   0.749   5.638 -0.3733  0.0282 -0.4482
 1646SOL    HW1 5794   1.027   0.812   5.619  0.4945 -0.2835  1.4864
 1646SOL    HW2 5795   0.878   0.791   5.605  0.5623  0.8425 -1.7933
 1647SOL     OW 5796   5.241   3.644   7.586  0.0704  0.3410 -0.4228
 1647SOL    HW1 5797   5.226   3.667   7.494  0.6935 -0.0014 -0.6155
 1647SOL    HW2 5798   5.157   3.611   7.616  0.4148 -1.6571 -1.5129
 1648SOL     OW 5799   5.422   7.458   3.169  0.2666  0.0201 -0.3036
 1648SOL    HW1 5800   5.484   7.526   3.196 -0.8762  1.3806 -1.0262
 1648SOL    HW2 5801   5.412   7.470   3.075  1.0210 -2.0158 -0.7096
 1649SOL     OW 5802   2.698   4.874   2.677 -0.1617 -0.8127 -0.1903
 1649SOL    HW1 5803   2.725   4.811   2.610 -0.2815 -0.8540 -0.2006
 1649SOL    HW2 5804   2.718   4.959   2.639  2.3939 -0.8723  0.8380
 1650SOL     OW 5805   0.006   7.340   6.456 -0.1588 -0.0050 -0.3204
 1650SOL    HW1 5806  -0.022   7.295   6.536  0.2502  1.4166  0.6490
 1650SOL    HW2 5807   0.073   7.283   6.419  1.0177  0.1998  1.3807
 1651SOL     OW 5808   2.610   5.305   1.505 -0.3096 -0.3227 -0.0275
 1651SOL    HW1 5809   2.553   5.232   1.531  1.5359 -1.4511  1.1411
 1651SOL    HW2 5810   2.574   5.336   1.422 -1.6746 -2.0006 -0.1155
 1652SOL     OW 5811   5.369   5.533   5.814 -0.3079 -0.3347 -0.0806
 1652SOL    HW1 5812   5.295   5.582   5.778  0.0366  0.0672 -0.2603
 1652SOL    HW2 5813   5.399   5.478   5.741  0.6398  0.7726 -0.5694
 1653SOL     OW 5814   1.809   7.353   5.391  0.8770 -0.5153 -0.0996
 1653SOL    HW1 5815   1.738   7.293   5.370  0.4983  0.3461 -1.3839
 1653SOL    HW2 5816   1.882   7.323   5.337  0.6701  0.1840 -0.7834
 1654SOL     OW 5817   6.169   1.779   2.119 -0.1755 -0.1315 -0.3458
 1654SOL    HW1 5818   6.164   1.749   2.028  1.6614  1.3554 -1.0122
 1654SOL    HW2 5819   6.174   1.875   2.112 -2.3004  0.1912  1.4818
 1655SOL     OW 5820   3.724   5.135   3.405  0.1046 -0.4053  0.2883
 1655SOL    HW1 5821   3.740   5.054   3.357  0.0283  0.0844 -0.5729
 1655SOL    HW2 5822   3.714   5.107   3.496  3.6955 -1.0244  0.6227
 1656SOL     OW 5823   3.574   7.817   5.702 -0.6307  0.0344 -0.6045
 1656SOL    HW1 5824   3.530   7.775   5.628  0.3632 -0.2660 -1.0378
 1656SOL    HW2 5825   3.660   7.776   5.705 -0.1466  1.0511 -0.1562
 1657SOL     OW 5826   0.929   1.913   6.516  0.0553  0.0310 -0.4743
 1657SOL    HW1 5827   0.940   1.890   6.423  0.1622 -0.9360 -0.2344
 1657SOL    HW2 5828   0.847   1.961   6.519  0.9527  1.7363 -1.3379
 1658SOL     OW 5829   5.157   0.184   7.719 -0.8032  0.0233 -0.0498
 1658SOL    HW1 5830   5.107   0.166   7.639 -0.8416  1.5545 -0.4033
 1658SOL    HW2 5831   5.090   0.205   7.785 -0.7035  2.1974 -0.5543
 1659SOL     OW 5832   1.444   0.379   0.522  0.1399 -0.2521  0.2740
 1659SOL    HW1 5833   1.470   0.468   0.545 -0.3606 -0.2778  0.9364
 1659SOL    HW2 5834   1.491   0.361   0.440 -0.5007  0.9677 -0.3743
 1660SOL     OW 5835   3.033   6.369   6.082  0.3007  0.1528 -0.7085
 1660SOL    HW1 5836   3.048   6.419   6.163 -0.5716 -0.6482 -0.0225
 1660SOL    HW2 5837   3.120   6.347   6.050  0.6608 -0.9453  0.9367
 1661SOL     OW 5838   1.233   7.468   0.491 -1.0093  0.3964 -0.2217
 1661SOL    HW1 5839   1.147   7.437   0.519 -0.4041 -0.0698  1.1897
 1661SOL    HW2 5840   1.280   7.389   0.466  0.0417  0.2487  1.9938
 1662SOL     OW 5841   7.891   7.642   2.283  0.1599  0.0183 -0.1158
 1662SOL    HW1 5842   7.898   7.720   2.229  1.0142  0.3236  0.4260
 1662SOL    HW2 5843   7.921   7.670   2.370  0.6341 -0.9544  0.0416
 1663SOL     OW 5844   7.257   3.214   6.964  0.3624 -0.1327  0.0049
 1663SOL    HW1 5845   7.312   3.285   6.996 -0.7116  1.4350 -1.4512
 1663SOL    HW2 5846   7.317   3.140   6.951  1.5440  0.5688  1.2848
 1664SOL     OW 5847   1.924   4.221   3.812 -0.9259  0.7228 -0.0903
 1664SOL    HW1 5848   1.835   4.200   3.842 -1.4650  0.9991 -1.4475
 1664SOL    HW2 5849   1.934   4.173   3.730 -0.0676  1.2437 -0.3002
 1665SOL     OW 5850   6.556   7.544   4.221 -0.9632 -0.0952  0.5925
 1665SOL    HW1 5851   6.612   7.622   4.215 -2.2873  0.7645 -3.0197
 1665SOL    HW2 5852   6.586   7.488   4.149 -2.8941 -0.8992  0.3607
 1666SOL     OW 5853   4.032   4.312   4.121  0.1667 -0.6526 -0.3043
 1666SOL    HW1 5854   4.013   4.283   4.210 -0.3564 -1.6539 -0.7202
 1666SOL    HW2 5855   4.127   4.303   4.113  0.0253 -2.5325 -0.4633
 1667SOL     OW 5856   2.718   6.219   5.927 -0.3182 -0.6719 -0.4398
 1667SOL    HW1 5857   2.642   6.160   5.934 -0.3544 -0.5693  0.0379
 1667SOL    HW2 5858   2.792   6.161   5.910 -0.3332 -0.8692  0.1658
 1668SOL     OW 5859   0.524   1.738   6.425 -0.4424  0.0254 -0.2940
 1668SOL    HW1 5860   0.486   1.812   6.473 -2.7833 -0.7826 -0.7462
 1668SOL    HW2 5861   0.486   1.661   6.467  0.4925 -0.8489 -1.0105
 1669SOL     OW 5862   5.658   1.702   2.261 -0.2191 -0.1236 -0.0704
 1669SOL    HW1 5863   5.606   1.782   2.271  0.0151  0.5457 -3.1389
 1669SOL    HW2 5864   5.680   1.699   2.167  2.2956 -2.2399  0.4620
 1670SOL     OW 5865   1.632   6.672   6.472 -0.0521  0.0953  0.1287
 1670SOL    HW1 5866   1.601   6.681   6.382  0.0900 -0.2321  0.0465
 1670SOL    HW2 5867   1.657   6.580   6.480 -0.0936  0.1153  0.5123
 1671SOL     OW 5868   3.943   1.710   6.118 -0.1878  0.5441  0.2237
 1671SOL    HW1 5869   3.955   1.660   6.037  0.0966  0.3539  0.3806
 1671SOL    HW2 5870   4.012   1.678   6.176 -0.2348  0.8574  0.4550
 1672SOL     OW 5871   6.435   3.466   1.563 -0.3409 -0.2222 -0.0994
 1672SOL    HW1 5872   6.413   3.399   1.629  0.8587  0.5995  1.1763
 1672SOL    HW2 5873   6.350   3.501   1.535 -0.8646  0.9037  2.6206
 1673SOL     OW 5874   7.039   6.645   2.116 -0.0778 -0.0154  0.1113
 1673SOL    HW1 5875   7.089   6.581   2.166 -1.9834 -1.2380  0.5524
 1673SOL    HW2 5876   7.010   6.709   2.180  1.8680  1.3954 -0.3372
 1674SOL     OW 5877   6.968   3.785   3.697  0.1442 -0.3360 -0.3418
 1674SOL    HW1 5878   6.968   3.765   3.791 -1.3110 -0.5189 -0.3617
 1674SOL    HW2 5879   6.917   3.714   3.658  0.2811  0.0428 -1.2132
 1675SOL     OW 5880   7.508   0.169   1.801  0.0583 -0.1097  0.2178
 1675SOL    HW1 5881   7.582   0.175   1.740 -0.4026  1.0961 -0.2627
 1675SOL    HW2 5882   7.544   0.128   1.879  1.2408  0.4529 -0.0073
 1676SOL     OW 5883   5.445   6.488   2.708 -0.1457  0.1042 -0.2118
 1676SOL    HW1 5884   5.378   6.554   2.724 -1.1344 -0.8529 -0.2010
 1676SOL    HW2 5885   5.514   6.533   2.660 -0.6739  1.1837  0.0242
 1677SOL     OW 5886   0.518   2.056   4.829 -0.0926  0.0071 -0.3099
 1677SOL    HW1 5887   0.499   1.987   4.892 -3.4545  1.3115  0.2914
 1677SOL    HW2 5888   0.540   2.132   4.882  0.9586  0.1370 -0.8944
 1678SOL     OW 5889   2.162   5.637   4.602  0.0792  0.4085  0.3138
 1678SOL    HW1 5890   2.208   5.618   4.521 -0.7723 -2.1410  0.3487
 1678SOL    HW2 5891   2.085   5.687   4.575  0.6541  1.0209 -0.2198
 1679SOL     OW 5892   7.525   4.139   7.200  0.2309 -0.5827 -0.1840
 1679SOL    HW1 5893   7.559   4.193   7.271 -0.0365 -1.1169  0.3671
 1679SOL    HW2 5894   7.536   4.192   7.121 -1.0669  0.7255  0.4796
 1680SOL     OW 5895   7.310   0.871   3.572  0.0939 -0.8118 -0.2530
 1680SOL    HW1 5896   7.229   0.839   3.613 -0.9512  0.3503 -1.3296
 1680SOL    HW2 5897   7.362   0.792   3.557 -0.7810 -1.5700  0.5555
 1681SOL     OW 5898   0.855   4.520   4.870 -0.5577 -0.2753 -0.0449
 1681SOL    HW1 5899   0.774   4.485   4.833 -1.3289 -0.6218  1.8416
 1681SOL    HW2 5900   0.832   4.609   4.897  0.0935  0.0993 -0.7032
 1682SOL     OW 5901   6.721   0.441   4.900  0.1363  0.3777 -0.1953
 1682SOL    HW1 5902   6.728   0.356   4.855 -1.4093  1.1548 -2.0006
 1682SOL    HW2 5903   6.627   0.457   4.907  0.3984  2.3895 -0.7967
 1683SOL     OW 5904   7.167   7.903   0.626 -0.3697 -0.3452  0.4762
 1683SOL    HW1 5905   7.156   7.834   0.561 -2.0364 -0.5452  0.9096
 1683SOL    HW2 5906   7.100   7.968   0.602  2.2333  2.0411 -0.9819
 1684SOL     OW 5907   7.698   2.602   4.149 -0.0750  0.3416  0.4785
 1684SOL    HW1 5908   7.621   2.549   4.169  0.1076  0.0887  0.5094
 1684SOL    HW2 5909   7.669   2.692   4.165 -0.6213  0.3244 -0.3008
 1685SOL     OW 5910   3.668   0.443   3.669  0.5486 -0.3163 -0.0115
 1685SOL    HW1 5911   3.753   0.424   3.629  0.5492 -0.1583 -0.0833
 1685SOL    HW2 5912   3.689   0.484   3.753  0.5412  0.2641 -0.2880
 1686SOL     OW 5913   4.007   6.837   1.183  0.2086 -0.3844  0.1032
 1686SOL    HW1 5914   4.075   6.770   1.178  0.1110 -0.4634 -0.1709
 1686SOL    HW2 5915   3.969   6.826   1.270  0.0560 -0.8187 -0.0169
 1687SOL     OW 5916   4.608   3.026   5.280 -0.2968 -0.1801  0.3762
 1687SOL    HW1 5917   4.669   2.953   5.265 -0.6735 -0.2952 -0.6576
 1687SOL    HW2 5918   4.638   3.065   5.362 -0.5463 -1.9674  1.3824
 1688SOL     OW 5919   6.049   5.466   3.334 -0.1215 -0.0886  0.0292
 1688SOL    HW1 5920   6.110   5.421   3.393  0.1804 -1.4898 -1.2790
 1688SOL    HW2 5921   6.025   5.546   3.380  2.7077  0.5298  0.6228
 1689SOL     OW 5922   4.237   0.645   7.322 -0.9440 -0.1879  0.1696
 1689SOL    HW1 5923   4.279   0.731   7.316  1.3365 -1.2252 -0.0049
 1689SOL    HW2 5924   4.178   0.652   7.397 -1.2605  1.6982 -0.2217
 1690SOL     OW 5925   1.197   4.841   2.585 -0.1925 -0.0667  0.3015
 1690SOL    HW1 5926   1.138   4.794   2.525 -0.7969  1.9459 -0.7568
 1690SOL    HW2 5927   1.173   4.807   2.671  0.4365 -2.7537 -0.4735
 1691SOL     OW 5928   7.071   2.733   1.157 -0.1954 -0.5369 -0.0070
 1691SOL    HW1 5929   7.001   2.764   1.214 -1.1848  0.6881 -1.7746
 1691SOL    HW2 5930   7.084   2.805   1.094 -0.0591 -2.2973 -2.1024
 1692SOL     OW 5931   6.632   2.978   6.977 -0.2447 -0.2280  0.1343
 1692SOL    HW1 5932   6.651   3.069   6.956 -0.0768 -0.3200 -0.1177
 1692SOL    HW2 5933   6.597   2.980   7.066  1.5282 -0.1077  0.8795
 1693SOL     OW 5934   5.478   6.183   2.635  0.3458 -0.0908  0.4084
 1693SOL    HW1 5935   5.441   6.095   2.633  1.6546 -0.8027  3.3752
 1693SOL    HW2 5936   5.531   6.189   2.555 -0.9824 -1.3731 -0.6109
 1694SOL     OW 5937   1.019   4.915   7.943  0.1236  0.3817 -0.4083
 1694SOL    HW1 5938   0.995   4.869   8.023  0.1854  0.5026 -0.3196
 1694SOL    HW2 5939   1.102   4.957   7.964  0.5652 -0.2800 -0.8088
 1695SOL     OW 5940   6.013   3.406   7.759  0.1351 -0.9215 -0.2248
 1695SOL    HW1 5941   6.092   3.460   7.758  0.5238 -1.4601 -2.0337
 1695SOL    HW2 5942   5.978   3.417   7.848  2.4590 -1.0201  0.7890
 1696SOL     OW 5943   2.348   3.748   3.338  0.2105  0.1683 -0.5486
 1696SOL    HW1 5944   2.427   3.767   3.287  0.0634 -0.6019 -1.0826
 1696SOL    HW2 5945   2.342   3.652   3.338 -1.7080  0.2053 -2.1100
 1697SOL     OW 5946   6.258   3.621   2.753  0.2618  0.0445 -0.0222
 1697SOL    HW1 5947   6.327   3.686   2.767  0.6220 -0.1470 -0.8608
 1697SOL    HW2 5948   6.212   3.617   2.837  1.2986  0.1270  0.5677
 1698SOL     OW 5949   0.035   4.663   0.671 -0.6283 -0.4780  0.0593
 1698SOL    HW1 5950  -0.031   4.595   0.655  0.8656 -2.5192  1.9421
 1698SOL    HW2 5951   0.099   4.650   0.601 -1.1641  0.1125 -0.5478
 1699SOL     OW 5952   7.771   1.529   1.253  0.2304 -0.1862  0.1032
 1699SOL    HW1 5953   7.807   1.442   1.234  1.2512  0.0984  0.6489
 1699SOL    HW2 5954   7.743   1.563   1.168  0.7846 -0.6312 -0.2658
 1700SOL     OW 5955   0.977   5.154   1.269 -0.4047  0.5816  0.1347
 1700SOL    HW1 5956   1.058   5.130   1.225 -1.6850 -1.9233 -1.1317
 1700SOL    HW2 5957   0.911   5.153   1.199 -1.8184  0.6765  1.4186
 1701SOL     OW 5958   0.752   2.504   1.327  0.4783  0.1365  0.0624
 1701SOL    HW1 5959   0.747   2.584   1.275  1.0541 -0.4263 -0.8935
 1701SOL    HW2 5960   0.746   2.433   1.263 -1.7024 -0.6417  1.0306
 1702SOL     OW 5961   1.067   5.575   1.226 -0.0557  0.0372  0.0867
 1702SOL    HW1 5962   1.090   5.516   1.154  1.2638  0.6459 -0.0260
 1702SOL    HW2 5963   1.083   5.663   1.192 -1.7904  0.4826  0.3303
 1703SOL     OW 5964   4.263   0.907   6.981 -0.4792 -0.3384  0.0345
 1703SOL    HW1 5965   4.276   0.909   6.886 -0.7792  0.9240 -0.0036
 1703SOL    HW2 5966   4.348   0.931   7.018 -0.8572  1.2158 -0.0085
 1704SOL     OW 5967   6.773   6.543   0.716  0.0958 -0.4807  0.7682
 1704SOL    HW1 5968   6.785   6.590   0.799  1.3634 -1.1663  1.0060
 1704SOL    HW2 5969   6.851   6.567   0.665 -0.1748 -0.8613  0.1781
 1705SOL     OW 5970   3.288   6.131   4.044 -0.9700 -0.6281  0.5168
 1705SOL    HW1 5971   3.271   6.225   4.038 -0.0298 -0.5129 -0.7249
 1705SOL    HW2 5972   3.299   6.103   3.953 -0.4343 -1.7824  0.9251
 1706SOL     OW 5973   0.785   0.128   0.611 -0.1258  0.4299 -0.4459
 1706SOL    HW1 5974   0.734   0.049   0.596  1.8975 -0.7077 -1.6881
 1706SOL    HW2 5975   0.838   0.108   0.689 -0.6024  1.0986  0.0594
 1707SOL     OW 5976   1.226   1.066   6.229  0.5892  0.5494  0.4538
 1707SOL    HW1 5977   1.207   1.023   6.145 -1.1295  2.4849 -0.2155
 1707SOL    HW2 5978   1.285   1.005   6.273  1.2697 -0.7269 -1.9903
 1708SOL     OW 5979   1.980   5.191   3.484 -0.0412 -0.3186 -0.4193
 1708SOL    HW1 5980   2.011   5.103   3.506 -1.1305 -0.7056 -0.3451
 1708SOL    HW2 5981   2.042   5.223   3.420  0.8572 -0.8049  0.1925
 1709SOL     OW 5982   2.430   2.746   3.346 -0.0197  0.9509 -0.1828
 1709SOL    HW1 5983   2.378   2.691   3.289  1.2617  0.3221 -0.7963
 1709SOL    HW2 5984   2.400   2.835   3.329  1.4833  1.0181 -3.2130
 1710SOL     OW 5985   3.720   5.519   5.746 -0.3568 -0.2315 -0.4898
 1710SOL    HW1 5986   3.792   5.555   5.798 -0.2833 -0.5061 -0.3966
 1710SOL    HW2 5987   3.763   5.465   5.679 -0.4937 -1.3035  0.2534
 1711SOL     OW 5988   1.616   7.130   0.941 -0.0524 -0.1397  0.0197
 1711SOL    HW1 5989   1.563   7.183   1.000  2.0532  0.3172  1.6079
 1711SOL    HW2 5990   1.599   7.040   0.968 -0.5157 -0.0467  0.0492
 1712SOL     OW 5991   6.874   4.392   3.094  1.1895  0.0095  0.7643
 1712SOL    HW1 5992   6.842   4.303   3.106  1.3188 -0.0532  0.6400
 1712SOL    HW2 5993   6.941   4.385   3.027  1.0700  0.2280  0.6192
 1713SOL     OW 5994   2.384   1.490   2.714 -0.0232  0.3172 -1.0918
 1713SOL    HW1 5995   2.443   1.562   2.690 -0.4722  1.3404  0.6778
 1713SOL    HW2 5996   2.304   1.534   2.744 -1.0820 -1.0045 -1.8873
 1714SOL     OW 5997   3.588   0.301   7.116  0.4732 -0.4568  0.2511
 1714SOL    HW1 5998   3.616   0.239   7.049 -2.0223 -0.8953 -0.4774
 1714SOL    HW2 5999   3.619   0.262   7.198  0.3890 -1.8206 -0.3359
 1715SOL     OW 6000   2.202   3.917   0.474  0.0268  0.3841  0.8812
 1715SOL    HW1 6001   2.110   3.896   0.456  0.3105  1.1460 -2.0858
 1715SOL    HW2 6002   2.200   4.009   0.503 -0.2682 -0.2445  3.0152
 1716SOL     OW 6003   4.774   6.246   5.892  0.5165  0.0699 -0.0167
 1716SOL    HW1 6004   4.697   6.222   5.841 -0.2228  0.1030  1.0426
 1716SOL    HW2 6005   4.739   6.274   5.977  1.7509 -0.9744  0.8890
 1717SOL     OW 6006   5.833   0.873   0.087  0.8577 -0.4307  0.8734
 1717SOL    HW1 6007   5.823   0.825   0.005 -0.8070 -0.3389  1.0005
 1717SOL    HW2 6008   5.888   0.817   0.141 -1.4275 -2.5062  1.2003
 1718SOL     OW 6009   5.087   2.183   5.597  0.1425  0.1689 -0.4597
 1718SOL    HW1 6010   5.169   2.136   5.614  0.2789  0.4403 -0.3697
 1718SOL    HW2 6011   5.096   2.215   5.507 -0.0157 -0.1061 -0.5763
 1719SOL     OW 6012   7.531   1.492   4.493  0.2218 -0.2609  0.1779
 1719SOL    HW1 6013   7.477   1.447   4.428 -0.5624 -0.4953  0.9764
 1719SOL    HW2 6014   7.574   1.562   4.443 -2.5889  1.4177 -0.1020
 1720SOL     OW 6015   1.541   6.013   7.691  0.2025  0.1531 -0.6114
 1720SOL    HW1 6016   1.601   6.007   7.617  0.8914  1.5180 -0.1924
 1720SOL    HW2 6017   1.597   6.030   7.767 -0.6885  1.5801 -0.2270
 1721SOL     OW 6018   2.386   5.128   3.840 -0.0236 -0.3435 -0.2101
 1721SOL    HW1 6019   2.430   5.046   3.817  0.7922  0.0124  0.0650
 1721SOL    HW2 6020   2.453   5.180   3.883 -1.2990 -0.6879  2.3798
 1722SOL     OW 6021   7.589   0.499   7.587  0.0341 -0.8592 -0.5027
 1722SOL    HW1 6022   7.511   0.443   7.578  1.4666 -3.0523 -0.0817
 1722SOL    HW2 6023   7.562   0.584   7.551 -2.1945 -1.8685 -1.4111
 1723SOL     OW 6024   3.680   7.627   0.704 -0.2465  0.6960 -0.2097
 1723SOL    HW1 6025   3.746   7.558   0.699 -0.6094  0.3613 -0.4168
 1723SOL    HW2 6026   3.730   7.708   0.695  0.3743  0.5538  1.5849
 1724SOL     OW 6027   5.342   1.935   0.703 -0.3011 -0.4616 -0.0898
 1724SOL    HW1 6028   5.303   1.851   0.681  0.4014 -1.3511  1.8377
 1724SOL    HW2 6029   5.385   1.963   0.623 -0.8082 -1.7791 -0.8548
 1725SOL     OW 6030   4.976   3.725   3.277  0.2565  0.0849 -0.0731
 1725SOL    HW1 6031   4.996   3.814   3.306 -2.3838  0.2755  1.4591
 1725SOL    HW2 6032   4.891   3.733   3.233 -0.1347 -1.6876  0.3011
 1726SOL     OW 6033   6.626   4.669   6.337  0.0110 -0.1538  0.3662
 1726SOL    HW1 6034   6.617   4.750   6.288  1.0073  0.3977  1.0517
 1726SOL    HW2 6035   6.716   4.640   6.320 -0.8192 -2.0529 -1.2208
 1727SOL     OW 6036   3.515   6.976   6.660  0.0690  0.4935  0.0427
 1727SOL    HW1 6037   3.441   6.934   6.616  0.3738  1.6983 -1.6914
 1727SOL    HW2 6038   3.511   7.067   6.631  2.0575  0.6480  0.1602
 1728SOL     OW 6039   7.699   5.688   3.093 -0.0441 -0.2593 -0.0073
 1728SOL    HW1 6040   7.634   5.708   3.026 -0.4120  0.4201  0.5419
 1728SOL    HW2 6041   7.702   5.592   3.096 -0.5154 -0.2931 -0.5213
 1729SOL     OW 6042   2.791   2.954   1.475 -0.3912 -0.1167 -0.0366
 1729SOL    HW1 6043   2.825   2.994   1.555 -1.8451 -0.5516  0.8224
 1729SOL    HW2 6044   2.760   3.028   1.422  1.0322  0.2140 -0.4601
 1730SOL     OW 6045   1.979   0.653   1.851 -0.4893  0.5646 -0.9279
 1730SOL    HW1 6046   2.022   0.738   1.838 -0.8723  0.9382  0.1161
 1730SOL    HW2 6047   1.978   0.642   1.946 -1.1852 -0.2288 -1.0256
 1731SOL     OW 6048   4.543   1.646   5.930 -0.1176 -0.1958 -0.0976
 1731SOL    HW1 6049   4.503   1.692   6.004 -0.6172 -1.8417  0.6997
 1731SOL    HW2 6050   4.567   1.716   5.869  1.6241  1.3479  2.1881
 1732SOL     OW 6051   1.090   3.676   6.196  0.0333 -0.1993 -0.1816
 1732SOL    HW1 6052   1.150   3.613   6.237  2.4061  2.0935  0.1569
 1732SOL    HW2 6053   1.067   3.736   6.266 -0.9270  0.2021 -0.8253
 1733SOL     OW 6054   6.164   0.304   6.366 -0.3514  0.1220  0.4287
 1733SOL    HW1 6055   6.090   0.247   6.345 -0.8583  0.5794  0.9317
 1733SOL    HW2 6056   6.231   0.281   6.302 -1.3657  0.5436 -0.8318
 1734SOL     OW 6057   4.183   3.998   2.296  0.0878  0.4597  0.1963
 1734SOL    HW1 6058   4.097   3.986   2.337 -1.0969  1.0533 -1.9449
 1734SOL    HW2 6059   4.201   4.092   2.304  0.1134  0.4844 -0.1271
 1735SOL     OW 6060   5.723   4.303   1.218 -0.2521  0.8569 -0.2420
 1735SOL    HW1 6061   5.762   4.381   1.176  0.1966 -0.0078 -1.4884
 1735SOL    HW2 6062   5.653   4.278   1.159 -0.1424  0.0852 -0.0452
 1736SOL     OW 6063   4.777   4.347   7.676  0.1262 -0.6959  0.5453
 1736SOL    HW1 6064   4.827   4.336   7.757  0.7387  0.3184  0.3253
 1736SOL    HW2 6065   4.765   4.442   7.668  0.7126 -0.7245 -0.9224
 1737SOL     OW 6066   7.168   0.067   1.323  0.1094 -0.3559 -0.0491
 1737SOL    HW1 6067   7.251   0.047   1.281  0.5702  0.2241  0.5671
 1737SOL    HW2 6068   7.177   0.158   1.352 -1.6206  0.5523 -2.0793
 1738SOL     OW 6069   1.716   0.921   3.271 -0.4269 -0.0990  0.9049
 1738SOL    HW1 6070   1.633   0.891   3.234 -0.7505  1.2373  0.4786
 1738SOL    HW2 6071   1.783   0.888   3.212 -0.7342 -0.3686  0.7047
 1739SOL     OW 6072   0.979   0.400   0.822 -0.6392  0.3424  0.9165
 1739SOL    HW1 6073   0.941   0.323   0.863  1.5729 -1.9711 -1.0490
 1739SOL    HW2 6074   0.933   0.407   0.738 -0.9905  1.3363  1.1814
 1740SOL     OW 6075   0.107   1.946   0.026  0.3322  0.4884  0.0878
 1740SOL    HW1 6076   0.082   2.000   0.102 -0.8467  0.3515 -0.1835
 1740SOL    HW2 6077   0.025   1.934  -0.022  0.9103 -0.1505 -0.7488
 1741SOL     OW 6078   4.774   3.422   0.225 -0.2634  0.1246  0.0107
 1741SOL    HW1 6079   4.743   3.467   0.304 -0.6823  0.8961 -0.5785
 1741SOL    HW2 6080   4.782   3.330   0.252  0.4827  0.5117  1.1965
 1742SOL     OW 6081   5.172   0.477   0.865  0.2968 -0.9749 -0.5663
 1742SOL    HW1 6082   5.175   0.381   0.860 -1.4341 -0.9963 -3.0618
 1742SOL    HW2 6083   5.082   0.496   0.892  0.9436 -0.0011  1.0777
 1743SOL     OW 6084   5.119   0.699   1.427  0.5536 -0.2721 -0.1472
 1743SOL    HW1 6085   5.045   0.643   1.403 -1.5727  1.8121  1.0270
 1743SOL    HW2 6086   5.079   0.784   1.444  3.3707  1.1442 -0.0747
 1744SOL     OW 6087   4.201   5.936   3.642 -0.2921 -0.7753 -0.1498
 1744SOL    HW1 6088   4.264   5.926   3.714 -0.6404 -2.1965 -0.0003
 1744SOL    HW2 6089   4.250   5.911   3.564 -0.0660  0.2484 -0.3470
 1745SOL     OW 6090   2.587   2.838   0.559  0.5278  0.4749  0.0087
 1745SOL    HW1 6091   2.565   2.835   0.652 -0.5915 -0.4574 -0.2696
 1745SOL    HW2 6092   2.531   2.907   0.522  0.1508  0.0783 -0.1701
 1746SOL     OW 6093   1.255   0.431   0.800 -0.1028 -0.6139 -0.5093
 1746SOL    HW1 6094   1.241   0.440   0.705 -0.2198 -0.3686 -0.4682
 1746SOL    HW2 6095   1.168   0.414   0.836 -0.1089 -0.3633 -0.4057
 1747SOL     OW 6096   5.537   7.591   4.430  0.1018 -0.3370  0.0930
 1747SOL    HW1 6097   5.513   7.683   4.422  1.6016  0.0443 -0.2994
 1747SOL    HW2 6098   5.608   7.590   4.494  0.8801 -1.0577 -0.7500
 1748SOL     OW 6099   6.972   3.240   7.201  0.1170 -0.1937  0.7559
 1748SOL    HW1 6100   7.056   3.213   7.238  0.7160  0.8962  0.2364
 1748SOL    HW2 6101   6.921   3.270   7.276  0.7907  0.6501  0.8876
 1749SOL     OW 6102   1.574   0.812   7.370  0.3321 -0.2918 -0.7644
 1749SOL    HW1 6103   1.512   0.769   7.311  0.9591 -1.2318 -0.7612
 1749SOL    HW2 6104   1.528   0.890   7.401 -1.0278 -1.2204 -0.3807
 1750SOL     OW 6105   5.122   4.484   3.593  0.2839  0.6284 -0.1604
 1750SOL    HW1 6106   5.028   4.500   3.606  0.7556  1.9606  2.0887
 1750SOL    HW2 6107   5.158   4.479   3.681  2.2148 -0.8023 -0.9685
 1751SOL     OW 6108   2.259   3.530   1.631  0.3992 -0.2650 -0.1747
 1751SOL    HW1 6109   2.172   3.569   1.624 -0.1749 -1.1301  1.4888
 1751SOL    HW2 6110   2.247   3.438   1.606  0.6396 -0.5896  0.8478
 1752SOL     OW 6111   5.757   5.151   5.065  0.0110 -0.0425  0.1418
 1752SOL    HW1 6112   5.714   5.112   5.141 -1.2719 -1.7354 -1.3935
 1752SOL    HW2 6113   5.693   5.146   4.995  2.4400 -2.2039 -2.1291
 1753SOL     OW 6114   1.765   1.380   1.994 -0.2978  0.2333  0.5912
 1753SOL    HW1 6115   1.720   1.308   2.039  0.7841 -1.1250 -0.4085
 1753SOL    HW2 6116   1.857   1.367   2.016  0.0174  0.7192 -0.4104
 1754SOL     OW 6117   7.996   7.707   1.454 -0.1030 -0.8806 -0.2979
 1754SOL    HW1 6118   8.036   7.754   1.526  0.4819 -0.2782 -1.0014
 1754SOL    HW2 6119   7.902   7.712   1.471  0.0105 -0.4155  0.2167
 1755SOL     OW 6120   2.986   6.267   3.951  0.2263  0.3936 -0.2504
 1755SOL    HW1 6121   3.021   6.181   3.928  0.2668  0.9950 -2.7496
 1755SOL    HW2 6122   2.920   6.249   4.018 -0.5145 -1.7403 -1.4662
 1756SOL     OW 6123   5.716   6.175   0.619 -0.2058  0.1951 -0.0857
 1756SOL    HW1 6124   5.785   6.163   0.553 -1.2275 -0.9215 -1.0200
 1756SOL    HW2 6125   5.693   6.086   0.645 -0.4224  0.6028  1.1640
 1757SOL     OW 6126   4.534   4.837   5.234  0.1555  0.1702 -0.2970
 1757SOL    HW1 6127   4.622   4.801   5.243  0.5842  1.5443  1.5850
 1757SOL    HW2 6128   4.543   4.907   5.169  0.1077 -0.6032 -1.1647
 1758SOL     OW 6129   6.955   4.424   4.134  0.8302  0.7765 -0.5534
 1758SOL    HW1 6130   6.970   4.338   4.173  3.4588  0.2332 -2.4838
 1758SOL    HW2 6131   6.947   4.483   4.209  1.2248 -0.8280  0.8145
 1759SOL     OW 6132   4.556   2.708   2.124  0.3515  0.2418 -0.0655
 1759SOL    HW1 6133   4.463   2.723   2.138  0.4136  1.5698 -0.9211
 1759SOL    HW2 6134   4.595   2.715   2.212 -0.2331  0.5933  0.1674
 1760SOL     OW 6135   6.788   2.658   1.762  0.0381  0.1104  0.4505
 1760SOL    HW1 6136   6.728   2.584   1.772 -1.4565  1.1792 -0.2304
 1760SOL    HW2 6137   6.733   2.730   1.729  1.1923  1.8624  2.1119
 1761SOL     OW 6138   6.398   4.325   3.825  0.5667 -0.4057 -0.5855
 1761SOL    HW1 6139   6.420   4.281   3.907 -0.3748  1.1183  0.5431
 1761SOL    HW2 6140   6.450   4.406   3.826 -0.8498  0.5502 -0.5301
 1762SOL     OW 6141   5.701   0.686   7.057 -0.2584 -0.2712 -0.0260
 1762SOL    HW1 6142   5.619   0.678   7.107  0.8558  2.4205  2.5399
 1762SOL    HW2 6143   5.700   0.611   6.997 -3.3206 -1.8382  1.7229
 1763SOL     OW 6144   6.984   4.873   0.572 -0.4941  0.7533  0.3320
 1763SOL    HW1 6145   6.922   4.820   0.622 -0.7911 -0.6970 -1.4770
 1763SOL    HW2 6146   7.005   4.820   0.495  4.4306  0.3490  1.6595
 1764SOL     OW 6147   4.683   2.256   5.359 -0.3719 -0.6418 -0.3300
 1764SOL    HW1 6148   4.748   2.218   5.300  0.4778  0.3088 -0.0370
 1764SOL    HW2 6149   4.713   2.232   5.447  2.1259  3.3318  0.1359
 1765SOL     OW 6150   3.898   5.608   7.376 -0.2025  0.4663 -0.2763
 1765SOL    HW1 6151   3.820   5.652   7.344 -0.4895 -0.3722 -0.7791
 1765SOL    HW2 6152   3.876   5.515   7.371 -0.1754  0.2747  2.1259
 1766SOL     OW 6153   0.468   4.263   6.785  0.3048 -0.1312 -0.7614
 1766SOL    HW1 6154   0.480   4.238   6.694  1.2338 -0.3580 -0.5883
 1766SOL    HW2 6155   0.554   4.293   6.814  0.5293 -1.8553  0.5601
 1767SOL     OW 6156   7.174   7.111   3.194  0.1342  0.0628  0.0529
 1767SOL    HW1 6157   7.136   7.156   3.269 -1.5587  1.1927 -1.3922
 1767SOL    HW2 6158   7.249   7.165   3.169  0.4460 -0.0856  0.6422
 1768SOL     OW 6159   1.872   7.524   7.646  0.1511  0.4779  0.2308
 1768SOL    HW1 6160   1.850   7.438   7.609  2.0513  0.7251 -1.6453
 1768SOL    HW2 6161   1.864   7.512   7.741  0.1879 -1.7038  0.0036
 1769SOL     OW 6162   5.794   4.596   4.642  0.0768  0.2944  0.3857
 1769SOL    HW1 6163   5.727   4.587   4.710  0.2946  0.4202  0.6217
 1769SOL    HW2 6164   5.826   4.507   4.627 -1.3581 -0.0097 -0.9823
 1770SOL     OW 6165   4.686   6.278   0.570  0.3730  0.1488 -0.0345
 1770SOL    HW1 6166   4.732   6.357   0.599  3.2162 -1.0061 -1.0627
 1770SOL    HW2 6167   4.683   6.284   0.475  1.9288 -1.5694 -0.2503
 1771SOL     OW 6168   4.739   2.696   3.001  0.0252  0.2323  0.2005
 1771SOL    HW1 6169   4.766   2.692   2.909  3.3338  1.6802  0.9780
 1771SOL    HW2 6170   4.734   2.789   3.021 -0.8541 -0.0624  1.4910
 1772SOL     OW 6171   7.804   3.899   6.180  0.2914  0.0433  0.0397
 1772SOL    HW1 6172   7.759   3.966   6.129 -1.0977 -0.3896  0.6739
 1772SOL    HW2 6173   7.758   3.818   6.161  0.3693 -0.2992  1.2005
 1773SOL     OW 6174   6.762   4.975   7.952  0.3634 -0.5627  0.2797
 1773SOL    HW1 6175   6.788   4.913   8.020  1.5777 -0.3317  0.0513
 1773SOL    HW2 6176   6.838   5.033   7.941 -0.1388 -0.0449 -0.6441
 1774SOL     OW 6177   3.885   4.210   5.016 -0.1371 -0.1973 -0.3172
 1774SOL    HW1 6178   3.790   4.225   5.014 -0.2419 -0.8451 -0.3413
 1774SOL    HW2 6179   3.906   4.204   5.109 -0.3256 -1.3032 -0.3399
 1775SOL     OW 6180   5.681   2.924   1.216 -0.3536  0.2842  0.3177
 1775SOL    HW1 6181   5.624   2.999   1.232  0.2556  0.6367  0.8795
 1775SOL    HW2 6182   5.626   2.861   1.170 -0.8295  1.1390 -0.3106
 1776SOL     OW 6183   4.481   5.633   0.586  0.1938 -0.3963  0.3570
 1776SOL    HW1 6184   4.510   5.565   0.646  0.5395  0.5382  1.2883
 1776SOL    HW2 6185   4.536   5.709   0.608 -1.3126  0.6956  0.5357
 1777SOL     OW 6186   7.037   0.983   6.384 -0.1737 -0.1938 -0.3911
 1777SOL    HW1 6187   7.000   1.027   6.461 -1.9468 -0.9819 -0.7527
 1777SOL    HW2 6188   7.129   1.008   6.385 -0.6774  1.8242  0.5760
 1778SOL     OW 6189   1.402   0.725   0.294 -0.4112  0.0180  0.3069
 1778SOL    HW1 6190   1.339   0.658   0.269 -0.6479  0.2323  0.3223
 1778SOL    HW2 6191   1.487   0.686   0.276 -0.5259 -0.5351  0.9622
 1779SOL     OW 6192   5.514   2.566   0.508  0.3851 -0.0863  0.5857
 1779SOL    HW1 6193   5.513   2.520   0.424  3.0735  0.2079  0.3106
 1779SOL    HW2 6194   5.425   2.600   0.517 -0.3055 -1.1011 -1.5734
 1780SOL     OW 6195   6.767   5.933   3.897 -0.2616  0.0127 -0.5497
 1780SOL    HW1 6196   6.768   5.858   3.839  0.4196 -0.3568 -0.0765
 1780SOL    HW2 6197   6.843   5.985   3.871 -0.8937  0.7045 -1.0702
 1781SOL     OW 6198   2.870   1.625   3.743 -0.1549  0.1622 -0.3942
 1781SOL    HW1 6199   2.959   1.634   3.711  0.1387 -2.2176 -0.4903
 1781SOL    HW2 6200   2.818   1.682   3.686  1.0725  0.1961 -1.5346
 1782SOL     OW 6201   1.091   1.243   7.460 -0.0397  0.0206 -0.3079
 1782SOL    HW1 6202   1.078   1.331   7.496 -0.0837 -0.5470  1.1472
 1782SOL    HW2 6203   1.048   1.245   7.375  1.4239  1.9025 -1.0851
 1783SOL     OW 6204   2.473   4.399   6.829 -0.2022 -0.4053  0.4053
 1783SOL    HW1 6205   2.441   4.474   6.879  2.1506  0.2268  1.1193
 1783SOL    HW2 6206   2.506   4.339   6.895  2.1304  0.0368 -0.2738
 1784SOL     OW 6207   5.889   6.524   1.447 -0.0590 -0.3854  0.4661
 1784SOL    HW1 6208   5.905   6.432   1.466  0.8108  0.0473  1.9669
 1784SOL    HW2 6209   5.922   6.537   1.358  0.9230 -1.2512  0.6909
 1785SOL     OW 6210   4.919   1.011   7.955  0.1603  0.5019 -0.1361
 1785SOL    HW1 6211   4.961   0.959   7.887  1.2140  1.5122 -0.2877
 1785SOL    HW2 6212   4.954   1.099   7.943 -1.2476  1.1599  0.3946
 1786SOL     OW 6213   5.048   7.111   4.290 -0.3656  0.2458  0.8031
 1786SOL    HW1 6214   4.994   7.108   4.211 -1.2186  0.1855  1.3740
 1786SOL    HW2 6215   5.032   7.028   4.334  0.7182 -0.0551  0.6595
 1787SOL     OW 6216   5.807   6.593   5.585 -0.0931 -0.5945 -0.4518
 1787SOL    HW1 6217   5.764   6.520   5.630 -0.9976 -1.1771 -2.1629
 1787SOL    HW2 6218   5.884   6.553   5.543  1.1887  0.0937  1.1162
 1788SOL     OW 6219   0.425   5.286   0.520 -0.0723  0.6988 -0.1932
 1788SOL    HW1 6220   0.372   5.364   0.506  0.0093  0.6706 -0.6633
 1788SOL    HW2 6221   0.453   5.259   0.432  0.0296  0.2329 -0.0236
 1789SOL     OW 6222   7.500   5.958   7.124  0.0713  0.4301  0.2517
 1789SOL    HW1 6223   7.429   5.964   7.061 -0.7458 -0.3715  1.0735
 1789SOL    HW2 6224   7.565   5.901   7.081 -0.8782 -0.8673  0.4746
 1790SOL     OW 6225   1.174   3.368   4.815  0.4099  0.2762 -0.2482
 1790SOL    HW1 6226   1.134   3.288   4.780  0.5483  0.9581 -2.1012
 1790SOL    HW2 6227   1.100   3.425   4.835  0.2851 -0.4449  1.5611
 1791SOL     OW 6228   1.150   2.761   1.233 -0.2469  0.2325  0.2308
 1791SOL    HW1 6229   1.185   2.845   1.263  0.1880 -0.9323  3.3237
 1791SOL    HW2 6230   1.056   2.775   1.228 -0.2508  0.7469  1.3688
 1792SOL     OW 6231   1.927   6.799   3.045  0.3011  0.8699  0.1340
 1792SOL    HW1 6232   1.869   6.786   3.120  0.1119  0.1360 -0.1313
 1792SOL    HW2 6233   1.949   6.710   3.017 -0.8318  1.0971 -1.6133
 1793SOL     OW 6234   5.947   7.409   0.940 -0.6799 -0.0445 -0.5611
 1793SOL    HW1 6235   5.885   7.481   0.943  0.4820  1.0336 -1.3879
 1793SOL    HW2 6236   5.981   7.411   0.850  0.5542 -0.5832 -0.1281
 1794SOL     OW 6237   1.539   2.611   7.818  0.3898 -0.2709 -0.2999
 1794SOL    HW1 6238   1.561   2.685   7.762 -1.1125  0.2501 -0.2423
 1794SOL    HW2 6239   1.622   2.565   7.831  1.4487  1.6519  0.0636
 1795SOL     OW 6240   6.494   0.248   0.322  0.0984 -0.0266 -0.2653
 1795SOL    HW1 6241   6.543   0.226   0.244  0.7672 -0.8610  0.3753
 1795SOL    HW2 6242   6.559   0.248   0.393 -0.1796  2.3040  0.0627
 1796SOL     OW 6243   7.770   6.137   3.412 -0.2546 -0.2200 -0.0854
 1796SOL    HW1 6244   7.856   6.127   3.371  0.4826  1.6171  0.9135
 1796SOL    HW2 6245   7.708   6.140   3.338  0.7762  0.6370 -0.9447
 1797SOL     OW 6246   2.240   2.827   1.708 -0.3153 -0.6382 -0.5076
 1797SOL    HW1 6247   2.269   2.785   1.790  0.1209 -0.8589 -0.7721
 1797SOL    HW2 6248   2.203   2.911   1.736  2.0888  0.4194 -0.2928
 1798SOL     OW 6249   3.173   3.817   1.375 -0.2071  0.0820  0.5055
 1798SOL    HW1 6250   3.128   3.894   1.340 -0.8463 -1.2161 -1.6588
 1798SOL    HW2 6251   3.105   3.750   1.379  1.0159 -1.2675 -0.6827
 1799SOL     OW 6252   3.067   3.153   5.151 -0.6483 -0.1014  0.0783
 1799SOL    HW1 6253   2.986   3.131   5.104 -0.9729  2.5280 -0.7855
 1799SOL    HW2 6254   3.036   3.192   5.233 -0.1504 -1.1996  0.8136
 1800SOL     OW 6255   5.530   6.901   0.824 -0.5036 -0.3280  0.3708
 1800SOL    HW1 6256   5.451   6.944   0.791 -0.0581  0.5040  0.3689
 1800SOL    HW2 6257   5.519   6.809   0.801 -0.9970 -0.0468 -0.5553
 1801SOL     OW 6258   4.044   4.940   4.640  0.1853 -0.3508  0.0081
 1801SOL    HW1 6259   3.966   4.973   4.596  0.2466  0.7326  0.6723
 1801SOL    HW2 6260   4.039   4.845   4.629 -1.9826 -0.4573  1.2056
 1802SOL     OW 6261   6.657   6.625   6.752  0.2941 -0.2641  0.3798
 1802SOL    HW1 6262   6.626   6.676   6.827  0.5020 -0.5688  0.6729
 1802SOL    HW2 6263   6.750   6.609   6.771  0.1855 -0.9042  0.3729
 1803SOL     OW 6264   5.142   7.090   3.764 -0.4178  0.1911  0.0298
 1803SOL    HW1 6265   5.049   7.109   3.751 -0.4798 -0.9890 -1.5143
 1803SOL    HW2 6266   5.178   7.083   3.676  1.1985  0.7883  0.5980
 1804SOL     OW 6267   7.627   4.662   0.555 -0.3983  0.2793  0.3758
 1804SOL    HW1 6268   7.577   4.690   0.632  0.2631  1.5474  0.3732
 1804SOL    HW2 6269   7.652   4.744   0.513  0.7861 -0.3685 -0.2022
 1805SOL     OW 6270   1.423   7.541   7.909  0.1760  0.1413 -0.1446
 1805SOL    HW1 6271   1.443   7.558   7.817  1.2574 -0.6299 -0.0806
 1805SOL    HW2 6272   1.464   7.612   7.957  0.3286  0.0922 -0.2032
 1806SOL     OW 6273   6.953   1.485   2.153  0.6926 -0.8119  0.7469
 1806SOL    HW1 6274   6.994   1.532   2.080  0.5732  1.0569  1.8236
 1806SOL    HW2 6275   6.987   1.396   2.146  1.6721 -0.3651 -0.8301
 1807SOL     OW 6276   4.471   2.223   3.797  0.2298 -0.0174  0.3272
 1807SOL    HW1 6277   4.412   2.298   3.789  0.7233  0.3258 -0.1190
 1807SOL    HW2 6278   4.527   2.228   3.720  0.9637 -0.2455  0.8397
 1808SOL     OW 6279   7.495   6.965   1.696  0.2090  0.5229  0.0083
 1808SOL    HW1 6280   7.585   6.968   1.664  0.1318  0.4279 -0.2198
 1808SOL    HW2 6281   7.502   6.985   1.789  0.5716 -0.3989  0.1945
 1809SOL     OW 6282   2.044   6.756   3.483  0.4387 -0.1655 -0.6837
 1809SOL    HW1 6283   2.040   6.851   3.477 -1.0350 -0.2583 -1.5833
 1809SOL    HW2 6284   2.002   6.736   3.567  0.4873 -0.0267 -0.6265
 1810SOL     OW 6285   1.425   2.917   5.933  0.0655  0.5244 -0.1149
 1810SOL    HW1 6286   1.383   2.935   6.017  1.6910  0.1931  0.8069
 1810SOL    HW2 6287   1.459   2.828   5.942 -1.9992 -0.5775 -2.1277
 1811SOL     OW 6288   1.084   3.571   0.072 -0.6437  0.3656 -0.1626
 1811SOL    HW1 6289   1.170   3.605   0.046 -0.3829 -0.2706 -0.1407
 1811SOL    HW2 6290   1.098   3.534   0.159 -1.0108  0.5222 -0.0357
 1812SOL     OW 6291   6.446   1.875   0.678 -0.1976  0.0717 -0.2096
 1812SOL    HW1 6292   6.445   1.967   0.703 -2.0651  0.3154 -1.0151
 1812SOL    HW2 6293   6.354   1.849   0.678  0.2808 -1.7813 -0.0974
 1813SOL     OW 6294   2.429   3.709   4.589 -0.0872  0.3271 -0.1254
 1813SOL    HW1 6295   2.386   3.788   4.622 -0.7724  0.5596 -1.5125
 1813SOL    HW2 6296   2.365   3.639   4.601  0.1756  0.1529  0.2735
 1814SOL     OW 6297   1.751   5.259   7.729  0.0240 -0.2000 -0.0924
 1814SOL    HW1 6298   1.743   5.329   7.664  1.0405  0.2578  0.2544
 1814SOL    HW2 6299   1.661   5.231   7.745 -0.4869  1.4911  0.2545
 1815SOL     OW 6300   3.550   7.646   0.464  0.1277  0.0039 -0.5447
 1815SOL    HW1 6301   3.568   7.634   0.558  2.0970  1.3036 -0.6925
 1815SOL    HW2 6302   3.546   7.557   0.429  3.3677 -0.5713  0.1542
 1816SOL     OW 6303   7.555   7.198   0.477  0.1083  0.3358  0.0164
 1816SOL    HW1 6304   7.580   7.105   0.470 -0.2548  0.3320 -1.9001
 1816SOL    HW2 6305   7.558   7.217   0.570 -0.9882 -1.9505  0.5979
 1817SOL     OW 6306   1.588   1.186   6.416  0.4832  0.2312 -0.3448
 1817SOL    HW1 6307   1.634   1.245   6.356  0.6854  1.3070  0.8395
 1817SOL    HW2 6308   1.659   1.138   6.460  0.3435 -0.3383 -0.7234
 1818SOL     OW 6309   0.843   6.707   7.938  0.4851  0.0218  0.1186
 1818SOL    HW1 6310   0.831   6.639   8.004  1.1144 -0.7765 -0.5603
 1818SOL    HW2 6311   0.880   6.781   7.986  1.1042 -0.6070  0.6343
 1819SOL     OW 6312   1.061   2.974   1.510  0.1197  0.0284 -0.0964
 1819SOL    HW1 6313   1.144   2.961   1.464  1.5666 -0.5418  2.4584
 1819SOL    HW2 6314   1.031   2.886   1.530 -0.8705  0.2508 -0.5663
 1820SOL     OW 6315   0.266   0.281   6.538  0.0303  0.3513 -0.2233
 1820SOL    HW1 6316   0.222   0.282   6.453  0.4767 -2.0619 -0.5514
 1820SOL    HW2 6317   0.348   0.233   6.522  0.4430  0.4419  1.4315
 1821SOL     OW 6318   3.167   7.234   2.532  0.2765 -0.0047  0.5076
 1821SOL    HW1 6319   3.117   7.299   2.484 -3.2947 -1.9266  1.2786
 1821SOL    HW2 6320   3.171   7.269   2.622  0.4009  0.1833  0.4297
 1822SOL     OW 6321   1.611   3.083   5.555 -0.3012  0.2111  0.3543
 1822SOL    HW1 6322   1.661   3.145   5.608 -0.4505  1.5321 -0.9908
 1822SOL    HW2 6323   1.534   3.062   5.609  1.3185 -1.4116  2.2032
 1823SOL     OW 6324   5.210   1.258   6.453  0.1714  0.2446 -0.1051
 1823SOL    HW1 6325   5.169   1.176   6.424  3.0600 -0.5481 -2.6031
 1823SOL    HW2 6326   5.304   1.239   6.451  0.9281  3.4312 -0.0713
 1824SOL     OW 6327   4.536   7.783   1.430  0.4247 -0.1069 -0.7442
 1824SOL    HW1 6328   4.482   7.862   1.440 -0.8857 -1.0335 -0.0483
 1824SOL    HW2 6329   4.472   7.713   1.414  1.2729 -1.4915  1.4466
 1825SOL     OW 6330   2.263   6.855   0.534 -0.7312  0.3502  0.1382
 1825SOL    HW1 6331   2.309   6.926   0.490 -1.3450  0.7094  0.0598
 1825SOL    HW2 6332   2.275   6.779   0.476  0.0235  0.3526  0.2835
 1826SOL     OW 6333   2.961   4.246   5.627  0.3732 -0.3895  0.0032
 1826SOL    HW1 6334   2.926   4.287   5.548  2.0873 -0.5810 -0.9160
 1826SOL    HW2 6335   3.033   4.303   5.655  0.0171 -0.5130  1.2368
 1827SOL     OW 6336   6.583   0.369   1.854  0.0720 -0.3927  0.3472
 1827SOL    HW1 6337   6.673   0.343   1.874 -0.4380 -1.4056  1.4392
 1827SOL    HW2 6338   6.533   0.288   1.856 -0.3117 -0.5238 -4.1413
 1828SOL     OW 6339   5.738   4.276   5.463 -0.6514 -0.1327  0.1007
 1828SOL    HW1 6340   5.684   4.356   5.468  0.4404  0.7381 -1.3987
 1828SOL    HW2 6341   5.825   4.305   5.489  0.0359 -0.5228 -1.6473
 1829SOL     OW 6342   6.600   6.323   0.737 -0.0570 -0.1832 -0.6395
 1829SOL    HW1 6343   6.634   6.410   0.717 -1.2617  0.0514 -1.7984
 1829SOL    HW2 6344   6.677   6.266   0.735  0.9448  0.9912  1.3225
 1830SOL     OW 6345   7.931   7.784   6.081 -0.0347  0.2038 -0.0597
 1830SOL    HW1 6346   8.022   7.779   6.109 -0.3412 -0.6017  0.8580
 1830SOL    HW2 6347   7.888   7.712   6.127 -1.2372  0.8888 -0.0781
 1831SOL     OW 6348   3.507   6.809   0.358  0.4055  0.4647  0.0177
 1831SOL    HW1 6349   3.464   6.737   0.311 -0.5864 -0.3554  2.0127
 1831SOL    HW2 6350   3.475   6.888   0.316 -0.3827 -0.2313 -0.7301
 1832SOL     OW 6351   0.708   3.301   4.404  0.5332 -0.0376  0.5047
 1832SOL    HW1 6352   0.729   3.214   4.439  0.5623  0.1065  0.8502
 1832SOL    HW2 6353   0.774   3.359   4.442 -0.1951  0.3346  1.2123
 1833SOL     OW 6354   2.672   6.150   2.160 -0.0341  0.2200 -0.4894
 1833SOL    HW1 6355   2.670   6.130   2.067 -0.3885  0.9522 -0.6498
 1833SOL    HW2 6356   2.581   6.171   2.182  0.4538  2.8900 -0.6497
 1834SOL     OW 6357   6.542   4.956   6.341 -0.5326 -0.2375  0.0508
 1834SOL    HW1 6358   6.467   5.014   6.337 -1.2855 -1.2721 -1.8272
 1834SOL    HW2 6359   6.610   5.008   6.384 -1.2947  1.8903 -1.1879
 1835SOL     OW 6360   7.522   0.239   5.169 -0.3281 -0.0045  0.1144
 1835SOL    HW1 6361   7.447   0.222   5.226 -0.5506 -0.4314 -0.2956
 1835SOL    HW2 6362   7.599   0.217   5.222 -0.5157 -0.0164  0.3815
 1836SOL     OW 6363   1.696   6.298   7.580  0.0912 -0.1216  0.5249
 1836SOL    HW1 6364   1.636   6.281   7.653 -0.2889 -2.3203 -0.2142
 1836SOL    HW2 6365   1.777   6.254   7.606 -0.2857 -1.5914 -0.6480
 1837SOL     OW 6366   3.665   5.070   2.929  0.1887  0.1041 -0.2268
 1837SOL    HW1 6367   3.707   5.072   2.843  1.0183  1.4590  0.1852
 1837SOL    HW2 6368   3.572   5.056   2.909  0.4101  0.0435 -1.3149
 1838SOL     OW 6369   5.667   0.163   2.884  0.0027  0.5175  0.1500
 1838SOL    HW1 6370   5.736   0.174   2.949  2.6536 -4.3115 -1.3594
 1838SOL    HW2 6371   5.703   0.202   2.804 -1.1310  2.0555  0.3414
 1839SOL     OW 6372   3.924   7.964   7.058 -0.3552 -0.2717 -0.0369
 1839SOL    HW1 6373   3.946   7.965   7.151 -0.8183 -0.1175  0.0713
 1839SOL    HW2 6374   3.954   7.878   7.028 -1.3398 -0.8262  0.5290
 1840SOL     OW 6375   6.105   6.245   4.319 -0.3849  0.5261  0.1027
 1840SOL    HW1 6376   6.042   6.271   4.252  0.0300 -1.1216 -0.9890
 1840SOL    HW2 6377   6.191   6.263   4.280 -0.1445  1.6287  1.0981
 1841SOL     OW 6378   2.998   0.502   5.680  0.0246 -0.5140 -0.2611
 1841SOL    HW1 6379   2.955   0.425   5.641 -0.4052  0.0184 -0.8667
 1841SOL    HW2 6380   2.926   0.561   5.703  0.3233 -0.5083  0.6820
 1842SOL     OW 6381   3.557   5.141   0.801 -0.5654  0.2741  0.4901
 1842SOL    HW1 6382   3.594   5.097   0.877  1.9461 -0.6332 -1.1135
 1842SOL    HW2 6383   3.475   5.180   0.833  0.1751 -0.3646  3.5026
 1843SOL     OW 6384   7.093   5.623   6.387 -0.1610 -1.0846  0.6773
 1843SOL    HW1 6385   7.003   5.600   6.366 -0.3127 -1.5990  1.7966
 1843SOL    HW2 6386   7.088   5.665   6.473  0.6062 -0.6858  0.5360
 1844SOL     OW 6387   3.887   4.710   6.445  0.4021 -0.6527 -0.0796
 1844SOL    HW1 6388   3.811   4.674   6.491 -0.1769  0.1469 -0.3789
 1844SOL    HW2 6389   3.959   4.651   6.466  0.0089 -0.6414  1.3516
 1845SOL     OW 6390   0.553   5.881   7.116  0.2010 -0.7931  0.3547
 1845SOL    HW1 6391   0.643   5.914   7.109  0.6157 -1.8550  0.4047
 1845SOL    HW2 6392   0.555   5.798   7.068 -0.5764 -1.1684  0.9554
 1846SOL     OW 6393   3.686   7.680   6.021  0.3721 -0.5792  0.5300
 1846SOL    HW1 6394   3.655   7.594   6.048  1.3791 -1.4157 -0.8629
 1846SOL    HW2 6395   3.698   7.673   5.926 -2.0792  1.9029 -0.1252
 1847SOL     OW 6396   4.718   5.469   2.137  0.6252  0.1752 -0.5559
 1847SOL    HW1 6397   4.717   5.487   2.230  1.5592 -1.1941 -0.2537
 1847SOL    HW2 6398   4.680   5.547   2.097 -0.6923  0.4029  1.0160
 1848SOL     OW 6399   5.950   4.351   2.566 -0.1307  0.3017 -0.5463
 1848SOL    HW1 6400   5.957   4.446   2.557  0.9337  0.3538  0.5396
 1848SOL    HW2 6401   5.891   4.339   2.641 -0.6828  0.0831 -1.0081
 1849SOL     OW 6402   2.547   0.336   5.051 -0.2144  0.6951  0.6135
 1849SOL    HW1 6403   2.478   0.274   5.072  0.8139  0.3062  3.1592
 1849SOL    HW2 6404   2.616   0.283   5.012 -0.4645  0.7302  0.1154
 1850SOL     OW 6405   1.031   2.002   0.679 -0.2568  0.1622 -0.2633
 1850SOL    HW1 6406   1.033   2.088   0.722  0.1044  0.3200 -0.5928
 1850SOL    HW2 6407   1.118   1.992   0.641 -0.1014 -0.6078  0.2706
 1851SOL     OW 6408   4.885   6.966   6.120 -0.1840 -0.2602 -0.1449
 1851SOL    HW1 6409   4.911   7.049   6.081 -0.0128 -1.0242 -1.7212
 1851SOL    HW2 6410   4.965   6.933   6.162  0.3370 -0.6466 -1.4038
 1852SOL     OW 6411   2.669   1.361   7.021 -0.1218  0.0465  0.1157
 1852SOL    HW1 6412   2.686   1.399   7.106  0.7976 -0.8536  0.3480
 1852SOL    HW2 6413   2.724   1.283   7.017 -1.7502 -1.1526 -0.4310
 1853SOL     OW 6414   3.213   0.551   6.607  0.1875 -0.3410 -0.1950
 1853SOL    HW1 6415   3.194   0.561   6.514 -0.6703 -0.0734  0.0007
 1853SOL    HW2 6416   3.145   0.493   6.640  0.9735 -1.1061  0.1124
 1854SOL     OW 6417   3.794   1.980   5.823 -0.2253 -0.2294  0.1747
 1854SOL    HW1 6418   3.885   2.008   5.813 -0.4570  0.7185  0.5816
 1854SOL    HW2 6419   3.766   1.957   5.735  0.0803  0.5321 -0.1341
 1855SOL     OW 6420   4.887   3.973   2.980  0.0047  0.0164 -0.2779
 1855SOL    HW1 6421   4.855   4.037   3.043 -2.0258 -0.3818 -0.8273
 1855SOL    HW2 6422   4.859   3.888   3.014 -2.3531 -0.1180 -2.2837
 1856SOL     OW 6423   5.292   6.060   7.013  0.1086 -0.3003 -0.1984
 1856SOL    HW1 6424   5.261   5.985   7.064  0.8874  0.1762  1.0062
 1856SOL    HW2 6425   5.360   6.023   6.956  1.4759 -0.3117  1.3658
 1857SOL     OW 6426   1.424   3.767   3.068 -0.4216 -0.4862 -0.2442
 1857SOL    HW1 6427   1.330   3.758   3.085 -0.1430 -0.2606  1.7096
 1857SOL    HW2 6428   1.437   3.861   3.054 -0.2471 -0.1690  1.6531
 1858SOL     OW 6429   3.929   3.975   2.417  0.4117  0.0203  0.2716
 1858SOL    HW1 6430   3.906   4.059   2.458  1.7932  1.2271 -1.2492
 1858SOL    HW2 6431   3.974   3.927   2.486  0.8611  1.1421  0.7955
 1859SOL     OW 6432   2.580   6.347   5.727 -0.1878  0.1186  0.2699
 1859SOL    HW1 6433   2.626   6.303   5.798  2.0993  0.7609 -0.7430
 1859SOL    HW2 6434   2.628   6.323   5.648 -1.2302  1.3360 -0.7837
 1860SOL     OW 6435   3.050   6.065   0.114 -0.0530  0.4012 -0.0984
 1860SOL    HW1 6436   3.040   6.149   0.159 -0.3216  0.6485 -0.6072
 1860SOL    HW2 6437   2.963   6.047   0.076  0.0349 -0.0449 -0.0975
 1861SOL     OW 6438   0.071   4.628   7.800 -0.5516  0.2419  0.0617
 1861SOL    HW1 6439   0.064   4.537   7.772  1.8931  0.4069 -1.4096
 1861SOL    HW2 6440   0.089   4.623   7.894 -1.4856 -0.7152  0.2089
 1862SOL     OW 6441   4.063   5.916   5.696  0.7353  0.0941  0.3254
 1862SOL    HW1 6442   4.077   5.990   5.636  1.4660 -0.3446 -0.0524
 1862SOL    HW2 6443   4.064   5.839   5.639 -0.1659 -0.2008  0.7012
 1863SOL     OW 6444   7.970   7.599   6.899 -0.4601  0.3219 -0.1005
 1863SOL    HW1 6445   7.887   7.598   6.853 -1.0139  0.0859  0.8695
 1863SOL    HW2 6446   7.982   7.508   6.928 -0.3602  0.5584  0.6168
 1864SOL     OW 6447   6.760   6.578   5.797 -0.2251 -0.0494  0.1255
 1864SOL    HW1 6448   6.698   6.608   5.731 -0.1866 -1.1338 -0.4210
 1864SOL    HW2 6449   6.831   6.537   5.747 -0.5777 -1.6049  0.8435
 1865SOL     OW 6450   2.098   1.681   3.454 -0.0470 -0.5335  0.5869
 1865SOL    HW1 6451   2.073   1.758   3.504  0.6765 -0.4929  0.8982
 1865SOL    HW2 6452   2.025   1.666   3.394  0.9607  2.0528 -1.4519
 1866SOL     OW 6453   0.042   7.873   4.097 -0.0238 -0.3052 -0.3655
 1866SOL    HW1 6454   0.070   7.964   4.107 -0.2009 -0.1711 -0.9769
 1866SOL    HW2 6455   0.031   7.841   4.186 -1.9357  0.9114 -0.0862
 1867SOL     OW 6456   2.310   6.756   4.778 -0.1413 -0.1024 -0.0545
 1867SOL    HW1 6457   2.351   6.842   4.774 -1.6254  0.5933 -1.6367
 1867SOL    HW2 6458   2.357   6.703   4.714  0.0998 -0.1792  0.1811
 1868SOL     OW 6459   0.766   4.303   5.107 -0.9330 -0.0227 -0.1240
 1868SOL    HW1 6460   0.724   4.272   5.026 -1.1433  0.2068 -0.1016
 1868SOL    HW2 6461   0.855   4.268   5.102 -1.1043 -0.4650 -0.1986
 1869SOL     OW 6462   7.647   0.146   6.446  0.2114 -0.1125 -0.4669
 1869SOL    HW1 6463   7.608   0.076   6.498  0.6167  0.5390  0.7639
 1869SOL    HW2 6464   7.600   0.144   6.363 -2.8316  0.9235  1.0598
 1870SOL     OW 6465   5.491   6.561   6.383 -0.2090  0.4929 -0.0129
 1870SOL    HW1 6466   5.496   6.639   6.438 -1.4053 -0.1404  1.0565
 1870SOL    HW2 6467   5.544   6.496   6.429  1.2593  0.8187 -1.1994
 1871SOL     OW 6468   4.257   7.521   2.780 -0.2146 -0.2834  0.4127
 1871SOL    HW1 6469   4.340   7.543   2.823  0.1969 -0.0808 -0.4732
 1871SOL    HW2 6470   4.225   7.445   2.829 -0.6800  1.0307  2.2730
 1872SOL     OW 6471   0.729   3.569   2.442  0.2436 -0.0278 -0.0048
 1872SOL    HW1 6472   0.654   3.627   2.454  1.6136  1.6795  0.7634
 1872SOL    HW2 6473   0.765   3.557   2.529  2.3036  1.2940 -0.5837
 1873SOL     OW 6474   3.139   7.676   1.464  0.1666 -0.3769  0.1263
 1873SOL    HW1 6475   3.141   7.581   1.471  0.3036 -0.4233 -0.4384
 1873SOL    HW2 6476   3.061   7.695   1.413  0.3546 -0.2194 -0.1097
 1874SOL     OW 6477   6.039   5.010   0.194  0.1793 -0.4054 -0.1045
 1874SOL    HW1 6478   5.993   5.033   0.274 -0.7333 -0.5305 -0.5803
 1874SOL    HW2 6479   6.132   5.019   0.216  0.0056  3.5988 -0.1754
 1875SOL     OW 6480   7.204   6.862   1.725  0.1795 -0.5778 -0.1258
 1875SOL    HW1 6481   7.202   6.943   1.775 -1.4972 -0.6381 -0.0394
 1875SOL    HW2 6482   7.295   6.833   1.729  0.6911  1.0062  0.2953
 1876SOL     OW 6483   5.203   0.035   1.671  0.0203  0.1611 -0.3796
 1876SOL    HW1 6484   5.148  -0.039   1.700  0.2702  0.9556  2.4441
 1876SOL    HW2 6485   5.276   0.036   1.733 -1.0844  4.0013  1.1687
 1877SOL     OW 6486   7.732   6.406   6.249 -0.5786  0.3914 -0.4436
 1877SOL    HW1 6487   7.826   6.405   6.230 -0.6113  0.9246 -0.6570
 1877SOL    HW2 6488   7.693   6.351   6.180 -0.2824 -1.1241  0.5445
 1878SOL     OW 6489   1.303   5.003   6.277  0.5215  0.3503 -0.3523
 1878SOL    HW1 6490   1.319   4.964   6.363  1.8605 -1.0499 -1.1948
 1878SOL    HW2 6491   1.377   4.977   6.223 -1.0110 -0.1289 -2.3835
 1879SOL     OW 6492   6.987   7.201   5.654  0.2381 -0.2012 -0.1332
 1879SOL    HW1 6493   6.997   7.186   5.748  0.8212 -0.5818 -0.2489
 1879SOL    HW2 6494   6.939   7.284   5.648  1.0585  0.3436  0.5035
 1880SOL     OW 6495   7.576   6.245   5.179  0.2448 -0.1035  0.4676
 1880SOL    HW1 6496   7.624   6.254   5.261 -1.4599 -0.4814  1.5378
 1880SOL    HW2 6497   7.554   6.153   5.173  2.1353 -0.5207 -1.5167
 1881SOL     OW 6498   2.587   7.583   3.826  0.2178 -0.3744 -0.5356
 1881SOL    HW1 6499   2.596   7.583   3.731 -1.1435  1.2097 -0.7096
 1881SOL    HW2 6500   2.548   7.498   3.846 -0.4566 -0.3125 -1.5147
 1882SOL     OW 6501   4.395   5.913   2.930  0.3907 -0.0129 -0.3641
 1882SOL    HW1 6502   4.485   5.944   2.946  0.0040  0.5846  0.7923
 1882SOL    HW2 6503   4.348   5.991   2.900 -0.5470  0.6148  2.3980
 1883SOL     OW 6504   7.375   0.904   5.977 -0.0731 -0.0454 -0.1236
 1883SOL    HW1 6505   7.398   0.898   5.885 -0.0517 -1.3464 -0.0556
 1883SOL    HW2 6506   7.287   0.868   5.983  0.6169 -1.7452  0.5900
 1884SOL     OW 6507   1.183   5.397   3.786  0.1019  0.3184  0.1601
 1884SOL    HW1 6508   1.153   5.406   3.695 -1.7456 -0.6317  0.6155
 1884SOL    HW2 6509   1.171   5.485   3.823  2.0481  1.0485 -0.7785
 1885SOL     OW 6510   7.262   4.602   2.043  0.3965 -0.8833  0.8049
 1885SOL    HW1 6511   7.200   4.592   2.116 -1.8663  3.3411 -0.2453
 1885SOL    HW2 6512   7.210   4.585   1.965  1.2451  0.2049 -0.0213
 1886SOL     OW 6513   6.018   3.945   1.978  0.4739  0.2315  0.1660
 1886SOL    HW1 6514   6.054   3.872   1.928  0.1365 -0.8836  1.5027
 1886SOL    HW2 6515   6.088   4.011   1.976  1.3487 -0.6629  0.0901
 1887SOL     OW 6516   0.966   3.930   1.514 -0.1514  0.2733  0.8818
 1887SOL    HW1 6517   0.964   3.860   1.449 -1.5794  0.6213  0.5305
 1887SOL    HW2 6518   1.058   3.958   1.516  0.2106 -0.8162  0.1838
 1888SOL     OW 6519   6.107   0.649   6.338 -0.3385  0.0164  0.0459
 1888SOL    HW1 6520   6.147   0.601   6.266  1.0084 -0.8216  1.3045
 1888SOL    HW2 6521   6.030   0.596   6.361  0.0052 -0.4639  0.1139
 1889SOL     OW 6522   4.434   0.829   2.314  0.8695 -0.0748  0.1823
 1889SOL    HW1 6523   4.351   0.781   2.314 -0.1745  1.6628  0.2992
 1889SOL    HW2 6524   4.489   0.782   2.251  0.2285 -1.9219  0.9244
 1890SOL     OW 6525   5.224   4.893   4.072  0.3478 -0.1428 -0.2076
 1890SOL    HW1 6526   5.274   4.938   4.140 -0.1968 -0.7032  0.5809
 1890SOL    HW2 6527   5.198   4.810   4.112  0.2691 -0.6127 -1.2063
 1891SOL     OW 6528   3.587   1.815   0.855 -0.1703 -0.1889 -0.0014
 1891SOL    HW1 6529   3.582   1.721   0.838 -0.0878 -0.0992 -0.5471
 1891SOL    HW2 6530   3.679   1.837   0.846  0.0574 -0.3163  1.6468
 1892SOL     OW 6531   4.393   2.428   2.053  0.1428  0.3659 -0.2471
 1892SOL    HW1 6532   4.367   2.410   2.143 -0.0066 -0.0912 -0.3769
 1892SOL    HW2 6533   4.461   2.364   2.034  0.2736  0.5527 -0.4152
 1893SOL     OW 6534   6.901   1.421   6.452 -0.4569  0.0616  0.0756
 1893SOL    HW1 6535   6.953   1.484   6.402 -0.4863  0.1135  0.1104
 1893SOL    HW2 6536   6.961   1.389   6.519 -0.7557  0.8449  0.7319
 1894SOL     OW 6537   5.637   5.739   1.082 -0.1908 -0.0292  0.1031
 1894SOL    HW1 6538   5.621   5.824   1.040 -0.2799  0.0673  0.3286
 1894SOL    HW2 6539   5.711   5.756   1.141 -0.1079 -0.1474  0.0336
 1895SOL     OW 6540   2.686   7.376   4.506 -0.4277 -0.0714 -0.6853
 1895SOL    HW1 6541   2.623   7.388   4.435 -1.2886  0.7341  0.1720
 1895SOL    HW2 6542   2.648   7.424   4.580  0.9528  0.0074  0.0116
 1896SOL     OW 6543   7.381   5.260   3.503  0.4150  0.5893 -0.0448
 1896SOL    HW1 6544   7.440   5.323   3.461  1.2064  0.0945  0.2832
 1896SOL    HW2 6545   7.415   5.253   3.593 -0.6028  0.8443  0.3720
 1897SOL     OW 6546   5.403   0.570   2.906 -0.0815  0.0593 -0.0448
 1897SOL    HW1 6547   5.442   0.516   2.837 -1.2460 -0.9583  0.0594
 1897SOL    HW2 6548   5.409   0.660   2.872  3.1704  0.1072  0.4061
 1898SOL     OW 6549   0.405   0.299   7.107 -0.2048  0.2344 -0.3249
 1898SOL    HW1 6550   0.311   0.318   7.109 -0.2109  0.1630  0.1951
 1898SOL    HW2 6551   0.411   0.206   7.126  0.0155  0.4084  0.4984
 1899SOL     OW 6552   3.120   5.211   4.109 -0.3115 -0.3106 -0.5363
 1899SOL    HW1 6553   3.130   5.141   4.044 -1.0876 -1.4597  0.5548
 1899SOL    HW2 6554   3.103   5.289   4.056  0.8187 -0.8654 -1.7943
 1900SOL     OW 6555   5.952   7.649   6.235  0.0760  0.2026 -0.0738
 1900SOL    HW1 6556   5.929   7.655   6.142 -0.1740 -1.1321 -0.1220
 1900SOL    HW2 6557   6.042   7.617   6.236 -0.1080 -0.3140  0.1426
 1901SOL     OW 6558   7.537   2.289   2.613  0.5753 -0.5877 -0.4758
 1901SOL    HW1 6559   7.478   2.311   2.685  1.1458  0.7491 -0.3802
 1901SOL    HW2 6560   7.505   2.340   2.539  3.1040  2.4001  0.2642
 1902SOL     OW 6561   1.480   3.135   1.276 -0.6617 -0.3587 -0.5600
 1902SOL    HW1 6562   1.420   3.210   1.284  0.1517  0.5339 -2.1648
 1902SOL    HW2 6563   1.464   3.102   1.187  0.5711 -0.6661 -0.6803
 1903SOL     OW 6564   7.756   7.091   5.601 -0.2503  0.0449 -0.2815
 1903SOL    HW1 6565   7.666   7.099   5.631  0.4024  0.9608  1.5689
 1903SOL    HW2 6566   7.805   7.060   5.677  1.0530 -0.2009 -1.1787
 1904SOL     OW 6567   0.185   4.851   2.781 -0.3855 -0.3813 -0.3336
 1904SOL    HW1 6568   0.197   4.945   2.773 -0.7254 -0.0372  2.3676
 1904SOL    HW2 6569   0.161   4.822   2.693  1.6263  1.7127 -1.6699
 1905SOL     OW 6570   6.609   6.641   3.343 -0.7485 -0.1377  0.0227
 1905SOL    HW1 6571   6.587   6.656   3.251 -0.1609 -0.2879 -0.1464
 1905SOL    HW2 6572   6.524   6.629   3.386 -1.0014 -0.6551 -0.6026
 1906SOL     OW 6573   0.072   2.462   2.118 -0.1040  0.6008  0.0745
 1906SOL    HW1 6574  -0.009   2.466   2.066  0.6807  2.1864 -1.0900
 1906SOL    HW2 6575   0.060   2.529   2.186  0.1122  0.6518  0.0638
 1907SOL     OW 6576   6.815   4.245   6.640 -0.0118 -1.0818 -0.2472
 1907SOL    HW1 6577   6.764   4.311   6.687  1.5363 -1.3322  1.9469
 1907SOL    HW2 6578   6.767   4.164   6.653 -0.5817 -0.8411 -0.7733
 1908SOL     OW 6579   3.467   0.116   4.257 -0.5390  0.5736  0.2340
 1908SOL    HW1 6580   3.504   0.048   4.200 -0.8864  1.3190 -0.9128
 1908SOL    HW2 6581   3.414   0.068   4.321 -0.6433 -0.2418 -0.4551
 1909SOL     OW 6582   0.562   2.414   4.304  0.4090  0.1651 -0.7265
 1909SOL    HW1 6583   0.525   2.342   4.355  1.1928  0.0740 -0.2666
 1909SOL    HW2 6584   0.489   2.474   4.291  0.7035  1.6185  2.9843
 1910SOL     OW 6585   3.295   7.186   4.493 -0.3576 -0.0754 -0.0847
 1910SOL    HW1 6586   3.231   7.161   4.426 -0.6049  1.7520 -0.5833
 1910SOL    HW2 6587   3.376   7.200   4.444 -0.8619  2.5990 -0.3069
 1911SOL     OW 6588   3.038   7.032   0.795  0.2641 -0.3441 -0.0496
 1911SOL    HW1 6589   2.951   7.070   0.780  1.0917  1.7547  0.0599
 1911SOL    HW2 6590   3.060   7.059   0.884  1.3880 -0.0537 -0.3983
 1912SOL     OW 6591   2.474   2.576   7.930  0.1356 -0.1299 -0.0028
 1912SOL    HW1 6592   2.499   2.615   7.847  0.7319 -0.7333 -0.1175
 1912SOL    HW2 6593   2.553   2.582   7.984  1.1320 -3.4918 -0.8886
 1913SOL     OW 6594   4.160   2.206   7.472 -0.3291  0.2502 -0.3992
 1913SOL    HW1 6595   4.167   2.301   7.483  2.7240  0.0137  0.5137
 1913SOL    HW2 6596   4.160   2.172   7.561  0.1976 -0.6789 -0.7491
 1914SOL     OW 6597   3.169   7.870   7.651  0.4287  0.1090 -0.0504
 1914SOL    HW1 6598   3.153   7.884   7.744 -0.5059  0.2908 -0.2275
 1914SOL    HW2 6599   3.084   7.885   7.609  0.6486 -0.7556 -0.8478
 1915SOL     OW 6600   6.583   2.078   1.625  1.3948 -0.0126 -0.2731
 1915SOL    HW1 6601   6.516   2.073   1.694  1.7963  2.2402  0.3784
 1915SOL    HW2 6602   6.547   2.141   1.562  2.1250 -0.1598 -0.8404
 1916SOL     OW 6603   6.655   6.044   7.743  0.4288 -0.0367  0.1755
 1916SOL    HW1 6604   6.736   6.093   7.730 -0.1910  0.7563 -1.0276
 1916SOL    HW2 6605   6.656   5.978   7.674 -0.2562  0.4482 -0.3162
 1917SOL     OW 6606   4.770   5.392   4.518  0.0118 -0.2818 -0.6178
 1917SOL    HW1 6607   4.710   5.378   4.445 -0.6912  0.7787 -0.2672
 1917SOL    HW2 6608   4.807   5.479   4.502  0.0072 -0.1288  0.1678
 1918SOL     OW 6609   3.897   4.368   7.293 -0.0974 -0.4684  0.6290
 1918SOL    HW1 6610   3.949   4.438   7.253  0.4998 -1.0266  0.4264
 1918SOL    HW2 6611   3.833   4.345   7.226 -0.5199  0.1054  0.8191
 1919SOL     OW 6612   3.461   4.078   7.708 -0.1778 -0.4137  0.0975
 1919SOL    HW1 6613   3.480   4.152   7.650 -0.2815 -0.4224  0.0512
 1919SOL    HW2 6614   3.525   4.085   7.778 -0.4720 -0.0229  0.3285
 1920SOL     OW 6615   4.369   7.025   4.405 -0.1487 -0.0547 -0.8014
 1920SOL    HW1 6616   4.333   6.944   4.370 -1.2547  0.6595 -1.3563
 1920SOL    HW2 6617   4.311   7.048   4.478  0.8863 -0.3996  0.1696
 1921SOL     OW 6618   3.867   3.552   6.190 -0.5156 -0.2158 -0.1989
 1921SOL    HW1 6619   3.850   3.612   6.117 -0.1851  1.4006  1.0296
 1921SOL    HW2 6620   3.836   3.598   6.267 -0.6989 -1.8418  0.7355
 1922SOL     OW 6621   6.706   2.157   3.102  0.0437 -0.0491 -0.3725
 1922SOL    HW1 6622   6.694   2.133   3.010  2.7137  0.8428 -1.0242
 1922SOL    HW2 6623   6.743   2.246   3.099 -0.2061  0.1554  1.5894
 1923SOL     OW 6624   6.832   3.383   7.400 -0.1569 -0.2662  0.3360
 1923SOL    HW1 6625   6.802   3.300   7.438 -1.7859  0.6453  1.1563
 1923SOL    HW2 6626   6.833   3.444   7.473 -1.3641  1.0259 -0.6670
 1924SOL     OW 6627   2.989   6.008   0.580 -0.1511  0.1951 -0.1488
 1924SOL    HW1 6628   3.029   5.951   0.646 -0.2850  0.6076  0.2918
 1924SOL    HW2 6629   2.935   6.069   0.630 -0.9103 -0.0104 -0.7029
 1925SOL     OW 6630   1.599   0.070   5.832 -0.6822 -0.0064  0.3143
 1925SOL    HW1 6631   1.540   0.077   5.907 -0.1803 -1.2827  0.8430
 1925SOL    HW2 6632   1.541   0.074   5.756 -1.3687 -0.3514  0.8064
 1926SOL     OW 6633   3.138   2.292   6.790 -0.2433 -0.1121  0.4789
 1926SOL    HW1 6634   3.150   2.280   6.695  2.7385 -0.3617  0.8015
 1926SOL    HW2 6635   3.084   2.218   6.816 -3.8952  1.6019 -1.3831
 1927SOL     OW 6636   0.699   4.996   7.664  0.0919  0.4528  0.0088
 1927SOL    HW1 6637   0.745   5.069   7.624  1.8367 -0.6207 -0.0506
 1927SOL    HW2 6638   0.764   4.925   7.667 -0.2036  0.1258  3.8008
 1928SOL     OW 6639   4.768   2.551   6.997 -0.2643  0.1056  0.4570
 1928SOL    HW1 6640   4.714   2.493   7.051 -1.4259  1.3651  0.7094
 1928SOL    HW2 6641   4.802   2.616   7.059 -0.2534  0.5987 -0.0569
 1929SOL     OW 6642   5.980   2.504   0.929  0.8627 -0.2086 -0.2825
 1929SOL    HW1 6643   5.955   2.433   0.989  1.7471 -0.4672 -0.2049
 1929SOL    HW2 6644   5.908   2.567   0.935 -0.0333 -1.1832 -0.5008
 1930SOL     OW 6645   0.506   4.371   0.164  0.0395 -0.8034  0.3583
 1930SOL    HW1 6646   0.562   4.392   0.089 -2.1610  0.3676 -1.0601
 1930SOL    HW2 6647   0.509   4.276   0.171  2.6326 -0.7630  0.7483
 1931SOL     OW 6648   5.116   1.086   5.272  0.2537  0.0064 -0.0176
 1931SOL    HW1 6649   5.091   1.008   5.322  0.3656 -0.3407 -0.4854
 1931SOL    HW2 6650   5.161   1.050   5.195  0.2616  0.5350 -0.2599
 1932SOL     OW 6651   7.837   5.374   1.776 -0.3527  0.6056 -0.0781
 1932SOL    HW1 6652   7.890   5.453   1.767  3.9337 -2.0464 -0.9025
 1932SOL    HW2 6653   7.820   5.366   1.870  0.1146  1.8812  0.1263
 1933SOL     OW 6654   2.300   7.397   2.886 -0.5134  0.2614 -0.6348
 1933SOL    HW1 6655   2.348   7.410   2.967  2.1627  0.0073 -2.0783
 1933SOL    HW2 6656   2.322   7.474   2.833 -1.0938 -0.2485 -1.6488
 1934SOL     OW 6657   3.648   5.349   1.248 -0.5299  0.3480 -0.1226
 1934SOL    HW1 6658   3.641   5.253   1.242 -0.5820  0.3260  0.3081
 1934SOL    HW2 6659   3.716   5.371   1.184 -1.2165  0.1222 -0.9615
 1935SOL     OW 6660   4.819   5.834   4.957  0.1404 -0.4164 -0.2713
 1935SOL    HW1 6661   4.799   5.774   4.885 -2.6754  1.1674 -0.9138
 1935SOL    HW2 6662   4.910   5.859   4.941  1.3731 -4.1145 -0.1564
 1936SOL     OW 6663   6.019   6.310   7.610  0.1251 -0.2959 -0.2730
 1936SOL    HW1 6664   6.108   6.276   7.613  0.8992  1.5268  3.3115
 1936SOL    HW2 6665   5.983   6.293   7.697 -0.8068  4.1314  0.4766
 1937SOL     OW 6666   1.217   6.440   1.320  0.3683 -0.0222  0.2680
 1937SOL    HW1 6667   1.136   6.434   1.269  0.6237  1.7197 -0.3893
 1937SOL    HW2 6668   1.275   6.376   1.280 -0.5811 -1.1515  0.6187
 1938SOL     OW 6669   2.295   6.524   7.952  0.4899  0.1629  0.0863
 1938SOL    HW1 6670   2.284   6.619   7.942  0.2704  0.0434 -0.8536
 1938SOL    HW2 6671   2.330   6.495   7.868 -0.2370 -0.7042  0.0715
 1939SOL     OW 6672   0.746   7.369   0.909  0.0772  0.3343  0.0483
 1939SOL    HW1 6673   0.832   7.357   0.867  0.1752 -0.0226  0.3408
 1939SOL    HW2 6674   0.707   7.442   0.862  0.5810  0.5590 -0.0312
 1940SOL     OW 6675   6.596   5.674   0.468  0.5741  0.3299  0.0104
 1940SOL    HW1 6676   6.661   5.622   0.421 -0.8354 -1.7982  0.2876
 1940SOL    HW2 6677   6.602   5.761   0.428  1.7579 -0.5050 -1.7494
 1941SOL     OW 6678   6.139   3.607   1.486  0.1303  0.2955  0.1439
 1941SOL    HW1 6679   6.070   3.673   1.477 -1.1489 -0.9924  0.0779
 1941SOL    HW2 6680   6.171   3.594   1.397 -1.1400 -0.6950 -0.2061
 1942SOL     OW 6681   1.383   4.335   0.999  0.1659 -0.8661 -0.4812
 1942SOL    HW1 6682   1.312   4.397   1.015 -0.0106 -1.1457 -0.1572
 1942SOL    HW2 6683   1.390   4.285   1.081  3.2236  1.6059  0.9813
 1943SOL     OW 6684   4.552   2.586   0.930 -0.0055  0.6702 -0.3009
 1943SOL    HW1 6685   4.592   2.501   0.915 -0.1298  0.5747 -0.1009
 1943SOL    HW2 6686   4.460   2.567   0.946  0.2159  0.7104  1.1121
 1944SOL     OW 6687   6.064   6.045   0.779  0.3226  0.2787  0.0846
 1944SOL    HW1 6688   6.123   5.970   0.766  0.5706  0.0566  2.1159
 1944SOL    HW2 6689   6.123   6.120   0.789  0.5562 -0.2059  3.9734
 1945SOL     OW 6690   7.641   6.177   3.157  0.1249 -0.2927  0.8444
 1945SOL    HW1 6691   7.671   6.252   3.105 -1.0083 -0.1184  0.4198
 1945SOL    HW2 6692   7.671   6.101   3.107  0.1006 -0.1208  0.5629
 1946SOL     OW 6693   4.554   4.322   1.791  0.1054 -0.3266  0.5330
 1946SOL    HW1 6694   4.520   4.273   1.716  0.6035  0.3912 -0.1685
 1946SOL    HW2 6695   4.645   4.293   1.798  0.8982  1.6460 -0.8946
 1947SOL     OW 6696   2.257   4.585   0.952  0.0338  0.0001 -0.3932
 1947SOL    HW1 6697   2.185   4.521   0.951  0.0784 -0.0877  0.8377
 1947SOL    HW2 6698   2.291   4.584   0.863  0.4664 -2.2166 -0.2536
 1948SOL     OW 6699   6.043   5.207   7.570 -0.6187  0.3115  0.1732
 1948SOL    HW1 6700   6.080   5.137   7.517 -1.5631  0.1839 -0.3365
 1948SOL    HW2 6701   6.027   5.279   7.509 -0.0391  0.8296  0.6187
 1949SOL     OW 6702   4.106   2.513   0.205  0.0721  0.0352 -0.1867
 1949SOL    HW1 6703   4.166   2.524   0.279  0.0683  1.4609 -0.3802
 1949SOL    HW2 6704   4.071   2.424   0.216  0.9066 -0.1850  0.8885
 1950SOL     OW 6705   7.991   4.245   1.486  0.1691  0.1840 -0.3641
 1950SOL    HW1 6706   8.054   4.235   1.557 -0.9225 -0.1775  0.5805
 1950SOL    HW2 6707   7.994   4.162   1.439 -1.5451 -0.9209  1.3469
 1951SOL     OW 6708   3.284   7.870   4.188 -0.9296  0.3928  0.7101
 1951SOL    HW1 6709   3.295   7.794   4.131 -1.4173 -1.4335  2.8858
 1951SOL    HW2 6710   3.235   7.933   4.136 -2.7380 -1.7990 -0.3970
 1952SOL     OW 6711   7.847   7.403   7.403  0.1767  0.2047  0.1279
 1952SOL    HW1 6712   7.840   7.426   7.310 -4.2011 -0.0222  0.1825
 1952SOL    HW2 6713   7.822   7.311   7.407 -1.3437  0.6443  1.6350
 1953SOL     OW 6714   4.714   1.294   2.032  0.2667  0.2953  0.2392
 1953SOL    HW1 6715   4.773   1.331   2.098  0.2968 -0.3963  0.6097
 1953SOL    HW2 6716   4.664   1.227   2.080  0.5763 -0.4979 -0.5322
 1954SOL     OW 6717   0.500   3.026   6.728 -0.1933 -0.3559 -0.2487
 1954SOL    HW1 6718   0.446   2.963   6.680  1.6620 -1.1932 -1.3404
 1954SOL    HW2 6719   0.587   2.987   6.728  0.3058  0.5897  2.1211
 1955SOL     OW 6720   3.696   6.052   7.517 -0.4220 -0.0418  0.9540
 1955SOL    HW1 6721   3.783   6.054   7.558 -0.7973 -1.4848  1.8887
 1955SOL    HW2 6722   3.677   5.960   7.505 -1.6703  0.2669  0.3918
 1956SOL     OW 6723   6.102   1.698   2.740  0.4884 -0.5481 -0.5049
 1956SOL    HW1 6724   6.185   1.706   2.787  0.4605  2.8579 -0.7441
 1956SOL    HW2 6725   6.127   1.692   2.648  0.4972 -0.5526 -0.5020
 1957SOL     OW 6726   7.109   2.810   2.874  0.4342  0.2556 -0.4118
 1957SOL    HW1 6727   7.047   2.763   2.931  2.0062 -2.3156 -0.6536
 1957SOL    HW2 6728   7.053   2.864   2.818 -1.5573 -1.2598 -0.0353
 1958SOL     OW 6729   6.076   1.159   0.571 -0.9674  0.4536  0.1218
 1958SOL    HW1 6730   5.985   1.187   0.565 -0.6944  1.5872  0.9011
 1958SOL    HW2 6731   6.127   1.237   0.549 -0.1730 -0.1527 -0.2534
 1959SOL     OW 6732   3.678   7.176   7.758  0.4275 -0.3106 -0.4478
 1959SOL    HW1 6733   3.736   7.124   7.702 -0.2475 -1.8441  0.2188
 1959SOL    HW2 6734   3.696   7.144   7.847 -0.7518 -0.1500 -0.1411
 1960SOL     OW 6735   1.090   5.134   0.940 -0.2644 -0.0647  0.1779
 1960SOL    HW1 6736   1.035   5.055   0.946 -1.2311  0.4743 -1.1794
 1960SOL    HW2 6737   1.160   5.109   0.880  0.1109 -0.2402  0.6731
 1961SOL     OW 6738   7.016   1.952   0.514  0.2746 -0.4938  0.3570
 1961SOL    HW1 6739   7.107   1.927   0.499 -0.4431 -1.9147 -2.4044
 1961SOL    HW2 6740   6.974   1.871   0.545 -0.6378 -0.8555 -1.6461
 1962SOL     OW 6741   4.118   4.879   4.356  0.0410  0.6300  0.2292
 1962SOL    HW1 6742   4.069   4.814   4.407 -1.3210  2.0004  0.7453
 1962SOL    HW2 6743   4.051   4.923   4.303  0.8122  2.0523  0.4007
 1963SOL     OW 6744   3.183   1.762   1.450  0.4925 -0.1735 -0.1162
 1963SOL    HW1 6745   3.266   1.774   1.403 -0.2552  3.2717 -0.8398
 1963SOL    HW2 6746   3.180   1.834   1.512 -0.8948 -1.7106  1.7069
 1964SOL     OW 6747   1.572   7.435   4.294 -0.2748  0.3112 -0.6050
 1964SOL    HW1 6748   1.602   7.521   4.265  1.3725 -0.2064 -0.5610
 1964SOL    HW2 6749   1.512   7.406   4.226 -3.3692  2.7376  0.8356
 1965SOL     OW 6750   3.714   4.093   5.475  0.0726 -0.1349  0.3613
 1965SOL    HW1 6751   3.749   4.139   5.551 -1.2879  0.5044  0.6269
 1965SOL    HW2 6752   3.709   4.159   5.406 -0.1809 -0.3251  0.1951
 1966SOL     OW 6753   2.338   3.798   3.656 -0.0367 -0.1424 -0.3660
 1966SOL    HW1 6754   2.360   3.765   3.569  0.4908 -0.6975 -0.0343
 1966SOL    HW2 6755   2.333   3.893   3.645  1.0507 -0.1172 -0.7939
 1967SOL     OW 6756   3.944   7.144   7.928  0.1477  0.2908  0.3175
 1967SOL    HW1 6757   3.924   7.067   7.982 -0.9992 -0.1094 -0.6353
 1967SOL    HW2 6758   4.021   7.117   7.876  0.8632  0.4527  1.2687
 1968SOL     OW 6759   3.204   7.502   6.734 -0.5875 -0.2882 -0.2041
 1968SOL    HW1 6760   3.273   7.567   6.733 -0.4291 -0.4512  0.0482
 1968SOL    HW2 6761   3.154   7.518   6.654  0.2630 -0.7245 -0.8287
 1969SOL     OW 6762   5.462   4.817   2.694  0.0886  0.2509 -0.3881
 1969SOL    HW1 6763   5.464   4.822   2.599  1.1302 -0.2437 -0.4135
 1969SOL    HW2 6764   5.369   4.823   2.717 -0.4358 -1.9879 -1.5787
 1970SOL     OW 6765   3.683   0.285   2.471  0.0452 -0.2435 -0.4293
 1970SOL    HW1 6766   3.738   0.227   2.419 -0.9165 -0.2042 -1.5539
 1970SOL    HW2 6767   3.660   0.356   2.411  0.9667  1.1902  0.8257
 1971SOL     OW 6768   3.713   1.931   2.459 -0.3571 -0.1222  0.1097
 1971SOL    HW1 6769   3.752   1.858   2.507  1.4414  0.4109 -0.4867
 1971SOL    HW2 6770   3.680   1.989   2.528 -0.7521 -0.9134  0.6058
 1972SOL     OW 6771   2.254   2.148   1.101  0.5805  0.1768 -0.2979
 1972SOL    HW1 6772   2.255   2.068   1.155  0.4300  0.8286  0.6968
 1972SOL    HW2 6773   2.326   2.201   1.135  1.3258  0.0575 -1.6224
 1973SOL     OW 6774   4.148   1.081   1.324  0.1305  0.0475 -0.3958
 1973SOL    HW1 6775   4.115   0.991   1.329  0.9763 -0.2376  0.3451
 1973SOL    HW2 6776   4.237   1.072   1.292  0.9381  0.4282  1.6127
 1974SOL     OW 6777   7.019   4.488   3.529 -0.3155 -0.0182  0.2641
 1974SOL    HW1 6778   7.082   4.534   3.474 -1.9640 -0.8358 -2.5433
 1974SOL    HW2 6779   6.944   4.473   3.471 -2.2741 -0.8403  2.8490
 1975SOL     OW 6780   2.078   7.326   7.478 -0.6647 -0.2028 -0.0655
 1975SOL    HW1 6781   1.986   7.305   7.495 -0.4805 -0.8567  0.1359
 1975SOL    HW2 6782   2.075   7.385   7.402 -1.4461  1.9986  1.5602
 1976SOL     OW 6783   1.923   6.922   7.920 -0.2432  0.2751  0.1414
 1976SOL    HW1 6784   1.867   6.899   7.846  0.6701  2.3337 -1.2737
 1976SOL    HW2 6785   1.862   6.958   7.986 -1.0297 -1.3454  0.3526
 1977SOL     OW 6786   0.073   0.304   7.789  0.0013 -0.2790  0.0052
 1977SOL    HW1 6787   0.077   0.396   7.760  0.0519  0.1304  1.2430
 1977SOL    HW2 6788  -0.019   0.280   7.781 -0.2219  0.2825  0.8527
 1978SOL     OW 6789   0.452   2.249   4.491  0.5642 -0.0200 -0.2231
 1978SOL    HW1 6790   0.497   2.210   4.566 -0.2477 -1.0864 -0.2662
 1978SOL    HW2 6791   0.393   2.180   4.461  0.8888  0.3842 -1.8598
 1979SOL     OW 6792   1.483   1.976   3.732 -0.0183 -0.7704 -0.2071
 1979SOL    HW1 6793   1.559   1.927   3.701 -0.7838 -0.0878 -3.6585
 1979SOL    HW2 6794   1.411   1.913   3.727 -0.0975 -0.7516  0.6493
 1980SOL     OW 6795   3.259   2.939   5.316 -0.2089 -0.0897 -0.0778
 1980SOL    HW1 6796   3.193   2.872   5.334  0.1226 -0.7924 -1.3339
 1980SOL    HW2 6797   3.224   3.019   5.356 -1.0750 -0.7875  0.5984
 1981SOL     OW 6798   0.287   6.327   2.853  0.3701 -0.6881 -0.5217
 1981SOL    HW1 6799   0.346   6.388   2.809  1.5374  0.2058  2.1046
 1981SOL    HW2 6800   0.312   6.241   2.820  2.4644 -0.2239 -0.3067
 1982SOL     OW 6801   7.631   5.721   0.839  0.3808  0.0513 -0.0561
 1982SOL    HW1 6802   7.713   5.768   0.821  1.0441  0.0102  2.5127
 1982SOL    HW2 6803   7.569   5.790   0.864  0.1675 -0.0895 -0.1974
 1983SOL     OW 6804   4.951   1.016   2.195 -0.3853  0.0141 -0.4527
 1983SOL    HW1 6805   4.862   1.041   2.169 -0.6857 -1.6385 -1.1296
 1983SOL    HW2 6806   4.963   0.928   2.157  0.3963 -1.0998  2.1765
 1984SOL     OW 6807   3.369   0.387   3.372 -0.1465  0.3091  0.6505
 1984SOL    HW1 6808   3.445   0.341   3.405 -0.7667 -1.0504  0.2663
 1984SOL    HW2 6809   3.396   0.478   3.366  1.1690 -0.0251  1.2999
 1985SOL     OW 6810   6.333   5.335   1.157 -0.1294 -0.3749  0.2892
 1985SOL    HW1 6811   6.271   5.397   1.196 -0.1484 -0.2660  0.0842
 1985SOL    HW2 6812   6.278   5.262   1.128 -0.0119 -0.9139  1.3576
 1986SOL     OW 6813   1.247   2.047   0.383 -0.3557 -0.7479 -0.8888
 1986SOL    HW1 6814   1.334   2.069   0.417 -1.2253  2.5279 -0.4457
 1986SOL    HW2 6815   1.253   2.065   0.289 -0.7096  0.0301 -0.7615
 1987SOL     OW 6816   5.421   1.445   7.684  0.3021 -0.3868 -0.3834
 1987SOL    HW1 6817   5.452   1.514   7.744 -0.1370  0.9523 -1.6334
 1987SOL    HW2 6818   5.488   1.377   7.691  1.8434  1.0159 -0.5531
 1988SOL     OW 6819   0.797   2.141   6.069 -0.1429 -0.4449  0.2508
 1988SOL    HW1 6820   0.702   2.155   6.066 -0.0592  0.0060 -0.8075
 1988SOL    HW2 6821   0.828   2.198   6.139 -0.5492  0.1157 -0.0219
 1989SOL     OW 6822   7.681   3.960   1.782  0.0106  0.3771  0.2866
 1989SOL    HW1 6823   7.745   3.945   1.851  0.8589  1.8996 -0.1137
 1989SOL    HW2 6824   7.608   4.005   1.825  0.0613  0.3596  0.3898
 1990SOL     OW 6825   3.904   1.666   2.177  0.5003 -0.2640  0.0980
 1990SOL    HW1 6826   3.962   1.600   2.216  0.1923 -1.1117 -0.8296
 1990SOL    HW2 6827   3.964   1.730   2.139  0.8064 -0.1279  0.7962
 1991SOL     OW 6828   2.091   1.901   6.128  0.3025  0.5466  0.5530
 1991SOL    HW1 6829   2.014   1.935   6.081 -0.6739 -0.8782  1.0558
 1991SOL    HW2 6830   2.135   1.980   6.160  1.5983  1.7077 -3.4861
 1992SOL     OW 6831   3.179   2.154   1.517 -0.4506 -0.0226 -0.2356
 1992SOL    HW1 6832   3.121   2.161   1.442 -1.7661  0.1125  0.7648
 1992SOL    HW2 6833   3.198   2.244   1.542  1.6406 -0.0208 -1.5936
 1993SOL     OW 6834   5.711   5.321   2.888  0.0103 -0.1033 -0.0846
 1993SOL    HW1 6835   5.792   5.271   2.882  2.2400  3.2940 -3.3846
 1993SOL    HW2 6836   5.652   5.278   2.826  0.5086 -0.7700 -0.1043
 1994SOL     OW 6837   7.023   4.018   2.574  0.1427 -0.5875 -0.7356
 1994SOL    HW1 6838   7.003   3.928   2.598  0.4767 -1.2474 -2.7433
 1994SOL    HW2 6839   7.118   4.020   2.565  0.1014 -0.1771 -1.1541
 1995SOL     OW 6840   4.224   5.610   1.065  0.4073 -0.9205  0.5979
 1995SOL    HW1 6841   4.304   5.613   1.118  0.1958 -0.0241  0.8864
 1995SOL    HW2 6842   4.189   5.523   1.080  0.9976 -1.0993  0.9813
 1996SOL     OW 6843   1.083   3.180   6.324  0.1411  0.4330  0.0119
 1996SOL    HW1 6844   1.020   3.196   6.254  1.3566  0.7106 -1.0673
 1996SOL    HW2 6845   1.119   3.267   6.343  0.7944  0.1615  0.0255
 1997SOL     OW 6846   5.722   1.069   3.763 -0.1403  0.3110 -0.3506
 1997SOL    HW1 6847   5.672   1.151   3.761 -0.6196  0.0565 -2.9970
 1997SOL    HW2 6848   5.705   1.029   3.677  0.8587 -2.1038  0.5017
 1998SOL     OW 6849   7.786   5.450   6.216 -0.5623  0.4022 -0.1723
 1998SOL    HW1 6850   7.855   5.513   6.194 -0.8900  0.6221 -0.6136
 1998SOL    HW2 6851   7.765   5.469   6.307  0.9606 -0.6519  0.4395
 1999SOL     OW 6852   3.565   1.499   7.753  0.2571  0.0585  0.3543
 1999SOL    HW1 6853   3.570   1.455   7.838  2.2773  0.5209  0.5328
 1999SOL    HW2 6854   3.639   1.559   7.753 -1.7295  2.6843 -0.3437
 2000SOL     OW 6855   7.528   6.625   2.235 -0.3164  0.1737 -0.2269
 2000SOL    HW1 6856   7.447   6.670   2.258 -0.1908  0.0559  0.4798
 2000SOL    HW2 6857   7.517   6.536   2.269  0.2286  0.2485  0.1589
 2001SOL     OW 6858   3.971   2.591   1.191  0.6283 -0.4916 -0.0771
 2001SOL    HW1 6859   3.954   2.671   1.242 -2.7359  0.0351 -1.7094
 2001SOL    HW2 6860   3.989   2.524   1.256  0.6916  1.0088  1.5226
 2002SOL     OW 6861   1.239   3.888   0.790  0.3810 -0.1192 -0.3307
 2002SOL    HW1 6862   1.161   3.872   0.736 -0.1369  0.1202  0.3281
 2002SOL    HW2 6863   1.212   3.862   0.878  1.1405 -0.2830 -0.1404
 2003SOL     OW 6864   2.985   3.600   1.207 -0.4214 -0.6977  0.1312
 2003SOL    HW1 6865   2.975   3.601   1.302  0.3575 -0.5924  0.2129
 2003SOL    HW2 6866   2.989   3.507   1.184 -2.0609 -0.7800  0.0311
 2004SOL     OW 6867   0.619   0.746   4.726  0.1371 -0.2173  0.1870
 2004SOL    HW1 6868   0.656   0.800   4.797 -0.0436 -0.1091  0.2009
 2004SOL    HW2 6869   0.609   0.807   4.653  0.2941 -0.3224  0.0784
 2005SOL     OW 6870   5.814   0.040   4.194  0.3266  0.1197 -0.0506
 2005SOL    HW1 6871   5.800   0.046   4.100 -1.6318  0.6411  0.2168
 2005SOL    HW2 6872   5.745  -0.018   4.225  2.8299 -2.6713  0.7548
 2006SOL     OW 6873   3.360   6.014   4.666  0.2644  0.4398  0.4440
 2006SOL    HW1 6874   3.336   5.935   4.716 -2.0859 -0.4811 -1.8913
 2006SOL    HW2 6875   3.381   5.981   4.579 -0.9364  2.3997 -0.6395
 2007SOL     OW 6876   4.720   2.394   4.994 -0.0910 -0.4605  0.4596
 2007SOL    HW1 6877   4.675   2.479   4.991  0.8581  0.0200 -1.9073
 2007SOL    HW2 6878   4.793   2.408   5.054 -1.2391 -0.3209  1.8744
 2008SOL     OW 6879   2.542   4.895   2.428 -0.0152  0.3076 -0.2357
 2008SOL    HW1 6880   2.614   4.954   2.450  0.1122  0.2356 -0.4542
 2008SOL    HW2 6881   2.536   4.900   2.332 -0.5368  0.5922 -0.1929
 2009SOL     OW 6882   7.247   2.299   0.475 -0.4435  0.7585  0.2067
 2009SOL    HW1 6883   7.323   2.356   0.466  0.4848 -0.5451 -0.4257
 2009SOL    HW2 6884   7.206   2.301   0.389 -0.5231  0.6053  0.2422
 2010SOL     OW 6885   2.211   1.508   3.966  0.0006 -0.2687 -0.2294
 2010SOL    HW1 6886   2.183   1.480   3.879 -0.6135 -0.0257 -0.1135
 2010SOL    HW2 6887   2.191   1.601   3.969 -0.3337 -0.3522  0.3081
 2011SOL     OW 6888   3.011   5.490   3.030  0.2762 -0.6624  0.5831
 2011SOL    HW1 6889   3.001   5.486   2.935 -1.3880 -0.2794  0.7067
 2011SOL    HW2 6890   3.033   5.400   3.056  0.4599 -0.8282 -0.1258
 2012SOL     OW 6891   3.248   6.150   1.689  0.4254 -0.1791  0.1717
 2012SOL    HW1 6892   3.261   6.225   1.631  1.8658 -0.9273 -0.5244
 2012SOL    HW2 6893   3.298   6.172   1.768  2.5842 -1.2232 -0.8302
 2013SOL     OW 6894   3.124   1.904   3.090  0.3096 -0.1559 -0.2072
 2013SOL    HW1 6895   3.156   1.827   3.042  1.1353 -1.0633  1.7043
 2013SOL    HW2 6896   3.203   1.945   3.125 -0.2981  0.1162  0.8829
 2014SOL     OW 6897   0.695   4.834   4.487  0.4302  0.3402 -0.2669
 2014SOL    HW1 6898   0.717   4.770   4.555 -1.4425 -0.2610 -0.1793
 2014SOL    HW2 6899   0.615   4.800   4.447  0.2399  1.8588 -1.2509
 2015SOL     OW 6900   1.901   1.721   3.999 -0.5077 -0.2980  0.0186
 2015SOL    HW1 6901   1.887   1.660   3.927 -1.5458  0.0750 -0.1095
 2015SOL    HW2 6902   1.983   1.766   3.976 -0.9657  0.0132 -1.0772
 2016SOL     OW 6903   5.623   3.551   7.369  0.0376 -0.1908  0.0433
 2016SOL    HW1 6904   5.692   3.605   7.329  0.6767 -0.1599  1.1485
 2016SOL    HW2 6905   5.654   3.461   7.358 -0.0825 -0.2182 -0.0703
 2017SOL     OW 6906   7.395   2.196   4.748  0.1614 -0.3481  0.1248
 2017SOL    HW1 6907   7.318   2.200   4.691  0.0992 -1.7757  0.0782
 2017SOL    HW2 6908   7.368   2.142   4.822  1.1837 -1.1030 -0.0247
 2018SOL     OW 6909   2.265   5.846   6.372  0.2252 -0.2632 -0.1850
 2018SOL    HW1 6910   2.178   5.808   6.369  0.4366 -0.7100 -0.8432
 2018SOL    HW2 6911   2.289   5.860   6.281  1.8329 -2.4784 -0.2052
 2019SOL     OW 6912   7.363   2.387   6.385 -0.1895 -0.0580 -0.3990
 2019SOL    HW1 6913   7.352   2.472   6.343 -1.5258  0.1757  0.3485
 2019SOL    HW2 6914   7.295   2.385   6.452 -0.3783 -1.8466 -0.5958
 2020SOL     OW 6915   1.563   1.303   4.860 -0.8074  0.2521  0.5884
 2020SOL    HW1 6916   1.566   1.209   4.875 -2.1946  0.1188  0.1797
 2020SOL    HW2 6917   1.619   1.340   4.928  1.6258 -0.9860 -0.6251
 2021SOL     OW 6918   1.413   0.363   3.598  0.0708  0.3497  0.1447
 2021SOL    HW1 6919   1.357   0.429   3.639 -0.6163 -0.5471  0.6685
 2021SOL    HW2 6920   1.353   0.309   3.546  0.3039 -1.1116  1.3371
 2022SOL     OW 6921   2.711   0.757   0.723  0.3303  0.6165  0.1192
 2022SOL    HW1 6922   2.635   0.815   0.711  0.3588  0.5216 -0.6221
 2022SOL    HW2 6923   2.687   0.677   0.675  1.4828  1.1372 -1.4298
 2023SOL     OW 6924   4.275   5.148   3.186  0.3813  0.4321 -0.4165
 2023SOL    HW1 6925   4.320   5.205   3.124  1.7693  0.8972  0.9494
 2023SOL    HW2 6926   4.198   5.198   3.214  1.3662  1.4823  0.4602
 2024SOL     OW 6927   6.076   6.759   7.951 -0.8481 -0.1331 -0.0799
 2024SOL    HW1 6928   6.120   6.780   7.869  1.2062  0.7153  1.1587
 2024SOL    HW2 6929   5.983   6.772   7.932 -0.6508 -1.8542 -2.7675
 2025SOL     OW 6930   4.318   1.456   2.172 -0.1805  0.0535  0.3098
 2025SOL    HW1 6931   4.264   1.515   2.224 -1.2407 -0.6613  0.0373
 2025SOL    HW2 6932   4.387   1.428   2.233  1.4691  2.9680 -0.0702
 2026SOL     OW 6933   5.983   6.215   1.005  0.1597 -0.4847 -0.0933
 2026SOL    HW1 6934   5.967   6.152   0.935  0.2228  0.0122 -0.5594
 2026SOL    HW2 6935   5.971   6.300   0.964 -0.3972 -0.1916  0.6429
 2027SOL     OW 6936   0.793   0.127   6.286  0.1814  0.3484  0.7090
 2027SOL    HW1 6937   0.747   0.147   6.367 -1.2431  1.0569 -0.2550
 2027SOL    HW2 6938   0.724   0.109   6.222  1.2764 -1.7892  0.0040
 2028SOL     OW 6939   1.541   6.300   7.343  0.0387  0.9613 -0.1697
 2028SOL    HW1 6940   1.463   6.345   7.375  0.8463  2.7691 -0.5957
 2028SOL    HW2 6941   1.601   6.302   7.417 -0.4515 -0.9086  0.3389
 2029SOL     OW 6942   3.096   0.457   0.415 -0.0710 -0.1166  0.2848
 2029SOL    HW1 6943   3.048   0.466   0.333 -1.3514  1.7636  1.1626
 2029SOL    HW2 6944   3.172   0.514   0.405  0.7258 -1.2274 -0.2011
 2030SOL     OW 6945   1.952   4.671   2.762  0.2813  0.2516  0.2225
 2030SOL    HW1 6946   1.913   4.714   2.686 -1.0920 -1.3320 -0.0300
 2030SOL    HW2 6947   2.032   4.631   2.728 -1.5081 -2.4754 -1.0741
 2031SOL     OW 6948   3.129   1.676   3.709  0.4425 -0.0590  0.3080
 2031SOL    HW1 6949   3.192   1.741   3.741  1.2209 -0.6488 -0.0078
 2031SOL    HW2 6950   3.183   1.604   3.676 -0.3168  0.4523 -2.2124
 2032SOL     OW 6951   0.683   0.715   2.121  0.3618  0.4205  0.3350
 2032SOL    HW1 6952   0.744   0.768   2.070 -0.7550  0.5717 -0.8750
 2032SOL    HW2 6953   0.626   0.779   2.164 -1.1227  0.2695 -1.2925
 2033SOL     OW 6954   2.039   2.197   6.009 -0.2616 -0.1459  0.2164
 2033SOL    HW1 6955   1.987   2.121   5.982  1.8538 -1.0989 -1.5674
 2033SOL    HW2 6956   2.010   2.267   5.950 -1.2183  0.0452  0.8989
 2034SOL     OW 6957   1.448   5.651   7.669 -0.2357 -0.2954  0.2448
 2034SOL    HW1 6958   1.529   5.702   7.669 -0.9259  0.8344 -0.1110
 2034SOL    HW2 6959   1.412   5.663   7.757 -0.2605 -0.3880  0.2477
 2035SOL     OW 6960   2.712   3.027   7.001 -0.2790  0.2830  0.2626
 2035SOL    HW1 6961   2.672   3.113   6.992 -0.4335  0.2826  0.8850
 2035SOL    HW2 6962   2.679   2.976   6.927 -2.6894 -0.2083  1.5946
 2036SOL     OW 6963   6.656   6.432   6.383  0.3201  0.3678  0.5406
 2036SOL    HW1 6964   6.587   6.496   6.400  1.5247  1.2171  2.5602
 2036SOL    HW2 6965   6.612   6.361   6.336 -2.0672  0.6090  2.2664
 2037SOL     OW 6966   6.593   1.462   2.697  0.4778 -0.4322  0.0805
 2037SOL    HW1 6967   6.638   1.388   2.739 -0.0406 -1.1076 -0.5206
 2037SOL    HW2 6968   6.565   1.427   2.612  0.2619  0.4779 -0.2272
 2038SOL     OW 6969   0.472   4.763   4.364  0.8713  0.2874  0.0362
 2038SOL    HW1 6970   0.446   4.672   4.347  1.5937 -0.1392  1.1164
 2038SOL    HW2 6971   0.402   4.815   4.326 -0.4643 -0.7670  0.9400
 2039SOL     OW 6972   5.546   4.700   6.656 -0.3288 -0.3069  0.2347
 2039SOL    HW1 6973   5.504   4.771   6.609 -0.7970 -1.9663 -2.0403
 2039SOL    HW2 6974   5.639   4.709   6.636 -0.2927  0.0961  0.5810
 2040SOL     OW 6975   4.060   2.194   3.609  0.2010 -0.2127  0.6152
 2040SOL    HW1 6976   4.116   2.271   3.609 -1.2806  0.9104  0.8087
 2040SOL    HW2 6977   4.079   2.151   3.692  2.9641 -1.5820 -0.6180
 2041SOL     OW 6978   1.958   4.684   1.200  0.1935 -0.0835  0.2384
 2041SOL    HW1 6979   1.955   4.765   1.250 -0.6935  0.0317  0.0072
 2041SOL    HW2 6980   2.050   4.675   1.176  0.1541  1.3894 -0.6011
 2042SOL     OW 6981   2.421   0.186   0.836  1.1078  0.7107 -0.8899
 2042SOL    HW1 6982   2.352   0.249   0.861  1.7082  1.6345 -1.5254
 2042SOL    HW2 6983   2.432   0.198   0.742  2.0634  0.4883 -0.8132
 2043SOL     OW 6984   2.009   6.165   4.688 -0.5988 -0.3830  0.0639
 2043SOL    HW1 6985   1.926   6.117   4.689  0.3150 -2.0424  0.8069
 2043SOL    HW2 6986   2.010   6.209   4.603 -2.2429 -0.2846  0.0581
 2044SOL     OW 6987   7.115   6.554   6.117 -0.2922 -0.6429 -0.5266
 2044SOL    HW1 6988   7.180   6.559   6.187  0.8334  0.2041 -1.5894
 2044SOL    HW2 6989   7.033   6.532   6.161 -0.0672  1.8536  1.3705
 2045SOL     OW 6990   0.793   2.114   7.655  0.0117  0.5489 -0.1463
 2045SOL    HW1 6991   0.864   2.179   7.657  1.5299 -1.0788  1.7051
 2045SOL    HW2 6992   0.782   2.094   7.562  1.7316  1.0958 -0.4986
 2046SOL     OW 6993   1.244   5.758   7.518 -0.0035  0.9535 -0.2196
 2046SOL    HW1 6994   1.288   5.698   7.580  0.5492  0.7187 -0.8297
 2046SOL    HW2 6995   1.316   5.795   7.466 -0.3765  1.8820 -0.0926
 2047SOL     OW 6996   2.022   3.710   3.024  0.5743 -0.1372  0.3672
 2047SOL    HW1 6997   1.957   3.683   2.959  1.5610  1.6696 -1.4465
 2047SOL    HW2 6998   1.971   3.758   3.089 -0.2149 -0.6891  0.1748
 2048SOL     OW 6999   3.065   1.479   1.267  0.5157  0.2072  0.1461
 2048SOL    HW1 7000   3.009   1.422   1.319 -0.7851  1.8461  0.6275
 2048SOL    HW2 7001   3.046   1.454   1.176 -0.8171  0.5456  0.3124
 2049SOL     OW 7002   0.221   1.064   0.641  0.0025  0.1304  0.5986
 2049SOL    HW1 7003   0.159   1.136   0.653 -1.8392 -1.3039  0.1839
 2049SOL    HW2 7004   0.189   1.017   0.563  2.9451  0.5913 -1.0341
 2050SOL     OW 7005   2.091   6.913   6.685  0.1018  0.3672 -0.1873
 2050SOL    HW1 7006   2.070   6.876   6.599  0.3684  2.0075 -0.9884
 2050SOL    HW2 7007   2.028   6.984   6.696  1.5400  1.6742 -0.0851
 2051SOL     OW 7008   2.778   3.416   3.559  0.3478  0.0167  0.4296
 2051SOL    HW1 7009   2.775   3.323   3.580 -0.0878 -0.2852 -0.9052
 2051SOL    HW2 7010   2.686   3.443   3.557  0.4085  0.1819 -0.4131
 2052SOL     OW 7011   5.997   1.088   3.643  0.3208 -0.7160  0.1334
 2052SOL    HW1 7012   5.908   1.091   3.678  0.5929 -0.2099  0.8006
 2052SOL    HW2 7013   5.994   1.019   3.576 -0.3313 -1.3610  0.8089
 2053SOL     OW 7014   7.255   6.876   2.901  0.4009 -0.4842 -0.3735
 2053SOL    HW1 7015   7.231   6.786   2.879 -1.5272 -0.8225  2.5257
 2053SOL    HW2 7016   7.319   6.868   2.971  0.9581  0.4451 -0.7535
 2054SOL     OW 7017   6.703   3.576   4.350  0.4751 -0.3755 -0.2270
 2054SOL    HW1 7018   6.667   3.489   4.369 -0.6169  0.2029  0.4278
 2054SOL    HW2 7019   6.707   3.620   4.435  1.9667 -0.1139 -0.4010
 2055SOL     OW 7020   5.242   6.519   7.619 -0.5329  0.0281  0.3552
 2055SOL    HW1 7021   5.301   6.511   7.544 -0.6042  0.7924  0.2149
 2055SOL    HW2 7022   5.239   6.431   7.656  1.2594  0.1149  0.7990
 2056SOL     OW 7023   4.732   3.056   7.315 -0.1718 -0.0967  0.1732
 2056SOL    HW1 7024   4.755   3.143   7.283 -1.6626  1.5180  3.1092
 2056SOL    HW2 7025   4.798   3.035   7.380 -1.4170  0.2331  1.6056
 2057SOL     OW 7026   4.454   7.502   1.482  0.1394 -0.1371 -0.3554
 2057SOL    HW1 7027   4.366   7.484   1.449 -0.0547  0.2503 -0.0482
 2057SOL    HW2 7028   4.480   7.420   1.526  0.4274 -0.6808 -1.5041
 2058SOL     OW 7029   2.770   4.864   7.101  0.0935  0.1107 -0.2904
 2058SOL    HW1 7030   2.803   4.862   7.012 -2.6917  1.7841 -1.4982
 2058SOL    HW2 7031   2.677   4.885   7.092 -0.5733 -0.8116  2.9694
 2059SOL     OW 7032   1.706   0.418   2.576 -0.2743 -0.3579  0.0614
 2059SOL    HW1 7033   1.621   0.376   2.562 -0.8805  1.0470 -0.7179
 2059SOL    HW2 7034   1.742   0.430   2.488 -0.4774  1.3665  0.1683
 2060SOL     OW 7035   3.722   1.119   1.759  0.4140 -0.4222  0.2278
 2060SOL    HW1 7036   3.813   1.146   1.772  0.5779 -0.1666 -1.1962
 2060SOL    HW2 7037   3.675   1.201   1.747  0.5977 -0.5859 -2.2886
 2061SOL     OW 7038   2.641   0.231   3.142 -0.2345 -0.0891 -0.2512
 2061SOL    HW1 7039   2.673   0.191   3.061 -0.9582 -0.6015 -0.2966
 2061SOL    HW2 7040   2.638   0.324   3.124  0.6835 -0.0934 -0.4346
 2062SOL     OW 7041   5.353   0.620   4.146  0.0681  0.3763  0.3647
 2062SOL    HW1 7042   5.307   0.704   4.149 -0.7775 -0.0960  2.0546
 2062SOL    HW2 7043   5.335   0.586   4.058 -0.2903  1.5729 -0.0492
 2063SOL     OW 7044   4.381   6.843   2.330 -0.4452  0.0803  0.9179
 2063SOL    HW1 7045   4.352   6.934   2.333  0.4432  0.3845  0.7230
 2063SOL    HW2 7046   4.462   6.845   2.278 -0.1473 -0.7405  1.3226
 2064SOL     OW 7047   3.577   7.570   6.605 -0.3146  0.2004 -0.7159
 2064SOL    HW1 7048   3.542   7.604   6.688  1.9805  1.1202 -0.0104
 2064SOL    HW2 7049   3.504   7.574   6.544 -1.2983  2.4746  0.4868
 2065SOL     OW 7050   7.353   1.467   6.337  0.3423  0.5275  0.5940
 2065SOL    HW1 7051   7.438   1.504   6.311 -0.1530  1.3521  0.1158
 2065SOL    HW2 7052   7.326   1.415   6.261 -0.3600  1.6447  0.0532
 2066SOL     OW 7053   4.214   3.202   0.435  0.2997 -0.4690  0.1338
 2066SOL    HW1 7054   4.189   3.265   0.366  0.5960  0.4185  0.8188
 2066SOL    HW2 7055   4.270   3.252   0.494 -0.9571 -0.8532  1.7126
 2067SOL     OW 7056   0.397   1.658   2.629 -0.2640 -0.3680  0.0974
 2067SOL    HW1 7057   0.336   1.616   2.568  0.4562 -0.6296 -0.4620
 2067SOL    HW2 7058   0.404   1.748   2.599 -1.9957  0.2562  1.4425
 2068SOL     OW 7059   4.658   1.066   5.886 -0.3872 -0.0926  0.2696
 2068SOL    HW1 7060   4.724   1.025   5.941  0.2267 -0.0182 -0.3996
 2068SOL    HW2 7061   4.657   1.158   5.914  1.3001  0.3909 -1.1121
 2069SOL     OW 7062   2.450   5.370   2.568  0.1070 -0.2510  0.3968
 2069SOL    HW1 7063   2.478   5.328   2.486  1.4961 -0.1131  0.7798
 2069SOL    HW2 7064   2.367   5.413   2.545  0.5118 -0.1308 -0.9736
 2070SOL     OW 7065   6.536   1.669   5.627 -0.4052 -0.4234  0.2913
 2070SOL    HW1 7066   6.489   1.697   5.548  0.3622 -0.4675 -0.1910
 2070SOL    HW2 7067   6.504   1.581   5.644 -2.0487  0.2973  1.2004
 2071SOL     OW 7068   1.814   7.215   3.407 -0.1982 -0.5989 -0.2570
 2071SOL    HW1 7069   1.892   7.191   3.458 -0.6946 -1.2533  0.2294
 2071SOL    HW2 7070   1.748   7.151   3.435 -1.0200  0.1865 -0.3690
 2072SOL     OW 7071   7.147   7.142   4.272 -0.1887  0.0118 -0.5574
 2072SOL    HW1 7072   7.125   7.177   4.359  0.2293  0.6369 -0.6962
 2072SOL    HW2 7073   7.078   7.077   4.254 -0.9440  0.7029 -0.2493
 2073SOL     OW 7074   1.993   6.158   2.213  0.2280  0.0555 -0.3106
 2073SOL    HW1 7075   2.004   6.162   2.308  0.2751 -0.1963 -0.3048
 2073SOL    HW2 7076   1.926   6.090   2.199  1.7799 -1.4969 -0.5644
 2074SOL     OW 7077   7.281   3.601   0.672  0.6098 -0.5230 -0.5805
 2074SOL    HW1 7078   7.286   3.507   0.693  0.0535 -0.3753  0.2955
 2074SOL    HW2 7079   7.369   3.625   0.646  0.6631 -1.3857 -1.2346
 2075SOL     OW 7080   4.970   1.496   1.137 -0.7318  0.8459  0.4880
 2075SOL    HW1 7081   4.925   1.493   1.053 -0.5873  0.9005  0.4091
 2075SOL    HW2 7082   5.050   1.544   1.120  0.5444 -1.2988  0.0589
 2076SOL     OW 7083   4.254   1.237   2.672  0.8905  0.0474 -0.1388
 2076SOL    HW1 7084   4.159   1.232   2.670  0.8747 -0.3341  0.8881
 2076SOL    HW2 7085   4.274   1.329   2.684  0.6633  0.1690 -0.6744
 2077SOL     OW 7086   1.313   7.637   3.911 -0.0645  0.1142 -0.4970
 2077SOL    HW1 7087   1.250   7.603   3.848 -1.8284 -0.0790  1.2445
 2077SOL    HW2 7088   1.264   7.643   3.993  1.7303  1.6164  0.5674
 2078SOL     OW 7089   7.520   1.320   7.447  0.1753  0.5303 -0.0928
 2078SOL    HW1 7090   7.426   1.317   7.463  0.6067  2.0114  3.9529
 2078SOL    HW2 7091   7.539   1.413   7.429  1.0263  0.7286  1.5516
 2079SOL     OW 7092   2.951   0.643   1.330  0.4317 -0.3331  0.3371
 2079SOL    HW1 7093   2.980   0.643   1.421 -0.6676  2.2085  0.7775
 2079SOL    HW2 7094   2.856   0.648   1.335  0.3436 -0.3392 -0.9513
 2080SOL     OW 7095   1.431   6.241   2.707 -0.4612  0.4608  0.1333
 2080SOL    HW1 7096   1.416   6.167   2.648  2.6250  0.9100 -1.4565
 2080SOL    HW2 7097   1.501   6.212   2.765  2.0543  2.5235 -1.6345
 2081SOL     OW 7098   7.158   6.615   6.567 -0.1552  0.4058 -0.0252
 2081SOL    HW1 7099   7.080   6.668   6.559  0.1586  1.3345  2.3876
 2081SOL    HW2 7100   7.127   6.531   6.601 -0.0734  1.0425  1.7046
 2082SOL     OW 7101   1.804   0.128   6.762 -0.8199  0.2407  0.4711
 2082SOL    HW1 7102   1.769   0.093   6.844 -1.0606 -1.6926 -0.4054
 2082SOL    HW2 7103   1.729   0.168   6.719 -1.0742 -0.2825  0.4246
 2083SOL     OW 7104   3.689   6.695   1.064 -0.6310 -0.0159 -0.3367
 2083SOL    HW1 7105   3.653   6.702   1.153 -1.8483 -1.6466 -0.6445
 2083SOL    HW2 7106   3.760   6.632   1.072 -1.4994 -1.0795 -0.6801
 2084SOL     OW 7107   0.933   6.643   6.266 -0.6173  0.3570  0.2008
 2084SOL    HW1 7108   0.885   6.656   6.348  0.0541  0.3773  0.5953
 2084SOL    HW2 7109   0.943   6.549   6.259 -0.3956  0.3736  0.3020
 2085SOL     OW 7110   6.699   0.011   7.947 -0.0218  0.0171  0.2360
 2085SOL    HW1 7111   6.682   0.039   7.857  1.0025  0.6604  0.2235
 2085SOL    HW2 7112   6.698  -0.084   7.943 -1.0826  0.0342 -0.2285
 2086SOL     OW 7113   5.584   1.410   6.213 -0.5577  0.2189 -0.4167
 2086SOL    HW1 7114   5.527   1.402   6.136  1.8592 -1.2805 -2.2121
 2086SOL    HW2 7115   5.652   1.345   6.199  0.4215  0.3915  2.7085
 2087SOL     OW 7116   7.642   1.952   1.369 -0.0029 -1.3807  0.1412
 2087SOL    HW1 7117   7.618   1.967   1.278  0.3192 -0.1415  0.2391
 2087SOL    HW2 7118   7.559   1.947   1.416 -0.1583  0.1740  0.0817
 2088SOL     OW 7119   1.988   3.050   2.372 -0.1850 -0.1984  0.3650
 2088SOL    HW1 7120   1.949   3.028   2.287 -0.7473 -1.0664  0.8410
 2088SOL    HW2 7121   1.917   3.093   2.420 -0.6933 -2.0308  1.3355
 2089SOL     OW 7122   4.113   1.129   4.547  0.6511 -0.0398 -0.2021
 2089SOL    HW1 7123   4.178   1.101   4.483  1.2045 -0.2628  0.4505
 2089SOL    HW2 7124   4.117   1.225   4.545  1.3840 -0.0544  0.2157
 2090SOL     OW 7125   7.553   4.346   6.714 -0.1248 -0.6866 -0.0140
 2090SOL    HW1 7126   7.486   4.302   6.765 -0.2824 -1.1536 -0.6146
 2090SOL    HW2 7127   7.623   4.281   6.706 -0.2247 -0.7245 -0.6327
 2091SOL     OW 7128   6.014   5.170   4.985  0.6083  0.1873  0.3998
 2091SOL    HW1 7129   5.921   5.151   5.002  0.0372  0.2401 -2.3234
 2091SOL    HW2 7130   6.014   5.256   4.944  1.7774 -0.2018 -0.4563
 2092SOL     OW 7131   7.286   7.474   6.550  0.7531  0.1048  0.1968
 2092SOL    HW1 7132   7.209   7.517   6.513  0.7782 -0.9709 -1.1975
 2092SOL    HW2 7133   7.360   7.518   6.509  0.7891 -0.8770 -0.8304
 2093SOL     OW 7134   5.937   7.026   7.803 -0.1082  0.0662 -0.4657
 2093SOL    HW1 7135   5.876   7.087   7.762 -0.7269  0.6851  1.2993
 2093SOL    HW2 7136   5.884   6.949   7.824 -0.4341  0.7712  1.4552
 2094SOL     OW 7137   3.791   2.677   3.213  0.9431 -0.6737  0.2009
 2094SOL    HW1 7138   3.754   2.712   3.294  0.0484 -0.8412 -0.1263
 2094SOL    HW2 7139   3.715   2.660   3.157  1.5512 -0.4342 -0.7288
 2095SOL     OW 7140   1.252   6.039   2.287 -0.0480  0.7184  0.1600
 2095SOL    HW1 7141   1.178   6.012   2.342  0.3210  0.7156  0.6581
 2095SOL    HW2 7142   1.291   6.113   2.335  0.5622  0.4136  0.1360
 2096SOL     OW 7143   4.540   5.269   5.854  0.3847 -0.3167 -0.1914
 2096SOL    HW1 7144   4.595   5.307   5.785  1.4966 -1.2782  0.1447
 2096SOL    HW2 7145   4.451   5.298   5.831  0.8544  0.2285 -1.4460
 2097SOL     OW 7146   3.332   6.025   6.201 -0.1138 -0.5662 -0.7362
 2097SOL    HW1 7147   3.418   6.022   6.161 -0.1150  1.5004 -0.9706
 2097SOL    HW2 7148   3.339   6.092   6.269 -1.7235  0.1358 -1.2275
 2098SOL     OW 7149   1.503   0.801   1.815  0.2067 -0.3431 -0.4401
 2098SOL    HW1 7150   1.569   0.733   1.833 -0.1331 -0.7600 -0.7542
 2098SOL    HW2 7151   1.547   0.862   1.756  1.5031  1.3005  2.0702
 2099SOL     OW 7152   1.602   4.383   7.308 -0.4158  0.2546 -0.3016
 2099SOL    HW1 7153   1.564   4.396   7.221 -1.7738  1.6144  0.4559
 2099SOL    HW2 7154   1.554   4.444   7.365  2.1575  1.2874  0.9331
 2100SOL     OW 7155   2.295   6.625   0.774 -0.5275 -0.1774  0.6907
 2100SOL    HW1 7156   2.345   6.706   0.778 -0.1406 -0.4016  0.5626
 2100SOL    HW2 7157   2.275   6.613   0.681  0.1850 -0.6730  0.5874
 2101SOL     OW 7158   4.640   7.716   6.288 -0.3106  0.1267 -0.4336
 2101SOL    HW1 7159   4.603   7.642   6.240 -0.7103 -1.7755  2.5624
 2101SOL    HW2 7160   4.726   7.685   6.317  0.4336  1.6675 -0.9185
 2102SOL     OW 7161   4.332   1.011   6.065  0.7610  0.2321 -0.5300
 2102SOL    HW1 7162   4.278   0.989   5.989  0.6345 -1.5104  0.0135
 2102SOL    HW2 7163   4.305   0.948   6.132  2.6852  0.0186  0.1064
 2103SOL     OW 7164   5.351   0.841   6.803  0.1440 -0.0694 -0.0459
 2103SOL    HW1 7165   5.287   0.863   6.734 -0.9182 -1.9213  0.2566
 2103SOL    HW2 7166   5.298   0.832   6.882  1.0210 -0.1909  0.5367
 2104SOL     OW 7167   6.638   5.954   0.043 -0.3720  0.1390 -0.6527
 2104SOL    HW1 7168   6.627   5.964  -0.052 -2.4565 -0.7568 -0.5801
 2104SOL    HW2 7169   6.569   6.009   0.080  0.2905  0.3096  0.3467
 2105SOL     OW 7170   6.853   4.850   3.678 -0.1611 -0.2488 -0.4840
 2105SOL    HW1 7171   6.915   4.923   3.674  1.0674 -1.2871 -1.4702
 2105SOL    HW2 7172   6.872   4.807   3.761 -0.4984  0.2088 -0.1646
 2106SOL     OW 7173   0.655   0.970   1.468 -0.0686 -0.1981 -1.0060
 2106SOL    HW1 7174   0.679   1.025   1.393 -0.8360  0.4027 -0.8311
 2106SOL    HW2 7175   0.610   1.030   1.528 -0.3776 -0.8928 -0.5306
 2107SOL     OW 7176   0.374   6.135   1.006 -0.1210 -0.3806  0.3552
 2107SOL    HW1 7177   0.392   6.062   0.948  0.2525 -0.2042  0.2466
 2107SOL    HW2 7178   0.337   6.203   0.950 -0.8385 -0.6256  0.5233
 2108SOL     OW 7179   7.305   0.167   6.411  0.3992  0.2305 -0.1153
 2108SOL    HW1 7180   7.386   0.196   6.369  0.7363 -1.5541 -0.7594
 2108SOL    HW2 7181   7.236   0.197   6.352  0.7503 -0.4483 -0.8817
 2109SOL     OW 7182   2.091   7.011   6.315  0.0257 -0.3722  0.3463
 2109SOL    HW1 7183   2.131   6.943   6.369  0.1788 -0.8091 -0.3214
 2109SOL    HW2 7184   1.998   6.989   6.314  0.0577 -0.4982  0.2297
 2110SOL     OW 7185   7.639   4.673   7.752 -0.0682  0.0653 -0.0181
 2110SOL    HW1 7186   7.728   4.680   7.717 -0.5150  1.4393 -0.9686
 2110SOL    HW2 7187   7.614   4.582   7.738  0.1806  0.2920 -2.3378
 2111SOL     OW 7188   0.572   6.133   3.465 -0.0133 -0.4156  0.5281
 2111SOL    HW1 7189   0.641   6.078   3.502  0.2764 -0.8648 -0.6353
 2111SOL    HW2 7190   0.619   6.207   3.425 -0.3507  0.3056  1.4239
 2112SOL     OW 7191   0.880   6.588   0.836 -0.0919  0.2147 -0.9846
 2112SOL    HW1 7192   0.846   6.641   0.764 -0.0169  0.9993 -0.4504
 2112SOL    HW2 7193   0.907   6.651   0.902 -1.1321 -0.5242  0.1889
 2113SOL     OW 7194   6.924   2.299   4.848 -0.7567 -0.0310 -0.6321
 2113SOL    HW1 7195   6.947   2.391   4.836 -0.0829 -0.2821 -1.3956
 2113SOL    HW2 7196   6.931   2.284   4.942  1.3618  0.1539 -0.7023
 2114SOL     OW 7197   7.383   5.315   1.207 -0.1551  0.3690 -0.1892
 2114SOL    HW1 7198   7.423   5.389   1.252  1.7120 -0.8328  0.2187
 2114SOL    HW2 7199   7.419   5.318   1.119  0.0614 -0.1479 -0.1203
 2115SOL     OW 7200   2.811   7.964   3.397 -0.2104 -0.1473 -0.3983
 2115SOL    HW1 7201   2.884   7.970   3.336 -0.3157 -0.7418 -0.5970
 2115SOL    HW2 7202   2.817   8.042   3.451  1.8948 -1.2121  1.0690
 2116SOL     OW 7203   5.812   4.361   0.406 -0.0594  0.2705  0.1123
 2116SOL    HW1 7204   5.793   4.316   0.488  0.4953  0.7679  0.5193
 2116SOL    HW2 7205   5.828   4.452   0.431  3.7699 -0.1975 -0.0081
 2117SOL     OW 7206   0.488   2.339   1.011  0.5053 -0.1618  0.4749
 2117SOL    HW1 7207   0.428   2.268   0.988  0.9486 -1.6545  3.5215
 2117SOL    HW2 7208   0.434   2.418   1.003 -0.1090 -0.7489 -2.5855
 2118SOL     OW 7209   4.931   2.668   0.029 -0.7511  0.0108  0.3073
 2118SOL    HW1 7210   5.000   2.725  -0.006 -0.8786 -0.6239 -1.0222
 2118SOL    HW2 7211   4.893   2.719   0.100  0.5279  0.7189  0.5151
 2119SOL     OW 7212   1.074   5.678   2.196  0.2914  0.1303  0.6415
 2119SOL    HW1 7213   1.112   5.590   2.200  0.7486  0.3659  2.0127
 2119SOL    HW2 7214   1.018   5.684   2.273 -0.4737  0.7293  0.0641
 2120SOL     OW 7215   1.675   4.518   3.869  0.3295  0.4744 -0.1203
 2120SOL    HW1 7216   1.656   4.425   3.884 -1.5169  0.3803 -2.3988
 2120SOL    HW2 7217   1.627   4.564   3.937  1.5189 -0.1948  1.2289
 2121SOL     OW 7218   1.802   3.082   0.158 -0.3056  0.5918 -0.0841
 2121SOL    HW1 7219   1.735   3.148   0.176 -0.5376  0.6108 -0.9653
 2121SOL    HW2 7220   1.832   3.103   0.069  1.2603  0.9202  0.4988
 2122SOL     OW 7221   2.866   3.672   7.056 -0.1989  0.4096  0.5976
 2122SOL    HW1 7222   2.874   3.714   6.970  0.0591 -0.4907  0.1727
 2122SOL    HW2 7223   2.893   3.740   7.118 -0.2331  1.0198 -0.0434
 2123SOL     OW 7224   2.817   5.360   1.296  0.0762 -0.5026  0.9315
 2123SOL    HW1 7225   2.830   5.453   1.281  0.3097 -0.2637  2.4573
 2123SOL    HW2 7226   2.735   5.354   1.344 -1.3241 -1.3350 -1.4056
 2124SOL     OW 7227   6.415   7.250   7.271 -0.1852  0.1267 -0.1490
 2124SOL    HW1 7228   6.430   7.332   7.223  0.4296  0.8694  1.2680
 2124SOL    HW2 7229   6.499   7.231   7.312 -0.6549 -0.5752  0.5055
 2125SOL     OW 7230   2.378   1.044   7.232  0.5607  0.0230 -0.3741
 2125SOL    HW1 7231   2.440   1.080   7.295  1.1617 -0.2860 -0.7817
 2125SOL    HW2 7232   2.346   1.120   7.183  0.0502  0.2704  0.3218
 2126SOL     OW 7233   5.805   7.173   4.973  0.1446 -0.2659  0.4498
 2126SOL    HW1 7234   5.869   7.162   4.903 -0.4274 -2.1995  0.1780
 2126SOL    HW2 7235   5.815   7.095   5.027 -2.1601 -0.7801  0.2406
 2127SOL     OW 7236   3.653   6.951   2.234 -0.3856 -0.0903 -0.5849
 2127SOL    HW1 7237   3.682   7.042   2.232  1.1149 -0.2854  3.2996
 2127SOL    HW2 7238   3.728   6.901   2.202 -0.3043 -0.1072 -0.3626
 2128SOL     OW 7239   4.542   1.835   3.266  0.1434  0.3763  0.0851
 2128SOL    HW1 7240   4.635   1.814   3.264  0.0452 -0.0679 -1.1718
 2128SOL    HW2 7241   4.498   1.752   3.243 -0.6461  0.2511  1.8745
 2129SOL     OW 7242   3.028   3.860   5.684 -1.1940 -0.0997 -0.2793
 2129SOL    HW1 7243   2.976   3.900   5.754 -0.9308 -0.6936  0.2775
 2129SOL    HW2 7244   3.116   3.855   5.721 -0.3698  2.2139 -1.7371
 2130SOL     OW 7245   5.287   2.053   4.481 -0.4107 -0.2914  0.1026
 2130SOL    HW1 7246   5.277   1.969   4.436  0.5558 -0.8977  0.9721
 2130SOL    HW2 7247   5.305   2.116   4.411 -2.1320 -0.6057 -0.6596
 2131SOL     OW 7248   6.618   0.120   5.164  0.2773 -0.5836  0.3175
 2131SOL    HW1 7249   6.627   0.094   5.255  0.4629  0.9628  0.7706
 2131SOL    HW2 7250   6.696   0.084   5.121  1.0608  0.0834  1.1296
 2132SOL     OW 7251   4.268   7.762   1.116 -0.2173  0.2255 -0.0485
 2132SOL    HW1 7252   4.314   7.697   1.063 -1.5156 -0.9027  0.1638
 2132SOL    HW2 7253   4.253   7.718   1.200  0.2373  1.3572  0.6513
 2133SOL     OW 7254   3.976   5.053   7.872  0.2557 -0.4158 -0.5112
 2133SOL    HW1 7255   4.047   5.116   7.857 -0.1634  0.8396  2.2080
 2133SOL    HW2 7256   4.009   4.995   7.940 -0.7031 -0.8991 -0.4434
 2134SOL     OW 7257   5.207   2.662   4.116  0.0798  0.1558 -0.2217
 2134SOL    HW1 7258   5.269   2.642   4.046 -0.2109 -0.9446 -0.1743
 2134SOL    HW2 7259   5.261   2.664   4.196  0.3303  0.9524 -0.3928
 2135SOL     OW 7260   0.917   3.790   1.935  0.0937 -0.7289 -0.1831
 2135SOL    HW1 7261   0.897   3.811   2.026 -1.9838 -0.6884 -0.5954
 2135SOL    HW2 7262   0.995   3.841   1.916 -0.0449  0.1025  1.2769
 2136SOL     OW 7263   4.523   4.048   4.055 -0.1099  0.0310 -0.4894
 2136SOL    HW1 7264   4.614   4.073   4.071 -0.4126 -0.1116  1.6488
 2136SOL    HW2 7265   4.496   3.999   4.133 -1.6890 -0.9289 -1.5627
 2137SOL     OW 7266   3.132   2.317   2.203 -0.6268 -0.5414 -0.4758
 2137SOL    HW1 7267   3.221   2.345   2.180  0.0529 -1.5029  0.8543
 2137SOL    HW2 7268   3.139   2.223   2.214 -1.3730 -0.4130  1.4513
 2138SOL     OW 7269   5.295   3.286   7.077 -0.0764  0.0918 -0.2819
 2138SOL    HW1 7270   5.377   3.335   7.074 -0.5861  0.9526 -0.8620
 2138SOL    HW2 7271   5.269   3.288   7.169 -0.3465  1.3876 -0.3635
 2139SOL     OW 7272   0.049   2.685   6.335 -0.1189 -0.5607 -0.4398
 2139SOL    HW1 7273   0.059   2.620   6.265 -0.3743 -0.6749 -0.3704
 2139SOL    HW2 7274  -0.037   2.667   6.373 -0.0341 -0.4185 -0.1762
 2140SOL     OW 7275   1.516   7.057   7.067 -0.7651 -0.3268 -0.1093
 2140SOL    HW1 7276   1.467   7.123   7.117  0.1619 -0.2009  0.6712
 2140SOL    HW2 7277   1.607   7.070   7.095 -0.1666 -0.0836 -2.0415
 2141SOL     OW 7278   5.389   3.185   4.912 -0.5553  0.3411 -0.3290
 2141SOL    HW1 7279   5.472   3.142   4.933 -0.3776  1.3528  1.1545
 2141SOL    HW2 7280   5.414   3.259   4.856 -0.4307  0.7139  0.2117
 2142SOL     OW 7281   3.250   5.786   7.276 -0.1597 -0.4541  0.2700
 2142SOL    HW1 7282   3.279   5.847   7.209  1.5258 -0.2404  1.1492
 2142SOL    HW2 7283   3.257   5.700   7.235  1.0253 -0.3401  0.2009
 2143SOL     OW 7284   1.500   7.907   3.677  0.0170  0.2515 -0.3613
 2143SOL    HW1 7285   1.478   7.969   3.747  0.6712 -0.2732  0.3160
 2143SOL    HW2 7286   1.592   7.922   3.658 -0.1312  0.3348 -1.0754
 2144SOL     OW 7287   2.373   6.386   0.340 -0.2169  0.0997 -0.4523
 2144SOL    HW1 7288   2.295   6.333   0.321  1.1812 -2.8183  1.1782
 2144SOL    HW2 7289   2.423   6.383   0.258 -0.7740  0.0628 -0.8030
 2145SOL     OW 7290   4.249   5.349   7.389  0.0367  0.3105 -0.1483
 2145SOL    HW1 7291   4.234   5.258   7.414 -1.2586  1.0860  2.1967
 2145SOL    HW2 7292   4.174   5.371   7.334 -1.8158  0.9655  2.4396
 2146SOL     OW 7293   6.817   4.059   2.364 -0.0190  0.2726  0.4140
 2146SOL    HW1 7294   6.814   3.984   2.423  1.3397 -0.6188 -0.5892
 2146SOL    HW2 7295   6.902   4.099   2.381 -0.4190  1.1388  0.3955
 2147SOL     OW 7296   0.236   5.815   2.821 -0.4187  0.1394  0.5547
 2147SOL    HW1 7297   0.190   5.891   2.858  0.5967  2.0645 -1.8259
 2147SOL    HW2 7298   0.202   5.809   2.731  1.1977 -0.7533 -0.0315
 2148SOL     OW 7299   7.687   4.348   6.353  0.5094  0.1160  0.1910
 2148SOL    HW1 7300   7.713   4.434   6.386  1.8905 -0.1458 -0.1377
 2148SOL    HW2 7301   7.665   4.298   6.431  0.5425  0.5008  0.4519
 2149SOL     OW 7302   6.777   6.647   2.634 -0.0026 -0.3938 -0.1112
 2149SOL    HW1 7303   6.799   6.579   2.697  0.2715  0.0903  0.3263
 2149SOL    HW2 7304   6.748   6.600   2.556  1.2765 -1.0387 -0.2190
 2150SOL     OW 7305   3.991   1.140   6.969  0.1066 -0.2995  0.1902
 2150SOL    HW1 7306   4.005   1.054   6.931 -1.5629 -0.4617 -0.1300
 2150SOL    HW2 7307   3.994   1.126   7.063 -0.1720 -0.7152  0.1394
 2151SOL     OW 7308   2.111   4.735   3.676  0.0600 -0.1264 -0.1078
 2151SOL    HW1 7309   2.206   4.725   3.684  0.2767  1.0714 -0.9346
 2151SOL    HW2 7310   2.076   4.648   3.694  1.1268 -0.0411  2.8661
 2152SOL     OW 7311   7.668   3.813   3.127 -0.2817  0.0725  0.5826
 2152SOL    HW1 7312   7.663   3.762   3.046  1.9074  0.4019  0.2022
 2152SOL    HW2 7313   7.750   3.785   3.168  0.5799  2.6399  0.7870
 2153SOL     OW 7314   0.725   7.401   4.860 -0.0645 -0.2049 -0.4429
 2153SOL    HW1 7315   0.682   7.335   4.914 -1.6111 -0.3660 -1.7879
 2153SOL    HW2 7316   0.784   7.447   4.920 -1.0030 -0.9920  1.1448
 2154SOL     OW 7317   5.206   5.362   5.944  0.7608 -0.2960  0.2747
 2154SOL    HW1 7318   5.254   5.415   5.879 -1.3808  0.3825 -0.8358
 2154SOL    HW2 7319   5.139   5.421   5.977  0.7507 -1.1838  1.9080
 2155SOL     OW 7320   7.487   4.405   6.998  0.3101  0.0810  0.3190
 2155SOL    HW1 7321   7.410   4.348   6.995 -0.8691  1.6277 -0.0826
 2155SOL    HW2 7322   7.556   4.354   6.956 -0.8805 -0.7847 -0.6527
 2156SOL     OW 7323   1.005   0.799   1.060 -0.1667  0.2440  0.8178
 2156SOL    HW1 7324   0.958   0.862   1.114  0.7554  0.5863  1.2574
 2156SOL    HW2 7325   1.072   0.851   1.015 -1.8779  0.2391 -1.9105
 2157SOL     OW 7326   3.373   7.041   3.812  0.1019 -0.0000  0.0590
 2157SOL    HW1 7327   3.341   7.100   3.744  0.1694 -1.5489 -1.3775
 2157SOL    HW2 7328   3.468   7.046   3.806  0.1264  0.6318  0.7703
 2158SOL     OW 7329   5.230   3.296   7.338 -0.9541 -0.4243 -0.2476
 2158SOL    HW1 7330   5.144   3.303   7.380 -0.7840 -2.6036  0.5658
 2158SOL    HW2 7331   5.280   3.370   7.373 -2.1857  0.3386 -0.0312
 2159SOL     OW 7332   6.585   2.427   6.731 -0.2351  0.0678 -0.5197
 2159SOL    HW1 7333   6.557   2.350   6.781  1.0729 -1.1479 -1.5644
 2159SOL    HW2 7334   6.503   2.470   6.707 -1.1846 -2.0918 -1.5192
 2160SOL     OW 7335   1.947   7.158   4.518  0.3296 -0.0675  0.0654
 2160SOL    HW1 7336   1.920   7.126   4.603  0.2550  0.9118  0.4271
 2160SOL    HW2 7337   1.983   7.082   4.473 -0.3723 -0.7640  0.6622
 2161SOL     OW 7338   0.893   4.230   1.173  0.3520  0.4655  0.9244
 2161SOL    HW1 7339   0.892   4.317   1.134  0.4897  0.7994  1.6363
 2161SOL    HW2 7340   0.966   4.233   1.235  0.3179 -0.1370  1.0019
 2162SOL     OW 7341   7.250   2.341   7.182  0.2178  0.2005 -0.5168
 2162SOL    HW1 7342   7.336   2.302   7.165 -0.7038 -1.0933 -2.7511
 2162SOL    HW2 7343   7.189   2.268   7.172 -1.3870  1.6726 -2.2302
 2163SOL     OW 7344   3.792   6.623   4.672 -0.5005  0.1132  0.1569
 2163SOL    HW1 7345   3.770   6.666   4.755  1.7910  1.4460  0.1447
 2163SOL    HW2 7346   3.847   6.549   4.697 -1.4115 -0.6734 -0.0899
 2164SOL     OW 7347   4.573   1.529   3.991 -0.6792 -0.0755 -0.7430
 2164SOL    HW1 7348   4.645   1.486   3.945 -0.2619  0.9217 -1.0755
 2164SOL    HW2 7349   4.544   1.466   4.057  0.3093 -0.6028 -0.7966
 2165SOL     OW 7350   0.322   3.197   5.067  0.1522  0.5766 -0.0098
 2165SOL    HW1 7351   0.287   3.180   4.980 -1.8903  1.0551  0.6710
 2165SOL    HW2 7352   0.389   3.130   5.080 -0.0556  0.0218 -1.6246
 2166SOL     OW 7353   7.794   0.009   4.887  0.1057  0.0117  0.4904
 2166SOL    HW1 7354   7.803  -0.036   4.803 -1.7095 -0.0865  0.3163
 2166SOL    HW2 7355   7.842   0.091   4.875  1.9931 -1.0462  0.2372
 2167SOL     OW 7356   2.149   5.002   6.409 -0.0896 -0.0962  0.4492
 2167SOL    HW1 7357   2.186   4.991   6.322 -2.2017  0.0426 -0.5042
 2167SOL    HW2 7358   2.226   5.002   6.467  1.2097 -3.0504 -1.0660
 2168SOL     OW 7359   5.923   2.245   4.357 -0.6274  0.3603 -0.1787
 2168SOL    HW1 7360   5.922   2.302   4.434 -1.8778 -0.3140  0.3461
 2168SOL    HW2 7361   5.891   2.300   4.286  1.9578  1.4407 -0.6276
 2169SOL     OW 7362   2.891   4.353   5.374 -0.1413 -0.5717  0.6672
 2169SOL    HW1 7363   2.874   4.447   5.362  0.0027 -0.3737  1.9196
 2169SOL    HW2 7364   2.957   4.333   5.308 -1.1894 -0.1255 -0.5633
 2170SOL     OW 7365   2.789   5.848   1.920 -0.8236 -0.2770 -0.6315
 2170SOL    HW1 7366   2.764   5.809   2.004 -0.2987  0.2247 -0.2355
 2170SOL    HW2 7367   2.726   5.918   1.906 -1.9128 -1.3724 -1.4561
 2171SOL     OW 7368   2.281   3.475   7.532  0.0818 -0.8826 -0.2348
 2171SOL    HW1 7369   2.227   3.443   7.460  0.5646 -0.3386 -0.8642
 2171SOL    HW2 7370   2.343   3.405   7.549 -1.2838 -1.8391  1.0302
 2172SOL     OW 7371   7.187   2.811   0.290 -0.0050 -0.2331 -0.0650
 2172SOL    HW1 7372   7.159   2.741   0.231  1.1670 -2.3002  1.6878
 2172SOL    HW2 7373   7.144   2.792   0.373 -0.1095  1.4991  0.3183
 2173SOL     OW 7374   6.466   6.797   7.615  0.2902 -0.3737  0.0144
 2173SOL    HW1 7375   6.386   6.751   7.640 -0.0262  0.2495  0.1755
 2173SOL    HW2 7376   6.436   6.866   7.556  0.5573  0.5751  0.9606
 2174SOL     OW 7377   6.033   6.554   2.360  0.1220 -0.0323  0.1349
 2174SOL    HW1 7378   5.962   6.561   2.423  0.1675 -0.5877  0.2489
 2174SOL    HW2 7379   6.096   6.496   2.401 -0.3345 -1.2805 -0.8694
 2175SOL     OW 7380   1.835   6.145   5.593  0.1183 -0.2278 -0.3963
 2175SOL    HW1 7381   1.863   6.157   5.503  0.0395  0.7980 -0.2966
 2175SOL    HW2 7382   1.778   6.220   5.611  0.3174 -0.2883  0.5762
 2176SOL     OW 7383   1.727   7.195   3.105 -0.2953 -0.1822  0.0174
 2176SOL    HW1 7384   1.669   7.246   3.161  0.3972  0.3114  0.2966
 2176SOL    HW2 7385   1.811   7.242   3.108 -0.5952  0.7145 -2.5543
 2177SOL     OW 7386   5.836   6.986   4.608  0.0549 -0.1826  0.1414
 2177SOL    HW1 7387   5.900   7.054   4.629  1.1524 -0.4651 -1.9823
 2177SOL    HW2 7388   5.889   6.914   4.574 -1.2598 -1.2767  0.3423
 2178SOL     OW 7389   6.189   5.818   5.694 -0.2852 -0.1434  0.2470
 2178SOL    HW1 7390   6.183   5.736   5.743 -2.2886 -1.4339 -1.9329
 2178SOL    HW2 7391   6.105   5.824   5.648  0.9903  1.5671 -2.0664
 2179SOL     OW 7392   3.833   1.754   2.625  0.7317  0.9351  0.2386
 2179SOL    HW1 7393   3.896   1.795   2.685  0.7155  0.4592  0.5869
 2179SOL    HW2 7394   3.875   1.671   2.599 -1.0061 -0.9184  2.8856
 2180SOL     OW 7395   3.941   2.164   6.833  0.1672  0.2167  0.6643
 2180SOL    HW1 7396   3.942   2.227   6.905 -0.0051 -0.3488  1.1588
 2180SOL    HW2 7397   3.971   2.082   6.871 -1.3252 -0.4622  0.4581
 2181SOL     OW 7398   7.331   3.497   2.901  0.1708  0.1814 -0.3792
 2181SOL    HW1 7399   7.408   3.443   2.886  0.1151  0.4789 -1.9891
 2181SOL    HW2 7400   7.345   3.536   2.987  1.3916 -0.4600 -0.2652
 2182SOL     OW 7401   0.390   2.206   5.676  0.3993 -0.0391  1.0211
 2182SOL    HW1 7402   0.388   2.237   5.766 -0.3869  0.4131  0.8606
 2182SOL    HW2 7403   0.386   2.286   5.623 -0.6930 -0.3450  0.6025
 2183SOL     OW 7404   4.108   2.019   1.695  0.2097 -0.4216 -0.0729
 2183SOL    HW1 7405   4.122   1.931   1.731 -0.3912 -0.7181 -0.5384
 2183SOL    HW2 7406   4.028   2.011   1.644  0.3968  0.2930 -0.4889
 2184SOL     OW 7407   5.665   2.180   5.263 -0.1023 -0.3131 -0.1466
 2184SOL    HW1 7408   5.667   2.273   5.286  0.5399 -0.1994 -0.6721
 2184SOL    HW2 7409   5.745   2.144   5.300 -0.4098 -0.6926  0.1669
 2185SOL     OW 7410   0.041   0.580   6.435 -0.0066 -0.3934  0.1418
 2185SOL    HW1 7411   0.008   0.669   6.424 -1.4061 -1.0581 -1.5472
 2185SOL    HW2 7412  -0.010   0.543   6.507 -0.8715 -0.4540 -0.4898
 2186SOL     OW 7413   6.658   5.203   5.748  0.0051  0.0704  0.4514
 2186SOL    HW1 7414   6.725   5.148   5.709  0.1543  0.4477  0.1729
 2186SOL    HW2 7415   6.614   5.244   5.674 -2.5221 -2.4193  0.4085
 2187SOL     OW 7416   7.028   1.526   3.752 -0.1874  0.0145  0.1689
 2187SOL    HW1 7417   7.096   1.469   3.717  0.2560 -0.0412  1.1000
 2187SOL    HW2 7418   6.947   1.476   3.741  0.2599 -1.0708  1.4831
 2188SOL     OW 7419   2.937   6.602   0.347 -0.3123 -0.0833 -0.3191
 2188SOL    HW1 7420   2.865   6.547   0.378 -0.9825  0.9929  0.0701
 2188SOL    HW2 7421   2.983   6.547   0.283 -0.5683 -1.3297  0.5430
 2189SOL     OW 7422   1.029   1.532   4.403 -0.0402 -0.4912  0.4320
 2189SOL    HW1 7423   1.100   1.549   4.465  0.4983 -0.1050 -0.2793
 2189SOL    HW2 7424   0.964   1.601   4.421 -0.0499 -0.5946  0.7997
 2190SOL     OW 7425   0.844   4.956   0.509  0.2844  0.3472 -0.3199
 2190SOL    HW1 7426   0.756   4.951   0.470 -0.5253 -0.2779  1.4914
 2190SOL    HW2 7427   0.890   4.879   0.476 -0.9228 -1.0598  1.1160
 2191SOL     OW 7428   4.573   0.266   0.764  0.0345 -0.0204 -0.2681
 2191SOL    HW1 7429   4.563   0.256   0.858  0.6248 -3.0914 -0.4250
 2191SOL    HW2 7430   4.501   0.215   0.726  1.7633 -1.7830 -1.3928
 2192SOL     OW 7431   5.070   1.642   5.586  0.4789  0.0485  0.0503
 2192SOL    HW1 7432   5.150   1.635   5.638  0.3184 -1.4709  0.1413
 2192SOL    HW2 7433   5.018   1.566   5.611 -0.2300  0.0600 -1.2777
 2193SOL     OW 7434   5.229   3.093   0.276  0.3072 -0.1346  0.0252
 2193SOL    HW1 7435   5.270   3.119   0.194  0.2976 -2.3263 -0.7351
 2193SOL    HW2 7436   5.216   2.999   0.268 -3.6608  0.1451  0.7193
 2194SOL     OW 7437   1.601   2.884   3.170 -0.3392  0.3906 -0.3520
 2194SOL    HW1 7438   1.543   2.906   3.243 -1.9371 -0.6751 -1.2512
 2194SOL    HW2 7439   1.686   2.920   3.196 -0.8920  0.2228  1.9428
 2195SOL     OW 7440   2.498   2.216   7.197  0.5143  0.2612 -0.2016
 2195SOL    HW1 7441   2.436   2.285   7.170  0.5720 -0.2506 -1.7400
 2195SOL    HW2 7442   2.515   2.235   7.289 -0.6400  1.4105 -0.1825
 2196SOL     OW 7443   4.149   3.266   1.529 -0.1207  0.1920 -0.7233
 2196SOL    HW1 7444   4.104   3.276   1.613  0.5945 -0.7919 -0.2062
 2196SOL    HW2 7445   4.095   3.204   1.480  0.1078 -0.1879 -0.5024
 2197SOL     OW 7446   6.078   1.743   7.992 -0.1000 -0.5941 -0.7178
 2197SOL    HW1 7447   6.088   1.708   7.903 -4.6189 -1.7268 -1.0217
 2197SOL    HW2 7448   6.127   1.681   8.047  1.9972 -0.4074 -2.2199
 2198SOL     OW 7449   5.117   7.189   7.227  0.2547 -0.1434  0.2851
 2198SOL    HW1 7450   5.087   7.146   7.147 -0.3144 -1.6756  1.2837
 2198SOL    HW2 7451   5.154   7.272   7.197 -0.2016 -0.5549 -1.5287
 2199SOL     OW 7452   4.113   7.947   6.698  0.8430 -0.1628  0.3967
 2199SOL    HW1 7453   4.058   7.942   6.620 -0.3783  1.0310  1.1426
 2199SOL    HW2 7454   4.141   7.856   6.713 -0.9247 -0.8244 -0.0062
 2200SOL     OW 7455   7.661   1.410   7.665  0.0245  0.2045  0.5851
 2200SOL    HW1 7456   7.742   1.456   7.642 -1.4202  2.1627 -0.8617
 2200SOL    HW2 7457   7.637   1.363   7.585 -2.0646  2.5105 -0.2620
 2201SOL     OW 7458   4.286   6.148   3.434 -0.3363 -0.0487 -0.0705
 2201SOL    HW1 7459   4.221   6.092   3.476  0.5687 -0.0700  1.3960
 2201SOL    HW2 7460   4.256   6.237   3.453  0.2226 -0.0540  0.9622
 2202SOL     OW 7461   2.862   3.401   0.375 -0.4555 -0.9247  0.5038
 2202SOL    HW1 7462   2.840   3.468   0.440 -1.1903 -1.3736  0.7244
 2202SOL    HW2 7463   2.937   3.355   0.412  0.0381 -0.2507  0.3653
 2203SOL     OW 7464   3.605   4.880   4.748  0.0501  0.0770  0.3125
 2203SOL    HW1 7465   3.656   4.895   4.669 -0.1991  0.9249  0.2981
 2203SOL    HW2 7466   3.621   4.958   4.802 -1.2522  0.3974  0.2831
 2204SOL     OW 7467   4.960   7.891   4.009  0.0119  0.3305  0.2268
 2204SOL    HW1 7468   4.954   7.934   3.924 -1.9701 -0.3115 -0.0095
 2204SOL    HW2 7469   4.997   7.957   4.067  0.5732  1.0680 -0.9208
 2205SOL     OW 7470   1.571   0.013   4.529  0.3182 -0.0427  0.7162
 2205SOL    HW1 7471   1.558   0.040   4.438  1.8887  1.4412  0.8924
 2205SOL    HW2 7472   1.525  -0.071   4.535 -0.2383  0.0539 -1.3035
 2206SOL     OW 7473   0.313   5.127   1.428 -0.0823 -0.2182 -0.3911
 2206SOL    HW1 7474   0.394   5.097   1.470 -1.3078  0.0841  2.3971
 2206SOL    HW2 7475   0.281   5.050   1.381  0.9323 -0.8395 -0.1130
 2207SOL     OW 7476   6.968   1.360   4.544  0.5069 -0.3106  0.0711
 2207SOL    HW1 7477   6.963   1.354   4.449 -0.4661 -1.0087  0.1522
 2207SOL    HW2 7478   7.055   1.395   4.561 -0.3786  2.7761 -1.1792
 2208SOL     OW 7479   2.685   6.115   1.898 -0.0460 -0.2810  0.2942
 2208SOL    HW1 7480   2.759   6.161   1.859 -1.0028  1.1640  0.0897
 2208SOL    HW2 7481   2.613   6.129   1.837 -0.4721 -1.7911  0.4118
 2209SOL     OW 7482   2.200   3.277   0.879  0.3444  0.4765  0.1450
 2209SOL    HW1 7483   2.283   3.314   0.849  0.0559  0.6316 -0.4818
 2209SOL    HW2 7484   2.137   3.349   0.869  0.6023  1.2083  3.0693
 2210SOL     OW 7485   1.686   4.629   2.894  0.5249 -0.3619  0.3125
 2210SOL    HW1 7486   1.611   4.678   2.863  0.6641 -1.0793 -1.2607
 2210SOL    HW2 7487   1.762   4.675   2.858  1.0173  1.2278  3.0824
 2211SOL     OW 7488   2.329   1.666   6.434 -0.9230  0.1448 -0.6703
 2211SOL    HW1 7489   2.372   1.735   6.484 -0.2072  1.1003 -2.5428
 2211SOL    HW2 7490   2.236   1.676   6.457 -0.5684  0.1808  0.8757
 2212SOL     OW 7491   0.625   0.098   1.359 -0.0273  0.2441 -0.3482
 2212SOL    HW1 7492   0.552   0.038   1.342  0.7071 -0.5244 -0.8535
 2212SOL    HW2 7493   0.599   0.179   1.316 -0.2160 -0.2893 -1.2797
 2213SOL     OW 7494   2.162   7.589   3.854 -0.6568 -0.3441  0.8807
 2213SOL    HW1 7495   2.082   7.543   3.828  0.5727 -2.6378  0.9364
 2213SOL    HW2 7496   2.224   7.520   3.877  2.5933  1.0562 -2.5219
 2214SOL     OW 7497   5.805   2.637   2.547  0.3267  0.1175  0.0991
 2214SOL    HW1 7498   5.711   2.621   2.554  0.3577  0.5225  1.9281
 2214SOL    HW2 7499   5.814   2.732   2.559  0.8869  0.2783 -1.3851
 2215SOL     OW 7500   2.462   5.955   1.548  0.2844 -0.1944 -0.3584
 2215SOL    HW1 7501   2.503   6.040   1.561  0.1585 -0.3846  1.7092
 2215SOL    HW2 7502   2.413   5.963   1.466 -0.3805  1.9778  0.1965
 2216SOL     OW 7503   2.813   5.239   5.005 -0.1864  0.3500 -0.3655
 2216SOL    HW1 7504   2.897   5.194   5.000 -0.2688  0.2511 -0.8358
 2216SOL    HW2 7505   2.813   5.300   4.931 -1.1137 -0.6603 -1.2141
 2217SOL     OW 7506   0.965   0.467   7.875 -0.1658 -0.2225  0.2493
 2217SOL    HW1 7507   0.920   0.472   7.790  0.8463  1.1231 -0.2289
 2217SOL    HW2 7508   0.907   0.412   7.929 -0.9335 -0.9290 -1.2277
 2218SOL     OW 7509   1.913   1.261   5.491 -0.6576 -0.2330  0.2924
 2218SOL    HW1 7510   2.005   1.274   5.469 -1.0718  1.5570 -0.4833
 2218SOL    HW2 7511   1.908   1.283   5.584 -0.4278  0.3001  0.1807
 2219SOL     OW 7512   1.108   3.595   0.826 -0.0483 -0.7190 -0.6918
 2219SOL    HW1 7513   1.032   3.641   0.790  0.3395 -0.7020 -1.5019
 2219SOL    HW2 7514   1.180   3.620   0.769  0.7602 -0.0226  0.5848
 2220SOL     OW 7515   3.108   1.133   6.372 -0.1069  0.7808 -0.2378
 2220SOL    HW1 7516   3.099   1.204   6.436  0.0852 -0.8639  1.7261
 2220SOL    HW2 7517   3.201   1.133   6.349  0.2433  0.1888  1.0390
 2221SOL     OW 7518   7.995   4.969   7.107  0.2680 -0.3309 -0.3308
 2221SOL    HW1 7519   7.925   4.917   7.068  0.4591  1.3806 -3.2242
 2221SOL    HW2 7520   8.010   5.040   7.044  2.4771  1.1388  1.6945
 2222SOL     OW 7521   7.207   2.183   5.563  0.5191 -0.3600  0.1842
 2222SOL    HW1 7522   7.195   2.278   5.566 -0.5073 -0.4846  0.5577
 2222SOL    HW2 7523   7.166   2.151   5.644  1.0198 -1.1121  0.1546
 2223SOL     OW 7524   7.732   4.873   0.418 -0.7313  0.2500  0.3759
 2223SOL    HW1 7525   7.768   4.818   0.349  0.1385  0.3222  0.7557
 2223SOL    HW2 7526   7.792   4.948   0.424 -0.3277 -0.1404  1.7248
 2224SOL     OW 7527   2.791   3.586   0.575  0.0561  0.1361  0.6413
 2224SOL    HW1 7528   2.716   3.539   0.611  0.1021  0.1724  0.7874
 2224SOL    HW2 7529   2.780   3.676   0.608  1.0841 -0.2381  2.0990
 2225SOL     OW 7530   4.541   1.079   3.352 -0.2410 -0.0113  0.0560
 2225SOL    HW1 7531   4.614   1.037   3.308 -0.3565  0.2131 -0.3612
 2225SOL    HW2 7532   4.539   1.168   3.315  0.1647  0.4529  1.1095
 2226SOL     OW 7533   5.178   3.373   6.869 -0.0122 -0.4366  0.0048
 2226SOL    HW1 7534   5.212   3.311   6.934 -0.7328 -1.1693 -0.3062
 2226SOL    HW2 7535   5.215   3.457   6.895  2.0468 -1.1813 -0.3093
 2227SOL     OW 7536   0.759   3.008   7.941 -0.2629  0.4042 -0.1181
 2227SOL    HW1 7537   0.850   2.986   7.919  0.2013  0.2492  1.7644
 2227SOL    HW2 7538   0.721   2.925   7.970 -1.1392  0.3975 -1.2208
 2228SOL     OW 7539   2.271   4.855   7.279 -0.0102  0.1005  0.4905
 2228SOL    HW1 7540   2.189   4.857   7.329  0.3479 -0.5437  1.1243
 2228SOL    HW2 7541   2.331   4.806   7.334  0.3814 -0.7021 -0.6021
 2229SOL     OW 7542   6.130   1.536   4.284  0.7060  0.0476 -0.1709
 2229SOL    HW1 7543   6.123   1.445   4.311 -0.8728  0.5108  1.1806
 2229SOL    HW2 7544   6.125   1.586   4.366 -0.8303  1.4133 -1.0291
 2230SOL     OW 7545   2.215   4.505   7.345  0.4122 -0.5055 -0.2852
 2230SOL    HW1 7546   2.120   4.498   7.335  0.5093  0.0026 -1.9794
 2230SOL    HW2 7547   2.228   4.592   7.383  0.2098 -0.3406 -0.5835
 2231SOL     OW 7548   4.918   2.790   1.430  0.0437 -0.2720 -0.3644
 2231SOL    HW1 7549   4.823   2.787   1.430  0.0127  0.5293 -0.7168
 2231SOL    HW2 7550   4.940   2.868   1.482  0.4979 -0.2375 -0.6027
 2232SOL     OW 7551   4.360   2.847   7.853  0.2364 -0.5301  0.0336
 2232SOL    HW1 7552   4.448   2.815   7.834  0.5721  1.1009 -1.5085
 2232SOL    HW2 7553   4.373   2.913   7.921  0.3114  0.0333 -0.5086
 2233SOL     OW 7554   2.800   5.077   3.765 -0.8977 -0.1980 -0.2377
 2233SOL    HW1 7555   2.836   5.063   3.852  0.2825 -1.8731 -0.9336
 2233SOL    HW2 7556   2.808   5.171   3.750 -0.5418  0.0147  1.2116
 2234SOL     OW 7557   3.103   5.149   1.632  0.3808  0.2833  0.4196
 2234SOL    HW1 7558   3.055   5.109   1.560  0.2044  0.9897  0.1296
 2234SOL    HW2 7559   3.194   5.121   1.620  0.8062  2.2368 -1.4579
 2235SOL     OW 7560   4.298   2.009   3.766 -0.0929  0.5403 -0.1843
 2235SOL    HW1 7561   4.386   2.035   3.796  0.8693 -1.9933 -0.5777
 2235SOL    HW2 7562   4.278   2.072   3.697  0.6930  2.1440  0.9656
 2236SOL     OW 7563   5.489   7.199   3.022  0.0588  0.4889  0.1080
 2236SOL    HW1 7564   5.402   7.201   3.062  0.0992 -0.3940  0.2649
 2236SOL    HW2 7565   5.472   7.217   2.929 -0.6507 -2.2093 -0.3790
 2237SOL     OW 7566   4.115   6.746   0.467  0.3834 -0.0207  0.4874
 2237SOL    HW1 7567   4.071   6.752   0.382  0.9181 -2.6158 -0.0434
 2237SOL    HW2 7568   4.068   6.809   0.522 -2.9692 -1.4497 -0.4801
 2238SOL     OW 7569   7.939   3.997   3.619 -0.0285 -0.4132  0.5214
 2238SOL    HW1 7570   8.005   3.935   3.649 -0.3613 -2.0373 -1.7613
 2238SOL    HW2 7571   7.857   3.947   3.622 -0.4899  0.2710 -0.3025
 2239SOL     OW 7572   1.872   4.676   0.089 -0.1538  0.5623 -0.5595
 2239SOL    HW1 7573   1.888   4.697   0.181  2.8475 -2.3370 -0.2268
 2239SOL    HW2 7574   1.783   4.641   0.088  0.8750 -2.6724  2.1115
 2240SOL     OW 7575   6.890   4.270   7.008 -0.4509 -0.3191 -0.4808
 2240SOL    HW1 7576   6.928   4.357   7.015 -1.2492  0.0022  0.0597
 2240SOL    HW2 7577   6.940   4.227   6.939  0.0878  0.4926 -0.6092
 2241SOL     OW 7578   5.935   7.810   7.397 -0.2591 -0.0409 -0.6945
 2241SOL    HW1 7579   5.918   7.900   7.424  0.8375 -0.5114  1.9179
 2241SOL    HW2 7580   6.022   7.812   7.358  1.1580 -0.3275  2.1726
 2242SOL     OW 7581   3.149   4.450   3.630  0.5588  0.4868  0.0051
 2242SOL    HW1 7582   3.076   4.507   3.606  0.6106  0.6040  0.1268
 2242SOL    HW2 7583   3.222   4.483   3.577  0.8910  1.2801  0.9257
 2243SOL     OW 7584   4.405   3.531   4.766 -0.1894  0.2348 -0.8248
 2243SOL    HW1 7585   4.458   3.525   4.686  2.7591 -0.5532  1.0464
 2243SOL    HW2 7586   4.423   3.449   4.812 -3.3555 -0.1971 -0.1457
 2244SOL     OW 7587   3.925   0.588   2.264  0.1427  0.2566  0.0542
 2244SOL    HW1 7588   3.852   0.561   2.208  0.2145 -0.1135  0.1400
 2244SOL    HW2 7589   3.920   0.531   2.340  1.2193 -0.5663 -0.4617
 2245SOL     OW 7590   0.637   6.114   4.831 -0.4749  0.0379  0.0743
 2245SOL    HW1 7591   0.566   6.076   4.884 -0.2469  0.1947  0.5004
 2245SOL    HW2 7592   0.717   6.083   4.874 -0.2867  0.8848  0.3347
 2246SOL     OW 7593   3.743   1.528   3.960  0.6424  0.2790  0.5544
 2246SOL    HW1 7594   3.703   1.591   4.020  0.5469  0.4377  0.3252
 2246SOL    HW2 7595   3.734   1.568   3.874 -0.9107 -0.7958  0.1862
 2247SOL     OW 7596   4.080   1.266   4.196  0.2758  0.1344  0.4241
 2247SOL    HW1 7597   4.055   1.304   4.112 -0.0855 -1.2363 -0.1135
 2247SOL    HW2 7598   4.001   1.223   4.228  0.8080 -0.6201  0.7486
 2248SOL     OW 7599   7.574   0.351   7.211 -0.3951  0.4746 -0.1071
 2248SOL    HW1 7600   7.497   0.365   7.156 -0.6781 -1.1316 -0.1664
 2248SOL    HW2 7601   7.540   0.312   7.292  0.2090  1.0959  0.4647
 2249SOL     OW 7602   7.732   5.779   2.100  0.3835 -0.5712  0.4527
 2249SOL    HW1 7603   7.766   5.852   2.151  1.5851 -2.1107  1.9516
 2249SOL    HW2 7604   7.732   5.812   2.010  3.3550  0.4531  0.7072
 2250SOL     OW 7605   5.684   6.303   3.780  0.4340 -0.3486  0.3756
 2250SOL    HW1 7606   5.590   6.314   3.766  0.4531 -0.8365 -0.1856
 2250SOL    HW2 7607   5.692   6.275   3.871 -0.2612 -3.4292 -0.3952
 2251SOL     OW 7608   0.499   4.995   1.103  0.6682 -0.0215 -0.5017
 2251SOL    HW1 7609   0.519   4.936   1.031  0.4192  1.3334 -1.7369
 2251SOL    HW2 7610   0.407   5.018   1.091  1.0212  1.4284 -0.7335
 2252SOL     OW 7611   2.271   6.563   3.991 -0.2099  0.2634 -0.3779
 2252SOL    HW1 7612   2.350   6.540   3.943  0.9966  0.8683  1.2096
 2252SOL    HW2 7613   2.239   6.643   3.949 -0.0383 -0.0377 -1.0854
 2253SOL     OW 7614   1.354   7.183   3.118  0.4382  0.0143  0.7180
 2253SOL    HW1 7615   1.315   7.096   3.105 -0.0493  0.4260 -0.8701
 2253SOL    HW2 7616   1.437   7.180   3.069  0.1851  0.5776  0.2341
 2254SOL     OW 7617   3.547   4.382   1.362 -0.3168 -0.0426  0.2313
 2254SOL    HW1 7618   3.578   4.472   1.371  0.4351 -0.3565  0.9138
 2254SOL    HW2 7619   3.565   4.359   1.271 -0.2477  0.4056  0.1305
 2255SOL     OW 7620   7.179   1.935   5.930  0.6570 -0.1864  0.2491
 2255SOL    HW1 7621   7.272   1.949   5.945  0.4129 -1.0477  3.1981
 2255SOL    HW2 7622   7.138   2.017   5.959  0.4426  0.2118 -1.0909
 2256SOL     OW 7623   6.656   4.176   4.334  0.0779  0.5225  0.0377
 2256SOL    HW1 7624   6.698   4.246   4.285  0.1640  0.3711 -0.1062
 2256SOL    HW2 7625   6.653   4.208   4.424 -1.7517  1.5915 -0.3482
 2257SOL     OW 7626   2.577   7.923   0.661  0.1319  0.0813  0.1784
 2257SOL    HW1 7627   2.665   7.943   0.694 -0.0613 -0.8597  1.3443
 2257SOL    HW2 7628   2.523   7.995   0.691  0.4782  0.6034 -0.4381
 2258SOL     OW 7629   5.088   5.913   2.009  0.1636  0.1477  0.3054
 2258SOL    HW1 7630   5.006   5.959   2.024  0.4328  0.7997 -0.1896
 2258SOL    HW2 7631   5.115   5.883   2.096  0.1523  1.2158  0.6889
 2259SOL     OW 7632   5.877   0.601   3.083 -0.0009 -1.0541  0.3774
 2259SOL    HW1 7633   5.927   0.639   3.010  0.5465 -2.2468  0.1180
 2259SOL    HW2 7634   5.837   0.522   3.047  0.0325 -1.5008  1.2937
 2260SOL     OW 7635   3.253   5.917   3.147  0.2225 -0.3967  0.6891
 2260SOL    HW1 7636   3.178   5.945   3.095  1.5695  1.2310 -0.4875
 2260SOL    HW2 7637   3.241   5.823   3.159  0.1244 -1.0051 -3.1403
 2261SOL     OW 7638   2.726   3.855   0.629 -0.6048 -0.4409  0.3968
 2261SOL    HW1 7639   2.822   3.854   0.627 -0.6166 -0.6000 -1.1205
 2261SOL    HW2 7640   2.703   3.934   0.679  0.3070 -0.0481  0.2070
 2262SOL     OW 7641   6.982   1.347   1.611 -0.2551  0.0251 -0.1358
 2262SOL    HW1 7642   7.034   1.414   1.656 -0.6233  1.5289 -1.8479
 2262SOL    HW2 7643   6.924   1.396   1.553 -1.7684 -1.7253 -0.2054
 2263SOL     OW 7644   1.908   2.505   0.379  0.5733 -0.1656 -0.5861
 2263SOL    HW1 7645   1.961   2.536   0.306 -0.1085  0.8676 -0.6617
 2263SOL    HW2 7646   1.972   2.477   0.445  1.1983  0.0797 -1.0810
 2264SOL     OW 7647   7.573   2.537   3.854  0.5924 -0.0905 -0.1413
 2264SOL    HW1 7648   7.503   2.590   3.891 -2.3809 -3.3326 -0.6119
 2264SOL    HW2 7649   7.600   2.584   3.775 -3.1856 -0.0303 -1.5835
 2265SOL     OW 7650   5.821   7.112   1.489  0.2658 -0.0503  0.5122
 2265SOL    HW1 7651   5.787   7.146   1.407  0.7853 -0.6759  0.0196
 2265SOL    HW2 7652   5.904   7.158   1.501 -0.2172  0.6699  1.1387
 2266SOL     OW 7653   2.740   1.656   7.542  0.1372 -0.4873 -0.4807
 2266SOL    HW1 7654   2.726   1.562   7.554 -0.2878 -0.1393  2.5957
 2266SOL    HW2 7655   2.682   1.697   7.607  2.2970  1.7579  0.1581
 2267SOL     OW 7656   2.578   5.738   3.007 -0.1121  0.3097 -0.6629
 2267SOL    HW1 7657   2.667   5.747   3.042 -0.7924 -0.0043  1.2903
 2267SOL    HW2 7658   2.585   5.669   2.942  1.0356  0.1448 -0.3977
 2268SOL     OW 7659   4.509   2.859   3.682 -0.0122 -0.3091  0.3628
 2268SOL    HW1 7660   4.482   2.948   3.662  1.9747  0.4654  0.9591
 2268SOL    HW2 7661   4.604   2.859   3.671  0.3186 -1.7446  2.5634
 2269SOL     OW 7662   4.089   2.452   1.386  0.1718  0.4103  0.3583
 2269SOL    HW1 7663   4.106   2.458   1.480  2.1542  0.8083  0.0046
 2269SOL    HW2 7664   4.154   2.390   1.354  0.8578  1.7935 -1.0458
 2270SOL     OW 7665   2.993   7.828   3.164  0.8758  0.2466  0.1292
 2270SOL    HW1 7666   3.050   7.877   3.224  1.4092  1.8047 -1.5580
 2270SOL    HW2 7667   3.053   7.793   3.098  0.0382  1.0251 -1.0839
 2271SOL     OW 7668   5.265   7.280   4.031  0.1243  0.1366 -0.2457
 2271SOL    HW1 7669   5.269   7.367   4.072 -1.4815 -0.5816  1.5998
 2271SOL    HW2 7670   5.181   7.280   3.985 -0.1153 -0.5745  0.1799
 2272SOL     OW 7671   4.403   6.781   1.500  0.4873 -0.0311 -0.0202
 2272SOL    HW1 7672   4.413   6.874   1.518  2.0214 -0.1961  0.1821
 2272SOL    HW2 7673   4.309   6.767   1.492  0.2451  1.5529 -0.1911
 2273SOL     OW 7674   0.807   0.230   0.983  0.0331 -0.3683 -0.2531
 2273SOL    HW1 7675   0.776   0.140   0.992  1.7309 -0.8647  1.1312
 2273SOL    HW2 7676   0.787   0.271   1.067 -0.5444  0.5100 -0.8024
 2274SOL     OW 7677   1.716   4.569   6.200  0.6817 -0.2971  0.0090
 2274SOL    HW1 7678   1.740   4.511   6.272 -0.3639 -0.7194  0.0441
 2274SOL    HW2 7679   1.623   4.588   6.215  0.6895  0.3714 -0.7049
 2275SOL     OW 7680   3.342   7.132   0.793  0.1009  0.2236 -0.1926
 2275SOL    HW1 7681   3.392   7.188   0.853  0.0472  0.7754 -0.6551
 2275SOL    HW2 7682   3.374   7.156   0.706 -0.6973  0.3141 -0.4700
 2276SOL     OW 7683   3.491   2.654   6.678  0.2818 -0.0975 -0.1972
 2276SOL    HW1 7684   3.463   2.590   6.743  1.2059 -1.4026 -1.0251
 2276SOL    HW2 7685   3.586   2.664   6.693  0.7349 -1.2684 -1.9965
 2277SOL     OW 7686   7.455   3.658   7.408 -0.3905 -0.0752 -0.1365
 2277SOL    HW1 7687   7.493   3.659   7.320  1.1834 -0.4420  0.5120
 2277SOL    HW2 7688   7.398   3.735   7.410  0.4606  0.6143 -1.0989
 2278SOL     OW 7689   1.722   3.864   6.033  0.2173 -0.0140 -0.4046
 2278SOL    HW1 7690   1.643   3.823   5.998 -0.6768  1.3547 -0.0921
 2278SOL    HW2 7691   1.710   3.958   6.015  2.0282  0.1681 -0.8298
 2279SOL     OW 7692   1.462   0.461   5.367 -0.3015 -0.1856  0.1660
 2279SOL    HW1 7693   1.458   0.494   5.277 -0.1049 -2.1812 -0.6098
 2279SOL    HW2 7694   1.382   0.494   5.408 -0.8598 -0.0262 -1.0147
 2280SOL     OW 7695   3.440   3.338   0.112  0.1407 -0.4284 -1.0330
 2280SOL    HW1 7696   3.423   3.325   0.206  0.5086  0.5805 -0.8190
 2280SOL    HW2 7697   3.474   3.253   0.083  2.1111 -0.1468  0.2294
 2281SOL     OW 7698   1.743   3.322   7.466 -0.5744 -0.6365 -0.1410
 2281SOL    HW1 7699   1.813   3.266   7.502 -0.0403 -0.1803 -0.4550
 2281SOL    HW2 7700   1.717   3.378   7.539  0.4394  0.2202 -0.4196
 2282SOL     OW 7701   5.938   3.991   0.582 -0.1625  0.7434  0.3744
 2282SOL    HW1 7702   5.993   4.046   0.527 -0.5184 -0.3859 -1.2204
 2282SOL    HW2 7703   5.849   4.022   0.565 -0.4384 -0.7156 -1.1275
 2283SOL     OW 7704   0.947   6.321   0.754  0.2948 -0.1308 -0.3139
 2283SOL    HW1 7705   0.921   6.402   0.798  2.0752  0.0118  0.5737
 2283SOL    HW2 7706   0.892   6.317   0.676 -1.5257  0.6633  0.8682
 2284SOL     OW 7707   7.877   4.067   3.177 -0.4345  0.5150 -0.0634
 2284SOL    HW1 7708   7.966   4.067   3.142 -0.5206 -1.2770 -0.3951
 2284SOL    HW2 7709   7.833   3.995   3.131 -1.4596  0.0617  1.5436
 2285SOL     OW 7710   4.420   3.302   5.276 -0.3670  0.3185 -0.0364
 2285SOL    HW1 7711   4.466   3.372   5.322  0.1068  1.2138 -1.7611
 2285SOL    HW2 7712   4.490   3.244   5.244 -0.6168  0.1597 -0.3020
 2286SOL     OW 7713   3.224   7.663   5.086  0.2638  0.3025 -0.2235
 2286SOL    HW1 7714   3.209   7.746   5.132  0.8601  0.8398 -0.9864
 2286SOL    HW2 7715   3.276   7.686   5.010  0.0050 -0.7072 -0.7278
 2287SOL     OW 7716   2.010   3.308   6.355  0.0179  1.1557  0.5319
 2287SOL    HW1 7717   2.002   3.317   6.450 -1.9437 -0.5380  0.5953
 2287SOL    HW2 7718   1.951   3.375   6.320 -1.9667 -0.4062  0.6634
 2288SOL     OW 7719   1.877   0.930   5.482  0.4702  0.6051 -0.5991
 2288SOL    HW1 7720   1.898   1.017   5.447  1.0041  0.2030 -1.2833
 2288SOL    HW2 7721   1.791   0.909   5.445  0.5332  0.6520 -0.7691
 2289SOL     OW 7722   5.035   1.950   0.458 -0.1221  0.3986  0.0411
 2289SOL    HW1 7723   5.019   1.943   0.552  0.2417  0.3667  0.1008
 2289SOL    HW2 7724   5.042   1.859   0.429 -0.2646  0.4077 -0.0221
 2290SOL     OW 7725   2.022   1.372   4.104  0.6214 -0.0327  0.9542
 2290SOL    HW1 7726   2.075   1.296   4.126  0.4353 -0.9566 -1.5290
 2290SOL    HW2 7727   2.079   1.428   4.052 -0.3877 -0.4263 -0.6511
 2291SOL     OW 7728   7.130   4.812   5.408  0.3414 -0.0413 -0.4050
 2291SOL    HW1 7729   7.202   4.873   5.424 -1.3181  1.6392  1.1500
 2291SOL    HW2 7730   7.086   4.846   5.329  0.9016 -0.7521 -1.0377
 2292SOL     OW 7731   4.551   4.611   3.094 -0.2993  0.0912  0.0582
 2292SOL    HW1 7732   4.535   4.655   3.177 -2.4055  0.1710 -0.3261
 2292SOL    HW2 7733   4.496   4.659   3.031 -1.9099 -2.3785 -0.5679
 2293SOL     OW 7734   2.074   6.145   3.683 -0.3428  0.0683  0.3033
 2293SOL    HW1 7735   2.056   6.237   3.704 -1.0485 -0.1203  0.5508
 2293SOL    HW2 7736   2.164   6.131   3.712 -0.7199  0.2826  1.6772
 2294SOL     OW 7737   7.524   7.489   0.717 -0.1092 -0.0047 -0.2933
 2294SOL    HW1 7738   7.589   7.506   0.649 -0.5460 -0.3176 -0.7932
 2294SOL    HW2 7739   7.529   7.395   0.733 -0.4718 -0.0396 -0.3741
 2295SOL     OW 7740   4.468   0.895   0.109  0.3119  0.4715  0.1501
 2295SOL    HW1 7741   4.490   0.944   0.189  1.1044 -2.0754  1.6134
 2295SOL    HW2 7742   4.381   0.859   0.126  0.6225 -0.3524  0.0122
 2296SOL     OW 7743   1.136   3.322   0.908  0.3761  0.0022 -0.2434
 2296SOL    HW1 7744   1.108   3.413   0.896  0.6266 -0.0650 -1.4658
 2296SOL    HW2 7745   1.072   3.286   0.970 -1.0196  0.4375 -1.3661
 2297SOL     OW 7746   1.677   7.263   2.355  0.0608 -0.0771  0.5242
 2297SOL    HW1 7747   1.677   7.216   2.439 -1.2965  0.3448  0.7908
 2297SOL    HW2 7748   1.770   7.280   2.337  0.3864 -0.1984  1.9281
 2298SOL     OW 7749   4.152   5.518   6.260 -0.5416 -0.3865  0.5783
 2298SOL    HW1 7750   4.065   5.558   6.255 -0.6159 -0.5326  0.6733
 2298SOL    HW2 7751   4.166   5.504   6.354 -0.1633  0.1835  0.6093
 2299SOL     OW 7752   2.384   0.673   2.746 -0.1689  0.1981 -0.5757
 2299SOL    HW1 7753   2.364   0.711   2.661 -1.5578  1.3705  0.2299
 2299SOL    HW2 7754   2.365   0.579   2.735  0.2856  0.2201 -1.7171
 2300SOL     OW 7755   2.855   4.098   2.351 -0.3020  0.1631  0.0114
 2300SOL    HW1 7756   2.947   4.090   2.374 -0.0547  0.4329 -0.8448
 2300SOL    HW2 7757   2.809   4.046   2.417  0.5601 -1.1566 -0.4003
 2301SOL     OW 7758   6.496   1.091   4.257  0.1563 -0.1472 -0.3277
 2301SOL    HW1 7759   6.451   1.107   4.174 -0.9998  2.1098  0.6545
 2301SOL    HW2 7760   6.575   1.144   4.252 -0.9252  1.6674  0.7483
 2302SOL     OW 7761   0.485   3.459   4.432  0.0152 -0.4384 -0.4211
 2302SOL    HW1 7762   0.434   3.440   4.510 -0.6316  0.2121 -0.6738
 2302SOL    HW2 7763   0.568   3.413   4.445 -0.1758 -0.5230  0.5392
 2303SOL     OW 7764   4.677   4.570   0.151  0.5128  0.2009 -0.4993
 2303SOL    HW1 7765   4.592   4.557   0.110  0.3830  2.1291 -0.9207
 2303SOL    HW2 7766   4.710   4.482   0.167 -1.9293 -0.6112  0.4550
 2304SOL     OW 7767   5.203   0.464   6.817  0.4355  0.0206  0.1512
 2304SOL    HW1 7768   5.257   0.495   6.890  2.0674 -1.1258 -0.4953
 2304SOL    HW2 7769   5.184   0.543   6.766 -0.4799  0.7929  1.6037
 2305SOL     OW 7770   3.462   8.003   2.484 -0.3551 -0.0693 -0.2363
 2305SOL    HW1 7771   3.442   7.909   2.482  1.0529 -0.3746 -0.6707
 2305SOL    HW2 7772   3.419   8.038   2.406 -0.5914 -0.4195 -0.2666
 2306SOL     OW 7773   0.830   1.793   3.995  0.3022 -0.1947 -0.6295
 2306SOL    HW1 7774   0.878   1.714   3.970  1.4327  0.8408 -1.8589
 2306SOL    HW2 7775   0.841   1.799   4.090 -0.9064 -2.1799 -0.3029
 2307SOL     OW 7776   5.668   4.532   2.681 -0.1721  0.0480  0.0162
 2307SOL    HW1 7777   5.680   4.619   2.719  0.1336  0.2669 -0.5579
 2307SOL    HW2 7778   5.676   4.546   2.587  1.3345 -0.8128 -0.0300
 2308SOL     OW 7779   1.977   6.902   2.665 -0.0610  0.1382 -0.0289
 2308SOL    HW1 7780   1.891   6.879   2.700 -0.9755  1.6280 -1.1412
 2308SOL    HW2 7781   2.011   6.968   2.725 -0.7399  1.2170 -0.7873
 2309SOL     OW 7782   2.861   2.709   1.640 -0.2934  0.4073 -0.0483
 2309SOL    HW1 7783   2.850   2.742   1.729  0.6353 -0.2269  0.3120
 2309SOL    HW2 7784   2.788   2.748   1.591 -1.2969  0.1134  1.1666
 2310SOL     OW 7785   5.628   0.514   3.848  0.3388 -0.5867  0.5547
 2310SOL    HW1 7786   5.644   0.608   3.858 -1.9020 -0.0280 -0.4597
 2310SOL    HW2 7787   5.657   0.494   3.759 -3.2459  0.2499 -0.9757
 2311SOL     OW 7788   4.036   0.775   6.951  0.5650 -0.0533  0.0384
 2311SOL    HW1 7789   4.120   0.810   6.981  0.6267  0.4598 -0.6952
 2311SOL    HW2 7790   4.040   0.783   6.856  0.4522 -1.8292 -0.1446
 2312SOL     OW 7791   0.673   2.167   2.987  0.1671 -0.2424  0.2417
 2312SOL    HW1 7792   0.655   2.161   2.893 -1.6483  1.7447  0.3893
 2312SOL    HW2 7793   0.593   2.202   3.025  1.1781 -0.1198  2.4324
 2313SOL     OW 7794   6.998   1.309   0.863 -0.3453  0.4617 -0.2960
 2313SOL    HW1 7795   6.945   1.387   0.882  0.3608  0.8825  0.0238
 2313SOL    HW2 7796   7.087   1.344   0.850 -0.5367  0.0644 -3.2289
 2314SOL     OW 7797   4.030   3.785   2.606  0.2506 -0.3127 -0.1873
 2314SOL    HW1 7798   4.112   3.799   2.654 -0.2827 -2.0498  1.3668
 2314SOL    HW2 7799   4.021   3.690   2.601 -2.8051 -0.2850  1.8761
 2315SOL     OW 7800   4.130   6.550   1.916 -0.2276  0.0891 -0.1503
 2315SOL    HW1 7801   4.226   6.556   1.916 -0.1230 -1.2340 -0.5664
 2315SOL    HW2 7802   4.112   6.464   1.879 -1.4869 -1.1063  2.9118
 2316SOL     OW 7803   4.990   0.923   7.321 -0.2392  0.4277 -0.2274
 2316SOL    HW1 7804   4.937   0.918   7.241 -0.1904 -1.2781 -0.1934
 2316SOL    HW2 7805   5.022   1.013   7.323 -1.5745  0.9575 -1.2600
 2317SOL     OW 7806   7.350   7.250   6.858  0.5629 -0.6331  0.0095
 2317SOL    HW1 7807   7.279   7.230   6.797  0.2298 -0.8623  0.4662
 2317SOL    HW2 7808   7.305   7.269   6.941  1.0354 -0.7628  0.2966
 2318SOL     OW 7809   2.315   2.417   6.049  0.0558  0.4507 -0.1570
 2318SOL    HW1 7810   2.292   2.455   5.964 -0.0352  0.9652  0.0917
 2318SOL    HW2 7811   2.368   2.341   6.028  0.2021  0.6928 -0.6704
 2319SOL     OW 7812   6.792   5.567   5.105 -0.2749 -0.0471 -0.3524
 2319SOL    HW1 7813   6.854   5.618   5.053 -0.7410  0.0023 -0.8618
 2319SOL    HW2 7814   6.723   5.629   5.127  0.1992  0.0905  0.8288
 2320SOL     OW 7815   5.401   1.871   1.869  0.4349  0.0334  0.3242
 2320SOL    HW1 7816   5.332   1.916   1.917  0.1983  0.0567 -0.0366
 2320SOL    HW2 7817   5.368   1.782   1.857  1.2508 -0.4964  1.7626
 2321SOL     OW 7818   3.733   5.887   4.618 -0.1041 -0.2390  0.1514
 2321SOL    HW1 7819   3.821   5.923   4.618  0.6464 -1.9284  1.0862
 2321SOL    HW2 7820   3.728   5.834   4.538 -1.0028  1.4179 -0.9322
 2322SOL     OW 7821   6.634   3.567   6.884  0.2564 -0.0515  0.2536
 2322SOL    HW1 7822   6.729   3.558   6.883  0.2195 -0.5586  0.7029
 2322SOL    HW2 7823   6.616   3.626   6.956  0.1541 -1.1213  1.1307
 2323SOL     OW 7824   2.776   4.783   0.248  0.1055  0.4967 -0.0113
 2323SOL    HW1 7825   2.685   4.810   0.237  0.4255  1.0861 -1.3966
 2323SOL    HW2 7826   2.794   4.729   0.172  0.6700 -0.3491  0.7066
 2324SOL     OW 7827   2.537   5.708   5.337 -0.0835  0.0384  0.0876
 2324SOL    HW1 7828   2.481   5.634   5.312 -0.7178  0.8373 -0.9213
 2324SOL    HW2 7829   2.566   5.746   5.254 -1.2658  2.0198  0.5058
 2325SOL     OW 7830   6.200   6.737   2.754 -0.4208 -0.2682 -0.0214
 2325SOL    HW1 7831   6.117   6.782   2.735 -0.1157  0.3357  0.0469
 2325SOL    HW2 7832   6.263   6.777   2.694  0.1352  0.3122  0.9223
 2326SOL     OW 7833   3.048   6.499   2.020 -0.4524  0.0361  0.1080
 2326SOL    HW1 7834   3.082   6.429   2.076 -0.4307 -0.1789 -0.1710
 2326SOL    HW2 7835   2.991   6.454   1.957  0.3149  0.1332 -0.6869
 2327SOL     OW 7836   4.236   3.977   5.042  0.0215  0.1262 -0.0467
 2327SOL    HW1 7837   4.290   3.904   5.013 -1.0576  0.1566 -2.3716
 2327SOL    HW2 7838   4.285   4.056   5.018 -1.1057  0.1599 -2.5268
 2328SOL     OW 7839   1.047   2.934   2.856 -0.3148  0.3547 -0.1352
 2328SOL    HW1 7840   1.017   3.023   2.876  0.4445  1.0771 -1.9817
 2328SOL    HW2 7841   1.013   2.917   2.768 -0.1325 -1.0406  0.0507
 2329SOL     OW 7842   7.033   1.000   6.955 -0.3464  0.4928  0.4260
 2329SOL    HW1 7843   6.981   1.074   6.986 -0.8426 -0.3680  1.7888
 2329SOL    HW2 7844   6.972   0.949   6.902 -0.7897 -0.2315  1.5784
 2330SOL     OW 7845   1.628   1.277   6.747  0.0241 -0.2405 -0.1450
 2330SOL    HW1 7846   1.612   1.242   6.659 -2.0983 -0.6663  0.3502
 2330SOL    HW2 7847   1.546   1.263   6.793  0.9460  0.4112  1.7835
 2331SOL     OW 7848   3.989   0.123   6.859 -0.3999  0.0292 -0.5646
 2331SOL    HW1 7849   3.943   0.068   6.922 -0.4749 -0.3542 -0.9441
 2331SOL    HW2 7850   4.044   0.062   6.809 -0.6804  0.2555 -1.1659
 2332SOL     OW 7851   0.412   6.175   2.190 -0.0519  0.7732 -0.1316
 2332SOL    HW1 7852   0.431   6.164   2.097  0.1013  0.9156 -0.1178
 2332SOL    HW2 7853   0.452   6.259   2.213  0.0355  0.6718  0.0959
 2333SOL     OW 7854   4.825   2.099   3.180 -0.3825 -0.3193 -0.0640
 2333SOL    HW1 7855   4.787   2.146   3.255 -0.3817  0.2889 -0.4409
 2333SOL    HW2 7856   4.761   2.110   3.110 -1.6189 -2.9984  0.5119
 2334SOL     OW 7857   4.832   4.611   1.156  0.3829 -0.3080  0.1466
 2334SOL    HW1 7858   4.786   4.666   1.219  0.2912 -1.8030  1.4356
 2334SOL    HW2 7859   4.913   4.586   1.200  2.2339  1.7367 -1.8285
 2335SOL     OW 7860   3.615   1.480   6.914 -0.6554 -0.2640 -0.1274
 2335SOL    HW1 7861   3.624   1.530   6.833 -0.5082 -0.8263 -0.4587
 2335SOL    HW2 7862   3.577   1.543   6.976  1.3605  0.8469  0.0454
 2336SOL     OW 7863   4.695   4.480   6.788  0.0164 -0.6228 -0.4139
 2336SOL    HW1 7864   4.782   4.460   6.754 -0.1242  0.0465 -1.1965
 2336SOL    HW2 7865   4.689   4.576   6.781 -0.9862 -0.7111 -0.8734
 2337SOL     OW 7866   3.697   7.027   5.989 -0.6377 -0.1123 -0.2825
 2337SOL    HW1 7867   3.602   7.032   5.996 -0.6124 -0.5924  0.6973
 2337SOL    HW2 7868   3.714   7.015   5.896 -1.6912 -2.3749 -0.2532
 2338SOL     OW 7869   5.077   6.435   1.665 -0.1544 -0.1955 -0.6166
 2338SOL    HW1 7870   5.125   6.357   1.639  0.4153  0.1672 -0.6749
 2338SOL    HW2 7871   5.135   6.508   1.641 -0.0789  0.1889  0.6346
 2339SOL     OW 7872   3.092   3.676   0.332  0.2105 -0.2022 -0.0644
 2339SOL    HW1 7873   3.060   3.758   0.369 -0.2365  0.4765 -1.8740
 2339SOL    HW2 7874   3.062   3.677   0.241  0.9257 -1.9833 -0.3563
 2340SOL     OW 7875   7.616   6.278   3.824  0.2161  0.0463 -0.0062
 2340SOL    HW1 7876   7.618   6.348   3.889  0.5259 -0.8396  0.9684
 2340SOL    HW2 7877   7.698   6.230   3.837 -1.3719 -2.4532  1.6139
 2341SOL     OW 7878   7.514   0.597   4.415 -0.1805 -0.0231 -0.2752
 2341SOL    HW1 7879   7.514   0.689   4.390 -1.6607 -0.2252 -1.1486
 2341SOL    HW2 7880   7.436   0.587   4.469  1.4807 -0.2073  2.2607
 2342SOL     OW 7881   2.228   4.231   4.354  0.8381 -0.1284 -0.1786
 2342SOL    HW1 7882   2.283   4.163   4.315  1.1701 -0.2713  0.5261
 2342SOL    HW2 7883   2.138   4.199   4.343  0.9523 -0.3260 -0.5218
 2343SOL     OW 7884   3.543   6.606   7.727  0.4909  0.0909  0.2656
 2343SOL    HW1 7885   3.478   6.676   7.731  1.0442  0.6247  0.0779
 2343SOL    HW2 7886   3.497   6.533   7.686 -0.7420 -0.3904  2.3352
 2344SOL     OW 7887   0.492   3.405   0.411  0.1056  0.3342 -0.1860
 2344SOL    HW1 7888   0.471   3.356   0.332  1.5276  0.4508 -0.6714
 2344SOL    HW2 7889   0.588   3.412   0.410  0.1538  0.3896  1.5198
 2345SOL     OW 7890   2.538   6.328   5.335 -0.1458 -0.4504 -0.5999
 2345SOL    HW1 7891   2.633   6.332   5.322  0.1757 -2.5999  0.5775
 2345SOL    HW2 7892   2.502   6.342   5.247  1.3013 -0.7441 -1.2794
 2346SOL     OW 7893   1.546   5.612   3.777 -0.1772 -0.0061 -0.1489
 2346SOL    HW1 7894   1.522   5.548   3.844 -0.0033 -0.4555 -0.5128
 2346SOL    HW2 7895   1.488   5.593   3.704  0.8384 -0.6766 -0.7955
 2347SOL     OW 7896   7.779   5.747   7.435  0.2060  0.2894 -0.2517
 2347SOL    HW1 7897   7.861   5.723   7.391  0.2835 -0.0839  0.0886
 2347SOL    HW2 7898   7.719   5.676   7.414 -0.0775  0.6314 -0.6140
 2348SOL     OW 7899   5.863   3.337   7.122  0.1261 -0.2906  0.5844
 2348SOL    HW1 7900   5.875   3.405   7.188  0.3587 -0.4161  0.6753
 2348SOL    HW2 7901   5.937   3.277   7.136  0.5342  0.0087 -0.1951
 2349SOL     OW 7902   0.304   2.688   4.915  0.7592 -0.0725  0.4812
 2349SOL    HW1 7903   0.254   2.738   4.979  0.5881 -0.9211  1.0237
 2349SOL    HW2 7904   0.284   2.596   4.934  1.2695 -0.3675 -0.3226
 2350SOL     OW 7905   5.250   6.239   0.763 -0.0813 -0.0252 -0.1040
 2350SOL    HW1 7906   5.297   6.284   0.693  0.2967 -0.6136 -0.2303
 2350SOL    HW2 7907   5.183   6.302   0.791  0.3086  0.5341 -0.4176
 2351SOL     OW 7908   2.373   1.477   4.966  0.6277  0.6427  0.3752
 2351SOL    HW1 7909   2.337   1.535   5.034 -1.9520 -0.2252 -0.1380
 2351SOL    HW2 7910   2.413   1.536   4.902  1.3318  1.5833  1.6322
 2352SOL     OW 7911   0.162   3.429   4.414  0.0459  0.1771  0.6878
 2352SOL    HW1 7912   0.212   3.438   4.333  1.0109 -0.4706  1.1953
 2352SOL    HW2 7913   0.099   3.359   4.395  0.2929 -0.0004  0.5094
 2353SOL     OW 7914   4.105   5.358   4.434 -0.0271 -0.2474  0.1682
 2353SOL    HW1 7915   4.162   5.402   4.372  0.1070 -1.0886 -0.3216
 2353SOL    HW2 7916   4.117   5.264   4.416  0.9067 -0.5921  2.2394
 2354SOL     OW 7917   1.526   7.866   5.471 -0.7741 -0.8431 -0.2988
 2354SOL    HW1 7918   1.534   7.821   5.387  0.9752 -2.0861  0.4615
 2354SOL    HW2 7919   1.559   7.803   5.535 -0.9449  0.4982  1.1760
 2355SOL     OW 7920   4.108   5.493   3.463  0.0497 -0.2075  0.5403
 2355SOL    HW1 7921   4.196   5.526   3.448 -0.0122  0.5972  1.8286
 2355SOL    HW2 7922   4.099   5.492   3.558 -1.1612 -0.7589  0.4353
 2356SOL     OW 7923   2.283   7.939   3.075 -0.3858  0.1142 -0.0126
 2356SOL    HW1 7924   2.281   8.034   3.085 -0.4716  0.1333 -0.2049
 2356SOL    HW2 7925   2.375   7.916   3.089 -0.8141 -0.1215  3.0918
 2357SOL     OW 7926   1.017   5.895   4.329 -0.2961  0.7014 -0.2293
 2357SOL    HW1 7927   1.021   5.956   4.403 -1.3246  0.7564 -0.2133
 2357SOL    HW2 7928   1.108   5.888   4.300  0.5722 -1.1694  2.5403
 2358SOL     OW 7929   3.655   2.097   6.285 -0.4622  0.2773 -0.0123
 2358SOL    HW1 7930   3.707   2.017   6.276  0.5094  1.0856 -2.2064
 2358SOL    HW2 7931   3.605   2.084   6.366  0.7995 -1.8754  0.4985
 2359SOL     OW 7932   7.821   0.390   2.828  0.8744  0.2223 -0.0936
 2359SOL    HW1 7933   7.914   0.365   2.833  0.9277  0.6090  1.2624
 2359SOL    HW2 7934   7.775   0.317   2.869  0.4600 -0.4369 -1.6646
 2360SOL     OW 7935   3.318   2.284   5.828 -0.4742  0.3329 -0.0552
 2360SOL    HW1 7936   3.399   2.236   5.846 -0.8322 -1.2832 -2.3353
 2360SOL    HW2 7937   3.280   2.300   5.914  1.5282 -0.1776  0.9831
 2361SOL     OW 7938   6.866   0.566   1.980  0.4567  0.2230  0.1069
 2361SOL    HW1 7939   6.952   0.605   1.994  0.4930  0.3087 -0.3239
 2361SOL    HW2 7940   6.804   0.633   2.009  0.5235  0.5022 -0.3808
 2362SOL     OW 7941   1.995   0.589   7.180 -0.5075  0.5412 -0.3783
 2362SOL    HW1 7942   2.030   0.577   7.269  0.9110  0.5412 -0.9075
 2362SOL    HW2 7943   1.918   0.645   7.192 -1.1302 -0.5553  0.9830
 2363SOL     OW 7944   6.835   6.468   2.379 -0.1516  0.1040 -0.0051
 2363SOL    HW1 7945   6.913   6.413   2.388 -0.0632  0.3175  0.5572
 2363SOL    HW2 7946   6.769   6.424   2.432 -0.2767  0.1758 -0.1031
 2364SOL     OW 7947   1.563   6.811   1.713 -0.3336  0.0313 -0.3529
 2364SOL    HW1 7948   1.553   6.905   1.703 -3.1147  0.2216  2.5370
 2364SOL    HW2 7949   1.488   6.774   1.666 -0.1470 -0.6132 -0.1479
 2365SOL     OW 7950   6.656   7.053   3.848  0.4919 -0.1860 -0.5083
 2365SOL    HW1 7951   6.672   7.050   3.754  1.3533 -1.2693 -0.3595
 2365SOL    HW2 7952   6.651   6.961   3.874  1.5548  0.0650  0.6962
 2366SOL     OW 7953   4.730   5.232   7.487 -0.2384  0.7007  0.5994
 2366SOL    HW1 7954   4.762   5.158   7.538 -0.4440 -0.0285 -0.3047
 2366SOL    HW2 7955   4.642   5.206   7.460  0.2487  0.5954 -1.0020
 2367SOL     OW 7956   3.164   4.199   1.356 -0.1727  0.1228 -0.2017
 2367SOL    HW1 7957   3.169   4.142   1.280 -1.2121 -0.6543  0.2906
 2367SOL    HW2 7958   3.128   4.144   1.426 -0.3284  1.1255  0.5375
 2368SOL     OW 7959   4.789   0.609   7.074  0.3799  0.3365  0.1984
 2368SOL    HW1 7960   4.702   0.646   7.054  0.4144  1.8257  2.4442
 2368SOL    HW2 7961   4.844   0.637   7.001 -0.6326  0.9303 -0.3682
 2369SOL     OW 7962   7.932   7.852   6.499  0.1312  0.3685  0.5825
 2369SOL    HW1 7963   8.018   7.818   6.524 -0.2604 -2.7543 -1.6707
 2369SOL    HW2 7964   7.881   7.774   6.478 -2.7088  2.2049  0.0802
 2370SOL     OW 7965   6.127   7.524   3.521  0.1485 -0.9244  0.4347
 2370SOL    HW1 7966   6.175   7.442   3.529  1.1347 -0.3187  1.0027
 2370SOL    HW2 7967   6.074   7.530   3.600 -1.9468 -2.2075 -0.7668
 2371SOL     OW 7968   0.038   1.823   1.922 -0.1294  0.0518 -0.2679
 2371SOL    HW1 7969   0.112   1.836   1.862  0.0030 -0.7713 -0.2979
 2371SOL    HW2 7970   0.079   1.821   2.009  0.2372 -2.6830 -0.4194
 2372SOL     OW 7971   2.518   4.305   4.435 -0.1545  0.0800  0.4569
 2372SOL    HW1 7972   2.492   4.216   4.459 -1.1714  0.5330  1.0888
 2372SOL    HW2 7973   2.598   4.294   4.383 -0.5023 -1.2223  0.1812
 2373SOL     OW 7974   7.353   1.942   2.573  0.0046 -0.4285  0.4680
 2373SOL    HW1 7975   7.278   1.891   2.603  0.0953 -0.6194  0.3724
 2373SOL    HW2 7976   7.413   1.877   2.537  0.8237 -0.4554  1.7846
 2374SOL     OW 7977   2.650   4.476   2.998 -0.1656 -0.3627  0.1583
 2374SOL    HW1 7978   2.631   4.397   3.048 -1.0818 -0.5275 -0.4062
 2374SOL    HW2 7979   2.640   4.547   3.060  0.1264 -0.6589  0.5447
 2375SOL     OW 7980   1.327   2.684   3.293  0.0145 -0.5467 -0.2405
 2375SOL    HW1 7981   1.283   2.599   3.296 -1.3617  0.1171 -0.5649
 2375SOL    HW2 7982   1.337   2.702   3.199 -0.7774  0.1570 -0.2029
 2376SOL     OW 7983   6.148   5.467   1.634  0.3966 -0.1901  0.5012
 2376SOL    HW1 7984   6.140   5.403   1.563  0.5703  0.1990  0.1275
 2376SOL    HW2 7985   6.067   5.518   1.631 -0.5997 -1.5865  2.0026
 2377SOL     OW 7986   1.917   4.191   7.165  0.1407  0.1507  0.1896
 2377SOL    HW1 7987   1.899   4.280   7.197 -0.2530 -0.4604  1.7898
 2377SOL    HW2 7988   1.943   4.143   7.244 -2.4068 -1.8633 -0.0488
 2378SOL     OW 7989   3.101   7.124   5.595 -0.4413  0.0004  0.5585
 2378SOL    HW1 7990   3.047   7.051   5.625 -1.2298  0.3474 -0.0018
 2378SOL    HW2 7991   3.117   7.176   5.675 -0.3114 -0.4952  0.8597
 2379SOL     OW 7992   1.060   7.970   6.596 -0.2944  0.2787 -0.1076
 2379SOL    HW1 7993   1.021   7.917   6.526 -1.1109 -0.7888  1.1052
 2379SOL    HW2 7994   1.153   7.973   6.574 -0.6026  0.3783 -1.4924
 2380SOL     OW 7995   0.394   0.801   7.380 -0.2529  0.0508  0.3839
 2380SOL    HW1 7996   0.345   0.728   7.342 -0.2313 -1.3203  2.7384
 2380SOL    HW2 7997   0.482   0.766   7.394 -0.3560  0.3149  1.9467
 2381SOL     OW 7998   3.812   6.431   3.725 -0.3182 -0.1983 -0.4155
 2381SOL    HW1 7999   3.721   6.445   3.700 -0.2534 -0.4495 -0.7976
 2381SOL    HW2 8000   3.819   6.336   3.740 -0.2282 -0.1220  0.0492
 2382SOL     OW 8001   1.387   3.824   6.141 -0.0792  0.0646 -0.3078
 2382SOL    HW1 8002   1.302   3.782   6.124  1.1028 -2.2112 -0.9493
 2382SOL    HW2 8003   1.451   3.763   6.106  1.9252  1.0148  1.5195
 2383SOL     OW 8004   5.726   4.936   0.617 -0.5969  0.1421 -0.2172
 2383SOL    HW1 8005   5.737   4.847   0.582  0.1050  0.0675  0.1518
 2383SOL    HW2 8006   5.680   4.984   0.548  1.3811  0.2048 -1.5923
 2384SOL     OW 8007   1.757   4.981   6.840  0.2154  0.3127  0.2344
 2384SOL    HW1 8008   1.698   5.029   6.780 -0.6019  0.8203  1.4031
 2384SOL    HW2 8009   1.838   5.031   6.839  0.2095  0.3165 -0.4490
 2385SOL     OW 8010   6.762   7.507   5.933 -0.6087  0.0076 -0.3435
 2385SOL    HW1 8011   6.676   7.537   5.964 -0.5094 -0.1819  0.1105
 2385SOL    HW2 8012   6.771   7.419   5.969  0.0627  0.2784  0.1572
 2386SOL     OW 8013   7.149   4.305   4.531  0.4859 -0.1992 -0.3265
 2386SOL    HW1 8014   7.138   4.290   4.625  0.1396 -0.0252 -0.3378
 2386SOL    HW2 8015   7.177   4.396   4.525  0.3017 -0.1465 -0.4024
 2387SOL     OW 8016   3.787   2.080   0.691  0.4589 -0.2495 -0.4349
 2387SOL    HW1 8017   3.864   2.135   0.678 -0.9381  1.7172 -0.8521
 2387SOL    HW2 8018   3.750   2.109   0.774 -0.1634 -0.7628 -0.5223
 2388SOL     OW 8019   0.642   3.775   4.725  0.2773  0.4017  0.5157
 2388SOL    HW1 8020   0.595   3.827   4.790  0.8009  1.4789  0.0718
 2388SOL    HW2 8021   0.603   3.800   4.641  0.8327  0.4180  0.2563
 2389SOL     OW 8022   4.398   6.081   6.334  0.0001  0.0458 -0.5073
 2389SOL    HW1 8023   4.409   5.994   6.296  3.2604  0.0861  0.0242
 2389SOL    HW2 8024   4.375   6.064   6.425  1.5305 -0.3676 -0.1612
 2390SOL     OW 8025   4.381   2.097   6.353  0.1860  0.3936  0.0725
 2390SOL    HW1 8026   4.472   2.114   6.376 -0.2103  0.3453  1.8779
 2390SOL    HW2 8027   4.366   2.006   6.377 -0.1930  0.2169 -0.7829
 2391SOL     OW 8028   7.734   3.474   6.975 -0.4157  0.1017 -0.1226
 2391SOL    HW1 8029   7.673   3.447   6.906  1.2362 -1.2522 -1.1374
 2391SOL    HW2 8030   7.771   3.557   6.943  0.0794 -0.3400 -0.7248
 2392SOL     OW 8031   6.173   2.518   7.143  0.1286  0.6949 -0.6561
 2392SOL    HW1 8032   6.104   2.536   7.079  1.5031  2.8570 -1.6400
 2392SOL    HW2 8033   6.170   2.593   7.204 -0.6025 -0.9042  1.4003
 2393SOL     OW 8034   1.045   1.887   0.075  0.2388 -0.7087  0.5117
 2393SOL    HW1 8035   1.002   1.878  -0.009  0.4058  1.4712  0.1166
 2393SOL    HW2 8036   0.984   1.848   0.138 -2.3561  1.9929 -0.0488
 2394SOL     OW 8037   3.009   3.746   7.263 -0.2114  0.1863 -0.2947
 2394SOL    HW1 8038   2.981   3.667   7.310 -0.4955 -0.2200 -1.1180
 2394SOL    HW2 8039   3.035   3.807   7.332 -1.4888 -0.0538  0.4409
 2395SOL     OW 8040   2.398   1.948   3.510  0.7931 -0.6576 -0.0695
 2395SOL    HW1 8041   2.481   1.900   3.504  0.7511 -0.6936 -0.3759
 2395SOL    HW2 8042   2.344   1.912   3.439  1.0389  0.3608 -0.7961
 2396SOL     OW 8043   7.879   4.780   1.977  0.0667 -0.2188  0.0378
 2396SOL    HW1 8044   7.957   4.768   1.923 -0.8254 -0.7074 -1.1596
 2396SOL    HW2 8045   7.829   4.849   1.934 -0.8817 -0.9336 -0.0368
 2397SOL     OW 8046   3.937   5.133   5.328  0.0804 -0.2322  0.0118
 2397SOL    HW1 8047   3.906   5.195   5.261 -0.5965 -0.6444 -0.0687
 2397SOL    HW2 8048   3.999   5.183   5.381 -0.7364  0.6307  0.1776
 2398SOL     OW 8049   3.491   4.174   7.074 -0.3444 -0.4265 -0.0202
 2398SOL    HW1 8050   3.397   4.178   7.093 -0.0283  0.4163  1.5256
 2398SOL    HW2 8051   3.508   4.081   7.058 -1.4856 -0.5406 -0.6394
 2399SOL     OW 8052   6.250   7.066   0.437  0.4609  0.1062 -0.6441
 2399SOL    HW1 8053   6.305   7.144   0.438 -1.1588  1.3841  2.6400
 2399SOL    HW2 8054   6.168   7.095   0.398  1.0535 -1.0609 -2.9338
 2400SOL     OW 8055   5.257   6.549   5.913  0.4663  0.6673  0.1883
 2400SOL    HW1 8056   5.185   6.501   5.953  0.2060 -0.0060 -1.0487
 2400SOL    HW2 8057   5.336   6.502   5.941  0.2811  0.1326 -0.1723
 2401SOL     OW 8058   6.762   3.493   4.854 -0.2082  0.4430 -0.2961
 2401SOL    HW1 8059   6.762   3.495   4.950 -3.0068  1.2756 -0.2375
 2401SOL    HW2 8060   6.839   3.544   4.829  0.4676  0.3597  1.4840
 2402SOL     OW 8061   7.446   5.973   3.452 -0.4024 -0.0082  0.2306
 2402SOL    HW1 8062   7.440   5.909   3.381 -0.0957  0.2538 -0.0307
 2402SOL    HW2 8063   7.355   5.999   3.469 -0.4474  0.1746 -0.2873
 2403SOL     OW 8064   6.557   1.918   0.186 -0.1276 -0.0077 -0.0826
 2403SOL    HW1 8065   6.470   1.905   0.225  0.0206  0.4221  0.3868
 2403SOL    HW2 8066   6.597   1.831   0.188 -0.6138 -0.2502 -0.4760
 2404SOL     OW 8067   3.413   0.417   6.235 -0.2532 -0.4344 -0.2557
 2404SOL    HW1 8068   3.327   0.448   6.265 -0.1566  0.0578 -0.4902
 2404SOL    HW2 8069   3.458   0.391   6.315 -0.1122  0.5834  0.0018
 2405SOL     OW 8070   2.093   2.746   3.818 -0.3257  0.2937 -0.7407
 2405SOL    HW1 8071   2.153   2.757   3.744 -0.9997 -0.5198 -1.4258
 2405SOL    HW2 8072   2.019   2.696   3.783 -1.7781  1.8709 -0.1284
 2406SOL     OW 8073   2.234   4.980   4.837 -0.1875 -0.0314 -0.4611
 2406SOL    HW1 8074   2.241   4.884   4.835  0.0442 -0.0448  0.4897
 2406SOL    HW2 8075   2.304   5.010   4.779  0.6582 -0.4192  0.3293
 2407SOL     OW 8076   5.252   2.188   1.817 -0.2427  0.1320 -0.6392
 2407SOL    HW1 8077   5.236   2.168   1.724 -0.0698 -1.5803 -0.3351
 2407SOL    HW2 8078   5.222   2.110   1.863  0.2923  0.7020  0.7024
 2408SOL     OW 8079   5.784   1.592   4.914 -0.1961 -0.1008  0.4008
 2408SOL    HW1 8080   5.731   1.658   4.870  1.8936  0.6261 -1.1830
 2408SOL    HW2 8081   5.761   1.510   4.870 -1.8652 -0.2803  1.5165
 2409SOL     OW 8082   4.727   7.620   7.255  0.1700  0.1903 -0.3688
 2409SOL    HW1 8083   4.744   7.705   7.216  2.3798  1.0427  2.1146
 2409SOL    HW2 8084   4.637   7.625   7.287  0.2079  1.5454 -0.4395
 2410SOL     OW 8085   5.829   0.344   2.220 -0.4645 -0.1227  0.1905
 2410SOL    HW1 8086   5.891   0.355   2.291 -0.9080 -1.1581  0.7754
 2410SOL    HW2 8087   5.839   0.422   2.165  1.7974 -0.5538 -0.0986
 2411SOL     OW 8088   5.107   3.841   0.356 -0.1374 -0.1129  0.0133
 2411SOL    HW1 8089   5.116   3.804   0.269  0.0523 -0.8920  0.3511
 2411SOL    HW2 8090   5.172   3.795   0.409 -0.2739  0.3188  0.5726
 2412SOL     OW 8091   0.375   7.238   2.115 -0.0001  0.2503  0.4901
 2412SOL    HW1 8092   0.391   7.160   2.168 -0.9446 -0.8675 -0.8278
 2412SOL    HW2 8093   0.322   7.295   2.171  2.4862  1.0058  2.3069
 2413SOL     OW 8094   7.130   5.010   6.535  0.1218 -0.5673 -0.5373
 2413SOL    HW1 8095   7.104   5.092   6.577  1.7812  0.3078 -1.1036
 2413SOL    HW2 8096   7.167   4.957   6.606  0.0517 -0.3737 -0.3574
 2414SOL     OW 8097   4.958   5.174   3.794 -0.4231  0.1572 -0.2872
 2414SOL    HW1 8098   5.017   5.100   3.812 -2.2011 -1.3645 -0.4509
 2414SOL    HW2 8099   5.011   5.233   3.739  0.5629 -1.7790 -1.5483
 2415SOL     OW 8100   7.358   0.436   2.693 -0.3755  0.2886  0.0638
 2415SOL    HW1 8101   7.432   0.378   2.672 -0.6140 -0.0224  0.0878
 2415SOL    HW2 8102   7.291   0.413   2.630 -1.6313 -1.6310  1.9796
 2416SOL     OW 8103   4.294   2.044   4.781 -0.3047 -0.5996  0.2907
 2416SOL    HW1 8104   4.353   2.110   4.817 -1.5178  0.1316  0.9736
 2416SOL    HW2 8105   4.316   2.042   4.687 -0.0623  0.5921  0.2997
 2417SOL     OW 8106   2.841   3.617   5.837  0.2403  0.0060 -0.7389
 2417SOL    HW1 8107   2.805   3.559   5.904 -1.8948  0.6050 -1.2657
 2417SOL    HW2 8108   2.859   3.699   5.884 -0.0614  0.0155 -0.6330
 2418SOL     OW 8109   4.913   0.868   4.809  0.0181  0.1014  0.9066
 2418SOL    HW1 8110   4.939   0.846   4.719 -2.3959 -1.0840  0.4069
 2418SOL    HW2 8111   4.930   0.788   4.859  1.0148  0.6394  1.4514
 2419SOL     OW 8112   0.720   2.764   0.044  0.4273 -0.5332  0.0546
 2419SOL    HW1 8113   0.753   2.691   0.097  0.2520 -0.7627 -0.1455
 2419SOL    HW2 8114   0.656   2.723  -0.015 -1.2330  0.1071  1.3398
 2420SOL     OW 8115   2.532   5.066   0.528 -0.2126  0.4610  0.5476
 2420SOL    HW1 8116   2.578   5.137   0.482 -0.6125  0.6176  0.3804
 2420SOL    HW2 8117   2.601   5.005   0.554  0.1794  1.0982  1.0307
 2421SOL     OW 8118   2.940   7.490   4.177 -0.5293 -0.0865  0.5351
 2421SOL    HW1 8119   2.913   7.434   4.105  2.2633  0.5327 -1.1529
 2421SOL    HW2 8120   2.907   7.446   4.255 -0.1228 -3.0817 -0.8446
 2422SOL     OW 8121   1.393   2.120   6.195 -0.1629 -0.2003  0.2046
 2422SOL    HW1 8122   1.393   2.170   6.114 -0.4551  1.1342  0.9785
 2422SOL    HW2 8123   1.324   2.055   6.183 -0.7933  0.5410 -0.3042
 2423SOL     OW 8124   0.868   1.403   6.620 -0.3748 -0.1090 -0.3995
 2423SOL    HW1 8125   0.845   1.348   6.545  0.7688 -1.0012 -0.1206
 2423SOL    HW2 8126   0.843   1.491   6.593 -1.6631 -0.6536 -1.1067
 2424SOL     OW 8127   2.933   5.540   5.754 -0.1163 -0.0763  0.3183
 2424SOL    HW1 8128   2.889   5.516   5.672 -0.4930 -0.6257  0.6790
 2424SOL    HW2 8129   2.984   5.463   5.777 -0.9617 -0.3762  1.2370
 2425SOL     OW 8130   4.153   3.653   5.103 -0.6909  0.6739  0.2414
 2425SOL    HW1 8131   4.184   3.562   5.102 -0.3406  0.7222  2.5770
 2425SOL    HW2 8132   4.190   3.691   5.024  2.5919 -0.1387  1.2363
 2426SOL     OW 8133   5.141   1.253   6.715  0.3908 -0.4824  0.5047
 2426SOL    HW1 8134   5.088   1.333   6.724  0.3604 -0.4692  0.2407
 2426SOL    HW2 8135   5.156   1.246   6.620 -0.3859 -1.2923  0.4330
 2427SOL     OW 8136   3.847   7.366   0.465 -0.3422  0.2467  0.2693
 2427SOL    HW1 8137   3.901   7.376   0.387 -2.2648  0.1810 -1.1167
 2427SOL    HW2 8138   3.812   7.277   0.460  0.5837 -0.2645  1.9640
 2428SOL     OW 8139   0.089   3.237   6.312 -0.1080 -0.4892 -0.6347
 2428SOL    HW1 8140   0.112   3.225   6.404 -0.3059  0.6236 -0.4268
 2428SOL    HW2 8141   0.085   3.148   6.277 -1.2985 -1.0187  0.7283
 2429SOL     OW 8142   0.864   6.251   2.026  0.1504 -0.1427  0.4404
 2429SOL    HW1 8143   0.885   6.178   1.967 -0.8680 -1.1177  1.2542
 2429SOL    HW2 8144   0.793   6.297   1.983  0.1636 -0.1881  0.3697
 2430SOL     OW 8145   2.963   6.282   6.792  0.0096 -0.2596  0.4377
 2430SOL    HW1 8146   2.951   6.237   6.708 -0.0725 -0.0575  0.3398
 2430SOL    HW2 8147   2.886   6.339   6.799  0.7042  0.7653 -0.0171
 2431SOL     OW 8148   1.029   7.240   6.890  0.0967 -0.5446  0.1709
 2431SOL    HW1 8149   0.967   7.256   6.819 -1.6192  1.4356  1.9850
 2431SOL    HW2 8150   0.982   7.183   6.951  1.4082 -1.8982 -0.0060
 2432SOL     OW 8151   5.379   6.375   0.267 -0.6351 -0.6829  0.4333
 2432SOL    HW1 8152   5.353   6.369   0.176  0.4353 -3.0530  0.2097
 2432SOL    HW2 8153   5.475   6.366   0.266 -0.4988  0.3262  1.7116
 2433SOL     OW 8154   4.273   6.429   4.491 -0.1955  0.3915 -0.1441
 2433SOL    HW1 8155   4.315   6.458   4.410 -0.7249 -0.2929 -0.6806
 2433SOL    HW2 8156   4.314   6.344   4.510 -0.2865  0.4113  0.1468
 2434SOL     OW 8157   5.875   5.401   6.278 -0.1234  0.0824  0.0104
 2434SOL    HW1 8158   5.875   5.361   6.191 -0.3407 -0.6612  0.3462
 2434SOL    HW2 8159   5.847   5.491   6.263 -3.0088 -0.7873 -0.3703
 2435SOL     OW 8160   4.710   4.594   1.497 -0.5231 -0.3423  0.1483
 2435SOL    HW1 8161   4.776   4.543   1.545  0.7051  0.1468 -0.9541
 2435SOL    HW2 8162   4.752   4.678   1.480 -1.8699  0.4110  0.3998
 2436SOL     OW 8163   2.607   2.361   5.685  0.2207 -0.2221  0.2385
 2436SOL    HW1 8164   2.611   2.438   5.742 -0.0756  0.0022 -0.0363
 2436SOL    HW2 8165   2.618   2.397   5.597  0.5779 -0.5533  0.1432
 2437SOL     OW 8166   8.001   2.712   7.860  0.4409 -0.1038  0.3236
 2437SOL    HW1 8167   7.985   2.629   7.905 -1.0740 -0.1753 -0.2834
 2437SOL    HW2 8168   7.929   2.769   7.889  0.1566  0.2509 -1.0361
 2438SOL     OW 8169   7.723   5.785   6.088  0.3931  0.3102  0.7285
 2438SOL    HW1 8170   7.633   5.779   6.057  0.5977  0.9911 -0.0220
 2438SOL    HW2 8171   7.730   5.873   6.124  1.0227  0.6090 -0.0960
 2439SOL     OW 8172   3.464   3.380   7.505 -0.2855  0.5741 -0.4873
 2439SOL    HW1 8173   3.402   3.448   7.533 -2.3132 -0.5929 -1.8397
 2439SOL    HW2 8174   3.422   3.298   7.531  1.3100 -0.2420 -0.3703
 2440SOL     OW 8175   0.558   7.813   3.654 -0.2357  0.1390 -0.0743
 2440SOL    HW1 8176   0.514   7.789   3.735 -1.1866  0.2906 -0.5416
 2440SOL    HW2 8177   0.608   7.891   3.677 -0.4344  0.1370  0.3793
 2441SOL     OW 8178   7.418   7.898   7.690 -0.1602 -0.3408 -0.2008
 2441SOL    HW1 8179   7.424   7.811   7.651 -0.0196 -0.4688  0.1075
 2441SOL    HW2 8180   7.330   7.928   7.665 -0.8658 -1.2552  1.0995
 2442SOL     OW 8181   4.327   6.085   4.264  0.1721  0.3426  0.0580
 2442SOL    HW1 8182   4.357   6.153   4.205 -0.3021  0.4825 -0.0313
 2442SOL    HW2 8183   4.332   6.124   4.351  0.8546  0.1419  0.1139
 2443SOL     OW 8184   4.526   3.896   0.942  0.4177 -0.3632  0.7672
 2443SOL    HW1 8185   4.454   3.859   0.891  1.3714  0.6356 -1.4453
 2443SOL    HW2 8186   4.561   3.822   0.991  1.0510 -2.0695 -2.0284
 2444SOL     OW 8187   1.983   2.316   3.606  0.2576  0.4501  0.3182
 2444SOL    HW1 8188   1.909   2.318   3.546 -0.1777  2.0709  0.8512
 2444SOL    HW2 8189   1.953   2.262   3.680  0.5424 -0.9570 -0.5572
 2445SOL     OW 8190   7.848   7.594   5.075  0.1168  0.2546 -0.0282
 2445SOL    HW1 8191   7.903   7.633   5.143 -0.2650 -1.1564  1.1321
 2445SOL    HW2 8192   7.762   7.632   5.089 -0.3041 -1.0832  1.2329
 2446SOL     OW 8193   0.394   3.423   2.731  0.0588 -0.3488  0.2280
 2446SOL    HW1 8194   0.341   3.413   2.652  0.7839  2.2956 -0.6608
 2446SOL    HW2 8195   0.353   3.496   2.778  1.0283 -0.3651  1.1292
 2447SOL     OW 8196   2.815   7.928   1.097  0.4463 -0.4237 -0.4274
 2447SOL    HW1 8197   2.730   7.893   1.073 -0.3769  0.3509  1.1963
 2447SOL    HW2 8198   2.870   7.851   1.112 -1.2054 -1.1594  2.6403
 2448SOL     OW 8199   0.233   6.156   1.724 -0.0743  0.6489 -0.4203
 2448SOL    HW1 8200   0.292   6.141   1.798 -0.0214  0.3593 -0.5222
 2448SOL    HW2 8201   0.288   6.149   1.646 -0.3631 -0.2494 -0.5494
 2449SOL     OW 8202   7.768   4.789   2.921  0.0620  0.1860  0.9188
 2449SOL    HW1 8203   7.713   4.779   2.998  0.8994  1.7892  1.7590
 2449SOL    HW2 8204   7.784   4.883   2.914 -0.5090  0.1700 -1.5916
 2450SOL     OW 8205   1.609   1.662   4.057 -0.3664  0.2440 -0.9144
 2450SOL    HW1 8206   1.538   1.692   4.000 -0.8626  2.0112  0.5627
 2450SOL    HW2 8207   1.687   1.669   4.002 -0.8929  1.4534 -1.5449
 2451SOL     OW 8208   7.496   5.365   0.267  0.5047  0.3403 -0.5601
 2451SOL    HW1 8209   7.494   5.448   0.316 -0.8948  0.3729 -0.6319
 2451SOL    HW2 8210   7.589   5.350   0.250  1.0583  0.4209  1.9456
 2452SOL     OW 8211   6.899   1.934   6.535  0.9781  0.2710  0.0392
 2452SOL    HW1 8212   6.878   1.882   6.458 -1.4406  0.5142  0.4352
 2452SOL    HW2 8213   6.880   2.024   6.509  1.2975  0.4852  0.5428
 2453SOL     OW 8214   0.012   3.747   4.703  0.3021  0.1830  0.0641
 2453SOL    HW1 8215   0.024   3.713   4.791  2.0174 -0.3148 -0.3195
 2453SOL    HW2 8216   0.002   3.841   4.714  2.1976  0.3463  0.7026
 2454SOL     OW 8217   7.861   5.101   0.372  0.4871  0.0144 -0.1347
 2454SOL    HW1 8218   7.805   5.153   0.314 -0.3565 -1.2468 -0.4863
 2454SOL    HW2 8219   7.950   5.123   0.345  0.1693  1.4261 -0.1250
 2455SOL     OW 8220   5.697   3.910   0.395  0.1458  0.0594 -0.1517
 2455SOL    HW1 8221   5.782   3.917   0.350 -0.0062  0.9000 -0.3205
 2455SOL    HW2 8222   5.695   3.820   0.426  0.3047 -0.5454 -1.7575
 2456SOL     OW 8223   6.853   5.296   0.771  0.2420  0.4861 -0.6353
 2456SOL    HW1 8224   6.876   5.253   0.689  0.8615 -0.9956  0.2773
 2456SOL    HW2 8225   6.937   5.322   0.809  0.0867 -0.2635  0.2607
 2457SOL     OW 8226   2.406   4.080   1.266 -0.4054  0.3882  0.1381
 2457SOL    HW1 8227   2.416   4.083   1.362 -1.4711 -0.5950  0.3044
 2457SOL    HW2 8228   2.414   3.988   1.244  1.0225  0.7247 -0.8982
 2458SOL     OW 8229   6.792   5.293   2.320 -0.2572  0.5494 -0.5346
 2458SOL    HW1 8230   6.799   5.367   2.260  0.1610  0.1561 -0.9760
 2458SOL    HW2 8231   6.715   5.245   2.291 -0.0633  0.3672 -0.7536
 2459SOL     OW 8232   5.127   4.972   3.356  0.3287 -0.5399 -0.0138
 2459SOL    HW1 8233   5.186   4.918   3.408  0.4934 -1.0350 -0.6977
 2459SOL    HW2 8234   5.160   4.964   3.266 -1.8648 -2.3394 -0.7500
 2460SOL     OW 8235   5.190   1.284   4.298  0.1217 -0.2265  0.4240
 2460SOL    HW1 8236   5.256   1.329   4.351  0.0336 -0.6546  0.8997
 2460SOL    HW2 8237   5.240   1.229   4.238  0.1896 -1.7221  1.8081
 2461SOL     OW 8238   3.262   0.776   0.511 -0.4406 -0.3654 -0.1469
 2461SOL    HW1 8239   3.322   0.708   0.543  0.0255  0.1613  0.1142
 2461SOL    HW2 8240   3.284   0.786   0.419 -0.1353 -0.1848 -0.0557
 2462SOL     OW 8241   3.158   1.484   4.051  0.8873  0.0277  0.0257
 2462SOL    HW1 8242   3.167   1.389   4.042  2.1388  0.1136  0.1627
 2462SOL    HW2 8243   3.242   1.518   4.021  0.0089  1.1799 -1.1973
 2463SOL     OW 8244   3.567   0.182   3.520  0.0450 -0.3443 -0.5449
 2463SOL    HW1 8245   3.624   0.106   3.530  0.1880 -0.1640  0.0956
 2463SOL    HW2 8246   3.623   0.249   3.481  0.5775  0.1397  0.9532
 2464SOL     OW 8247   6.168   0.485   1.305  0.2570  0.0912  0.7456
 2464SOL    HW1 8248   6.244   0.435   1.276  0.9580  1.3490  0.3425
 2464SOL    HW2 8249   6.104   0.475   1.234  0.4989  0.0049  0.5385
 2465SOL     OW 8250   2.994   1.320   0.590  0.1721 -0.1573  0.4640
 2465SOL    HW1 8251   2.964   1.335   0.501  0.0953  1.1481  0.6966
 2465SOL    HW2 8252   3.065   1.255   0.581  0.8880  0.7393 -0.6610
 2466SOL     OW 8253   6.104   6.601   0.854 -0.9922  0.5185 -0.0674
 2466SOL    HW1 8254   6.061   6.518   0.836 -0.0965  0.1588 -0.6122
 2466SOL    HW2 8255   6.196   6.587   0.829 -0.7612  1.5630  0.1380
 2467SOL     OW 8256   7.857   2.621   3.271 -0.1835  0.1618  0.1270
 2467SOL    HW1 8257   7.803   2.697   3.292  1.7728  0.9418  2.9894
 2467SOL    HW2 8258   7.804   2.546   3.297 -0.6560  0.7889  1.0242
 2468SOL     OW 8259   2.197   2.777   4.469 -0.1933  0.5928 -0.7761
 2468SOL    HW1 8260   2.212   2.707   4.406 -2.0492  0.3187 -0.9698
 2468SOL    HW2 8261   2.284   2.800   4.501  0.5018 -1.5552 -0.9765
 2469SOL     OW 8262   1.538   0.076   4.266 -0.1103  0.0937  0.5281
 2469SOL    HW1 8263   1.477   0.006   4.244  0.4883 -0.3802  0.3535
 2469SOL    HW2 8264   1.534   0.135   4.190  0.4119 -0.4685  0.0592
 2470SOL     OW 8265   1.658   6.275   0.173 -0.2110  0.3062  0.6276
 2470SOL    HW1 8266   1.617   6.332   0.239  1.6052  1.0622  1.1584
 2470SOL    HW2 8267   1.652   6.187   0.210  1.2820  0.7854  2.1249
 2471SOL     OW 8268   4.124   5.006   2.174 -0.4843 -0.0755  0.1486
 2471SOL    HW1 8269   4.184   5.029   2.104  1.5931 -0.5134  1.6890
 2471SOL    HW2 8270   4.062   5.079   2.178  1.1403  1.3849 -0.2205
 2472SOL     OW 8271   7.326   2.053   0.659  0.1792  0.5975 -0.1728
 2472SOL    HW1 8272   7.401   2.039   0.601 -0.5006 -2.2826 -0.5397
 2472SOL    HW2 8273   7.266   2.108   0.609  0.7568  0.3930 -1.1038
 2473SOL     OW 8274   6.494   6.609   1.130  0.2429 -0.3095  0.2440
 2473SOL    HW1 8275   6.568   6.664   1.103 -0.3570  0.1051 -0.6182
 2473SOL    HW2 8276   6.507   6.526   1.083  0.6158 -0.5571  0.7724
 2474SOL     OW 8277   1.972   1.807   7.063 -0.3906 -0.0664 -0.3335
 2474SOL    HW1 8278   1.913   1.768   7.127 -0.6019 -0.4648 -0.7611
 2474SOL    HW2 8279   1.938   1.895   7.048 -1.5708 -0.6814 -1.4300
 2475SOL     OW 8280   4.277   7.582   3.726  0.5969  0.3198 -0.2561
 2475SOL    HW1 8281   4.323   7.590   3.809 -2.0974  2.8487  1.1977
 2475SOL    HW2 8282   4.263   7.488   3.715  2.3705 -0.1857  1.3133
 2476SOL     OW 8283   0.031   3.000   3.513 -0.9386  0.5173 -0.0147
 2476SOL    HW1 8284  -0.054   3.032   3.482 -1.1183  1.4159  1.3450
 2476SOL    HW2 8285   0.014   2.910   3.541 -0.7011 -0.4592 -2.7014
 2477SOL     OW 8286   7.892   7.023   5.828 -0.4337 -0.5987  0.3164
 2477SOL    HW1 8287   7.926   7.093   5.884  0.2768 -1.4266  0.9455
 2477SOL    HW2 8288   7.924   6.942   5.868 -1.1032 -1.2855 -0.4884
 2478SOL     OW 8289   4.049   3.012   1.851 -0.1259 -0.3321 -0.1720
 2478SOL    HW1 8290   4.046   3.102   1.820 -0.3179 -0.2075  0.2109
 2478SOL    HW2 8291   3.997   3.011   1.931 -0.5319 -0.8850 -0.4288
 2479SOL     OW 8292   4.819   0.583   2.283 -0.2107  0.1367 -0.1305
 2479SOL    HW1 8293   4.831   0.568   2.189 -0.5213 -0.7859 -0.0253
 2479SOL    HW2 8294   4.887   0.646   2.306  2.1056 -2.1500 -0.2821
 2480SOL     OW 8295   4.626   4.969   0.361  0.2836 -0.1437 -0.0685
 2480SOL    HW1 8296   4.561   5.018   0.312 -0.4997  1.5783  2.4766
 2480SOL    HW2 8297   4.590   4.881   0.367  0.6970 -0.5931 -2.9373
 2481SOL     OW 8298   5.664   3.139   4.585  0.0294 -0.0749  0.3185
 2481SOL    HW1 8299   5.694   3.166   4.498  2.0092 -0.2623  0.8922
 2481SOL    HW2 8300   5.656   3.220   4.635  1.0026 -0.1183  0.5645
 2482SOL     OW 8301   3.224   6.748   6.105  0.0689  0.6007  0.1402
 2482SOL    HW1 8302   3.242   6.693   6.029  1.4121  0.6819  0.3585
 2482SOL    HW2 8303   3.170   6.819   6.071  1.5747  1.2484 -1.0164
 2483SOL     OW 8304   1.538   7.312   1.496 -0.6531  0.9397  0.6046
 2483SOL    HW1 8305   1.565   7.382   1.557 -1.5395  0.7421  1.2546
 2483SOL    HW2 8306   1.442   7.312   1.503 -0.6786 -0.0298  0.2499
 2484SOL     OW 8307   3.819   2.850   7.661  0.0988 -0.5662 -0.1290
 2484SOL    HW1 8308   3.898   2.891   7.625 -0.4932  0.2297 -0.5802
 2484SOL    HW2 8309   3.835   2.845   7.755 -0.0734  1.3984  0.0462
 2485SOL     OW 8310   1.292   4.679   7.909 -1.1650 -0.4571 -0.2189
 2485SOL    HW1 8311   1.265   4.725   7.830  3.1340 -0.7187 -2.0970
 2485SOL    HW2 8312   1.324   4.594   7.878  1.2353 -0.3300  1.6313
 2486SOL     OW 8313   1.290   4.253   6.943  0.0997 -0.2513  0.0953
 2486SOL    HW1 8314   1.287   4.208   6.859  1.2834 -1.4683  0.6759
 2486SOL    HW2 8315   1.199   4.276   6.961 -0.1743  0.0064 -1.4825
 2487SOL     OW 8316   0.857   6.558   7.066 -0.3371  0.0101  0.0934
 2487SOL    HW1 8317   0.868   6.555   7.161  1.1545  0.5640 -0.0378
 2487SOL    HW2 8318   0.946   6.551   7.031 -0.8479 -0.0287 -1.2615
 2488SOL     OW 8319   7.557   5.418   5.837 -0.3094 -0.1398  0.1698
 2488SOL    HW1 8320   7.649   5.446   5.847 -0.2216 -0.7775  1.2747
 2488SOL    HW2 8321   7.521   5.423   5.925 -1.2676 -0.1846 -0.2098
 2489SOL     OW 8322   0.490   7.820   6.203 -0.7277 -0.8264 -0.0921
 2489SOL    HW1 8323   0.432   7.879   6.252 -2.3132 -1.6555 -0.8851
 2489SOL    HW2 8324   0.533   7.768   6.270 -0.4334  0.2105  0.5509
 2490SOL     OW 8325   3.615   6.709   0.012  0.4233 -0.3464  0.9142
 2490SOL    HW1 8326   3.662   6.627   0.003  0.8532  0.0880 -1.8426
 2490SOL    HW2 8327   3.524   6.684   0.027  0.6246 -1.3194  0.5555
 2491SOL     OW 8328   0.630   0.986   2.211 -0.2959  0.2703 -0.8446
 2491SOL    HW1 8329   0.566   1.029   2.268  0.3503  1.0613 -0.7013
 2491SOL    HW2 8330   0.715   1.008   2.249  0.1816  1.2709 -2.4102
 2492SOL     OW 8331   3.060   5.256   5.422  0.0583  0.9282  0.5119
 2492SOL    HW1 8332   3.059   5.168   5.385  0.3631  0.5135  1.4720
 2492SOL    HW2 8333   3.079   5.313   5.347 -0.9049  0.2595 -0.2609
 2493SOL     OW 8334   4.002   0.807   6.687 -0.3402  0.3774  0.5127
 2493SOL    HW1 8335   4.048   0.875   6.636 -0.6350  0.1666 -0.0333
 2493SOL    HW2 8336   3.919   0.795   6.642  0.2077 -1.2471 -0.1425
 2494SOL     OW 8337   1.083   1.390   1.274  0.0968 -0.3915 -0.1128
 2494SOL    HW1 8338   1.126   1.327   1.216  0.2045 -0.6288  0.2205
 2494SOL    HW2 8339   1.117   1.369   1.362  0.8310  0.7247 -0.1093
 2495SOL     OW 8340   3.960   5.994   0.558  0.3410  0.3700 -0.1251
 2495SOL    HW1 8341   3.880   6.043   0.580  0.6290  0.0665  1.8097
 2495SOL    HW2 8342   3.929   5.909   0.529 -0.0819 -0.1685  1.7441
 2496SOL     OW 8343   0.028   2.956   6.278 -0.2637  0.2963  0.0329
 2496SOL    HW1 8344  -0.036   2.929   6.212  1.6799 -2.5384 -0.8875
 2496SOL    HW2 8345   0.074   2.875   6.301  1.5407  1.8381  2.2461
 2497SOL     OW 8346   7.023   1.605   2.418  0.1285 -0.2739 -0.6600
 2497SOL    HW1 8347   6.990   1.584   2.331 -0.3008 -3.5672  0.1406
 2497SOL    HW2 8348   7.086   1.535   2.436  0.6544  0.6801  1.4289
 2498SOL     OW 8349   7.200   3.661   4.162  0.1151  0.4261  0.0764
 2498SOL    HW1 8350   7.130   3.662   4.097  0.8134  1.2392 -0.6848
 2498SOL    HW2 8351   7.185   3.581   4.212 -0.8918  0.1859 -0.5820
 2499SOL     OW 8352   4.130   5.802   6.723 -0.0346  0.4771 -0.4246
 2499SOL    HW1 8353   4.131   5.873   6.787  0.5638 -1.4939  1.8894
 2499SOL    HW2 8354   4.213   5.812   6.676  0.8043  0.3703  0.9920
 2500SOL     OW 8355   5.726   7.150   0.466 -0.0950 -0.1627 -0.5519
 2500SOL    HW1 8356   5.639   7.121   0.493 -0.4508  0.0699 -1.3985
 2500SOL    HW2 8357   5.712   7.191   0.380  0.6866  0.7904 -0.2493
 2501SOL     OW 8358   2.167   0.635   7.536  0.8749  0.0997 -0.1643
 2501SOL    HW1 8359   2.201   0.725   7.529  0.4708  0.3676  1.1667
 2501SOL    HW2 8360   2.073   0.646   7.545  0.8364 -0.4667  0.1113
 2502SOL     OW 8361   0.587   7.841   0.890  0.2129  0.1031 -0.1279
 2502SOL    HW1 8362   0.634   7.812   0.968  0.3664 -1.9090 -0.9101
 2502SOL    HW2 8363   0.494   7.827   0.911  0.3216 -2.1137 -0.8552
 2503SOL     OW 8364   3.900   3.936   2.901 -0.6318 -0.6337 -0.5118
 2503SOL    HW1 8365   3.833   3.952   2.968  0.1542  1.8398 -0.2273
 2503SOL    HW2 8366   3.966   3.883   2.946  0.8287  2.5595  1.4474
 2504SOL     OW 8367   7.002   7.948   4.537  0.2156 -0.1180  0.4219
 2504SOL    HW1 8368   7.071   7.883   4.551  0.3461 -0.4019 -1.2979
 2504SOL    HW2 8369   6.930   7.899   4.498 -0.1929  0.5235  0.3522
 2505SOL     OW 8370   2.166   2.873   7.833  0.1527 -0.3534  0.5574
 2505SOL    HW1 8371   2.123   2.892   7.916 -0.0667 -0.7908  0.5496
 2505SOL    HW2 8372   2.180   2.959   7.792 -0.6795 -0.1927  0.5775
 2506SOL     OW 8373   2.624   3.719   2.574  0.2213  0.3908 -0.6729
 2506SOL    HW1 8374   2.705   3.758   2.609  0.7277  0.2438 -1.6336
 2506SOL    HW2 8375   2.583   3.791   2.525 -0.0774  0.3797 -0.4388
 2507SOL     OW 8376   4.649   3.223   5.103 -0.5709  0.4002  0.3823
 2507SOL    HW1 8377   4.652   3.141   5.153 -2.0929 -0.7299 -1.2535
 2507SOL    HW2 8378   4.741   3.241   5.082 -0.3097 -2.0441 -0.9383
 2508SOL     OW 8379   2.274   1.802   7.051  0.2454 -0.1025  0.4386
 2508SOL    HW1 8380   2.178   1.799   7.055  0.1544 -0.8295 -1.1832
 2508SOL    HW2 8381   2.294   1.894   7.033 -0.0238  0.3693  2.3725
 2509SOL     OW 8382   1.532   0.063   6.463 -0.0278  0.0906 -0.0873
 2509SOL    HW1 8383   1.598   0.024   6.519  2.4051 -0.3296 -2.9807
 2509SOL    HW2 8384   1.481  -0.011   6.430 -1.4625  0.3376  1.4040
 2510SOL     OW 8385   7.659   2.985   3.107  0.0126 -0.2711  0.3014
 2510SOL    HW1 8386   7.584   3.036   3.076  0.0475 -1.4390 -1.9087
 2510SOL    HW2 8387   7.735   3.038   3.085 -0.0688 -0.1803  0.2372
 2511SOL     OW 8388   0.443   1.992   3.704 -0.8831 -0.0477  0.4198
 2511SOL    HW1 8389   0.446   2.007   3.610  2.2351 -0.9995  0.2737
 2511SOL    HW2 8390   0.500   2.059   3.742 -1.6516 -0.0274  1.5947
 2512SOL     OW 8391   6.898   0.072   0.674  0.2352 -0.0427  0.0932
 2512SOL    HW1 8392   6.972   0.111   0.720  0.4139 -0.0118 -0.2228
 2512SOL    HW2 8393   6.893   0.118   0.591 -0.7846  0.6853  0.5308
 2513SOL     OW 8394   6.675   7.794   4.083 -0.1065 -0.4781  0.1735
 2513SOL    HW1 8395   6.624   7.782   4.002 -0.4172  0.0136  0.2946
 2513SOL    HW2 8396   6.626   7.859   4.133  0.4770 -0.2323  0.4322
 2514SOL     OW 8397   2.270   7.400   1.204  0.1466  0.0951  0.0636
 2514SOL    HW1 8398   2.333   7.329   1.212  2.5212  1.8378 -1.6727
 2514SOL    HW2 8399   2.285   7.455   1.281 -0.1957 -0.1441  0.3071
 2515SOL     OW 8400   6.190   5.388   7.928  0.4370 -0.0088 -0.1539
 2515SOL    HW1 8401   6.150   5.309   7.890 -0.9401  0.7020 -0.2345
 2515SOL    HW2 8402   6.130   5.414   7.997  1.0051  0.8589  0.0228
 2516SOL     OW 8403   2.617   7.147   5.833 -0.1780  0.4666 -0.2577
 2516SOL    HW1 8404   2.533   7.102   5.842 -0.0010  0.1663 -0.0996
 2516SOL    HW2 8405   2.611   7.221   5.895  0.9974 -1.5342  2.4357
 2517SOL     OW 8406   7.020   0.501   2.628  0.0891 -0.5588 -0.1510
 2517SOL    HW1 8407   6.982   0.437   2.688  0.2834  2.6231  3.8479
 2517SOL    HW2 8408   7.091   0.455   2.585 -1.8246 -3.8594 -0.1104
 2518SOL     OW 8409   0.763   0.843   3.463  0.3231  0.4626 -0.4604
 2518SOL    HW1 8410   0.751   0.843   3.368  1.7899  3.3431 -0.7712
 2518SOL    HW2 8411   0.739   0.932   3.490 -0.1622 -0.3185  1.9165
 2519SOL     OW 8412   5.202   4.417   7.750  0.4397 -0.4505 -0.6987
 2519SOL    HW1 8413   5.297   4.409   7.741  0.5286  0.0191 -0.1842
 2519SOL    HW2 8414   5.173   4.449   7.665  0.8615  0.4148 -0.5261
 2520SOL     OW 8415   1.345   6.213   5.912  0.4686  0.2566  0.3666
 2520SOL    HW1 8416   1.377   6.124   5.901 -0.4584  0.1300 -1.9076
 2520SOL    HW2 8417   1.375   6.239   5.999  1.4056 -1.9834  0.7812
 2521SOL     OW 8418   2.207   0.017   5.749 -0.1651 -0.3730 -0.1944
 2521SOL    HW1 8419   2.169  -0.070   5.740 -0.4458 -0.1563 -1.1749
 2521SOL    HW2 8420   2.254   0.013   5.833  1.6505 -2.1615 -1.1926
 2522SOL     OW 8421   0.724   2.697   3.387  0.0286  0.2262 -0.2534
 2522SOL    HW1 8422   0.743   2.791   3.390  1.9050 -0.0890  3.3012
 2522SOL    HW2 8423   0.790   2.662   3.327 -0.0020  1.0767 -0.7991
 2523SOL     OW 8424   6.706   5.261   3.618  0.1979  0.6867 -0.5894
 2523SOL    HW1 8425   6.686   5.217   3.536  0.3598 -1.5446  0.4797
 2523SOL    HW2 8426   6.792   5.228   3.642 -0.1702  0.6861  0.8329
 2524SOL     OW 8427   4.749   2.327   3.331 -0.1299 -0.1958  0.2105
 2524SOL    HW1 8428   4.658   2.314   3.306  0.0356 -1.9465  0.3806
 2524SOL    HW2 8429   4.770   2.415   3.300 -1.6361 -0.0560 -0.5221
 2525SOL     OW 8430   7.211   2.392   2.240 -0.0010  0.2768  0.5851
 2525SOL    HW1 8431   7.177   2.401   2.330 -1.0840 -2.2778  0.5159
 2525SOL    HW2 8432   7.132   2.383   2.186  0.6616  1.3155 -0.6068
 2526SOL     OW 8433   0.407   7.120   2.435  0.1011 -0.5258 -0.5715
 2526SOL    HW1 8434   0.337   7.082   2.489 -0.8534 -0.9048 -2.0219
 2526SOL    HW2 8435   0.418   7.209   2.470 -0.7017 -0.6641  0.0693
 2527SOL     OW 8436   7.913   1.984   1.299  0.2029 -0.0077 -0.1901
 2527SOL    HW1 8437   7.819   1.968   1.292 -0.1377  2.3259 -2.0200
 2527SOL    HW2 8438   7.953   1.914   1.247 -0.5643 -0.5348 -0.0840
 2528SOL     OW 8439   7.344   1.792   1.976 -0.2669 -0.0790 -0.3269
 2528SOL    HW1 8440   7.306   1.844   2.047 -2.1635 -2.1031  0.2694
 2528SOL    HW2 8441   7.299   1.821   1.897  0.0680  0.4947 -0.3055
 2529SOL     OW 8442   2.857   2.500   3.219  0.6269 -0.4567 -0.4034
 2529SOL    HW1 8443   2.808   2.511   3.300  0.5853 -1.4640 -0.2736
 2529SOL    HW2 8444   2.829   2.572   3.163 -0.0396 -0.2898  0.1423
 2530SOL     OW 8445   5.585   1.966   7.711  0.6886  0.2949  0.2118
 2530SOL    HW1 8446   5.559   2.008   7.793  0.6352  0.4585  0.1125
 2530SOL    HW2 8447   5.508   1.917   7.683  1.2791 -1.2750  1.1961
 2531SOL     OW 8448   7.225   5.257   4.526  0.0555 -0.0899 -0.9331
 2531SOL    HW1 8449   7.168   5.325   4.490  1.3546  1.2312 -0.5898
 2531SOL    HW2 8450   7.307   5.268   4.479  0.4702 -1.0351 -0.4420
 2532SOL     OW 8451   3.644   1.005   1.359  0.5332 -0.1510  0.3144
 2532SOL    HW1 8452   3.564   0.954   1.346  0.4349  0.4484 -1.9384
 2532SOL    HW2 8453   3.615   1.096   1.356  1.1999  0.0672  0.3278
 2533SOL     OW 8454   0.512   0.410   3.974  0.3899  0.4072 -0.4492
 2533SOL    HW1 8455   0.493   0.319   3.999  1.2925 -0.3599 -2.3237
 2533SOL    HW2 8456   0.426   0.448   3.957  0.0605 -0.6194 -1.2188
 2534SOL     OW 8457   2.874   2.520   5.351 -0.1171  0.1684  0.4018
 2534SOL    HW1 8458   2.798   2.492   5.401 -0.2222  2.1942  1.4834
 2534SOL    HW2 8459   2.838   2.553   5.269 -0.4482  1.1632  0.9276
 2535SOL     OW 8460   3.252   4.350   3.245 -0.3634 -0.0139  0.3249
 2535SOL    HW1 8461   3.257   4.426   3.302 -4.6729  2.9271 -2.5376
 2535SOL    HW2 8462   3.200   4.287   3.294  1.4617 -0.3382  1.9466
 2536SOL     OW 8463   4.440   1.179   1.722  0.0397  0.0045  0.8519
 2536SOL    HW1 8464   4.355   1.197   1.681 -0.3741 -2.4253  0.5130
 2536SOL    HW2 8465   4.439   1.230   1.803 -1.1113  1.1794  0.1336
 2537SOL     OW 8466   5.821   5.461   5.164 -0.6675 -0.1496  0.4503
 2537SOL    HW1 8467   5.803   5.380   5.116 -0.1857  0.5500 -0.9448
 2537SOL    HW2 8468   5.736   5.488   5.199 -1.1004 -0.4609 -0.3436
 2538SOL     OW 8469   4.068   7.960   1.245 -0.3810  0.2085 -0.5535
 2538SOL    HW1 8470   4.059   7.898   1.173 -1.9601 -0.9970  0.6257
 2538SOL    HW2 8471   4.054   7.909   1.324  0.6655  1.6262  0.6187
 2539SOL     OW 8472   0.870   7.686   7.223 -0.1558  0.7377 -0.0876
 2539SOL    HW1 8473   0.821   7.643   7.152  0.7901  1.2570 -1.0778
 2539SOL    HW2 8474   0.820   7.765   7.242 -0.7622  0.2767  0.2901
 2540SOL     OW 8475   3.450   3.069   2.344  0.2366  0.3545  0.0096
 2540SOL    HW1 8476   3.514   3.057   2.414  1.3445 -0.0725 -1.0433
 2540SOL    HW2 8477   3.445   3.164   2.333 -0.9797  0.5090  1.5567
 2541SOL     OW 8478   4.867   1.993   2.765  0.2950 -0.1678 -0.1650
 2541SOL    HW1 8479   4.811   1.915   2.761  0.5843 -0.4929  1.4665
 2541SOL    HW2 8480   4.845   2.034   2.849 -0.7488  2.2373 -1.5024
 2542SOL     OW 8481   7.499   1.597   3.273 -0.7395  0.0420  0.2866
 2542SOL    HW1 8482   7.433   1.586   3.341 -1.0394  1.6090  0.2815
 2542SOL    HW2 8483   7.510   1.510   3.236  0.3772 -1.1769  3.1790
 2543SOL     OW 8484   2.871   1.215   1.330  0.7197 -0.3319  0.1042
 2543SOL    HW1 8485   2.877   1.127   1.367 -0.8379  0.4935  2.5716
 2543SOL    HW2 8486   2.820   1.204   1.250  1.5346 -1.7970 -0.2527
 2544SOL     OW 8487   3.320   2.280   5.556 -0.2981  0.6202  0.0621
 2544SOL    HW1 8488   3.324   2.368   5.517 -2.9560  0.3343 -1.0587
 2544SOL    HW2 8489   3.316   2.296   5.650 -4.8235  2.1514 -0.1311
 2545SOL     OW 8490   1.056   2.596   0.022 -0.3523  0.2574 -0.1017
 2545SOL    HW1 8491   1.078   2.544   0.099 -1.9888 -0.2515  0.0770
 2545SOL    HW2 8492   1.126   2.660   0.015  0.0626  0.0354  1.5565
 2546SOL     OW 8493   4.662   2.643   4.026 -0.0770 -0.0461  0.3517
 2546SOL    HW1 8494   4.637   2.735   4.037  1.0349  0.6523 -2.1483
 2546SOL    HW2 8495   4.757   2.645   4.016 -0.2079 -1.1957 -1.6257
 2547SOL     OW 8496   1.362   5.766   6.334 -0.2295 -0.5843 -0.0348
 2547SOL    HW1 8497   1.418   5.727   6.402  0.0190  0.1944  0.2147
 2547SOL    HW2 8498   1.358   5.699   6.266  1.7169 -0.3434 -0.4476
 2548SOL     OW 8499   1.264   6.873   1.168 -0.3596 -0.1469  0.3311
 2548SOL    HW1 8500   1.252   6.916   1.253 -0.7338 -1.4747  0.9648
 2548SOL    HW2 8501   1.176   6.874   1.128 -0.4483 -0.6386  0.5073
 2549SOL     OW 8502   3.951   2.532   7.685  0.3564 -0.0297  0.0475
 2549SOL    HW1 8503   4.030   2.581   7.661  1.6640 -1.2793  1.5864
 2549SOL    HW2 8504   3.935   2.555   7.776 -0.6462 -0.3484 -0.0373
 2550SOL     OW 8505   7.006   0.674   1.036  0.2367  0.4948  0.6151
 2550SOL    HW1 8506   6.941   0.679   1.106  0.0685  3.1446  0.3662
 2550SOL    HW2 8507   7.090   0.672   1.081  0.0761 -1.2527  0.9025
 2551SOL     OW 8508   3.981   4.700   3.218 -0.0758 -0.1841  0.2851
 2551SOL    HW1 8509   3.933   4.731   3.141  0.6037 -1.2406 -0.5938
 2551SOL    HW2 8510   4.037   4.774   3.243 -0.1806  0.1142 -0.3498
 2552SOL     OW 8511   7.568   7.123   6.549  0.6109  0.5880  0.5379
 2552SOL    HW1 8512   7.521   7.043   6.525  0.3162  1.4101 -1.8552
 2552SOL    HW2 8513   7.501   7.180   6.588  0.5957  0.1063  1.2375
 2553SOL     OW 8514   5.315   3.389   3.360  0.0624  0.5467 -0.2236
 2553SOL    HW1 8515   5.394   3.442   3.367 -0.1914  1.2017 -1.8951
 2553SOL    HW2 8516   5.289   3.396   3.268 -2.5344  1.2189  0.4710
 2554SOL     OW 8517   5.269   1.078   0.234 -0.4023 -0.3272 -0.2099
 2554SOL    HW1 8518   5.337   1.029   0.280 -0.9514 -1.0674 -0.1534
 2554SOL    HW2 8519   5.294   1.073   0.142  0.8324  1.3695 -0.0169
 2555SOL     OW 8520   2.544   5.629   4.722  0.2264 -0.3088  0.0399
 2555SOL    HW1 8521   2.526   5.558   4.661 -0.5218 -1.6029  1.6766
 2555SOL    HW2 8522   2.458   5.659   4.750  0.4539 -1.5526  2.3870
 2556SOL     OW 8523   1.411   4.625   3.118  0.0585 -0.6578  0.2483
 2556SOL    HW1 8524   1.458   4.568   3.179  0.1313 -1.2549 -0.3522
 2556SOL    HW2 8525   1.439   4.713   3.141  1.2753 -0.9876  0.0697
 2557SOL     OW 8526   2.023   4.784   7.395  0.2486  0.0910  0.6285
 2557SOL    HW1 8527   2.023   4.758   7.303  1.3332 -1.7215  1.0909
 2557SOL    HW2 8528   1.976   4.714   7.440 -1.0876  1.3985  1.4016
 2558SOL     OW 8529   2.804   1.828   2.801  0.9596 -0.0341  0.0072
 2558SOL    HW1 8530   2.749   1.871   2.866  0.4164 -1.4609  0.5226
 2558SOL    HW2 8531   2.797   1.735   2.821  0.8475 -0.5151 -2.0309
 2559SOL     OW 8532   6.267   3.705   6.757  0.4821  0.0505 -0.5921
 2559SOL    HW1 8533   6.289   3.637   6.821 -1.0083  1.5490  1.6900
 2559SOL    HW2 8534   6.178   3.685   6.730  0.0582  0.9776  0.0391
 2560SOL     OW 8535   0.756   3.701   7.158 -0.1519 -0.5026 -0.0395
 2560SOL    HW1 8536   0.665   3.728   7.147 -0.3541 -1.5340 -1.1391
 2560SOL    HW2 8537   0.771   3.637   7.088  0.5632 -2.5246  1.8520
 2561SOL     OW 8538   4.559   4.081   1.441 -0.2186  0.7129 -0.4402
 2561SOL    HW1 8539   4.555   4.001   1.388 -1.3509  0.6282 -0.2600
 2561SOL    HW2 8540   4.635   4.129   1.407 -0.2803  0.1527 -1.4080
 2562SOL     OW 8541   1.969   2.735   1.277 -0.1966  0.2032 -0.2389
 2562SOL    HW1 8542   1.970   2.647   1.314 -0.6820  0.3788  0.2010
 2562SOL    HW2 8543   2.034   2.784   1.328 -1.2711  0.5971  0.7760
 2563SOL     OW 8544   1.325   3.716   0.543 -0.3796 -0.1819  0.1888
 2563SOL    HW1 8545   1.320   3.620   0.543  1.4987 -0.3361 -1.6123
 2563SOL    HW2 8546   1.254   3.743   0.484 -1.3115 -0.3737  1.1729
 2564SOL     OW 8547   4.256   3.421   5.080  0.1805  0.1599  0.1531
 2564SOL    HW1 8548   4.258   3.364   5.004 -2.5514  0.3891 -0.1769
 2564SOL    HW2 8549   4.292   3.367   5.151 -0.6500 -1.3710 -0.5323
 2565SOL     OW 8550   5.584   2.389   2.115  0.1578  0.6593  0.5757
 2565SOL    HW1 8551   5.591   2.429   2.028  0.7226 -2.3819 -0.9081
 2565SOL    HW2 8552   5.668   2.344   2.127 -0.5357 -0.3080  2.0002
 2566SOL     OW 8553   0.149   1.927   7.538 -0.4944 -0.2441 -0.0933
 2566SOL    HW1 8554   0.137   1.842   7.581  0.8555 -0.8531 -0.8557
 2566SOL    HW2 8555   0.129   1.910   7.446  0.1713  0.1656 -0.3153
 2567SOL     OW 8556   2.733   6.180   4.904  0.2559 -0.0679  0.5004
 2567SOL    HW1 8557   2.770   6.101   4.943 -0.2080 -0.8009 -0.4683
 2567SOL    HW2 8558   2.647   6.189   4.945 -0.7865 -1.5875 -1.1913
 2568SOL     OW 8559   7.017   3.611   4.779 -0.3750 -0.1659 -0.0394
 2568SOL    HW1 8560   6.985   3.700   4.766  1.5627  0.5540 -0.2123
 2568SOL    HW2 8561   7.102   3.609   4.735 -0.5455 -2.2280 -0.3796
 2569SOL     OW 8562   6.238   2.027   2.139  0.0803  0.7807  0.5080
 2569SOL    HW1 8563   6.202   2.066   2.219  0.0992 -2.1673  2.1032
 2569SOL    HW2 8564   6.333   2.038   2.148  0.0369  1.3759  0.3268
 2570SOL     OW 8565   0.327   2.288   5.924 -0.3528  0.1926  0.1399
 2570SOL    HW1 8566   0.236   2.274   5.899 -0.1394 -0.3730 -0.3434
 2570SOL    HW2 8567   0.343   2.380   5.904 -0.1383 -0.2725 -2.0536
 2571SOL     OW 8568   1.324   2.160   0.817 -0.5026  0.2222  0.9994
 2571SOL    HW1 8569   1.309   2.233   0.757 -0.2102 -0.2308  0.3617
 2571SOL    HW2 8570   1.419   2.152   0.823 -0.4891 -1.2366 -0.3776
 2572SOL     OW 8571   4.756   1.655   0.254 -0.3437  0.0919  0.2461
 2572SOL    HW1 8572   4.689   1.620   0.195 -0.8424  0.0181  0.8425
 2572SOL    HW2 8573   4.824   1.690   0.196 -0.2846 -1.0041 -0.3681
 2573SOL     OW 8574   5.603   0.627   4.222 -0.5498  0.5818  0.3067
 2573SOL    HW1 8575   5.635   0.545   4.185  0.0961  1.0320 -0.1656
 2573SOL    HW2 8576   5.513   0.634   4.190 -1.6900 -1.3938  2.8078
 2574SOL     OW 8577   6.879   7.626   5.420  0.3942 -0.6105  0.2845
 2574SOL    HW1 8578   6.859   7.591   5.507 -0.9113  0.3285  0.3881
 2574SOL    HW2 8579   6.863   7.554   5.360 -1.6956 -0.4118  0.5454
 2575SOL     OW 8580   3.840   6.678   7.500 -0.0515  0.4062  0.4156
 2575SOL    HW1 8581   3.813   6.595   7.460 -0.1668 -1.7766  4.5237
 2575SOL    HW2 8582   3.758   6.728   7.507 -0.6984 -0.7094  1.1460
 2576SOL     OW 8583   1.682   1.419   5.415  0.1836  0.2315 -0.1600
 2576SOL    HW1 8584   1.749   1.358   5.445  0.6119  0.4089 -0.7562
 2576SOL    HW2 8585   1.704   1.437   5.324 -0.6693  0.2986 -0.3634
 2577SOL     OW 8586   0.350   3.488   4.185 -0.0085 -0.0273  1.0295
 2577SOL    HW1 8587   0.400   3.480   4.266  1.9018 -0.8061 -0.1408
 2577SOL    HW2 8588   0.372   3.408   4.136 -0.5385  0.7486 -0.5327
 2578SOL     OW 8589   4.139   7.735   5.673 -0.4565 -0.3824  0.0756
 2578SOL    HW1 8590   4.128   7.754   5.580  1.9023  0.5037 -0.0783
 2578SOL    HW2 8591   4.049   7.722   5.705 -1.5207  1.4411 -1.8702
 2579SOL     OW 8592   4.135   5.578   0.203 -0.0389 -0.2643 -0.3350
 2579SOL    HW1 8593   4.098   5.588   0.291 -0.5013  0.0796 -0.5635
 2579SOL    HW2 8594   4.225   5.608   0.211 -0.5194  1.2469 -0.3166
 2580SOL     OW 8595   3.467   1.550   3.085 -0.3207 -0.4375 -0.2311
 2580SOL    HW1 8596   3.445   1.479   3.025 -0.7985 -0.1513 -0.3966
 2580SOL    HW2 8597   3.385   1.571   3.129  0.0395 -0.6860  0.5672
 2581SOL     OW 8598   5.914   1.730   3.895  0.4152  0.1808 -0.6822
 2581SOL    HW1 8599   5.986   1.688   3.943 -0.4275 -0.9049 -0.3367
 2581SOL    HW2 8600   5.957   1.778   3.824  1.3253 -3.0693 -2.5108
 2582SOL     OW 8601   4.360   4.592   2.519 -0.1358 -0.0520 -0.2653
 2582SOL    HW1 8602   4.412   4.546   2.584  1.0718  0.3859 -0.8856
 2582SOL    HW2 8603   4.420   4.603   2.444 -1.2427  0.1309 -1.1487
 2583SOL     OW 8604   5.156   5.979   7.356 -0.2693  0.1510 -0.5918
 2583SOL    HW1 8605   5.138   5.913   7.423 -0.8471  0.3222 -0.5696
 2583SOL    HW2 8606   5.086   5.968   7.292  0.1469  0.1447 -1.0522
 2584SOL     OW 8607   2.257   2.986   7.323 -0.3019 -0.5431 -0.2836
 2584SOL    HW1 8608   2.341   2.940   7.319 -0.7840 -1.4505 -0.2204
 2584SOL    HW2 8609   2.224   2.968   7.411  0.6576  2.0566  0.6851
 2585SOL     OW 8610   3.142   7.692   2.505  0.0166  0.0858  0.1594
 2585SOL    HW1 8611   3.125   7.632   2.577 -0.5615  0.2125  0.1369
 2585SOL    HW2 8612   3.105   7.648   2.428 -0.1220  0.3258  0.0883
 2586SOL     OW 8613   7.052   2.468   3.859 -0.4950 -0.0101  0.3007
 2586SOL    HW1 8614   6.995   2.409   3.810  1.4481 -1.2822 -0.5902
 2586SOL    HW2 8615   7.135   2.466   3.811  0.2835  1.8307  1.4579
 2587SOL     OW 8616   6.650   1.267   3.989  0.1748  0.1935  0.5103
 2587SOL    HW1 8617   6.670   1.258   4.082 -0.4695 -0.0360  0.6357
 2587SOL    HW2 8618   6.560   1.301   3.988  0.2754  0.4450 -0.0254
 2588SOL     OW 8619   2.603   7.773   2.350  0.2627 -0.0929  0.0182
 2588SOL    HW1 8620   2.617   7.823   2.270 -1.4787 -0.6057 -0.6454
 2588SOL    HW2 8621   2.520   7.807   2.385  1.4116  0.7402  2.1043
 2589SOL     OW 8622   6.114   7.679   1.722  0.5651 -0.7508  0.0370
 2589SOL    HW1 8623   6.113   7.641   1.810  0.5018 -0.3566  0.2096
 2589SOL    HW2 8624   6.044   7.633   1.675 -0.3876  0.0449  0.6301
 2590SOL     OW 8625   1.640   4.117   4.991 -0.2613  0.4810 -0.2278
 2590SOL    HW1 8626   1.631   4.045   4.929  0.0848 -0.4146  0.7397
 2590SOL    HW2 8627   1.584   4.091   5.065 -2.0219  2.3076 -0.8280
 2591SOL     OW 8628   3.451   1.017   5.819  0.1776  0.3435 -0.1239
 2591SOL    HW1 8629   3.451   0.922   5.815  0.8616  0.3806 -2.2623
 2591SOL    HW2 8630   3.426   1.045   5.731 -0.0178  2.1436  0.4609
 2592SOL     OW 8631   7.057   2.061   3.036 -0.4573 -0.7583  0.0521
 2592SOL    HW1 8632   7.099   2.076   3.121 -1.0256  0.1377  0.1919
 2592SOL    HW2 8633   7.122   2.092   2.972 -0.2543 -0.9109  0.1814
 2593SOL     OW 8634   6.381   2.031   4.383 -0.3727  0.0052  0.5971
 2593SOL    HW1 8635   6.290   2.055   4.400 -0.4683 -0.2085  0.4009
 2593SOL    HW2 8636   6.391   1.946   4.424 -1.3035 -1.6672 -2.3311
 2594SOL     OW 8637   2.459   0.767   7.124 -0.1629  0.5707 -0.1551
 2594SOL    HW1 8638   2.444   0.858   7.099 -0.7206  0.0148 -1.9449
 2594SOL    HW2 8639   2.380   0.721   7.097  0.1360 -0.4721  0.6839
 2595SOL     OW 8640   4.531   5.731   4.387  0.4303  0.0492  0.4288
 2595SOL    HW1 8641   4.492   5.750   4.301 -0.0241  0.7294  0.7765
 2595SOL    HW2 8642   4.485   5.653   4.417 -0.2647  0.4969  0.5678
 2596SOL     OW 8643   0.692   7.520   7.078 -0.4742 -0.1122 -0.2299
 2596SOL    HW1 8644   0.654   7.463   7.011 -1.3767  1.0088 -0.6920
 2596SOL    HW2 8645   0.631   7.514   7.152 -0.4338  0.0713 -0.1831
 2597SOL     OW 8646   1.678   3.299   6.197  0.1158  0.3620 -0.3587
 2597SOL    HW1 8647   1.715   3.231   6.254 -0.6240  0.3609  0.1396
 2597SOL    HW2 8648   1.652   3.369   6.257 -1.4176  0.0247 -0.5833
 2598SOL     OW 8649   7.703   0.409   7.877 -0.2835 -0.4946  0.4714
 2598SOL    HW1 8650   7.707   0.500   7.845 -1.5097  0.1402  1.9679
 2598SOL    HW2 8651   7.673   0.418   7.967 -0.3188 -2.4135  0.6728
 2599SOL     OW 8652   3.736   2.723   7.293 -0.1575  0.5087  0.9050
 2599SOL    HW1 8653   3.714   2.720   7.386  1.2053  0.8509  1.2575
 2599SOL    HW2 8654   3.709   2.637   7.259 -1.8736  0.8451  1.2983
 2600SOL     OW 8655   5.256   1.496   0.166  0.1372  0.0707  0.0747
 2600SOL    HW1 8656   5.265   1.546   0.085 -1.2189 -0.8476 -0.6757
 2600SOL    HW2 8657   5.306   1.415   0.150  0.4171  0.1786  0.4038
 2601SOL     OW 8658   5.003   2.986   0.529  0.1368  0.2249  0.2492
 2601SOL    HW1 8659   5.093   2.985   0.495 -0.3336  2.3880 -1.2595
 2601SOL    HW2 8660   4.988   2.896   0.557  1.7104 -1.0297 -2.4256
 2602SOL     OW 8661   4.944   3.042   0.816 -0.0546  0.1379 -0.0121
 2602SOL    HW1 8662   4.911   2.955   0.839  1.0517  0.2087  2.0695
 2602SOL    HW2 8663   4.988   3.030   0.732  0.9492 -1.5666  0.7111
 2603SOL     OW 8664   0.709   0.049   3.064 -0.0757 -0.3745 -0.0876
 2603SOL    HW1 8665   0.803   0.055   3.043  0.1835 -1.8019  0.5084
 2603SOL    HW2 8666   0.675   0.137   3.049  0.8241 -0.4032 -2.7952
 2604SOL     OW 8667   5.495   1.513   5.075  0.2641 -0.0115  0.1735
 2604SOL    HW1 8668   5.418   1.479   5.028  0.0324 -0.0479  0.5716
 2604SOL    HW2 8669   5.492   1.608   5.059  0.3096 -0.0463 -0.0579
 2605SOL     OW 8670   6.745   1.364   0.401  0.1384  0.5069  0.7513
 2605SOL    HW1 8671   6.745   1.281   0.354 -1.3428  0.4723  0.7823
 2605SOL    HW2 8672   6.792   1.424   0.342 -1.2636  0.3502 -0.5982
 2606SOL     OW 8673   6.064   4.177   6.854  0.3932 -0.2859  0.2347
 2606SOL    HW1 8674   6.155   4.187   6.882  0.9121 -0.6489 -1.2308
 2606SOL    HW2 8675   6.069   4.171   6.759 -1.2315  0.2897  0.0875
 2607SOL     OW 8676   0.291   7.201   4.611  0.2553 -0.0847  0.2897
 2607SOL    HW1 8677   0.342   7.142   4.668 -0.4969 -0.3893  0.6604
 2607SOL    HW2 8678   0.232   7.247   4.671  0.0974  0.2717 -0.1359
 2608SOL     OW 8679   3.184   0.971   3.420  0.1579  0.3635  0.9469
 2608SOL    HW1 8680   3.101   0.995   3.461  0.0044  1.6534 -0.0570
 2608SOL    HW2 8681   3.186   1.023   3.339  0.8072 -1.4901 -0.2848
 2609SOL     OW 8682   0.560   2.642   7.892  0.2246 -0.0517  0.1850
 2609SOL    HW1 8683   0.536   2.551   7.878  0.0593  0.0236 -0.0161
 2609SOL    HW2 8684   0.495   2.693   7.843  0.4360  0.1668  0.1270
 2610SOL     OW 8685   7.121   7.235   2.493 -0.0700  0.2250  0.7132
 2610SOL    HW1 8686   7.203   7.218   2.446  0.4885  2.7612  0.6119
 2610SOL    HW2 8687   7.054   7.235   2.424 -0.1726 -1.6012  0.7611
 2611SOL     OW 8688   5.611   1.227   4.191  0.3198  0.6142  0.0636
 2611SOL    HW1 8689   5.536   1.168   4.195 -0.2064  1.2669 -0.0236
 2611SOL    HW2 8690   5.574   1.311   4.164  0.8694  1.3131  1.4390
 2612SOL     OW 8691   4.511   1.699   7.769 -0.0387 -0.1306  0.1111
 2612SOL    HW1 8692   4.522   1.762   7.698  1.2458  0.7902  1.0839
 2612SOL    HW2 8693   4.495   1.753   7.846 -0.3380 -1.0690  0.7136
 2613SOL     OW 8694   0.653   4.542   3.589 -0.4892 -0.0243 -0.0423
 2613SOL    HW1 8695   0.633   4.629   3.624  0.6311  0.1193  0.2828
 2613SOL    HW2 8696   0.592   4.484   3.635  0.4643  0.2621  1.6938
 2614SOL     OW 8697   2.964   1.607   2.595 -0.0673  0.5832  0.4032
 2614SOL    HW1 8698   2.977   1.538   2.659 -2.0740  0.8279  1.1441
 2614SOL    HW2 8699   2.880   1.586   2.553  0.1037  1.6654 -0.5399
 2615SOL     OW 8700   5.221   5.564   1.984  0.2642  0.2198 -0.4032
 2615SOL    HW1 8701   5.297   5.546   2.039  0.1020 -1.1986 -0.5954
 2615SOL    HW2 8702   5.146   5.542   2.039  0.0841 -0.6505 -0.9763
 2616SOL     OW 8703   7.355   1.669   5.130 -0.4363  0.2258  0.1125
 2616SOL    HW1 8704   7.434   1.650   5.080 -0.7568  1.7516 -1.0445
 2616SOL    HW2 8705   7.381   1.656   5.222  1.1721  0.7328 -0.2389
 2617SOL     OW 8706   4.800   6.335   2.430 -0.1127 -0.1510 -0.2290
 2617SOL    HW1 8707   4.705   6.331   2.437 -0.1564  0.0130 -0.6868
 2617SOL    HW2 8708   4.832   6.269   2.491 -0.4522  1.3674  1.6843
 2618SOL     OW 8709   5.242   6.659   1.473 -0.8069 -0.0378  0.2905
 2618SOL    HW1 8710   5.293   6.579   1.456  0.2503  0.5626  0.4962
 2618SOL    HW2 8711   5.250   6.710   1.392  0.3818  0.8006  0.8920
 2619SOL     OW 8712   6.530   7.513   4.951  0.3351 -0.3071 -0.4467
 2619SOL    HW1 8713   6.535   7.563   5.032  0.5316 -0.2242 -0.5094
 2619SOL    HW2 8714   6.621   7.488   4.933  0.3058 -0.2388 -0.6939
 2620SOL     OW 8715   5.170   0.226   6.168  0.1988  0.0634  0.3065
 2620SOL    HW1 8716   5.143   0.306   6.214 -1.0591 -0.3299  0.3009
 2620SOL    HW2 8717   5.235   0.256   6.104 -0.3632  1.1242  0.1944
 2621SOL     OW 8718   7.436   0.648   3.419  0.1070 -0.3830  0.1868
 2621SOL    HW1 8719   7.421   0.555   3.400  1.1217 -0.7291  1.0104
 2621SOL    HW2 8720   7.423   0.692   3.335 -0.1007 -1.2999 -0.2758
 2622SOL     OW 8721   3.664   3.717   7.653  0.1162  0.1965 -0.2177
 2622SOL    HW1 8722   3.632   3.790   7.601  0.0491 -0.0088 -0.4633
 2622SOL    HW2 8723   3.634   3.735   7.742  0.3099  0.5924 -0.2309
 2623SOL     OW 8724   7.411   0.544   0.046 -0.4892  0.1919  0.4441
 2623SOL    HW1 8725   7.421   0.450   0.060 -0.0988  0.2451  0.5358
 2623SOL    HW2 8726   7.415   0.583   0.133 -0.9506  0.2704  0.4340
 2624SOL     OW 8727   0.619   7.549   3.774 -0.5264 -0.1045 -0.0213
 2624SOL    HW1 8728   0.575   7.612   3.831  0.0926  1.1714 -0.9017
 2624SOL    HW2 8729   0.558   7.537   3.701 -0.9911 -1.1660  0.5180
 2625SOL     OW 8730   4.035   4.069   6.394  0.3242  0.3512 -0.1162
 2625SOL    HW1 8731   4.066   4.059   6.304  1.1471 -0.0050  0.1925
 2625SOL    HW2 8732   4.089   4.140   6.430 -0.3192  0.8093 -0.0401
 2626SOL     OW 8733   5.111   2.011   3.037  0.0934  0.1257 -0.0932
 2626SOL    HW1 8734   5.178   2.045   3.096 -0.2635  2.1431 -0.7464
 2626SOL    HW2 8735   5.126   2.057   2.955 -0.7656 -1.0004 -0.9102
 2627SOL     OW 8736   2.047   6.930   0.800 -0.2266  0.3396  0.4203
 2627SOL    HW1 8737   2.046   7.016   0.759  0.1381  1.3692  2.4288
 2627SOL    HW2 8738   2.097   6.875   0.740  1.3934  2.0967  0.0665
 2628SOL     OW 8739   4.615   2.234   1.885 -0.1193 -0.0363 -0.5312
 2628SOL    HW1 8740   4.607   2.215   1.978  3.6201 -0.1404 -0.0504
 2628SOL    HW2 8741   4.588   2.154   1.841  0.7347 -1.0200  0.6644
 2629SOL     OW 8742   1.352   5.697   6.913  0.8536 -0.8952 -0.2075
 2629SOL    HW1 8743   1.406   5.622   6.887  0.6182 -1.2397  0.2814
 2629SOL    HW2 8744   1.408   5.747   6.972  0.8216 -0.9747 -0.1092
 2630SOL     OW 8745   5.199   7.590   2.648 -0.4291 -0.5017 -0.0413
 2630SOL    HW1 8746   5.139   7.542   2.591 -1.7526 -0.1855  1.0224
 2630SOL    HW2 8747   5.148   7.607   2.728  0.6118  1.0051  0.3522
 2631SOL     OW 8748   3.703   2.628   5.540  0.0352  0.4999 -0.0089
 2631SOL    HW1 8749   3.795   2.643   5.565 -0.2374  2.4747 -0.0090
 2631SOL    HW2 8750   3.704   2.630   5.444  0.1357 -0.6492 -0.0467
 2632SOL     OW 8751   3.062   6.741   0.717  0.1413  0.3223  0.7426
 2632SOL    HW1 8752   3.049   6.834   0.736  1.4556  0.6047  0.3462
 2632SOL    HW2 8753   3.139   6.717   0.768 -0.3647 -0.6443  1.0814
 2633SOL     OW 8754   7.869   7.621   3.215  0.0729  0.4469  0.6991
 2633SOL    HW1 8755   7.952   7.666   3.200  1.0898 -2.0476 -2.5265
 2633SOL    HW2 8756   7.894   7.540   3.261 -0.4144 -0.5216 -0.6690
 2634SOL     OW 8757   7.971   6.408   2.135  0.0935 -0.4908 -0.1738
 2634SOL    HW1 8758   8.041   6.344   2.123  0.2288 -0.3898  0.0797
 2634SOL    HW2 8759   7.948   6.435   2.046 -0.0081 -0.9376 -0.2866
 2635SOL     OW 8760   3.437   4.296   4.006  0.1548  0.1975 -0.1656
 2635SOL    HW1 8761   3.348   4.326   3.987  0.7729  1.1628 -1.8699
 2635SOL    HW2 8762   3.460   4.242   3.931  0.8340 -0.4446  0.4974
 2636SOL     OW 8763   5.334   7.856   7.649 -0.0525 -0.5048 -0.0745
 2636SOL    HW1 8764   5.285   7.828   7.726  2.1596 -0.9844  1.2291
 2636SOL    HW2 8765   5.344   7.777   7.596 -1.6528 -0.1565 -0.9602
 2637SOL     OW 8766   3.806   4.562   4.980  0.0676  0.0045 -0.8424
 2637SOL    HW1 8767   3.813   4.649   5.018  0.9735  0.2100 -1.4520
 2637SOL    HW2 8768   3.885   4.552   4.927  2.6613 -3.0586  2.9958
 2638SOL     OW 8769   2.557   4.918   3.777  0.5349 -0.1713 -0.4959
 2638SOL    HW1 8770   2.546   4.905   3.683  0.9759 -1.4789 -0.3970
 2638SOL    HW2 8771   2.648   4.947   3.787  0.6255 -0.4665 -0.4468
 2639SOL     OW 8772   7.417   7.657   3.889  0.0434  0.6389  0.4101
 2639SOL    HW1 8773   7.442   7.577   3.936  0.6905  1.0886  0.8412
 2639SOL    HW2 8774   7.476   7.659   3.813 -2.0785 -0.9762 -1.4532
 2640SOL     OW 8775   0.376   4.416   7.514  0.0822  0.3951  0.1968
 2640SOL    HW1 8776   0.310   4.347   7.516 -1.4098  1.6330 -1.8615
 2640SOL    HW2 8777   0.452   4.377   7.471 -1.4310  0.4358 -2.7936
 2641SOL     OW 8778   2.245   6.393   4.213  0.1295 -0.5405  0.0579
 2641SOL    HW1 8779   2.155   6.405   4.242 -0.2028 -0.9413 -0.7652
 2641SOL    HW2 8780   2.252   6.447   4.134  0.1037 -1.7597 -0.8133
 2642SOL     OW 8781   5.948   3.506   7.322 -0.0817 -0.0923 -0.4865
 2642SOL    HW1 8782   5.995   3.461   7.392 -0.6882  0.7876  0.5162
 2642SOL    HW2 8783   5.920   3.589   7.361 -2.2293 -0.4588 -1.1145
 2643SOL     OW 8784   4.816   0.454   5.763 -0.2200 -0.2589 -0.3554
 2643SOL    HW1 8785   4.817   0.548   5.745 -0.8397 -0.1802 -0.0314
 2643SOL    HW2 8786   4.908   0.430   5.773 -0.0959  0.5391  0.6382
 2644SOL     OW 8787   1.082   4.033   7.738 -0.3159  0.1456 -0.2677
 2644SOL    HW1 8788   1.041   4.037   7.825 -2.0376 -0.8551 -0.9814
 2644SOL    HW2 8789   1.031   3.967   7.691  0.5708  0.6847 -2.0511
 2645SOL     OW 8790   3.353   1.734   4.277 -0.2974 -0.4497 -0.0072
 2645SOL    HW1 8791   3.315   1.659   4.324 -1.1285 -0.4796 -0.6976
 2645SOL    HW2 8792   3.377   1.795   4.347 -0.1445 -1.1107  0.5354
 2646SOL     OW 8793   2.714   3.321   0.175  0.0409 -0.7426 -0.2029
 2646SOL    HW1 8794   2.780   3.282   0.118  0.0069 -0.6586 -0.2998
 2646SOL    HW2 8795   2.764   3.357   0.248  0.0824 -0.8724 -0.1667
 2647SOL     OW 8796   7.680   2.232   7.530  0.2221  0.1206 -0.1035
 2647SOL    HW1 8797   7.643   2.160   7.478  0.1019  0.9306 -1.1867
 2647SOL    HW2 8798   7.766   2.201   7.556  0.5472 -0.0844 -1.3421
 2648SOL     OW 8799   7.548   7.676   1.814  0.0074  0.0030  0.2948
 2648SOL    HW1 8800   7.481   7.681   1.746  0.4200 -0.5225 -0.1579
 2648SOL    HW2 8801   7.505   7.632   1.887 -0.5594  0.9277  0.5372
 2649SOL     OW 8802   6.238   0.156   6.724  0.1928 -0.4681 -1.0944
 2649SOL    HW1 8803   6.237   0.067   6.688  1.1985 -1.0550  0.2456
 2649SOL    HW2 8804   6.322   0.163   6.769 -1.3473 -0.1655  2.0105
 2650SOL     OW 8805   3.826   6.511   7.099 -0.2885 -0.0328  0.0346
 2650SOL    HW1 8806   3.881   6.441   7.134  2.6830  1.6617 -0.8760
 2650SOL    HW2 8807   3.851   6.519   7.008 -2.6924  0.3632 -0.6708
 2651SOL     OW 8808   1.844   0.000   6.272 -0.4030 -0.0292  0.0113
 2651SOL    HW1 8809   1.797   0.083   6.286 -0.3994 -0.3839  2.6913
 2651SOL    HW2 8810   1.792  -0.047   6.207 -1.1418  1.5191 -0.5689
 2652SOL     OW 8811   7.732   7.951   0.758 -0.3230  0.1287  0.4737
 2652SOL    HW1 8812   7.788   8.019   0.796  0.6251 -0.6659  0.5366
 2652SOL    HW2 8813   7.666   8.000   0.709 -1.2656  1.1889  2.6287
 2653SOL     OW 8814   0.132   5.486   4.401 -0.3459  0.0701 -0.3972
 2653SOL    HW1 8815   0.146   5.394   4.423 -1.0332  0.1189  0.2570
 2653SOL    HW2 8816   0.218   5.516   4.370  0.2362 -0.4338  0.6722
 2654SOL     OW 8817   6.102   2.261   0.292 -0.3441  0.0944  0.6347
 2654SOL    HW1 8818   6.092   2.195   0.224 -2.1909  0.6383  0.3127
 2654SOL    HW2 8819   6.084   2.344   0.247 -0.4988  0.5624  1.5356
 2655SOL     OW 8820   4.857   5.078   4.882 -0.4995 -0.2664  0.0291
 2655SOL    HW1 8821   4.786   5.127   4.841  0.0420  2.1817  1.7856
 2655SOL    HW2 8822   4.863   5.114   4.971  1.1154 -2.3687  0.8488
 2656SOL     OW 8823   4.650   2.766   7.495  0.2945 -0.0286 -0.6011
 2656SOL    HW1 8824   4.661   2.852   7.537  1.0424 -0.1824 -0.4513
 2656SOL    HW2 8825   4.572   2.775   7.441 -0.0777  0.5116  0.0031
 2657SOL     OW 8826   3.558   0.368   7.447 -0.1254 -0.1971 -0.0439
 2657SOL    HW1 8827   3.553   0.375   7.542 -2.2498  0.1495 -0.1272
 2657SOL    HW2 8828   3.597   0.283   7.430 -0.2721 -0.5072  1.1385
 2658SOL     OW 8829   1.764   5.894   4.005  0.0797 -0.0011  0.2751
 2658SOL    HW1 8830   1.796   5.812   4.042  0.2481  0.3666  0.9535
 2658SOL    HW2 8831   1.825   5.913   3.934 -0.0431 -0.5250  0.0158
 2659SOL     OW 8832   3.096   2.073   0.422 -0.4999 -0.0480  0.3659
 2659SOL    HW1 8833   3.010   2.045   0.390 -0.0011 -0.8129 -0.3775
 2659SOL    HW2 8834   3.084   2.164   0.449 -1.7946 -0.4651  1.2928
 2660SOL     OW 8835   5.255   4.707   6.402  0.1076  0.2333 -0.1335
 2660SOL    HW1 8836   5.287   4.764   6.471 -2.3125  1.6739 -0.0622
 2660SOL    HW2 8837   5.261   4.759   6.322  0.9304 -0.6537 -0.6771
 2661SOL     OW 8838   4.730   7.783   3.786 -0.3751  0.0608 -0.2708
 2661SOL    HW1 8839   4.784   7.830   3.722  2.6898  2.1977  3.3825
 2661SOL    HW2 8840   4.781   7.705   3.808  0.3655  1.0154  1.7044
 2662SOL     OW 8841   0.661   1.314   4.551  0.5029  0.2630  0.3011
 2662SOL    HW1 8842   0.746   1.321   4.507  0.2400 -1.9078 -0.6808
 2662SOL    HW2 8843   0.607   1.382   4.510  2.1338  2.7525  2.0456
 2663SOL     OW 8844   5.420   4.484   6.404  0.2490 -0.1121  0.0836
 2663SOL    HW1 8845   5.366   4.562   6.394 -0.9153 -0.9735 -0.6997
 2663SOL    HW2 8846   5.496   4.500   6.348  0.7190  1.0243  1.0219
 2664SOL     OW 8847   6.196   0.602   6.034  0.4796 -0.2094 -0.4860
 2664SOL    HW1 8848   6.259   0.668   6.004  0.8518 -1.1746 -1.9809
 2664SOL    HW2 8849   6.111   0.636   6.006  0.6181 -0.1156 -0.8086
 2665SOL     OW 8850   1.240   4.179   0.827 -0.6178 -0.3149  1.1217
 2665SOL    HW1 8851   1.240   4.084   0.823 -1.1174 -0.3752  2.1097
 2665SOL    HW2 8852   1.279   4.200   0.912  0.1940  0.3899  0.5928
 2666SOL     OW 8853   6.523   7.522   6.964 -0.7473 -0.0723 -0.3596
 2666SOL    HW1 8854   6.442   7.479   6.937 -1.1777  1.5653 -1.8581
 2666SOL    HW2 8855   6.513   7.533   7.058 -1.5582 -1.2754 -0.2727
 2667SOL     OW 8856   4.399   1.994   4.258 -1.1452  0.3195  0.5987
 2667SOL    HW1 8857   4.419   2.062   4.194 -2.3052  1.5071  1.4436
 2667SOL    HW2 8858   4.450   1.918   4.229  0.2698  1.5587 -0.3028
 2668SOL     OW 8859   6.196   7.730   3.133 -0.3468 -0.4182  0.2739
 2668SOL    HW1 8860   6.282   7.754   3.098 -1.0348 -0.9265 -1.9067
 2668SOL    HW2 8861   6.209   7.643   3.170  0.1183 -0.3872  0.1955
 2669SOL     OW 8862   4.522   3.652   6.574 -0.4235 -0.0409 -0.5530
 2669SOL    HW1 8863   4.546   3.626   6.485 -2.9186 -1.1993 -0.9726
 2669SOL    HW2 8864   4.445   3.708   6.562 -0.2154  0.5691  0.8344
 2670SOL     OW 8865   1.834   3.624   1.316 -0.1950  0.0164 -0.1243
 2670SOL    HW1 8866   1.793   3.670   1.243 -1.4343 -0.1755  0.4208
 2670SOL    HW2 8867   1.818   3.680   1.392 -0.6967 -0.7481  0.3424
 2671SOL     OW 8868   0.115   2.394   4.478 -0.1676  0.5651  0.4232
 2671SOL    HW1 8869   0.180   2.406   4.410 -0.0590  0.6694  0.5452
 2671SOL    HW2 8870   0.159   2.419   4.559  0.8437 -2.7881  1.0539
 2672SOL     OW 8871   0.942   3.033   3.473  0.3843  0.1600 -0.1952
 2672SOL    HW1 8872   0.864   3.002   3.427  0.5834 -0.2628 -0.2474
 2672SOL    HW2 8873   0.954   3.122   3.440 -0.1544  0.2788 -0.0841
 2673SOL     OW 8874   1.313   6.535   7.069  0.1314  0.3856  0.5024
 2673SOL    HW1 8875   1.347   6.548   7.158 -1.0450  3.3685  0.6530
 2673SOL    HW2 8876   1.260   6.613   7.053  0.7343  0.2232 -3.0438
 2674SOL     OW 8877   2.307   7.603   4.262  0.7915  0.2546 -0.8436
 2674SOL    HW1 8878   2.238   7.654   4.305  1.0723 -1.7551  2.3531
 2674SOL    HW2 8879   2.260   7.544   4.203  0.0772  0.8227 -0.8634
 2675SOL     OW 8880   1.673   6.682   3.680 -0.2867 -0.3654  1.2563
 2675SOL    HW1 8881   1.643   6.593   3.662 -0.1865 -0.4776  1.6398
 2675SOL    HW2 8882   1.768   6.678   3.674 -0.3356  0.0457 -0.2065
 2676SOL     OW 8883   5.492   6.465   7.226 -0.0721  0.1348  0.2709
 2676SOL    HW1 8884   5.518   6.529   7.160  2.6902  0.3948  1.4483
 2676SOL    HW2 8885   5.434   6.405   7.180 -0.9538  2.1835 -1.4558
 2677SOL     OW 8886   7.708   1.869   7.332 -0.0982  0.1659  0.0257
 2677SOL    HW1 8887   7.742   1.863   7.243  1.7475  3.3473  0.3961
 2677SOL    HW2 8888   7.637   1.933   7.326  0.8263  1.3191  0.9781
 2678SOL     OW 8889   2.062   5.029   7.991 -0.0794  0.1794  0.3531
 2678SOL    HW1 8890   2.083   5.111   8.036  3.9685 -0.3672 -0.1136
 2678SOL    HW2 8891   2.096   4.961   8.049 -0.9011 -0.9987 -0.4981
 2679SOL     OW 8892   5.943   0.575   6.679  0.5456 -0.6377  0.1001
 2679SOL    HW1 8893   5.870   0.539   6.627 -1.4604 -0.0260  2.3090
 2679SOL    HW2 8894   6.016   0.515   6.662 -0.5713 -1.5501 -1.8614
 2680SOL     OW 8895   7.402   0.065   2.565 -0.0177 -0.7243  0.2009
 2680SOL    HW1 8896   7.328   0.097   2.617  0.6911  1.1392  0.1487
 2680SOL    HW2 8897   7.459   0.022   2.628 -0.1679 -0.3370  0.6076
 2681SOL     OW 8898   1.318   7.193   0.869  0.1399  0.4264  0.2538
 2681SOL    HW1 8899   1.332   7.179   0.963 -0.5172 -1.0000  0.1654
 2681SOL    HW2 8900   1.360   7.118   0.827 -2.2455 -0.6538 -0.3837
 2682SOL     OW 8901   0.697   5.487   4.324 -0.9003 -0.0700  0.5189
 2682SOL    HW1 8902   0.721   5.580   4.324 -0.9496 -0.0448 -0.4092
 2682SOL    HW2 8903   0.779   5.441   4.306 -0.7434 -0.2559  1.6728
 2683SOL     OW 8904   0.070   0.500   1.123  0.0351 -0.1338 -0.3302
 2683SOL    HW1 8905   0.046   0.572   1.182 -0.1518 -0.4083 -0.0727
 2683SOL    HW2 8906   0.057   0.536   1.035  0.0173  0.1733 -0.2041
 2684SOL     OW 8907   0.811   1.463   2.331 -0.0389 -0.2453 -0.1224
 2684SOL    HW1 8908   0.855   1.451   2.247  1.3444 -5.9922  0.9912
 2684SOL    HW2 8909   0.719   1.449   2.312  0.3081 -1.9112 -0.7703
 2685SOL     OW 8910   6.615   0.962   0.487  0.0015  0.0048 -0.0267
 2685SOL    HW1 8911   6.600   0.904   0.561 -0.1601 -0.4131 -0.3856
 2685SOL    HW2 8912   6.532   1.008   0.474  0.4442  1.1477  0.9550
 2686SOL     OW 8913   6.702   6.882   4.406  0.0113 -0.3530  0.2621
 2686SOL    HW1 8914   6.672   6.808   4.459  1.3560 -0.0728  1.5018
 2686SOL    HW2 8915   6.761   6.930   4.464 -0.2988  1.3229 -0.7406
 2687SOL     OW 8916   5.894   4.106   7.737  0.8040  0.0876  0.6928
 2687SOL    HW1 8917   5.891   4.195   7.772 -1.2708  0.6381 -0.6646
 2687SOL    HW2 8918   5.847   4.054   7.802 -3.4996  1.1944 -1.1152
 2688SOL     OW 8919   3.364   2.444   6.832 -0.1118  0.0634 -0.4235
 2688SOL    HW1 8920   3.272   2.418   6.836 -0.1256  0.2578  2.9171
 2688SOL    HW2 8921   3.381   2.484   6.917  3.1427 -0.1917 -0.8524
 2689SOL     OW 8922   7.206   5.046   4.957  0.5014 -0.4360  0.0187
 2689SOL    HW1 8923   7.193   5.141   4.955 -0.5448 -0.5829 -0.9577
 2689SOL    HW2 8924   7.295   5.034   4.924 -0.0424  0.1223 -1.7638
 2690SOL     OW 8925   6.780   4.191   5.962 -0.1773 -0.0850  0.3937
 2690SOL    HW1 8926   6.749   4.142   6.038  1.1465 -0.7240  0.5529
 2690SOL    HW2 8927   6.704   4.198   5.905 -0.2342 -3.1056 -0.0362
 2691SOL     OW 8928   5.737   5.693   3.381  0.7051 -0.2683  0.6425
 2691SOL    HW1 8929   5.697   5.719   3.464 -0.0274  0.2465  0.1357
 2691SOL    HW2 8930   5.682   5.623   3.348 -0.0342  0.6998 -0.2447
 2692SOL     OW 8931   1.262   3.425   4.284 -0.2849 -0.2606 -0.4966
 2692SOL    HW1 8932   1.265   3.360   4.354 -0.9637  0.1107 -0.1194
 2692SOL    HW2 8933   1.354   3.450   4.272 -0.0325 -1.1301 -0.5099
 2693SOL     OW 8934   5.405   7.999   0.701  0.7249  0.4775  0.5598
 2693SOL    HW1 8935   5.499   8.013   0.710  0.5434  3.4678 -1.0894
 2693SOL    HW2 8936   5.365   8.062   0.761 -0.2287  0.2231  0.2162
 2694SOL     OW 8937   6.117   5.004   4.712 -0.2751 -0.0396 -0.5856
 2694SOL    HW1 8938   6.068   5.069   4.662 -0.3414  0.2575 -0.1362
 2694SOL    HW2 8939   6.108   5.032   4.803  0.7252  0.0189 -0.4944
 2695SOL     OW 8940   4.448   3.967   5.348  0.0835 -0.0639  0.5761
 2695SOL    HW1 8941   4.463   3.964   5.254  1.3520 -0.8453  0.7881
 2695SOL    HW2 8942   4.442   3.876   5.375  2.9133 -0.0209  1.6913
 2696SOL     OW 8943   6.857   0.754   6.295 -0.0860  0.0966 -0.1441
 2696SOL    HW1 8944   6.767   0.784   6.279  0.2202 -0.0134 -2.2948
 2696SOL    HW2 8945   6.906   0.834   6.313 -0.7464  0.0775  2.0098
 2697SOL     OW 8946   6.602   0.219   2.360  0.0410 -0.7132 -0.6134
 2697SOL    HW1 8947   6.554   0.143   2.330 -1.2626 -0.2397  0.1913
 2697SOL    HW2 8948   6.671   0.231   2.295 -0.6444 -1.6794 -1.5550
 2698SOL     OW 8949   3.097   1.313   1.550  0.3260 -0.0071 -0.3875
 2698SOL    HW1 8950   3.062   1.394   1.586  1.7522  0.5701 -0.2496
 2698SOL    HW2 8951   3.184   1.336   1.517  1.3790 -1.7642  0.9463
 2699SOL     OW 8952   4.718   0.571   2.747 -0.4112 -0.0904 -0.0029
 2699SOL    HW1 8953   4.732   0.545   2.838 -2.1470  0.1064  0.3523
 2699SOL    HW2 8954   4.715   0.489   2.698 -2.9499 -0.4810  0.6802
 2700SOL     OW 8955   6.009   0.799   1.865  0.4240  0.0190  0.0595
 2700SOL    HW1 8956   6.095   0.818   1.829  0.7278  0.3007  0.9171
 2700SOL    HW2 8957   6.026   0.757   1.949 -0.2712  0.4846  0.4449
 2701SOL     OW 8958   6.885   6.839   6.880  0.1007  0.3602  0.1852
 2701SOL    HW1 8959   6.793   6.852   6.905 -0.8299  0.1091 -2.6246
 2701SOL    HW2 8960   6.892   6.745   6.863  0.2700  0.6180 -1.4112
 2702SOL     OW 8961   2.208   6.383   6.528 -0.7132  0.2466  0.3711
 2702SOL    HW1 8962   2.179   6.294   6.510 -0.0306 -0.4648  2.4920
 2702SOL    HW2 8963   2.152   6.413   6.600  0.4157  0.7367  1.0821
 2703SOL     OW 8964   2.744   6.975   7.987  0.0550  0.2939 -0.3490
 2703SOL    HW1 8965   2.792   6.973   7.904 -0.1423 -0.3967 -0.4519
 2703SOL    HW2 8966   2.662   7.019   7.966 -1.0826 -2.0834 -1.1327
 2704SOL     OW 8967   0.763   7.316   6.334 -0.3542 -0.3980  0.3200
 2704SOL    HW1 8968   0.758   7.347   6.425 -0.4248 -0.2559  0.2666
 2704SOL    HW2 8969   0.712   7.235   6.334 -0.9174 -0.0430  0.2519
 2705SOL     OW 8970   1.284   1.843   0.554 -0.3329 -0.4573  0.0439
 2705SOL    HW1 8971   1.273   1.904   0.481 -0.1589 -0.6142 -0.1147
 2705SOL    HW2 8972   1.337   1.772   0.518 -0.4795 -0.6704  0.2471
 2706SOL     OW 8973   4.298   0.164   4.653 -0.1369 -0.4941  0.0369
 2706SOL    HW1 8974   4.302   0.115   4.571 -0.2067 -1.7195  0.7554
 2706SOL    HW2 8975   4.329   0.252   4.629 -0.8177 -0.6217 -1.4461
 2707SOL     OW 8976   7.011   4.075   1.952 -0.2986  0.2470 -0.3399
 2707SOL    HW1 8977   7.081   4.046   1.893  1.9082  0.6530  1.9143
 2707SOL    HW2 8978   7.041   4.160   1.985 -2.4176  0.9504 -0.1140
 2708SOL     OW 8979   4.192   1.723   7.195  0.0780 -0.0762  0.5207
 2708SOL    HW1 8980   4.131   1.650   7.190 -2.2678  1.8362 -0.8288
 2708SOL    HW2 8981   4.278   1.683   7.190 -1.1168 -2.6520 -1.9209
 2709SOL     OW 8982   7.148   2.093   4.921  0.5559 -0.5893 -0.3032
 2709SOL    HW1 8983   7.058   2.060   4.925  1.3536 -2.8692  1.1025
 2709SOL    HW2 8984   7.140   2.187   4.937 -1.4676 -1.0351  2.0040
 2710SOL     OW 8985   1.507   3.985   5.190 -0.2582 -0.0799  0.5422
 2710SOL    HW1 8986   1.562   3.906   5.191  1.9894  1.3805  0.1098
 2710SOL    HW2 8987   1.490   4.003   5.283 -1.1127 -1.2404  0.6334
 2711SOL     OW 8988   1.496   0.962   6.808 -0.0238  0.3425 -0.1048
 2711SOL    HW1 8989   1.455   0.902   6.871  0.2320  1.2534  0.9536
 2711SOL    HW2 8990   1.446   1.043   6.817  1.8014  1.3999  1.0204
 2712SOL     OW 8991   0.335   6.914   6.529  1.4172 -0.2507 -0.1464
 2712SOL    HW1 8992   0.294   6.888   6.446 -0.9408 -0.6798  1.0566
 2712SOL    HW2 8993   0.416   6.864   6.533  0.4817 -1.9285 -1.1971
 2713SOL     OW 8994   1.956   4.176   1.522  0.4533  0.4060 -0.3381
 2713SOL    HW1 8995   1.894   4.123   1.472  1.1099  1.2627 -2.1412
 2713SOL    HW2 8996   1.900   4.229   1.580 -0.4729  0.5743 -1.3394
 2714SOL     OW 8997   1.641   5.905   3.605 -0.1909 -0.1394 -0.5651
 2714SOL    HW1 8998   1.718   5.922   3.551 -0.9986  2.2903 -1.0881
 2714SOL    HW2 8999   1.599   5.830   3.563  1.4173 -1.0066 -0.7357
 2715SOL     OW 9000   7.145   1.771   7.841 -0.0188 -0.1341 -0.0294
 2715SOL    HW1 9001   7.068   1.786   7.786 -0.1705  1.1145  0.4913
 2715SOL    HW2 9002   7.150   1.849   7.897  0.7694 -0.8717  0.9608
 2716SOL     OW 9003   2.038   0.617   3.840 -0.3586 -0.3376 -0.2935
 2716SOL    HW1 9004   2.094   0.549   3.878  0.2910 -0.2969 -1.1498
 2716SOL    HW2 9005   2.022   0.588   3.750 -0.1924  0.5666 -0.6284
 2717SOL     OW 9006   3.542   7.115   6.252 -0.1638 -0.0678  0.3416
 2717SOL    HW1 9007   3.448   7.124   6.239 -0.5670 -3.2222  0.4611
 2717SOL    HW2 9008   3.581   7.160   6.177 -1.8785 -1.1435 -1.2822
 2718SOL     OW 9009   2.881   4.631   6.520  0.3501  0.2289  0.2371
 2718SOL    HW1 9010   2.966   4.615   6.559 -0.0774 -0.1217  1.0532
 2718SOL    HW2 9011   2.895   4.704   6.460  1.3494 -0.2429 -0.1121
 2719SOL     OW 9012   2.761   2.570   5.087 -0.5332  0.1359  0.0480
 2719SOL    HW1 9013   2.672   2.536   5.094 -0.5818  0.3635  0.5607
 2719SOL    HW2 9014   2.786   2.554   4.996 -1.4152  0.8473 -0.3377
 2720SOL     OW 9015   6.456   7.556   3.702  0.0906 -0.0495 -0.3718
 2720SOL    HW1 9016   6.445   7.548   3.797 -0.1699 -0.2928 -0.4217
 2720SOL    HW2 9017   6.419   7.475   3.667  2.0453 -0.9371 -0.5428
 2721SOL     OW 9018   3.850   0.332   0.772 -0.4119  0.0385 -0.0427
 2721SOL    HW1 9019   3.778   0.368   0.721 -0.4535  0.2486  0.1614
 2721SOL    HW2 9020   3.816   0.328   0.862 -0.9156 -1.8268 -0.2714
 2722SOL     OW 9021   5.242   1.785   1.047 -0.1241 -0.3700  0.3613
 2722SOL    HW1 9022   5.219   1.854   0.985 -0.1374 -0.2267  0.5263
 2722SOL    HW2 9023   5.254   1.707   0.992 -0.1513 -0.2481  0.1803
 2723SOL     OW 9024   2.835   6.235   3.264 -0.2747 -0.4626 -0.0476
 2723SOL    HW1 9025   2.747   6.270   3.266  0.8145  2.6253 -0.8329
 2723SOL    HW2 9026   2.866   6.243   3.355 -0.0452  0.7307 -0.2132
 2724SOL     OW 9027   0.761   0.511   5.453 -0.1658  0.2924  0.1722
 2724SOL    HW1 9028   0.776   0.512   5.547 -0.9382 -0.4465  0.3223
 2724SOL    HW2 9029   0.811   0.435   5.422  1.3958  1.4601 -0.2765
 2725SOL     OW 9030   1.634   4.316   2.119 -0.3955  0.2667  0.5563
 2725SOL    HW1 9031   1.681   4.248   2.071  1.4703  1.0513  1.2180
 2725SOL    HW2 9032   1.661   4.305   2.210 -0.9609  1.1759  0.8472
 2726SOL     OW 9033   2.994   0.387   3.953 -0.1090  0.1538  0.8319
 2726SOL    HW1 9034   3.046   0.431   3.885 -1.2514 -1.4430 -1.2128
 2726SOL    HW2 9035   3.013   0.435   4.033  2.4002  1.2896 -0.3355
 2727SOL     OW 9036   3.647   1.727   2.263 -0.5652  0.1398 -0.1620
 2727SOL    HW1 9037   3.656   1.778   2.343 -0.9463  0.8280 -0.5528
 2727SOL    HW2 9038   3.737   1.709   2.236 -0.3236 -2.8022  2.0716
 2728SOL     OW 9039   7.995   7.440   3.844 -0.2406 -0.0807 -0.1281
 2728SOL    HW1 9040   7.960   7.400   3.765 -0.6792 -1.0412  0.5294
 2728SOL    HW2 9041   7.920   7.482   3.886  0.0406  0.6608 -0.3418
 2729SOL     OW 9042   2.557   4.426   5.224  0.1444 -0.7341 -0.5514
 2729SOL    HW1 9043   2.597   4.460   5.144 -1.2241 -0.4418 -1.1472
 2729SOL    HW2 9044   2.608   4.347   5.245  1.5126  0.0548 -0.8006
 2730SOL     OW 9045   1.733   2.945   5.921  0.2713  0.3064 -0.3659
 2730SOL    HW1 9046   1.650   2.976   5.885  0.6349  1.4172 -0.2892
 2730SOL    HW2 9047   1.730   2.969   6.013  0.5444  0.0567 -0.2906
 2731SOL     OW 9048   6.757   3.825   2.851  0.1591 -0.0914 -0.3398
 2731SOL    HW1 9049   6.722   3.909   2.883  0.5087 -0.3066  0.6483
 2731SOL    HW2 9050   6.847   3.822   2.886  0.1784 -0.8376 -0.4424
 2732SOL     OW 9051   1.059   3.075   5.650  0.5529 -0.3322  0.7646
 2732SOL    HW1 9052   1.155   3.075   5.649  0.5535 -0.2779 -0.1505
 2732SOL    HW2 9053   1.035   3.167   5.655  0.5552 -0.3267  0.6859
 2733SOL     OW 9054   0.844   7.638   2.324  0.4302  0.2896 -0.3429
 2733SOL    HW1 9055   0.908   7.568   2.335  0.6403 -0.0813 -3.1930
 2733SOL    HW2 9056   0.868   7.704   2.389  1.8525 -1.1247  0.6170
 2734SOL     OW 9057   2.640   7.273   0.846  0.6949  0.4897  0.1433
 2734SOL    HW1 9058   2.666   7.199   0.791 -0.7644 -0.8516  1.1832
 2734SOL    HW2 9059   2.657   7.245   0.935 -0.0390  1.3221  0.5657
 2735SOL     OW 9060   7.053   7.768   4.883  0.5840  0.0392 -0.5080
 2735SOL    HW1 9061   7.006   7.728   4.809  1.7360  0.5331 -1.5396
 2735SOL    HW2 9062   7.142   7.780   4.851  1.6614 -1.5704  1.6433
 2736SOL     OW 9063   0.349   3.610   6.355 -0.1943  0.0756  0.2361
 2736SOL    HW1 9064   0.434   3.608   6.311 -0.7642  1.3271 -1.0034
 2736SOL    HW2 9065   0.303   3.684   6.314 -1.4826  0.0753  1.6201
 2737SOL     OW 9066   1.294   0.652   1.413  0.0559 -0.4776  0.1002
 2737SOL    HW1 9067   1.257   0.734   1.445 -0.1322 -0.7271  0.5308
 2737SOL    HW2 9068   1.388   0.669   1.405  0.0955 -0.3840  0.7136
 2738SOL     OW 9069   4.462   6.249   6.903  0.2068 -0.4158 -0.1948
 2738SOL    HW1 9070   4.397   6.182   6.922 -0.2789  0.1177  0.0548
 2738SOL    HW2 9071   4.417   6.311   6.846 -0.0546  0.8456  1.3262
 2739SOL     OW 9072   6.319   4.670   6.757 -0.0564 -0.2873 -0.1302
 2739SOL    HW1 9073   6.373   4.701   6.685 -2.3564  1.6552 -1.1511
 2739SOL    HW2 9074   6.282   4.587   6.725 -1.2740  0.6906 -1.3729
 2740SOL     OW 9075   2.055   7.306   4.777 -0.4478  0.5700  0.4523
 2740SOL    HW1 9076   2.018   7.327   4.692 -0.5622 -2.0513 -0.2367
 2740SOL    HW2 9077   2.150   7.299   4.762 -0.2599  1.7415  0.9567
 2741SOL     OW 9078   2.386   4.411   1.381  0.0729  0.6098  0.3483
 2741SOL    HW1 9079   2.415   4.415   1.290  0.8904  0.4266  0.5903
 2741SOL    HW2 9080   2.306   4.359   1.378 -0.8950  2.0793 -0.4840
 2742SOL     OW 9081   7.572   3.889   5.902  0.2083  0.4988 -0.1184
 2742SOL    HW1 9082   7.620   3.969   5.923 -0.7119  1.4415 -1.4102
 2742SOL    HW2 9083   7.622   3.819   5.944 -0.2413  1.9224  3.0530
 2743SOL     OW 9084   2.620   0.650   3.926  0.3849  0.9788  0.0959
 2743SOL    HW1 9085   2.660   0.643   3.840  1.0974  1.5870  0.3713
 2743SOL    HW2 9086   2.552   0.582   3.926 -0.0044  1.3430 -1.1442
 2744SOL     OW 9087   5.294   7.895   0.054  0.0515  0.0515  0.4268
 2744SOL    HW1 9088   5.389   7.899   0.040 -0.0647  0.7861 -0.2582
 2744SOL    HW2 9089   5.271   7.984   0.081 -0.6256  0.2418 -0.7327
 2745SOL     OW 9090   3.222   5.295   0.132 -0.1199 -0.1619 -0.4570
 2745SOL    HW1 9091   3.261   5.220   0.088  0.7561 -1.9570  3.0167
 2745SOL    HW2 9092   3.280   5.311   0.207 -1.7005  2.3765  0.3297
 2746SOL     OW 9093   3.037   2.784   4.281 -0.0690  0.3007 -0.1983
 2746SOL    HW1 9094   3.093   2.710   4.306  1.0985  0.9386 -0.8041
 2746SOL    HW2 9095   2.958   2.774   4.333  0.6713 -0.5722  0.7964
 2747SOL     OW 9096   3.140   1.634   2.231 -0.5824  0.1443 -0.1293
 2747SOL    HW1 9097   3.216   1.640   2.174  1.2748  2.1047  2.2985
 2747SOL    HW2 9098   3.068   1.667   2.178  0.5516 -0.2175 -1.9972
 2748SOL     OW 9099   0.971   2.435   2.306 -0.7774 -0.0806  0.1782
 2748SOL    HW1 9100   1.014   2.478   2.233 -0.4511  0.9160  0.9410
 2748SOL    HW2 9101   0.950   2.347   2.273  0.7153 -0.1750 -0.6099
 2749SOL     OW 9102   5.975   0.068   3.479 -0.5560  0.2181  0.0228
 2749SOL    HW1 9103   6.003   0.042   3.391 -0.1817  0.2116  0.1419
 2749SOL    HW2 9104   6.014   0.003   3.537  0.1025  0.8341  0.2901
 2750SOL     OW 9105   6.180   0.765   1.252  0.3201  0.0892 -0.3131
 2750SOL    HW1 9106   6.107   0.785   1.195  1.3871  0.8071 -1.4725
 2750SOL    HW2 9107   6.180   0.670   1.259  0.7771 -0.1021 -2.3717
 2751SOL     OW 9108   3.033   6.168   5.143 -0.1708  0.1521  0.6253
 2751SOL    HW1 9109   3.073   6.254   5.130 -1.6723  0.6684 -0.8387
 2751SOL    HW2 9110   3.049   6.121   5.061  0.1162 -0.7699  1.1922
 2752SOL     OW 9111   5.892   6.499   4.137 -0.6630  0.0491  0.1311
 2752SOL    HW1 9112   5.927   6.418   4.100 -0.7285 -0.3152  0.8375
 2752SOL    HW2 9113   5.804   6.506   4.099 -0.2076  0.4448 -0.8804
 2753SOL     OW 9114   5.265   3.633   0.941 -0.0351  0.0938 -0.3703
 2753SOL    HW1 9115   5.282   3.553   0.989  0.3882  0.4470  0.0808
 2753SOL    HW2 9116   5.310   3.622   0.857  1.4447  0.5249  0.3378
 2754SOL     OW 9117   1.163   5.718   5.930  0.1112  0.3263 -0.5067
 2754SOL    HW1 9118   1.089   5.763   5.971 -0.2395 -1.5800  1.1149
 2754SOL    HW2 9119   1.136   5.704   5.839 -0.2954  2.1573 -0.7006
 2755SOL     OW 9120   5.856   5.533   1.598  0.1228  0.1952 -0.8023
 2755SOL    HW1 9121   5.827   5.619   1.567 -1.3626  0.4107  1.0069
 2755SOL    HW2 9122   5.805   5.470   1.547 -0.3819  0.4613 -0.6312
 2756SOL     OW 9123   4.277   5.585   4.627  0.3166  0.4357 -0.3075
 2756SOL    HW1 9124   4.232   5.522   4.684  0.4463  1.1388  0.5921
 2756SOL    HW2 9125   4.211   5.608   4.561 -0.1699  0.3490  0.1379
 2757SOL     OW 9126   3.366   5.606   0.575 -0.0986  0.5126 -0.6763
 2757SOL    HW1 9127   3.350   5.575   0.664  0.0315  1.5822 -0.2609
 2757SOL    HW2 9128   3.299   5.562   0.522  1.7612 -2.6530 -0.6513
 2758SOL     OW 9129   2.851   1.104   4.105 -0.0634  0.3601  0.2164
 2758SOL    HW1 9130   2.809   1.017   4.106  1.1536 -0.2961 -1.5432
 2758SOL    HW2 9131   2.931   1.092   4.156 -0.0144  0.5071  0.1737
 2759SOL     OW 9132   3.992   7.764   1.055  0.1300  0.0320  0.0926
 2759SOL    HW1 9133   4.034   7.819   0.989  0.2178 -1.9175 -1.5474
 2759SOL    HW2 9134   4.028   7.677   1.040 -0.7193 -0.7028  2.0054
 2760SOL     OW 9135   0.904   4.179   1.565  0.2740  0.6507  0.5810
 2760SOL    HW1 9136   0.995   4.208   1.562 -0.0104  1.5131 -0.0425
 2760SOL    HW2 9137   0.908   4.086   1.541  1.1110  0.3340  1.8387
 2761SOL     OW 9138   6.648   0.989   2.843 -0.4966 -0.0702  0.1217
 2761SOL    HW1 9139   6.735   0.995   2.802 -1.0899  1.5167 -1.0051
 2761SOL    HW2 9140   6.592   0.952   2.775 -0.7708 -0.8856  0.7728
 2762SOL     OW 9141   7.661   2.406   6.164  0.5924  0.3341 -0.1536
 2762SOL    HW1 9142   7.612   2.332   6.200  0.8309 -0.4516 -1.3828
 2762SOL    HW2 9143   7.664   2.470   6.235 -2.4693  0.5661 -0.1312
 2763SOL     OW 9144   0.021   3.640   7.897 -0.0981  0.2921  0.4094
 2763SOL    HW1 9145  -0.046   3.579   7.866 -0.0408  0.3039  0.2579
 2763SOL    HW2 9146   0.066   3.593   7.966  0.4268 -0.1246 -0.2005
 2764SOL     OW 9147   7.878   1.274   1.227  0.7581 -0.4096 -0.3563
 2764SOL    HW1 9148   7.882   1.230   1.142  3.1017  1.9837 -1.6262
 2764SOL    HW2 9149   7.957   1.244   1.273  1.5347  1.1638 -0.6131
 2765SOL     OW 9150   3.172   3.752   3.279 -0.5510 -0.5445  0.2548
 2765SOL    HW1 9151   3.195   3.664   3.249 -2.2743 -1.2373  0.7694
 2765SOL    HW2 9152   3.208   3.811   3.213 -0.1407 -1.6976 -0.5854
 2766SOL     OW 9153   4.537   3.912   5.051  0.4556  0.4366 -0.4497
 2766SOL    HW1 9154   4.535   3.995   5.003 -0.6128  0.8089  0.1969
 2766SOL    HW2 9155   4.630   3.897   5.069  0.6526  1.6041 -0.4038
 2767SOL     OW 9156   3.793   5.016   4.550 -0.3944  0.4514 -0.2898
 2767SOL    HW1 9157   3.746   5.015   4.467  1.1305  0.5614 -1.2024
 2767SOL    HW2 9158   3.795   5.108   4.576 -0.4750  0.4805 -0.3878
 2768SOL     OW 9159   4.783   5.758   3.945 -0.2763  0.0780  0.3700
 2768SOL    HW1 9160   4.724   5.684   3.961  0.9306 -1.1097 -0.4958
 2768SOL    HW2 9161   4.732   5.835   3.971 -2.0057 -0.9424  0.1589
 2769SOL     OW 9162   3.944   5.699   0.703 -0.2213 -0.4616 -0.1920
 2769SOL    HW1 9163   4.032   5.735   0.717 -0.8977  1.2929 -0.1585
 2769SOL    HW2 9164   3.929   5.642   0.778  0.3274  0.4085  0.6017
 2770SOL     OW 9165   1.588   7.849   3.292  0.1436 -0.5208 -0.7277
 2770SOL    HW1 9166   1.604   7.943   3.299  1.4957 -0.5381 -2.6263
 2770SOL    HW2 9167   1.493   7.841   3.284 -0.1205  0.5194  0.9379
 2771SOL     OW 9168   2.235   7.651   4.896  0.3198 -0.1325  0.2212
 2771SOL    HW1 9169   2.321   7.686   4.871  0.3897 -1.2829 -1.3079
 2771SOL    HW2 9170   2.175   7.688   4.832 -0.1920  0.0090  0.7794
 2772SOL     OW 9171   3.973   7.003   2.996 -0.1510 -0.0406  0.1737
 2772SOL    HW1 9172   4.037   6.950   3.044  0.2852  0.1329 -0.2043
 2772SOL    HW2 9173   4.003   6.999   2.905 -0.5004  0.3096  0.0410
 2773SOL     OW 9174   5.021   4.105   3.641 -0.1689  0.1286 -0.4760
 2773SOL    HW1 9175   4.932   4.107   3.678  0.6936 -0.3060  1.7628
 2773SOL    HW2 9176   5.076   4.148   3.707  1.4135 -0.3410 -1.4419
 2774SOL     OW 9177   4.888   6.909   4.693 -0.0123  0.6320 -0.1389
 2774SOL    HW1 9178   4.931   6.979   4.743 -0.0759  0.6792 -0.1504
 2774SOL    HW2 9179   4.802   6.945   4.671  0.4919  1.1228 -1.3902
 2775SOL     OW 9180   6.562   7.021   5.586 -0.0753 -0.1259 -0.8041
 2775SOL    HW1 9181   6.559   7.093   5.523 -0.9915 -0.1766 -0.8338
 2775SOL    HW2 9182   6.579   7.063   5.670  1.6975 -0.1072 -1.1323
 2776SOL     OW 9183   5.030   7.603   6.003  0.2515  0.4925  0.6647
 2776SOL    HW1 9184   5.048   7.509   6.012  0.9691  0.3732 -1.4636
 2776SOL    HW2 9185   4.937   7.607   5.979  0.6119  0.1596 -0.9105
 2777SOL     OW 9186   7.409   7.629   2.643  0.5331 -0.3575 -0.4679
 2777SOL    HW1 9187   7.347   7.693   2.676  2.1830  1.5145 -0.8113
 2777SOL    HW2 9188   7.422   7.568   2.716  2.2898  2.2975  1.6483
 2778SOL     OW 9189   0.443   0.781   6.735 -0.5826  0.2014 -0.0669
 2778SOL    HW1 9190   0.419   0.778   6.828  2.6179 -1.4456  0.8447
 2778SOL    HW2 9191   0.502   0.855   6.728  0.1249 -0.4022 -0.5139
 2779SOL     OW 9192   1.460   0.615   2.048  0.3125 -0.3836  0.5739
 2779SOL    HW1 9193   1.461   0.694   1.995 -0.2776 -0.1621  0.8873
 2779SOL    HW2 9194   1.385   0.565   2.014 -0.6504  0.1863  1.7988
 2780SOL     OW 9195   6.839   6.938   5.199 -0.3832 -0.2403 -0.1596
 2780SOL    HW1 9196   6.897   6.885   5.255  1.4317  2.2014  0.4533
 2780SOL    HW2 9197   6.887   6.948   5.117 -0.3593  0.9807 -0.0140
 2781SOL     OW 9198   0.756   0.351   2.354  0.2995  0.0779 -0.3719
 2781SOL    HW1 9199   0.795   0.300   2.283  0.4761  0.5151 -0.5886
 2781SOL    HW2 9200   0.821   0.419   2.373 -0.8144  1.5142 -1.4910
 2782SOL     OW 9201   4.379   7.048   5.058 -0.2026  0.1717 -1.0086
 2782SOL    HW1 9202   4.368   7.141   5.080 -3.2167 -0.3074 -0.0032
 2782SOL    HW2 9203   4.328   7.037   4.977  1.5096 -0.3402 -2.0695
 2783SOL     OW 9204   7.814   7.195   7.943  0.2055  0.7355  0.0135
 2783SOL    HW1 9205   7.767   7.177   8.025  0.2023  2.0682  0.3323
 2783SOL    HW2 9206   7.746   7.226   7.883 -0.0273 -1.4933 -0.9745
 2784SOL     OW 9207   5.971   7.336   4.494  0.4498 -0.1917  0.0566
 2784SOL    HW1 9208   5.889   7.336   4.544  0.6349  2.0869  0.4743
 2784SOL    HW2 9209   5.982   7.428   4.468  3.9328 -0.0104  1.7452
 2785SOL     OW 9210   7.971   5.121   4.722 -0.0133  0.4390  0.7206
 2785SOL    HW1 9211   7.888   5.088   4.687  0.1728  0.2723  0.4316
 2785SOL    HW2 9212   8.018   5.153   4.645  0.4851 -0.1173  0.7822
 2786SOL     OW 9213   3.613   3.596   5.210 -0.2370  0.1989 -0.2670
 2786SOL    HW1 9214   3.561   3.671   5.240  0.2177  0.5977 -0.4600
 2786SOL    HW2 9215   3.666   3.631   5.138 -1.3976 -0.7761 -1.6365
 2787SOL     OW 9216   2.929   6.154   6.245 -0.3621 -0.6166 -0.4689
 2787SOL    HW1 9217   2.901   6.083   6.188  0.1692  0.0541 -1.5889
 2787SOL    HW2 9218   2.939   6.229   6.187  0.8446 -0.0868  0.3914
 2788SOL     OW 9219   5.985   0.089   6.334  0.2585 -0.7534 -0.1193
 2788SOL    HW1 9220   5.991   0.084   6.239 -0.1604  0.1734 -0.2006
 2788SOL    HW2 9221   5.891   0.092   6.352  0.3171 -1.4025  0.3590
 2789SOL     OW 9222   0.756   3.385   0.310  0.0639  0.1399 -0.1661
 2789SOL    HW1 9223   0.728   3.312   0.255 -1.4683 -0.4890  1.3377
 2789SOL    HW2 9224   0.812   3.344   0.377  0.3145  0.5655 -0.1135
 2790SOL     OW 9225   2.088   1.447   0.639  0.5191  0.1687  0.6365
 2790SOL    HW1 9226   2.158   1.510   0.622  0.8037 -0.5326 -1.0414
 2790SOL    HW2 9227   2.023   1.496   0.688  1.6569  1.1729  1.1992
 2791SOL     OW 9228   5.887   2.687   6.042  0.3237 -0.4723  0.3083
 2791SOL    HW1 9229   5.884   2.698   5.947 -0.2109  1.0746  0.4703
 2791SOL    HW2 9230   5.939   2.761   6.073  0.4466 -0.9275  1.2408
 2792SOL     OW 9231   4.650   1.812   4.342  0.2768  0.0834  0.1227
 2792SOL    HW1 9232   4.632   1.817   4.248  1.3374 -1.1715 -0.1685
 2792SOL    HW2 9233   4.590   1.745   4.375  0.0671  0.3590  0.3134
 2793SOL     OW 9234   6.516   7.257   3.974 -0.1210  0.6162 -0.3955
 2793SOL    HW1 9235   6.420   7.258   3.980 -0.1971 -0.3566 -1.2870
 2793SOL    HW2 9236   6.537   7.177   3.926  1.1397  0.8792 -0.3220
 2794SOL     OW 9237   2.717   6.857   7.613  0.4258 -0.3458  0.2139
 2794SOL    HW1 9238   2.717   6.798   7.689 -0.4609  0.5471  0.9354
 2794SOL    HW2 9239   2.761   6.936   7.645  1.5044 -0.5589 -0.7110
 2795SOL     OW 9240   6.529   7.985   2.636 -0.1856 -0.2781 -0.0469
 2795SOL    HW1 9241   6.435   7.997   2.622 -0.2600 -1.0325 -0.2486
 2795SOL    HW2 9242   6.548   8.034   2.716 -0.9655 -0.9904  0.5944
 2796SOL     OW 9243   5.967   3.880   5.425 -0.1579  0.7279  0.4663
 2796SOL    HW1 9244   6.011   3.891   5.509  0.0887  0.2610  0.4000
 2796SOL    HW2 9245   5.880   3.846   5.447  0.3857 -0.7351  0.4696
 2797SOL     OW 9246   2.389   0.611   4.513 -0.1763 -0.5645  0.8096
 2797SOL    HW1 9247   2.305   0.654   4.498 -0.2703 -1.2567 -0.9766
 2797SOL    HW2 9248   2.377   0.523   4.478  1.4787 -0.4681 -0.1100
 2798SOL     OW 9249   6.768   2.519   4.571  0.5765 -0.2304  0.4214
 2798SOL    HW1 9250   6.738   2.434   4.603  0.3389 -0.3997 -0.2370
 2798SOL    HW2 9251   6.690   2.574   4.570  0.5314 -0.3002 -0.0981
 2799SOL     OW 9252   1.951   3.200   7.039  0.5077  0.2779  0.1811
 2799SOL    HW1 9253   1.926   3.284   7.077  2.7097  0.2941  1.7942
 2799SOL    HW2 9254   1.868   3.156   7.019 -0.7114  1.6182  2.0597
 2800SOL     OW 9255   2.765   1.525   0.380 -0.1830 -0.1941  0.3630
 2800SOL    HW1 9256   2.710   1.479   0.445  0.3775 -0.4856  0.6384
 2800SOL    HW2 9257   2.795   1.604   0.426 -2.1232  1.1315 -0.4966
 2801SOL     OW 9258   0.287   1.291   4.593  0.4624 -0.4174 -0.7699
 2801SOL    HW1 9259   0.220   1.356   4.615  1.3261 -0.1015  1.1337
 2801SOL    HW2 9260   0.319   1.260   4.677  4.3301  1.1458 -1.4194
 2802SOL     OW 9261   1.363   7.247   0.414  0.0678 -0.7087 -0.0379
 2802SOL    HW1 9262   1.301   7.175   0.424 -0.4719 -0.4456 -1.3337
 2802SOL    HW2 9263   1.396   7.239   0.325  2.7860 -1.4906  0.9630
 2803SOL     OW 9264   1.413   1.413   1.844 -0.0780  0.1984  0.0883
 2803SOL    HW1 9265   1.474   1.340   1.834 -1.4813 -0.9134 -0.6317
 2803SOL    HW2 9266   1.469   1.491   1.840  1.2639 -0.7667 -0.8140
 2804SOL     OW 9267   4.189   0.262   3.474  0.0522  0.2287 -0.4197
 2804SOL    HW1 9268   4.239   0.243   3.395  1.4333  1.5810  0.0657
 2804SOL    HW2 9269   4.150   0.348   3.459 -1.7749 -0.5798 -0.5767
 2805SOL     OW 9270   7.411   2.892   1.191 -0.2837  0.4228  0.3635
 2805SOL    HW1 9271   7.369   2.964   1.144 -0.1997  0.3678  0.2023
 2805SOL    HW2 9272   7.495   2.927   1.221  0.2332  0.0741 -0.6402
 2806SOL     OW 9273   2.592   6.560   2.114 -0.7269  0.3506  0.1534
 2806SOL    HW1 9274   2.553   6.641   2.147  0.5104  0.5942  1.0966
 2806SOL    HW2 9275   2.665   6.589   2.060 -0.0666 -0.1295  0.7733
 2807SOL     OW 9276   6.808   0.148   2.171  0.5545 -1.2581  0.3451
 2807SOL    HW1 9277   6.801   0.186   2.084  0.0733 -0.0165  0.9004
 2807SOL    HW2 9278   6.725   0.100   2.183  0.2560 -0.7231  0.4379
 2808SOL     OW 9279   1.023   5.711   3.894  0.4143  0.3900  0.1513
 2808SOL    HW1 9280   1.072   5.792   3.881 -0.4707  1.3097  2.2453
 2808SOL    HW2 9281   1.073   5.663   3.960 -1.2391  1.2154  2.1118
 2809SOL     OW 9282   6.614   2.968   1.356 -0.0642  0.1307 -0.4966
 2809SOL    HW1 9283   6.563   2.951   1.435 -1.4144 -0.3693 -1.4372
 2809SOL    HW2 9284   6.548   2.988   1.289  0.9913 -0.2069 -1.6757
 2810SOL     OW 9285   7.441   1.264   1.831  0.4298  0.1907  0.5656
 2810SOL    HW1 9286   7.523   1.311   1.849  0.3647  0.6424 -0.2713
 2810SOL    HW2 9287   7.385   1.286   1.905  0.8114  0.4819  0.7751
 2811SOL     OW 9288   1.455   4.699   0.569  0.2225  0.1179  0.6634
 2811SOL    HW1 9289   1.477   4.731   0.656  0.1487  3.3829 -0.3812
 2811SOL    HW2 9290   1.528   4.642   0.545  1.5646  1.2546  1.8612
 2812SOL     OW 9291   2.254   7.194   3.277  1.1242  0.1448 -0.4292
 2812SOL    HW1 9292   2.339   7.166   3.310  0.1240 -1.8005  0.6917
 2812SOL    HW2 9293   2.238   7.136   3.202  0.8455  0.5797 -0.7090
 2813SOL     OW 9294   0.406   5.209   5.892 -0.1636  0.4054  0.0765
 2813SOL    HW1 9295   0.390   5.186   5.801  0.8068  2.9423 -0.8107
 2813SOL    HW2 9296   0.336   5.270   5.915 -0.3023 -0.0717  1.0037
 2814SOL     OW 9297   3.305   6.509   0.350 -0.6901  0.0418 -0.1116
 2814SOL    HW1 9298   3.260   6.588   0.380  0.4706  0.3350  0.9340
 2814SOL    HW2 9299   3.391   6.513   0.391 -0.6257 -1.8072  0.0186
 2815SOL     OW 9300   3.280   4.289   4.896  0.1772 -0.1675 -0.3506
 2815SOL    HW1 9301   3.292   4.194   4.893  1.0862 -0.0573 -0.3489
 2815SOL    HW2 9302   3.316   4.316   4.980 -0.5213  0.1243 -0.1409
 2816SOL     OW 9303   4.646   3.023   0.196  0.3614  0.5251 -0.5049
 2816SOL    HW1 9304   4.723   3.079   0.209 -0.3812  1.4058  0.3048
 2816SOL    HW2 9305   4.592   3.039   0.274  0.0919 -1.3034 -0.2839
 2817SOL     OW 9306   0.547   5.840   5.162 -0.0177  0.6904  0.2572
 2817SOL    HW1 9307   0.534   5.935   5.160 -0.7019  0.5908 -0.6142
 2817SOL    HW2 9308   0.517   5.810   5.076  3.5636  0.0809 -0.9185
 2818SOL     OW 9309   0.138   0.699   1.424  0.0128 -0.6352  0.0413
 2818SOL    HW1 9310   0.060   0.693   1.369 -0.3303 -2.9185  0.6846
 2818SOL    HW2 9311   0.113   0.654   1.505  1.1811  0.8599  1.2858
 2819SOL     OW 9312   0.597   1.702   7.836 -0.2710 -0.5510  0.3977
 2819SOL    HW1 9313   0.508   1.676   7.861 -0.1203 -1.9335 -0.4500
 2819SOL    HW2 9314   0.613   1.782   7.887 -2.0116 -0.2346  0.5247
 2820SOL     OW 9315   4.932   5.683   0.618  0.1553 -0.0748  0.5472
 2820SOL    HW1 9316   4.974   5.655   0.536 -1.2069  2.4890 -1.2023
 2820SOL    HW2 9317   4.912   5.602   0.664  1.9083 -1.5863 -1.1558
 2821SOL     OW 9318   5.204   1.364   3.689 -0.4239 -0.1439  0.1022
 2821SOL    HW1 9319   5.170   1.426   3.624  1.3042 -0.9695 -1.6829
 2821SOL    HW2 9320   5.187   1.278   3.650  1.7845 -0.6221  0.0817
 2822SOL     OW 9321   5.266   5.192   0.942 -0.0045 -0.1696 -0.1018
 2822SOL    HW1 9322   5.315   5.265   0.906  0.2198  0.7309  1.8837
 2822SOL    HW2 9323   5.203   5.169   0.874 -0.3227  2.1072 -0.6655
 2823SOL     OW 9324   4.885   0.551   1.342 -0.2521  0.2422  0.4111
 2823SOL    HW1 9325   4.897   0.516   1.254  0.2185  1.0792  0.1321
 2823SOL    HW2 9326   4.803   0.511   1.373 -0.6970  0.3466 -0.6003
 2824SOL     OW 9327   3.020   6.099   7.730 -0.3692  0.1840 -0.5794
 2824SOL    HW1 9328   2.943   6.126   7.780 -0.7894 -0.2991 -0.9465
 2824SOL    HW2 9329   3.023   6.004   7.741  0.2917  0.2257 -0.4088
 2825SOL     OW 9330   6.692   5.794   3.668  0.1052  0.5494  0.4078
 2825SOL    HW1 9331   6.626   5.785   3.600  0.0403 -0.1432  0.5473
 2825SOL    HW2 9332   6.735   5.708   3.670 -0.8295  0.0741  2.1953
 2826SOL     OW 9333   1.101   4.861   5.376 -0.1282  0.1075 -0.3432
 2826SOL    HW1 9334   1.048   4.787   5.347 -0.6031  0.5719 -0.6749
 2826SOL    HW2 9335   1.114   4.846   5.470 -1.0311  0.1005 -0.2123
 2827SOL     OW 9336   5.794   5.916   0.683 -0.6389  0.4117 -0.3853
 2827SOL    HW1 9337   5.828   5.842   0.732 -2.1600 -1.4233 -1.9137
 2827SOL    HW2 9338   5.872   5.966   0.658  0.5945 -1.4456 -0.4847
 2828SOL     OW 9339   2.256   0.584   7.018  0.4547 -0.0361 -0.2052
 2828SOL    HW1 9340   2.215   0.551   6.938  1.3322 -1.3597 -0.1390
 2828SOL    HW2 9341   2.197   0.556   7.088  0.3591 -0.0196 -0.2778
 2829SOL     OW 9342   1.193   2.071   4.162 -0.2513 -0.2454  0.3627
 2829SOL    HW1 9343   1.264   2.079   4.226  1.2401 -1.7758 -1.0149
 2829SOL    HW2 9344   1.150   1.988   4.184  0.2861 -0.7949 -0.5771
 2830SOL     OW 9345   1.450   4.434   7.766 -0.2942  0.0787 -0.6236
 2830SOL    HW1 9346   1.520   4.398   7.821 -0.0349  1.2674 -0.1426
 2830SOL    HW2 9347   1.393   4.360   7.748  1.0433 -0.9181 -0.9609
 2831SOL     OW 9348   7.786   1.529   7.978 -0.0925  0.0352  0.3568
 2831SOL    HW1 9349   7.696   1.549   7.951  0.0850 -0.3855 -0.5707
 2831SOL    HW2 9350   7.781   1.522   8.073 -1.3109 -1.2673  0.2276
 2832SOL     OW 9351   0.361   0.440   7.475  0.7000  0.5517 -0.1685
 2832SOL    HW1 9352   0.272   0.462   7.446 -0.0443 -0.4331  1.2179
 2832SOL    HW2 9353   0.398   0.524   7.502 -1.0928  0.6231  2.4591
 2833SOL     OW 9354   2.206   5.567   3.945 -0.7259 -0.4710  0.7531
 2833SOL    HW1 9355   2.194   5.631   4.015 -0.7735  0.8716 -0.4446
 2833SOL    HW2 9356   2.158   5.603   3.871  0.0596 -1.4173 -0.2532
 2834SOL     OW 9357   6.230   2.454   2.030  0.6625 -0.1043  0.3739
 2834SOL    HW1 9358   6.248   2.441   2.123  0.3844 -1.9558  0.1963
 2834SOL    HW2 9359   6.308   2.420   1.986  0.6720  0.4995 -0.0840
 2835SOL     OW 9360   6.935   0.006   6.267 -0.6797  0.3658 -0.1831
 2835SOL    HW1 9361   6.939   0.089   6.315 -2.3330  0.4222 -0.0806
 2835SOL    HW2 9362   6.944   0.031   6.175 -0.1262  0.5298 -0.0909
 2836SOL     OW 9363   1.361   7.833   4.247 -0.1166 -0.3195  0.0871
 2836SOL    HW1 9364   1.269   7.810   4.230 -1.2498  2.6233  1.5455
 2836SOL    HW2 9365   1.388   7.771   4.315 -1.4125 -0.5099  0.4750
 2837SOL     OW 9366   6.257   3.045   4.069 -1.0756  0.1629 -0.3476
 2837SOL    HW1 9367   6.175   3.092   4.051 -1.2955 -0.4190 -0.8882
 2837SOL    HW2 9368   6.253   3.026   4.163 -0.7095  1.7214  0.0012
 2838SOL     OW 9369   3.976   3.527   4.571  0.0894 -0.8424 -0.1542
 2838SOL    HW1 9370   4.035   3.556   4.640  0.6588  0.3349 -1.0845
 2838SOL    HW2 9371   3.893   3.510   4.615  0.3409  0.2437  0.7846
 2839SOL     OW 9372   6.823   4.285   1.126 -0.1767 -0.3897  0.7962
 2839SOL    HW1 9373   6.823   4.207   1.070  0.9078  0.0651  0.1457
 2839SOL    HW2 9374   6.828   4.358   1.065 -0.1657  0.1610  1.4458
 2840SOL     OW 9375   5.634   5.768   5.771  0.4869  0.1805  0.7453
 2840SOL    HW1 9376   5.562   5.705   5.779  0.9423 -0.6527 -1.1002
 2840SOL    HW2 9377   5.599   5.850   5.804 -1.2897 -0.2348 -0.0073
 2841SOL     OW 9378   6.878   1.321   0.054 -0.0669 -0.2864 -0.0985
 2841SOL    HW1 9379   6.895   1.276  -0.029  0.8489 -1.3546  0.6315
 2841SOL    HW2 9380   6.787   1.349   0.048  0.1264  0.1179 -1.6643
 2842SOL     OW 9381   3.184   2.111   2.402  0.1486 -0.1356  0.5988
 2842SOL    HW1 9382   3.131   2.049   2.352 -0.6922 -0.7825  2.2335
 2842SOL    HW2 9383   3.259   2.059   2.432  0.7561  0.3016 -0.1229
 2843SOL     OW 9384   3.894   5.420   5.559  0.3562  0.0958 -0.1615
 2843SOL    HW1 9385   3.900   5.459   5.472  1.1608  1.1308  0.3289
 2843SOL    HW2 9386   3.976   5.371   5.570 -0.3237 -1.1514 -0.4830
 2844SOL     OW 9387   0.872   2.397   3.578 -0.7466  0.0792  0.5174
 2844SOL    HW1 9388   0.950   2.367   3.626 -0.2424 -0.7115 -0.7200
 2844SOL    HW2 9389   0.905   2.418   3.490 -1.9567 -0.4363 -0.0836
 2845SOL     OW 9390   2.408   7.105   4.172  0.3202 -0.2871  0.0267
 2845SOL    HW1 9391   2.331   7.111   4.228  1.3685  2.9482  1.3271
 2845SOL    HW2 9392   2.475   7.066   4.227  0.4133 -0.4047 -0.1674
 2846SOL     OW 9393   6.391   6.461   5.838 -0.1964  0.1117  0.1045
 2846SOL    HW1 9394   6.402   6.366   5.832 -0.1451  0.0419  1.1431
 2846SOL    HW2 9395   6.450   6.496   5.772  1.9900 -0.4720  1.6446
 2847SOL     OW 9396   3.263   0.813   6.777 -0.4807  0.1727 -0.0078
 2847SOL    HW1 9397   3.218   0.731   6.759  0.8563 -0.6097  0.0416
 2847SOL    HW2 9398   3.250   0.828   6.870 -0.2642 -0.2946  0.1028
 2848SOL     OW 9399   3.551   0.549   3.903 -0.6313  0.7329  0.3599
 2848SOL    HW1 9400   3.521   0.469   3.859 -0.0775  0.3636  0.6428
 2848SOL    HW2 9401   3.487   0.563   3.973  0.3351 -0.5912  1.5693
 2849SOL     OW 9402   6.437   0.721   2.329  0.0635  0.4106 -0.1738
 2849SOL    HW1 9403   6.437   0.641   2.383 -0.1812  1.4420  1.4300
 2849SOL    HW2 9404   6.521   0.719   2.284 -0.2092 -1.0676 -0.6963
 2850SOL     OW 9405   4.779   6.424   1.100 -0.0140 -0.1197  0.3073
 2850SOL    HW1 9406   4.831   6.347   1.079 -1.4581 -0.7809 -1.1138
 2850SOL    HW2 9407   4.836   6.498   1.082  0.7603 -0.8370 -0.2309
 2851SOL     OW 9408   6.602   1.074   3.379 -0.0525 -0.1325 -0.0060
 2851SOL    HW1 9409   6.666   1.013   3.416  0.4496 -0.2089 -0.9677
 2851SOL    HW2 9410   6.620   1.073   3.285 -0.4858  0.9837 -0.1133
 2852SOL     OW 9411   7.387   1.002   4.528 -0.6628 -0.3208 -0.0997
 2852SOL    HW1 9412   7.296   0.975   4.515 -0.7549 -1.2956  2.1671
 2852SOL    HW2 9413   7.404   0.985   4.620  1.4072  1.1706 -0.1445
 2853SOL     OW 9414   3.369   5.555   1.318 -1.1854  0.2998  0.2927
 2853SOL    HW1 9415   3.291   5.602   1.348 -1.2761 -0.2015  0.8604
 2853SOL    HW2 9416   3.337   5.500   1.246 -1.0614  1.1450 -0.4396
 2854SOL     OW 9417   4.207   7.453   5.708 -0.2964 -0.4971  0.6142
 2854SOL    HW1 9418   4.257   7.413   5.637 -1.6004 -0.1317 -0.5694
 2854SOL    HW2 9419   4.198   7.545   5.683 -0.9274 -0.3964  1.1653
 2855SOL     OW 9420   4.710   1.602   0.518 -0.4589 -0.2108 -0.2390
 2855SOL    HW1 9421   4.751   1.609   0.432 -0.4287 -1.7554 -0.3796
 2855SOL    HW2 9422   4.631   1.550   0.503 -0.3251 -0.7132  0.6995
 2856SOL     OW 9423   7.260   5.031   1.175  0.2776  0.3507  0.1336
 2856SOL    HW1 9424   7.233   4.996   1.260 -0.9494  2.0441  0.5042
 2856SOL    HW2 9425   7.266   5.126   1.189 -1.8963  0.9259 -2.1363
 2857SOL     OW 9426   2.765   7.892   2.811 -0.1092  0.3524 -0.4902
 2857SOL    HW1 9427   2.750   7.868   2.903 -1.8684 -0.0853 -0.8436
 2857SOL    HW2 9428   2.777   7.808   2.766  1.1513  0.5835 -0.6270
 2858SOL     OW 9429   4.835   1.301   5.873 -0.1529  0.5781 -0.1312
 2858SOL    HW1 9430   4.916   1.250   5.864 -0.4356  0.1468 -0.2321
 2858SOL    HW2 9431   4.796   1.300   5.786 -0.3625  0.6358 -0.0379
 2859SOL     OW 9432   4.241   2.811   1.887 -0.0177 -0.4883 -0.7779
 2859SOL    HW1 9433   4.167   2.870   1.878 -0.3845 -0.8950 -0.4731
 2859SOL    HW2 9434   4.208   2.738   1.940  0.6831 -0.5239 -0.3746
 2860SOL     OW 9435   5.630   3.293   5.987 -0.3717 -0.0637  0.4100
 2860SOL    HW1 9436   5.577   3.339   5.922 -0.2962  0.3912  0.6647
 2860SOL    HW2 9437   5.566   3.241   6.036 -0.6144  0.5844  0.8023
 2861SOL     OW 9438   1.021   4.725   4.364  0.6353  0.1109  0.1178
 2861SOL    HW1 9439   1.096   4.773   4.401  0.4287  0.0851  0.5792
 2861SOL    HW2 9440   0.964   4.794   4.330  0.9771  0.1184 -0.4478
 2862SOL     OW 9441   3.587   3.962   2.657  0.5029  0.5420 -0.3704
 2862SOL    HW1 9442   3.587   3.973   2.562  2.7807 -0.5858 -0.5808
 2862SOL    HW2 9443   3.656   3.897   2.673  0.4529  0.9997  2.0842
 2863SOL     OW 9444   4.736   0.423   6.641  0.4486  0.9332 -0.1660
 2863SOL    HW1 9445   4.790   0.450   6.568 -0.0946  0.8108 -0.6244
 2863SOL    HW2 9446   4.647   0.446   6.615 -0.1004 -1.5282 -0.7454
 2864SOL     OW 9447   3.620   2.711   2.393 -0.3671  1.3481 -0.1301
 2864SOL    HW1 9448   3.556   2.724   2.323 -1.3620 -1.8931  0.0243
 2864SOL    HW2 9449   3.604   2.622   2.424  2.1439  1.5531  2.1176
 2865SOL     OW 9450   6.039   0.152   3.954  0.9981  0.3774 -0.2656
 2865SOL    HW1 9451   6.127   0.189   3.945  1.7141 -1.4842 -1.3889
 2865SOL    HW2 9452   6.042   0.071   3.903 -1.2844  0.1137 -0.0586
 2866SOL     OW 9453   5.943   4.578   2.801  0.1879 -0.1958  0.6765
 2866SOL    HW1 9454   5.902   4.551   2.883 -0.3051  1.1125  0.8819
 2866SOL    HW2 9455   5.893   4.654   2.773  0.2515 -0.7060 -0.9324
 2867SOL     OW 9456   0.246   3.884   4.336 -0.0997  0.2912 -0.5798
 2867SOL    HW1 9457   0.284   3.971   4.343 -1.9897  1.0698  1.0111
 2867SOL    HW2 9458   0.268   3.842   4.419 -1.7799  0.4065 -0.0501
 2868SOL     OW 9459   2.663   0.554   1.305 -0.2911 -0.3610  0.4676
 2868SOL    HW1 9460   2.615   0.503   1.370 -1.5729  0.1431 -0.0438
 2868SOL    HW2 9461   2.726   0.493   1.267  0.2533 -0.7517  1.9306
 2869SOL     OW 9462   3.144   3.148   1.905 -0.5812 -0.1227 -0.9154
 2869SOL    HW1 9463   3.235   3.149   1.878 -0.7916  0.0148 -1.6382
 2869SOL    HW2 9464   3.124   3.056   1.919 -0.0675 -0.0863  0.2070
 2870SOL     OW 9465   3.940   1.850   6.964 -0.8897 -0.4416  0.2256
 2870SOL    HW1 9466   3.973   1.760   6.970  0.0204 -0.1378  0.0082
 2870SOL    HW2 9467   3.882   1.849   6.888  0.9672 -0.3247 -1.2899
 2871SOL     OW 9468   0.072   0.812   3.195 -0.1123  0.1444  0.8867
 2871SOL    HW1 9469   0.163   0.826   3.168 -0.7920  0.5765 -1.4767
 2871SOL    HW2 9470   0.075   0.807   3.290  2.1449  2.0912  1.0116
 2872SOL     OW 9471   5.864   2.612   2.900 -0.1548  0.0788  0.2965
 2872SOL    HW1 9472   5.803   2.561   2.847  0.7658 -0.8610  0.1012
 2872SOL    HW2 9473   5.856   2.701   2.866 -1.2805 -0.0579  0.1692
 2873SOL     OW 9474   0.551   0.556   6.017  0.2124 -0.2946 -0.3639
 2873SOL    HW1 9475   0.536   0.616   5.945 -1.0756 -0.2995 -0.1153
 2873SOL    HW2 9476   0.625   0.594   6.065  0.0771  0.5250 -0.7964
 2874SOL     OW 9477   2.362   6.448   6.770 -0.6369 -0.4874 -0.0223
 2874SOL    HW1 9478   2.295   6.383   6.791 -1.3392 -0.1116 -0.9867
 2874SOL    HW2 9479   2.367   6.505   6.847 -1.8722 -0.1616 -0.1689
 2875SOL     OW 9480   7.135   6.942   7.755  0.0142  0.2090  0.2798
 2875SOL    HW1 9481   7.081   6.918   7.680  0.0461  0.4273  0.1861
 2875SOL    HW2 9482   7.072   6.966   7.823 -0.0086  0.6601  0.1055
 2876SOL     OW 9483   7.290   7.220   6.172  0.0687  0.4123  0.3029
 2876SOL    HW1 9484   7.242   7.282   6.227 -0.2264  0.0109  0.5072
 2876SOL    HW2 9485   7.338   7.165   6.234  1.3323  1.2236  0.0835
 2877SOL     OW 9486   0.989   5.889   6.541 -0.1022  0.6136 -0.8817
 2877SOL    HW1 9487   1.001   5.847   6.626 -0.6023  2.0223 -0.0909
 2877SOL    HW2 9488   0.916   5.842   6.500 -0.9346  0.9759  0.1611
 2878SOL     OW 9489   0.278   2.841   5.604  0.2719 -0.4450  0.6361
 2878SOL    HW1 9490   0.330   2.824   5.683  1.8668  1.0362 -0.0316
 2878SOL    HW2 9491   0.307   2.927   5.575 -0.9618 -0.5615 -1.0701
 2879SOL     OW 9492   6.153   1.912   5.470 -0.2587 -0.2505 -0.5296
 2879SOL    HW1 9493   6.103   1.959   5.537 -1.5707 -0.3863 -1.3755
 2879SOL    HW2 9494   6.209   1.853   5.520  0.3396  1.1165  0.5040
 2880SOL     OW 9495   4.579   0.559   1.630 -0.6746 -0.4678 -0.0481
 2880SOL    HW1 9496   4.568   0.645   1.591  2.1405 -0.3518 -0.8406
 2880SOL    HW2 9497   4.582   0.576   1.724 -0.7749  0.2302 -0.1675
 2881SOL     OW 9498   1.733   7.557   1.061  0.1238 -0.7342 -0.0547
 2881SOL    HW1 9499   1.710   7.616   0.989 -1.8891 -1.9432 -0.4788
 2881SOL    HW2 9500   1.651   7.544   1.108  1.3844  0.0177  2.5297
 2882SOL     OW 9501   1.748   0.357   7.774  1.0511  0.3652  0.1280
 2882SOL    HW1 9502   1.808   0.296   7.731  1.4831  1.3887 -0.7701
 2882SOL    HW2 9503   1.769   0.350   7.867  1.3254 -0.5970  0.0017
 2883SOL     OW 9504   2.493   0.027   1.213 -0.4298  0.3141  0.0358
 2883SOL    HW1 9505   2.422   0.065   1.265 -0.0544 -1.5657  2.0654
 2883SOL    HW2 9506   2.451  -0.003   1.132 -1.5647  0.9480  0.3739
 2884SOL     OW 9507   6.040   7.366   0.241  0.1894  0.2440 -0.0840
 2884SOL    HW1 9508   5.992   7.397   0.164 -0.3348 -1.6071 -0.5500
 2884SOL    HW2 9509   6.127   7.405   0.231 -0.7935  2.6829  0.1518
 2885SOL     OW 9510   5.673   6.793   7.322 -0.3329  0.5574  1.1143
 2885SOL    HW1 9511   5.620   6.734   7.375 -2.1757  1.9965  0.9858
 2885SOL    HW2 9512   5.735   6.831   7.383  0.1245 -0.6449  1.4238
 2886SOL     OW 9513   4.884   2.362   1.899  0.4032  0.3268 -0.1115
 2886SOL    HW1 9514   4.925   2.283   1.932  0.2621 -0.3744 -1.5333
 2886SOL    HW2 9515   4.792   2.339   1.886  0.4668  0.5396 -1.0299
 2887SOL     OW 9516   2.574   7.932   7.315  0.0024 -0.1194 -0.3248
 2887SOL    HW1 9517   2.523   7.880   7.377  0.1793 -1.6692 -1.4127
 2887SOL    HW2 9518   2.642   7.973   7.368 -0.8855 -0.0107  0.7542
 2888SOL     OW 9519   0.812   1.448   4.219  0.3220 -0.5774  0.3695
 2888SOL    HW1 9520   0.869   1.500   4.162  3.0944 -3.5844  0.1469
 2888SOL    HW2 9521   0.849   1.460   4.307 -0.6547 -0.1748  0.7434
 2889SOL     OW 9522   1.069   5.328   5.239  0.0903  0.2212  0.3006
 2889SOL    HW1 9523   1.102   5.335   5.150 -1.7743  0.8509 -0.3954
 2889SOL    HW2 9524   1.006   5.256   5.236 -0.9731  1.0894  0.7312
 2890SOL     OW 9525   5.559   2.627   7.066  0.5434 -0.5240  0.1889
 2890SOL    HW1 9526   5.548   2.590   7.154  2.3936 -3.1630 -0.5630
 2890SOL    HW2 9527   5.576   2.551   7.010  2.0464  1.2828 -1.9803
 2891SOL     OW 9528   0.934   4.679   2.017  0.4882 -0.4163  0.2300
 2891SOL    HW1 9529   0.923   4.773   2.034 -0.3436 -0.4015 -0.3329
 2891SOL    HW2 9530   1.015   4.656   2.062  0.9708  0.6814 -0.0380
 2892SOL     OW 9531   6.280   5.556   6.884 -0.0154 -0.1682  0.1180
 2892SOL    HW1 9532   6.350   5.540   6.947  0.6917 -0.2563 -0.6747
 2892SOL    HW2 9533   6.249   5.469   6.860 -1.6599 -0.1155  1.8063
 2893SOL     OW 9534   6.652   6.130   5.342 -0.0936  0.1774  0.5160
 2893SOL    HW1 9535   6.577   6.132   5.401 -0.7968 -1.3501 -0.2563
 2893SOL    HW2 9536   6.616   6.099   5.259  1.4861 -1.1215  0.2674
 2894SOL     OW 9537   7.677   6.407   5.755  0.5460 -0.5266  0.5712
 2894SOL    HW1 9538   7.687   6.496   5.788  0.3237  0.0587 -0.8324
 2894SOL    HW2 9539   7.752   6.394   5.696 -0.5846 -0.3950 -0.9761
 2895SOL     OW 9540   4.119   2.045   4.052 -0.0935  0.2695 -0.2466
 2895SOL    HW1 9541   4.164   1.982   4.109 -0.7029 -0.0987 -0.1622
 2895SOL    HW2 9542   4.188   2.080   3.996  0.7434  1.4566  1.4315
 2896SOL     OW 9543   3.922   6.507   1.208  0.7069  0.4267 -0.1575
 2896SOL    HW1 9544   3.869   6.427   1.212  0.3520  0.5222 -2.0595
 2896SOL    HW2 9545   3.955   6.518   1.297 -0.1598 -1.2056  0.4123
 2897SOL     OW 9546   2.402   5.477   5.201  0.0253 -0.4239  0.2006
 2897SOL    HW1 9547   2.422   5.388   5.172  1.1773 -0.0041 -0.3535
 2897SOL    HW2 9548   2.425   5.532   5.126 -0.8878  0.3303  0.4534
 2898SOL     OW 9549   7.624   5.785   1.779 -0.8442 -0.0348  0.2182
 2898SOL    HW1 9550   7.545   5.744   1.813 -0.8328 -1.3547 -1.2423
 2898SOL    HW2 9551   7.650   5.730   1.705 -0.0293  1.8305 -0.9619
 2899SOL     OW 9552   7.135   3.197   5.812 -0.3887 -0.4725 -0.6054
 2899SOL    HW1 9553   7.096   3.221   5.728 -1.5558  1.8471  0.5154
 2899SOL    HW2 9554   7.172   3.278   5.846  1.7330 -1.7343  0.3452
 2900SOL     OW 9555   0.745   4.437   2.622 -0.2605  0.2545 -0.3582
 2900SOL    HW1 9556   0.667   4.385   2.646 -0.4319 -0.3071 -2.0215
 2900SOL    HW2 9557   0.711   4.524   2.604 -0.2338  0.4796  0.5886
 2901SOL     OW 9558   5.014   3.541   5.267 -0.1024  0.0810 -0.1680
 2901SOL    HW1 9559   5.109   3.529   5.271 -0.4729 -3.2339  1.8700
 2901SOL    HW2 9560   4.991   3.521   5.176  0.9936 -0.7795 -0.2745
 2902SOL     OW 9561   4.193   5.654   1.536  0.1853 -0.2100 -0.5029
 2902SOL    HW1 9562   4.236   5.568   1.543 -1.6004 -1.3702 -2.5297
 2902SOL    HW2 9563   4.104   5.639   1.567  0.2255  1.3209  0.4643
 2903SOL     OW 9564   0.696   3.708   0.097  0.1205  0.3105 -0.0094
 2903SOL    HW1 9565   0.713   3.733   0.006  0.2431 -0.5983 -0.2407
 2903SOL    HW2 9566   0.705   3.613   0.098 -2.3812  0.0130  0.4067
 2904SOL     OW 9567   0.170   6.687   3.003 -0.4531  0.6240 -0.1744
 2904SOL    HW1 9568   0.206   6.648   3.082 -0.7891  1.5104  0.4319
 2904SOL    HW2 9569   0.244   6.695   2.943 -0.5350 -1.7365 -0.6715
 2905SOL     OW 9570   0.090   1.172   5.352  0.2280  0.5526 -0.0899
 2905SOL    HW1 9571   0.035   1.188   5.275  2.7901  4.6364 -1.4375
 2905SOL    HW2 9572   0.141   1.094   5.330  0.3729  1.2092 -2.2705
 2906SOL     OW 9573   5.631   6.420   7.629 -0.1846  0.0690  0.0547
 2906SOL    HW1 9574   5.640   6.335   7.671 -1.4007  0.3002  0.8425
 2906SOL    HW2 9575   5.694   6.476   7.674 -1.7755  0.4323  1.9922
 2907SOL     OW 9576   7.239   4.069   0.425 -0.1744 -0.1713 -0.1028
 2907SOL    HW1 9577   7.255   4.005   0.494  0.0275  0.4438  0.4304
 2907SOL    HW2 9578   7.325   4.103   0.403 -0.2540 -0.2605 -0.5547
 2908SOL     OW 9579   3.310   5.135   6.644 -0.8415 -0.2361  0.2111
 2908SOL    HW1 9580   3.402   5.110   6.649 -0.6060  0.5936  0.2202
 2908SOL    HW2 9581   3.263   5.054   6.624 -0.0417 -0.5438 -0.4500
 2909SOL     OW 9582   3.499   6.935   3.069 -0.2820 -0.1551 -0.2613
 2909SOL    HW1 9583   3.587   6.924   3.103 -0.3128  0.8349  0.1635
 2909SOL    HW2 9584   3.510   6.943   2.974 -0.0180 -1.0228 -0.3103
 2910SOL     OW 9585   3.336   4.378   2.233 -0.2661  0.2184  0.0009
 2910SOL    HW1 9586   3.282   4.343   2.162 -1.6292  1.2429  0.4873
 2910SOL    HW2 9587   3.273   4.408   2.299  0.8715  2.0018  0.3375
 2911SOL     OW 9588   3.392   2.467   3.953  0.0897  0.5737  0.2226
 2911SOL    HW1 9589   3.315   2.412   3.936  0.0984  0.7152 -0.2850
 2911SOL    HW2 9590   3.357   2.557   3.955  0.0417  0.5504  1.2474
 2912SOL     OW 9591   0.417   0.013   6.581 -0.3365  0.4015 -0.4361
 2912SOL    HW1 9592   0.509   0.039   6.580 -0.2253  0.0079 -1.3785
 2912SOL    HW2 9593   0.381   0.056   6.659  0.3430  1.5953 -0.7492
 2913SOL     OW 9594   7.452   3.692   4.364  0.6318 -0.2066 -0.5278
 2913SOL    HW1 9595   7.361   3.698   4.336  0.9104  1.1978 -1.2028
 2913SOL    HW2 9596   7.459   3.605   4.403 -0.3528 -1.4026 -2.7919
 2914SOL     OW 9597   6.883   6.630   0.052  0.2500 -0.5568  0.1152
 2914SOL    HW1 9598   6.821   6.696   0.019 -0.5072  0.0585  2.5781
 2914SOL    HW2 9599   6.914   6.665   0.135  0.8855 -2.6769  0.8403
 2915SOL     OW 9600   7.719   3.917   4.227 -0.3387 -0.0033  1.1242
 2915SOL    HW1 9601   7.777   3.913   4.303 -1.0254 -0.3492  1.6445
 2915SOL    HW2 9602   7.671   3.999   4.237 -0.4714 -0.0772  1.0951
 2916SOL     OW 9603   7.721   0.702   6.364  0.3662  0.1357 -0.1432
 2916SOL    HW1 9604   7.676   0.625   6.398 -0.3211  1.9774  3.6537
 2916SOL    HW2 9605   7.661   0.739   6.299 -0.8849 -0.6758  0.5162
 2917SOL     OW 9606   4.273   2.344   4.294  0.1179 -0.6056 -0.4214
 2917SOL    HW1 9607   4.250   2.434   4.314 -0.1909 -0.9895  1.0368
 2917SOL    HW2 9608   4.363   2.350   4.261 -0.3912  0.3683 -1.7525
 2918SOL     OW 9609   1.348   6.970   5.704  0.3777  0.5262 -0.1852
 2918SOL    HW1 9610   1.409   6.941   5.772  0.4804 -0.3963 -0.6541
 2918SOL    HW2 9611   1.300   6.891   5.680 -0.8201  1.1826 -0.0224
 2919SOL     OW 9612   4.488   6.471   2.229 -0.2938  0.3418 -0.3382
 2919SOL    HW1 9613   4.570   6.516   2.212  0.2431 -0.3286  0.4048
 2919SOL    HW2 9614   4.513   6.394   2.281 -1.5441  0.9909  1.3304
 2920SOL     OW 9615   5.199   1.801   6.541  0.1708 -0.0736  0.2737
 2920SOL    HW1 9616   5.224   1.719   6.498  2.2935  1.2564 -1.2768
 2920SOL    HW2 9617   5.282   1.838   6.572 -0.7699  1.3078  1.2661
 2921SOL     OW 9618   6.358   3.046   7.556  0.6416  0.3168 -0.2327
 2921SOL    HW1 9619   6.440   3.083   7.589  1.3802  0.0604 -1.6722
 2921SOL    HW2 9620   6.316   3.119   7.510  0.4205  0.2607 -0.1195
 2922SOL     OW 9621   2.978   5.280   7.446  0.3822 -0.7134 -0.1845
 2922SOL    HW1 9622   2.967   5.251   7.536  0.8900  0.8276  0.4018
 2922SOL    HW2 9623   2.973   5.200   7.394 -1.1249 -1.4843  1.0892
 2923SOL     OW 9624   4.648   2.807   0.835  0.2619 -0.0773  0.5340
 2923SOL    HW1 9625   4.646   2.770   0.747  1.8184 -0.8650  0.8030
 2923SOL    HW2 9626   4.611   2.738   0.891 -0.2534  0.2258  0.5760
 2924SOL     OW 9627   6.207   1.638   3.757  0.3677 -0.0823 -0.1873
 2924SOL    HW1 9628   6.255   1.670   3.680  1.5157  1.1766  1.0068
 2924SOL    HW2 9629   6.137   1.702   3.769 -1.7086 -1.8837 -1.8921
 2925SOL     OW 9630   4.989   1.441   6.820  0.1114 -0.0089  0.3557
 2925SOL    HW1 9631   5.035   1.444   6.904  1.8890 -0.7940 -0.5391
 2925SOL    HW2 9632   4.916   1.503   6.831  0.8200  0.5852  2.1520
 2926SOL     OW 9633   1.889   7.926   2.436 -0.4257 -0.0354 -0.0841
 2926SOL    HW1 9634   1.813   7.970   2.473  1.6239  3.6749  0.1643
 2926SOL    HW2 9635   1.949   7.915   2.510  1.2601  1.8437 -1.0764
 2927SOL     OW 9636   6.089   3.855   3.795  0.5005  0.2084  0.5025
 2927SOL    HW1 9637   6.099   3.761   3.780 -1.9492 -0.1172  0.4046
 2927SOL    HW2 9638   6.125   3.869   3.883 -0.8745 -1.2433  1.3542
 2928SOL     OW 9639   3.034   5.346   2.052 -1.0786  0.4089  0.2258
 2928SOL    HW1 9640   3.064   5.396   1.976  0.2929  2.2707  1.8749
 2928SOL    HW2 9641   3.110   5.292   2.076 -1.6640 -0.5279  0.0158
 2929SOL     OW 9642   3.270   4.796   2.734 -0.2585 -0.0452  0.0243
 2929SOL    HW1 9643   3.272   4.705   2.765 -2.0657 -0.5932 -1.2584
 2929SOL    HW2 9644   3.179   4.809   2.706  0.1719  1.9057 -0.5835
 2930SOL     OW 9645   5.182   5.234   7.412  0.0569 -0.0795  0.3904
 2930SOL    HW1 9646   5.103   5.220   7.359  0.2470  0.9455 -0.2044
 2930SOL    HW2 9647   5.174   5.172   7.484  0.1111 -2.0321 -1.1887
 2931SOL     OW 9648   3.468   5.670   2.295  0.3846  0.9522 -0.5169
 2931SOL    HW1 9649   3.389   5.616   2.297  0.3437  1.0240 -0.1970
 2931SOL    HW2 9650   3.497   5.674   2.386  1.6746 -0.4172 -0.8145
 2932SOL     OW 9651   1.581   1.541   5.650 -0.0644  0.1892  0.0651
 2932SOL    HW1 9652   1.627   1.519   5.569  1.9820  0.0828  1.2004
 2932SOL    HW2 9653   1.592   1.635   5.659  1.3824 -0.0460  1.1364
 2933SOL     OW 9654   1.628   6.253   7.840  0.0545 -0.7245  0.3277
 2933SOL    HW1 9655   1.581   6.269   7.922  1.4848  0.6569  0.9267
 2933SOL    HW2 9656   1.718   6.237   7.867  0.8485  1.1364 -1.0230
 2934SOL     OW 9657   1.922   5.329   1.518  0.4269 -0.1917  0.7646
 2934SOL    HW1 9658   1.906   5.241   1.551  0.6314 -0.4029  0.3161
 2934SOL    HW2 9659   1.953   5.378   1.594  2.3707 -1.0703  0.5969
 2935SOL     OW 9660   6.961   0.995   4.908  0.4085 -0.7510  0.0734
 2935SOL    HW1 9661   7.037   1.014   4.852  0.9129 -1.5443  0.4749
 2935SOL    HW2 9662   6.885   1.018   4.853  0.9017 -1.1026 -0.7787
 2936SOL     OW 9663   5.712   1.446   1.526 -0.1530  0.7024  0.6187
 2936SOL    HW1 9664   5.704   1.541   1.528  0.3135  0.7801 -0.6155
 2936SOL    HW2 9665   5.702   1.422   1.434  1.9091 -0.2271  0.5738
 2937SOL     OW 9666   5.430   0.697   1.131  0.0233  0.0090 -0.0630
 2937SOL    HW1 9667   5.516   0.654   1.132 -0.4277 -0.9101  0.3549
 2937SOL    HW2 9668   5.439   0.769   1.193  0.8359  0.6298 -0.8698
 2938SOL     OW 9669   1.218   1.644   0.351  0.3379 -0.4580 -0.2589
 2938SOL    HW1 9670   1.272   1.696   0.292 -0.5759  0.2125 -0.5242
 2938SOL    HW2 9671   1.249   1.554   0.339  1.4940 -0.0771 -0.2806
 2939SOL     OW 9672   2.118   0.287   6.530 -0.4962 -0.2727 -0.3509
 2939SOL    HW1 9673   2.200   0.288   6.580 -0.0806  1.1885 -1.0050
 2939SOL    HW2 9674   2.121   0.204   6.482  0.1311 -0.6891  0.3814
 2940SOL     OW 9675   1.839   3.944   4.669 -0.0644 -0.0913 -0.1790
 2940SOL    HW1 9676   1.775   3.990   4.615  0.5465 -0.6868 -1.4464
 2940SOL    HW2 9677   1.885   4.013   4.717 -1.5660  0.3483  0.6881
 2941SOL     OW 9678   2.136   7.757   2.883  0.2698  0.3563 -0.1444
 2941SOL    HW1 9679   2.200   7.698   2.843 -0.1708  0.6233 -1.2662
 2941SOL    HW2 9680   2.188   7.810   2.944  1.2287  0.8905 -1.3752
 2942SOL     OW 9681   6.444   0.625   7.850 -0.4934 -0.3641 -0.0067
 2942SOL    HW1 9682   6.361   0.615   7.895 -1.1205  0.1352 -1.0170
 2942SOL    HW2 9683   6.506   0.574   7.903 -1.5077 -1.0896  0.5267
 2943SOL     OW 9684   2.039   2.993   4.399 -0.2753 -0.6602 -0.4877
 2943SOL    HW1 9685   2.080   3.035   4.324  0.4225  1.0253  0.7662
 2943SOL    HW2 9686   2.100   2.922   4.422  0.5915  0.1415 -0.2578
 2944SOL     OW 9687   4.189   4.710   5.019 -0.1208 -0.3729  0.2598
 2944SOL    HW1 9688   4.116   4.662   5.059 -0.0935  1.1321  2.2643
 2944SOL    HW2 9689   4.192   4.793   5.067  1.7968  0.3385 -0.9934
 2945SOL     OW 9690   1.578   6.441   6.174 -0.1601  0.0137 -0.0702
 2945SOL    HW1 9691   1.485   6.424   6.187 -0.0649 -2.3286 -1.8065
 2945SOL    HW2 9692   1.621   6.364   6.212  0.8881 -0.1733 -1.5798
 2946SOL     OW 9693   3.914   7.109   1.351 -0.2736 -0.0781  0.2768
 2946SOL    HW1 9694   4.006   7.084   1.352 -0.8844 -2.6599  2.4596
 2946SOL    HW2 9695   3.891   7.124   1.442 -1.7915  1.7270 -0.3226
 2947SOL     OW 9696   5.010   3.409   6.418  0.3941 -0.3764  0.1252
 2947SOL    HW1 9697   4.985   3.501   6.412 -1.2181 -0.7675  0.3417
 2947SOL    HW2 9698   4.984   3.383   6.506  1.0262 -0.9816  0.1334
 2948SOL     OW 9699   6.114   6.165   6.201 -0.1797  0.3132  0.1481
 2948SOL    HW1 9700   6.155   6.231   6.145 -0.1788 -0.7954 -1.2299
 2948SOL    HW2 9701   6.022   6.192   6.207 -0.5344 -0.3389 -1.6980
 2949SOL     OW 9702   4.455   7.184   5.962 -0.1230  0.3762 -0.2025
 2949SOL    HW1 9703   4.516   7.155   5.895 -0.4662  1.3128 -0.9547
 2949SOL    HW2 9704   4.449   7.111   6.023  0.5736 -0.3119 -0.9336
 2950SOL     OW 9705   7.420   4.008   7.432 -0.5367 -0.2920  0.6715
 2950SOL    HW1 9706   7.442   4.035   7.343 -1.0819  0.3640  0.7316
 2950SOL    HW2 9707   7.338   3.959   7.423 -0.6714 -0.0972  0.8302
 2951SOL     OW 9708   7.049   1.206   2.146  0.1043 -0.2256 -0.8206
 2951SOL    HW1 9709   6.965   1.180   2.110 -0.9785  2.6878 -0.6705
 2951SOL    HW2 9710   7.031   1.229   2.237  0.8953  1.0679 -0.9649
 2952SOL     OW 9711   2.209   4.596   3.940  0.3857 -0.5427  1.0262
 2952SOL    HW1 9712   2.268   4.671   3.949 -0.3609 -0.0716  2.1825
 2952SOL    HW2 9713   2.201   4.561   4.029 -1.9058  0.0773  1.1468
 2953SOL     OW 9714   1.990   7.714   7.110  0.3227 -0.2379  0.1060
 2953SOL    HW1 9715   2.083   7.706   7.091  0.6500 -0.1828  1.5735
 2953SOL    HW2 9716   1.985   7.778   7.181 -0.8352 -0.3040  0.1104
 2954SOL     OW 9717   1.658   1.507   6.002  0.5341 -0.2973  0.3054
 2954SOL    HW1 9718   1.677   1.596   6.031 -0.2236  0.2333 -0.7339
 2954SOL    HW2 9719   1.645   1.458   6.083  0.0632  0.7542  0.8966
 2955SOL     OW 9720   7.336   2.647   1.509  0.2735 -0.1140 -0.4997
 2955SOL    HW1 9721   7.384   2.664   1.591 -1.2486  0.5740  0.2846
 2955SOL    HW2 9722   7.248   2.681   1.525  0.3986  1.7160 -3.0670
 2956SOL     OW 9723   0.698   7.022   0.245 -0.0204 -0.3450  0.4913
 2956SOL    HW1 9724   0.637   6.995   0.177  2.0952 -2.1240 -0.8425
 2956SOL    HW2 9725   0.780   7.039   0.198  0.8535  0.8058  2.3168
 2957SOL     OW 9726   6.058   3.594   4.715 -0.1011 -0.1274 -0.4347
 2957SOL    HW1 9727   6.070   3.686   4.692 -1.1991  0.5795  1.5960
 2957SOL    HW2 9728   5.973   3.591   4.759  0.0760 -2.0578 -0.1294
 2958SOL     OW 9729   0.345   0.740   2.691  0.3422  0.2140 -0.3259
 2958SOL    HW1 9730   0.366   0.662   2.639  0.3070 -1.8964  2.5623
 2958SOL    HW2 9731   0.424   0.755   2.744 -0.5324  0.5938  0.9044
 2959SOL     OW 9732   2.702   4.028   2.132 -0.2564  0.7268  0.0202
 2959SOL    HW1 9733   2.774   4.060   2.186 -0.1822  1.2657 -0.3861
 2959SOL    HW2 9734   2.694   4.094   2.062 -1.2908  0.7880  0.1913
 2960SOL     OW 9735   5.722   7.456   2.125  0.5450 -0.4258 -0.1485
 2960SOL    HW1 9736   5.811   7.434   2.099 -0.1670 -1.5578 -1.7996
 2960SOL    HW2 9737   5.672   7.375   2.112 -0.9653  0.5240 -0.5279
 2961SOL     OW 9738   7.952   3.446   1.486 -0.1456 -0.3248 -0.4784
 2961SOL    HW1 9739   7.874   3.500   1.470  0.3176  0.6504  0.4308
 2961SOL    HW2 9740   7.918   3.362   1.516 -0.9507 -1.2385 -3.6129
 2962SOL     OW 9741   4.524   2.284   4.494 -0.5219 -0.0218 -0.0623
 2962SOL    HW1 9742   4.597   2.234   4.458 -0.0679 -0.0707  0.8954
 2962SOL    HW2 9743   4.453   2.220   4.503 -0.1003 -0.4066  0.6872
 2963SOL     OW 9744   3.564   2.580   3.747  0.1535 -0.1132  0.7542
 2963SOL    HW1 9745   3.539   2.672   3.740 -0.0969 -0.0977  1.6984
 2963SOL    HW2 9746   3.496   2.541   3.802 -0.6660 -1.2355 -0.9355
 2964SOL     OW 9747   7.810   3.077   0.596  0.4409 -0.0013 -0.1406
 2964SOL    HW1 9748   7.776   2.991   0.574  1.5577 -0.3562 -0.5487
 2964SOL    HW2 9749   7.744   3.138   0.564 -0.7784 -0.7111  0.9234
 2965SOL     OW 9750   7.469   2.448   0.399  0.0117 -0.3577  0.5451
 2965SOL    HW1 9751   7.511   2.447   0.485 -3.1521  0.6503  2.2640
 2965SOL    HW2 9752   7.509   2.521   0.353  0.7008  0.0711  1.7821
 2966SOL     OW 9753   7.154   2.121   3.619  0.9526  0.1297  0.4184
 2966SOL    HW1 9754   7.148   2.074   3.535 -0.8810 -2.5818  1.9367
 2966SOL    HW2 9755   7.248   2.127   3.636  1.3016 -1.1028 -0.8767
 2967SOL     OW 9756   3.370   3.583   0.071  0.1635  0.9505  0.0472
 2967SOL    HW1 9757   3.363   3.592   0.166  0.6809 -0.3874  0.2339
 2967SOL    HW2 9758   3.404   3.494   0.057 -2.4063  0.0840 -1.4700
 2968SOL     OW 9759   7.167   7.515   4.085  0.1019 -0.0611  0.8211
 2968SOL    HW1 9760   7.093   7.567   4.052 -0.7803 -1.3502  0.6913
 2968SOL    HW2 9761   7.198   7.466   4.008 -0.1683 -0.9830  1.2910
 2969SOL     OW 9762   5.154   0.942   6.632 -0.4285  0.8004 -0.2755
 2969SOL    HW1 9763   5.075   0.960   6.683  0.3125  4.3070 -0.0985
 2969SOL    HW2 9764   5.143   0.993   6.552  1.7361  1.6120 -0.1142
 2970SOL     OW 9765   3.141   4.904   0.009 -0.5333  0.0445 -0.2533
 2970SOL    HW1 9766   3.173   4.853  -0.065 -0.3814  1.6265 -1.3246
 2970SOL    HW2 9767   3.047   4.887   0.011 -0.4755 -0.3304 -0.5539
 2971SOL     OW 9768   3.387   0.510   0.370 -0.3337 -0.0412 -0.7548
 2971SOL    HW1 9769   3.458   0.574   0.368  0.4437 -0.8959 -0.7938
 2971SOL    HW2 9770   3.430   0.426   0.386 -1.3279 -0.5755 -0.8187
 2972SOL     OW 9771   3.291   3.429   6.697 -0.1507  0.5408  0.0800
 2972SOL    HW1 9772   3.336   3.465   6.774 -0.0393 -1.6674  1.1297
 2972SOL    HW2 9773   3.208   3.397   6.731  0.1994 -1.1053 -0.5298
 2973SOL     OW 9774   1.148   3.711   3.433 -0.3789  0.1809 -0.9385
 2973SOL    HW1 9775   1.101   3.682   3.512 -0.4058  0.5084 -0.8333
 2973SOL    HW2 9776   1.080   3.748   3.377 -0.3972 -0.2861 -1.2263
 2974SOL     OW 9777   1.554   0.003   4.909  0.0977  0.0622  0.3089
 2974SOL    HW1 9778   1.581   0.066   4.976  1.2214  0.6437 -0.6586
 2974SOL    HW2 9779   1.626   0.002   4.846  0.0737 -2.1259  0.2301
 2975SOL     OW 9780   6.483   2.197   3.784 -0.8441 -0.0044 -0.0275
 2975SOL    HW1 9781   6.403   2.238   3.817 -0.9893  0.6768 -1.1749
 2975SOL    HW2 9782   6.550   2.219   3.848 -1.3402  0.3497  0.3792
 2976SOL     OW 9783   2.461   0.016   1.675  0.2512  0.2149  0.3439
 2976SOL    HW1 9784   2.511   0.082   1.627  2.2173 -1.4242 -0.0011
 2976SOL    HW2 9785   2.474   0.038   1.767  0.4419  0.6247  0.2194
 2977SOL     OW 9786   0.069   1.870   4.564 -0.1913  0.0683  0.2867
 2977SOL    HW1 9787   0.022   1.942   4.605 -2.0244 -0.3504 -0.9335
 2977SOL    HW2 9788   0.002   1.822   4.516  1.3767 -1.0477 -0.9140
 2978SOL     OW 9789   0.591   6.849   1.463  0.1748 -0.0406 -0.4812
 2978SOL    HW1 9790   0.567   6.778   1.522  0.3692 -1.6068 -2.1969
 2978SOL    HW2 9791   0.511   6.901   1.454 -0.0553 -0.2010  0.5382
 2979SOL     OW 9792   1.635   4.854   7.744  0.5637 -0.3778 -0.4640
 2979SOL    HW1 9793   1.611   4.942   7.771  3.3642  0.6565 -0.9858
 2979SOL    HW2 9794   1.564   4.826   7.686 -1.4025  0.6277  1.2990
 2980SOL     OW 9795   4.088   2.158   7.875  0.2445  0.3688  0.0162
 2980SOL    HW1 9796   4.075   2.073   7.917  1.0019  0.5303  0.5990
 2980SOL    HW2 9797   4.174   2.186   7.905  0.7430  0.5674 -1.5255
 2981SOL     OW 9798   5.613   4.899   5.582 -0.0526  0.3475 -0.8034
 2981SOL    HW1 9799   5.694   4.883   5.533  0.7851 -0.0085  0.6522
 2981SOL    HW2 9800   5.608   4.827   5.645 -0.8370  1.0659 -0.0095
 2982SOL     OW 9801   2.277   1.614   5.896  0.6713 -0.0549  0.6165
 2982SOL    HW1 9802   2.333   1.580   5.966 -1.0347 -1.3933  1.4331
 2982SOL    HW2 9803   2.225   1.683   5.938  0.6035  0.0833  0.3091
 2983SOL     OW 9804   0.138   3.424   1.293  0.5596 -0.1323 -0.6696
 2983SOL    HW1 9805   0.086   3.445   1.371  0.7468 -0.9673 -0.3160
 2983SOL    HW2 9806   0.228   3.446   1.317  0.7180 -1.0485 -0.3922
 2984SOL     OW 9807   6.888   7.264   2.233  0.0445  0.0816 -0.2213
 2984SOL    HW1 9808   6.843   7.332   2.284  0.0634 -0.2948  0.2965
 2984SOL    HW2 9809   6.842   7.264   2.149 -0.8736 -0.2368  0.2665
 2985SOL     OW 9810   0.854   5.609   5.863  0.1975 -0.4561  0.5642
 2985SOL    HW1 9811   0.782   5.636   5.806  0.1899 -0.1475  0.7202
 2985SOL    HW2 9812   0.904   5.547   5.809 -0.0959 -0.5557  0.4025
 2986SOL     OW 9813   1.702   0.186   0.762 -0.5295 -0.1248  0.6123
 2986SOL    HW1 9814   1.791   0.168   0.794 -0.4926 -2.4665 -0.5679
 2986SOL    HW2 9815   1.715   0.252   0.694  0.1638  0.3174  1.1570
 2987SOL     OW 9816   0.739   4.966   6.178  0.4505  0.5994  0.0745
 2987SOL    HW1 9817   0.653   4.997   6.148  1.3829  1.9107 -1.3272
 2987SOL    HW2 9818   0.718   4.886   6.228 -1.4668  0.1140 -1.3703
 2988SOL     OW 9819   6.626   6.318   2.078  0.1489  0.1323  0.1340
 2988SOL    HW1 9820   6.702   6.376   2.074 -0.6084  1.1169 -0.9086
 2988SOL    HW2 9821   6.567   6.352   2.010 -1.7808  0.2207  1.7545
 2989SOL     OW 9822   3.489   3.726   1.727 -0.0699  0.1354 -0.1735
 2989SOL    HW1 9823   3.439   3.736   1.808  0.2691 -0.2529  0.0871
 2989SOL    HW2 9824   3.533   3.810   1.716 -1.4989  0.8300 -0.9073
 2990SOL     OW 9825   4.428   2.739   2.678 -0.6515 -0.3572 -0.1238
 2990SOL    HW1 9826   4.384   2.688   2.746 -0.8149  0.8177  0.6787
 2990SOL    HW2 9827   4.459   2.818   2.723  0.6251 -0.2812 -1.0785
 2991SOL     OW 9828   4.428   4.483   0.024 -0.0362 -0.3495 -0.2738
 2991SOL    HW1 9829   4.381   4.506  -0.056 -0.4021  0.2011  0.0899
 2991SOL    HW2 9830   4.362   4.489   0.093  0.5858  0.5556  0.2635
 2992SOL     OW 9831   3.640   6.118   4.384  0.0362  0.4376 -0.4667
 2992SOL    HW1 9832   3.728   6.082   4.375  0.4870  1.4767 -0.3391
 2992SOL    HW2 9833   3.647   6.185   4.452 -0.6133  1.2397 -1.1458
 2993SOL     OW 9834   3.644   4.911   6.309  0.2281 -1.0625  0.4200
 2993SOL    HW1 9835   3.650   4.896   6.215 -2.7021 -0.4374  0.0365
 2993SOL    HW2 9836   3.662   5.004   6.319  0.4194 -1.1052  0.4865
 2994SOL     OW 9837   3.288   0.558   1.774  0.3202 -0.3203  0.0648
 2994SOL    HW1 9838   3.237   0.570   1.693  1.1295 -2.6225 -0.8763
 2994SOL    HW2 9839   3.297   0.463   1.782  1.5428 -0.0781  2.0827
 2995SOL     OW 9840   0.647   7.076   6.375  0.4123  0.6078  0.3624
 2995SOL    HW1 9841   0.576   7.102   6.434 -1.3291 -0.5648 -1.0944
 2995SOL    HW2 9842   0.717   7.046   6.432 -1.6865 -1.7509  1.8778
 2996SOL     OW 9843   4.626   2.763   7.827  0.4267  0.0202 -0.8015
 2996SOL    HW1 9844   4.653   2.676   7.799  2.1217  1.2143 -3.2953
 2996SOL    HW2 9845   4.708   2.810   7.841 -0.4040  0.7747  2.4194
 2997SOL     OW 9846   0.152   1.826   5.862  0.1645 -0.0322  0.3246
 2997SOL    HW1 9847   0.215   1.756   5.847  1.2504  0.8878  0.4841
 2997SOL    HW2 9848   0.166   1.852   5.954  1.2523  1.7617 -0.2822
 2998SOL     OW 9849   5.879   3.778   7.930 -0.5124 -0.0409 -0.3769
 2998SOL    HW1 9850   5.954   3.766   7.988 -1.2965 -1.4561  0.3947
 2998SOL    HW2 9851   5.803   3.753   7.983 -1.5321  1.1940 -1.1812
 2999SOL     OW 9852   5.363   5.840   7.859  0.0432  0.1879 -0.3173
 2999SOL    HW1 9853   5.402   5.752   7.855  1.2448  0.7151 -0.7546
 2999SOL    HW2 9854   5.403   5.887   7.786  0.4571  1.5052  0.7211
 3000SOL     OW 9855   4.578   6.381   2.879  0.5087 -0.3441 -0.0236
 3000SOL    HW1 9856   4.542   6.328   2.950  1.3829 -2.9193 -1.3735
 3000SOL    HW2 9857   4.647   6.326   2.841  2.6117  2.4278 -0.5591
 3001SOL     OW 9858   4.266   7.510   3.164  0.0391 -0.0098  0.0472
 3001SOL    HW1 9859   4.342   7.483   3.111 -1.1036  0.8313 -2.1780
 3001SOL    HW2 9860   4.212   7.432   3.169 -0.6100  0.2984 -1.5214
 3002SOL     OW 9861   0.888   4.260   5.588 -0.8745 -0.0290  1.1257
 3002SOL    HW1 9862   0.900   4.338   5.642 -0.7922  1.1817 -0.5591
 3002SOL    HW2 9863   0.921   4.286   5.501  1.5312 -2.7299  1.0786
 3003SOL     OW 9864   7.645   4.388   7.974  0.3347 -0.1962 -0.6387
 3003SOL    HW1 9865   7.598   4.362   7.894 -0.3033 -0.4341 -0.1937
 3003SOL    HW2 9866   7.580   4.437   8.025  0.2558 -1.3800  0.4437
 3004SOL     OW 9867   2.400   6.913   0.838  0.4912  0.4296 -0.0726
 3004SOL    HW1 9868   2.393   6.988   0.779  2.7758  1.9760  1.4913
 3004SOL    HW2 9869   2.356   6.940   0.918  2.3080  0.6310  0.9157
 3005SOL     OW 9870   1.268   2.260   5.660  0.1440  0.0034  0.8233
 3005SOL    HW1 9871   1.291   2.352   5.650 -0.2373  0.0076 -0.0549
 3005SOL    HW2 9872   1.200   2.244   5.595  0.4686 -0.9894  0.7056
 3006SOL     OW 9873   4.711   1.405   1.553 -0.3080 -0.2024  0.1057
 3006SOL    HW1 9874   4.617   1.392   1.563 -0.2269 -1.0793 -0.1705
 3006SOL    HW2 9875   4.748   1.385   1.639 -0.4429  0.9690  0.4513
 3007SOL     OW 9876   4.939   6.173   3.788  0.2318 -0.3851  0.0934
 3007SOL    HW1 9877   4.954   6.156   3.881  1.1162 -1.3098 -0.1960
 3007SOL    HW2 9878   4.915   6.088   3.751 -2.3217  0.3505 -0.1704
 3008SOL     OW 9879   6.101   2.174   7.798  0.4549 -0.2452  0.4496
 3008SOL    HW1 9880   6.168   2.221   7.747  0.3426 -1.1020 -0.5278
 3008SOL    HW2 9881   6.146   2.095   7.829 -0.0372 -0.7404 -0.0721
 3009SOL     OW 9882   5.237   0.192   2.332  0.1849  0.3346  0.0213
 3009SOL    HW1 9883   5.168   0.213   2.269  1.4111  0.4768 -1.3059
 3009SOL    HW2 9884   5.206   0.229   2.415 -2.4496 -1.6644  0.0532
 3010SOL     OW 9885   2.574   5.637   2.537  0.4892 -0.0090  0.2369
 3010SOL    HW1 9886   2.536   5.656   2.622 -0.1134  2.5008 -0.5184
 3010SOL    HW2 9887   2.533   5.554   2.511 -1.1649  0.3947  1.3628
 3011SOL     OW 9888   0.087   1.646   0.605 -0.3350  0.3350 -0.2809
 3011SOL    HW1 9889   0.067   1.731   0.644 -1.8719  0.1061 -0.4923
 3011SOL    HW2 9890   0.162   1.662   0.549 -0.2800  1.4342  0.0840
 3012SOL     OW 9891   4.756   4.202   5.276  0.1087 -0.3873 -0.1357
 3012SOL    HW1 9892   4.706   4.265   5.224  1.9329  0.9942 -0.3172
 3012SOL    HW2 9893   4.704   4.121   5.272 -3.1781  1.4348  1.4387
 3013SOL     OW 9894   5.033   7.937   4.607 -0.7020  0.1254  0.0328
 3013SOL    HW1 9895   5.005   7.845   4.603 -0.1367 -0.0073 -1.5352
 3013SOL    HW2 9896   5.059   7.958   4.517  1.1725  1.1990  0.7685
 3014SOL     OW 9897   4.325   4.192   1.523 -0.3021  0.1291  0.6158
 3014SOL    HW1 9898   4.255   4.144   1.480  0.3118 -0.2507  0.0220
 3014SOL    HW2 9899   4.405   4.144   1.501  0.3152  1.3485  0.0761
 3015SOL     OW 9900   4.272   1.873   4.980 -0.3524  0.0977  0.5611
 3015SOL    HW1 9901   4.278   1.900   4.888  0.2089  0.9301  0.8320
 3015SOL    HW2 9902   4.341   1.808   4.991  0.7279  1.2362  0.7942
 3016SOL     OW 9903   4.375   7.029   0.239  0.9169 -0.0642 -0.1033
 3016SOL    HW1 9904   4.408   7.003   0.153 -0.2974  0.8919 -0.8828
 3016SOL    HW2 9905   4.393   7.123   0.245  0.8692 -0.0941  0.6329
 3017SOL     OW 9906   4.546   3.609   4.564  0.5109  0.3745 -0.1532
 3017SOL    HW1 9907   4.538   3.695   4.605  0.7651  0.2009  0.2658
 3017SOL    HW2 9908   4.611   3.621   4.495  2.4139 -0.0315  1.4776
 3018SOL     OW 9909   4.578   6.819   2.119 -0.0787  0.1027 -0.3598
 3018SOL    HW1 9910   4.651   6.765   2.149  2.3283  2.6068 -1.2146
 3018SOL    HW2 9911   4.579   6.810   2.024 -1.2199 -0.1974 -0.3530
 3019SOL     OW 9912   4.649   1.932   0.119 -0.0803  0.0375 -0.4480
 3019SOL    HW1 9913   4.722   1.983   0.153 -1.1444  0.2547  1.6739
 3019SOL    HW2 9914   4.633   1.865   0.186 -2.3953  0.5678 -0.3687
 3020SOL     OW 9915   6.036   3.406   3.597  0.7068  0.0343 -0.2606
 3020SOL    HW1 9916   6.087   3.354   3.659  1.3903  0.7673 -0.1957
 3020SOL    HW2 9917   5.972   3.451   3.651 -0.7396 -1.6810 -0.4548
 3021SOL     OW 9918   5.426   7.192   6.623  0.1719 -0.2958  0.3032
 3021SOL    HW1 9919   5.341   7.227   6.598 -0.5549 -0.4391  2.3266
 3021SOL    HW2 9920   5.460   7.151   6.544 -0.9652  1.0369 -0.9379
 3022SOL     OW 9921   1.714   4.333   4.168  0.0730 -0.3321 -0.2473
 3022SOL    HW1 9922   1.667   4.261   4.209 -2.0712  0.4834 -1.1149
 3022SOL    HW2 9923   1.649   4.374   4.110  2.0409  0.5527 -1.9352
 3023SOL     OW 9924   1.352   7.693   3.547 -0.2968  0.4611  0.5598
 3023SOL    HW1 9925   1.349   7.751   3.470  0.1684 -1.2756 -0.8380
 3023SOL    HW2 9926   1.391   7.747   3.616 -1.5274  2.3500 -0.1317
 3024SOL     OW 9927   3.474   2.978   3.993  0.1298  0.0049  0.4133
 3024SOL    HW1 9928   3.536   3.035   3.948  1.4347  1.1404  3.4038
 3024SOL    HW2 9929   3.393   3.028   3.996  0.0192 -0.0918 -0.6183
 3025SOL     OW 9930   7.012   3.612   0.844 -0.7277  0.1453 -0.0832
 3025SOL    HW1 9931   7.055   3.673   0.904  2.3609 -2.2275  0.3519
 3025SOL    HW2 9932   7.083   3.573   0.793 -2.5196 -2.7626 -0.6347
 3026SOL     OW 9933   5.133   6.777   1.748  0.3752 -0.3279  0.0863
 3026SOL    HW1 9934   5.112   6.770   1.655  0.9343  1.3758 -0.2014
 3026SOL    HW2 9935   5.208   6.719   1.760  0.4969 -0.3232 -0.5942
 3027SOL     OW 9936   1.419   5.406   7.951 -0.3802 -0.5218  0.2447
 3027SOL    HW1 9937   1.429   5.381   7.859 -0.4215 -1.3565  0.4565
 3027SOL    HW2 9938   1.359   5.481   7.949  0.8121  0.4495 -0.5119
 3028SOL     OW 9939   7.366   0.563   3.742 -0.3800  0.0969 -0.4091
 3028SOL    HW1 9940   7.373   0.468   3.756 -0.6414  0.1352  0.0141
 3028SOL    HW2 9941   7.291   0.573   3.683 -0.6265  0.0641 -0.1055
 3029SOL     OW 9942   1.192   0.885   1.468  0.0110 -0.4392 -0.4662
 3029SOL    HW1 9943   1.174   0.907   1.560  0.2344 -1.6270 -0.1104
 3029SOL    HW2 9944   1.106   0.884   1.427 -0.2217 -1.0012  0.0089
 3030SOL     OW 9945   6.187   0.987   2.961 -0.1392 -0.2592  0.1730
 3030SOL    HW1 9946   6.155   1.045   3.030  2.2884  1.3479  0.0755
 3030SOL    HW2 9947   6.145   1.019   2.881 -2.0238 -1.3680  0.6430
 3031SOL     OW 9948   2.401   4.764   1.114 -0.0270  0.7480 -0.2384
 3031SOL    HW1 9949   2.367   4.725   1.034  1.4343 -1.1989  0.0256
 3031SOL    HW2 9950   2.490   4.729   1.123 -0.1892  0.7853  2.2909
 3032SOL     OW 9951   2.768   6.449   5.109  0.4535 -0.0950  0.0379
 3032SOL    HW1 9952   2.758   6.416   5.020  1.3868  1.6116 -0.7625
 3032SOL    HW2 9953   2.830   6.522   5.100  0.1496  0.4596  2.0033
 3033SOL     OW 9954   5.463   0.702   3.145  0.1550 -0.2059 -0.6734
 3033SOL    HW1 9955   5.442   0.781   3.096 -2.1101  0.1510  0.7342
 3033SOL    HW2 9956   5.500   0.642   3.080  0.5697  1.4738 -2.0444
 3034SOL     OW 9957   7.546   2.316   7.187 -0.0582 -0.1834 -0.3275
 3034SOL    HW1 9958   7.541   2.389   7.248  1.4708 -1.1690  1.0452
 3034SOL    HW2 9959   7.630   2.275   7.205 -1.4832 -3.2180  0.0654
 3035SOL     OW 9960   1.034   4.820   7.517 -0.2177  0.0019 -0.2934
 3035SOL    HW1 9961   1.062   4.729   7.506  2.4437  0.6295  0.6412
 3035SOL    HW2 9962   0.983   4.820   7.598  0.2339 -0.5728  0.0000
 3036SOL     OW 9963   6.400   3.964   3.528 -0.2860 -0.1760  0.0811
 3036SOL    HW1 9964   6.495   3.961   3.518 -0.2738 -4.2430 -0.1274
 3036SOL    HW2 9965   6.386   3.972   3.622  0.2350  0.4347  0.1138
 3037SOL     OW 9966   5.480   6.297   1.239  0.5636 -0.3293  0.1484
 3037SOL    HW1 9967   5.439   6.211   1.245 -0.1133 -0.2456 -2.2378
 3037SOL    HW2 9968   5.517   6.300   1.150  3.4673  0.6198  1.2750
 3038SOL     OW 9969   2.060   0.978   5.204 -0.1905  0.2352 -0.0487
 3038SOL    HW1 9970   2.137   0.979   5.146 -1.8330 -2.2008 -2.4780
 3038SOL    HW2 9971   1.994   1.028   5.156 -1.4657 -1.4938 -0.1842
 3039SOL     OW 9972   7.353   6.724   5.283 -0.4473 -0.5028 -0.2264
 3039SOL    HW1 9973   7.436   6.696   5.322 -0.1805 -0.4994 -0.7807
 3039SOL    HW2 9974   7.357   6.820   5.286 -0.2791 -0.4982 -0.5628
 3040SOL     OW 9975   0.600   7.012   6.783 -0.0880 -0.5181 -0.0618
 3040SOL    HW1 9976   0.656   6.988   6.709 -0.0262 -0.1109 -0.1491
 3040SOL    HW2 9977   0.565   6.929   6.814  2.8557 -1.1851  1.8639
 3041SOL     OW 9978   0.260   2.919   0.501  0.3617 -0.2390 -0.3281
 3041SOL    HW1 9979   0.219   2.837   0.475 -1.1418  0.6892 -0.9698
 3041SOL    HW2 9980   0.189   2.971   0.539  0.6519  1.7866 -2.3399
 3042SOL     OW 9981   4.922   0.284   1.180  0.1588 -0.2573  0.2844
 3042SOL    HW1 9982   4.957   0.217   1.121  1.6569 -0.5436  1.4408
 3042SOL    HW2 9983   4.969   0.271   1.262 -0.9656  0.9460  1.1645
 3043SOL     OW 9984   0.827   0.399   7.652 -0.3385  0.4567  0.1655
 3043SOL    HW1 9985   0.743   0.364   7.683 -0.5975 -0.5587 -1.5614
 3043SOL    HW2 9986   0.805   0.449   7.574  0.6841 -0.0538 -0.4708
 3044SOL     OW 9987   0.635   0.711   5.060 -0.6586 -0.2653 -0.1630
 3044SOL    HW1 9988   0.701   0.661   5.013 -0.9431  0.0577 -0.9249
 3044SOL    HW2 9989   0.685   0.777   5.109 -0.4673  0.8360 -1.7723
 3045SOL     OW 9990   0.211   2.442   5.004 -0.2801  0.1137  0.7960
 3045SOL    HW1 9991   0.115   2.438   5.003 -0.2916  0.4933  0.4132
 3045SOL    HW2 9992   0.239   2.353   4.982 -0.5444  0.6607 -2.1237
 3046SOL     OW 9993   6.568   7.181   6.934  0.4661  0.4394  0.4412
 3046SOL    HW1 9994   6.516   7.256   6.903 -0.5908  0.1833  1.5227
 3046SOL    HW2 9995   6.555   7.114   6.867 -0.8587  0.2872  0.8169
 3047SOL     OW 9996   6.667   3.269   6.950  0.1851 -0.3969 -0.1028
 3047SOL    HW1 9997   6.651   3.312   7.034 -0.1583 -2.9511  1.2265
 3047SOL    HW2 9998   6.622   3.324   6.885 -0.3275  1.1163  1.4735
 3048SOL     OW 9999   1.992   3.493   0.629  0.5383  0.4095  0.3606
 3048SOL    HW110000   1.948   3.562   0.679  0.7704  0.0223  1.1156
 3048SOL    HW210001   2.022   3.536   0.549 -1.5405  0.6082 -0.3801
 3049SOL     OW10002   0.497   7.586   1.496  0.7038  0.2749 -0.0907
 3049SOL    HW110003   0.455   7.578   1.581  1.7135  0.3367  0.4236
 3049SOL    HW210004   0.424   7.592   1.434 -0.0396  0.0157  0.7390
 3050SOL     OW10005   1.559   1.093   1.045  0.2165  0.3726 -0.1931
 3050SOL    HW110006   1.630   1.077   1.107 -0.8284  1.2731  1.3087
 3050SOL    HW210007   1.515   1.009   1.036  0.4417  0.2073  0.2263
 3051SOL     OW10008   6.855   7.944   6.928 -0.5047 -0.5667  0.1766
 3051SOL    HW110009   6.828   7.964   6.838  0.2963 -0.2582 -0.0004
 3051SOL    HW210010   6.816   8.013   6.981  1.9171  1.3736 -0.3788
 3052SOL     OW10011   2.847   3.324   4.213 -0.0916 -0.9851  0.1909
 3052SOL    HW110012   2.892   3.291   4.291 -0.0430  1.1404  1.1278
 3052SOL    HW210013   2.846   3.419   4.224 -1.2490 -0.7085 -1.7873
 3053SOL     OW10014   3.719   1.274   2.052  0.1790 -0.4761 -0.1641
 3053SOL    HW110015   3.774   1.345   2.020  0.8211 -1.4135 -1.1710
 3053SOL    HW210016   3.643   1.275   1.995 -0.4591  0.2336  0.6604
 3054SOL     OW10017   0.570   5.916   1.413  0.1608 -0.1658  0.0893
 3054SOL    HW110018   0.561   5.821   1.422 -0.4862 -0.0982  0.2027
 3054SOL    HW210019   0.590   5.929   1.321 -0.0725 -0.3936  0.0036
 3055SOL     OW10020   7.856   2.515   1.959 -0.1545  0.2233 -0.3423
 3055SOL    HW110021   7.787   2.580   1.941  0.5489  0.7297 -1.3051
 3055SOL    HW210022   7.828   2.437   1.911 -1.4138 -0.4999  1.4688
 3056SOL     OW10023   4.564   6.795   1.848 -0.1119 -0.2558  0.3750
 3056SOL    HW110024   4.527   6.752   1.772 -2.4385 -0.3857  1.4851
 3056SOL    HW210025   4.656   6.810   1.825 -0.0150 -2.7908 -1.3236
 3057SOL     OW10026   7.100   5.438   1.188 -0.2057  0.1974  0.2441
 3057SOL    HW110027   7.184   5.412   1.152  0.0615 -1.1492  1.7328
 3057SOL    HW210028   7.089   5.384   1.267 -2.7096 -0.0646 -0.1852
 3058SOL     OW10029   5.045   3.638   5.557  0.4501  0.1625 -0.1876
 3058SOL    HW110030   5.070   3.729   5.574 -1.6381  0.9469 -1.0430
 3058SOL    HW210031   5.057   3.627   5.462  3.1671 -1.3255  0.2102
 3059SOL     OW10032   5.962   7.289   7.412 -0.4442  0.0278  0.3183
 3059SOL    HW110033   6.051   7.303   7.444 -0.7534 -0.7548  1.5648
 3059SOL    HW210034   5.930   7.377   7.394  0.8671  0.2735 -1.0009
 3060SOL     OW10035   7.829   6.376   4.779 -0.0174  0.2403 -0.0799
 3060SOL    HW110036   7.874   6.439   4.834 -2.0993  3.2528 -1.5715
 3060SOL    HW210037   7.812   6.423   4.698 -2.9436 -1.7653 -0.7714
 3061SOL     OW10038   5.161   2.881   1.245 -0.1161 -0.0631  0.7471
 3061SOL    HW110039   5.209   2.919   1.319 -0.5967 -0.1446  1.1080
 3061SOL    HW210040   5.069   2.882   1.273 -0.4445  0.8810 -0.2731
 3062SOL     OW10041   5.120   6.079   6.381  0.2128 -0.3559  0.4956
 3062SOL    HW110042   5.145   6.026   6.305  0.1914 -1.0937  0.9960
 3062SOL    HW210043   5.139   6.023   6.456 -3.3328 -1.2106  0.9190
 3063SOL     OW10044   4.800   0.532   6.380  0.1484  0.5178 -0.1307
 3063SOL    HW110045   4.891   0.534   6.352  0.3897  0.2466  0.5967
 3063SOL    HW210046   4.753   0.491   6.308  0.6163  0.6051 -0.4865
 3064SOL     OW10047   1.354   6.696   5.298 -0.1174  0.0634 -0.3123
 3064SOL    HW110048   1.258   6.688   5.296 -0.0795 -0.3604 -0.5365
 3064SOL    HW210049   1.385   6.633   5.233  0.4097 -1.6119  1.4586
 3065SOL     OW10050   2.755   5.508   1.640 -0.8388  0.4959 -0.6279
 3065SOL    HW110051   2.680   5.471   1.592 -0.8107  0.3522 -0.5619
 3065SOL    HW210052   2.794   5.433   1.685  1.9118 -0.3253 -3.9527
 3066SOL     OW10053   7.449   1.095   3.089  0.3602 -0.0531 -0.2849
 3066SOL    HW110054   7.393   1.117   3.164  1.6910  0.1785  0.6729
 3066SOL    HW210055   7.454   1.000   3.091 -0.2042 -0.0928 -0.5375
 3067SOL     OW10056   1.548   7.070   4.211 -0.0123  1.2152 -0.1882
 3067SOL    HW110057   1.519   7.024   4.132  1.3996  0.5330 -0.3366
 3067SOL    HW210058   1.493   7.034   4.281  2.1150 -2.0701 -0.0001
 3068SOL     OW10059   2.035   5.408   7.603  0.0434 -0.8739  0.2156
 3068SOL    HW110060   1.998   5.367   7.524 -1.3218 -0.9499  0.8729
 3068SOL    HW210061   2.035   5.338   7.668  0.6736 -0.6629  0.4480
 3069SOL     OW10062   5.118   5.748   7.548 -0.4162 -0.6918 -0.2344
 3069SOL    HW110063   5.149   5.741   7.639 -0.8459  0.2181 -0.0034
 3069SOL    HW210064   5.117   5.658   7.516 -1.3225 -1.1684  1.0319
 3070SOL     OW10065   4.073   3.856   4.779 -0.2424 -0.2822  0.2850
 3070SOL    HW110066   3.992   3.850   4.728 -1.1106  2.1354  1.2344
 3070SOL    HW210067   4.045   3.889   4.864  1.6341 -0.4695  1.0153
 3071SOL     OW10068   6.845   6.553   6.179 -0.4020 -0.4573  0.4242
 3071SOL    HW110069   6.791   6.603   6.118 -0.9369 -1.4380  0.0645
 3071SOL    HW210070   6.793   6.549   6.260 -0.5843 -0.8249  0.2949
 3072SOL     OW10071   3.258   2.678   5.595  0.0218 -0.0594 -0.0778
 3072SOL    HW110072   3.306   2.760   5.581  0.1507  0.5077  2.9733
 3072SOL    HW210073   3.273   2.627   5.515  3.8487  1.0120 -0.2396
 3073SOL     OW10074   5.910   3.223   2.345  0.6848 -0.1598 -0.4860
 3073SOL    HW110075   5.821   3.233   2.378  0.0320 -1.8151 -1.6332
 3073SOL    HW210076   5.910   3.267   2.261  0.3667 -1.7579 -1.3629
 3074SOL     OW10077   1.064   4.009   0.268  0.8867 -0.1280 -0.0153
 3074SOL    HW110078   1.044   3.926   0.311  0.6881 -1.7816 -2.9693
 3074SOL    HW210079   1.016   4.074   0.318 -0.9931 -2.1442  1.0208
 3075SOL     OW10080   6.697   7.440   3.976  0.2041  0.7759  0.5505
 3075SOL    HW110081   6.623   7.381   3.958  0.5466  1.1300 -2.6796
 3075SOL    HW210082   6.760   7.386   4.023 -0.6074 -0.6258  0.0927
 3076SOL     OW10083   4.319   1.158   4.791  0.5307 -0.1560 -0.0983
 3076SOL    HW110084   4.234   1.142   4.749  0.7864  0.3742 -0.8431
 3076SOL    HW210085   4.333   1.081   4.847 -1.0386  0.3587  1.0517
 3077SOL     OW10086   2.401   5.250   4.250  0.0553  0.1701 -0.4113
 3077SOL    HW110087   2.305   5.255   4.253  0.0282 -0.2723 -0.3974
 3077SOL    HW210088   2.419   5.191   4.177  0.2220 -1.9422  1.2355
 3078SOL     OW10089   3.650   3.368   2.759  0.1726 -0.8612 -0.6475
 3078SOL    HW110090   3.740   3.381   2.789 -0.7679 -1.2463  2.7364
 3078SOL    HW210091   3.659   3.318   2.678  3.0038 -1.1493 -0.2507
 3079SOL     OW10092   5.955   7.266   3.914 -0.5194 -0.4440  0.1990
 3079SOL    HW110093   5.947   7.173   3.896  0.2146 -0.3795 -0.4907
 3079SOL    HW210094   5.876   7.287   3.966 -0.1732 -1.6508  1.2700
 3080SOL     OW10095   4.329   4.530   2.150 -0.1789  0.2959 -0.3128
 3080SOL    HW110096   4.313   4.472   2.075 -1.5657 -2.7562  2.0702
 3080SOL    HW210097   4.392   4.482   2.204  1.7037  2.9447  0.0082
 3081SOL     OW10098   6.386   1.815   0.371  0.4861 -0.0812  0.1699
 3081SOL    HW110099   6.419   1.820   0.461  1.0723  0.5335 -0.0709
 3081SOL    HW210100   6.291   1.828   0.380  0.5930  0.4179  0.6571
 3082SOL     OW10101   7.480   1.835   5.938  0.5737 -0.7023 -0.4177
 3082SOL    HW110102   7.502   1.920   5.976  1.8892 -1.8731  1.6685
 3082SOL    HW210103   7.546   1.820   5.871  0.5353 -0.2308 -0.5633
 3083SOL     OW10104   2.325   6.137   3.789  0.0792 -0.3962  0.2304
 3083SOL    HW110105   2.394   6.200   3.768  0.9352 -0.4185  2.6483
 3083SOL    HW210106   2.372   6.059   3.818 -0.9829 -1.6523 -1.2552
 3084SOL     OW10107   5.133   7.644   5.380  0.1056  0.2050  0.2727
 3084SOL    HW110108   5.192   7.637   5.305  1.8954  0.7555  1.5805
 3084SOL    HW210109   5.068   7.709   5.353 -0.0842 -0.5809 -1.2853
 3085SOL     OW10110   0.162   7.529   1.979 -0.3766 -0.1755 -0.0315
 3085SOL    HW110111   0.248   7.550   2.016 -0.3106  2.8848 -1.6249
 3085SOL    HW210112   0.175   7.445   1.935  1.0953 -0.9510  1.7587
 3086SOL     OW10113   4.452   3.392   0.484  0.2924  0.4709 -0.2101
 3086SOL    HW110114   4.490   3.466   0.436  1.6463  0.7370  1.2106
 3086SOL    HW210115   4.500   3.389   0.567 -1.4674 -0.4263  0.8444
 3087SOL     OW10116   2.506   1.318   2.044 -0.4838  0.0474 -0.0687
 3087SOL    HW110117   2.596   1.338   2.071 -0.6406 -0.2843  0.7185
 3087SOL    HW210118   2.509   1.320   1.948  0.4137 -0.1682 -0.0549
 3088SOL     OW10119   2.955   6.969   6.158 -0.0934 -0.2863 -0.4900
 3088SOL    HW110120   3.042   7.010   6.164 -0.9420  1.5287  0.1708
 3088SOL    HW210121   2.928   6.983   6.067  1.1032 -2.6738 -1.2758
 3089SOL     OW10122   7.408   3.045   3.693 -0.0099  0.4240 -0.7789
 3089SOL    HW110123   7.336   2.987   3.719  1.0947 -1.2932 -1.4136
 3089SOL    HW210124   7.438   3.084   3.775 -1.4039  0.8949 -0.4606
 3090SOL     OW10125   2.344   4.228   0.001 -0.4752 -0.3136 -0.1309
 3090SOL    HW110126   2.270   4.187   0.047  1.3560 -2.2228  1.3115
 3090SOL    HW210127   2.398   4.265   0.071  0.6985 -0.3293 -1.0022
 3091SOL     OW10128   3.467   5.761   6.946  0.5962 -0.2014  0.6992
 3091SOL    HW110129   3.524   5.838   6.942  1.5053 -0.8434  0.8488
 3091SOL    HW210130   3.439   5.747   6.856  0.8673 -0.0165  0.5848
 3092SOL     OW10131   3.086   7.367   1.477 -0.0739 -0.3527 -0.2739
 3092SOL    HW110132   3.156   7.317   1.437  0.6582  0.4247  0.0012
 3092SOL    HW210133   3.044   7.306   1.537  1.2124 -0.4775  0.5325
 3093SOL     OW10134   1.990   4.322   5.320 -0.2912 -0.0082  0.3592
 3093SOL    HW110135   1.931   4.248   5.332  0.4510 -0.4166  1.6743
 3093SOL    HW210136   2.003   4.327   5.225  0.0409 -1.8646  0.2722
 3094SOL     OW10137   4.624   7.862   7.569 -0.1456  0.0473  0.2889
 3094SOL    HW110138   4.639   7.840   7.661 -1.6141 -3.0635 -0.0661
 3094SOL    HW210139   4.707   7.841   7.526 -0.3976 -1.5325  0.5173
 3095SOL     OW10140   5.029   2.083   4.331 -0.2504  0.0255 -0.6835
 3095SOL    HW110141   5.003   1.996   4.302 -0.7001 -0.5922  1.4155
 3095SOL    HW210142   5.096   2.068   4.398 -1.2853  1.1728  0.6956
 3096SOL     OW10143   0.745   5.999   2.939  0.1284 -0.2745 -0.7115
 3096SOL    HW110144   0.745   6.075   2.997  3.5068  0.1119 -1.0590
 3096SOL    HW210145   0.721   5.926   2.996  1.4203  0.3772  0.7409
 3097SOL     OW10146   4.623   4.069   7.020 -0.3785 -0.5446  0.5052
 3097SOL    HW110147   4.719   4.072   7.027 -0.2115 -0.0032 -1.4354
 3097SOL    HW210148   4.592   4.102   7.105  1.1825  1.1123  0.5059
 3098SOL     OW10149   7.863   1.942   6.082 -0.5569 -0.3013 -0.3139
 3098SOL    HW110150   7.947   1.987   6.094 -1.0181  0.5740 -0.2457
 3098SOL    HW210151   7.806   1.981   6.148 -0.9249 -1.1340 -0.1396
 3099SOL     OW10152   6.028   1.570   1.717 -0.0751  0.3825 -0.5365
 3099SOL    HW110153   5.942   1.600   1.746 -1.0657 -1.2437 -1.6429
 3099SOL    HW210154   6.059   1.514   1.788  0.3283  1.3758  0.0901
 3100SOL     OW10155   3.003   4.964   1.930  0.3930  0.0555 -0.2871
 3100SOL    HW110156   2.920   5.011   1.934 -0.2750 -1.1904  1.2528
 3100SOL    HW210157   3.070   5.031   1.942 -0.3795  1.0120 -1.1603
 3101SOL     OW10158   4.879   1.482   4.101  0.9173 -0.3041  0.1627
 3101SOL    HW110159   4.791   1.471   4.138  1.2662  0.5088  1.2720
 3101SOL    HW210160   4.887   1.410   4.038 -0.4628 -0.5105  0.1850
 3102SOL     OW10161   4.106   0.843   2.121  0.1302 -0.4291  0.1290
 3102SOL    HW110162   4.091   0.751   2.146  0.5495 -0.5053  0.1125
 3102SOL    HW210163   4.089   0.893   2.201  1.2456 -0.6491  0.5149
 3103SOL     OW10164   6.017   1.881   3.705 -0.0882  0.5978 -0.5151
 3103SOL    HW110165   5.950   1.942   3.673 -2.0230 -0.5779  1.0764
 3103SOL    HW210166   6.075   1.868   3.630 -1.8246  1.4111 -2.0878
 3104SOL     OW10167   6.004   0.671   1.062 -0.0674  0.2567  0.1339
 3104SOL    HW110168   5.962   0.586   1.053 -0.5210  0.4295  0.5319
 3104SOL    HW210169   6.032   0.694   0.974 -1.8944  0.6700 -0.3889
 3105SOL     OW10170   5.174   3.954   1.939 -0.3188 -0.0522 -0.0405
 3105SOL    HW110171   5.186   3.882   1.878 -1.0074 -0.2210  0.0156
 3105SOL    HW210172   5.258   3.962   1.984 -0.3609 -1.0761  0.2361
 3106SOL     OW10173   7.192   4.737   4.410 -0.0771 -0.1386 -0.5412
 3106SOL    HW110174   7.191   4.823   4.369  0.3165 -0.2156 -0.7274
 3106SOL    HW210175   7.231   4.680   4.343  0.5863 -0.2635 -0.0617
 3107SOL     OW10176   4.805   3.334   7.287 -0.1762  0.4419 -0.0157
 3107SOL    HW110177   4.791   3.400   7.355  0.6111 -0.0737  0.6656
 3107SOL    HW210178   4.883   3.363   7.240  1.1279 -0.7674  1.2895
 3108SOL     OW10179   4.989   4.318   3.185 -0.0521  0.3196 -0.5637
 3108SOL    HW110180   4.923   4.250   3.169 -0.0377  0.2051 -0.1623
 3108SOL    HW210181   5.024   4.297   3.272 -1.1217  1.7219  0.2544
 3109SOL     OW10182   2.713   2.439   5.998  0.2857 -0.4678 -0.1076
 3109SOL    HW110183   2.651   2.373   6.030  0.4975 -1.0112 -0.7994
 3109SOL    HW210184   2.661   2.499   5.946  0.2395 -0.5699 -0.1781
 3110SOL     OW10185   0.196   2.024   2.527  0.5422 -0.4231  0.4578
 3110SOL    HW110186   0.127   1.980   2.478 -0.3072 -0.5615  1.7426
 3110SOL    HW210187   0.278   1.989   2.490 -0.0567 -0.3378 -0.9946
 3111SOL     OW10188   3.636   4.588   3.358  0.3909  0.0929 -0.1473
 3111SOL    HW110189   3.618   4.494   3.358  0.4956  0.0544  0.8938
 3111SOL    HW210190   3.730   4.593   3.379  0.6236  0.4076 -1.2153
 3112SOL     OW10191   7.307   0.103   0.006 -0.8237 -0.1132  0.1636
 3112SOL    HW110192   7.287   0.011  -0.010 -0.8755 -0.2035  0.7592
 3112SOL    HW210193   7.363   0.128  -0.069  0.0677 -0.9132  0.5404
 3113SOL     OW10194   1.348   3.031   5.701  0.5649  0.4305  0.6537
 3113SOL    HW110195   1.339   3.125   5.713  1.5947  0.6746 -0.3060
 3113SOL    HW210196   1.374   2.997   5.787 -0.6254  0.8849  1.2157
 3114SOL     OW10197   3.797   4.343   6.229  0.1696 -0.2457 -0.3407
 3114SOL    HW110198   3.708   4.375   6.218 -1.0336 -2.7640  1.2433
 3114SOL    HW210199   3.807   4.330   6.324  2.0754 -0.3970 -0.5205
 3115SOL     OW10200   4.131   5.755   7.417 -0.3826 -0.4765 -0.2116
 3115SOL    HW110201   4.101   5.667   7.392 -0.4901 -0.1189 -1.4500
 3115SOL    HW210202   4.154   5.796   7.333 -0.9697  0.9089  0.2799
 3116SOL     OW10203   6.240   6.172   6.902  0.3598 -0.3458 -0.0529
 3116SOL    HW110204   6.233   6.105   6.834  0.5617 -0.7101  0.2816
 3116SOL    HW210205   6.241   6.123   6.984 -1.6375  0.1621  0.3337
 3117SOL     OW10206   5.143   4.854   4.625  0.7777 -0.1862  0.1012
 3117SOL    HW110207   5.214   4.833   4.564  2.5603 -1.3285  2.4510
 3117SOL    HW210208   5.171   4.936   4.666  0.1185  0.0122  0.1567
 3118SOL     OW10209   7.015   1.248   1.138  0.3032 -0.1272 -0.1444
 3118SOL    HW110210   7.027   1.283   1.050 -0.9758  0.5424 -0.0739
 3118SOL    HW210211   7.020   1.324   1.195 -0.7636 -0.2920  0.1806
 3119SOL     OW10212   7.021   0.805   3.768 -0.0505 -0.3443  0.3466
 3119SOL    HW110213   6.930   0.775   3.774 -0.3800  0.3436 -0.9520
 3119SOL    HW210214   7.066   0.759   3.840 -1.0267 -2.0536 -0.0816
 3120SOL     OW10215   1.784   7.171   7.863  0.0459 -0.4040 -0.0019
 3120SOL    HW110216   1.773   7.175   7.768  0.7868  0.1125 -0.0713
 3120SOL    HW210217   1.802   7.261   7.889  0.7214 -0.6788  0.5104
 3121SOL     OW10218   7.552   4.853   7.298  1.1170  0.2885  0.3612
 3121SOL    HW110219   7.565   4.761   7.275 -0.7270  0.0709  0.0415
 3121SOL    HW210220   7.496   4.887   7.229  0.9460  1.3862  1.0207
 3122SOL     OW10221   2.462   0.379   3.847 -0.0553 -0.0285  0.4469
 3122SOL    HW110222   2.508   0.404   3.767  1.8103 -3.3808  0.2540
 3122SOL    HW210223   2.530   0.375   3.914 -0.5390 -2.1937  0.9009
 3123SOL     OW10224   5.916   5.076   6.511 -0.0418 -0.1944  0.1349
 3123SOL    HW110225   5.938   4.984   6.521  1.3985  0.3532  2.9692
 3123SOL    HW210226   5.906   5.109   6.600 -0.0344  2.5010 -0.7472
 3124SOL     OW10227   0.363   5.547   4.242  0.3442 -0.1861 -0.2764
 3124SOL    HW110228   0.449   5.513   4.266  1.1730  0.4503 -2.1431
 3124SOL    HW210229   0.340   5.499   4.162 -2.1397 -2.0304  1.3690
 3125SOL     OW10230   5.561   0.220   1.001  0.7204 -0.0598 -0.7638
 3125SOL    HW110231   5.504   0.262   1.065 -2.7464 -2.2585 -2.1531
 3125SOL    HW210232   5.617   0.291   0.969  0.1754  1.8270  2.0681
 3126SOL     OW10233   2.697   0.702   7.429 -0.9735 -0.3116  0.5261
 3126SOL    HW110234   2.682   0.781   7.481 -0.0304 -1.2926  2.3912
 3126SOL    HW210235   2.609   0.668   7.413 -1.3115  0.1705  1.2599
 3127SOL     OW10236   3.483   7.415   3.008  0.1154  0.4971  0.2128
 3127SOL    HW110237   3.472   7.360   2.931  0.5122 -0.2489  0.6698
 3127SOL    HW210238   3.577   7.412   3.027 -0.0425  0.2433  1.0185
 3128SOL     OW10239   7.537   5.379   6.104  0.1586  0.0017 -0.2490
 3128SOL    HW110240   7.536   5.314   6.174 -0.2789 -1.8039 -1.8649
 3128SOL    HW210241   7.626   5.413   6.103 -0.0419  0.7253  1.7157
 3129SOL     OW10242   6.018   2.008   1.915  0.7186 -0.2853 -0.1129
 3129SOL    HW110243   5.949   1.995   1.980  1.1402  1.9242  0.8859
 3129SOL    HW210244   6.086   2.056   1.962  2.6605 -1.7744 -1.2670
 3130SOL     OW10245   0.440   4.461   0.431  0.7240 -0.1061  0.8278
 3130SOL    HW110246   0.443   4.411   0.349  0.4924  1.2001 -0.0012
 3130SOL    HW210247   0.509   4.527   0.422  0.6114  0.1331  1.6350
 3131SOL     OW10248   6.925   0.100   4.155 -0.8642 -0.3479 -0.7699
 3131SOL    HW110249   6.890   0.055   4.078 -1.1057 -0.2970 -0.6925
 3131SOL    HW210250   6.892   0.049   4.229 -0.4793 -0.5038 -0.7068
 3132SOL     OW10251   0.665   7.907   5.458  0.6798  0.2615 -0.0146
 3132SOL    HW110252   0.692   7.824   5.421 -0.2931 -0.3091  0.5192
 3132SOL    HW210253   0.570   7.910   5.445  0.8114  1.6975 -0.8316
 3133SOL     OW10254   0.493   6.551   0.956 -0.6522 -0.0753  0.6424
 3133SOL    HW110255   0.507   6.472   1.008  2.1305 -0.4322 -0.4947
 3133SOL    HW210256   0.472   6.518   0.869 -0.5988  0.4554  0.4286
 3134SOL     OW10257   0.103   2.176   6.279  0.1540 -0.7049  0.0746
 3134SOL    HW110258   0.191   2.197   6.246 -0.4688 -1.5524 -2.3184
 3134SOL    HW210259   0.093   2.232   6.356  3.5532 -2.0631  1.7343
 3135SOL     OW10260   3.827   5.048   7.430  0.0204  0.2470  0.4925
 3135SOL    HW110261   3.736   5.024   7.449 -0.9621  1.8023 -1.8581
 3135SOL    HW210262   3.855   5.097   7.507 -1.7016  1.1779  0.5719
 3136SOL     OW10263   2.057   1.732   7.597 -0.6250 -0.0116 -0.2265
 3136SOL    HW110264   2.101   1.665   7.649  0.4730  0.2550 -0.7888
 3136SOL    HW210265   2.063   1.812   7.650 -0.5695 -0.0112 -0.2334
 3137SOL     OW10266   5.293   7.381   5.158 -0.4088  0.1139 -1.1495
 3137SOL    HW110267   5.328   7.370   5.246  0.8317 -0.8547 -1.7364
 3137SOL    HW210268   5.324   7.467   5.130  0.6314 -0.2880 -1.2609
 3138SOL     OW10269   6.099   7.501   1.228  0.6085  0.3022 -0.1200
 3138SOL    HW110270   6.052   7.550   1.295  1.4168  1.4485 -0.3577
 3138SOL    HW210271   6.192   7.516   1.247  0.8645  1.2052 -1.8416
 3139SOL     OW10272   5.727   1.337   5.026  0.3384 -0.1548  0.1812
 3139SOL    HW110273   5.710   1.430   5.037  0.7940  0.1451 -1.3876
 3139SOL    HW210274   5.664   1.294   5.083  1.2784  1.1327  2.3136
 3140SOL     OW10275   3.978   5.807   1.778  0.4539 -0.2236 -0.0975
 3140SOL    HW110276   4.012   5.872   1.839  0.7056  0.3586 -0.8435
 3140SOL    HW210277   3.954   5.857   1.700 -0.9490 -0.7918 -0.0629
 3141SOL     OW10278   0.925   6.708   4.088 -0.4854 -0.5178  0.0000
 3141SOL    HW110279   1.012   6.725   4.125  0.0253 -1.1641 -0.8696
 3141SOL    HW210280   0.878   6.661   4.158 -0.5210  0.7522  0.8696
 3142SOL     OW10281   4.600   2.277   7.533  0.2336 -0.2732  0.0488
 3142SOL    HW110282   4.648   2.284   7.616  0.4051  1.2765 -0.1437
 3142SOL    HW210283   4.648   2.212   7.483  1.1818  0.0552  0.5021
 3143SOL     OW10284   6.842   7.038   2.873  0.2209 -0.2970  0.0013
 3143SOL    HW110285   6.923   7.066   2.830 -0.4053  1.0841 -0.3561
 3143SOL    HW210286   6.795   6.991   2.805  0.3945 -0.4368 -0.0223
 3144SOL     OW10287   6.975   2.752   4.204 -0.1703 -0.0599  0.0977
 3144SOL    HW110288   6.962   2.810   4.279 -0.2437 -0.8096  0.6713
 3144SOL    HW210289   6.926   2.673   4.226 -2.1868  0.5615 -1.7764
 3145SOL     OW10290   5.416   6.896   6.892  0.4539  0.0414  0.2826
 3145SOL    HW110291   5.486   6.960   6.877 -0.6513  1.2262 -0.0292
 3145SOL    HW210292   5.441   6.853   6.973  0.9916  1.2302  0.7851
 3146SOL     OW10293   5.507   3.275   2.894  0.0382 -0.2841  0.2350
 3146SOL    HW110294   5.596   3.270   2.859  0.1178  0.6841  0.2713
 3146SOL    HW210295   5.451   3.283   2.817  0.0001 -0.7046  0.2201
 3147SOL     OW10296   5.466   0.688   0.145 -0.3181  0.2279  0.4620
 3147SOL    HW110297   5.381   0.732   0.157  0.4055  1.6301  0.6686
 3147SOL    HW210298   5.531   0.754   0.168  0.8524 -0.7690  0.1512
 3148SOL     OW10299   2.445   4.135   1.826  0.4667  0.3802 -0.2797
 3148SOL    HW110300   2.378   4.200   1.805  1.4314  1.4249 -0.1907
 3148SOL    HW210301   2.400   4.072   1.882 -0.7872  0.3261 -1.3030
 3149SOL     OW10302   2.429   2.288   7.882  0.0116  0.6876 -0.3312
 3149SOL    HW110303   2.454   2.377   7.907  0.5290  1.0048 -1.8788
 3149SOL    HW210304   2.509   2.237   7.890  0.4297  0.9897 -2.0821
 3150SOL     OW10305   2.663   1.594   3.127  0.2538  0.4875 -0.0400
 3150SOL    HW110306   2.587   1.652   3.135  0.5553  0.7940  0.6783
 3150SOL    HW210307   2.730   1.633   3.183  1.1939  0.6018 -1.2065
 3151SOL     OW10308   4.177   5.131   1.919 -0.2777  0.2339  0.3750
 3151SOL    HW110309   4.128   5.076   1.859 -0.7929  1.4985 -0.4204
 3151SOL    HW210310   4.241   5.176   1.863  1.0349 -0.5193  1.2108
 3152SOL     OW10311   4.103   6.808   5.115  0.1680  0.2483  0.3648
 3152SOL    HW110312   4.055   6.730   5.087 -0.0039  1.2361 -2.4241
 3152SOL    HW210313   4.192   6.777   5.131  0.1789 -0.5350 -1.0068
 3153SOL     OW10314   5.160   5.722   2.633 -0.0381  0.4601  0.0625
 3153SOL    HW110315   5.078   5.678   2.612  0.6076 -0.0736 -1.4392
 3153SOL    HW210316   5.193   5.754   2.550  1.3979  0.4635  0.6029
 3154SOL     OW10317   0.831   0.194   2.572  0.0208 -0.0759  0.3928
 3154SOL    HW110318   0.819   0.286   2.594 -0.7119  0.0245 -0.3642
 3154SOL    HW210319   0.777   0.180   2.494 -0.0552 -1.1954  0.6172
 3155SOL     OW10320   7.755   3.055   1.909 -0.4190 -0.4875 -0.0170
 3155SOL    HW110321   7.851   3.065   1.909 -0.4893  1.2261  2.8463
 3155SOL    HW210322   7.741   2.962   1.923  0.7874 -0.8891 -1.2470
 3156SOL     OW10323   2.575   4.406   0.223  0.0956 -0.4607  0.0400
 3156SOL    HW110324   2.560   4.334   0.284 -0.0470  1.3888  2.3330
 3156SOL    HW210325   2.552   4.485   0.273  3.5959  1.4942 -1.1042
 3157SOL     OW10326   7.044   2.154   0.759  0.3574  0.1576  0.4355
 3157SOL    HW110327   7.059   2.074   0.708  0.7423  0.7448 -0.3891
 3157SOL    HW210328   6.979   2.129   0.825 -1.3188 -0.2201 -1.2905
 3158SOL     OW10329   5.514   5.152   4.186 -0.2904  0.0188 -0.0823
 3158SOL    HW110330   5.461   5.178   4.111  0.1884  0.0575 -0.4096
 3158SOL    HW210331   5.538   5.061   4.169  2.1471  0.8032 -1.3934
 3159SOL     OW10332   2.833   2.022   0.885  0.2373  0.3117 -0.0018
 3159SOL    HW110333   2.755   2.015   0.941 -0.2079 -0.2727 -0.6748
 3159SOL    HW210334   2.879   1.939   0.898  1.5169  1.1960  1.4644
 3160SOL     OW10335   6.278   2.668   5.972  0.5509  0.2119 -0.1990
 3160SOL    HW110336   6.213   2.724   5.930 -1.2930 -0.7563  1.1998
 3160SOL    HW210337   6.361   2.692   5.931 -0.1463  3.7756  0.1115
 3161SOL     OW10338   3.543   0.570   1.176 -0.3588  0.1044  0.2415
 3161SOL    HW110339   3.503   0.555   1.262  1.9316 -2.6277  0.9819
 3161SOL    HW210340   3.632   0.599   1.195 -0.0115  0.0556 -1.2082
 3162SOL     OW10341   3.296   7.393   5.186  0.0670 -0.1371  0.1292
 3162SOL    HW110342   3.282   7.479   5.146 -2.1666 -1.1473 -1.5036
 3162SOL    HW210343   3.387   7.372   5.167  0.6286  1.7700  0.4605
 3163SOL     OW10344   0.351   0.169   3.001 -0.3614  0.0515 -0.0140
 3163SOL    HW110345   0.432   0.216   2.979 -1.2156  2.1429  1.0635
 3163SOL    HW210346   0.336   0.111   2.926  2.4330 -0.9094  0.0152
 3164SOL     OW10347   6.282   7.487   7.566 -0.1429  0.1343 -0.2065
 3164SOL    HW110348   6.270   7.559   7.504  0.1665  0.1341 -0.2680
 3164SOL    HW210349   6.350   7.518   7.626 -0.7980  0.3388  0.4413
 3165SOL     OW10350   6.055   7.347   0.673  0.0220  0.0714 -0.1734
 3165SOL    HW110351   6.050   7.291   0.596  0.0917  0.4759 -0.4747
 3165SOL    HW210352   6.140   7.391   0.666 -0.6954  1.4282 -0.7898
 3166SOL     OW10353   3.929   6.165   7.939  0.2503 -0.6478 -0.4135
 3166SOL    HW110354   3.978   6.171   7.857 -0.0197  2.8319 -0.4769
 3166SOL    HW210355   3.838   6.156   7.911  0.0650  1.3751 -0.6212
 3167SOL     OW10356   7.878   7.328   3.624 -0.5216 -0.0186  0.2638
 3167SOL    HW110357   7.948   7.263   3.617 -0.6322 -0.0999 -0.1031
 3167SOL    HW210358   7.808   7.295   3.567  0.4625  1.7621 -2.1646
 3168SOL     OW10359   3.057   0.923   0.310  0.6184 -0.8375 -0.0857
 3168SOL    HW110360   3.108   0.870   0.249  0.3742  0.6790 -1.6651
 3168SOL    HW210361   2.966   0.906   0.286  0.5490  1.4031 -1.6845
 3169SOL     OW10362   5.892   2.660   2.243 -0.1552  0.0015  0.1908
 3169SOL    HW110363   5.941   2.727   2.290 -1.3277  0.6070  0.5724
 3169SOL    HW210364   5.903   2.581   2.296  0.5757  0.0758  0.1559
 3170SOL     OW10365   6.718   5.812   2.015 -0.0779 -0.5699 -0.1080
 3170SOL    HW110366   6.646   5.769   2.062 -1.2573  1.5316  0.1150
 3170SOL    HW210367   6.686   5.818   1.925  1.3069 -2.6771 -0.8313
 3171SOL     OW10368   1.165   1.114   2.037 -0.0362 -0.5245  0.2344
 3171SOL    HW110369   1.244   1.061   2.022 -0.1875 -0.4444 -1.0073
 3171SOL    HW210370   1.133   1.133   1.949 -1.0052  0.1122  0.7109
 3172SOL     OW10371   5.145   3.874   7.036 -0.0439 -0.2837  0.8141
 3172SOL    HW110372   5.203   3.888   7.111  1.8493 -0.1436 -0.5682
 3172SOL    HW210373   5.058   3.897   7.067  1.0047  1.9921  2.3171
 3173SOL     OW10374   4.313   1.400   0.700  0.3280  0.0374 -0.1313
 3173SOL    HW110375   4.242   1.444   0.748 -0.4655 -0.6622 -0.6219
 3173SOL    HW210376   4.283   1.309   0.692  1.8478 -0.5795  0.7110
 3174SOL     OW10377   4.155   2.107   0.616 -0.1044  0.1329  0.0386
 3174SOL    HW110378   4.147   2.012   0.618  0.7385  0.0531  0.1272
 3174SOL    HW210379   4.229   2.124   0.558 -1.5097  0.8485 -1.6375
 3175SOL     OW10380   7.471   7.771   0.887 -0.1211 -0.7167  0.2569
 3175SOL    HW110381   7.534   7.831   0.847  0.0104 -0.8729  0.2293
 3175SOL    HW210382   7.428   7.728   0.813 -0.2119 -0.6620  0.2771
 3176SOL     OW10383   0.066   2.302   3.861 -0.5301  0.8728  0.0322
 3176SOL    HW110384   0.007   2.285   3.935  1.5138 -1.4202  1.2697
 3176SOL    HW210385   0.011   2.290   3.783 -2.7497  3.4171  1.0539
 3177SOL     OW10386   7.008   3.290   7.877  0.4629 -0.1565 -0.1839
 3177SOL    HW110387   6.977   3.204   7.907  0.1968  0.1406  0.4038
 3177SOL    HW210388   6.974   3.351   7.942  0.5228  0.4126 -0.6867
 3178SOL     OW10389   3.571   2.229   7.079 -0.2956 -0.4370 -0.0783
 3178SOL    HW110390   3.581   2.190   7.166 -0.6057 -0.9095 -0.2517
 3178SOL    HW210391   3.476   2.230   7.065 -0.3494  1.0156  0.2110
 3179SOL     OW10392   2.499   2.892   7.345  0.2902 -0.3598  0.1751
 3179SOL    HW110393   2.555   2.964   7.375  0.2828 -0.1947 -0.2021
 3179SOL    HW210394   2.553   2.813   7.359  0.1873 -0.3184  0.8645
 3180SOL     OW10395   5.838   5.031   4.499 -0.0528 -0.2000 -0.2835
 3180SOL    HW110396   5.772   5.097   4.519 -0.3524 -0.8646  1.0058
 3180SOL    HW210397   5.921   5.076   4.510 -0.2605  0.4080 -1.0882
 3181SOL     OW10398   0.870   4.789   3.219 -0.1911 -0.5324 -0.0628
 3181SOL    HW110399   0.912   4.871   3.245  1.5658 -1.3015 -0.3525
 3181SOL    HW210400   0.874   4.735   3.298 -0.6438 -0.6250 -0.1003
 3182SOL     OW10401   5.357   5.323   7.719  0.4081  0.1685  0.4645
 3182SOL    HW110402   5.421   5.307   7.649 -1.5565 -0.9864 -1.1899
 3182SOL    HW210403   5.299   5.247   7.716 -0.4065  0.6436  2.6569
 3183SOL     OW10404   0.046   3.697   5.377 -0.2235  0.4575  0.5013
 3183SOL    HW110405   0.102   3.710   5.453  0.4876  2.1738 -0.2682
 3183SOL    HW210406  -0.025   3.760   5.388 -1.2382 -0.6751  0.7145
 3184SOL     OW10407   1.433   5.340   7.679  0.3163  0.0089 -0.6131
 3184SOL    HW110408   1.473   5.419   7.642 -1.8633  1.5618  0.1202
 3184SOL    HW210409   1.352   5.329   7.629 -0.4231 -0.5351  0.6733
 3185SOL     OW10410   3.944   0.269   4.584  0.7358  0.1969 -0.1507
 3185SOL    HW110411   3.865   0.262   4.639 -0.1046 -0.0709 -1.3530
 3185SOL    HW210412   4.009   0.215   4.629  0.2015  0.3076  0.7917
 3186SOL     OW10413   6.892   1.108   0.538 -0.1662  0.2216  0.5568
 3186SOL    HW110414   6.823   1.101   0.603 -0.4518  2.4462  0.5613
 3186SOL    HW210415   6.846   1.130   0.457  0.2946 -1.2692 -0.1362
 3187SOL     OW10416   7.634   3.296   1.891 -0.5914 -0.5100 -0.4412
 3187SOL    HW110417   7.701   3.338   1.945 -1.1726 -0.7537  0.4927
 3187SOL    HW210418   7.671   3.210   1.870 -1.1050 -1.1425  1.1240
 3188SOL     OW10419   5.359   7.553   6.746  0.4129  0.3570  0.2201
 3188SOL    HW110420   5.288   7.614   6.765  0.6926  0.5372  0.7018
 3188SOL    HW210421   5.329   7.469   6.780 -0.2775  0.0552 -1.0868
 3189SOL     OW10422   4.288   2.264   6.921  0.1524 -0.1177  0.4055
 3189SOL    HW110423   4.283   2.172   6.946 -0.8146 -0.4876 -1.0202
 3189SOL    HW210424   4.382   2.283   6.916  0.4481  0.0278  4.1832
 3190SOL     OW10425   3.136   2.235   4.220 -0.2812  0.0555 -0.0463
 3190SOL    HW110426   3.229   2.218   4.232 -0.1959  0.5306 -0.0187
 3190SOL    HW210427   3.128   2.331   4.223 -0.8833 -0.0098  0.8437
 3191SOL     OW10428   1.245   1.604   4.547  0.0804  0.6054  0.0092
 3191SOL    HW110429   1.257   1.634   4.638 -0.9763 -0.9668  0.7102
 3191SOL    HW210430   1.297   1.524   4.541 -0.6322  0.1644 -0.4572
 3192SOL     OW10431   2.556   4.826   7.311  0.2235  0.4152 -0.2335
 3192SOL    HW110432   2.611   4.749   7.301  0.0909  0.3167 -0.2048
 3192SOL    HW210433   2.545   4.836   7.405  0.8332  0.8911 -0.2041
 3193SOL     OW10434   7.372   7.310   7.174  0.1392 -0.1838  0.3079
 3193SOL    HW110435   7.451   7.258   7.186  0.0376 -0.2875  0.5453
 3193SOL    HW210436   7.306   7.265   7.227 -0.1501 -0.2535 -0.1058
 3194SOL     OW10437   4.892   3.994   7.117 -0.2302  0.2669 -0.3397
 3194SOL    HW110438   4.887   3.979   7.211 -0.3604 -1.3382 -0.5697
 3194SOL    HW210439   4.958   4.063   7.107  0.0098  0.2389  0.8948
 3195SOL     OW10440   0.624   0.298   7.317  0.3306  0.0140 -0.1715
 3195SOL    HW110441   0.655   0.220   7.364  0.4791  0.7067  0.9173
 3195SOL    HW210442   0.555   0.266   7.260 -1.2820 -0.5791  1.9878
 3196SOL     OW10443   4.446   2.451   7.326 -0.2663  0.4242 -0.2069
 3196SOL    HW110444   4.494   2.406   7.395  1.8569 -0.4806 -2.1764
 3196SOL    HW210445   4.374   2.392   7.305 -1.3919  1.0411  1.6353
 3197SOL     OW10446   3.796   1.600   7.893 -0.1792  0.2482  0.0336
 3197SOL    HW110447   3.742   1.668   7.932  0.4692  0.3810  0.7178
 3197SOL    HW210448   3.814   1.539   7.965  3.3094  1.8961  0.7533
 3198SOL     OW10449   0.305   6.103   5.853  0.0040  0.1265 -0.0061
 3198SOL    HW110450   0.291   6.100   5.759  0.3473  0.5427 -0.0732
 3198SOL    HW210451   0.359   6.180   5.867  0.2841 -0.1510  0.4899
 3199SOL     OW10452   7.433   0.826   6.762 -0.5831 -0.2603  0.5617
 3199SOL    HW110453   7.497   0.841   6.692 -1.1940 -0.6659 -0.0942
 3199SOL    HW210454   7.410   0.914   6.793 -1.3329  0.0097 -0.6888
 3200SOL     OW10455   3.769   7.418   5.896 -0.2174 -0.0046 -0.0712
 3200SOL    HW110456   3.771   7.496   5.841  0.8181  1.5420  2.0047
 3200SOL    HW210457   3.855   7.377   5.883 -0.1838  0.0565 -0.0458
 3201SOL     OW10458   2.027   6.280   5.832  0.3477 -0.4442  0.2370
 3201SOL    HW110459   2.017   6.193   5.870  0.1937 -0.4337  0.2228
 3201SOL    HW210460   2.021   6.266   5.737 -0.8293 -0.2826  0.2679
 3202SOL     OW10461   6.714   1.796   0.678 -0.2089 -0.5890  0.0589
 3202SOL    HW110462   6.621   1.817   0.683 -0.3754 -1.2872 -0.0130
 3202SOL    HW210463   6.717   1.713   0.630  0.3724 -1.1284  0.9979
 3203SOL     OW10464   4.872   3.067   6.663  0.3164 -0.1595 -0.0285
 3203SOL    HW110465   4.873   3.162   6.658 -0.2956 -0.1815 -0.6824
 3203SOL    HW210466   4.841   3.038   6.577 -1.0717 -0.8878  0.6808
 3204SOL     OW10467   0.545   1.738   6.951  0.9195 -1.1838  0.0128
 3204SOL    HW110468   0.484   1.781   6.891  0.6723 -0.0181  1.0642
 3204SOL    HW210469   0.518   1.768   7.038  1.5333 -2.5075  0.6891
 3205SOL     OW10470   4.544   4.955   5.905  0.1992  0.1027 -0.1186
 3205SOL    HW110471   4.600   4.883   5.873 -0.0062 -0.2570  0.3334
 3205SOL    HW210472   4.601   5.032   5.900  0.3557 -0.0467 -0.8100
 3206SOL     OW10473   1.217   6.133   3.692  0.3041 -0.0005 -0.1145
 3206SOL    HW110474   1.183   6.204   3.638  1.1022  0.7471  0.3528
 3206SOL    HW210475   1.312   6.146   3.693  0.2457  0.6783  2.3519
 3207SOL     OW10476   6.863   1.628   2.944 -0.2964 -0.0783  0.2965
 3207SOL    HW110477   6.927   1.645   2.874 -1.6858  1.3202 -0.7074
 3207SOL    HW210478   6.916   1.620   3.023  1.3037 -1.2974 -0.8251
 3208SOL     OW10479   7.286   1.038   0.284  0.0339  0.1608 -0.5127
 3208SOL    HW110480   7.310   0.978   0.354 -0.9544  0.2710 -0.0709
 3208SOL    HW210481   7.229   0.986   0.226 -1.4051  0.8435  0.2456
 3209SOL     OW10482   3.679   0.208   6.053  0.1966 -0.2501  0.0146
 3209SOL    HW110483   3.614   0.262   6.007 -1.2587  0.2355  2.4052
 3209SOL    HW210484   3.659   0.118   6.028  0.3535  0.0730 -1.3151
 3210SOL     OW10485   1.061   1.638   3.675 -0.4083 -0.4329 -0.4947
 3210SOL    HW110486   0.988   1.635   3.614  0.1051 -0.5990 -1.1093
 3210SOL    HW210487   1.023   1.614   3.760 -1.0184 -0.7359 -0.8503
 3211SOL     OW10488   5.383   1.861   6.241 -0.0053  0.4598 -0.1017
 3211SOL    HW110489   5.473   1.829   6.233 -0.3260 -0.5025  0.0335
 3211SOL    HW210490   5.375   1.888   6.332  0.4481  1.5180 -0.3602
 3212SOL     OW10491   2.348   2.011   4.909  0.4335 -0.2858 -0.1286
 3212SOL    HW110492   2.427   1.956   4.916 -1.2812 -2.7523  1.0043
 3212SOL    HW210493   2.283   1.968   4.964 -1.3212  2.5053  0.1760
 3213SOL     OW10494   5.910   0.967   4.559 -0.3782  0.0792 -1.1488
 3213SOL    HW110495   5.850   0.893   4.563 -0.3187  0.0663 -0.1602
 3213SOL    HW210496   5.866   1.031   4.504 -0.3589 -0.7451 -2.1374
 3214SOL     OW10497   5.006   7.315   3.003  0.9928 -0.7078 -0.2850
 3214SOL    HW110498   5.040   7.383   2.945 -0.0547  1.3318  1.3677
 3214SOL    HW210499   4.962   7.362   3.073  1.8985 -3.0312  2.0551
 3215SOL     OW10500   1.987   3.280   2.863 -0.1659  0.3799 -0.5085
 3215SOL    HW110501   2.017   3.296   2.953  0.4713  0.4450 -0.7295
 3215SOL    HW210502   2.063   3.299   2.808 -0.9912  1.8756 -1.1883
 3216SOL     OW10503   3.004   5.984   2.705 -0.0069  0.0889 -0.0989
 3216SOL    HW110504   3.018   5.889   2.708  1.7751  0.3020 -0.1957
 3216SOL    HW210505   2.930   5.995   2.645 -0.2696 -1.2336 -0.0656
 3217SOL     OW10506   4.601   2.377   1.624  0.3514  0.3321 -0.3616
 3217SOL    HW110507   4.613   2.339   1.712 -0.7334  0.9218  0.0519
 3217SOL    HW210508   4.536   2.446   1.636  1.4882  1.6131 -1.3109
 3218SOL     OW10509   3.539   3.242   3.571  0.2554  0.0566 -0.7323
 3218SOL    HW110510   3.550   3.312   3.635  0.8929 -1.2205  0.6323
 3218SOL    HW210511   3.507   3.168   3.623  1.2782 -1.1739 -1.7942
 3219SOL     OW10512   2.140   4.570   1.966 -0.3159  0.0458 -0.5941
 3219SOL    HW110513   2.089   4.648   1.990 -1.1168 -0.7593  0.4001
 3219SOL    HW210514   2.210   4.604   1.911  0.4354  1.7481  1.2803
 3220SOL     OW10515   4.827   7.145   1.241  0.7210  0.3649  0.5664
 3220SOL    HW110516   4.830   7.174   1.150  1.4973  0.6833  0.6859
 3220SOL    HW210517   4.734   7.136   1.261  0.5555  0.0417 -0.3338
 3221SOL     OW10518   2.953   0.993   2.619 -0.3502 -0.7421 -0.0611
 3221SOL    HW110519   3.010   1.021   2.691 -2.2406 -1.5836  1.8604
 3221SOL    HW210520   3.008   0.999   2.541  1.2578  1.9792  1.1480
 3222SOL     OW10521   0.207   6.987   0.108  0.0406 -0.4826  0.1035
 3222SOL    HW110522   0.179   7.009   0.020 -1.7237  1.8165  1.1599
 3222SOL    HW210523   0.244   7.068   0.143  1.4014 -1.5481  1.2641
 3223SOL     OW10524   0.338   0.828   3.116  0.8179  0.0216 -0.0953
 3223SOL    HW110525   0.380   0.763   3.172 -0.8286 -2.0430 -1.1544
 3223SOL    HW210526   0.400   0.841   3.044  2.0449  1.2186  1.0951
 3224SOL     OW10527   7.071   0.788   7.687  0.0203 -0.0119  0.1024
 3224SOL    HW110528   7.079   0.883   7.673 -1.2240 -0.0912 -1.4909
 3224SOL    HW210529   7.146   0.765   7.741  0.9985  1.6936 -0.4516
 3225SOL     OW10530   2.485   4.118   6.361  0.1838  0.0531  0.3139
 3225SOL    HW110531   2.422   4.045   6.356  1.2315 -0.8781  0.2496
 3225SOL    HW210532   2.438   4.193   6.326 -0.9631 -0.5698  0.4611
 3226SOL     OW10533   4.780   6.647   0.839 -0.0849 -0.5318  0.1919
 3226SOL    HW110534   4.845   6.683   0.900 -0.3628 -0.6026  0.5304
 3226SOL    HW210535   4.707   6.620   0.895 -0.1693 -0.9831 -0.1303
 3227SOL     OW10536   5.408   6.481   6.718  0.5538  0.1449 -0.4670
 3227SOL    HW110537   5.399   6.577   6.723  3.0461  0.4052  0.1681
 3227SOL    HW210538   5.400   6.452   6.809 -4.1665 -0.8301 -0.9372
 3228SOL     OW10539   2.125   6.287   7.836  0.9053 -0.4013 -0.1099
 3228SOL    HW110540   2.178   6.218   7.877  1.8607  1.2434  1.5449
 3228SOL    HW210541   2.164   6.369   7.867 -1.9927  0.9020  0.3433
 3229SOL     OW10542   3.970   4.880   0.982 -0.2419  0.0006  0.0091
 3229SOL    HW110543   3.986   4.808   1.042  0.3029  1.4393  1.6792
 3229SOL    HW210544   4.051   4.933   0.986 -0.3154  0.3091 -1.7562
 3230SOL     OW10545   4.510   4.300   0.982  0.0098  0.1434 -0.1481
 3230SOL    HW110546   4.465   4.219   1.003  0.5545  0.1597  1.1823
 3230SOL    HW210547   4.538   4.335   1.066  2.7492 -0.0208 -0.8940
 3231SOL     OW10548   5.686   4.554   2.393 -1.0683 -0.1531 -0.3011
 3231SOL    HW110549   5.703   4.557   2.299 -1.7995 -0.1218 -0.4384
 3231SOL    HW210550   5.608   4.500   2.402 -0.4816 -0.9113  0.3700
 3232SOL     OW10551   1.612   2.871   5.168  0.6435  0.3145  0.6861
 3232SOL    HW110552   1.556   2.871   5.090 -1.3207 -1.4496  1.9902
 3232SOL    HW210553   1.657   2.786   5.165  1.2958  0.6368  1.0286
 3233SOL     OW10554   7.423   7.616   3.176 -0.1894  0.1802 -0.1568
 3233SOL    HW110555   7.483   7.625   3.251  0.6131  1.1739 -0.8977
 3233SOL    HW210556   7.336   7.634   3.212 -0.2493 -2.2622  1.1611
 3234SOL     OW10557   0.142   2.489   1.228 -0.4318 -0.5755 -0.5797
 3234SOL    HW110558   0.086   2.491   1.305 -0.2071 -1.7163 -0.3746
 3234SOL    HW210559   0.086   2.458   1.157 -0.7387  0.8273 -0.9871
 3235SOL     OW10560   4.205   7.916   3.852 -0.1145 -0.3276  0.0258
 3235SOL    HW110561   4.270   7.847   3.836  0.2253 -0.4041  1.5327
 3235SOL    HW210562   4.257   7.997   3.855 -0.2013 -0.2848  0.4117
 3236SOL     OW10563   0.192   5.758   1.264  0.0083 -0.3287  0.0356
 3236SOL    HW110564   0.097   5.746   1.263 -0.1598  0.7944 -1.7866
 3236SOL    HW210565   0.204   5.853   1.264  1.1059 -0.4544 -0.4098
 3237SOL     OW10566   3.554   4.749   3.592 -0.2318 -0.7132  0.3115
 3237SOL    HW110567   3.565   4.693   3.516 -1.1658 -1.3292  0.6048
 3237SOL    HW210568   3.598   4.702   3.663  4.4010  1.7793 -0.5544
 3238SOL     OW10569   1.067   4.485   5.072  0.4831 -0.0130 -0.2571
 3238SOL    HW110570   0.987   4.466   5.022  0.4921 -0.4422 -0.1157
 3238SOL    HW210571   1.038   4.543   5.142  0.6000  1.2079 -1.1704
 3239SOL     OW10572   4.928   3.160   6.338  0.3105 -0.2251 -0.2206
 3239SOL    HW110573   5.017   3.132   6.319  0.2013 -0.0494 -1.0449
 3239SOL    HW210574   4.935   3.255   6.351  0.2850 -0.2516 -0.0086
 3240SOL     OW10575   3.053   6.434   2.340 -0.1871 -0.0419 -0.8418
 3240SOL    HW110576   2.970   6.419   2.294 -1.6350 -0.3148  1.6656
 3240SOL    HW210577   3.059   6.530   2.346 -0.9819 -0.0190 -0.0402
 3241SOL     OW10578   4.474   2.138   5.196 -0.4759  0.2517  0.4907
 3241SOL    HW110579   4.509   2.050   5.207  0.4054  0.6018  0.5796
 3241SOL    HW210580   4.523   2.191   5.259 -0.3179  0.9847 -0.2309
 3242SOL     OW10581   2.391   3.695   4.226 -0.4809  0.1483 -0.0457
 3242SOL    HW110582   2.425   3.717   4.139  2.2988 -0.4269  0.7742
 3242SOL    HW210583   2.438   3.616   4.251 -1.2133  0.2856  1.9716
 3243SOL     OW10584   3.775   2.779   3.928  0.3589 -0.2798  0.0993
 3243SOL    HW110585   3.770   2.855   3.987  1.1131 -0.4487  0.3966
 3243SOL    HW210586   3.722   2.804   3.852  0.2300  0.3635  0.3912
 3244SOL     OW10587   5.799   6.880   2.468  0.1134  0.2585  0.1637
 3244SOL    HW110588   5.825   6.964   2.432 -0.0303  0.0979 -0.3171
 3244SOL    HW210589   5.873   6.853   2.522  0.9811 -0.2136 -1.2138
 3245SOL     OW10590   6.017   6.110   5.232 -0.3189 -0.1643 -0.7119
 3245SOL    HW110591   6.065   6.028   5.247  1.7842  1.4935  3.2129
 3245SOL    HW210592   6.083   6.170   5.197  0.3274  1.6341  3.0491
 3246SOL     OW10593   2.018   2.401   5.442 -0.6219  0.1510 -0.4248
 3246SOL    HW110594   1.943   2.452   5.414 -0.0884  1.8671  1.0978
 3246SOL    HW210595   2.073   2.462   5.491 -0.0460 -1.8950  1.7186
 3247SOL     OW10596   1.302   4.902   7.236  0.0192 -0.5654 -0.4733
 3247SOL    HW110597   1.352   4.833   7.280 -0.2101  0.6178  1.7475
 3247SOL    HW210598   1.363   4.940   7.173  0.8073 -1.3728 -0.2091
 3248SOL     OW10599   2.316   5.191   5.144 -0.2509  0.5314  0.3940
 3248SOL    HW110600   2.254   5.161   5.077 -0.4334  0.8426  0.4213
 3248SOL    HW210601   2.265   5.195   5.224 -0.1819  0.7442  0.4271
 3249SOL     OW10602   6.421   7.370   1.573  0.2353  0.2933  0.2902
 3249SOL    HW110603   6.499   7.373   1.628  0.3738  0.5219  0.0800
 3249SOL    HW210604   6.403   7.461   1.549 -0.5276  0.3269  0.9410
 3250SOL     OW10605   6.563   4.016   3.182  0.0823  0.0600 -0.5499
 3250SOL    HW110606   6.537   4.062   3.262 -0.4039  1.5706 -1.5234
 3250SOL    HW210607   6.553   3.923   3.202  2.4049  0.2255  1.9816
 3251SOL     OW10608   2.313   1.318   7.465  0.0956  0.1426  0.6105
 3251SOL    HW110609   2.221   1.312   7.440  0.1998 -0.1163  0.2892
 3251SOL    HW210610   2.354   1.368   7.395  0.4915 -1.0286 -0.0140
 3252SOL     OW10611   2.303   1.941   3.778  0.2310 -0.2244 -0.2309
 3252SOL    HW110612   2.330   1.967   3.690  1.2482 -2.9710 -0.8438
 3252SOL    HW210613   2.384   1.939   3.829 -0.0537 -0.5148  0.2236
 3253SOL     OW10614   3.202   3.123   2.509 -0.1049 -1.0597 -0.3248
 3253SOL    HW110615   3.273   3.108   2.447  0.8025  1.2439  0.0422
 3253SOL    HW210616   3.143   3.184   2.464 -1.1404 -1.8691 -0.1005
 3254SOL     OW10617   3.414   4.135   2.384  0.0917 -0.0098 -0.6708
 3254SOL    HW110618   3.385   4.200   2.320 -1.6086 -1.7335 -1.7409
 3254SOL    HW210619   3.503   4.112   2.356  0.9618  2.1600  0.0608
 3255SOL     OW10620   7.043   6.722   4.705 -0.3666 -0.1157 -0.1399
 3255SOL    HW110621   6.967   6.663   4.699 -0.8806  0.6591 -1.7291
 3255SOL    HW210622   7.007   6.803   4.740 -0.1784  0.0811 -0.3972
 3256SOL     OW10623   1.722   3.315   5.668  0.7181 -0.1292  0.5707
 3256SOL    HW110624   1.741   3.313   5.762  0.7058  0.5431  0.5871
 3256SOL    HW210625   1.807   3.303   5.626  0.7020 -0.6056  0.6611
 3257SOL     OW10626   2.843   6.970   1.101  0.1364  0.1797  0.6452
 3257SOL    HW110627   2.840   7.065   1.113 -0.5036  0.0629  1.4993
 3257SOL    HW210628   2.755   6.947   1.070  0.5165 -0.0531 -0.3015
 3258SOL     OW10629   1.185   2.622   0.909 -0.2305 -0.0958 -0.5773
 3258SOL    HW110630   1.121   2.577   0.965 -0.5024 -0.7215 -1.3670
 3258SOL    HW210631   1.171   2.584   0.823  0.4975  0.5286 -0.9765
 3259SOL     OW10632   4.005   6.883   0.680 -0.7743 -0.1171  0.1686
 3259SOL    HW110633   4.019   6.974   0.654  1.1244 -0.5053 -0.3935
 3259SOL    HW210634   3.969   6.888   0.768 -3.0372  1.1801 -0.7590
 3260SOL     OW10635   1.966   2.181   2.467 -0.1753 -0.8272  0.2627
 3260SOL    HW110636   1.957   2.175   2.563  1.8301 -1.7277  0.4450
 3260SOL    HW210637   2.054   2.216   2.453 -0.5802 -0.3474 -1.2679
 3261SOL     OW10638   3.055   7.146   3.619 -0.0586 -0.2213  0.0437
 3261SOL    HW110639   3.149   7.133   3.608  0.0328  0.1738  0.3658
 3261SOL    HW210640   3.022   7.159   3.530  0.0562 -1.2428 -0.1563
 3262SOL     OW10641   4.199   7.521   1.253 -0.2240  0.2723  0.4619
 3262SOL    HW110642   4.104   7.509   1.257 -0.2963  0.4962 -0.3865
 3262SOL    HW210643   4.233   7.437   1.220  0.0676 -0.4725  2.5088
 3263SOL     OW10644   6.872   3.052   3.006  0.2607 -0.4197  0.8718
 3263SOL    HW110645   6.923   3.122   3.047  0.3131  0.3189 -0.3854
 3263SOL    HW210646   6.825   3.010   3.078  1.0885  0.1986  1.7871
 3264SOL     OW10647   0.496   7.409   2.989 -0.2326  0.1771  0.2817
 3264SOL    HW110648   0.406   7.412   3.020  0.0242  0.3230  1.0337
 3264SOL    HW210649   0.549   7.402   3.069  0.3759 -0.9415 -0.1935
 3265SOL     OW10650   5.634   6.321   0.242 -0.3946 -0.1712  0.0196
 3265SOL    HW110651   5.726   6.347   0.246 -0.3438 -0.5427  2.3961
 3265SOL    HW210652   5.634   6.228   0.261 -1.3491  0.1001  1.4975
 3266SOL     OW10653   5.528   4.787   6.074  0.2981 -0.1509  0.2599
 3266SOL    HW110654   5.482   4.864   6.107 -1.0282  0.1792 -2.1284
 3266SOL    HW210655   5.589   4.822   6.008 -0.8014 -1.1360 -1.3527
 3267SOL     OW10656   2.713   0.962   1.965  0.1360 -0.0440 -0.8900
 3267SOL    HW110657   2.668   0.984   2.047 -0.7997 -0.0650 -1.3896
 3267SOL    HW210658   2.657   0.897   1.924  0.7745 -0.2796 -1.4018
 3268SOL     OW10659   7.494   3.795   5.669  0.3067  0.2037 -0.1534
 3268SOL    HW110660   7.533   3.862   5.613  0.9104  1.3501  1.5734
 3268SOL    HW210661   7.516   3.822   5.758 -1.1366 -1.2371  0.6907
 3269SOL     OW10662   1.533   4.526   1.970  0.5529  0.3975 -0.0607
 3269SOL    HW110663   1.526   4.466   1.896  1.5003  1.0616 -0.7060
 3269SOL    HW210664   1.588   4.479   2.034  1.0504  0.4488 -0.4434
 3270SOL     OW10665   1.805   4.910   0.510  0.3251 -0.8040  0.2524
 3270SOL    HW110666   1.774   4.904   0.600  1.5020 -1.5412  0.6303
 3270SOL    HW210667   1.739   4.964   0.465 -0.2123 -0.3282  1.5685
 3271SOL     OW10668   7.188   7.010   2.222 -0.2453  0.6646  0.0591
 3271SOL    HW110669   7.256   7.005   2.155 -0.6095 -1.4937 -0.2305
 3271SOL    HW210670   7.231   7.048   2.298  0.7364  1.1973 -0.7533
 3272SOL     OW10671   1.944   4.771   2.406  0.1234 -0.1130  0.3847
 3272SOL    HW110672   1.916   4.701   2.347  0.4457 -0.1618  0.2821
 3272SOL    HW210673   2.036   4.751   2.423 -0.0120 -0.1842  1.0258
 3273SOL     OW10674   2.762   7.184   4.732  0.0759 -0.3904 -0.6822
 3273SOL    HW110675   2.730   7.263   4.689  1.7778  0.6204 -0.2048
 3273SOL    HW210676   2.687   7.124   4.733 -1.8960  1.9104  0.6356
 3274SOL     OW10677   3.360   0.536   7.957 -0.0534  0.0399  0.1739
 3274SOL    HW110678   3.290   0.473   7.974 -1.3053  1.1597 -0.6273
 3274SOL    HW210679   3.357   0.552   7.863  2.9693 -1.7207 -0.3705
 3275SOL     OW10680   7.679   4.363   7.702  0.2867  0.0328  0.2710
 3275SOL    HW110681   7.613   4.345   7.635  0.2282  0.7138  0.1414
 3275SOL    HW210682   7.711   4.276   7.728 -1.2045 -0.3620  0.8910
 3276SOL     OW10683   7.237   3.563   1.163 -0.0140  0.5137 -0.6696
 3276SOL    HW110684   7.169   3.495   1.159 -0.2217  0.6106  0.6173
 3276SOL    HW210685   7.290   3.538   1.239  2.5302 -0.5535 -2.6740
 3277SOL     OW10686   4.173   1.175   0.653 -0.2534  0.1075  0.4940
 3277SOL    HW110687   4.099   1.159   0.594  0.6848  2.0637 -1.3524
 3277SOL    HW210688   4.249   1.144   0.605  0.2735 -0.8809  1.9180
 3278SOL     OW10689   3.456   4.510   4.211 -0.2114  0.5261  0.2956
 3278SOL    HW110690   3.430   4.546   4.126 -0.6450  0.4212  0.3811
 3278SOL    HW210691   3.482   4.420   4.192  0.7585  0.8314  0.1007
 3279SOL     OW10692   3.241   7.646   1.726  0.6691 -0.3810 -0.7205
 3279SOL    HW110693   3.334   7.648   1.747  0.7341  1.6077 -0.9959
 3279SOL    HW210694   3.236   7.686   1.639 -0.5742  1.1725  0.0074
 3280SOL     OW10695   6.242   6.063   4.697 -0.5314  0.0824 -0.3369
 3280SOL    HW110696   6.235   5.976   4.736  2.0839  0.1870  0.5426
 3280SOL    HW210697   6.175   6.115   4.742  1.1120 -0.2901  2.8224
 3281SOL     OW10698   4.832   5.024   3.228  0.0406  0.1915 -0.3460
 3281SOL    HW110699   4.758   5.059   3.278  1.2095  2.4294 -0.0187
 3281SOL    HW210700   4.879   4.969   3.290 -0.2058  0.4594  0.0838
 3282SOL     OW10701   4.594   4.321   3.133 -0.5031  0.1220  0.1448
 3282SOL    HW110702   4.597   4.299   3.040  0.7021 -1.1203  0.4555
 3282SOL    HW210703   4.611   4.415   3.136  0.3176  0.0140 -0.8308
 3283SOL     OW10704   7.957   2.486   5.590 -0.2585  0.0127  0.3665
 3283SOL    HW110705   7.920   2.412   5.638  0.7305 -0.5727  0.2334
 3283SOL    HW210706   7.906   2.561   5.621 -1.0756 -0.6699  0.7196
 3284SOL     OW10707   2.641   3.597   6.791  0.1969 -0.1955 -1.5739
 3284SOL    HW110708   2.724   3.603   6.743  0.3431 -0.0348 -1.3031
 3284SOL    HW210709   2.636   3.678   6.840 -0.2338 -0.1070 -1.7621
 3285SOL     OW10710   1.535   2.782   1.427  0.1954  0.2899 -0.1903
 3285SOL    HW110711   1.625   2.811   1.412  0.6139  1.2918  3.4371
 3285SOL    HW210712   1.543   2.691   1.454  0.0385  0.2267 -0.3502
 3286SOL     OW10713   3.817   4.669   2.410 -0.0938  0.5184  0.6000
 3286SOL    HW110714   3.775   4.744   2.452 -0.6593  0.3373  0.3573
 3286SOL    HW210715   3.779   4.666   2.322  0.8746  0.7212  0.1605
 3287SOL     OW10716   2.064   6.384   6.240  0.4639 -0.5935  0.0584
 3287SOL    HW110717   2.029   6.324   6.306  1.6409 -0.5417  0.7487
 3287SOL    HW210718   2.016   6.361   6.160  0.6111 -2.1899  0.3872
 3288SOL     OW10719   4.890   3.729   2.376 -0.1264 -0.2576  0.0139
 3288SOL    HW110720   4.847   3.686   2.302  1.6967 -2.2332  0.0028
 3288SOL    HW210721   4.903   3.820   2.347 -1.8473 -0.3062 -0.9855
 3289SOL     OW10722   2.102   0.983   6.477  0.0482 -0.4091  0.7387
 3289SOL    HW110723   2.130   0.938   6.397 -0.2323 -0.1257  0.4805
 3289SOL    HW210724   2.171   1.047   6.494 -0.2752  0.0730  0.2776
 3290SOL     OW10725   1.512   0.653   0.574  0.4430  0.0154  0.1976
 3290SOL    HW110726   1.518   0.638   0.668  0.0106 -1.2405  0.0373
 3290SOL    HW210727   1.482   0.744   0.566  0.0905 -0.0003  1.2707
 3291SOL     OW10728   1.370   7.822   4.782  0.0598  0.2655  0.3548
 3291SOL    HW110729   1.416   7.789   4.705  1.7106  0.3298  1.2705
 3291SOL    HW210730   1.421   7.897   4.810 -0.4432  0.1619  1.6004
 3292SOL     OW10731   0.299   2.709   1.161  0.2304  0.5117  0.1471
 3292SOL    HW110732   0.246   2.650   1.214 -0.5284  0.3748 -0.7475
 3292SOL    HW210733   0.296   2.672   1.072  2.8016 -0.1902  0.2559
 3293SOL     OW10734   3.437   5.450   6.637  0.2340 -0.0099 -0.5557
 3293SOL    HW110735   3.396   5.503   6.705 -0.6344 -0.9031 -0.3512
 3293SOL    HW210736   3.529   5.443   6.664  0.1683  0.6618 -0.1351
 3294SOL     OW10737   2.573   5.311   1.819  0.0079 -0.2062  0.5422
 3294SOL    HW110738   2.665   5.322   1.843  0.2083 -1.9748  0.6846
 3294SOL    HW210739   2.573   5.302   1.724 -0.0317 -0.1140  0.5330
 3295SOL     OW10740   5.021   5.547   2.208  0.5920 -0.5374  0.4213
 3295SOL    HW110741   4.944   5.490   2.208 -0.0791  0.3357 -0.3028
 3295SOL    HW210742   5.090   5.494   2.247  0.8455 -3.0042 -2.8953
 3296SOL     OW10743   3.715   7.826   1.021  0.0696 -0.3849  0.4829
 3296SOL    HW110744   3.805   7.802   1.000  0.6414  0.7223  1.5052
 3296SOL    HW210745   3.708   7.809   1.115 -1.5122 -2.5759  0.0327
 3297SOL     OW10746   2.787   5.916   7.188 -0.8729 -0.2624  0.3016
 3297SOL    HW110747   2.774   5.973   7.112  0.5666  1.9907  1.6247
 3297SOL    HW210748   2.855   5.854   7.161 -0.2353  0.6415 -0.2064
 3298SOL     OW10749   2.655   3.317   0.912  0.3654  0.4909 -0.0482
 3298SOL    HW110750   2.631   3.371   0.988 -1.3952  0.2753 -0.4114
 3298SOL    HW210751   2.751   3.323   0.908  0.4949  0.6178  2.0952
 3299SOL     OW10752   2.325   4.300   6.614  0.1359 -0.2855 -0.0346
 3299SOL    HW110753   2.333   4.370   6.679  1.8913  0.8059 -1.3302
 3299SOL    HW210754   2.392   4.236   6.640 -1.7215 -1.8235  1.3829
 3300SOL     OW10755   1.442   7.729   0.514 -0.3638  0.1733  0.0257
 3300SOL    HW110756   1.464   7.651   0.564 -0.8729 -0.2355 -0.3705
 3300SOL    HW210757   1.523   7.779   0.509 -0.1333 -0.1370  0.6244
 3301SOL     OW10758   3.222   5.616   7.026  0.6320 -0.1800  0.5329
 3301SOL    HW110759   3.296   5.673   7.007  0.9344 -0.6065  0.4093
 3301SOL    HW210760   3.254   5.528   7.007  0.3709 -0.4534  1.3182
 3302SOL     OW10761   0.114   2.979   2.143 -0.2848  0.7404  0.0357
 3302SOL    HW110762   0.176   2.943   2.079 -1.6171  0.0708 -0.9534
 3302SOL    HW210763   0.097   3.068   2.113  0.9545  1.2894  0.9088
 3303SOL     OW10764   6.738   3.346   5.104 -0.2132 -0.3138  0.4729
 3303SOL    HW110765   6.743   3.253   5.125 -0.2401 -0.3768  0.1965
 3303SOL    HW210766   6.772   3.390   5.182  1.0904 -0.5991  0.0993
 3304SOL     OW10767   2.407   1.238   6.283 -0.7526 -0.0203 -0.1827
 3304SOL    HW110768   2.500   1.262   6.278 -1.1823  1.5430 -1.0138
 3304SOL    HW210769   2.408   1.152   6.326  1.0793 -0.0855 -0.2532
 3305SOL     OW10770   3.696   1.901   5.564 -0.0643 -0.0731  0.1010
 3305SOL    HW110771   3.627   1.965   5.547 -0.5455 -0.3145  1.0490
 3305SOL    HW210772   3.659   1.818   5.535  0.5750  0.0481 -1.1678
 3306SOL     OW10773   0.132   4.299   0.717 -0.4667 -0.0273 -0.2554
 3306SOL    HW110774   0.115   4.213   0.755 -0.6400 -0.6336 -1.6273
 3306SOL    HW210775   0.080   4.300   0.636  0.8444  0.7037 -1.1294
 3307SOL     OW10776   1.234   4.137   4.196  0.5966 -0.0826  0.1323
 3307SOL    HW110777   1.213   4.117   4.288 -1.4368 -1.3594 -0.5290
 3307SOL    HW210778   1.279   4.058   4.165  0.9750  0.2096 -0.0571
 3308SOL     OW10779   1.090   6.794   0.076  0.3096  0.0946 -0.2847
 3308SOL    HW110780   1.177   6.834   0.076  0.2964  0.1412 -1.2864
 3308SOL    HW210781   1.030   6.868   0.084  0.3356  0.1347 -0.4603
 3309SOL     OW10782   1.213   4.878   1.942  0.3081  0.2491  0.1465
 3309SOL    HW110783   1.216   4.838   2.029  0.5359 -1.6942 -0.7217
 3309SOL    HW210784   1.288   4.842   1.896 -0.0628  0.9127 -1.0132
 3310SOL     OW10785   3.810   7.960   4.283 -0.0082  0.1355  0.0433
 3310SOL    HW110786   3.820   8.031   4.220 -1.2541  0.5430  0.2585
 3310SOL    HW210787   3.743   7.903   4.244 -0.1756 -0.0555  0.6009
 3311SOL     OW10788   4.353   5.847   5.952  0.4929 -0.2085  0.1082
 3311SOL    HW110789   4.307   5.931   5.948 -1.5662 -1.2923  0.0262
 3311SOL    HW210790   4.334   5.814   6.039 -0.7202 -1.6522 -0.6679
 3312SOL     OW10791   0.564   0.517   5.232 -0.3059  0.1123 -0.1297
 3312SOL    HW110792   0.592   0.584   5.169 -1.2172  0.1895 -0.4648
 3312SOL    HW210793   0.638   0.508   5.292  0.0553  0.9914 -0.4318
 3313SOL     OW10794   7.518   7.901   7.151  0.1676  0.1281  0.2717
 3313SOL    HW110795   7.533   7.966   7.081  0.8863 -0.1660  0.1511
 3313SOL    HW210796   7.458   7.945   7.211 -0.9923  0.1592 -0.8486
 3314SOL     OW10797   0.227   5.800   0.651 -0.1856 -0.1381  0.2710
 3314SOL    HW110798   0.174   5.720   0.646 -0.5608  0.1467 -0.4495
 3314SOL    HW210799   0.221   5.837   0.563  2.0990 -0.6787 -0.1837
 3315SOL     OW10800   5.788   1.191   4.386 -0.0450  0.0537  0.5930
 3315SOL    HW110801   5.794   1.286   4.376 -1.3579  0.0279 -0.6390
 3315SOL    HW210802   5.720   1.164   4.325 -2.2703 -1.2598  3.4255
 3316SOL     OW10803   3.885   1.942   1.564 -0.3751  0.2404  0.5625
 3316SOL    HW110804   3.794   1.972   1.560  0.0592  1.5205 -2.1159
 3316SOL    HW210805   3.882   1.852   1.533 -0.5556  1.0044 -1.8507
 3317SOL     OW10806   7.065   7.621   6.460  0.1248  0.0105  0.3807
 3317SOL    HW110807   6.995   7.613   6.526  0.0647  0.9328  0.4359
 3317SOL    HW210808   7.094   7.712   6.467  2.2521 -0.6703  1.2840
 3318SOL     OW10809   3.588   2.086   1.197  0.6983  0.5308 -0.3559
 3318SOL    HW110810   3.580   2.155   1.263  1.3651  0.2176  0.0655
 3318SOL    HW210811   3.651   2.121   1.134 -0.0877  0.9122 -0.9474
 3319SOL     OW10812   7.108   2.349   3.042  0.3021  0.4768 -0.8986
 3319SOL    HW110813   7.155   2.294   3.106  0.2363  0.1667 -1.1163
 3319SOL    HW210814   7.078   2.424   3.093 -0.8116 -0.3481 -0.2857
 3320SOL     OW10815   6.972   6.992   1.586  0.2957 -0.1042  0.0998
 3320SOL    HW110816   7.017   7.055   1.641  1.3871  0.3056 -1.1979
 3320SOL    HW210817   7.019   6.909   1.600  0.6965  0.0428 -0.3091
 3321SOL     OW10818   4.262   7.120   1.200  0.7155  0.6431  0.1514
 3321SOL    HW110819   4.215   7.176   1.139 -0.6930  0.8343  1.3659
 3321SOL    HW210820   4.282   7.041   1.149  2.5186  2.0570 -1.5029
 3322SOL     OW10821   3.283   3.464   4.654  0.8049  0.1467 -0.8677
 3322SOL    HW110822   3.195   3.438   4.683  0.1750  1.6923 -1.2944
 3322SOL    HW210823   3.292   3.555   4.685  1.3238  0.8051 -2.8099
 3323SOL     OW10824   1.539   0.995   3.797  0.0108 -0.0524  0.0099
 3323SOL    HW110825   1.488   0.927   3.841 -0.2748  0.1995  0.0738
 3323SOL    HW210826   1.476   1.066   3.781  0.7694  1.1436  1.9412
 3324SOL     OW10827   7.778   3.387   3.793 -0.3431 -0.1818 -0.6168
 3324SOL    HW110828   7.838   3.457   3.819 -1.4437 -0.4845  3.3513
 3324SOL    HW210829   7.691   3.429   3.793 -0.7303 -0.9701 -0.6604
 3325SOL     OW10830   1.362   6.539   2.135  0.2239 -0.0919 -0.0016
 3325SOL    HW110831   1.422   6.607   2.106  0.4814 -0.1218  0.4506
 3325SOL    HW210832   1.330   6.570   2.220  0.5361 -0.6496  0.3224
 3326SOL     OW10833   3.402   2.369   2.645 -0.2713 -0.0635  0.2679
 3326SOL    HW110834   3.386   2.399   2.735 -0.9131  0.8130 -0.1218
 3326SOL    HW210835   3.317   2.338   2.614  0.2260 -1.6495  0.3997
 3327SOL     OW10836   2.158   7.026   3.053 -0.4617 -0.5935 -0.0331
 3327SOL    HW110837   2.102   6.949   3.053 -1.9722  0.4321  1.8855
 3327SOL    HW210838   2.116   7.086   2.992 -0.5027 -0.4456  0.1429
 3328SOL     OW10839   1.444   0.135   3.824 -0.2077  0.4399 -0.2090
 3328SOL    HW110840   1.354   0.135   3.790 -0.9718  0.4281  1.7021
 3328SOL    HW210841   1.438   0.182   3.907  1.6905  0.9691 -0.3369
 3329SOL     OW10842   7.652   0.560   4.906 -0.4189 -1.0456 -0.2368
 3329SOL    HW110843   7.572   0.611   4.914 -0.9217 -1.5671 -1.6514
 3329SOL    HW210844   7.722   0.621   4.929 -1.0726  0.0283 -1.0000
 3330SOL     OW10845   7.332   7.648   2.137  0.2106 -0.5262  0.0564
 3330SOL    HW110846   7.320   7.559   2.171 -0.2948  0.3018  2.2264
 3330SOL    HW210847   7.244   7.684   2.133  0.5717  0.7772  2.0081
 3331SOL     OW10848   6.793   0.308   6.739 -0.2459  0.1547 -0.5148
 3331SOL    HW110849   6.768   0.266   6.821 -0.2500 -1.5569 -1.3635
 3331SOL    HW210850   6.888   0.320   6.747 -0.1844 -0.3647 -0.4138
 3332SOL     OW10851   4.628   7.062   3.551  0.0491  0.3579  0.2614
 3332SOL    HW110852   4.697   7.053   3.485  0.1271 -1.8034  0.5606
 3332SOL    HW210853   4.616   6.973   3.585  0.1796  1.4021  3.3570
 3333SOL     OW10854   7.369   6.725   6.021 -0.0894 -0.1349  0.2711
 3333SOL    HW110855   7.442   6.755   5.967  0.9015 -0.4986  1.3703
 3333SOL    HW210856   7.319   6.667   5.964  1.0024 -0.6132 -0.2257
 3334SOL     OW10857   2.168   4.159   2.651  0.7317 -0.0093 -0.3379
 3334SOL    HW110858   2.244   4.181   2.706  0.7536  1.9191 -1.0766
 3334SOL    HW210859   2.172   4.220   2.578 -2.1666  0.9347  0.1716
 3335SOL     OW10860   5.837   6.997   3.816  0.5690  0.5340  0.1398
 3335SOL    HW110861   5.828   6.911   3.775 -2.6630  0.4086  0.8110
 3335SOL    HW210862   5.829   6.980   3.910 -0.3284  1.5477  0.2690
 3336SOL     OW10863   2.205   1.809   2.299  0.4436 -0.1339 -0.2665
 3336SOL    HW110864   2.189   1.726   2.345 -0.2633  0.2219  0.1387
 3336SOL    HW210865   2.126   1.861   2.315  0.4105  0.2020 -1.4356
 3337SOL     OW10866   2.171   5.219   0.402  0.1957 -0.6517  0.0884
 3337SOL    HW110867   2.092   5.272   0.416  0.5386 -0.2368  0.4901
 3337SOL    HW210868   2.140   5.129   0.405 -0.6832 -0.4999 -2.3158
 3338SOL     OW10869   4.341   2.077   1.494 -0.3000 -0.2659  0.3325
 3338SOL    HW110870   4.309   2.122   1.572 -0.5653 -1.1472  0.7409
 3338SOL    HW210871   4.366   1.990   1.525  0.5011 -0.3030 -0.3885
 3339SOL     OW10872   7.833   4.889   5.590 -0.1656  0.0230 -0.2097
 3339SOL    HW110873   7.919   4.851   5.577 -0.0741  0.1123  0.1220
 3339SOL    HW210874   7.798   4.845   5.668 -0.4802 -0.1202 -0.4270
 3340SOL     OW10875   7.564   2.217   3.562  0.0003 -0.3917 -0.2752
 3340SOL    HW110876   7.536   2.308   3.570  0.4606 -0.1342 -1.3116
 3340SOL    HW210877   7.546   2.195   3.470 -1.3386 -1.7829  0.2597
 3341SOL     OW10878   3.368   0.229   5.134 -0.0959  0.3760 -0.4570
 3341SOL    HW110879   3.280   0.258   5.110 -0.1780 -0.4580 -1.2414
 3341SOL    HW210880   3.398   0.180   5.057  1.5080  1.6129 -0.6803
 3342SOL     OW10881   2.028   4.558   4.205 -0.2571  0.7484 -0.4300
 3342SOL    HW110882   2.002   4.514   4.286  2.2851 -0.8495 -0.3582
 3342SOL    HW210883   1.945   4.580   4.162 -1.6911 -1.7285  0.8270
 3343SOL     OW10884   7.976   7.224   6.002 -0.0185 -0.1108  0.0743
 3343SOL    HW110885   8.071   7.233   5.996 -0.0788 -0.2183 -1.5697
 3343SOL    HW210886   7.961   7.168   6.078  1.4083 -2.1521 -1.0462
 3344SOL     OW10887   7.930   0.510   4.016  0.6727  0.4373 -0.0594
 3344SOL    HW110888   7.920   0.415   4.017  0.5424  0.4160 -1.4248
 3344SOL    HW210889   7.978   0.530   4.096 -1.3032 -0.5208  1.4810
 3345SOL     OW10890   1.352   6.723   0.554 -0.3553  0.6493 -0.7887
 3345SOL    HW110891   1.294   6.652   0.580  0.4012  0.1668 -0.3989
 3345SOL    HW210892   1.294   6.788   0.514 -1.2016  0.3118 -0.1360
 3346SOL     OW10893   1.390   4.624   4.657 -0.2445  0.0868 -0.0863
 3346SOL    HW110894   1.414   4.537   4.689  1.9101  0.5621 -0.2632
 3346SOL    HW210895   1.317   4.650   4.713 -1.9567 -2.3814 -0.9777
 3347SOL     OW10896   7.711   7.385   0.332  0.5917  0.0874  0.1952
 3347SOL    HW110897   7.778   7.369   0.398 -0.3863 -0.8919  0.9980
 3347SOL    HW210898   7.639   7.327   0.357  0.4449 -0.8290 -2.1290
 3348SOL     OW10899   5.494   0.767   4.800  0.1516 -0.5768 -0.3373
 3348SOL    HW110900   5.400   0.758   4.817 -0.1076 -0.1075 -1.4052
 3348SOL    HW210901   5.509   0.717   4.720  0.5711  0.3123 -0.8348
 3349SOL     OW10902   3.183   8.003   2.787 -0.8575  0.0531  0.0695
 3349SOL    HW110903   3.185   8.028   2.695  3.2281  0.2716  0.0704
 3349SOL    HW210904   3.136   8.075   2.830 -0.0983  1.5425 -1.4774
 3350SOL     OW10905   6.506   2.075   2.217 -0.2779 -0.3205 -0.3057
 3350SOL    HW110906   6.600   2.087   2.206 -0.1417 -0.0611  1.0027
 3350SOL    HW210907   6.487   2.110   2.304 -1.6480 -0.0496 -0.6896
 3351SOL     OW10908   2.232   0.885   6.265 -0.4478  0.1841  0.6334
 3351SOL    HW110909   2.273   0.876   6.178 -0.7979 -0.0559  0.4936
 3351SOL    HW210910   2.306   0.884   6.326 -0.3285 -1.8809  0.5089
 3352SOL     OW10911   3.289   6.347   5.965  0.0157 -0.4019 -0.1357
 3352SOL    HW110912   3.323   6.435   5.979  0.1366 -0.2115 -1.5514
 3352SOL    HW210913   3.366   6.293   5.949  0.2334 -1.3724  3.3300
 3353SOL     OW10914   4.866   4.513   5.020  0.5399  0.4396  0.2460
 3353SOL    HW110915   4.902   4.476   4.940 -0.6097  0.7552 -0.4462
 3353SOL    HW210916   4.776   4.480   5.024 -0.4425  2.8163 -0.2292
 3354SOL     OW10917   6.151   6.036   7.117  0.0724  0.0895  0.7359
 3354SOL    HW110918   6.131   5.949   7.082  1.1675 -0.1086  0.5459
 3354SOL    HW210919   6.124   6.032   7.209 -0.5361 -0.2165  0.5451
 3355SOL     OW10920   7.771   0.861   0.384 -0.0702  0.1079 -0.5968
 3355SOL    HW110921   7.708   0.885   0.452 -0.4692 -1.1381 -0.4917
 3355SOL    HW210922   7.765   0.766   0.379  2.2787 -0.1207 -0.1312
 3356SOL     OW10923   4.343   2.953   5.231 -0.3852 -0.0444  0.3294
 3356SOL    HW110924   4.431   2.969   5.264  0.7605 -1.0469 -2.0334
 3356SOL    HW210925   4.291   2.933   5.309  1.4701  0.4344  1.7569
 3357SOL     OW10926   2.211   3.371   5.593  0.3605 -0.1898 -0.0676
 3357SOL    HW110927   2.217   3.358   5.498  1.9163  0.0953 -0.0301
 3357SOL    HW210928   2.278   3.436   5.613  0.3437 -0.5550  1.2911
 3358SOL     OW10929   3.118   0.351   5.878  0.2245  0.1298  0.2155
 3358SOL    HW110930   3.082   0.407   5.809  0.9748 -0.3728 -0.6002
 3358SOL    HW210931   3.058   0.363   5.952  0.0773  1.5839 -0.1196
 3359SOL     OW10932   4.781   3.157   5.472 -0.3346 -0.1309 -0.1617
 3359SOL    HW110933   4.736   3.175   5.555  1.1721 -2.1561  1.1883
 3359SOL    HW210934   4.849   3.225   5.467 -0.5689  0.1319  0.1543
 3360SOL     OW10935   1.294   1.788   0.043  0.1026 -0.2258 -0.3276
 3360SOL    HW110936   1.294   1.791  -0.053  0.2151  0.9583 -0.3013
 3360SOL    HW210937   1.205   1.815   0.068 -1.1410 -3.9566 -0.1296
 3361SOL     OW10938   7.278   6.969   6.702  0.1565 -0.0459  0.2463
 3361SOL    HW110939   7.309   7.036   6.641  0.5565 -1.9023 -1.7347
 3361SOL    HW210940   7.198   7.005   6.739  0.7814  1.8248 -0.1428
 3362SOL     OW10941   6.399   7.898   6.724  0.0538  0.0061  0.4896
 3362SOL    HW110942   6.341   7.898   6.647 -0.6900  1.3906  1.0283
 3362SOL    HW210943   6.485   7.920   6.689  0.4372 -2.5117 -0.3907
 3363SOL     OW10944   7.336   3.691   0.376  0.0705 -0.2671 -0.0168
 3363SOL    HW110945   7.365   3.720   0.290  0.1718 -0.6098 -0.1022
 3363SOL    HW210946   7.260   3.636   0.359 -1.4606  1.6725  0.3049
 3364SOL     OW10947   1.835   6.302   2.531 -0.0994 -0.1318  0.6651
 3364SOL    HW110948   1.750   6.321   2.491  1.0608  0.0881 -1.8277
 3364SOL    HW210949   1.885   6.383   2.522  1.0398 -0.8533  0.3167
 3365SOL     OW10950   1.179   3.941   1.976 -0.0384 -0.0992 -0.0826
 3365SOL    HW110951   1.251   3.912   1.920 -0.2062  1.7632 -1.3579
 3365SOL    HW210952   1.186   3.886   2.054  1.2925 -1.5810 -1.1715
 3366SOL     OW10953   2.535   4.918   3.227  0.0343  0.6619  0.2528
 3366SOL    HW110954   2.603   4.941   3.290  0.1868  0.9008  0.0040
 3366SOL    HW210955   2.574   4.938   3.142 -0.2078  0.4396  0.0903
 3367SOL     OW10956   1.178   5.733   5.620 -0.2422 -0.5212 -0.4614
 3367SOL    HW110957   1.184   5.829   5.623 -0.0874 -0.4942 -1.4233
 3367SOL    HW210958   1.100   5.716   5.567 -0.6334 -0.9348  0.2314
 3368SOL     OW10959   7.153   0.562   5.154 -0.5764  0.2626 -0.6298
 3368SOL    HW110960   7.118   0.622   5.219  0.6427  1.4610 -1.0301
 3368SOL    HW210961   7.085   0.495   5.143 -1.6257  1.1279  0.4118
 3369SOL     OW10962   0.647   4.267   5.978  0.0566 -0.3624  0.0985
 3369SOL    HW110963   0.581   4.326   5.943  1.2788 -0.0788 -1.8908
 3369SOL    HW210964   0.723   4.322   5.994  0.7723 -1.1553 -0.4710
 3370SOL     OW10965   7.738   6.652   7.329  0.2835  0.0056  0.7885
 3370SOL    HW110966   7.812   6.644   7.268  0.6294  1.8458  0.8843
 3370SOL    HW210967   7.664   6.678   7.274  0.5061  1.3010  1.0724
 3371SOL     OW10968   1.731   3.705   4.854  0.2452  0.3053  0.2208
 3371SOL    HW110969   1.788   3.738   4.923  0.3469  1.2953 -0.3103
 3371SOL    HW210970   1.683   3.782   4.824 -0.9200 -0.3940  0.2264
 3372SOL     OW10971   2.772   2.846   5.532  0.4104  0.3260  0.1413
 3372SOL    HW110972   2.817   2.906   5.473 -0.3078  2.3591  1.5677
 3372SOL    HW210973   2.685   2.836   5.495 -0.5093  2.7055  1.4673
 3373SOL     OW10974   6.261   2.799   7.548 -0.0849  0.2114 -0.2086
 3373SOL    HW110975   6.331   2.735   7.559 -0.1714  0.1194 -0.1870
 3373SOL    HW210976   6.305   2.884   7.550 -0.1979  0.2722  1.8413
 3374SOL     OW10977   7.409   1.536   0.889  0.1806  0.0450 -0.2466
 3374SOL    HW110978   7.381   1.515   0.800 -0.5834  1.1187 -0.2786
 3374SOL    HW210979   7.380   1.626   0.902  1.1974  0.2487  0.7270
 3375SOL     OW10980   1.529   6.422   0.348  0.4811 -0.1235  0.4181
 3375SOL    HW110981   1.508   6.446   0.438 -1.0307  0.5598 -0.0855
 3375SOL    HW210982   1.444   6.410   0.306  1.1599 -0.0306 -1.0311
 3376SOL     OW10983   1.193   7.433   0.798 -0.0061  0.1256 -0.0656
 3376SOL    HW110984   1.266   7.381   0.833  0.4431  0.5972 -0.2837
 3376SOL    HW210985   1.234   7.516   0.771 -0.5237  0.1712 -0.7284
 3377SOL     OW10986   7.479   3.449   4.476  0.2055 -0.2476  0.4554
 3377SOL    HW110987   7.550   3.463   4.539  0.6693 -0.3824 -0.0356
 3377SOL    HW210988   7.490   3.359   4.447  1.3203  0.4368 -1.4299
 3378SOL     OW10989   1.577   7.546   3.891  0.0775  0.0254 -0.0331
 3378SOL    HW110990   1.590   7.551   3.797 -0.1876 -0.0454 -0.0741
 3378SOL    HW210991   1.486   7.572   3.905 -0.2987 -1.2556  0.0652
 3379SOL     OW10992   6.676   5.879   7.536 -0.2913 -0.0566 -0.3111
 3379SOL    HW110993   6.737   5.880   7.461  0.1966 -0.4126  0.0758
 3379SOL    HW210994   6.707   5.807   7.591  1.2400  2.0097  1.7510
 3380SOL     OW10995   7.986   1.042   4.260  0.1231 -0.3434  0.4755
 3380SOL    HW110996   7.925   1.114   4.241  0.5478 -0.2080 -0.4142
 3380SOL    HW210997   8.068   1.085   4.282  1.0030 -0.5080 -2.1086
 3381SOL     OW10998   4.872   6.001   1.387  0.1756  0.4569 -0.3529
 3381SOL    HW110999   4.876   5.932   1.321 -0.7752 -0.6514  0.7080
 3381SOL    HW211000   4.946   6.058   1.366  1.0405 -0.9224 -1.2122
 3382SOL     OW11001   5.831   4.900   7.332  0.3153 -0.5894 -0.0463
 3382SOL    HW111002   5.873   4.909   7.246  1.4231  2.2174  0.6884
 3382SOL    HW211003   5.850   4.810   7.358 -0.9443 -1.8893 -3.1188
 3383SOL     OW11004   0.139   1.124   1.028  0.2607 -0.0596 -0.1170
 3383SOL    HW111005   0.193   1.201   1.012  1.0875 -0.7103 -0.5389
 3383SOL    HW211006   0.132   1.082   0.943 -1.5711  0.4074 -0.2371
 3384SOL     OW11007   3.074   3.357   1.708  0.2371 -0.1624  0.0831
 3384SOL    HW111008   3.127   3.329   1.782 -1.1832 -0.4435  1.0505
 3384SOL    HW211009   3.057   3.450   1.724  1.4781  0.2695 -0.9174
 3385SOL     OW11010   5.268   2.470   1.568 -0.0627 -0.0379 -0.3655
 3385SOL    HW111011   5.299   2.553   1.603 -4.1781  1.3575  0.5134
 3385SOL    HW211012   5.203   2.494   1.503 -2.3146 -2.4979  0.8015
 3386SOL     OW11013   3.832   0.650   0.919  0.2698  0.5754 -0.2211
 3386SOL    HW111014   3.760   0.680   0.864 -0.5606 -0.3990  0.3024
 3386SOL    HW211015   3.833   0.711   0.993 -1.0091 -0.2656  0.5258
 3387SOL     OW11016   0.953   0.213   6.868  0.3853 -0.6997  0.0552
 3387SOL    HW111017   0.905   0.135   6.897  1.2977 -2.8142 -3.5275
 3387SOL    HW211018   0.887   0.269   6.828  0.0824 -0.7659  0.4562
 3388SOL     OW11019   5.418   4.319   0.557 -0.0355  0.4695 -0.1374
 3388SOL    HW111020   5.403   4.234   0.515 -0.3237 -0.3267  1.4995
 3388SOL    HW211021   5.348   4.327   0.622  0.9918  1.1439  0.9390
 3389SOL     OW11022   7.461   5.597   6.665  0.5244 -0.0556  0.1247
 3389SOL    HW111023   7.374   5.626   6.637  0.3479 -1.5967 -1.0558
 3389SOL    HW211024   7.467   5.624   6.757 -0.8073  0.9320 -0.0538
 3390SOL     OW11025   7.065   4.186   6.798  0.5940 -0.4036  0.6786
 3390SOL    HW111026   7.055   4.241   6.721  0.8878  1.1551  1.7023
 3390SOL    HW211027   7.070   4.097   6.764 -1.0383  0.0733 -0.9490
 3391SOL     OW11028   6.895   5.086   1.452 -0.2716  0.2393  0.2369
 3391SOL    HW111029   6.833   5.023   1.490 -0.3693 -0.0853 -0.4482
 3391SOL    HW211030   6.854   5.172   1.467 -0.1004  0.1647  1.2446
 3392SOL     OW11031   3.890   4.420   1.223 -0.4242 -0.4888 -0.0767
 3392SOL    HW111032   3.931   4.411   1.309 -0.1740  1.4068  0.0559
 3392SOL    HW211033   3.912   4.339   1.177  1.3045 -0.6256  0.8922
 3393SOL     OW11034   1.520   5.547   4.444  0.1833 -0.2429  0.1237
 3393SOL    HW111035   1.573   5.626   4.429  1.2426 -0.9189  0.2020
 3393SOL    HW211036   1.552   5.484   4.379  1.7764 -1.7436  2.2193
 3394SOL     OW11037   3.555   5.393   2.112 -0.1229 -0.7864  0.2291
 3394SOL    HW111038   3.553   5.333   2.187  0.3298 -2.3749 -0.9672
 3394SOL    HW211039   3.628   5.452   2.131  1.2316 -2.3662  0.2342
 3395SOL     OW11040   5.907   3.557   3.792  0.0548 -0.5369 -0.3663
 3395SOL    HW111041   5.845   3.528   3.859  0.7959 -0.1464  0.5189
 3395SOL    HW211042   5.989   3.570   3.841 -0.2071  3.0855 -0.6713
 3396SOL     OW11043   7.901   1.208   4.793  0.2025  0.0846  0.0889
 3396SOL    HW111044   7.892   1.185   4.701  2.1801  1.7301 -0.6158
 3396SOL    HW211045   7.831   1.161   4.837 -0.1817 -1.5575 -2.0987
 3397SOL     OW11046   6.942   3.830   6.192  0.2408  0.1397  0.3203
 3397SOL    HW111047   6.895   3.761   6.146 -1.1846  0.7794  0.7498
 3397SOL    HW211048   7.009   3.859   6.130 -0.0490 -0.6754 -0.3916
 3398SOL     OW11049   5.716   2.493   6.433 -0.2466 -0.6651 -0.4591
 3398SOL    HW111050   5.727   2.573   6.484 -2.1036 -1.6839  1.7346
 3398SOL    HW211051   5.791   2.492   6.373  0.0966  2.4072 -0.2312
 3399SOL     OW11052   6.270   6.379   1.190 -0.1566  0.5884 -0.2162
 3399SOL    HW111053   6.327   6.308   1.160 -1.1223 -0.8143  1.1290
 3399SOL    HW211054   6.328   6.454   1.201  0.9966 -0.1474 -1.0823
 3400SOL     OW11055   1.838   4.121   5.395  0.0329 -0.1799  0.5548
 3400SOL    HW111056   1.776   4.048   5.395 -2.3024  1.5661  3.2264
 3400SOL    HW211057   1.864   4.131   5.487  1.8708  1.1019 -0.0446
 3401SOL     OW11058   7.839   5.112   5.010 -0.2531 -0.1121  0.2329
 3401SOL    HW111059   7.860   5.189   5.063  0.3939 -0.7528  0.9291
 3401SOL    HW211060   7.920   5.092   4.964 -0.1740 -0.8362  0.6623
 3402SOL     OW11061   7.184   4.622   6.177 -0.2811 -0.3862 -0.4209
 3402SOL    HW111062   7.117   4.690   6.171  0.9743  1.0573  0.9203
 3402SOL    HW211063   7.266   4.671   6.184  0.4914 -1.8861  3.0560
 3403SOL     OW11064   4.633   2.866   7.127  0.4997  0.7601  0.7192
 3403SOL    HW111065   4.660   2.941   7.180 -0.9863  0.8520  1.3966
 3403SOL    HW211066   4.584   2.810   7.187  3.1464 -1.7860  0.7555
 3404SOL     OW11067   6.423   0.485   6.443 -0.1188  0.0418 -0.0179
 3404SOL    HW111068   6.439   0.478   6.349 -2.0088  5.0928 -1.0174
 3404SOL    HW211069   6.329   0.468   6.454 -0.8070  3.2882  0.1240
 3405SOL     OW11070   4.049   0.283   4.312 -0.2681 -0.2750 -0.8058
 3405SOL    HW111071   4.013   0.287   4.400 -0.5025 -0.6237 -0.8848
 3405SOL    HW211072   3.978   0.314   4.255 -0.3150 -0.6050 -0.9265
 3406SOL     OW11073   7.592   0.162   3.971  0.2543  0.0494  0.7884
 3406SOL    HW111074   7.577   0.067   3.971  1.8960 -0.2433 -0.2281
 3406SOL    HW211075   7.506   0.199   3.989 -0.6236 -1.6067  0.2477
 3407SOL     OW11076   1.014   1.774   4.776 -0.3886  0.5290 -0.8326
 3407SOL    HW111077   1.003   1.683   4.748  0.0112  0.9535 -2.4837
 3407SOL    HW211078   1.107   1.783   4.795 -0.7402  0.1078  1.2510
 3408SOL     OW11079   3.410   0.463   5.742 -0.3829  0.2527  0.2734
 3408SOL    HW111080   3.386   0.556   5.751  2.0847  0.8880  1.0425
 3408SOL    HW211081   3.426   0.434   5.832 -0.2677 -0.6873 -0.0423
 3409SOL     OW11082   6.109   3.295   6.647  0.8296  0.3060  0.0392
 3409SOL    HW111083   6.065   3.323   6.567  0.8782  0.7487  0.1656
 3409SOL    HW211084   6.038   3.289   6.712  0.5728 -1.3189 -0.3457
 3410SOL     OW11085   1.847   6.239   5.321  0.0344 -0.0423 -0.5508
 3410SOL    HW111086   1.884   6.218   5.235 -1.2576  1.3789 -1.4913
 3410SOL    HW211087   1.897   6.314   5.352  0.4027 -0.4629 -0.0839
 3411SOL     OW11088   7.325   2.443   3.751  0.4090 -0.7173  0.0536
 3411SOL    HW111089   7.388   2.509   3.779 -1.4145 -0.2022  3.4266
 3411SOL    HW211090   7.334   2.372   3.814 -1.5223 -1.1650 -0.0949
 3412SOL     OW11091   3.548   2.294   6.106 -0.3408 -0.1663  0.4240
 3412SOL    HW111092   3.560   2.262   6.017 -1.4933  0.6910 -0.0501
 3412SOL    HW211093   3.560   2.216   6.161  3.4309 -0.2211 -0.1827
 3413SOL     OW11094   2.557   5.444   6.620 -0.6370  0.0254  0.1620
 3413SOL    HW111095   2.578   5.369   6.675 -0.1737  0.3159  0.3868
 3413SOL    HW211096   2.508   5.407   6.547  2.2361 -1.0144 -1.4016
 3414SOL     OW11097   1.110   4.330   7.885 -0.0756  0.8221 -0.7748
 3414SOL    HW111098   1.098   4.240   7.913 -0.6891  1.4403  1.0646
 3414SOL    HW211099   1.190   4.328   7.832  0.8319 -0.5305  0.5708
 3415SOL     OW11100   4.570   7.295   1.631  0.0543  0.1543 -0.2406
 3415SOL    HW111101   4.649   7.338   1.663 -0.0441 -0.9637  1.6923
 3415SOL    HW211102   4.593   7.202   1.626 -0.5457  0.0524 -1.6381
 3416SOL     OW11103   0.589   2.622   0.568  0.3490 -0.2300  0.7382
 3416SOL    HW111104   0.550   2.656   0.648  0.6871  0.8968  0.4342
 3416SOL    HW211105   0.649   2.553   0.599  0.5273  0.2384  1.4594
 3417SOL     OW11106   6.715   7.803   1.200 -0.5622  0.9285  0.0696
 3417SOL    HW111107   6.692   7.835   1.288 -0.0441  0.8419  0.2437
 3417SOL    HW211108   6.787   7.861   1.172  0.7333 -0.3684  0.5985
 3418SOL     OW11109   0.086   6.467   3.771  0.5029  0.2649  0.0455
 3418SOL    HW111110   0.005   6.417   3.774  0.5140  0.0856 -1.5126
 3418SOL    HW211111   0.089   6.515   3.854 -0.3579 -0.9897  0.8213
 3419SOL     OW11112   2.450   4.731   2.826  0.0714 -0.4045 -0.2689
 3419SOL    HW111113   2.502   4.809   2.844  1.3243 -1.3333  0.2281
 3419SOL    HW211114   2.442   4.729   2.731  0.4442  0.0658 -0.3141
 3420SOL     OW11115   1.677   3.733   3.466  0.1532 -0.7779 -0.1523
 3420SOL    HW111116   1.584   3.757   3.475  0.5209  1.0478 -0.7542
 3420SOL    HW211117   1.689   3.662   3.528 -1.2577  0.1265  1.2414
 3421SOL     OW11118   5.533   5.815   2.916 -0.2531 -0.3844 -0.3183
 3421SOL    HW111119   5.465   5.756   2.950  0.5946 -1.0866  0.2098
 3421SOL    HW211120   5.614   5.767   2.929  0.3378  0.3872 -1.0730
 3422SOL     OW11121   1.601   4.678   4.096  0.3847 -0.7099 -0.2463
 3422SOL    HW111122   1.508   4.694   4.111  0.4458  0.0253 -0.5987
 3422SOL    HW211123   1.638   4.662   4.183 -0.1235 -1.3394 -0.1391
 3423SOL     OW11124   1.727   7.310   7.019  0.0529  0.0702  0.0410
 3423SOL    HW111125   1.727   7.395   7.064 -3.8174  0.1299  0.2759
 3423SOL    HW211126   1.752   7.247   7.086  0.1036  0.7714  0.6894
 3424SOL     OW11127   1.423   5.800   1.389  0.1280 -0.0356 -0.0345
 3424SOL    HW111128   1.468   5.840   1.463 -0.5255  0.6923 -0.0131
 3424SOL    HW211129   1.463   5.714   1.380  1.1648  0.3945  0.2936
 3425SOL     OW11130   2.211   1.549   4.478 -0.8089  0.3562 -0.1959
 3425SOL    HW111131   2.184   1.546   4.570 -0.4834  1.2850 -0.0624
 3425SOL    HW211132   2.279   1.616   4.475  0.7869 -1.2176 -0.7187
 3426SOL     OW11133   0.202   7.778   5.113  0.0646  0.2086 -0.6215
 3426SOL    HW111134   0.286   7.823   5.124  0.0598 -0.1175  1.1689
 3426SOL    HW211135   0.141   7.846   5.087 -0.0155  1.4221  2.3280
 3427SOL     OW11136   5.482   5.009   7.851  0.0565 -0.2159 -0.4619
 3427SOL    HW111137   5.549   5.064   7.808  0.7087 -1.5862 -1.2756
 3427SOL    HW211138   5.403   5.024   7.799  0.0021  0.5741 -0.1693
 3428SOL     OW11139   6.526   1.987   4.947 -0.4312 -0.3346  0.2516
 3428SOL    HW111140   6.470   2.052   4.988 -0.3422  0.2139 -0.4765
 3428SOL    HW211141   6.610   1.995   4.991 -0.4495 -0.0214  0.2310
 3429SOL     OW11142   6.798   6.133   3.036 -0.2186  0.3958  0.7026
 3429SOL    HW111143   6.794   6.077   2.959  1.4689  0.3010  0.6302
 3429SOL    HW211144   6.737   6.094   3.098  0.1787 -0.9332  0.2864
 3430SOL     OW11145   3.851   4.976   6.516  0.1744 -0.5975  0.4115
 3430SOL    HW111146   3.837   4.888   6.481  1.8361 -1.7696  2.4408
 3430SOL    HW211147   3.926   5.010   6.466 -0.2029 -0.4806 -0.0860
 3431SOL     OW11148   6.080   3.474   1.704  0.0051  0.5445  0.0618
 3431SOL    HW111149   6.155   3.478   1.765 -1.6953  2.6445  2.2270
 3431SOL    HW211150   6.106   3.530   1.631  1.7617 -1.3648 -0.8903
 3432SOL     OW11151   3.813   6.465   1.837  0.2408 -0.6278 -0.4401
 3432SOL    HW111152   3.862   6.446   1.757 -0.4581 -0.3262 -0.9454
 3432SOL    HW211153   3.854   6.410   1.904  1.4143 -0.2161 -0.7974
 3433SOL     OW11154   7.637   4.097   5.061  0.4662 -0.2840  0.0679
 3433SOL    HW111155   7.675   4.146   4.988  1.8738 -0.3387  0.7225
 3433SOL    HW211156   7.571   4.155   5.098  0.1740 -0.0146 -0.8607
 3434SOL     OW11157   1.260   0.808   4.652  0.0857 -0.4259 -0.3374
 3434SOL    HW111158   1.292   0.836   4.567  0.3489  0.4611  0.0439
 3434SOL    HW211159   1.165   0.814   4.645  0.1178 -0.0797 -0.4718
 3435SOL     OW11160   0.655   0.574   3.181 -0.0197 -0.5472  0.4773
 3435SOL    HW111161   0.701   0.588   3.264 -0.1195 -2.0619  0.8156
 3435SOL    HW211162   0.568   0.542   3.207 -0.4218 -0.0481 -0.2044
 3436SOL     OW11163   3.651   2.621   4.323 -0.5018  0.7736  0.0975
 3436SOL    HW111164   3.651   2.588   4.233 -1.5165  0.3240  0.2520
 3436SOL    HW211165   3.577   2.682   4.327 -3.6080 -2.6932  1.8077
 3437SOL     OW11166   5.946   1.228   6.127 -0.2730  0.0249 -0.2506
 3437SOL    HW111167   6.008   1.277   6.181 -0.2182  0.5248 -0.7534
 3437SOL    HW211168   5.984   1.231   6.039  0.8275 -2.7290  0.0365
 3438SOL     OW11169   2.613   3.483   2.863 -0.3063  0.4074  0.4186
 3438SOL    HW111170   2.629   3.428   2.939 -1.8643  0.0490  0.5254
 3438SOL    HW211171   2.698   3.492   2.821  0.1570 -1.3292  0.9134
 3439SOL     OW11172   7.217   2.077   2.788  0.1586 -0.6645  0.0766
 3439SOL    HW111173   7.168   1.999   2.764 -1.1452  0.5104 -1.2529
 3439SOL    HW211174   7.230   2.124   2.706  2.3136 -0.2317  0.6135
 3440SOL     OW11175   4.343   4.655   1.193  0.1823 -0.0991 -0.0429
 3440SOL    HW111176   4.362   4.620   1.106  0.4178 -0.3773  0.1206
 3440SOL    HW211177   4.385   4.594   1.253 -0.3995 -0.1801  0.2867
 3441SOL     OW11178   5.359   4.580   3.791  0.4679 -0.3493 -0.0126
 3441SOL    HW111179   5.432   4.546   3.843 -0.1874  0.3335  1.4118
 3441SOL    HW211180   5.288   4.591   3.854 -0.5717 -0.0795 -1.1884
 3442SOL     OW11181   3.334   2.034   2.153 -0.3191  0.2632 -0.6633
 3442SOL    HW111182   3.369   2.006   2.238 -2.8436  1.1991  0.8070
 3442SOL    HW211183   3.256   1.980   2.141 -0.4984  0.7840 -1.9605
 3443SOL     OW11184   1.040   0.770   4.935 -0.0191 -0.1006 -0.9545
 3443SOL    HW111185   0.989   0.691   4.915  0.7473 -0.5017 -1.3600
 3443SOL    HW211186   1.075   0.797   4.850  0.7217 -0.0212 -0.6246
 3444SOL     OW11187   7.627   1.687   2.346  0.0028 -0.0846 -0.0049
 3444SOL    HW111188   7.532   1.693   2.351 -0.0318 -0.5933 -0.0734
 3444SOL    HW211189   7.644   1.616   2.285  0.4234 -0.7436  0.8537
 3445SOL     OW11190   3.938   5.199   7.645 -0.2883  0.6802 -0.3983
 3445SOL    HW111191   3.967   5.290   7.653  2.7262 -0.2497  0.7977
 3445SOL    HW211192   3.929   5.169   7.736  0.7321 -0.7106 -0.7149
 3446SOL     OW11193   0.395   4.476   5.930  0.2428  0.2868 -0.3768
 3446SOL    HW111194   0.443   4.530   5.993  0.3878  0.8842 -0.9866
 3446SOL    HW211195   0.422   4.510   5.845 -0.0992 -0.3854 -0.7574
 3447SOL     OW11196   1.637   1.967   1.223  0.3445 -0.0790  0.1834
 3447SOL    HW111197   1.681   1.973   1.138 -0.1419  0.9704 -0.0130
 3447SOL    HW211198   1.600   2.054   1.237  0.1383 -0.3308  1.3289
 3448SOL     OW11199   7.203   6.034   3.241  0.0187  0.6427  0.2409
 3448SOL    HW111200   7.276   6.097   3.245 -1.7676  2.8060  1.0851
 3448SOL    HW211201   7.166   6.047   3.153  0.4015 -0.1718 -0.0452
 3449SOL     OW11202   0.699   6.340   0.024 -0.6919 -0.3551 -0.0538
 3449SOL    HW111203   0.771   6.302   0.074  0.0049  0.6740 -0.2489
 3449SOL    HW211204   0.737   6.360  -0.061 -0.8152  1.4292  0.2730
 3450SOL     OW11205   6.083   2.643   6.640  0.0592  0.7259 -0.4745
 3450SOL    HW111206   6.029   2.588   6.696  1.4556  0.2021  0.4046
 3450SOL    HW211207   6.043   2.730   6.645 -0.5738  0.3973  0.2948
 3451SOL     OW11208   3.239   3.856   6.851 -0.0014  0.1989  0.1292
 3451SOL    HW111209   3.327   3.893   6.848 -0.0471  0.5816  1.9858
 3451SOL    HW211210   3.222   3.843   6.945 -2.2948  1.0847 -0.0986
 3452SOL     OW11211   5.440   2.028   1.382 -0.7970  0.3811  0.2745
 3452SOL    HW111212   5.413   2.113   1.347  0.1785  1.0719  1.1019
 3452SOL    HW211213   5.394   2.020   1.465 -0.6718  0.2330  0.3312
 3453SOL     OW11214   1.853   5.352   2.260  0.0263  0.5820  0.0802
 3453SOL    HW111215   1.911   5.371   2.186 -0.1631  0.2575 -0.1569
 3453SOL    HW211216   1.912   5.337   2.334  0.3755 -1.6731 -0.5813
 3454SOL     OW11217   3.370   7.851   0.490  0.0636 -0.6404  0.2582
 3454SOL    HW111218   3.294   7.811   0.448  0.3633 -1.0825  0.1278
 3454SOL    HW211219   3.443   7.792   0.470  0.9160  0.9229 -1.5913
 3455SOL     OW11220   3.580   3.361   6.777  0.1331  0.4669 -0.2166
 3455SOL    HW111221   3.566   3.339   6.685 -1.8156 -0.2731  0.1962
 3455SOL    HW211222   3.539   3.447   6.787 -0.2317  0.2636  0.0758
 3456SOL     OW11223   1.872   7.833   5.442  0.7413 -0.6369  0.6692
 3456SOL    HW111224   1.814   7.801   5.511  0.3366  0.3910  0.8252
 3456SOL    HW211225   1.814   7.848   5.367  1.1444 -1.5386  0.1601
 3457SOL     OW11226   7.328   2.635   7.445  0.0065  0.1608  0.2002
 3457SOL    HW111227   7.414   2.594   7.444 -0.0185  0.1147 -0.1141
 3457SOL    HW211228   7.307   2.651   7.353 -0.6041 -0.4136  0.2293
 3458SOL     OW11229   6.969   7.710   6.997  0.3790  0.4257 -0.4091
 3458SOL    HW111230   7.032   7.723   7.068 -0.4862 -0.8204  0.6388
 3458SOL    HW211231   6.923   7.794   6.991 -0.2915  0.2311  1.3106
 3459SOL     OW11232   7.025   5.536   7.079 -1.3506 -0.4249  0.1372
 3459SOL    HW111233   7.003   5.629   7.082 -1.9719 -0.6000  2.1293
 3459SOL    HW211234   7.060   5.523   6.990 -0.9721  1.7526 -0.0950
 3460SOL     OW11235   4.867   2.388   6.206 -0.5146 -0.6796 -0.8292
 3460SOL    HW111236   4.815   2.432   6.273  0.8054 -0.2919 -0.0318
 3460SOL    HW211237   4.954   2.379   6.245  0.6552  0.7087 -2.9650
 3461SOL     OW11238   4.332   0.160   0.704 -0.3806 -0.8987 -0.1561
 3461SOL    HW111239   4.360   0.072   0.730 -0.5713 -0.4572  1.6840
 3461SOL    HW211240   4.269   0.186   0.771 -2.3177 -0.3391 -2.0944
 3462SOL     OW11241   5.095   5.102   0.239  0.2965 -0.4250  0.0037
 3462SOL    HW111242   5.030   5.084   0.172  0.8023  1.3049 -1.0114
 3462SOL    HW211243   5.163   5.036   0.225 -0.1329 -0.7835 -0.4192
 3463SOL     OW11244   1.402   3.846   6.997  0.2242 -0.1214 -0.0927
 3463SOL    HW111245   1.404   3.793   6.916 -1.3673 -1.1807  0.5114
 3463SOL    HW211246   1.414   3.782   7.067  1.1317  0.7370  0.5669
 3464SOL     OW11247   0.773   2.084   4.033  0.2005 -0.4499 -0.0249
 3464SOL    HW111248   0.778   1.996   3.994  1.6822 -0.4023 -0.0219
 3464SOL    HW211249   0.858   2.124   4.012  1.1371 -0.4392  3.2340
 3465SOL     OW11250   6.473   2.480   4.219 -0.3692 -0.0263 -0.1557
 3465SOL    HW111251   6.387   2.439   4.233  0.1522 -0.9476  0.4743
 3465SOL    HW211252   6.471   2.558   4.273 -1.3406  0.7703 -1.2842
 3466SOL     OW11253   3.096   4.381   2.378 -0.3581 -0.6164  0.0297
 3466SOL    HW111254   3.103   4.412   2.468 -0.0834 -0.6020  0.0039
 3466SOL    HW211255   3.067   4.290   2.386 -0.6630 -0.5115  0.1212
 3467SOL     OW11256   2.099   2.092   7.330  0.9672  0.4235 -0.1602
 3467SOL    HW111257   2.070   2.086   7.238 -0.3599  0.5456  0.2215
 3467SOL    HW211258   2.117   2.185   7.343  1.2452  0.3920 -0.3284
 3468SOL     OW11259   4.105   1.127   7.962  0.2727 -0.1271  0.0649
 3468SOL    HW111260   4.185   1.120   7.910  0.4288  0.4816  0.2132
 3468SOL    HW211261   4.074   1.217   7.947 -0.0802 -0.1805  0.4424
 3469SOL     OW11262   6.297   1.514   2.265  0.4532 -0.0304  0.0234
 3469SOL    HW111263   6.320   1.495   2.174  3.5680  0.7242  0.5167
 3469SOL    HW211264   6.303   1.609   2.272  0.7192 -0.1105  1.0862
 3470SOL     OW11265   5.145   4.841   5.258 -0.3133  0.1921 -0.2540
 3470SOL    HW111266   5.092   4.769   5.292  1.1279 -1.1163 -0.6629
 3470SOL    HW211267   5.148   4.905   5.329  0.2014 -1.1589  0.9730
 3471SOL     OW11268   0.394   1.670   5.531  0.0895  0.0987  0.1065
 3471SOL    HW111269   0.321   1.731   5.518  1.0300  0.9764 -1.3345
 3471SOL    HW211270   0.356   1.583   5.515 -1.0348  0.3598  1.1960
 3472SOL     OW11271   4.936   7.187   5.966 -0.0393  0.2261  0.5344
 3472SOL    HW111272   4.999   7.250   6.002 -0.3737  1.2640 -0.6111
 3472SOL    HW211273   4.867   7.242   5.930 -0.1296 -0.7873 -0.8902
 3473SOL     OW11274   2.753   6.801   0.180  0.4667  0.0853  0.0082
 3473SOL    HW111275   2.756   6.865   0.109 -2.3135 -0.4708 -0.7309
 3473SOL    HW211276   2.805   6.728   0.148  1.7140  1.0092 -0.1492
 3474SOL     OW11277   4.694   7.327   0.175  0.0523  0.3989 -0.0074
 3474SOL    HW111278   4.678   7.256   0.239 -0.0612  0.2961 -0.1492
 3474SOL    HW211279   4.788   7.342   0.180 -0.1290  1.2791  1.1204
 3475SOL     OW11280   6.285   7.797   5.873 -0.2507  0.0963  0.3927
 3475SOL    HW111281   6.193   7.818   5.856  0.3157  2.2169 -0.3309
 3475SOL    HW211282   6.307   7.843   5.954  0.4493  0.4927 -0.0117
 3476SOL     OW11283   7.107   4.180   1.190 -0.1293  0.3303  0.0920
 3476SOL    HW111284   7.121   4.275   1.192 -1.0532  0.4895 -0.3201
 3476SOL    HW211285   7.194   4.143   1.178  0.0858  1.1927 -1.2477
 3477SOL     OW11286   6.418   2.236   6.408 -0.1471  0.3769  0.7323
 3477SOL    HW111287   6.406   2.146   6.440 -1.6316  0.6658  1.0291
 3477SOL    HW211288   6.488   2.229   6.343 -0.2362 -0.9821  0.7588
 3478SOL     OW11289   3.469   6.238   3.477 -0.0270  0.4327  0.3348
 3478SOL    HW111290   3.382   6.271   3.454 -0.8025 -0.3239  2.0405
 3478SOL    HW211291   3.512   6.313   3.518 -0.0506  0.6562 -0.0397
 3479SOL     OW11292   0.480   5.491   5.086  0.1347  0.2517  0.4127
 3479SOL    HW111293   0.419   5.427   5.050 -1.9918  2.7913 -0.7638
 3479SOL    HW211294   0.491   5.465   5.178 -0.2548 -2.0000 -0.1214
 3480SOL     OW11295   3.807   5.629   5.307 -0.9472  0.1477  0.1559
 3480SOL    HW111296   3.735   5.578   5.344 -0.9713 -0.8891 -1.2116
 3480SOL    HW211297   3.775   5.657   5.221  1.4677 -3.5915 -2.2575
 3481SOL     OW11298   5.252   5.587   0.115  0.2976  0.0959  0.2422
 3481SOL    HW111299   5.206   5.504   0.130  0.4614  0.3297  2.2893
 3481SOL    HW211300   5.324   5.565   0.056 -1.2994 -0.6402 -1.5152
 3482SOL     OW11301   7.218   0.482   0.488 -0.2417 -0.1074 -0.1665
 3482SOL    HW111302   7.272   0.530   0.425 -1.0476  0.3441 -0.5401
 3482SOL    HW211303   7.259   0.500   0.572 -0.6968  1.5635 -0.2494
 3483SOL     OW11304   3.199   5.641   6.335  0.2472 -0.0575  0.0302
 3483SOL    HW111305   3.195   5.552   6.369  1.2379 -0.0872  0.1018
 3483SOL    HW211306   3.286   5.673   6.359 -0.5310  1.3928  1.0992
 3484SOL     OW11307   1.115   4.023   7.349  0.3868  0.3139  0.3489
 3484SOL    HW111308   1.060   4.085   7.302  0.4130  0.6452  0.7563
 3484SOL    HW211309   1.064   3.941   7.349 -0.0391  0.5754  0.5849
 3485SOL     OW11310   3.833   7.247   7.306  0.0026  0.2981 -0.6293
 3485SOL    HW111311   3.840   7.155   7.282  0.3833 -0.3224  1.6478
 3485SOL    HW211312   3.750   7.276   7.268 -1.4075 -1.7155  0.7326
 3486SOL     OW11313   7.271   7.153   0.403 -0.2715 -1.0105  0.1557
 3486SOL    HW111314   7.263   7.058   0.408  0.2703 -1.1929 -1.8074
 3486SOL    HW211315   7.339   7.175   0.466  0.2372 -2.0368 -0.0202
 3487SOL     OW11316   5.298   2.601   4.981 -0.4630  0.2801  0.2439
 3487SOL    HW111317   5.240   2.526   4.971 -0.2029 -0.0458  1.0975
 3487SOL    HW211318   5.379   2.576   4.936 -0.8121  0.5635 -0.5694
 3488SOL     OW11319   4.699   6.142   6.240 -0.2892  0.1710 -0.3906
 3488SOL    HW111320   4.667   6.059   6.206  0.5417 -0.1247 -0.4836
 3488SOL    HW211321   4.683   6.138   6.334 -0.9217  0.2237 -0.4902
 3489SOL     OW11322   0.013   3.554   2.081 -0.3972 -0.0374 -0.0313
 3489SOL    HW111323  -0.003   3.648   2.083 -0.0970  0.0244 -0.4228
 3489SOL    HW211324   0.092   3.544   2.027 -1.2245 -0.6200 -1.1665
 3490SOL     OW11325   4.327   6.872   1.112  0.1094 -0.6302  0.4599
 3490SOL    HW111326   4.335   6.869   1.017  1.6609  0.8957  0.4974
 3490SOL    HW211327   4.282   6.790   1.135  0.3759 -1.3755 -1.5003
 3491SOL     OW11328   0.919   4.084   5.312  0.3395 -0.3131 -0.5658
 3491SOL    HW111329   0.988   4.075   5.378 -0.9604 -1.8376  0.6767
 3491SOL    HW211330   0.840   4.052   5.356 -0.8323 -0.1667 -2.4711
 3492SOL     OW11331   1.523   2.722   0.691  0.3019 -0.5508 -0.2018
 3492SOL    HW111332   1.485   2.801   0.654  0.0963 -1.0227 -1.0282
 3492SOL    HW211333   1.618   2.732   0.679  0.4730  0.5633  1.7346
 3493SOL     OW11334   6.775   3.380   5.402  0.4908  0.3550 -0.0190
 3493SOL    HW111335   6.693   3.427   5.389 -0.5427 -0.5112  2.7670
 3493SOL    HW211336   6.749   3.289   5.415  1.8717  0.0639  0.8951
 3494SOL     OW11337   0.129   0.087   2.082  0.4076  0.2535 -0.1612
 3494SOL    HW111338   0.208   0.142   2.079  1.4435 -1.2227 -1.0587
 3494SOL    HW211339   0.138   0.038   2.164  0.1050  0.5323  0.0390
 3495SOL     OW11340   5.880   2.278   7.636  0.1062  0.0990 -0.0155
 3495SOL    HW111341   5.854   2.194   7.597  0.5761  0.0620 -0.2513
 3495SOL    HW211342   5.939   2.254   7.707  0.3658  0.2370 -0.1840
 3496SOL     OW11343   7.928   3.157   2.500  0.2708  0.2354  0.2770
 3496SOL    HW111344   7.918   3.246   2.467  2.0487 -0.0975 -1.3985
 3496SOL    HW211345   7.867   3.150   2.573 -1.2767  2.2079 -0.7560
 3497SOL     OW11346   7.094   2.634   5.475 -0.0607 -0.2833 -0.0987
 3497SOL    HW111347   7.101   2.552   5.426 -0.3220 -0.6114  0.3993
 3497SOL    HW211348   7.029   2.615   5.543  1.1883 -0.2301  1.1475
 3498SOL     OW11349   3.329   1.140   4.377  0.4870  0.7978 -0.0741
 3498SOL    HW111350   3.398   1.081   4.347  1.4370  0.9072  1.7668
 3498SOL    HW211351   3.352   1.224   4.339  2.2369  1.1633  1.6257
 3499SOL     OW11352   1.546   1.169   4.236 -0.3908  0.3038 -0.1418
 3499SOL    HW111353   1.509   1.150   4.322 -1.1281  1.3201 -0.2211
 3499SOL    HW211354   1.504   1.108   4.177 -1.0472  0.6409 -0.0275
 3500SOL     OW11355   6.028   2.475   5.088  0.1908 -0.1396 -0.0280
 3500SOL    HW111356   5.992   2.397   5.130 -0.8682  0.1361 -0.4076
 3500SOL    HW211357   6.024   2.542   5.156  0.1552 -0.1555 -0.0142
 3501SOL     OW11358   4.813   0.589   7.553 -0.0313 -0.0953 -0.4414
 3501SOL    HW111359   4.822   0.502   7.514  1.3362 -0.5962  0.9027
 3501SOL    HW211360   4.821   0.574   7.647 -0.2722  1.4362 -0.1481
 3502SOL     OW11361   4.166   4.701   6.588  0.4947  0.2847  0.3429
 3502SOL    HW111362   4.242   4.743   6.628  0.6505  1.2336 -0.8789
 3502SOL    HW211363   4.091   4.752   6.620  0.5585  0.6315 -0.0613
 3503SOL     OW11364   2.386   4.903   3.492 -0.6003  0.2035  0.0263
 3503SOL    HW111365   2.359   4.811   3.486  0.4508 -0.1380  0.1451
 3503SOL    HW211366   2.440   4.917   3.415  0.2652  0.3398  0.6382
 3504SOL     OW11367   7.896   1.548   7.581  0.3003 -0.3807 -0.5073
 3504SOL    HW111368   7.906   1.569   7.488  1.1055  1.0119 -0.1426
 3504SOL    HW211369   7.979   1.574   7.621 -0.1348 -0.6922  0.6500
 3505SOL     OW11370   3.342   4.095   0.355 -0.1983  0.0132 -0.1200
 3505SOL    HW111371   3.427   4.082   0.397 -0.7015  2.3327  1.8844
 3505SOL    HW211372   3.340   4.033   0.283  2.2330 -1.6980  1.1729
 3506SOL     OW11373   1.035   2.273   5.481  0.2194 -0.1148 -0.2220
 3506SOL    HW111374   0.964   2.209   5.484 -1.3422  1.5346  0.3298
 3506SOL    HW211375   0.991   2.357   5.497  2.3145  0.9770  0.0839
 3507SOL     OW11376   7.587   3.188   5.907 -0.0503 -0.1773  0.4183
 3507SOL    HW111377   7.553   3.223   5.990 -0.2704 -1.6366  0.9661
 3507SOL    HW211378   7.529   3.115   5.886  0.5302 -0.3700 -0.5735
 3508SOL     OW11379   3.520   4.042   0.755 -0.3498 -0.1225  0.0929
 3508SOL    HW111380   3.429   4.026   0.781 -0.9035  1.3946 -0.7935
 3508SOL    HW211381   3.528   4.006   0.667 -0.1374 -0.1062  0.1030
 3509SOL     OW11382   7.934   6.161   5.405  0.0383  0.3558  0.2843
 3509SOL    HW111383   7.894   6.108   5.336  1.6725  0.2176 -0.6105
 3509SOL    HW211384   8.028   6.149   5.392  0.3966  1.5220  1.6282
 3510SOL     OW11385   5.806   1.123   3.367 -0.2757  0.5801 -0.3903
 3510SOL    HW111386   5.770   1.044   3.408 -0.2984  0.3814 -0.7907
 3510SOL    HW211387   5.895   1.098   3.341  0.7049  1.4582  1.7948
 3511SOL     OW11388   0.907   6.242   5.376 -0.1649 -0.4927  0.0240
 3511SOL    HW111389   0.890   6.268   5.466  0.0291  0.5878 -0.2379
 3511SOL    HW211390   0.860   6.160   5.365 -1.5153  0.1803  0.6402
 3512SOL     OW11391   4.212   6.915   5.927 -0.8942  0.4499  0.6005
 3512SOL    HW111392   4.149   6.859   5.883  0.0563 -0.3172  0.1617
 3512SOL    HW211393   4.159   6.975   5.980 -1.9282 -1.0617  1.3391
 3513SOL     OW11394   2.381   0.667   6.786 -0.3999 -0.4739  0.0242
 3513SOL    HW111395   2.306   0.698   6.736 -0.6948 -0.7194  0.3062
 3513SOL    HW211396   2.349   0.659   6.876  0.3966  0.9085  0.4501
 3514SOL     OW11397   4.172   1.776   1.831 -0.4709  0.5421  0.8032
 3514SOL    HW111398   4.152   1.803   1.921 -1.2983 -0.4745  0.9468
 3514SOL    HW211399   4.132   1.689   1.823 -3.5288  2.0016 -1.6371
 3515SOL     OW11400   6.904   0.081   7.262 -0.2238  0.4495  0.6757
 3515SOL    HW111401   6.951   0.150   7.308  0.5176  0.1510  0.3803
 3515SOL    HW211402   6.844   0.128   7.204 -0.2889  0.8342  1.0533
 3516SOL     OW11403   6.959   2.140   3.799 -0.8021  0.1369 -0.2751
 3516SOL    HW111404   7.034   2.142   3.740 -0.6704  1.5159 -0.0994
 3516SOL    HW211405   6.883   2.125   3.743 -0.5698  0.4272 -0.6663
 3517SOL     OW11406   1.878   0.586   7.440 -0.1284  0.3490  0.4975
 3517SOL    HW111407   1.831   0.625   7.514 -2.1728 -0.5895 -0.2283
 3517SOL    HW211408   1.906   0.501   7.472  0.4313  0.6012  0.6895
 3518SOL     OW11409   7.748   4.170   2.033  0.0028 -0.3546  0.0280
 3518SOL    HW111410   7.829   4.155   1.985  0.2539 -3.8056  1.2041
 3518SOL    HW211411   7.775   4.210   2.115  0.0916  1.3258 -0.7837
 3519SOL     OW11412   4.935   2.266   3.007  0.0944 -0.3273  0.1895
 3519SOL    HW111413   4.929   2.229   3.095  2.5162 -1.0023  0.1237
 3519SOL    HW211414   4.864   2.224   2.959 -1.9372  0.7959  1.9963
 3520SOL     OW11415   4.860   6.520   4.890 -0.2807 -0.2291  0.4000
 3520SOL    HW111416   4.839   6.427   4.882 -1.8452 -0.0221  1.6087
 3520SOL    HW211417   4.928   6.524   4.957 -0.0997 -0.5168  0.2346
 3521SOL     OW11418   0.054   3.640   0.878  0.4431  0.1455 -0.6182
 3521SOL    HW111419  -0.004   3.710   0.847  2.2075  1.9170 -0.1716
 3521SOL    HW211420   0.044   3.641   0.973  0.3056 -0.3744 -0.6260
 3522SOL     OW11421   7.390   0.902   1.001  0.4023  0.8216 -0.1286
 3522SOL    HW111422   7.439   0.859   1.072 -0.4255 -1.0041 -0.6086
 3522SOL    HW211423   7.312   0.937   1.044 -0.0630 -0.2197 -0.0989
 3523SOL     OW11424   3.837   0.497   7.946  0.0703  0.0687  0.1720
 3523SOL    HW111425   3.745   0.493   7.973 -0.3639 -0.9867 -1.3784
 3523SOL    HW211426   3.859   0.407   7.922  1.9782  0.0016  1.9256
 3524SOL     OW11427   0.229   4.308   5.757  0.2104 -0.4309 -0.0034
 3524SOL    HW111428   0.275   4.340   5.834  1.9872 -0.4781 -1.0005
 3524SOL    HW211429   0.165   4.246   5.792 -0.1807  0.7862  1.5513
 3525SOL     OW11430   4.695   0.303   0.058  0.0790 -0.0928 -0.0398
 3525SOL    HW111431   4.731   0.238   0.119 -0.1568 -0.2320 -0.0480
 3525SOL    HW211432   4.645   0.363   0.113  1.3724  0.8691  0.1554
 3526SOL     OW11433   0.377   5.312   2.111  0.0486 -0.3205  0.3826
 3526SOL    HW111434   0.419   5.226   2.122  0.1347 -0.6832 -2.1155
 3526SOL    HW211435   0.298   5.293   2.060 -0.8824  0.8947  1.3190
 3527SOL     OW11436   6.745   4.321   4.557 -0.4997  0.2396 -0.1234
 3527SOL    HW111437   6.806   4.379   4.513 -1.2625  1.3011  0.1929
 3527SOL    HW211438   6.734   4.358   4.644 -1.9437  0.3376 -0.3226
 3528SOL     OW11439   7.593   1.730   1.737  0.4886 -0.1970 -0.1121
 3528SOL    HW111440   7.579   1.699   1.827 -1.0327 -0.9180 -0.5565
 3528SOL    HW211441   7.683   1.706   1.717  1.0539  0.4929  1.4045
 3529SOL     OW11442   0.895   2.600   7.558 -0.3812  0.0713  0.0854
 3529SOL    HW111443   0.887   2.552   7.641  0.6921  0.7267  0.5859
 3529SOL    HW211444   0.865   2.688   7.578 -0.8679  0.0357 -0.4436
 3530SOL     OW11445   3.649   0.337   1.030  0.5406  0.0580  0.0863
 3530SOL    HW111446   3.589   0.404   1.059  1.5068  0.8731  0.2589
 3530SOL    HW211447   3.641   0.267   1.095  0.4944  0.5739  0.6394
 3531SOL     OW11448   1.907   6.301   0.056 -0.2018  0.0755 -0.0584
 3531SOL    HW111449   1.821   6.295   0.098 -0.3921 -0.0554 -0.4572
 3531SOL    HW211450   1.943   6.385   0.086  0.3074 -0.6727  1.5379
 3532SOL     OW11451   1.126   4.796   6.061 -0.4726  0.3689  0.2081
 3532SOL    HW111452   1.163   4.872   6.106 -2.5234  0.1858  2.4109
 3532SOL    HW211453   1.058   4.832   6.005  0.0041  0.3331 -0.3954
 3533SOL     OW11454   2.507   3.505   2.383 -0.5200 -0.2011 -0.0528
 3533SOL    HW111455   2.478   3.520   2.473 -0.4178  2.1125 -0.3674
 3533SOL    HW211456   2.601   3.526   2.385 -0.6680  0.5677 -0.8380
 3534SOL     OW11457   4.530   6.234   2.379 -0.1456  0.4618 -0.7708
 3534SOL    HW111458   4.591   6.165   2.404  2.7147  2.5230 -1.6059
 3534SOL    HW211459   4.493   6.205   2.295 -0.6683 -1.0025 -0.0528
 3535SOL     OW11460   1.542   4.360   7.037 -0.6941 -0.2803  0.1790
 3535SOL    HW111461   1.598   4.292   7.000 -0.1670 -0.3796  1.1237
 3535SOL    HW211462   1.453   4.328   7.024 -0.4862 -0.7115 -0.2089
 3536SOL     OW11463   6.185   7.063   5.384  0.3588  0.2534  0.2539
 3536SOL    HW111464   6.272   7.038   5.352  0.9147  0.1876  1.7517
 3536SOL    HW211465   6.171   7.151   5.349  0.5475 -0.1581 -0.8979
 3537SOL     OW11466   0.504   7.775   0.222  0.1851  0.0068 -0.4736
 3537SOL    HW111467   0.488   7.774   0.316  1.1575  0.6124 -0.2816
 3537SOL    HW211468   0.554   7.855   0.207  1.6861 -1.0146 -1.2005
 3538SOL     OW11469   2.957   0.161   4.135 -0.5599  0.2447 -0.2015
 3538SOL    HW111470   2.895   0.178   4.064 -1.2024  0.4490  0.4028
 3538SOL    HW211471   3.008   0.242   4.141  0.9405 -0.5170 -1.8258
 3539SOL     OW11472   2.402   5.041   6.538  0.6601  0.3713 -0.3226
 3539SOL    HW111473   2.401   5.065   6.631  0.6702  0.0899 -0.2474
 3539SOL    HW211474   2.459   4.964   6.534  0.5901  0.3302 -0.5481
 3540SOL     OW11475   0.373   1.344   1.395  0.0292  0.6640 -0.0744
 3540SOL    HW111476   0.358   1.399   1.473 -1.5112 -1.1858  1.0145
 3540SOL    HW211477   0.324   1.387   1.325  0.6751  1.8590  0.1799
 3541SOL     OW11478   6.862   1.201   7.145  0.3093  0.0204  0.0858
 3541SOL    HW111479   6.812   1.120   7.133 -1.2922  1.1463 -1.4605
 3541SOL    HW211480   6.849   1.223   7.238  0.4797 -1.2991  0.4378
 3542SOL     OW11481   2.070   6.260   2.850 -0.0141  0.0957  0.6322
 3542SOL    HW111482   1.992   6.218   2.815 -0.8227  0.2946  2.0984
 3542SOL    HW211483   2.092   6.209   2.928  0.9526  0.4187  0.5905
 3543SOL     OW11484   5.901   0.832   6.173  0.5955 -0.1494 -0.4325
 3543SOL    HW111485   5.933   0.753   6.128  0.6213  0.0728 -0.8081
 3543SOL    HW211486   5.931   0.822   6.263 -1.1643 -1.5767  0.0590
 3544SOL     OW11487   0.956   2.559   3.257  0.0146 -0.6412  0.3545
 3544SOL    HW111488   0.931   2.480   3.208  2.8669  0.3196 -3.0336
 3544SOL    HW211489   1.042   2.538   3.292 -0.6382 -0.1329  2.3723
 3545SOL     OW11490   4.611   5.829   0.940 -0.3391 -0.4130  0.8724
 3545SOL    HW111491   4.631   5.851   0.849  0.2484 -0.1031  1.0722
 3545SOL    HW211492   4.611   5.733   0.942 -1.9099 -0.4541  0.2150
 3546SOL     OW11493   0.933   6.499   1.747  0.4788 -0.6852  0.6329
 3546SOL    HW111494   0.907   6.416   1.708 -1.2709 -0.5987  1.4754
 3546SOL    HW211495   1.015   6.480   1.793 -0.2136 -2.1306  1.3435
 3547SOL     OW11496   4.531   6.487   3.493  0.2548  0.4275  0.2906
 3547SOL    HW111497   4.550   6.458   3.582  0.9287 -0.8386 -0.2341
 3547SOL    HW211498   4.522   6.406   3.443  0.0472  1.1156 -0.8308
 3548SOL     OW11499   5.089   3.975   4.632 -0.0924  0.1518 -0.0167
 3548SOL    HW111500   5.126   3.907   4.688  1.6487  2.0229  1.2369
 3548SOL    HW211501   5.165   4.018   4.593 -1.1201  1.5965 -0.5195
 3549SOL     OW11502   5.104   5.497   7.416  0.2851 -0.3494 -0.3112
 3549SOL    HW111503   5.126   5.404   7.416  0.2352 -0.3645  0.2112
 3549SOL    HW211504   5.173   5.538   7.364 -0.0107 -0.7451 -1.0345
 3550SOL     OW11505   5.635   1.671   5.511 -0.3219  0.0713 -0.0629
 3550SOL    HW111506   5.609   1.746   5.457 -0.3721  0.2534  0.2111
 3550SOL    HW211507   5.725   1.691   5.537 -0.0019 -0.4115 -0.7549
 3551SOL     OW11508   7.070   7.563   2.445  0.0735  0.1802 -0.2895
 3551SOL    HW111509   7.106   7.651   2.438 -0.7206  1.0152  3.7818
 3551SOL    HW211510   7.146   7.505   2.446  1.0209  1.3640  2.1247
 3552SOL     OW11511   1.178   5.340   4.962 -0.2269 -0.0829  0.0912
 3552SOL    HW111512   1.108   5.357   4.899 -0.2932  0.3559  0.2788
 3552SOL    HW211513   1.182   5.244   4.968 -1.6148 -0.1115  0.9593
 3553SOL     OW11514   3.105   2.425   1.199 -0.0544 -0.1962  0.2522
 3553SOL    HW111515   3.107   2.476   1.117  1.2710 -0.5309  0.0496
 3553SOL    HW211516   3.059   2.482   1.261  0.2663  0.7148 -0.3183
 3554SOL     OW11517   5.864   7.848   5.994  0.2769  0.1527 -0.2211
 3554SOL    HW111518   5.921   7.868   6.068  0.2833  1.8787 -0.6553
 3554SOL    HW211519   5.781   7.890   6.015 -0.8708 -2.1908  0.3305
 3555SOL     OW11520   7.005   1.872   0.155 -0.1765 -0.0118 -0.1843
 3555SOL    HW111521   6.939   1.940   0.169  1.7352  2.1686 -0.9168
 3555SOL    HW211522   6.978   1.829   0.073 -1.2512  0.0788  0.1111
 3556SOL     OW11523   3.109   0.775   4.419  0.3519 -0.2332 -0.2431
 3556SOL    HW111524   3.052   0.767   4.496 -0.1968  1.9891 -0.3457
 3556SOL    HW211525   3.198   0.778   4.456  0.2364 -1.0610  0.1305
 3557SOL     OW11526   5.292   3.499   3.072 -0.4683  0.2593  0.5141
 3557SOL    HW111527   5.356   3.548   3.122 -0.7131  0.6571  0.4417
 3557SOL    HW211528   5.309   3.522   2.981  1.1242 -1.8094  0.2245
 3558SOL     OW11529   5.558   4.427   0.292  0.6252 -0.1004  0.1381
 3558SOL    HW111530   5.481   4.371   0.305  0.7443 -0.0897  0.9036
 3558SOL    HW211531   5.625   4.390   0.348  1.4705 -0.6290 -1.1633
 3559SOL     OW11532   1.340   2.115   7.061  0.4511 -0.2279  0.4121
 3559SOL    HW111533   1.343   2.127   6.966  0.6569 -0.6574  0.3658
 3559SOL    HW211534   1.386   2.192   7.096  0.2087  0.0291  0.1746
 3560SOL     OW11535   2.975   3.279   2.725 -0.5381 -0.2615  0.2301
 3560SOL    HW111536   2.968   3.286   2.630  0.9390 -1.9713 -0.0725
 3560SOL    HW211537   2.933   3.357   2.759  1.3642  1.8649 -1.9534
 3561SOL     OW11538   3.424   5.916   0.603  0.1195 -0.4994  0.1798
 3561SOL    HW111539   3.511   5.879   0.588  0.2570 -1.0952  2.2159
 3561SOL    HW211540   3.371   5.842   0.632 -0.4601  0.2812  1.1596
 3562SOL     OW11541   0.745   7.197   7.947  0.5793  0.0219  0.0291
 3562SOL    HW111542   0.774   7.286   7.930  1.5598 -0.3606 -0.4261
 3562SOL    HW211543   0.655   7.205   7.976 -0.1055  0.9968 -2.1876
 3563SOL     OW11544   0.571   5.892   1.136 -0.3516 -0.2723  0.4775
 3563SOL    HW111545   0.586   5.799   1.154 -0.1090 -0.4455 -0.5398
 3563SOL    HW211546   0.593   5.902   1.043 -0.0395  0.8741  0.6613
 3564SOL     OW11547   3.078   4.629   3.122 -0.1914 -0.3098  0.0836
 3564SOL    HW111548   2.993   4.595   3.149 -0.1476 -0.7440 -0.3106
 3564SOL    HW211549   3.102   4.692   3.190 -0.0816 -1.3754  1.0541
 3565SOL     OW11550   6.760   3.248   3.861  0.5519 -0.1496  0.7382
 3565SOL    HW111551   6.696   3.190   3.822 -0.1154 -0.6519  2.5034
 3565SOL    HW211552   6.733   3.336   3.834 -1.1924 -0.3098  1.8388
 3566SOL     OW11553   3.243   6.321   1.419 -0.7725 -0.5018  0.2374
 3566SOL    HW111554   3.331   6.288   1.402  0.0067  0.5120  1.9906
 3566SOL    HW211555   3.226   6.384   1.349  0.4695  0.2820  0.6087
 3567SOL     OW11556   0.290   5.984   7.857  0.1481  0.3054  0.0261
 3567SOL    HW111557   0.324   5.927   7.926  1.0811  1.5311  0.6361
 3567SOL    HW211558   0.358   6.051   7.846  0.3397 -0.2444 -2.6060
 3568SOL     OW11559   3.409   7.971   4.963 -0.5026  0.0405  0.0191
 3568SOL    HW111560   3.406   7.888   4.915 -0.0794  0.3165 -0.4994
 3568SOL    HW211561   3.502   7.994   4.965 -0.6000  0.4116  0.3164
 3569SOL     OW11562   6.824   4.476   5.174 -0.2451 -0.0209 -0.3453
 3569SOL    HW111563   6.849   4.568   5.166  4.2719 -0.9289  0.6364
 3569SOL    HW211564   6.821   4.460   5.268 -0.9918 -0.9192 -0.5061
 3570SOL     OW11565   2.747   6.832   3.261  0.4816 -0.1291  0.2252
 3570SOL    HW111566   2.807   6.785   3.320 -0.3706 -1.5305  0.0304
 3570SOL    HW211567   2.743   6.776   3.183  0.7095  1.1299 -0.7073
 3571SOL     OW11568   6.728   3.917   1.150 -0.2782 -0.1349 -0.1950
 3571SOL    HW111569   6.647   3.934   1.104 -1.2533 -0.8532  1.1775
 3571SOL    HW211570   6.722   3.970   1.230  1.8108  1.8916 -1.2427
 3572SOL     OW11571   2.152   5.835   5.066 -0.1075 -0.1539  0.0605
 3572SOL    HW111572   2.234   5.878   5.092 -0.2818  1.4576 -1.8257
 3572SOL    HW211573   2.162   5.819   4.972 -1.6060 -0.7649 -0.0202
 3573SOL     OW11574   1.673   3.601   5.629 -0.0538  0.1015  0.5102
 3573SOL    HW111575   1.759   3.637   5.608 -0.2077 -0.5520 -1.3511
 3573SOL    HW211576   1.689   3.508   5.645 -0.3458  0.0829  0.7010
 3574SOL     OW11577   5.665   2.755   6.532 -0.0530 -0.5663 -0.6630
 3574SOL    HW111578   5.755   2.786   6.540  0.4398 -2.0000 -0.2469
 3574SOL    HW211579   5.620   2.790   6.609  1.1862 -3.0016  1.3202
 3575SOL     OW11580   4.840   1.236   3.946  0.4487 -0.4836  0.0567
 3575SOL    HW111581   4.902   1.204   4.012  4.5127  2.0568 -2.1281
 3575SOL    HW211582   4.805   1.157   3.905  0.3703 -2.0524  2.8979
 3576SOL     OW11583   4.295   4.015   4.725  0.6851  0.1682 -0.4629
 3576SOL    HW111584   4.223   3.952   4.722  0.5277  0.2576  0.8743
 3576SOL    HW211585   4.374   3.961   4.724  0.6827  0.0961 -2.9901
 3577SOL     OW11586   3.127   3.143   5.467  0.4750 -0.0463  0.1565
 3577SOL    HW111587   3.141   3.229   5.428 -0.6309  0.2511  0.3806
 3577SOL    HW211588   3.087   3.161   5.552  0.1658 -0.7809  0.1774
 3578SOL     OW11589   0.823   7.022   0.877 -0.3485 -0.0490  0.1738
 3578SOL    HW111590   0.825   6.995   0.969 -1.5496  0.3410  0.3431
 3578SOL    HW211591   0.871   7.105   0.875 -2.1929  1.1052  0.9147
 3579SOL     OW11592   0.539   0.625   3.409 -0.0836 -0.0748  0.2301
 3579SOL    HW111593   0.614   0.582   3.450 -0.1891 -0.7944 -0.2975
 3579SOL    HW211594   0.548   0.717   3.431 -0.2180 -0.4390  1.9893
 3580SOL     OW11595   2.357   4.634   2.264  0.4982  0.2756 -0.1734
 3580SOL    HW111596   2.323   4.711   2.220 -0.9375 -0.8960 -1.2408
 3580SOL    HW211597   2.283   4.602   2.317  1.3766  0.1821  1.0463
 3581SOL     OW11598   6.118   2.054   1.191 -0.5084  0.2937 -0.5601
 3581SOL    HW111599   6.190   2.066   1.128 -0.2736 -2.3593 -0.9427
 3581SOL    HW211600   6.043   2.029   1.136 -0.3703 -1.7845  0.0916
 3582SOL     OW11601   6.492   4.531   5.118 -0.2156 -0.3510 -0.2510
 3582SOL    HW111602   6.441   4.450   5.112 -0.6275 -0.5542  3.5559
 3582SOL    HW211603   6.584   4.502   5.115 -0.3482 -0.7021 -0.9892
 3583SOL     OW11604   3.226   6.007   6.753  0.4880 -0.1135  0.4906
 3583SOL    HW111605   3.181   5.931   6.790  3.9397 -2.4164  0.4228
 3583SOL    HW211606   3.194   6.012   6.663  1.2177 -2.5391  0.0106
 3584SOL     OW11607   6.232   7.234   7.488  0.2731  0.9152 -0.0970
 3584SOL    HW111608   6.279   7.184   7.422  0.4083  0.2635  0.4879
 3584SOL    HW211609   6.272   7.321   7.485 -0.8202  1.4008 -2.0041
 3585SOL     OW11610   7.971   1.983   2.359  0.3022 -0.3104  0.6314
 3585SOL    HW111611   7.878   1.978   2.334  0.4584  0.7962 -0.2193
 3585SOL    HW211612   7.992   2.076   2.355  1.3307 -0.5020  1.2995
 3586SOL     OW11613   4.566   4.649   0.660  0.2929 -0.2058  0.4254
 3586SOL    HW111614   4.517   4.566   0.662  0.3656 -0.2428  0.7472
 3586SOL    HW211615   4.577   4.668   0.567 -0.3833 -0.1702  0.3491
 3587SOL     OW11616   3.613   6.582   1.982  0.2329 -0.3211 -0.1191
 3587SOL    HW111617   3.637   6.541   2.064 -1.1204 -1.7475 -0.3887
 3587SOL    HW211618   3.681   6.555   1.920  0.0974 -1.0213  0.0346
 3588SOL     OW11619   0.980   4.675   0.843  0.4810 -0.0800  0.6861
 3588SOL    HW111620   0.906   4.630   0.800 -1.9613  1.3104  3.1180
 3588SOL    HW211621   1.046   4.683   0.774 -0.9705 -2.7681 -1.2260
 3589SOL     OW11622   3.772   2.272   8.003  0.2452 -0.4560 -0.1790
 3589SOL    HW111623   3.843   2.232   7.953 -0.2588 -1.9312  0.2451
 3589SOL    HW211624   3.778   2.365   7.983  1.5704 -0.7105 -1.0566
 3590SOL     OW11625   1.589   0.725   2.580  0.3630 -0.1553 -0.4824
 3590SOL    HW111626   1.654   0.655   2.588 -0.5307 -1.0359 -0.7882
 3590SOL    HW211627   1.542   0.704   2.499 -1.4822 -0.5506  0.6427
 3591SOL     OW11628   6.557   3.540   3.518 -0.1950 -0.3008  0.2922
 3591SOL    HW111629   6.495   3.567   3.450 -0.1011  0.2882  0.4326
 3591SOL    HW211630   6.513   3.471   3.566 -0.7102  0.0511  0.3311
 3592SOL     OW11631   2.980   7.120   6.597  0.0477  0.1435  0.7268
 3592SOL    HW111632   2.904   7.065   6.619 -0.5057  0.9580  0.9001
 3592SOL    HW211633   2.951   7.171   6.521  1.1075 -0.9088 -0.4210
 3593SOL     OW11634   7.965   4.684   3.439  0.4350  0.4519  0.9781
 3593SOL    HW111635   7.949   4.590   3.441 -1.3308  0.7105  0.2959
 3593SOL    HW211636   8.059   4.692   3.455  0.8855 -1.5142 -0.3163
 3594SOL     OW11637   2.824   5.980   5.064 -0.6885  0.3741  0.1026
 3594SOL    HW111638   2.882   5.993   5.139 -1.2799  1.7935  0.3414
 3594SOL    HW211639   2.742   5.947   5.102  0.9480 -5.6516 -0.5121
 3595SOL     OW11640   5.571   0.918   4.262 -0.3829 -0.0877  0.0946
 3595SOL    HW111641   5.582   0.822   4.263  1.4150  0.0592  2.3147
 3595SOL    HW211642   5.616   0.946   4.183 -1.0552 -1.0693 -0.6610
 3596SOL     OW11643   0.689   0.546   1.166  0.0245  1.2642 -0.4287
 3596SOL    HW111644   0.721   0.621   1.115  0.3539  0.8549 -0.8323
 3596SOL    HW211645   0.768   0.498   1.191 -0.0871  1.7745  0.9913
 3597SOL     OW11646   4.320   4.577   7.190 -0.4821 -0.0484  0.2774
 3597SOL    HW111647   4.372   4.542   7.118  2.3725  2.4369  0.9501
 3597SOL    HW211648   4.298   4.666   7.162 -0.9436  0.3146  1.7381
 3598SOL     OW11649   2.810   1.816   4.810 -0.5231  0.1426  0.5564
 3598SOL    HW111650   2.856   1.761   4.747 -0.7562 -0.1141  0.6088
 3598SOL    HW211651   2.812   1.904   4.772 -0.2217  0.0845  0.4342
 3599SOL     OW11652   5.055   5.987   4.947  0.2915  0.0115 -0.0257
 3599SOL    HW111653   5.104   5.998   5.029  1.8954 -1.4771 -0.7095
 3599SOL    HW211654   5.120   5.952   4.885 -1.6071 -2.0236 -1.0188
 3600SOL     OW11655   6.539   4.062   2.326  0.0563 -0.2304  0.1282
 3600SOL    HW111656   6.526   3.970   2.350 -0.2471 -0.3670 -0.5351
 3600SOL    HW211657   6.594   4.098   2.396 -0.2174 -0.7950  0.6357
 3601SOL     OW11658   7.728   7.261   2.458 -0.8877 -0.3395  0.0334
 3601SOL    HW111659   7.662   7.325   2.486  0.3289  1.2190 -0.5224
 3601SOL    HW211660   7.768   7.231   2.539  2.7679  4.3010  0.3578
 3602SOL     OW11661   3.958   1.303   7.716 -0.2444 -1.2075 -0.1070
 3602SOL    HW111662   3.970   1.397   7.724  0.8229 -1.4458  1.5136
 3602SOL    HW211663   3.875   1.293   7.670 -1.2161  0.5201  1.1776
 3603SOL     OW11664   1.305   5.432   6.649  0.3453 -0.2395  0.6684
 3603SOL    HW111665   1.285   5.362   6.588 -1.6478 -1.0035  2.0873
 3603SOL    HW211666   1.291   5.393   6.736 -0.0699  1.6920  1.5230
 3604SOL     OW11667   3.255   5.083   1.095  0.0921  0.3114 -0.0023
 3604SOL    HW111668   3.236   5.029   1.172  0.8244  1.5755  1.1066
 3604SOL    HW211669   3.330   5.040   1.054 -0.7504 -0.7757 -0.4533
 3605SOL     OW11670   2.470   4.662   1.538 -0.1161  0.0262 -0.8717
 3605SOL    HW111671   2.475   4.652   1.443  0.5518  0.7845 -0.9244
 3605SOL    HW211672   2.554   4.699   1.563 -0.2416 -0.2699  0.0373
 3606SOL     OW11673   6.319   5.013   1.411 -0.5959  0.5795  0.7747
 3606SOL    HW111674   6.296   4.993   1.320  1.8055 -0.3746  0.2767
 3606SOL    HW211675   6.244   4.983   1.462 -0.8974 -1.4889 -0.7201
 3607SOL     OW11676   1.614   7.700   3.058 -0.1975 -0.7657  0.0201
 3607SOL    HW111677   1.623   7.766   3.127 -1.9057  3.5349 -3.4359
 3607SOL    HW211678   1.704   7.679   3.033  0.4023 -0.4343  1.7385
 3608SOL     OW11679   7.923   6.874   4.313 -0.1775  0.6482  0.0038
 3608SOL    HW111680   7.998   6.928   4.340 -0.8235  0.8701  1.4554
 3608SOL    HW211681   7.958   6.785   4.310  0.2764  0.8166  0.1169
 3609SOL     OW11682   1.937   2.503   4.820  0.1982  0.0648  0.5577
 3609SOL    HW111683   1.961   2.569   4.756  0.6683 -0.4060  0.2346
 3609SOL    HW211684   1.916   2.552   4.900 -1.7485  0.7601 -0.3178
 3610SOL     OW11685   5.634   3.067   5.477 -0.0188  0.0517 -0.9399
 3610SOL    HW111686   5.582   3.114   5.412 -0.6037  1.4922  0.5024
 3610SOL    HW211687   5.723   3.070   5.442 -0.1369  1.7360 -1.2037
 3611SOL     OW11688   5.541   6.825   2.036 -0.0325 -0.2829 -0.1519
 3611SOL    HW111689   5.567   6.754   1.976  0.9600 -0.1142  0.0523
 3611SOL    HW211690   5.613   6.888   2.029 -0.5517  0.3534  0.2330
 3612SOL     OW11691   1.829   0.217   4.091 -0.5530  0.1377 -0.1655
 3612SOL    HW111692   1.844   0.290   4.031 -0.2870  0.2408  0.0285
 3612SOL    HW211693   1.766   0.161   4.044  0.5494 -0.3911 -1.0676
 3613SOL     OW11694   4.358   5.598   3.454 -0.2666 -0.0522  0.3147
 3613SOL    HW111695   4.421   5.601   3.526 -0.5637 -0.1874  0.5837
 3613SOL    HW211696   4.394   5.532   3.394 -0.9048 -1.2345  1.1902
 3614SOL     OW11697   1.185   2.659   7.689 -0.2324  0.4252  0.1798
 3614SOL    HW111698   1.127   2.602   7.739  1.2863 -0.9420  0.4768
 3614SOL    HW211699   1.160   2.748   7.714 -2.8060 -0.0392 -0.4500
 3615SOL     OW11700   2.982   5.463   4.070 -0.1341 -0.1750  0.3565
 3615SOL    HW111701   2.966   5.479   4.163  1.2684  0.4551  0.5166
 3615SOL    HW211702   2.898   5.477   4.028 -1.1686 -1.9902  1.7033
 3616SOL     OW11703   6.969   3.508   0.066  0.1638  0.1015  0.1279
 3616SOL    HW111704   6.978   3.603   0.067 -1.7755  0.3207 -0.2632
 3616SOL    HW211705   7.052   3.476   0.101  1.3753  1.8772 -0.9860
 3617SOL     OW11706   6.217   0.131   7.223  0.0170 -0.0475  0.8720
 3617SOL    HW111707   6.299   0.136   7.272  0.5258  0.8567 -0.0431
 3617SOL    HW211708   6.162   0.200   7.261  0.2147  0.3002  0.5303
 3618SOL     OW11709   2.395   2.962   6.079  0.2347  0.3744  0.5731
 3618SOL    HW111710   2.359   3.040   6.036  0.1503  0.0640  0.0715
 3618SOL    HW211711   2.325   2.897   6.071  1.2097 -0.5241 -1.2039
 3619SOL     OW11712   1.092   6.197   6.930  0.4398 -0.3920  0.0982
 3619SOL    HW111713   1.098   6.264   6.863  0.8101 -0.8643 -0.3529
 3619SOL    HW211714   1.107   6.243   7.013  1.7634 -0.0797 -0.2906
 3620SOL     OW11715   1.545   4.453   6.591 -0.8513 -0.3135 -0.7953
 3620SOL    HW111716   1.594   4.535   6.596 -0.1974 -0.6705 -1.2986
 3620SOL    HW211717   1.611   4.384   6.601 -0.9900 -0.8479 -3.0084
 3621SOL     OW11718   3.722   4.586   6.617 -0.6842  0.3927  0.1102
 3621SOL    HW111719   3.770   4.505   6.633 -0.7380  0.2138 -0.6232
 3621SOL    HW211720   3.694   4.615   6.705 -2.4930 -1.4877  0.2207
 3622SOL     OW11721   2.977   2.892   5.793  0.3904 -0.3346  0.3267
 3622SOL    HW111722   3.066   2.919   5.818  0.3368 -2.1330  2.9208
 3622SOL    HW211723   2.920   2.945   5.849 -0.1261  0.0584 -0.5630
 3623SOL     OW11724   4.321   2.549   4.796  0.3133  0.1442  0.5265
 3623SOL    HW111725   4.340   2.459   4.818  1.6524  0.2176 -0.2137
 3623SOL    HW211726   4.357   2.560   4.708 -1.9030  0.7526 -0.3973
 3624SOL     OW11727   7.069   4.782   3.121  0.5185 -0.0933 -0.2721
 3624SOL    HW111728   7.088   4.732   3.041  0.5090 -1.7307  0.7159
 3624SOL    HW211729   6.976   4.767   3.138  0.2889  1.0137 -0.4334
 3625SOL     OW11730   4.240   2.935   3.794 -0.2614 -0.0588  0.2207
 3625SOL    HW111731   4.207   2.904   3.878  0.5829 -0.4863  0.4102
 3625SOL    HW211732   4.330   2.901   3.790  0.1183  0.9669 -0.3168
 3626SOL     OW11733   6.549   6.564   7.884 -0.4423 -0.2361 -0.4745
 3626SOL    HW111734   6.603   6.633   7.921 -2.2049  0.7367  0.4506
 3626SOL    HW211735   6.592   6.483   7.911  0.5434  0.4835  0.2012
 3627SOL     OW11736   3.373   0.582   3.665  0.4614 -0.3154 -0.2140
 3627SOL    HW111737   3.468   0.585   3.648  0.2122 -2.0520 -2.4085
 3627SOL    HW211738   3.334   0.616   3.585 -0.8091  0.9470  0.9023
 3628SOL     OW11739   5.580   1.045   5.972  0.1805 -0.1236  0.2456
 3628SOL    HW111740   5.620   1.084   6.050  1.5858 -1.1660  0.0768
 3628SOL    HW211741   5.652   1.035   5.911 -0.7437 -0.1498 -0.8801
 3629SOL     OW11742   1.814   0.181   7.999  0.4581 -0.0966 -0.0150
 3629SOL    HW111743   1.818   0.213   8.089 -2.7196 -1.6173  0.8287
 3629SOL    HW211744   1.901   0.145   7.982  0.8864 -0.6481  2.8547
 3630SOL     OW11745   5.542   3.917   3.642 -0.3189  0.2331  0.7526
 3630SOL    HW111746   5.540   4.007   3.675  1.9388  1.0495 -1.0700
 3630SOL    HW211747   5.468   3.913   3.582 -2.7309 -0.4060  3.5280
 3631SOL     OW11748   0.565   4.662   2.881  0.7802 -0.0053 -0.3686
 3631SOL    HW111749   0.480   4.620   2.873  0.8618 -0.5556  1.2327
 3631SOL    HW211750   0.580   4.669   2.975  2.6311 -0.1617 -0.6065
 3632SOL     OW11751   5.456   1.836   2.914 -0.1369  0.2541 -0.2020
 3632SOL    HW111752   5.471   1.749   2.951 -2.2626  0.4055  1.2066
 3632SOL    HW211753   5.539   1.859   2.873  1.3284 -1.3264  1.6752
 3633SOL     OW11754   3.967   3.845   6.105  0.1443 -0.0433  0.7569
 3633SOL    HW111755   4.048   3.842   6.156  2.6262  0.5560 -2.7777
 3633SOL    HW211756   3.951   3.939   6.092 -1.2211 -0.1555  1.4885
 3634SOL     OW11757   4.439   2.166   4.054 -0.4492  0.3601  0.0727
 3634SOL    HW111758   4.452   2.254   4.090  1.7653 -0.1009  0.5355
 3634SOL    HW211759   4.466   2.174   3.962  0.2255  0.0534  0.2451
 3635SOL     OW11760   4.716   1.005   0.632  0.0425 -0.3257 -0.1163
 3635SOL    HW111761   4.719   1.099   0.649 -0.6672 -0.2433 -0.4417
 3635SOL    HW211762   4.671   0.997   0.548  1.6565 -0.8544 -0.9736
 3636SOL     OW11763   7.539   4.680   4.362 -0.2316  0.0515 -0.5120
 3636SOL    HW111764   7.515   4.589   4.378 -0.2986  0.0024 -0.8864
 3636SOL    HW211765   7.635   4.679   4.361 -0.2288  0.0189 -0.3435
 3637SOL     OW11766   5.431   5.569   1.577  0.0016 -0.7190 -0.4043
 3637SOL    HW111767   5.504   5.514   1.549 -1.6648 -2.0944 -2.2688
 3637SOL    HW211768   5.439   5.648   1.523  0.3792 -0.6525 -0.2551
 3638SOL     OW11769   5.360   7.163   7.551 -0.0901 -0.1205  0.2931
 3638SOL    HW111770   5.285   7.224   7.549 -1.9243 -2.2049  1.2140
 3638SOL    HW211771   5.329   7.087   7.502  1.1077 -1.3943  1.4626
 3639SOL     OW11772   0.326   3.628   1.493 -0.2759  0.0935 -0.0973
 3639SOL    HW111773   0.307   3.722   1.500  1.9284  0.5842  0.0024
 3639SOL    HW211774   0.419   3.624   1.473 -0.8028 -2.0404 -2.6207
 3640SOL     OW11775   5.155   2.354   2.413  0.0136  0.2359  0.3285
 3640SOL    HW111776   5.210   2.393   2.481 -0.9380  1.5612  0.3757
 3640SOL    HW211777   5.137   2.265   2.444 -1.0743  1.0645  2.2644
 3641SOL     OW11778   0.978   6.457   5.905 -0.6173 -0.2624  0.2484
 3641SOL    HW111779   1.043   6.416   5.847  0.4803  0.3969  0.9702
 3641SOL    HW211780   0.978   6.550   5.879 -0.9253 -0.1709  0.5698
 3642SOL     OW11781   4.450   5.709   5.461  0.3934  0.4502 -0.4113
 3642SOL    HW111782   4.455   5.804   5.457 -0.8366  0.5111 -1.4481
 3642SOL    HW211783   4.489   5.685   5.545  0.6498  1.8695 -0.1095
 3643SOL     OW11784   2.329   5.705   1.248  0.2213  0.9298  0.1619
 3643SOL    HW111785   2.317   5.780   1.189  0.1908  0.8218  0.0305
 3643SOL    HW211786   2.366   5.636   1.192 -3.1732 -0.4216 -0.6374
 3644SOL     OW11787   2.316   0.007   5.998  0.3236  0.3688  0.2900
 3644SOL    HW111788   2.238  -0.016   6.047 -0.2348  0.8580 -0.3519
 3644SOL    HW211789   2.388  -0.038   6.043 -0.0522  1.4657  2.0661
 3645SOL     OW11790   4.499   1.771   7.467  0.5337 -0.3164  0.3876
 3645SOL    HW111791   4.500   1.701   7.401  0.4873 -1.0041  1.0983
 3645SOL    HW211792   4.406   1.794   7.475  0.7365  1.3457 -1.3837
 3646SOL     OW11793   5.685   5.363   0.726  0.1432  0.3786 -0.1554
 3646SOL    HW111794   5.655   5.301   0.793 -0.7717  0.4861 -0.4546
 3646SOL    HW211795   5.633   5.342   0.649 -1.4401  2.6042  0.2254
 3647SOL     OW11796   0.307   3.115   5.511 -0.1517  0.1431 -0.2837
 3647SOL    HW111797   0.363   3.171   5.459  0.6188 -0.9891 -0.7022
 3647SOL    HW211798   0.218   3.146   5.493  0.1149 -0.0045 -2.0200
 3648SOL     OW11799   2.682   4.515   5.761 -0.5174 -0.1487 -0.5081
 3648SOL    HW111800   2.638   4.578   5.817 -0.2909 -0.6832  0.2901
 3648SOL    HW211801   2.703   4.442   5.819  2.0061  0.3570 -0.6756
 3649SOL     OW11802   6.101   5.210   1.043  0.1515  0.2424  0.5525
 3649SOL    HW111803   6.019   5.226   1.090  0.7985  0.6082  1.5933
 3649SOL    HW211804   6.132   5.127   1.077 -0.2940 -0.4272 -0.6147
 3650SOL     OW11805   2.602   4.659   4.616 -0.8041 -0.8180  0.2953
 3650SOL    HW111806   2.556   4.684   4.697 -0.4290 -1.6331  0.7660
 3650SOL    HW211807   2.681   4.615   4.646 -1.3470 -2.4047 -0.4947
 3651SOL     OW11808   0.015   7.251   6.748 -0.4672  0.2427 -0.3687
 3651SOL    HW111809   0.006   7.158   6.725 -0.8868 -0.1180  1.1780
 3651SOL    HW211810   0.107   7.261   6.771 -0.7415 -0.1899  1.0210
 3652SOL     OW11811   6.035   1.034   7.898 -0.1022 -0.1446 -0.0049
 3652SOL    HW111812   6.072   0.947   7.890  0.9800  0.3419 -0.5505
 3652SOL    HW211813   6.108   1.089   7.928 -0.9901  0.4081  1.2293
 3653SOL     OW11814   1.992   7.402   1.511 -0.3768  0.5600 -0.0700
 3653SOL    HW111815   1.937   7.332   1.477  0.6915  0.3835 -1.5648
 3653SOL    HW211816   1.935   7.478   1.514 -1.1963 -0.0571  0.2831
 3654SOL     OW11817   5.173   2.477   4.398 -0.6701 -0.3662  0.0428
 3654SOL    HW111818   5.091   2.433   4.423 -0.5411 -1.9800 -2.0541
 3654SOL    HW211819   5.149   2.569   4.390 -1.7665 -0.4927  1.4507
 3655SOL     OW11820   1.595   2.662   5.515  0.0167 -0.1291 -0.2880
 3655SOL    HW111821   1.656   2.622   5.577  0.2784 -0.6621 -0.8835
 3655SOL    HW211822   1.523   2.693   5.570  0.8053  0.5015  0.4259
 3656SOL     OW11823   7.851   1.284   3.395  0.3614  0.3028  0.3713
 3656SOL    HW111824   7.765   1.244   3.382  0.7552 -0.1989 -0.8606
 3656SOL    HW211825   7.837   1.377   3.377 -0.0280  0.3094  0.6914
 3657SOL     OW11826   3.272   3.405   6.429 -0.1674  0.7069  0.1640
 3657SOL    HW111827   3.323   3.409   6.509 -0.7370 -1.6923  0.7276
 3657SOL    HW211828   3.181   3.412   6.458 -0.3219  2.1301 -0.5487
 3658SOL     OW11829   5.923   1.074   1.792 -0.0108  0.0280 -0.1683
 3658SOL    HW111830   6.017   1.090   1.792 -0.2353  1.4762 -0.4707
 3658SOL    HW211831   5.885   1.152   1.750 -1.3455 -0.4913  0.0143
 3659SOL     OW11832   2.124   0.091   1.213  0.2547  0.1010  0.0942
 3659SOL    HW111833   2.156   0.059   1.129 -1.3851  1.7764 -1.2429
 3659SOL    HW211834   2.101   0.011   1.261  1.0432 -0.8801 -1.0984
 3660SOL     OW11835   3.651   2.720   1.337  0.1465 -0.0431  0.2333
 3660SOL    HW111836   3.745   2.735   1.328  0.1579 -0.1338  0.1999
 3660SOL    HW211837   3.624   2.681   1.254  0.0877 -0.0560  0.2583
 3661SOL     OW11838   7.757   2.384   6.971  0.1762 -0.0834  0.2018
 3661SOL    HW111839   7.711   2.308   6.936  3.6392 -2.2180 -0.1547
 3661SOL    HW211840   7.806   2.419   6.897  1.3643  0.2723  1.1238
 3662SOL     OW11841   7.132   5.559   6.825  0.3436 -0.0533 -0.1675
 3662SOL    HW111842   7.132   5.480   6.771 -2.6344 -0.2948  0.0213
 3662SOL    HW211843   7.103   5.629   6.766  1.8758  0.7292 -0.0495
 3663SOL     OW11844   2.757   1.537   2.888  0.9865  0.4727  0.4946
 3663SOL    HW111845   2.706   1.464   2.854  1.9492  0.4031 -0.8842
 3663SOL    HW211846   2.731   1.544   2.980 -0.2644 -0.5964  0.2485
 3664SOL     OW11847   6.828   3.015   5.093  0.0084 -0.3250 -0.0023
 3664SOL    HW111848   6.734   3.032   5.087  0.2731  0.6654 -2.1074
 3664SOL    HW211849   6.837   2.922   5.073 -0.5054 -0.4373  0.2637
 3665SOL     OW11850   7.038   4.240   6.457 -0.1882 -0.6142 -0.7031
 3665SOL    HW111851   7.019   4.326   6.493 -0.1025 -1.7231  2.3050
 3665SOL    HW211852   6.952   4.203   6.438 -0.1869  0.8700 -4.2658
 3666SOL     OW11853   1.695   7.879   6.101  0.2296 -0.1540  0.2941
 3666SOL    HW111854   1.627   7.927   6.054  0.8726 -0.1123 -0.6166
 3666SOL    HW211855   1.735   7.823   6.035  2.6518  1.5360  0.2187
 3667SOL     OW11856   3.316   1.472   0.054  0.5103 -0.1490 -0.2740
 3667SOL    HW111857   3.275   1.442   0.135  0.3867  2.7823  0.8628
 3667SOL    HW211858   3.246   1.470  -0.011  0.1667 -0.9237  0.1095
 3668SOL     OW11859   0.019   0.789   4.776 -0.7746  0.4186 -0.1897
 3668SOL    HW111860   0.091   0.757   4.722 -0.2213  0.4450  0.5166
 3668SOL    HW211861  -0.049   0.814   4.713  0.3309  1.6284 -0.9598
 3669SOL     OW11862   2.477   6.457   7.326  0.5641 -0.4350  0.8299
 3669SOL    HW111863   2.391   6.418   7.341 -0.1076  0.8015  0.3466
 3669SOL    HW211864   2.539   6.386   7.343 -0.5257 -1.2401  1.5545
 3670SOL     OW11865   1.616   4.729   0.223 -0.8913  0.2605 -0.0338
 3670SOL    HW111866   1.607   4.812   0.269 -0.6635  0.9581 -1.2037
 3670SOL    HW211867   1.551   4.672   0.263  0.6732  0.1604  2.5560
 3671SOL     OW11868   1.596   4.958   4.614 -0.0984  0.0335 -0.0105
 3671SOL    HW111869   1.575   4.912   4.695 -2.8283 -1.2669 -1.3351
 3671SOL    HW211870   1.633   4.891   4.556  1.2252  0.8093 -0.1303
 3672SOL     OW11871   7.171   6.366   2.299  0.2618 -0.4340  0.7798
 3672SOL    HW111872   7.145   6.393   2.387 -1.6566  0.6578 -0.0603
 3672SOL    HW211873   7.266   6.374   2.298  0.1043  2.8180  1.7406
 3673SOL     OW11874   4.419   4.951   2.488  0.3385  0.0918  0.5301
 3673SOL    HW111875   4.339   4.902   2.466  0.6409  0.4329 -1.4791
 3673SOL    HW211876   4.439   4.923   2.577 -1.2911 -0.9977  0.6134
 3674SOL     OW11877   5.235   2.810   2.659 -0.1233 -0.7712 -0.4972
 3674SOL    HW111878   5.330   2.814   2.674  0.1794  2.7409 -2.2657
 3674SOL    HW211879   5.197   2.838   2.742  0.5625  0.3804 -0.5480
 3675SOL     OW11880   1.970   0.799   3.162 -0.1903  0.0244  0.2969
 3675SOL    HW111881   1.990   0.834   3.076 -1.5555 -0.9776 -0.4613
 3675SOL    HW211882   2.055   0.785   3.203  0.5559 -0.9988 -1.4949
 3676SOL     OW11883   1.105   6.755   0.400 -0.0459 -0.6682  0.5211
 3676SOL    HW111884   1.136   6.701   0.327  0.5163 -0.2267  0.4286
 3676SOL    HW211885   1.010   6.752   0.393  0.0031  0.1228 -0.7976
 3677SOL     OW11886   4.876   1.386   4.920  1.0184  0.4427  0.0621
 3677SOL    HW111887   4.941   1.383   4.850  0.1805  0.9397 -0.7451
 3677SOL    HW211888   4.900   1.313   4.977  2.2039  0.5308 -0.2882
 3678SOL     OW11889   2.891   3.383   7.757 -0.1186 -0.0269 -0.2481
 3678SOL    HW111890   2.836   3.388   7.679 -1.1840 -0.6585  0.4409
 3678SOL    HW211891   2.980   3.388   7.724 -0.5662  0.2497 -1.4591
 3679SOL     OW11892   3.737   3.470   7.595  0.1535 -0.0201  0.3985
 3679SOL    HW111893   3.655   3.427   7.572  0.1832  0.7402 -1.2672
 3679SOL    HW211894   3.715   3.563   7.602  0.6033  0.0310  1.4060
 3680SOL     OW11895   6.928   2.553   2.255  0.1311  0.3763 -0.0412
 3680SOL    HW111896   6.921   2.577   2.163 -0.4268 -0.8333 -0.3374
 3680SOL    HW211897   6.885   2.468   2.260  1.6655 -0.3614  1.0206
 3681SOL     OW11898   0.286   7.013   5.453  0.7524  0.2253  0.2448
 3681SOL    HW111899   0.281   6.920   5.474  0.3282  0.4213  1.0509
 3681SOL    HW211900   0.195   7.040   5.442  0.7824  0.8136  1.3008
 3682SOL     OW11901   3.788   4.466   0.952 -0.2297  0.8919 -0.0011
 3682SOL    HW111902   3.856   4.531   0.935  1.4417 -0.2148  1.9265
 3682SOL    HW211903   3.770   4.428   0.866  2.8192  0.1305 -0.4311
 3683SOL     OW11904   0.739   6.286   5.080 -0.2437 -0.8247 -0.5250
 3683SOL    HW111905   0.789   6.321   5.007  0.0991 -0.7838 -0.2705
 3683SOL    HW211906   0.648   6.290   5.050 -0.1806 -0.0604 -0.6395
 3684SOL     OW11907   1.548   6.840   7.227 -0.0428 -0.2577 -0.0606
 3684SOL    HW111908   1.618   6.886   7.272  0.1832 -0.3716 -0.2972
 3684SOL    HW211909   1.511   6.905   7.167 -0.6284  0.0264  0.5886
 3685SOL     OW11910   3.054   7.488   7.617  0.0434  0.0448  0.1640
 3685SOL    HW111911   3.058   7.562   7.556  2.1759  1.4136  1.8350
 3685SOL    HW211912   3.113   7.423   7.579 -1.7575 -0.8478 -1.2571
 3686SOL     OW11913   2.887   5.834   3.569 -0.0897 -0.0393  0.2821
 3686SOL    HW111914   2.841   5.755   3.599  0.2704 -0.8976 -1.3067
 3686SOL    HW211915   2.967   5.801   3.529  0.8278  1.2812  0.9504
 3687SOL     OW11916   3.260   4.048   1.145 -0.3764  0.2538  0.1595
 3687SOL    HW111917   3.305   4.035   1.062 -0.0991  1.5401  0.0828
 3687SOL    HW211918   3.169   4.028   1.126 -0.3792  0.8705 -0.5709
 3688SOL     OW11919   4.470   3.675   0.351 -0.6884 -0.5628 -0.1163
 3688SOL    HW111920   4.383   3.636   0.356 -1.5100  1.2336  0.3450
 3688SOL    HW211921   4.459   3.764   0.386  1.2550 -0.1733 -0.3684
 3689SOL     OW11922   7.411   6.458   5.867  0.0020 -0.2402  0.4465
 3689SOL    HW111923   7.497   6.439   5.828 -0.7918 -1.1606 -0.9182
 3689SOL    HW211924   7.373   6.372   5.884 -1.8489  0.0598 -1.7092
 3690SOL     OW11925   2.884   3.939   6.353  0.3077 -0.0673  0.2022
 3690SOL    HW111926   2.808   3.958   6.299  0.6886  0.4297 -0.1766
 3690SOL    HW211927   2.957   3.936   6.291  0.5002 -1.2353  0.4657
 3691SOL     OW11928   1.098   2.303   2.968 -0.9122  0.0382  0.5732
 3691SOL    HW111929   1.139   2.256   2.895  0.2411 -0.5983  1.5846
 3691SOL    HW211930   1.162   2.370   2.992 -0.6788 -0.5899  1.7996
 3692SOL     OW11931   3.669   0.461   0.594 -0.2417 -0.4946 -0.0151
 3692SOL    HW111932   3.721   0.529   0.551  0.8525 -1.0179  0.4589
 3692SOL    HW211933   3.645   0.401   0.523 -1.1081  0.2921 -0.4138
 3693SOL     OW11934   7.824   0.948   4.984 -0.2672 -1.0481 -0.3810
 3693SOL    HW111935   7.820   0.927   4.891  3.6089 -2.2317 -0.4616
 3693SOL    HW211936   7.828   0.863   5.028 -2.0890 -0.5028  0.9317
 3694SOL     OW11937   4.182   7.625   0.077  0.3743  0.5571  0.5246
 3694SOL    HW111938   4.219   7.536   0.080 -0.3718  0.2321  0.5429
 3694SOL    HW211939   4.100   7.614   0.028  0.3542  1.2695  0.3985
 3695SOL     OW11940   5.638   5.198   5.715  0.5250 -0.6822  0.3416
 3695SOL    HW111941   5.658   5.105   5.717  1.2222 -0.6209 -1.4644
 3695SOL    HW211942   5.567   5.210   5.779 -0.0997 -2.5737  0.0470
 3696SOL     OW11943   4.971   1.471   3.545 -0.1071  0.0411 -0.2397
 3696SOL    HW111944   4.897   1.526   3.522 -0.5829 -0.9116 -1.0724
 3696SOL    HW211945   4.937   1.382   3.543  0.0172 -0.2477  3.4953
 3697SOL     OW11946   2.839   0.191   6.245  0.3110  0.2591 -0.3675
 3697SOL    HW111947   2.772   0.218   6.309  0.0389  0.5625 -0.7728
 3697SOL    HW211948   2.877   0.112   6.282 -2.2418 -1.6243 -1.4668
 3698SOL     OW11949   7.711   1.769   3.425  0.0954  0.0135 -0.3576
 3698SOL    HW111950   7.631   1.737   3.467  0.2108  0.5661  0.3123
 3698SOL    HW211951   7.758   1.813   3.496 -0.8585  3.2069 -1.5239
 3699SOL     OW11952   5.448   7.311   1.416  0.8839  0.1379  0.0202
 3699SOL    HW111953   5.451   7.253   1.339  1.3818  1.2452 -0.8272
 3699SOL    HW211954   5.488   7.260   1.486 -0.2139 -1.1575 -0.2547
 3700SOL     OW11955   5.787   5.638   7.093 -0.3474 -0.2845 -0.3426
 3700SOL    HW111956   5.759   5.548   7.110 -0.7022  0.0814  1.1638
 3700SOL    HW211957   5.707   5.683   7.066 -0.4612 -0.1284  0.2276
 3701SOL     OW11958   4.361   3.076   6.364 -0.5318  0.4692  0.1773
 3701SOL    HW111959   4.334   3.166   6.380  1.5168  1.2052 -0.1460
 3701SOL    HW211960   4.345   3.062   6.271  0.0844  0.8634  0.0081
 3702SOL     OW11961   7.874   4.796   7.656  0.3507 -0.1227 -0.0863
 3702SOL    HW111962   7.926   4.781   7.735  1.7829  1.8584 -0.5762
 3702SOL    HW211963   7.929   4.763   7.585 -0.0326  0.0102 -0.4444
 3703SOL     OW11964   5.099   7.966   3.457  0.0024 -0.1796  0.2896
 3703SOL    HW111965   5.059   7.884   3.428  0.1056 -0.2248  0.2772
 3703SOL    HW211966   5.163   7.940   3.523 -0.5242 -0.0404  0.8606
 3704SOL     OW11967   0.420   0.050   7.284 -0.0401  0.2651  0.1296
 3704SOL    HW111968   0.469  -0.018   7.331 -1.7872 -1.8157 -0.9012
 3704SOL    HW211969   0.384   0.105   7.354  1.2392  0.0303  1.0063
 3705SOL     OW11970   0.588   3.489   4.984  0.0992 -0.3038  0.2178
 3705SOL    HW111971   0.615   3.474   4.894  0.0761 -1.5406  0.3961
 3705SOL    HW211972   0.494   3.470   4.984 -0.3819  1.8903  0.0459
 3706SOL     OW11973   5.808   1.039   5.798 -0.3135  0.8379  0.0216
 3706SOL    HW111974   5.836   1.111   5.743  0.9543  0.6113  0.3289
 3706SOL    HW211975   5.887   1.015   5.847 -0.8695 -0.3374  0.3738
 3707SOL     OW11976   3.900   7.546   1.366  0.5975  0.0313 -0.3961
 3707SOL    HW111977   3.856   7.612   1.419 -0.7063 -2.5122  1.9406
 3707SOL    HW211978   3.840   7.531   1.292 -0.1408 -0.0416  0.2074
 3708SOL     OW11979   5.749   0.211   7.765 -0.0426 -0.2678  0.1804
 3708SOL    HW111980   5.736   0.123   7.730 -0.5380  0.0030 -0.3381
 3708SOL    HW211981   5.677   0.224   7.826 -0.0202 -0.1850  0.1894
 3709SOL     OW11982   0.148   6.401   2.531  0.7523  0.0210 -0.1958
 3709SOL    HW111983   0.091   6.411   2.608 -0.8622  0.1272 -1.3443
 3709SOL    HW211984   0.169   6.308   2.529  0.8476  0.0248  0.3983
 3710SOL     OW11985   4.052   4.518   2.321 -0.0091 -0.1292 -0.3611
 3710SOL    HW111986   4.127   4.547   2.268  0.9779 -1.7673  0.0746
 3710SOL    HW211987   3.987   4.490   2.256  1.6839 -3.3932 -0.8724
 3711SOL     OW11988   5.887   2.019   0.028  0.4128  0.0417  0.4435
 3711SOL    HW111989   5.874   1.932   0.067 -1.2688  0.2577  0.4093
 3711SOL    HW211990   5.917   2.002  -0.061  0.6149 -0.4876  0.6099
 3712SOL     OW11991   0.050   1.672   0.224  0.0441  0.1578 -0.3385
 3712SOL    HW111992   0.144   1.655   0.223 -0.1186 -1.2458 -3.5218
 3712SOL    HW211993   0.039   1.750   0.169 -0.7365 -0.8612 -1.6901
 3713SOL     OW11994   5.724   1.661   1.798 -0.1441  0.0124 -0.2727
 3713SOL    HW111995   5.715   1.715   1.877 -2.2540  3.1610 -2.4530
 3713SOL    HW211996   5.635   1.653   1.764  0.7709 -0.5897 -2.7499
 3714SOL     OW11997   2.692   6.316   3.583  0.0728 -0.0224 -0.0455
 3714SOL    HW111998   2.760   6.249   3.573 -0.7000 -0.8008 -0.2978
 3714SOL    HW211999   2.737   6.392   3.618  0.8963 -0.8495  0.7559
 3715SOL     OW12000   4.525   6.337   7.147 -0.2383  0.9077  0.6461
 3715SOL    HW112001   4.501   6.310   7.059  1.2365 -0.4568  0.6078
 3715SOL    HW212002   4.616   6.367   7.139 -0.2339  1.1860  1.6124
 3716SOL     OW12003   0.927   0.281   3.340 -0.0965 -0.4149 -0.4449
 3716SOL    HW112004   0.978   0.291   3.260 -0.1714  0.3705 -0.4040
 3716SOL    HW212005   0.989   0.244   3.403  0.3217  0.1546 -0.5116
 3717SOL     OW12006   2.055   5.143   6.832  0.1994  0.1630  0.3580
 3717SOL    HW112007   1.990   5.210   6.807 -0.0519  0.0359  0.6654
 3717SOL    HW212008   2.068   5.156   6.926  0.0247 -0.3281  0.4532
 3718SOL     OW12009   3.295   4.011   0.099 -0.5633  0.2893  0.2157
 3718SOL    HW112010   3.204   4.004   0.070 -0.2033 -0.3747 -0.8049
 3718SOL    HW212011   3.314   4.105   0.098 -1.0753  0.3921 -0.0849
 3719SOL     OW12012   2.677   7.434   1.978  0.6810  0.2074 -0.1045
 3719SOL    HW112013   2.644   7.518   1.944  1.8949  0.2242 -1.3738
 3719SOL    HW212014   2.681   7.447   2.073 -1.7740  0.5742  0.0161
 3720SOL     OW12015   6.991   4.174   4.289 -0.3573  0.5703  0.1535
 3720SOL    HW112016   6.935   4.110   4.334 -0.9074  1.9017  1.4669
 3720SOL    HW212017   7.061   4.191   4.352  0.1330  0.7820 -0.4523
 3721SOL     OW12018   1.517   4.309   0.776 -0.5788  0.6070 -0.6423
 3721SOL    HW112019   1.487   4.327   0.865 -0.1685 -1.7339  0.0515
 3721SOL    HW212020   1.444   4.334   0.720 -1.8347 -0.2116  0.5813
 3722SOL     OW12021   6.670   1.602   5.851 -0.1523 -0.3674 -0.2695
 3722SOL    HW112022   6.680   1.507   5.842 -0.1300 -0.4311  0.3771
 3722SOL    HW212023   6.583   1.620   5.814 -0.8617 -0.8771  1.0793
 3723SOL     OW12024   1.080   4.851   5.661  0.2003  0.2091 -0.4108
 3723SOL    HW112025   1.089   4.779   5.724  0.8522 -2.2581 -3.0913
 3723SOL    HW212026   1.165   4.895   5.664  0.9460 -1.1353 -0.9067
 3724SOL     OW12027   7.328   4.571   5.313 -0.7636  0.0390  0.2444
 3724SOL    HW112028   7.334   4.624   5.233 -0.2162  0.9516  0.8830
 3724SOL    HW212029   7.235   4.551   5.320 -0.8108 -0.1112 -0.6622
 3725SOL     OW12030   7.358   5.550   6.068 -0.2133  0.1837  0.3033
 3725SOL    HW112031   7.419   5.478   6.084 -0.7278 -0.3675 -0.1911
 3725SOL    HW212032   7.381   5.615   6.134 -0.5347 -0.9314  1.5659
 3726SOL     OW12033   7.855   1.729   2.096 -0.2541 -0.2176 -0.8377
 3726SOL    HW112034   7.919   1.744   2.027  0.2814  0.8242 -0.1469
 3726SOL    HW212035   7.877   1.643   2.132 -1.2909 -1.3305 -2.7065
 3727SOL     OW12036   6.313   3.501   1.905  0.0881 -0.0187 -0.0752
 3727SOL    HW112037   6.398   3.545   1.909 -0.1147  0.3297  2.4000
 3727SOL    HW212038   6.308   3.452   1.987 -2.0250 -0.1474 -0.2211
 3728SOL     OW12039   1.000   7.291   7.525  0.3685  0.2059  0.2389
 3728SOL    HW112040   0.960   7.302   7.439  1.4881  1.2428 -0.1618
 3728SOL    HW212041   1.086   7.254   7.507  0.3067 -0.3171  0.9765
 3729SOL     OW12042   7.759   2.632   5.717 -0.7315  0.5217  0.7000
 3729SOL    HW112043   7.700   2.579   5.770 -1.4149 -0.5312 -1.0370
 3729SOL    HW212044   7.820   2.671   5.780 -0.6475 -1.7569  2.1284
 3730SOL     OW12045   6.208   4.080   1.813 -0.1173 -0.0591 -0.6767
 3730SOL    HW112046   6.185   4.000   1.766 -0.2140  0.2865 -1.2216
 3730SOL    HW212047   6.259   4.049   1.888 -2.4623 -0.8651  0.6710
 3731SOL     OW12048   3.584   3.626   2.802  0.4735 -0.1049 -0.1436
 3731SOL    HW112049   3.610   3.537   2.779 -0.9307 -0.1100 -1.9630
 3731SOL    HW212050   3.651   3.681   2.761 -0.2045 -0.2628 -1.5429
 3732SOL     OW12051   3.793   5.864   2.395  0.0718 -0.2735 -0.4760
 3732SOL    HW112052   3.848   5.942   2.394  0.0714 -0.2735 -0.7065
 3732SOL    HW212053   3.704   5.898   2.385  0.0299 -0.2734 -0.1047
 3733SOL     OW12054   2.858   0.262   0.655  0.2707  0.1689 -0.6326
 3733SOL    HW112055   2.851   0.270   0.750 -0.3656  1.0564 -0.7394
 3733SOL    HW212056   2.844   0.169   0.637 -0.8440  0.1901  0.0397
 3734SOL     OW12057   2.001   5.948   3.875 -0.4720 -0.0531 -0.2885
 3734SOL    HW112058   2.005   6.015   3.807 -1.4990  1.3786  0.9767
 3734SOL    HW212059   2.039   5.991   3.953  1.0474 -1.7677 -0.0028
 3735SOL     OW12060   4.128   7.091   3.343 -0.1253 -0.1049 -0.1984
 3735SOL    HW112061   4.093   7.047   3.420  1.1511  1.0697  1.1054
 3735SOL    HW212062   4.160   7.020   3.287 -1.7392 -1.0167 -0.0464
 3736SOL     OW12063   6.138   3.507   3.979 -0.0878 -0.2725  0.3899
 3736SOL    HW112064   6.098   3.527   4.063  2.6791  1.0206  1.5348
 3736SOL    HW212065   6.222   3.554   3.980 -0.2444  0.4658 -3.4255
 3737SOL     OW12066   0.815   1.500   5.771  0.3750  0.0881 -0.0367
 3737SOL    HW112067   0.784   1.568   5.830  1.4286 -1.1239  2.0295
 3737SOL    HW212068   0.910   1.499   5.783  0.3475 -2.0842  0.4539
 3738SOL     OW12069   2.299   4.554   5.129  0.0883 -0.2345 -0.1973
 3738SOL    HW112070   2.386   4.518   5.147  0.8104  1.5512  0.0001
 3738SOL    HW212071   2.240   4.492   5.172  1.2599 -1.2971 -0.0350
 3739SOL     OW12072   2.235   2.309   2.490  0.6108 -0.3768  0.2712
 3739SOL    HW112073   2.242   2.324   2.395  0.9356 -1.0804  0.1797
 3739SOL    HW212074   2.301   2.243   2.509  1.6002  0.8488  1.2553
 3740SOL     OW12075   1.207   1.774   1.960  0.3083  0.2607 -0.2739
 3740SOL    HW112076   1.208   1.678   1.965 -0.9205  0.2052 -0.6686
 3740SOL    HW212077   1.133   1.800   2.015 -0.8524  0.8203 -2.0159
 3741SOL     OW12078   0.038   4.139   7.713  0.2743 -0.1368 -0.1022
 3741SOL    HW112079   0.126   4.101   7.704  0.1279 -0.3872 -0.4715
 3741SOL    HW212080   0.054   4.233   7.720  0.5370 -0.1250 -0.7530
 3742SOL     OW12081   4.346   5.766   6.258  0.5633  0.4410  0.1321
 3742SOL    HW112082   4.303   5.680   6.252 -0.2395  0.8893 -0.7702
 3742SOL    HW212083   4.290   5.817   6.317  1.6591  0.0132  1.6012
 3743SOL     OW12084   1.432   3.052   1.796  0.6008  0.2166 -0.2082
 3743SOL    HW112085   1.384   3.005   1.863 -0.1365 -1.0063 -1.5431
 3743SOL    HW212086   1.467   2.984   1.738  3.2156  1.0847  0.1814
 3744SOL     OW12087   3.420   1.807   0.558  0.6237  0.3505  0.1461
 3744SOL    HW112088   3.437   1.720   0.522  0.2834  0.9733 -1.6432
 3744SOL    HW212089   3.389   1.791   0.647  4.1925 -1.1565  1.2933
 3745SOL     OW12090   3.914   7.708   6.724 -0.0564  0.0480  0.3305
 3745SOL    HW112091   3.871   7.670   6.801  0.8019  0.5231  1.0648
 3745SOL    HW212092   4.004   7.676   6.729 -0.3620 -1.2712 -1.4092
 3746SOL     OW12093   7.063   6.061   5.546 -0.5866  0.4671 -0.2144
 3746SOL    HW112094   7.099   5.973   5.550 -2.9017 -0.5825 -1.0556
 3746SOL    HW212095   7.137   6.118   5.566  1.1735 -1.6041 -0.5077
 3747SOL     OW12096   7.357   4.361   0.630  0.5747  0.6083 -0.1028
 3747SOL    HW112097   7.284   4.305   0.601  1.3245 -0.1540 -0.5653
 3747SOL    HW212098   7.316   4.423   0.690 -0.2442 -0.6720  0.7281
 3748SOL     OW12099   1.970   4.463   7.103  0.0945  0.0539  0.0703
 3748SOL    HW112100   1.946   4.554   7.088 -1.4963 -0.5170 -1.1920
 3748SOL    HW212101   2.057   4.454   7.064 -0.3521  0.6962 -1.1134
 3749SOL     OW12102   4.617   6.309   4.774  0.6170 -0.0999 -0.5082
 3749SOL    HW112103   4.674   6.245   4.732  0.1916 -0.2952 -0.7780
 3749SOL    HW212104   4.584   6.265   4.852  0.9907  0.0843 -0.2402
 3750SOL     OW12105   5.915   4.848   5.610  0.2114  0.3797 -0.5484
 3750SOL    HW112106   5.923   4.944   5.608 -1.7548  0.5984 -2.0453
 3750SOL    HW212107   5.926   4.825   5.702 -1.3343  2.3282  0.2193
 3751SOL     OW12108   0.404   0.072   4.798 -0.0942  0.1156 -0.6159
 3751SOL    HW112109   0.460   0.003   4.833  0.3751  1.2263  0.9356
 3751SOL    HW212110   0.354   0.030   4.728  2.6108 -0.9729 -2.0781
 3752SOL     OW12111   2.328   3.614   5.156 -0.4083 -0.4050 -0.2891
 3752SOL    HW112112   2.379   3.692   5.180 -2.4177  0.9638 -0.2323
 3752SOL    HW212113   2.379   3.573   5.086  0.7084  0.9659 -0.3298
 3753SOL     OW12114   5.242   6.652   2.274  0.0488  0.0961  0.6636
 3753SOL    HW112115   5.162   6.623   2.231  0.6288 -2.0330  0.8751
 3753SOL    HW212116   5.215   6.723   2.331 -1.0459  1.8851 -1.8865
 3754SOL     OW12117   0.490   4.595   5.720 -0.2893  0.5153 -0.1990
 3754SOL    HW112118   0.472   4.641   5.638  1.1192  0.9614 -0.2793
 3754SOL    HW212119   0.530   4.512   5.693  1.3744  1.2133  0.0411
 3755SOL     OW12120   5.565   3.387   7.049  0.0952  0.1794  0.0778
 3755SOL    HW112121   5.640   3.355   7.098  0.7051  2.3187  0.6223
 3755SOL    HW212122   5.593   3.384   6.957 -0.3320 -1.9411 -0.0357
 3756SOL     OW12123   7.947   4.764   5.188 -0.5247  0.3122  0.1100
 3756SOL    HW112124   7.860   4.749   5.153 -0.3010  0.1529 -0.3936
 3756SOL    HW212125   7.980   4.676   5.207 -0.8577  0.4259  1.2655
 3757SOL     OW12126   3.649   2.649   7.615  0.1529  0.1769 -0.2212
 3757SOL    HW112127   3.693   2.567   7.636 -2.0941 -1.1703 -0.4870
 3757SOL    HW212128   3.712   2.717   7.638  1.7495 -1.5903  0.8310
 3758SOL     OW12129   1.098   6.873   7.358 -0.2475  0.3643 -0.2355
 3758SOL    HW112130   1.076   6.841   7.271  0.8986 -0.3568 -0.2891
 3758SOL    HW212131   1.014   6.891   7.400 -0.8215  0.2215 -1.3032
 3759SOL     OW12132   1.123   5.642   6.708  0.0610 -0.3794 -0.2530
 3759SOL    HW112133   1.053   5.626   6.644 -0.7327  1.1116  0.1766
 3759SOL    HW212134   1.193   5.582   6.683 -1.2999 -1.8267 -0.7988
 3760SOL     OW12135   2.647   6.217   6.346 -0.0992 -0.4005 -0.3299
 3760SOL    HW112136   2.739   6.235   6.370 -0.4192  0.1502  0.5339
 3760SOL    HW212137   2.596   6.260   6.415 -1.0069 -0.8644 -0.7037
 3761SOL     OW12138   2.488   3.385   7.748 -0.4344  0.0833 -0.3649
 3761SOL    HW112139   2.539   3.312   7.782  0.2846  0.2049 -1.1338
 3761SOL    HW212140   2.443   3.421   7.824  2.1532  1.1804  0.7617
 3762SOL     OW12141   0.314   5.322   4.978  0.1235 -0.1562  0.2528
 3762SOL    HW112142   0.249   5.288   5.038 -0.3572 -0.5320 -0.4680
 3762SOL    HW212143   0.349   5.245   4.933 -1.4317  0.2673 -1.8526
 3763SOL     OW12144   3.587   2.216   7.426 -0.0552  0.0353 -0.1096
 3763SOL    HW112145   3.645   2.161   7.373  0.3507 -1.0279  1.3665
 3763SOL    HW212146   3.637   2.297   7.440 -1.3709  1.6616 -3.8049
 3764SOL     OW12147   1.548   1.368   0.639  0.0648 -0.0574 -0.0597
 3764SOL    HW112148   1.564   1.462   0.625  2.8988 -0.1073  1.9787
 3764SOL    HW212149   1.582   1.351   0.727  1.3965 -3.3607 -1.0575
 3765SOL     OW12150   3.796   7.377   4.956  0.7031 -0.6119 -0.2784
 3765SOL    HW112151   3.758   7.429   5.027  0.8399 -0.5664 -0.2401
 3765SOL    HW212152   3.721   7.332   4.917  0.3999  0.5462 -1.0954
 3766SOL     OW12153   1.222   5.446   0.589  0.1221 -0.1816  0.1996
 3766SOL    HW112154   1.229   5.523   0.532  1.4816 -1.7766 -1.9461
 3766SOL    HW212155   1.137   5.408   0.568  0.7715 -0.9678 -1.1131
 3767SOL     OW12156   4.670   6.973   5.710  0.2161  0.3614 -0.2647
 3767SOL    HW112157   4.577   6.951   5.717  0.4576 -0.3836  1.1255
 3767SOL    HW212158   4.715   6.896   5.747  1.4098  0.5009 -1.3640
 3768SOL     OW12159   1.295   2.940   1.358 -0.1171  0.4563 -0.2295
 3768SOL    HW112160   1.363   2.879   1.386 -1.7180 -1.3035 -0.0292
 3768SOL    HW212161   1.331   3.027   1.379  0.8219 -0.5377  2.7539
 3769SOL     OW12162   4.065   7.003   1.957  0.2301  0.2092  0.4567
 3769SOL    HW112163   4.128   6.962   1.896 -1.3060 -1.3712 -0.1714
 3769SOL    HW212164   3.997   7.039   1.900 -1.4380 -1.6304  1.1689
 3770SOL     OW12165   3.906   5.401   2.356 -0.0363  0.1039  0.0185
 3770SOL    HW112166   3.891   5.479   2.409  1.5060  0.7099 -0.3675
 3770SOL    HW212167   3.996   5.411   2.325 -0.0439 -1.5099 -0.5900
 3771SOL     OW12168   7.917   7.314   1.313 -0.9211 -0.1752 -0.5373
 3771SOL    HW112169   7.865   7.269   1.246 -0.4596 -2.1952  0.3655
 3771SOL    HW212170   7.853   7.336   1.381 -0.7103 -2.8546  0.6710
 3772SOL     OW12171   5.838   6.868   4.342  0.8296  0.2600  0.1353
 3772SOL    HW112172   5.852   6.961   4.360  1.5922  0.2824 -0.5327
 3772SOL    HW212173   5.743   6.859   4.335  0.5928  0.6173  2.1547
 3773SOL     OW12174   7.151   0.485   1.454  0.3887 -0.1357  0.0896
 3773SOL    HW112175   7.080   0.433   1.490  0.7091 -0.7260 -0.1190
 3773SOL    HW212176   7.121   0.576   1.461  0.5563 -0.1898  2.1034
 3774SOL     OW12177   7.294   7.580   7.874 -0.1395 -0.6326 -0.3967
 3774SOL    HW112178   7.315   7.616   7.788  1.3851  0.9377  0.5690
 3774SOL    HW212179   7.358   7.510   7.887 -0.5108 -1.0192 -0.6004
 3775SOL     OW12180   5.570   0.846   2.884 -0.1536 -0.3206 -0.1495
 3775SOL    HW112181   5.496   0.847   2.823  0.6982 -0.8036 -1.2144
 3775SOL    HW212182   5.648   0.848   2.828  0.6500  0.0175  0.9500
 3776SOL     OW12183   4.226   0.798   7.861  0.0532 -0.0162 -0.6899
 3776SOL    HW112184   4.250   0.888   7.881 -0.3568 -0.1253  0.3718
 3776SOL    HW212185   4.131   0.797   7.862  0.0263 -0.1851 -2.0506
 3777SOL     OW12186   4.574   1.172   0.195 -0.3162  0.5201 -0.0340
 3777SOL    HW112187   4.642   1.228   0.232  0.4687 -0.9202  0.8273
 3777SOL    HW212188   4.615   1.132   0.118  0.2738 -1.1823  1.0941
 3778SOL     OW12189   3.071   2.854   7.833 -0.2446 -0.1905  0.2887
 3778SOL    HW112190   3.022   2.776   7.808  0.4652 -1.0435  1.4605
 3778SOL    HW212191   3.097   2.838   7.924  0.2456  1.2441  0.4266
 3779SOL     OW12192   0.166   7.643   1.252 -0.1590 -0.4826  0.2759
 3779SOL    HW112193   0.126   7.660   1.337  2.4879 -2.3224  2.0186
 3779SOL    HW212194   0.198   7.729   1.223  1.1955 -0.1951  2.4199
 3780SOL     OW12195   4.234   7.388   0.650 -0.2613  0.0946  0.0819
 3780SOL    HW112196   4.257   7.368   0.559 -1.6093  0.6445 -0.4011
 3780SOL    HW212197   4.260   7.479   0.662 -1.0734  0.3494 -0.0889
 3781SOL     OW12198   4.467   6.606   0.493 -0.5417 -0.3925 -0.4156
 3781SOL    HW112199   4.464   6.521   0.451  0.1239 -1.0966  0.8951
 3781SOL    HW212200   4.379   6.617   0.530 -0.3061 -1.0401  0.3728
 3782SOL     OW12201   5.486   6.186   7.763  0.2067 -0.1648  0.1712
 3782SOL    HW112202   5.476   6.127   7.688  1.5307  0.8216 -0.8406
 3782SOL    HW212203   5.478   6.130   7.840 -0.5267 -1.3132 -0.7177
 3783SOL     OW12204   2.218   3.858   5.482 -0.5062  0.2842 -0.0163
 3783SOL    HW112205   2.229   3.945   5.521 -0.5007 -0.1114  0.8940
 3783SOL    HW212206   2.288   3.853   5.416 -0.8646  1.1794 -0.4816
 3784SOL     OW12207   6.406   6.203   5.883  0.5264 -1.0862 -0.0077
 3784SOL    HW112208   6.501   6.204   5.871  0.7599 -1.0157  1.6450
 3784SOL    HW212209   6.383   6.110   5.880  0.0924 -1.0201 -3.8127
 3785SOL     OW12210   7.007   6.685   1.787  0.3534 -0.7092  0.5555
 3785SOL    HW112211   7.011   6.646   1.700  0.5383 -2.0113  1.1191
 3785SOL    HW212212   7.079   6.748   1.788  0.0317 -0.3095 -0.3922
 3786SOL     OW12213   7.346   2.585   3.277 -0.4579 -0.8048 -0.1496
 3786SOL    HW112214   7.279   2.619   3.336  0.3921 -0.9731  0.9657
 3786SOL    HW212215   7.359   2.655   3.212  0.5643  0.6644  1.5255
 3787SOL     OW12216   3.119   4.473   1.868  0.5889 -0.0085  0.1442
 3787SOL    HW112217   3.104   4.538   1.937  2.8267  0.0618  0.6300
 3787SOL    HW212218   3.125   4.390   1.916 -1.6625 -0.5672 -0.4138
 3788SOL     OW12219   1.678   6.193   3.461 -0.2491 -0.6524 -0.0356
 3788SOL    HW112220   1.728   6.112   3.471 -1.7005 -1.7837 -1.3360
 3788SOL    HW212221   1.610   6.171   3.397  0.4611  2.1323 -1.9389
 3789SOL     OW12222   4.396   4.768   3.931  0.2460 -0.5692  0.3394
 3789SOL    HW112223   4.441   4.718   3.999  1.1361 -0.4019 -0.1141
 3789SOL    HW212224   4.354   4.840   3.977  0.3657 -0.7817  0.7803
 3790SOL     OW12225   1.685   7.758   0.893 -0.2412 -0.3648 -0.0012
 3790SOL    HW112226   1.657   7.810   0.818  0.1175 -1.5184 -0.9795
 3790SOL    HW212227   1.759   7.805   0.930  0.2386 -0.2909 -1.0212
 3791SOL     OW12228   2.557   2.359   2.368  0.1024 -0.4206 -0.2659
 3791SOL    HW112229   2.537   2.284   2.425  1.0445 -0.3264  0.1964
 3791SOL    HW212230   2.648   2.346   2.343  0.5517  1.0252  0.5255
 3792SOL     OW12231   4.270   6.794   2.620  0.1057  0.2887  0.4394
 3792SOL    HW112232   4.194   6.814   2.565  1.2558  1.1110 -0.9151
 3792SOL    HW212233   4.266   6.699   2.632 -1.1825  0.3334  0.4840
 3793SOL     OW12234   4.723   7.169   6.277 -0.2072 -0.5089  0.0157
 3793SOL    HW112235   4.756   7.081   6.263  4.0258  0.9771 -0.6169
 3793SOL    HW212236   4.775   7.203   6.350 -0.4212  2.0117 -0.8945
 3794SOL     OW12237   5.790   4.575   4.019 -0.1642 -0.3620 -0.5207
 3794SOL    HW112238   5.819   4.660   3.986 -0.4010 -0.3675 -0.7499
 3794SOL    HW212239   5.865   4.517   4.006  0.1318 -0.0997 -0.0095
 3795SOL     OW12240   7.922   1.781   5.022  0.1541 -0.0100 -0.1238
 3795SOL    HW112241   7.990   1.843   5.047 -0.4573  1.2896 -1.5221
 3795SOL    HW212242   7.957   1.696   5.047  1.1912  0.8466  1.4729
 3796SOL     OW12243   1.530   0.130   5.523 -0.3978 -0.3497  0.1709
 3796SOL    HW112244   1.601   0.154   5.464  0.1171 -2.0253  0.0510
 3796SOL    HW212245   1.513   0.038   5.503 -0.5756 -0.8185  2.2700
 3797SOL     OW12246   6.627   5.730   5.289 -0.4746  0.1431  0.2188
 3797SOL    HW112247   6.547   5.735   5.341 -1.4681 -0.6148 -1.1659
 3797SOL    HW212248   6.698   5.725   5.353 -1.6443 -0.7703  1.4987
 3798SOL     OW12249   0.489   4.071   1.937 -0.2407  0.6017 -0.3085
 3798SOL    HW112250   0.410   4.105   1.979 -0.9227 -0.9418 -0.2619
 3798SOL    HW212251   0.459   4.038   1.852  0.1413 -0.8131  0.0780
 3799SOL     OW12252   1.416   3.713   3.422  0.3076 -0.4471  0.3198
 3799SOL    HW112253   1.420   3.726   3.327 -1.1729 -1.8135  0.0264
 3799SOL    HW212254   1.326   3.734   3.446  0.4972 -0.7226  1.3277
 3800SOL     OW12255   3.479   3.728   7.845 -0.0576 -0.2508 -0.0720
 3800SOL    HW112256   3.444   3.783   7.915  1.6325  0.5074  0.2191
 3800SOL    HW212257   3.431   3.645   7.853 -2.3873  0.9927 -0.2729
 3801SOL     OW12258   0.183   2.997   4.138 -0.9057 -0.0005  0.3628
 3801SOL    HW112259   0.267   2.951   4.142 -1.1316 -0.4393  0.1404
 3801SOL    HW212260   0.147   2.976   4.052 -0.8056  0.9777  0.0695
 3802SOL     OW12261   0.559   3.154   2.245  0.5821  0.0315  0.3201
 3802SOL    HW112262   0.538   3.177   2.155  0.4931  1.3859  0.6544
 3802SOL    HW212263   0.618   3.224   2.274  0.9232 -0.5948  1.1937
 3803SOL     OW12264   5.333   7.315   6.865  0.5832  0.3824 -0.4429
 3803SOL    HW112265   5.424   7.313   6.836  0.9563  1.2925  0.5981
 3803SOL    HW212266   5.291   7.242   6.819  2.2063 -1.1151  0.3502
 3804SOL     OW12267   2.632   2.256   3.719 -0.0381 -0.3903 -0.6672
 3804SOL    HW112268   2.637   2.177   3.773 -0.3341 -0.5507 -0.8744
 3804SOL    HW212269   2.541   2.260   3.690 -0.7626  1.5221  1.5689
 3805SOL     OW12270   6.596   2.183   6.888 -0.1114  0.3600  0.0402
 3805SOL    HW112271   6.571   2.092   6.905 -0.7380  0.7917  1.6049
 3805SOL    HW212272   6.533   2.235   6.937  1.3704  1.5946  0.7394
 3806SOL     OW12273   3.119   3.402   2.225  0.2551  0.4136 -0.0198
 3806SOL    HW112274   3.039   3.453   2.212 -0.8134 -1.2651 -0.2466
 3806SOL    HW212275   3.166   3.409   2.142  1.0085  2.4222  0.5078
 3807SOL     OW12276   7.521   7.171   0.146  0.6914 -0.2029  0.7388
 3807SOL    HW112277   7.472   7.102   0.102  1.1919 -0.1068  0.0306
 3807SOL    HW212278   7.457   7.209   0.207 -0.0732 -0.2055 -0.0382
 3808SOL     OW12279   0.884   5.755   3.063  0.1137  0.3982 -0.1332
 3808SOL    HW112280   0.916   5.725   2.978 -0.3577 -0.1818 -0.1059
 3808SOL    HW212281   0.952   5.816   3.093 -0.3025  1.6208 -1.4968
 3809SOL     OW12282   5.643   3.006   7.382 -0.3554  0.4040  0.4536
 3809SOL    HW112283   5.562   3.052   7.360 -0.4243  0.4812  0.8651
 3809SOL    HW212284   5.642   2.928   7.327 -0.2065  0.9243 -0.2947
 3810SOL     OW12285   5.482   6.015   5.164  0.3687  1.0005  0.1119
 3810SOL    HW112286   5.430   6.038   5.087  0.1659  1.7403  0.4556
 3810SOL    HW212287   5.534   6.093   5.181  1.4528  0.3451 -0.1003
 3811SOL     OW12288   0.925   0.846   1.350 -1.0088  0.2921 -0.2392
 3811SOL    HW112289   0.842   0.847   1.302 -0.9394 -0.7372 -0.3933
 3811SOL    HW212290   0.905   0.889   1.433 -1.6173  0.3387 -0.4067
 3812SOL     OW12291   6.804   2.885   7.909 -0.3526 -0.0017  0.1306
 3812SOL    HW112292   6.832   2.830   7.983  0.0805  0.0054 -0.0254
 3812SOL    HW212293   6.722   2.845   7.880 -0.9748  0.4956  1.1461
 3813SOL     OW12294   0.532   1.028   2.461 -0.0598  0.4723  0.3457
 3813SOL    HW112295   0.476   1.074   2.523  1.7137  0.9501  1.6664
 3813SOL    HW212296   0.526   0.936   2.487 -0.4797  0.4693  0.2507
 3814SOL     OW12297   3.831   7.597   6.957  0.1840 -0.5549  0.2547
 3814SOL    HW112298   3.915   7.634   6.984  0.5298 -2.3448  1.8782
 3814SOL    HW212299   3.783   7.586   7.038 -1.3562 -0.2403 -0.5834
 3815SOL     OW12300   3.651   3.951   2.387  0.1080  0.2950 -0.1566
 3815SOL    HW112301   3.648   3.930   2.293  0.3043  1.3485 -0.4067
 3815SOL    HW212302   3.743   3.970   2.404 -0.1797  1.7614 -0.1318
 3816SOL     OW12303   3.849   3.709   2.171  0.1934  0.3917  0.3374
 3816SOL    HW112304   3.876   3.761   2.096  0.3800 -0.0053  0.1251
 3816SOL    HW212305   3.929   3.693   2.221  0.2456 -0.2050  0.0735
 3817SOL     OW12306   6.026   6.511   1.209 -0.3898 -0.1216  0.6027
 3817SOL    HW112307   6.064   6.592   1.175  1.0320 -1.1432 -0.3453
 3817SOL    HW212308   6.097   6.448   1.207 -0.9163 -0.9273  3.1950
 3818SOL     OW12309   1.036   3.091   2.293 -0.1550 -0.3619  0.0305
 3818SOL    HW112310   1.078   3.154   2.235  0.0137 -1.4206 -1.0419
 3818SOL    HW212311   0.953   3.131   2.317 -0.6947 -0.3223 -1.7787
 3819SOL     OW12312   6.209   6.652   6.171  0.3521  0.2004 -0.1104
 3819SOL    HW112313   6.285   6.643   6.229  0.5896  1.7608 -0.1219
 3819SOL    HW212314   6.237   6.715   6.105 -1.2888  1.6924  0.5360
 3820SOL     OW12315   0.290   5.411   7.250 -0.3353  0.1234  0.2412
 3820SOL    HW112316   0.226   5.430   7.181 -0.6818  1.3109  0.8694
 3820SOL    HW212317   0.237   5.381   7.324  0.0223 -0.9671  0.0827
 3821SOL     OW12318   7.380   1.745   3.819  0.5727  0.1914 -0.3966
 3821SOL    HW112319   7.351   1.674   3.876 -0.3852  0.3079 -0.7178
 3821SOL    HW212320   7.326   1.820   3.845  1.3233  0.7125 -0.3025
 3822SOL     OW12321   0.778   1.292   6.341 -0.1875 -0.2869 -0.0412
 3822SOL    HW112322   0.689   1.257   6.337  0.3991 -2.0263  0.9060
 3822SOL    HW212323   0.819   1.259   6.261 -0.0285 -0.5845  0.1629
 3823SOL     OW12324   0.767   6.207   4.611  0.7992  0.7742  0.4092
 3823SOL    HW112325   0.703   6.230   4.678  1.5760  1.5375  0.9171
 3823SOL    HW212326   0.717   6.206   4.529  0.0929  1.1383  0.8253
 3824SOL     OW12327   0.400   2.459   5.197 -0.0365  0.2416  0.2278
 3824SOL    HW112328   0.338   2.459   5.124  0.5017 -0.4802 -0.2478
 3824SOL    HW212329   0.423   2.551   5.209  0.6423  0.2961 -1.2148
 3825SOL     OW12330   7.603   5.088   3.579  0.2108  0.1954  0.6241
 3825SOL    HW112331   7.552   5.069   3.501  0.9423  0.3081  0.1111
 3825SOL    HW212332   7.667   5.154   3.551  0.7014 -0.0146  1.2194
 3826SOL     OW12333   4.845   6.114   6.523  0.3617 -0.3112  0.3229
 3826SOL    HW112334   4.908   6.104   6.595  1.1056 -0.0112 -0.2631
 3826SOL    HW212335   4.894   6.088   6.445  0.2408  1.3432 -0.3421
 3827SOL     OW12336   3.276   2.039   3.458 -0.0850 -0.5444 -0.2038
 3827SOL    HW112337   3.288   2.088   3.540  0.4096 -2.0827  0.6815
 3827SOL    HW212338   3.202   1.981   3.476 -0.2589 -0.5783 -1.0045
 3828SOL     OW12339   1.372   0.020   2.807 -0.2827  0.0332  0.7360
 3828SOL    HW112340   1.457   0.057   2.782 -0.0773 -1.4853 -1.0494
 3828SOL    HW212341   1.312   0.052   2.740 -0.2373 -2.1610 -0.4463
 3829SOL     OW12342   5.009   6.060   0.979  0.0347  0.3579  0.1996
 3829SOL    HW112343   4.955   5.995   1.025 -0.4270  1.2814  0.9833
 3829SOL    HW212344   5.087   6.011   0.953  0.0233 -0.3540  1.4101
 3830SOL     OW12345   6.427   0.360   0.591  0.4793 -0.2653 -0.3047
 3830SOL    HW112346   6.418   0.335   0.499 -2.5634  0.5940 -0.3374
 3830SOL    HW212347   6.423   0.277   0.639 -1.2951 -0.5293 -0.8379
 3831SOL     OW12348   0.946   1.299   4.497 -0.5802 -0.0716 -0.4774
 3831SOL    HW112349   0.933   1.250   4.416 -1.8960  3.0126 -2.3174
 3831SOL    HW212350   0.970   1.387   4.468  0.2162  0.8343  2.5569
 3832SOL     OW12351   2.260   2.164   0.625  0.0528 -0.1013 -0.0276
 3832SOL    HW112352   2.225   2.217   0.696  0.1877 -0.8838  0.6394
 3832SOL    HW212353   2.263   2.075   0.660 -1.2779 -0.7790 -1.5228
 3833SOL     OW12354   6.346   7.432   0.619 -0.0145 -0.2899  0.3107
 3833SOL    HW112355   6.372   7.516   0.658  1.8952 -0.1543 -1.1065
 3833SOL    HW212356   6.354   7.446   0.525  0.3900 -2.0692  0.0475
 3834SOL     OW12357   6.645   4.095   1.345  0.1030  0.1047 -0.4741
 3834SOL    HW112358   6.716   4.139   1.392  0.8868  0.5636 -2.0212
 3834SOL    HW212359   6.638   4.009   1.386  1.0215  0.3519  0.2232
 3835SOL     OW12360   7.590   0.253   4.602  0.0690 -0.0432 -0.0512
 3835SOL    HW112361   7.582   0.247   4.698  0.9580  2.1916  0.2198
 3835SOL    HW212362   7.679   0.223   4.584  0.3299  0.6948 -0.0228
 3836SOL     OW12363   7.317   2.967   0.576  0.8761  0.1422 -0.3495
 3836SOL    HW112364   7.356   2.971   0.489  3.1576  1.6132  0.6338
 3836SOL    HW212365   7.391   2.976   0.636 -0.7514  0.4842  1.7402
 3837SOL     OW12366   0.676   3.201   3.540 -0.3243 -0.1356 -0.6641
 3837SOL    HW112367   0.615   3.128   3.549 -0.3760 -0.0947 -0.6856
 3837SOL    HW212368   0.750   3.177   3.597 -0.5181 -0.0178 -0.3600
 3838SOL     OW12369   4.451   4.745   3.313 -0.1524 -0.1630 -0.2252
 3838SOL    HW112370   4.451   4.747   3.409 -0.2648  0.1854 -0.2308
 3838SOL    HW212371   4.400   4.823   3.287 -1.3259 -1.0123 -0.5511
 3839SOL     OW12372   4.466   7.152   6.336 -0.7525 -0.2374  0.2924
 3839SOL    HW112373   4.559   7.161   6.312 -0.9073 -1.3953 -0.8695
 3839SOL    HW212374   4.432   7.089   6.273 -2.7326  1.3650 -0.3528
 3840SOL     OW12375   3.505   6.401   3.880  0.1685  0.0728  0.2542
 3840SOL    HW112376   3.581   6.357   3.842 -0.4652 -0.0010 -0.9590
 3840SOL    HW212377   3.433   6.338   3.872 -0.7812  1.2958 -1.6310
 3841SOL     OW12378   5.766   7.955   3.194  0.5567 -0.0141 -0.2571
 3841SOL    HW112379   5.674   7.969   3.216  0.8222 -0.2252  1.1152
 3841SOL    HW212380   5.799   8.041   3.172 -0.0869 -0.0165 -1.3308
 3842SOL     OW12381   5.834   2.967   1.453 -0.2777 -0.1630  0.6053
 3842SOL    HW112382   5.780   2.895   1.487  1.3026 -1.4593  0.5057
 3842SOL    HW212383   5.806   2.975   1.361 -0.3146 -0.8265  0.5484
 3843SOL     OW12384   3.620   6.199   4.893  0.1616 -0.7814  0.1577
 3843SOL    HW112385   3.565   6.243   4.828 -2.7861  0.4666  3.1586
 3843SOL    HW212386   3.604   6.106   4.879 -0.5263 -0.5397 -0.8168
 3844SOL     OW12387   3.307   1.304   6.933  0.3161  0.1582  0.2620
 3844SOL    HW112388   3.395   1.336   6.909  0.3706  0.7430  1.1668
 3844SOL    HW212389   3.252   1.382   6.928 -0.1302 -0.1836 -0.1706
 3845SOL     OW12390   0.067   4.764   5.554 -0.3260 -0.1682  0.0421
 3845SOL    HW112391   0.133   4.785   5.620  0.8174 -1.9360 -0.4668
 3845SOL    HW212392   0.116   4.760   5.472 -1.0326 -1.6749 -0.3250
 3846SOL     OW12393   6.741   5.070   6.144  0.6781  0.4393 -0.2600
 3846SOL    HW112394   6.690   5.128   6.202 -1.0746 -0.9319 -0.3612
 3846SOL    HW212395   6.820   5.049   6.194 -0.4568 -0.1220  1.3661
 3847SOL     OW12396   1.432   5.886   7.322 -0.4704 -0.3600 -0.5794
 3847SOL    HW112397   1.398   5.964   7.278 -0.4726 -0.8033 -1.3628
 3847SOL    HW212398   1.416   5.814   7.261  1.0406 -0.7222 -0.5911
 3848SOL     OW12399   3.927   4.472   4.739 -0.0351  0.4452 -0.1994
 3848SOL    HW112400   3.928   4.376   4.735  0.5355  0.4534 -0.3411
 3848SOL    HW212401   3.855   4.497   4.682 -0.1856  0.0977 -0.1659
 3849SOL     OW12402   1.362   7.222   7.234  0.5895 -0.1530  0.7347
 3849SOL    HW112403   1.286   7.274   7.209  0.0959 -0.7576  0.9445
 3849SOL    HW212404   1.429   7.286   7.257 -0.4970  0.4138  2.4887
 3850SOL     OW12405   0.148   0.242   7.065 -0.1261  0.0585  0.2644
 3850SOL    HW112406   0.079   0.251   7.131 -2.2362  0.9103 -1.9246
 3850SOL    HW212407   0.102   0.241   6.982  2.5019  0.0370 -1.3000
 3851SOL     OW12408   0.260   7.278   6.098  0.4075  0.2598 -0.3378
 3851SOL    HW112409   0.266   7.218   6.024  2.1836 -0.5934  0.4372
 3851SOL    HW212410   0.260   7.365   6.060  0.7388 -0.1765 -1.3492
 3852SOL     OW12411   2.570   7.389   5.023  0.3387  0.6077  0.2791
 3852SOL    HW112412   2.527   7.457   5.075 -2.6226 -0.2872 -0.7808
 3852SOL    HW212413   2.651   7.429   4.992 -0.8303  3.2953  0.4765
 3853SOL     OW12414   5.461   0.130   1.764 -0.5965  0.0876  0.1622
 3853SOL    HW112415   5.528   0.070   1.732 -0.0598 -0.0863  1.5310
 3853SOL    HW212416   5.501   0.172   1.841 -2.5880 -1.1929  2.0107
 3854SOL     OW12417   7.129   5.881   6.252  0.5176 -0.0790 -0.2801
 3854SOL    HW112418   7.113   5.796   6.292  0.6196  0.0949  0.1372
 3854SOL    HW212419   7.051   5.932   6.272  0.8982  0.2554  0.3671
 3855SOL     OW12420   0.385   7.582   7.495  0.9744  0.5804 -0.5867
 3855SOL    HW112421   0.390   7.647   7.565  2.5252  0.6102 -0.6842
 3855SOL    HW212422   0.297   7.592   7.459  0.3164  0.8849  1.0296
 3856SOL     OW12423   3.777   2.949   4.178 -0.6169  0.2609 -0.3307
 3856SOL    HW112424   3.783   2.967   4.272 -1.0682 -1.9443  0.1783
 3856SOL    HW212425   3.866   2.961   4.146 -0.3154  0.3727  0.5161
 3857SOL     OW12426   4.047   1.556   5.216  0.2047 -0.0239 -0.8561
 3857SOL    HW112427   4.033   1.465   5.193  0.6245 -0.3890  0.2503
 3857SOL    HW212428   4.046   1.603   5.133 -1.7828 -0.7767 -1.3131
 3858SOL     OW12429   7.567   3.689   7.158 -0.2775 -0.4012 -0.5811
 3858SOL    HW112430   7.634   3.757   7.150  0.3381 -0.8938  0.1703
 3858SOL    HW212431   7.517   3.695   7.077 -0.3471  1.0494 -0.4459
 3859SOL     OW12432   6.318   5.724   2.287  0.4413 -0.2807 -0.1995
 3859SOL    HW112433   6.343   5.644   2.332  3.1323  0.0435 -0.9249
 3859SOL    HW212434   6.354   5.794   2.341  0.3767  0.2891 -0.8781
 3860SOL     OW12435   4.210   3.641   0.412 -0.1559  0.0704  0.1198
 3860SOL    HW112436   4.176   3.699   0.343 -0.2965  0.7002  0.7055
 3860SOL    HW212437   4.150   3.567   0.413  0.7699 -0.7506 -1.5355
 3861SOL     OW12438   6.255   4.027   3.308  0.5692  0.0283  0.5487
 3861SOL    HW112439   6.280   4.004   3.397 -0.7304 -0.6631  0.7685
 3861SOL    HW212440   6.223   3.945   3.270 -0.5183  0.6648  0.0328
 3862SOL     OW12441   2.176   3.101   1.792 -0.4038 -0.2864  0.0602
 3862SOL    HW112442   2.116   3.120   1.863  0.7813  1.1293  0.7455
 3862SOL    HW212443   2.169   3.177   1.734  1.3777  0.4127  0.6726
 3863SOL     OW12444   4.834   2.517   7.818 -0.2470  0.1828 -0.1910
 3863SOL    HW112445   4.887   2.567   7.880 -0.3846  1.0904 -0.7909
 3863SOL    HW212446   4.762   2.482   7.871  0.6249 -0.6166  0.5224
 3864SOL     OW12447   6.656   7.101   0.050 -0.0739 -0.1165  0.5538
 3864SOL    HW112448   6.630   7.086   0.141  1.1279 -1.5197  0.7022
 3864SOL    HW212449   6.603   7.039  -0.001 -0.4268  0.3548  0.3466
 3865SOL     OW12450   1.828   6.785   5.650 -0.2259  0.0822  0.5540
 3865SOL    HW112451   1.908   6.744   5.683 -0.6083  0.4572  1.9751
 3865SOL    HW212452   1.809   6.736   5.569  2.0361  0.7286 -0.4616
 3866SOL     OW12453   7.772   0.441   7.414  0.3347  0.0748  0.1461
 3866SOL    HW112454   7.697   0.464   7.469 -0.3436  1.4767 -1.2833
 3866SOL    HW212455   7.816   0.525   7.398  1.3636 -0.5206 -0.2727
 3867SOL     OW12456   1.408   4.729   2.329 -0.5049  0.0090  0.3074
 3867SOL    HW112457   1.381   4.787   2.400  2.5855 -0.7685  2.3071
 3867SOL    HW212458   1.444   4.788   2.262  1.5224  0.5891  1.8131
 3868SOL     OW12459   7.023   1.656   4.791 -0.2998  0.1057  0.2555
 3868SOL    HW112460   7.086   1.728   4.788  2.5801 -2.1119  2.1884
 3868SOL    HW212461   7.062   1.587   4.737 -0.2556 -1.8253  2.5538
 3869SOL     OW12462   3.331   4.620   2.460  0.0357 -0.3273 -1.1677
 3869SOL    HW112463   3.331   4.665   2.376  2.8502 -0.1822 -1.1869
 3869SOL    HW212464   3.239   4.611   2.483 -0.7379  2.5709 -2.6899
 3870SOL     OW12465   7.721   4.969   7.525  0.1657 -0.1509 -0.5777
 3870SOL    HW112466   7.760   4.896   7.573 -0.3619  0.0105  0.1067
 3870SOL    HW212467   7.681   4.927   7.448  0.6043 -0.4673 -0.6423
 3871SOL     OW12468   7.285   1.878   0.852  0.2697 -0.1218 -0.1618
 3871SOL    HW112469   7.376   1.892   0.878  1.0249 -2.7585 -1.0536
 3871SOL    HW212470   7.273   1.933   0.775  1.6602 -0.9169 -0.9852
 3872SOL     OW12471   5.184   6.602   6.278 -0.4121 -0.3739  0.0267
 3872SOL    HW112472   5.259   6.606   6.337 -0.5959  0.0690  0.2357
 3872SOL    HW212473   5.151   6.513   6.286  1.7759 -1.5176 -2.1755
 3873SOL     OW12474   2.721   6.413   0.459  0.0755 -0.4530  0.2243
 3873SOL    HW112475   2.650   6.360   0.495  0.3537 -0.7047  0.4031
 3873SOL    HW212476   2.780   6.350   0.417 -0.0732 -0.1929 -0.3806
 3874SOL     OW12477   2.419   0.995   6.432 -0.4970 -0.1767 -0.2923
 3874SOL    HW112478   2.511   0.989   6.458 -0.4977 -2.2807 -0.5395
 3874SOL    HW212479   2.379   1.051   6.498  0.9429  0.7414 -0.1508
 3875SOL     OW12480   4.800   1.578   6.969  0.1089 -0.1813 -0.6734
 3875SOL    HW112481   4.741   1.624   7.029 -2.4015 -0.9064 -2.3874
 3875SOL    HW212482   4.854   1.523   7.025 -0.4887  0.9202  1.0590
 3876SOL     OW12483   7.145   7.428   4.763 -0.7206  0.5202  0.2088
 3876SOL    HW112484   7.168   7.418   4.671 -1.0187 -1.3933  0.3176
 3876SOL    HW212485   7.095   7.350   4.785  0.8148  0.0491  2.4305
 3877SOL     OW12486   6.903   2.688   2.004  0.5095 -0.1705 -0.3651
 3877SOL    HW112487   6.873   2.669   1.915  0.5396  2.0903 -0.9230
 3877SOL    HW212488   6.898   2.784   2.011  3.3738 -0.0158  1.0365
 3878SOL     OW12489   0.483   7.329   0.678  0.2086  0.1387 -0.1222
 3878SOL    HW112490   0.557   7.386   0.698  1.3965 -0.5475 -2.1763
 3878SOL    HW212491   0.465   7.345   0.585 -1.1150 -0.9770 -0.0977
 3879SOL     OW12492   6.818   7.652   6.606 -0.4733  0.3944 -0.3886
 3879SOL    HW112493   6.732   7.648   6.646  0.3338 -1.2168  1.3613
 3879SOL    HW212494   6.877   7.613   6.671  1.6079  1.5413 -1.4553
 3880SOL     OW12495   7.781   2.700   7.184 -0.2904 -0.0054 -0.3148
 3880SOL    HW112496   7.802   2.611   7.212  1.2630  0.0113 -1.3038
 3880SOL    HW212497   7.780   2.751   7.265  1.3212 -0.4708  0.0359
 3881SOL     OW12498   1.202   0.263   7.359 -0.1020 -0.6737  0.2417
 3881SOL    HW112499   1.280   0.227   7.402  0.1803  0.6728  0.9254
 3881SOL    HW212500   1.137   0.268   7.429 -0.0123  0.4434  0.2712
 3882SOL     OW12501   1.738   7.922   7.711  0.2100  0.0440 -0.5822
 3882SOL    HW112502   1.681   7.956   7.779 -0.6797  0.7458 -1.6389
 3882SOL    HW212503   1.781   7.846   7.751 -0.0275  0.6303  0.8423
 3883SOL     OW12504   5.692   3.655   1.684 -0.3176  0.0273  0.3800
 3883SOL    HW112505   5.607   3.684   1.649 -0.8084  0.5293  1.8820
 3883SOL    HW212506   5.721   3.729   1.737  0.9626 -0.2424  0.0761
 3884SOL     OW12507   7.075   6.901   0.088  0.1389 -0.1739 -0.6690
 3884SOL    HW112508   6.993   6.890   0.136 -0.0810 -0.4220 -1.0971
 3884SOL    HW212509   7.086   6.996   0.081 -0.1543 -0.1407 -0.6850
 3885SOL     OW12510   6.125   1.386   1.884 -0.0390 -0.1596  0.5191
 3885SOL    HW112511   6.202   1.421   1.928  0.8683  0.5540 -1.4980
 3885SOL    HW212512   6.151   1.297   1.857  1.2061  0.9528 -2.4585
 3886SOL     OW12513   2.099   0.225   5.102 -0.1207 -0.8004  0.1475
 3886SOL    HW112514   2.162   0.246   5.033 -1.2523 -1.2137 -1.0430
 3886SOL    HW212515   2.036   0.166   5.061 -0.5145 -1.5326  1.6975
 3887SOL     OW12516   3.522   2.961   5.240  0.0290 -0.6044  0.2086
 3887SOL    HW112517   3.432   2.959   5.273 -0.9948  2.6393 -1.9451
 3887SOL    HW212518   3.574   2.989   5.316 -1.5671  2.1597  0.4368
 3888SOL     OW12519   0.131   4.918   5.275 -0.1341 -0.2944 -0.1438
 3888SOL    HW112520   0.067   4.866   5.225  2.7388 -1.5097 -2.9133
 3888SOL    HW212521   0.205   4.858   5.288  2.5895  2.4384 -1.8411
 3889SOL     OW12522   6.147   7.086   4.506 -0.3138 -0.4525  0.0868
 3889SOL    HW112523   6.088   7.156   4.481 -0.9796 -0.3031  1.9776
 3889SOL    HW212524   6.201   7.071   4.428  0.2508  2.5379 -0.1955
 3890SOL     OW12525   2.033   6.032   4.311  0.4584 -0.1287 -0.3914
 3890SOL    HW112526   2.071   6.037   4.223 -2.4168  0.9402 -1.6982
 3890SOL    HW212527   2.041   6.121   4.345  2.0145 -0.6517  0.7054
 3891SOL     OW12528   5.773   5.701   2.485  0.8071  0.3791 -0.3087
 3891SOL    HW112529   5.818   5.782   2.509 -0.2475  0.4201  1.7822
 3891SOL    HW212530   5.821   5.632   2.532 -0.2348  0.2228  0.5567
 3892SOL     OW12531   4.238   3.166   5.838 -0.1039  0.7072 -0.3495
 3892SOL    HW112532   4.287   3.247   5.822 -3.2351  2.4757 -1.9623
 3892SOL    HW212533   4.227   3.163   5.933  4.6718 -0.9467  0.3845
 3893SOL     OW12534   2.204   1.922   5.142 -0.1076  0.5601  0.0940
 3893SOL    HW112535   2.111   1.906   5.123 -0.4471  0.3823  1.7670
 3893SOL    HW212536   2.207   2.014   5.170  0.2926  0.6911 -0.3828
 3894SOL     OW12537   2.665   4.362   0.884 -0.2721  0.5190 -0.2244
 3894SOL    HW112538   2.667   4.267   0.868  1.7505  0.4356  0.3002
 3894SOL    HW212539   2.753   4.383   0.914 -1.1215  2.3247  1.1795
 3895SOL     OW12540   1.476   0.778   6.587 -0.0406  0.7061  0.0324
 3895SOL    HW112541   1.391   0.735   6.592  0.3661 -0.0369  0.8385
 3895SOL    HW212542   1.477   0.840   6.661  0.0781  0.7953 -0.0423
 3896SOL     OW12543   2.975   4.900   2.422 -0.2773 -0.4175 -0.6517
 3896SOL    HW112544   2.919   4.856   2.358  1.8519 -1.0551 -2.1813
 3896SOL    HW212545   2.983   4.838   2.494 -1.8734 -0.1106 -0.1631
 3897SOL     OW12546   2.294   1.131   1.274 -0.2656 -0.4832 -0.0782
 3897SOL    HW112547   2.218   1.105   1.221 -0.7617  0.6091  0.0870
 3897SOL    HW212548   2.261   1.201   1.331  0.7599 -0.3016  0.3041
 3898SOL     OW12549   6.981   1.201   2.407  0.2559  0.3759  0.5584
 3898SOL    HW112550   7.072   1.183   2.433  0.4644  1.3228  0.5463
 3898SOL    HW212551   6.955   1.275   2.462 -0.5882 -0.0320  0.7131
 3899SOL     OW12552   1.643   1.735   5.298 -0.0246 -0.0219  0.3180
 3899SOL    HW112553   1.552   1.764   5.303 -0.2041 -0.2973 -0.9556
 3899SOL    HW212554   1.638   1.652   5.249  0.9014 -0.0809  0.3216
 3900SOL     OW12555   6.094   5.301   6.402 -0.0951 -0.1207  0.2836
 3900SOL    HW112556   6.027   5.357   6.364 -1.8666  0.1837  3.4798
 3900SOL    HW212557   6.048   5.219   6.422  0.6623 -0.2174  1.7789
 3901SOL     OW12558   4.759   4.337   6.384  0.3529  0.1029  0.0395
 3901SOL    HW112559   4.778   4.424   6.349  1.3286 -0.4697 -0.9155
 3901SOL    HW212560   4.807   4.277   6.326 -0.3046 -1.0692  0.6790
 3902SOL     OW12561   4.543   5.848   3.576 -0.0859 -0.1424 -0.2243
 3902SOL    HW112562   4.515   5.844   3.485 -1.4319  0.5558  0.1238
 3902SOL    HW212563   4.532   5.759   3.609  0.6905 -0.4659 -0.7992
 3903SOL     OW12564   3.098   1.236   6.621  0.0835  0.2674 -0.0623
 3903SOL    HW112565   3.064   1.315   6.663 -2.0600 -0.2609 -0.7000
 3903SOL    HW212566   3.109   1.174   6.693 -2.0013 -0.0925  0.0137
 3904SOL     OW12567   5.179   0.513   7.568 -0.4505  0.4126 -0.1260
 3904SOL    HW112568   5.141   0.519   7.656  0.0397  0.2687  0.0995
 3904SOL    HW212569   5.268   0.547   7.578 -0.5431  0.8308 -0.6678
 3905SOL     OW12570   2.832   1.332   3.631  0.3097  0.0697 -0.4902
 3905SOL    HW112571   2.927   1.321   3.643 -0.0002 -0.7274  1.6947
 3905SOL    HW212572   2.793   1.284   3.704 -1.8401 -0.4587 -1.8872
 3906SOL     OW12573   5.314   5.891   3.616 -0.0980  0.5757 -0.1216
 3906SOL    HW112574   5.378   5.961   3.608  0.2040  0.2673 -0.4124
 3906SOL    HW212575   5.246   5.914   3.552 -0.6490  1.2826  0.6845
 3907SOL     OW12576   3.506   5.531   7.995 -0.0387  0.3395  0.2139
 3907SOL    HW112577   3.524   5.445   8.033  1.4718  0.6075  0.1806
 3907SOL    HW212578   3.414   5.547   8.014 -0.1942 -1.0387  0.7186
 3908SOL     OW12579   2.767   0.113   7.997  0.5041 -0.7244 -0.1038
 3908SOL    HW112580   2.685   0.124   7.949 -0.9488  2.0190  2.6290
 3908SOL    HW212581   2.760   0.027   8.038 -0.8411 -0.7199 -0.2819
 3909SOL     OW12582   4.130   7.580   3.450  0.0564  0.7556  0.2238
 3909SOL    HW112583   4.179   7.582   3.368 -0.9445  0.0198 -0.4244
 3909SOL    HW212584   4.195   7.595   3.518  0.8904  1.4710 -0.7096
 3910SOL     OW12585   7.138   5.427   4.016 -0.6296 -0.4021  0.4848
 3910SOL    HW112586   7.233   5.424   4.028 -0.5713 -0.1074  0.1456
 3910SOL    HW212587   7.126   5.422   3.921 -0.9371 -0.1683  0.5080
 3911SOL     OW12588   4.890   5.191   5.113  0.0827 -0.4065  0.1823
 3911SOL    HW112589   4.939   5.264   5.151 -0.9549  0.4901 -0.1564
 3911SOL    HW212590   4.879   5.129   5.185  0.1140  0.2310  0.7386
 3912SOL     OW12591   6.511   5.701   2.120 -0.0651 -0.0907  0.3803
 3912SOL    HW112592   6.441   5.712   2.185 -0.0388  1.4901  0.1945
 3912SOL    HW212593   6.506   5.609   2.094 -1.3045 -0.2919  1.2378
 3913SOL     OW12594   3.240   0.992   4.780  0.2160 -0.5429  0.4541
 3913SOL    HW112595   3.147   0.982   4.761  0.3798  2.4092 -3.0007
 3913SOL    HW212596   3.247   1.077   4.825  1.2166 -1.3014  1.8430
 3914SOL     OW12597   1.684   2.853   0.250 -0.2528 -0.1122  0.4875
 3914SOL    HW112598   1.710   2.929   0.198 -0.2570 -0.9029 -0.7164
 3914SOL    HW212599   1.745   2.852   0.324 -1.0397  1.7601  1.2449
 3915SOL     OW12600   6.631   3.183   2.064  0.0152  0.2510  0.9142
 3915SOL    HW112601   6.621   3.260   2.120 -0.1239  1.0490 -0.1701
 3915SOL    HW212602   6.628   3.218   1.975 -0.4521 -1.0666  0.3915
 3916SOL     OW12603   4.488   2.605   1.262 -0.1733 -0.1224  0.0083
 3916SOL    HW112604   4.392   2.602   1.264 -0.1572 -0.9288 -0.1480
 3916SOL    HW212605   4.509   2.637   1.174 -0.3072  0.5994  0.2378
 3917SOL     OW12606   7.774   0.908   4.725  0.0486 -0.1813  0.4476
 3917SOL    HW112607   7.800   0.962   4.650 -1.2917 -0.2659 -0.1239
 3917SOL    HW212608   7.757   0.822   4.686 -1.1232 -0.1023  0.7434
 3918SOL     OW12609   4.814   0.579   7.827  0.0816 -0.2974  0.2629
 3918SOL    HW112610   4.760   0.625   7.891  1.0068  0.3157  0.6181
 3918SOL    HW212611   4.874   0.526   7.879 -0.2134 -1.0265 -0.1311
 3919SOL     OW12612   6.805   6.179   4.231  0.0332 -0.3016  0.1391
 3919SOL    HW112613   6.763   6.191   4.146  1.9828  0.9610 -0.7245
 3919SOL    HW212614   6.863   6.104   4.219  2.2863  1.4144 -0.5925
 3920SOL     OW12615   5.640   5.211   2.650 -0.4629  0.5179  0.0761
 3920SOL    HW112616   5.597   5.276   2.595 -1.6911  0.2186  0.6396
 3920SOL    HW212617   5.724   5.195   2.608 -0.8045  1.2934 -0.9361
 3921SOL     OW12618   2.647   6.416   1.692  0.0445 -0.2010 -0.1584
 3921SOL    HW112619   2.645   6.332   1.646  0.7199 -0.7261  0.7293
 3921SOL    HW212620   2.612   6.397   1.779  2.8639 -0.2860  1.0878
 3922SOL     OW12621   2.962   6.932   7.384  0.2894 -0.3667 -0.0498
 3922SOL    HW112622   2.952   6.861   7.447 -0.8369 -0.1524  0.0236
 3922SOL    HW212623   2.875   6.944   7.347  0.8048 -0.0710 -1.2022
 3923SOL     OW12624   2.613   4.494   4.976  0.2103 -0.2514 -0.2128
 3923SOL    HW112625   2.584   4.434   4.907 -0.8969  0.4300 -0.3755
 3923SOL    HW212626   2.585   4.581   4.946 -0.7616  0.0077  1.3125
 3924SOL     OW12627   7.137   7.048   5.259  0.2545 -0.6106  0.1689
 3924SOL    HW112628   7.144   7.018   5.169  0.2369  0.3172 -0.1516
 3924SOL    HW212629   7.207   7.002   5.306  0.2025 -1.1624 -0.2921
 3925SOL     OW12630   3.296   5.115   7.943 -0.1182  0.4262 -0.5876
 3925SOL    HW112631   3.236   5.048   7.975 -1.5742  2.0053  0.1733
 3925SOL    HW212632   3.383   5.086   7.970 -0.8791 -0.4059  1.0522
 3926SOL     OW12633   6.963   7.932   2.231  0.7235 -0.2051  0.5447
 3926SOL    HW112634   6.906   8.008   2.215  1.2433  0.1991  0.6087
 3926SOL    HW212635   7.040   7.948   2.177  1.1195 -0.3785  1.0590
 3927SOL     OW12636   6.093   4.415   0.560 -0.1499 -0.5205  0.8419
 3927SOL    HW112637   6.172   4.469   0.549 -1.5604  1.3589 -0.8934
 3927SOL    HW212638   6.029   4.475   0.599 -0.9518 -1.8253  1.5996
 3928SOL     OW12639   1.329   7.243   6.776  0.2504 -0.2175  0.7258
 3928SOL    HW112640   1.323   7.315   6.713  1.5253  1.8897  2.8533
 3928SOL    HW212641   1.240   7.236   6.812 -0.3635 -1.1034 -0.8329
 3929SOL     OW12642   6.493   4.113   7.618  0.9196 -0.4812 -0.5991
 3929SOL    HW112643   6.543   4.101   7.699  1.0312 -0.5298 -0.6754
 3929SOL    HW212644   6.483   4.025   7.582  0.4931 -0.5096 -0.4149
 3930SOL     OW12645   7.367   4.426   2.898  0.1269  0.2320 -0.2668
 3930SOL    HW112646   7.374   4.473   2.815  0.3168  2.2992  0.8566
 3930SOL    HW212647   7.457   4.417   2.928 -0.0178  0.5281  0.2574
 3931SOL     OW12648   3.306   2.658   0.498  0.2163  0.2069  0.4178
 3931SOL    HW112649   3.396   2.680   0.476 -0.3149  0.0342 -2.2310
 3931SOL    HW212650   3.289   2.706   0.579  3.0027 -0.7183  1.6525
 3932SOL     OW12651   5.460   2.581   2.281 -0.4341 -0.0241  0.0675
 3932SOL    HW112652   5.374   2.606   2.247  0.3576  0.4086 -1.7514
 3932SOL    HW212653   5.493   2.517   2.218  1.2993  1.1396 -0.2984
 3933SOL     OW12654   1.695   0.761   7.121 -0.7625  0.1276 -0.0530
 3933SOL    HW112655   1.668   0.782   7.210 -0.7170 -1.1351  0.2732
 3933SOL    HW212656   1.779   0.806   7.111  0.4732 -1.6937  1.4368
 3934SOL     OW12657   3.084   5.991   4.939 -0.1631 -0.0709 -0.6644
 3934SOL    HW112658   2.992   5.969   4.952 -0.5020  0.7345 -1.6239
 3934SOL    HW212659   3.098   5.985   4.845  0.5201  0.7481 -0.6256
 3935SOL     OW12660   2.400   4.256   5.406 -0.5167  0.2254  0.0337
 3935SOL    HW112661   2.398   4.327   5.341 -0.1078 -1.2281 -1.6508
 3935SOL    HW212662   2.490   4.253   5.436  0.1515 -1.2478 -1.9162
 3936SOL     OW12663   3.085   2.128   2.752 -0.5196  0.6801 -0.3267
 3936SOL    HW112664   3.030   2.140   2.830  1.8248 -1.1541  1.7665
 3936SOL    HW212665   3.078   2.034   2.732  1.1584  0.5732 -0.5201
 3937SOL     OW12666   7.059   1.730   3.420  0.7071 -0.0445 -0.0161
 3937SOL    HW112667   7.029   1.733   3.511  0.1146  0.7582 -0.2346
 3937SOL    HW212668   7.080   1.821   3.399  0.7416 -0.2132 -0.7179
 3938SOL     OW12669   6.540   6.426   2.778 -0.7035  0.2879  0.4651
 3938SOL    HW112670   6.497   6.510   2.799 -1.0545 -0.1022  1.3891
 3938SOL    HW212671   6.561   6.389   2.864 -2.0919 -1.3527  0.1606
 3939SOL     OW12672   2.173   5.634   7.584 -0.3669  0.3680  0.6232
 3939SOL    HW112673   2.192   5.663   7.673 -1.2972  0.4296  0.8136
 3939SOL    HW212674   2.109   5.563   7.596  1.6191 -1.6138  0.1678
 3940SOL     OW12675   7.817   5.654   0.038  0.4228  0.3902 -0.2576
 3940SOL    HW112676   7.800   5.635  -0.055  0.0367  0.6291 -0.2374
 3940SOL    HW212677   7.781   5.742   0.051 -0.5790 -0.1095  0.4050
 3941SOL     OW12678   1.609   0.717   6.006  0.1817  0.0011  0.4375
 3941SOL    HW112679   1.520   0.723   5.972  0.0885  0.9457  0.8130
 3941SOL    HW212680   1.623   0.623   6.020 -0.8076 -0.1477  0.5039
 3942SOL     OW12681   6.128   6.664   5.345  0.5514 -0.3175 -0.2516
 3942SOL    HW112682   6.093   6.605   5.279  0.6827 -3.0714  1.9345
 3942SOL    HW212683   6.060   6.729   5.359  0.4047  0.1454 -2.7776
 3943SOL     OW12684   0.203   2.514   5.885  0.0962  0.7544  0.1191
 3943SOL    HW112685   0.219   2.555   5.800 -0.4570  0.8795  0.0712
 3943SOL    HW212686   0.149   2.438   5.866 -1.5707  1.7710  0.5129
 3944SOL     OW12687   1.186   6.833   4.568  0.2711  0.6841 -0.0143
 3944SOL    HW112688   1.121   6.903   4.575 -0.5514  0.0639 -1.1829
 3944SOL    HW212689   1.184   6.790   4.654  0.5373  1.8421  0.5991
 3945SOL     OW12690   6.287   7.039   4.261 -0.0414  0.0901  0.4115
 3945SOL    HW112691   6.221   7.039   4.192  0.9258  1.8833 -0.5862
 3945SOL    HW212692   6.334   6.956   4.250  0.0132  0.2935 -1.0023
 3946SOL     OW12693   6.691   7.413   7.669  0.3920 -0.4548  0.1261
 3946SOL    HW112694   6.646   7.451   7.744  0.4613  1.1341 -0.5982
 3946SOL    HW212695   6.772   7.464   7.661  0.3955 -0.6090 -1.0136
 3947SOL     OW12696   5.863   4.188   2.818 -0.3111 -0.0556  0.2955
 3947SOL    HW112697   5.799   4.168   2.886 -2.2410  0.0182 -1.4027
 3947SOL    HW212698   5.866   4.109   2.763  0.4025  0.2595 -0.1392
 3948SOL     OW12699   7.281   4.085   5.249 -0.6328  0.1779 -0.0532
 3948SOL    HW112700   7.278   4.024   5.322  1.6889 -0.1753 -0.1944
 3948SOL    HW212701   7.357   4.140   5.266  0.2062 -0.1571 -2.3752
 3949SOL     OW12702   6.583   2.200   2.463 -0.1173 -0.5851 -0.2112
 3949SOL    HW112703   6.588   2.262   2.536  2.7401 -2.3620  1.3046
 3949SOL    HW212704   6.592   2.114   2.504 -0.8498 -1.8298 -2.4892
 3950SOL     OW12705   0.218   4.670   6.645  0.6193  0.0451  0.4022
 3950SOL    HW112706   0.131   4.679   6.684  0.5149 -2.7312  1.0595
 3950SOL    HW212707   0.278   4.696   6.714  0.3584  1.0779  0.2595
 3951SOL     OW12708   3.614   7.639   4.372 -0.1131 -0.2723  0.2492
 3951SOL    HW112709   3.705   7.608   4.382 -0.2299 -0.4350  0.8622
 3951SOL    HW212710   3.593   7.622   4.281  0.6176  0.1566 -0.0081
 3952SOL     OW12711   4.623   7.408   6.719  0.1101  0.8616  0.1915
 3952SOL    HW112712   4.538   7.430   6.758 -0.0671  0.1928  0.1909
 3952SOL    HW212713   4.613   7.317   6.690  0.0225  1.5119 -1.9769
 3953SOL     OW12714   0.540   5.643   6.980 -0.2948  0.1600  0.1235
 3953SOL    HW112715   0.565   5.613   6.892 -0.6274  1.2766 -0.3679
 3953SOL    HW212716   0.520   5.562   7.027 -0.8060 -0.4370 -1.0540
 3954SOL     OW12717   1.725   2.059   3.146  0.1556  0.1564 -0.4024
 3954SOL    HW112718   1.656   2.017   3.198 -0.4074 -0.9618 -1.9605
 3954SOL    HW212719   1.807   2.029   3.187 -0.2643 -0.2567  0.1655
 3955SOL     OW12720   7.115   7.168   0.044 -0.2733  0.7231  0.1333
 3955SOL    HW112721   7.098   7.232   0.113 -0.1980  0.6006  0.2654
 3955SOL    HW212722   7.034   7.165  -0.007  0.3729  2.4175 -1.0990
 3956SOL     OW12723   4.217   0.266   0.987 -0.0432  0.6523 -0.6305
 3956SOL    HW112724   4.189   0.188   1.035 -1.6696  0.9794 -1.0075
 3956SOL    HW212725   4.258   0.322   1.054  0.4703 -0.1822 -0.2242
 3957SOL     OW12726   7.867   5.080   4.459  0.7360 -0.2454 -0.1887
 3957SOL    HW112727   7.806   5.140   4.502  1.1380  0.0327 -0.0088
 3957SOL    HW212728   7.916   5.135   4.399  0.5270 -0.5446 -0.6407
 3958SOL     OW12729   5.305   4.917   1.887 -0.4822 -0.6182  0.1263
 3958SOL    HW112730   5.215   4.934   1.915 -0.1299  0.5997  0.6113
 3958SOL    HW212731   5.341   5.004   1.869  0.6567 -1.0671  0.1392
 3959SOL     OW12732   6.850   2.396   2.889  0.6209 -0.0849  0.2342
 3959SOL    HW112733   6.935   2.397   2.932  0.8221 -0.6299 -0.1386
 3959SOL    HW212734   6.794   2.450   2.944  2.0113  3.0621 -1.2379
 3960SOL     OW12735   2.915   0.403   6.076  0.2639  0.5373 -0.4972
 3960SOL    HW112736   2.972   0.457   6.131 -0.2822  0.1051  0.5233
 3960SOL    HW212737   2.893   0.328   6.130 -2.4365  1.3721 -0.2596
 3961SOL     OW12738   5.619   7.412   1.002 -0.0769  0.1699  0.0775
 3961SOL    HW112739   5.621   7.331   0.952 -0.2217 -0.7389  1.4625
 3961SOL    HW212740   5.578   7.476   0.944 -0.6938 -0.9566 -0.7676
 3962SOL     OW12741   5.563   0.899   5.076 -0.0764 -0.0955 -0.0620
 3962SOL    HW112742   5.608   0.911   4.993 -1.2891 -0.3486 -0.7828
 3962SOL    HW212743   5.474   0.930   5.060 -0.0224  1.0152  1.5085
 3963SOL     OW12744   2.974   1.084   4.769  0.8240 -0.2053  0.6739
 3963SOL    HW112745   3.002   1.074   4.678  0.0771 -1.2041  0.5420
 3963SOL    HW212746   2.972   1.179   4.783 -0.2537  0.0082 -0.7272
 3964SOL     OW12747   5.312   3.643   4.461  0.4048  0.1525 -0.2541
 3964SOL    HW112748   5.314   3.692   4.543 -1.2825 -0.0473 -0.0677
 3964SOL    HW212749   5.319   3.710   4.392 -0.5076  0.5398  0.0212
 3965SOL     OW12750   2.788   2.391   1.708 -0.0942 -0.4281  0.0248
 3965SOL    HW112751   2.711   2.375   1.653  1.1891  0.7253 -2.2636
 3965SOL    HW212752   2.830   2.468   1.669  0.7491  0.7366  2.8972
 3966SOL     OW12753   4.757   5.640   4.775 -0.1554  0.3858  0.2407
 3966SOL    HW112754   4.671   5.599   4.776 -0.1050  0.2791  0.9308
 3966SOL    HW212755   4.784   5.639   4.683 -0.3206 -0.7752  0.1949
 3967SOL     OW12756   4.542   3.157   2.785  0.2517  0.0084 -0.3165
 3967SOL    HW112757   4.506   3.081   2.830 -0.0179  1.1604  1.5196
 3967SOL    HW212758   4.514   3.146   2.694  1.1873 -2.6310 -0.3736
 3968SOL     OW12759   4.952   5.278   1.619 -0.6432 -0.4523 -0.0856
 3968SOL    HW112760   5.007   5.342   1.665 -0.5963 -1.0058  0.6514
 3968SOL    HW212761   4.927   5.322   1.538 -0.7270  0.5620  0.4727
 3969SOL     OW12762   5.775   6.858   0.479 -0.1742 -1.0052  0.2253
 3969SOL    HW112763   5.795   6.831   0.390  2.1116  0.2192  0.2891
 3969SOL    HW212764   5.699   6.916   0.469  0.0538 -0.8697 -0.9464
 3970SOL     OW12765   0.544   2.384   0.731  0.3900 -0.7463 -0.2427
 3970SOL    HW112766   0.518   2.330   0.806 -1.8416  0.0915 -0.3221
 3970SOL    HW212767   0.480   2.363   0.663 -0.2202  1.5268 -0.4537
 3971SOL     OW12768   7.148   5.302   3.127  0.3254  0.4535  0.4186
 3971SOL    HW112769   7.054   5.317   3.131  0.4058  1.8240 -1.4417
 3971SOL    HW212770   7.159   5.229   3.066  0.5026  0.6337  0.2351
 3972SOL     OW12771   1.391   4.218   5.446 -0.2178 -0.6358 -0.2898
 3972SOL    HW112772   1.468   4.266   5.414 -0.0603 -1.2195 -0.8245
 3972SOL    HW212773   1.409   4.203   5.538 -0.3399  0.4509 -0.0834
 3973SOL     OW12774   0.460   3.282   4.737  0.1419 -0.4471  0.0361
 3973SOL    HW112775   0.412   3.212   4.782 -1.5707 -0.0890 -1.1611
 3973SOL    HW212776   0.551   3.250   4.734 -0.4903 -2.3570  0.0136
 3974SOL     OW12777   7.951   6.976   0.321 -0.0608  0.0627 -0.1406
 3974SOL    HW112778   7.987   6.977   0.232 -0.0036 -1.6552 -0.1673
 3974SOL    HW212779   8.012   7.029   0.372 -0.3036  1.3972 -1.1918
 3975SOL     OW12780   5.918   7.128   6.494  0.6279 -0.0088  0.4980
 3975SOL    HW112781   5.914   7.115   6.588 -0.8428  1.0371  0.6076
 3975SOL    HW212782   6.001   7.174   6.479  1.2181 -0.8305  1.1748
 3976SOL     OW12783   6.487   7.104   6.510  0.0506 -0.1786 -0.0382
 3976SOL    HW112784   6.408   7.158   6.524  0.4873  0.1658  1.2705
 3976SOL    HW212785   6.487   7.043   6.584  1.0142 -0.1685 -0.0269
 3977SOL     OW12786   0.700   4.843   5.257 -0.5075  0.4180  0.8337
 3977SOL    HW112787   0.764   4.824   5.326 -1.6526 -0.4037  1.7341
 3977SOL    HW212788   0.633   4.775   5.269 -0.8274  0.3701 -0.9990
 3978SOL     OW12789   2.906   5.477   3.312  0.1724  0.4995 -0.2376
 3978SOL    HW112790   2.946   5.432   3.238  0.7934  1.1601 -0.3232
 3978SOL    HW212791   2.813   5.455   3.308  0.3526 -0.1971 -0.6783
 3979SOL     OW12792   7.236   1.021   7.337  0.2088 -0.7689  0.1925
 3979SOL    HW112793   7.235   0.930   7.368  1.2867 -0.9644 -0.3211
 3979SOL    HW212794   7.328   1.046   7.340  0.0533 -0.0662 -0.7600
 3980SOL     OW12795   4.827   7.472   4.228 -0.0770 -0.6016  0.0870
 3980SOL    HW112796   4.867   7.543   4.178  0.3107 -1.1796 -0.4471
 3980SOL    HW212797   4.901   7.422   4.262 -0.3248 -1.4152 -0.5305
 3981SOL     OW12798   1.796   1.927   3.382 -0.4301 -0.7157 -0.2806
 3981SOL    HW112799   1.797   1.835   3.356  1.0480 -0.9261  0.4579
 3981SOL    HW212800   1.747   1.928   3.465 -0.3901 -0.8331 -0.2567
 3982SOL     OW12801   6.976   2.446   7.630  1.0102  0.8004  0.1600
 3982SOL    HW112802   6.894   2.495   7.636  1.2511  1.3260 -0.6897
 3982SOL    HW212803   6.949   2.354   7.635  0.5796  0.9954  2.0574
 3983SOL     OW12804   4.688   7.706   5.232  0.0453  0.3396  0.4398
 3983SOL    HW112805   4.664   7.624   5.189  2.8964 -1.4374  1.9475
 3983SOL    HW212806   4.618   7.721   5.295 -0.9353 -0.4775 -0.4195
 3984SOL     OW12807   0.447   1.445   4.450  0.3002 -0.4959  0.4764
 3984SOL    HW112808   0.415   1.418   4.364  2.4585 -0.5903 -0.3515
 3984SOL    HW212809   0.372   1.431   4.508 -0.7385 -1.9462 -1.0957
 3985SOL     OW12810   1.286   0.407   1.268 -0.2912 -0.1482  0.8911
 3985SOL    HW112811   1.256   0.489   1.229 -2.1636 -0.8466  0.7368
 3985SOL    HW212812   1.312   0.431   1.357  0.4192  0.8115  0.4439
 3986SOL     OW12813   6.434   1.623   5.091 -0.1522  0.2775 -0.9550
 3986SOL    HW112814   6.509   1.629   5.032 -0.6128 -2.9213 -2.0761
 3986SOL    HW212815   6.360   1.601   5.034 -1.4283  0.8958  0.3982
 3987SOL     OW12816   2.446   7.417   2.260  0.0838 -0.1908 -0.1907
 3987SOL    HW112817   2.363   7.426   2.308 -0.3441 -0.4287 -0.8652
 3987SOL    HW212818   2.426   7.355   2.190  1.0078 -0.7304  0.0052
 3988SOL     OW12819   0.524   0.842   0.047  0.2933  0.0059 -0.2068
 3988SOL    HW112820   0.542   0.933   0.069  1.4207 -0.0200 -0.9485
 3988SOL    HW212821   0.435   0.843   0.013  0.2275  0.8004 -0.0329
 3989SOL     OW12822   4.764   0.802   5.305 -0.3538 -0.2014  0.4744
 3989SOL    HW112823   4.716   0.884   5.291  0.2564  0.2729  1.0922
 3989SOL    HW212824   4.852   0.830   5.331  1.0811 -0.9928 -2.9298
 3990SOL     OW12825   7.293   3.046   7.717  0.1895  0.2619  0.2537
 3990SOL    HW112826   7.232   2.979   7.686 -0.4810  1.1303 -0.3075
 3990SOL    HW212827   7.338   3.076   7.638  1.6165 -0.6122  0.6972
 3991SOL     OW12828   3.918   6.991   0.367  0.1893  0.3382  0.0758
 3991SOL    HW112829   3.955   6.987   0.279 -0.2379 -0.7779 -0.0636
 3991SOL    HW212830   3.979   7.046   0.416  1.4654 -0.5719 -0.4275
 3992SOL     OW12831   4.017   6.538   2.713 -0.1197 -0.3474  0.0643
 3992SOL    HW112832   4.087   6.544   2.779  0.9209  1.2606 -1.1261
 3992SOL    HW212833   3.967   6.619   2.724 -3.0163 -2.2032  2.0798
 3993SOL     OW12834   2.304   2.439   2.250 -0.1309  0.6225 -0.5307
 3993SOL    HW112835   2.397   2.428   2.267 -0.1610 -0.6213 -1.0768
 3993SOL    HW212836   2.291   2.402   2.163 -1.1725  0.6061 -0.3809
 3994SOL     OW12837   4.968   6.319   7.348 -0.3146  0.5764  0.4804
 3994SOL    HW112838   4.981   6.262   7.273 -0.4614  1.4929 -0.2649
 3994SOL    HW212839   4.983   6.263   7.424  0.1702 -0.2874 -0.2321
 3995SOL     OW12840   4.295   0.132   2.579 -0.3418  0.7966 -0.3095
 3995SOL    HW112841   4.330   0.151   2.666 -1.0459  0.9476 -0.0538
 3995SOL    HW212842   4.266   0.041   2.584 -1.2364  1.0820 -0.0867
 3996SOL     OW12843   1.212   4.589   7.303  0.3190 -0.0754 -0.6078
 3996SOL    HW112844   1.175   4.659   7.248  1.5934  0.5079 -0.7740
 3996SOL    HW212845   1.291   4.628   7.340 -0.9032 -0.1630  2.3402
 3997SOL     OW12846   0.873   1.366   5.250  0.4591  0.7668  0.2231
 3997SOL    HW112847   0.794   1.318   5.225  1.4223 -0.2094 -1.0972
 3997SOL    HW212848   0.852   1.457   5.233  1.0624  0.2573 -4.8672
 3998SOL     OW12849   5.417   4.500   2.811  0.4615  0.3589  0.3671
 3998SOL    HW112850   5.384   4.411   2.824  0.3811  0.5970  1.9292
 3998SOL    HW212851   5.503   4.489   2.770 -0.9736 -0.3040 -2.7565
 3999SOL     OW12852   0.613   2.840   5.383 -0.0975  0.2679  0.2542
 3999SOL    HW112853   0.597   2.852   5.477  1.2170  1.1221  0.3841
 3999SOL    HW212854   0.627   2.928   5.349  0.4526 -0.1240 -0.5558
 4000SOL     OW12855   5.406   1.526   1.278  0.4411 -0.1386  0.0464
 4000SOL    HW112856   5.385   1.619   1.281  1.5063  0.2277 -1.9572
 4000SOL    HW212857   5.488   1.518   1.329  0.5870  0.0966 -0.1516
 4001SOL     OW12858   4.631   7.095   7.778 -0.0835 -0.8480 -0.1067
 4001SOL    HW112859   4.603   7.006   7.756  1.3922 -0.9363 -1.9394
 4001SOL    HW212860   4.702   7.113   7.716  2.0494  0.3119  2.5030
 4002SOL     OW12861   4.524   0.861   7.695  0.8930 -0.4481  0.1288
 4002SOL    HW112862   4.599   0.884   7.640  0.9358 -0.4493  0.1858
 4002SOL    HW212863   4.489   0.945   7.725  1.1336 -0.4578  0.4504
 4003SOL     OW12864   2.316   6.181   4.436  0.2557  0.3493  0.0672
 4003SOL    HW112865   2.236   6.232   4.447  0.1757  0.2622 -0.0967
 4003SOL    HW212866   2.368   6.231   4.373  0.9005  1.0673  1.1500
 4004SOL     OW12867   4.940   7.081   5.687 -0.4714 -0.2415 -0.1982
 4004SOL    HW112868   4.924   7.111   5.777  1.1124 -0.1343  0.0865
 4004SOL    HW212869   4.860   7.034   5.663 -2.2332  2.3989  0.0784
 4005SOL     OW12870   2.729   3.786   6.506 -0.3188 -0.0165 -0.0101
 4005SOL    HW112871   2.794   3.830   6.451 -0.3550  0.7849  0.5695
 4005SOL    HW212872   2.775   3.709   6.540 -0.3698 -0.6556 -1.3267
 4006SOL     OW12873   2.478   6.731   0.061 -0.0593 -0.5862 -0.0382
 4006SOL    HW112874   2.411   6.737   0.129 -0.3135  2.5074 -0.4307
 4006SOL    HW212875   2.560   6.751   0.105 -0.5091  4.2205 -0.8111
 4007SOL     OW12876   0.764   5.607   3.459  0.4425  0.3089 -0.4779
 4007SOL    HW112877   0.816   5.663   3.516  0.1242 -0.0214  0.1465
 4007SOL    HW212878   0.748   5.528   3.511 -0.7835  0.4596 -0.6111
 4008SOL     OW12879   2.159   0.947   2.694  0.4504 -0.4658  0.2044
 4008SOL    HW112880   2.241   0.942   2.645  0.4739 -0.7619  0.2697
 4008SOL    HW212881   2.104   0.879   2.655 -0.4282  0.9006 -1.0486
 4009SOL     OW12882   4.424   4.962   0.133 -0.0761 -0.0218 -0.2529
 4009SOL    HW112883   4.390   4.908   0.203  0.8473 -1.2230 -0.6993
 4009SOL    HW212884   4.372   4.939   0.056  0.2830 -0.2510 -0.4318
 4010SOL     OW12885   5.090   4.666   2.274  0.7985 -0.1210 -0.0831
 4010SOL    HW112886   5.101   4.729   2.203 -0.5785 -0.5935 -0.7437
 4010SOL    HW212887   5.093   4.719   2.354  1.1962  0.5648 -0.5465
 4011SOL     OW12888   0.541   4.164   1.307  0.0718 -0.2574  0.1311
 4011SOL    HW112889   0.596   4.238   1.331 -1.7064  0.8159  1.1766
 4011SOL    HW212890   0.561   4.096   1.371 -0.5498  0.5271  1.2023
 4012SOL     OW12891   1.369   2.788   2.643  0.5673 -0.4622 -0.0440
 4012SOL    HW112892   1.286   2.789   2.596  0.7862 -0.6522 -0.4382
 4012SOL    HW212893   1.370   2.870   2.691 -0.1055 -0.7174  0.4171
 4013SOL     OW12894   4.937   0.794   0.347  0.2154  0.5549  0.4275
 4013SOL    HW112895   4.895   0.750   0.421  0.5618 -0.5322 -0.0078
 4013SOL    HW212896   5.029   0.802   0.373  0.5567 -0.7776 -0.2913
 4014SOL     OW12897   6.301   2.042   7.541  0.0045 -0.2584 -0.0273
 4014SOL    HW112898   6.253   1.988   7.479 -0.3766  0.6616 -0.5492
 4014SOL    HW212899   6.280   2.132   7.517  0.5034  0.1328  0.9194
 4015SOL     OW12900   1.282   3.130   3.647  0.3264  0.2635 -0.1581
 4015SOL    HW112901   1.323   3.084   3.574  0.2698  0.7090 -0.4801
 4015SOL    HW212902   1.355   3.169   3.695  0.6438 -2.4438  1.7774
 4016SOL     OW12903   7.671   7.198   3.892  0.1152 -0.0505  0.5520
 4016SOL    HW112904   7.631   7.146   3.822  0.0541  0.5509  0.1376
 4016SOL    HW212905   7.718   7.134   3.945  0.8726 -0.4141 -0.5287
 4017SOL     OW12906   6.306   4.706   0.220 -0.1404  0.3375  0.2844
 4017SOL    HW112907   6.273   4.617   0.227  0.8429  0.0421  1.5833
 4017SOL    HW212908   6.263   4.742   0.142 -0.8926 -1.1092  0.0017
 4018SOL     OW12909   7.152   1.827   6.228  0.2417 -0.2451  0.2075
 4018SOL    HW112910   7.099   1.896   6.188 -0.5723 -0.2666  1.2033
 4018SOL    HW212911   7.236   1.869   6.247  0.4557 -0.0957 -1.0137
 4019SOL     OW12912   4.852   5.989   2.706 -0.8080 -0.3558  0.1184
 4019SOL    HW112913   4.945   5.983   2.683 -1.1553  1.5444 -2.2250
 4019SOL    HW212914   4.823   5.898   2.716  1.4056 -0.9761  1.6841
 4020SOL     OW12915   6.150   5.273   0.562 -0.1492  0.4245  0.2886
 4020SOL    HW112916   6.217   5.289   0.496 -0.1638  2.0946  0.6457
 4020SOL    HW212917   6.191   5.213   0.624 -0.4281 -1.9008 -1.6268
 4021SOL     OW12918   6.642   5.386   6.767  0.1318 -0.3441 -0.1894
 4021SOL    HW112919   6.710   5.353   6.709 -1.4656 -2.6183 -0.9308
 4021SOL    HW212920   6.587   5.441   6.712 -0.2338 -0.8458 -0.3318
 4022SOL     OW12921   1.512   2.703   4.555 -0.1725 -0.3185  0.2412
 4022SOL    HW112922   1.434   2.665   4.514 -1.2646  0.9822  1.0275
 4022SOL    HW212923   1.483   2.727   4.643  1.1137  0.2552  0.5362
 4023SOL     OW12924   2.170   7.731   3.238 -0.0988 -0.5612  0.1984
 4023SOL    HW112925   2.189   7.637   3.240 -0.7470 -0.7410 -1.2123
 4023SOL    HW212926   2.191   7.758   3.149 -0.9808  0.4021  0.2689
 4024SOL     OW12927   2.244   2.510   3.856  0.2088 -0.4588  0.1401
 4024SOL    HW112928   2.183   2.577   3.885 -0.8126 -1.6094  0.7776
 4024SOL    HW212929   2.330   2.551   3.862 -0.4507  1.0969 -0.4597
 4025SOL     OW12930   4.260   4.912   4.107 -0.3000 -0.5578 -0.1786
 4025SOL    HW112931   4.293   5.001   4.115 -1.5089  0.1334 -2.1542
 4025SOL    HW212932   4.295   4.866   4.184  0.9232  1.4099  0.5096
 4026SOL     OW12933   6.820   3.636   3.499 -0.0436  1.0833  0.3506
 4026SOL    HW112934   6.857   3.554   3.533  1.1615  0.7061 -1.6835
 4026SOL    HW212935   6.727   3.618   3.486  0.5090 -0.6700 -1.7908
 4027SOL     OW12936   7.893   6.306   6.511 -0.1190 -0.2381  0.4584
 4027SOL    HW112937   7.983   6.302   6.544  0.1115 -1.2232 -0.2456
 4027SOL    HW212938   7.880   6.397   6.486  0.1975  0.2164  1.8762
 4028SOL     OW12939   6.860   4.111   7.623  0.3633  0.1232  0.4992
 4028SOL    HW112940   6.808   4.091   7.700 -1.8996  0.0824 -0.9518
 4028SOL    HW212941   6.811   4.180   7.578  0.7361 -0.9868 -1.7354
 4029SOL     OW12942   4.883   4.815   2.559  0.0499 -0.1684  0.0502
 4029SOL    HW112943   4.850   4.726   2.568 -2.0354  0.2790 -2.1309
 4029SOL    HW212944   4.971   4.812   2.598 -0.8590 -2.5312  2.2028
 4030SOL     OW12945   1.360   5.391   1.662 -0.6363  0.2370  0.4007
 4030SOL    HW112946   1.415   5.374   1.586  1.0201 -0.2898  1.6538
 4030SOL    HW212947   1.418   5.381   1.737 -2.1299  1.0548  1.7463
 4031SOL     OW12948   6.315   3.205   1.640 -0.8156  0.3763 -0.0006
 4031SOL    HW112949   6.249   3.152   1.597  0.0157 -2.8927  2.3648
 4031SOL    HW212950   6.327   3.165   1.726  4.4650  0.4154 -0.3442
 4032SOL     OW12951   1.252   6.171   7.992 -0.1102  0.0379 -0.2294
 4032SOL    HW112952   1.281   6.139   7.907  0.9771 -0.0130  0.1413
 4032SOL    HW212953   1.244   6.092   8.046 -0.5713  0.0916 -0.2153
 4033SOL     OW12954   6.572   0.529   3.350  0.0056 -0.0612 -0.0049
 4033SOL    HW112955   6.605   0.580   3.424 -0.2055  1.1403 -0.7229
 4033SOL    HW212956   6.490   0.573   3.326 -1.6137 -2.3138  1.0465
 4034SOL     OW12957   1.795   3.301   0.669  0.1543  0.1378  0.2900
 4034SOL    HW112958   1.869   3.362   0.664 -1.6108  2.3780 -0.4075
 4034SOL    HW212959   1.815   3.233   0.604  0.9204  1.5178 -0.9730
 4035SOL     OW12960   2.240   2.111   7.976 -0.0877 -0.1909 -0.3731
 4035SOL    HW112961   2.285   2.086   8.057  0.2172  1.4459  0.0121
 4035SOL    HW212962   2.305   2.161   7.927 -0.9498  0.7938 -0.5577
 4036SOL     OW12963   2.601   1.586   2.374  0.4419 -0.0076  0.1972
 4036SOL    HW112964   2.643   1.603   2.289  1.8315  0.3460  0.9131
 4036SOL    HW212965   2.652   1.514   2.412 -0.7081 -0.7511  0.3885
 4037SOL     OW12966   2.848   5.254   1.699 -0.0500 -0.7741 -0.0274
 4037SOL    HW112967   2.940   5.230   1.689 -0.1892 -1.4077  0.1743
 4037SOL    HW212968   2.805   5.216   1.623  0.1933  1.4499 -1.3554
 4038SOL     OW12969   6.372   0.395   1.151  0.6935 -0.3787  0.0197
 4038SOL    HW112970   6.386   0.462   1.083  0.3004 -0.8748 -0.5550
 4038SOL    HW212971   6.387   0.312   1.106  1.0927 -0.6889  0.7110
 4039SOL     OW12972   6.577   4.613   1.729 -0.1693 -0.0808  0.4681
 4039SOL    HW112973   6.490   4.587   1.696 -0.9953  0.5512  2.0437
 4039SOL    HW212974   6.606   4.537   1.780  0.3452 -0.3924 -0.2677
 4040SOL     OW12975   5.483   5.939   7.637 -0.1840 -0.3709  0.5122
 4040SOL    HW112976   5.488   5.898   7.551  1.4078 -0.0623  0.4400
 4040SOL    HW212977   5.572   5.938   7.670 -0.1936  2.2925  0.8392
 4041SOL     OW12978   3.896   1.500   0.110 -0.0346 -0.4608  0.3924
 4041SOL    HW112979   3.821   1.445   0.132 -0.7027 -0.7538 -2.2654
 4041SOL    HW212980   3.902   1.563   0.182 -0.9067 -2.2890  2.1738
 4042SOL     OW12981   3.921   7.693   4.938  0.3167  0.0612  0.3334
 4042SOL    HW112982   3.915   7.761   4.871  0.7845 -0.9899 -0.8224
 4042SOL    HW212983   3.830   7.672   4.959  0.1672  0.7233  0.3633
 4043SOL     OW12984   7.235   7.957   5.918  0.0875  0.3671  0.1017
 4043SOL    HW112985   7.261   8.006   5.840 -0.5298  2.1486  0.9584
 4043SOL    HW212986   7.314   7.955   5.972 -0.1365  1.2486  0.4682
 4044SOL     OW12987   4.903   5.967   4.313 -0.4434 -0.9142 -0.2325
 4044SOL    HW112988   4.893   5.883   4.269 -0.3669 -1.0602  0.0283
 4044SOL    HW212989   4.991   5.965   4.350 -0.8178 -1.1489  0.6699
 4045SOL     OW12990   2.542   4.183   2.501  0.4888  0.0103  0.0841
 4045SOL    HW112991   2.480   4.240   2.546  1.3037 -0.1984  1.5332
 4045SOL    HW212992   2.615   4.174   2.563  1.8195 -0.0047 -1.4317
 4046SOL     OW12993   2.364   7.963   0.985  0.0087 -0.2395  0.0814
 4046SOL    HW112994   2.373   8.028   0.915 -0.0493 -0.6009 -0.2701
 4046SOL    HW212995   2.350   7.880   0.938  0.9785 -0.6497  0.4969
 4047SOL     OW12996   2.732   7.821   7.779 -0.2134  0.2827 -0.7588
 4047SOL    HW112997   2.821   7.845   7.807  0.8480 -0.7119 -3.0316
 4047SOL    HW212998   2.694   7.904   7.748  0.0678  0.6195 -0.2334
 4048SOL     OW12999   3.097   4.123   6.027 -0.2823 -0.2222 -0.2118
 4048SOL    HW113000   3.137   4.197   6.072 -0.2804 -0.3261 -0.0382
 4048SOL    HW213001   3.166   4.057   6.024  0.0828  0.2063 -1.4127
 4049SOL     OW13002   2.348   2.082   2.257 -0.2109  0.2176 -0.0810
 4049SOL    HW113003   2.383   2.088   2.346  0.7744  0.4028 -0.4675
 4049SOL    HW213004   2.289   2.006   2.259 -0.0789  0.1316  0.6849
 4050SOL     OW13005   1.870   3.279   1.075  1.0189 -0.1854 -0.4110
 4050SOL    HW113006   1.802   3.319   1.129 -0.2383 -0.7793 -1.5019
 4050SOL    HW213007   1.926   3.353   1.049  0.0176  0.5372 -0.5856
 4051SOL     OW13008   1.089   5.608   7.048 -0.4335 -0.6315  0.1248
 4051SOL    HW113009   1.112   5.515   7.051 -1.9332 -1.0264  0.4238
 4051SOL    HW213010   1.053   5.626   7.135 -0.4086  0.1631 -0.0210
 4052SOL     OW13011   1.700   4.804   2.034 -0.0530 -0.3087  0.2003
 4052SOL    HW113012   1.621   4.849   2.062 -0.1863 -0.5963  0.2946
 4052SOL    HW213013   1.673   4.753   1.958  0.3615  0.6471 -0.6084
 4053SOL     OW13014   7.452   5.994   0.180  0.2063 -0.2323  0.0737
 4053SOL    HW113015   7.517   5.985   0.110 -0.2730  2.1607 -0.7549
 4053SOL    HW213016   7.372   5.957   0.142  0.2256  0.0195 -0.2141
 4054SOL     OW13017   2.551   1.221   2.607  0.3803  0.5170  0.0384
 4054SOL    HW113018   2.500   1.144   2.581  0.6097 -0.2516  1.7205
 4054SOL    HW213019   2.517   1.292   2.552  0.0623 -0.7306 -1.4518
 4055SOL     OW13020   6.512   4.986   6.678 -0.0094 -0.5037  0.5668
 4055SOL    HW113021   6.583   5.013   6.620 -0.6862  0.9157  0.3624
 4055SOL    HW213022   6.550   4.916   6.731  1.3367 -0.2271  0.0085
 4056SOL     OW13023   7.630   2.425   0.627  0.0989  0.2830  0.5363
 4056SOL    HW113024   7.623   2.335   0.596  1.4427  0.2800  0.1585
 4056SOL    HW213025   7.721   2.434   0.655  0.0930  1.6227  0.2171
 4057SOL     OW13026   1.304   5.855   4.697  0.1646 -0.4159 -0.4710
 4057SOL    HW113027   1.211   5.850   4.717 -0.5593 -3.0194 -3.6620
 4057SOL    HW213028   1.316   5.944   4.664 -1.5069 -0.4434 -1.2458
 4058SOL     OW13029   0.371   2.078   3.182 -0.7271  0.8004  1.1127
 4058SOL    HW113030   0.409   2.047   3.100  0.3369  2.2465  1.0231
 4058SOL    HW213031   0.281   2.101   3.160 -0.8972 -0.2072  0.7152
 4059SOL     OW13032   4.021   2.294   0.765  0.1612 -0.1733  0.5801
 4059SOL    HW113033   4.077   2.232   0.717 -0.6350  0.3174 -1.0449
 4059SOL    HW213034   4.026   2.264   0.856  0.0687 -2.4371 -0.0841
 4060SOL     OW13035   1.451   4.805   3.590 -0.0343  0.8572  0.0745
 4060SOL    HW113036   1.399   4.827   3.667  0.2480  0.4898  0.3742
 4060SOL    HW213037   1.428   4.872   3.525  1.2357  2.4090  1.1516
 4061SOL     OW13038   0.610   0.046   1.622 -0.3005 -0.6607  0.4625
 4061SOL    HW113039   0.681  -0.012   1.651  0.8577  1.1472  1.3867
 4061SOL    HW213040   0.621   0.050   1.527  1.4818  0.3313  0.6624
 4062SOL     OW13041   6.790   4.453   7.707 -0.0331  0.2371 -0.1472
 4062SOL    HW113042   6.700   4.450   7.738 -0.2076  1.9874 -0.3854
 4062SOL    HW213043   6.783   4.441   7.612  0.1034 -0.7626 -0.0391
 4063SOL     OW13044   5.200   4.790   5.652  0.1792  0.2292 -0.5437
 4063SOL    HW113045   5.246   4.817   5.572 -0.5727 -1.1397 -1.4824
 4063SOL    HW213046   5.219   4.696   5.660 -0.5339  0.1450  0.3474
 4064SOL     OW13047   7.952   2.684   6.936 -0.0691  0.1738  0.0884
 4064SOL    HW113048   8.028   2.730   6.971  0.1047 -1.0030  1.3189
 4064SOL    HW213049   7.890   2.680   7.009 -0.6943 -0.2191 -0.4461
 4065SOL     OW13050   7.026   2.479   0.990 -0.0056 -0.3652  0.6018
 4065SOL    HW113051   7.071   2.561   1.010 -0.5671  0.5508 -1.5875
 4065SOL    HW213052   7.096   2.422   0.957 -0.1741  0.7814 -2.0205
 4066SOL     OW13053   5.328   1.241   0.554  0.3071  0.5258  0.0737
 4066SOL    HW113054   5.395   1.194   0.503  0.2897 -1.0954  1.4326
 4066SOL    HW213055   5.373   1.266   0.634 -0.1577  1.3713  0.0796
 4067SOL     OW13056   3.266   3.508   3.181  0.4747  0.7197  0.2595
 4067SOL    HW113057   3.305   3.483   3.265 -1.5167 -3.1582  0.2475
 4067SOL    HW213058   3.327   3.475   3.115 -0.4057 -0.9453  0.2435
 4068SOL     OW13059   7.398   5.010   6.052 -0.1844 -0.4495 -0.7622
 4068SOL    HW113060   7.355   5.027   5.968 -1.8462  0.7887  0.2627
 4068SOL    HW213061   7.388   5.092   6.101  0.4958 -1.2294  0.7506
 4069SOL     OW13062   1.516   5.115   4.975 -0.3580 -0.3908 -0.2152
 4069SOL    HW113063   1.427   5.143   4.954 -0.6717 -0.6263  0.7727
 4069SOL    HW213064   1.528   5.034   4.924 -0.1366  0.4479 -1.5544
 4070SOL     OW13065   6.039   2.877   3.226  0.1388 -0.2763  0.0502
 4070SOL    HW113066   5.974   2.898   3.292 -1.1955 -3.2276 -0.1982
 4070SOL    HW213067   6.032   2.948   3.162 -1.0903  0.7345  1.2588
 4071SOL     OW13068   7.920   5.876   6.531  0.0055 -0.8129  0.4316
 4071SOL    HW113069   7.975   5.797   6.533 -1.6796 -2.0153  1.4185
 4071SOL    HW213070   7.887   5.884   6.620 -1.6008 -0.2707 -0.1911
 4072SOL     OW13071   1.455   5.254   3.110 -0.0136 -0.2646 -0.8512
 4072SOL    HW113072   1.530   5.265   3.169 -0.1954 -0.8016 -0.5097
 4072SOL    HW213073   1.395   5.198   3.159 -1.0719  0.9479 -0.7247
 4073SOL     OW13074   3.722   6.407   0.888 -0.7095 -0.1665 -0.0499
 4073SOL    HW113075   3.688   6.495   0.871 -0.7880 -0.5077 -1.8344
 4073SOL    HW213076   3.717   6.362   0.804  2.8945 -0.6782 -0.1836
 4074SOL     OW13077   3.331   7.356   6.940  0.0220 -0.4378 -0.4012
 4074SOL    HW113078   3.402   7.323   6.885 -0.6526 -1.8792 -0.4729
 4074SOL    HW213079   3.269   7.396   6.879  0.9653  1.2850 -0.2900
 4075SOL     OW13080   6.095   6.997   7.568  0.9216 -0.4840 -0.3043
 4075SOL    HW113081   6.121   7.084   7.537 -0.7696  0.7337  1.4275
 4075SOL    HW213082   6.046   7.015   7.649 -1.0207 -2.8950 -0.8350
 4076SOL     OW13083   5.423   0.968   5.570 -0.4372  0.1515 -0.2118
 4076SOL    HW113084   5.465   0.953   5.485  0.4390 -2.0034  0.5198
 4076SOL    HW213085   5.333   0.995   5.549 -0.5048 -1.2279 -1.8342
 4077SOL     OW13086   4.753   1.543   7.717  0.0149  0.1074  0.5495
 4077SOL    HW113087   4.677   1.587   7.755  1.9560  2.6352  1.8266
 4077SOL    HW213088   4.751   1.455   7.755 -1.1240  0.8053  2.2511
 4078SOL     OW13089   0.751   5.951   3.277  0.0817 -0.7962 -0.1640
 4078SOL    HW113090   0.693   5.875   3.276  1.3400 -1.7905  0.1753
 4078SOL    HW213091   0.769   5.966   3.370 -0.1754 -0.0400 -0.2229
 4079SOL     OW13092   6.423   4.336   1.250 -0.3333  0.1436  0.0344
 4079SOL    HW113093   6.351   4.297   1.300 -0.4613 -0.7726 -0.8135
 4079SOL    HW213094   6.498   4.333   1.309 -0.3010 -1.5770 -0.0485
 4080SOL     OW13095   6.544   2.987   5.555 -0.7124  0.5632 -0.0710
 4080SOL    HW113096   6.606   3.012   5.623  0.9554 -0.8482 -0.9819
 4080SOL    HW213097   6.458   2.993   5.597  0.1970  0.5527  1.8930
 4081SOL     OW13098   3.549   6.372   7.163  0.0415 -0.2934 -0.0706
 4081SOL    HW113099   3.485   6.423   7.114  0.8900 -0.6886 -1.6507
 4081SOL    HW213100   3.625   6.430   7.170  0.7167 -1.0087 -1.1765
 4082SOL     OW13101   6.789   2.013   1.824  0.7033  0.1581 -0.5144
 4082SOL    HW113102   6.738   2.072   1.769 -1.1504 -0.7172  0.1766
 4082SOL    HW213103   6.797   1.933   1.772 -0.1102 -0.2932  0.0490
 4083SOL     OW13104   7.184   7.865   3.027  0.9568 -0.7040 -0.2479
 4083SOL    HW113105   7.138   7.802   3.083 -0.4360  0.6291  0.1871
 4083SOL    HW213106   7.137   7.862   2.944  2.6186 -2.1996 -1.2086
 4084SOL     OW13107   7.437   4.915   3.360  0.2880 -0.2090  0.5236
 4084SOL    HW113108   7.453   4.859   3.436 -0.4668 -2.1941 -0.7214
 4084SOL    HW213109   7.342   4.924   3.356  0.2723 -0.6699 -0.5271
 4085SOL     OW13110   4.475   1.768   0.630  0.3006 -0.0477  0.2353
 4085SOL    HW113111   4.537   1.696   0.643 -0.0034 -0.4195 -0.3194
 4085SOL    HW213112   4.465   1.807   0.716 -1.7752 -2.4907  1.2589
 4086SOL     OW13113   3.001   4.063   7.306 -0.5679  0.2740  0.2036
 4086SOL    HW113114   2.911   4.093   7.313 -0.1649  1.2506  1.9234
 4086SOL    HW213115   3.028   4.046   7.397  0.7905 -0.5802 -0.3199
 4087SOL     OW13116   1.694   0.666   0.237 -0.1999  0.1422 -0.6026
 4087SOL    HW113117   1.677   0.672   0.142  0.8496  0.0963 -0.8012
 4087SOL    HW213118   1.758   0.595   0.245 -0.7634 -0.2809  0.2132
 4088SOL     OW13119   5.662   7.873   0.620  0.1238 -0.3400 -0.3784
 4088SOL    HW113120   5.633   7.783   0.602  0.2388 -0.3766 -0.3883
 4088SOL    HW213121   5.648   7.920   0.538 -1.2439  0.0099  0.0275
 4089SOL     OW13122   0.868   2.704   2.314  0.4308  0.1720 -0.4105
 4089SOL    HW113123   0.827   2.619   2.330 -1.7717  1.0919 -0.8963
 4089SOL    HW213124   0.886   2.706   2.220  0.0199  0.4167 -0.4882
 4090SOL     OW13125   4.089   6.757   7.419 -0.4747  0.1220 -0.4744
 4090SOL    HW113126   4.142   6.678   7.407  2.0804  1.6395  0.1046
 4090SOL    HW213127   4.013   6.727   7.469  1.2404 -1.7136  1.2565
 4091SOL     OW13128   0.870   1.696   7.727 -0.2501 -0.3315  0.2882
 4091SOL    HW113129   0.813   1.643   7.783 -0.0405  0.1788  0.9965
 4091SOL    HW213130   0.862   1.784   7.762 -0.9552  0.1965 -1.1730
 4092SOL     OW13131   3.754   4.098   4.674  0.0501  0.4922 -0.3202
 4092SOL    HW113132   3.793   4.010   4.673  0.8853  0.8617 -1.0365
 4092SOL    HW213133   3.662   4.082   4.696  0.5147 -0.4171  1.1199
 4093SOL     OW13134   0.704   7.574   5.905  0.2658  0.8446  0.4602
 4093SOL    HW113135   0.758   7.541   5.833  0.1664 -0.2361  0.8705
 4093SOL    HW213136   0.614   7.563   5.875  0.2285  0.6099  0.6615
 4094SOL     OW13137   7.229   4.794   0.666 -0.0402  0.4435  0.4196
 4094SOL    HW113138   7.286   4.870   0.675  0.1377  0.2983  0.5264
 4094SOL    HW213139   7.145   4.830   0.637  0.2013  0.6190 -0.0531
 4095SOL     OW13140   1.270   5.039   7.965 -0.2443  0.1768  0.1480
 4095SOL    HW113141   1.337   4.971   7.971  0.7927  0.5918 -3.7922
 4095SOL    HW213142   1.299   5.108   8.025  0.7392 -1.2206  1.3552
 4096SOL     OW13143   4.993   3.357   3.990 -1.1110 -0.1168  0.3221
 4096SOL    HW113144   5.005   3.448   3.962 -0.8697 -0.0321  0.7015
 4096SOL    HW213145   5.049   3.306   3.930 -0.4839  0.0805  0.7299
 4097SOL     OW13146   3.185   4.348   6.169 -0.0443  0.3086  0.3039
 4097SOL    HW113147   3.159   4.431   6.209  1.5412  1.0158 -0.0432
 4097SOL    HW213148   3.258   4.317   6.222 -1.6241 -1.7677  1.4435
 4098SOL     OW13149   7.179   7.448   7.048  0.1247  0.2954  0.3449
 4098SOL    HW113150   7.248   7.394   7.085  0.7664  1.3453  0.7234
 4098SOL    HW213151   7.177   7.526   7.103 -1.3623  0.2994  0.3342
 4099SOL     OW13152   5.805   3.026   6.740 -0.3673  0.2089  0.0626
 4099SOL    HW113153   5.745   2.951   6.739 -0.5727  0.3303  1.3825
 4099SOL    HW213154   5.751   3.100   6.712 -0.5163  0.0870  0.0269
 4100SOL     OW13155   3.424   1.887   1.354 -0.3275 -0.2406 -0.0894
 4100SOL    HW113156   3.408   1.975   1.319 -1.7731 -0.4155  0.0731
 4100SOL    HW213157   3.518   1.874   1.343 -0.1998  1.0507 -0.7618
 4101SOL     OW13158   5.845   4.173   6.068 -0.4141 -0.0643  0.0144
 4101SOL    HW113159   5.875   4.260   6.095  1.4649  0.5883 -3.5415
 4101SOL    HW213160   5.922   4.117   6.076 -0.9636 -0.8303  0.0456
 4102SOL     OW13161   5.162   3.339   0.450 -0.6172  0.9240  0.0929
 4102SOL    HW113162   5.134   3.255   0.415  1.3625 -0.2394  1.1449
 4102SOL    HW213163   5.256   3.329   0.466 -0.3364  3.3050  0.3457
 4103SOL     OW13164   5.058   4.695   4.201  0.1969 -0.7129  0.2235
 4103SOL    HW113165   4.977   4.644   4.191 -0.5415  0.0023  2.0890
 4103SOL    HW213166   5.037   4.761   4.267  1.9515  0.2926 -0.1528
 4104SOL     OW13167   5.952   4.399   1.760 -0.4198 -0.5042  0.2453
 4104SOL    HW113168   5.936   4.487   1.726  1.2496  0.3245  1.4464
 4104SOL    HW213169   6.033   4.408   1.810 -0.8552 -2.4710  1.3762
 4105SOL     OW13170   2.733   1.875   6.640  0.2618  0.2609 -0.3265
 4105SOL    HW113171   2.640   1.863   6.618 -0.4871  0.4612  2.4155
 4105SOL    HW213172   2.738   1.963   6.677  1.0442 -0.6147  1.7762
 4106SOL     OW13173   2.807   0.468   6.614 -0.1499 -0.0963 -0.7118
 4106SOL    HW113174   2.753   0.413   6.557  0.6038 -0.0067 -1.5238
 4106SOL    HW213175   2.744   0.522   6.662 -0.9542 -1.9081  0.3882
 4107SOL     OW13176   4.859   6.862   1.843  0.5956  0.2913  0.4088
 4107SOL    HW113177   4.892   6.927   1.904 -0.0637  0.0733  1.0050
 4107SOL    HW213178   4.924   6.859   1.773  0.0353  2.4957 -0.2746
 4108SOL     OW13179   1.122   6.451   5.279  0.5121 -0.0389  0.4560
 4108SOL    HW113180   1.048   6.393   5.297  0.1620 -0.0685 -0.9959
 4108SOL    HW213181   1.140   6.440   5.186  1.4059  1.0813  0.4654
 4109SOL     OW13182   3.888   2.088   0.188  0.3478 -0.4781 -0.3848
 4109SOL    HW113183   3.839   2.141   0.125  1.0418  0.4693 -0.1494
 4109SOL    HW213184   3.843   2.103   0.272  0.9494  0.3019 -0.1900
 4110SOL     OW13185   4.667   3.769   7.082 -0.9376  0.3938  0.4439
 4110SOL    HW113186   4.670   3.733   6.994  1.8417 -0.6237  0.8476
 4110SOL    HW213187   4.677   3.863   7.071 -1.9349  0.4167 -0.3524
 4111SOL     OW13188   6.407   0.891   0.112 -0.1318  0.3315  0.8007
 4111SOL    HW113189   6.466   0.830   0.156 -1.5681 -1.8327 -0.1240
 4111SOL    HW213190   6.320   0.863   0.138 -0.8587  2.3269  0.6976
 4112SOL     OW13191   5.917   4.937   7.844  0.2693  0.2144 -0.3695
 4112SOL    HW113192   5.871   4.922   7.761 -2.7150  0.1797  1.1654
 4112SOL    HW213193   5.891   4.862   7.899  3.0549 -0.3523  0.3175
 4113SOL     OW13194   0.855   3.705   7.865 -0.4748  0.3360  0.1737
 4113SOL    HW113195   0.871   3.721   7.772  1.5092 -1.9590  0.0402
 4113SOL    HW213196   0.917   3.637   7.889 -1.1663  0.6227  3.1359
 4114SOL     OW13197   0.517   7.447   6.439  0.0029 -0.0503  0.0964
 4114SOL    HW113198   0.508   7.356   6.410 -0.1651 -0.3913  1.1511
 4114SOL    HW213199   0.571   7.489   6.372  1.3211 -1.3008  0.3347
 4115SOL     OW13200   6.499   7.922   0.242 -0.1405  0.0752  0.6847
 4115SOL    HW113201   6.566   7.975   0.284 -0.5126  0.9618  0.1686
 4115SOL    HW213202   6.542   7.838   0.225  1.0447  0.8479 -0.2464
 4116SOL     OW13203   1.242   2.793   3.034  0.2807 -0.5289 -0.1163
 4116SOL    HW113204   1.335   2.807   3.015  0.0401  0.3803 -0.7187
 4116SOL    HW213205   1.197   2.829   2.958 -0.5856 -0.5229  0.3892
 4117SOL     OW13206   4.524   5.306   3.077 -0.2062 -0.5169 -0.2647
 4117SOL    HW113207   4.532   5.259   2.994 -0.8315 -0.7787 -0.1838
 4117SOL    HW213208   4.613   5.308   3.113  0.2105  0.2634 -1.2942
 4118SOL     OW13209   5.085   0.444   6.317  0.1804 -0.0742  0.2260
 4118SOL    HW113210   5.157   0.456   6.379 -1.6785 -0.2481  2.5720
 4118SOL    HW213211   5.082   0.525   6.268  1.1815  0.4429  0.9816
 4119SOL     OW13212   6.440   6.476   4.058  0.2815  0.2892 -0.2675
 4119SOL    HW113213   6.410   6.567   4.057  0.0784  0.2206 -0.5620
 4119SOL    HW213214   6.460   6.457   3.966 -1.1323 -0.4391 -0.4550
 4120SOL     OW13215   0.040   6.018   1.246  0.3751 -0.1822  0.1545
 4120SOL    HW113216   0.134   6.029   1.236  0.4438  0.6089  1.5227
 4120SOL    HW213217   0.020   6.052   1.333 -0.9566 -1.6821  0.4963
 4121SOL     OW13218   5.415   5.790   1.399  0.8190  0.0977  0.0775
 4121SOL    HW113219   5.326   5.773   1.369  1.1458  0.3457 -1.1209
 4121SOL    HW213220   5.407   5.863   1.460  0.1240 -0.3491  0.5274
 4122SOL     OW13221   0.735   4.401   6.863  0.0632  0.1702  0.3982
 4122SOL    HW113222   0.761   4.390   6.772  0.4028  1.5704  0.3053
 4122SOL    HW213223   0.766   4.322   6.907  2.1089  0.5650 -0.2407
 4123SOL     OW13224   7.494   4.521   0.147  0.0106 -0.1730  0.1171
 4123SOL    HW113225   7.520   4.476   0.228  2.3194  2.8145  1.2202
 4123SOL    HW213226   7.420   4.576   0.174  0.5514  0.5501  0.1692
 4124SOL     OW13227   3.843   3.308   2.224 -0.0678  0.0656 -0.6001
 4124SOL    HW113228   3.792   3.245   2.174 -1.1153  1.5118 -1.4232
 4124SOL    HW213229   3.852   3.384   2.166  0.9947  0.7581  0.4190
 4125SOL     OW13230   0.355   6.290   3.559  0.1784 -0.1015  0.4455
 4125SOL    HW113231   0.426   6.227   3.543  1.0619  0.2423  2.6610
 4125SOL    HW213232   0.284   6.236   3.593  0.2293 -0.1332  0.5016
 4126SOL     OW13233   6.700   3.529   3.829 -0.5121 -0.1881  0.6135
 4126SOL    HW113234   6.721   3.544   3.921 -1.6800 -0.9993  1.0382
 4126SOL    HW213235   6.615   3.572   3.817 -0.8997 -1.0384  0.2269
 4127SOL     OW13236   0.342   2.499   4.583 -0.4373  0.2183 -0.1723
 4127SOL    HW113237   0.363   2.497   4.676 -2.3785  0.8081  0.3258
 4127SOL    HW213238   0.400   2.434   4.544  1.8136  1.3647  1.1031
 4128SOL     OW13239   3.780   1.559   3.310  0.1365 -0.1763 -0.4406
 4128SOL    HW113240   3.804   1.493   3.245 -1.7487 -1.6063  0.2410
 4128SOL    HW213241   3.851   1.554   3.375 -0.4015 -2.2505  0.0762
 4129SOL     OW13242   7.561   3.285   0.860 -0.0341 -0.4362  0.3146
 4129SOL    HW113243   7.622   3.250   0.925 -0.9520 -2.9054 -0.0420
 4129SOL    HW213244   7.589   3.376   0.847  2.2316 -0.8659  1.6766
 4130SOL     OW13245   1.259   2.665   0.601 -0.3152 -0.7637  0.1224
 4130SOL    HW113246   1.235   2.691   0.512  0.9036  0.3496  0.0974
 4130SOL    HW213247   1.349   2.695   0.611 -0.5908 -0.4408  1.9057
 4131SOL     OW13248   1.994   2.365   3.118  0.4450  0.4444  0.3780
 4131SOL    HW113249   2.071   2.341   3.067 -0.2989 -0.5662 -0.3014
 4131SOL    HW213250   1.933   2.292   3.106 -1.1018  1.7484 -0.1062
 4132SOL     OW13251   7.899   6.520   1.877  0.0935  0.1036 -0.0830
 4132SOL    HW113252   7.890   6.615   1.888  0.6969  0.1826 -0.2673
 4132SOL    HW213253   7.945   6.509   1.794 -0.8586 -0.3875 -0.5673
 4133SOL     OW13254   4.442   0.595   5.080  1.0440 -0.3150 -0.5881
 4133SOL    HW113255   4.511   0.557   5.134 -0.0970 -3.2106 -0.9864
 4133SOL    HW213256   4.485   0.615   4.997  2.1834  1.5509  0.3906
 4134SOL     OW13257   6.724   1.529   0.610 -0.0482 -0.0490 -0.2588
 4134SOL    HW113258   6.743   1.446   0.566 -0.3011  0.4111 -1.2474
 4134SOL    HW213259   6.696   1.503   0.698  2.4007 -0.8879  0.3501
 4135SOL     OW13260   2.760   5.068   7.389  0.7446 -0.7301 -0.0052
 4135SOL    HW113261   2.695   5.019   7.338 -1.0500  1.1115  0.3583
 4135SOL    HW213262   2.738   5.160   7.373  2.9023 -0.0374  0.6718
 4136SOL     OW13263   4.234   4.720   0.707 -0.4908 -0.2153  0.3181
 4136SOL    HW113264   4.241   4.649   0.771 -0.0856 -0.9030 -0.4755
 4136SOL    HW213265   4.195   4.680   0.630  0.1006  0.3290 -0.2768
 4137SOL     OW13266   1.404   3.812   4.483 -0.0279 -0.5853  0.3223
 4137SOL    HW113267   1.394   3.717   4.495 -0.6695 -0.8569 -1.9077
 4137SOL    HW213268   1.337   3.850   4.540  0.4123 -1.4202  1.4543
 4138SOL     OW13269   0.765   4.009   3.580 -0.3676 -0.0216 -0.2250
 4138SOL    HW113270   0.825   4.084   3.578  0.2391 -0.5178 -0.9135
 4138SOL    HW213271   0.816   3.937   3.617 -1.2725  0.1441  1.4815
 4139SOL     OW13272   3.222   2.677   7.497 -0.5733  0.2488  0.3645
 4139SOL    HW113273   3.214   2.771   7.514  0.0086  0.2127  0.8746
 4139SOL    HW213274   3.185   2.665   7.409 -0.8292  0.9208  0.3751
 4140SOL     OW13275   5.944   2.289   1.074  0.4809 -0.2317 -0.5140
 4140SOL    HW113276   5.948   2.221   1.007 -1.6792 -0.4012 -0.5546
 4140SOL    HW213277   5.941   2.241   1.157 -1.9101 -0.3337 -0.5741
 4141SOL     OW13278   3.405   4.906   0.509 -0.0417  0.3007 -0.2477
 4141SOL    HW113279   3.317   4.931   0.537 -0.3626  0.9766 -1.7688
 4141SOL    HW213280   3.462   4.972   0.547  0.1475 -1.3067  2.5433
 4142SOL     OW13281   7.910   0.395   4.658  0.3778  0.7824 -0.4695
 4142SOL    HW113282   7.946   0.362   4.576 -2.2349 -0.8079 -1.0664
 4142SOL    HW213283   7.869   0.479   4.635 -2.2091 -0.6407 -1.3609
 4143SOL     OW13284   5.285   3.577   6.656 -0.1192 -0.2310  0.3368
 4143SOL    HW113285   5.340   3.651   6.683  0.1685 -0.2922 -0.0665
 4143SOL    HW213286   5.231   3.558   6.732 -1.8611  1.8766 -0.2430
 4144SOL     OW13287   6.486   3.397   6.427 -0.5319  0.3164  0.5750
 4144SOL    HW113288   6.452   3.485   6.412 -1.1819  0.0512  0.4702
 4144SOL    HW213289   6.572   3.411   6.468 -1.1542  0.9822  1.7016
 4145SOL     OW13290   0.729   2.687   4.178 -0.0130  0.5298  0.5390
 4145SOL    HW113291   0.782   2.619   4.220 -1.1459  0.9003  2.6937
 4145SOL    HW213292   0.793   2.738   4.127  0.9589 -1.6703 -0.5922
 4146SOL     OW13293   1.543   5.953   6.550  0.3610  0.0124  0.6966
 4146SOL    HW113294   1.563   5.959   6.456 -1.2655 -1.1370  0.2274
 4146SOL    HW213295   1.452   5.983   6.556 -0.0143 -1.2401  1.6788
 4147SOL     OW13296   0.839   3.821   2.767  0.4173  0.1624 -0.0222
 4147SOL    HW113297   0.908   3.850   2.708  0.1951  1.5000  0.3277
 4147SOL    HW213298   0.835   3.726   2.756  1.3273  0.2333 -1.0982
 4148SOL     OW13299   6.229   2.567   0.602 -0.0180  0.1056 -0.1493
 4148SOL    HW113300   6.206   2.490   0.653 -1.0528 -1.1110 -2.3521
 4148SOL    HW213301   6.145   2.606   0.578  0.4171  0.3341 -1.3557
 4149SOL     OW13302   8.002   0.344   6.854 -0.2926 -0.0841 -0.0567
 4149SOL    HW113303   8.064   0.417   6.843 -2.0884  1.4899 -0.1952
 4149SOL    HW213304   7.971   0.326   6.765  0.4649 -1.3915 -0.0921
 4150SOL     OW13305   3.678   2.684   5.248  0.6153 -0.0179 -0.1105
 4150SOL    HW113306   3.655   2.773   5.276 -0.2068  0.0039 -0.8080
 4150SOL    HW213307   3.610   2.660   5.185  1.0332 -1.0063 -0.2123
 4151SOL     OW13308   4.338   3.816   0.746  0.8149 -0.0637  0.5537
 4151SOL    HW113309   4.269   3.860   0.795  0.0242 -1.2190  0.5033
 4151SOL    HW213310   4.310   3.725   0.741  2.5532 -0.6561  0.8950
 4152SOL     OW13311   3.767   4.016   6.294 -0.3366 -0.1750  0.2188
 4152SOL    HW113312   3.815   4.048   6.217  0.8622 -2.0067  0.1415
 4152SOL    HW213313   3.821   4.043   6.369 -0.7371  0.3064  0.3445
 4153SOL     OW13314   5.900   0.451   7.738  0.3391  0.0273  0.0172
 4153SOL    HW113315   5.992   0.433   7.717  0.0628 -0.1419 -1.1515
 4153SOL    HW213316   5.860   0.364   7.744 -0.4094  0.0742 -2.8217
 4154SOL     OW13317   1.835   1.620   0.356  0.2066  0.5993  0.2433
 4154SOL    HW113318   1.839   1.589   0.265  1.7858  0.3363  0.3766
 4154SOL    HW213319   1.817   1.541   0.407  1.3043  0.3914  0.3234
 4155SOL     OW13320   5.067   3.329   1.290  0.4755  0.4853  0.0427
 4155SOL    HW113321   5.013   3.250   1.288  1.0656 -0.0234  1.8408
 4155SOL    HW213322   5.154   3.297   1.315  0.5182  1.7765  1.7190
 4156SOL     OW13323   7.354   1.881   4.564  0.0690 -0.4180 -0.3756
 4156SOL    HW113324   7.258   1.884   4.562 -0.1626 -1.9378  2.7851
 4156SOL    HW213325   7.374   1.817   4.632  3.3433  0.8338 -0.0174
 4157SOL     OW13326   3.113   2.732   1.115 -0.4043 -0.0984 -0.3232
 4157SOL    HW113327   3.147   2.808   1.163 -1.0163  0.2992 -0.5004
 4157SOL    HW213328   3.018   2.737   1.127 -0.4104 -1.2445  0.2459
 4158SOL     OW13329   4.914   2.631   6.577  0.0813 -0.1744  0.0105
 4158SOL    HW113330   4.853   2.704   6.583  2.0499  1.6206 -0.6442
 4158SOL    HW213331   4.883   2.579   6.503 -0.2630  1.0991 -0.7705
 4159SOL     OW13332   2.424   5.223   7.056  0.2399  0.0402  0.2062
 4159SOL    HW113333   2.420   5.222   7.152  0.5930  1.2180  0.2539
 4159SOL    HW213334   2.501   5.277   7.036 -1.2339  1.9483 -0.7190
 4160SOL     OW13335   0.232   4.962   4.336  0.0673 -0.3093  0.1766
 4160SOL    HW113336   0.233   5.032   4.402  0.3992 -1.1379  1.0706
 4160SOL    HW213337   0.141   4.934   4.333 -0.0398  0.0585 -0.0776
 4161SOL     OW13338   0.942   4.334   2.468 -0.2779 -0.1514 -0.2016
 4161SOL    HW113339   0.932   4.413   2.415 -2.8038 -0.6248 -0.5284
 4161SOL    HW213340   0.872   4.339   2.533 -1.5547 -2.8463 -1.2154
 4162SOL     OW13341   0.779   6.811   3.758 -0.4954 -0.1670  0.1366
 4162SOL    HW113342   0.714   6.827   3.689 -0.9746  0.9623  0.8221
 4162SOL    HW213343   0.767   6.719   3.781 -0.7992 -0.3757 -0.8141
 4163SOL     OW13344   4.786   2.608   5.854  0.0006 -0.0909 -0.5443
 4163SOL    HW113345   4.777   2.588   5.761 -0.3369 -3.1438  0.0260
 4163SOL    HW213346   4.725   2.680   5.870 -0.9995 -0.4725 -2.4136
 4164SOL     OW13347   6.724   6.317   0.357  0.6021  0.2375 -0.6297
 4164SOL    HW113348   6.705   6.252   0.424 -0.5767  0.9389 -0.2583
 4164SOL    HW213349   6.793   6.277   0.303 -0.3012 -1.4333 -0.5943
 4165SOL     OW13350   1.641   3.989   2.443  0.2126 -0.2254 -0.1312
 4165SOL    HW113351   1.689   4.072   2.443  0.5939 -0.4425  0.1966
 4165SOL    HW213352   1.583   3.995   2.519  1.1633 -0.7777  0.6574
 4166SOL     OW13353   1.831   3.773   4.127 -0.3946  0.1732  0.4430
 4166SOL    HW113354   1.862   3.689   4.094 -1.1654 -0.6266  1.6786
 4166SOL    HW213355   1.742   3.756   4.158 -0.2837  1.2561  1.4369
 4167SOL     OW13356   1.092   7.888   4.174  0.5110 -0.2114  0.1266
 4167SOL    HW113357   1.090   7.872   4.268 -1.3462  0.1488  0.1766
 4167SOL    HW213358   1.010   7.851   4.141 -0.4436  2.4925 -0.8391
 4168SOL     OW13359   2.490   3.433   4.226 -0.8088  0.5343 -0.4853
 4168SOL    HW113360   2.523   3.361   4.172  0.3476  0.8813 -0.2593
 4168SOL    HW213361   2.467   3.392   4.309 -0.6457  0.3443 -0.5348
 4169SOL     OW13362   0.897   4.532   1.709 -0.1959 -0.8172 -0.0961
 4169SOL    HW113363   0.832   4.467   1.738  0.0703 -0.5170  1.2549
 4169SOL    HW213364   0.960   4.536   1.781  1.9672 -1.9000 -1.8022
 4170SOL     OW13365   1.950   0.184   2.549  0.2546  0.8334  0.3212
 4170SOL    HW113366   1.859   0.174   2.519  0.5112  1.6384 -0.8211
 4170SOL    HW213367   1.953   0.140   2.634 -0.4603 -1.9514 -0.9620
 4171SOL     OW13368   1.734   7.337   0.473 -0.4973  0.0863 -0.6405
 4171SOL    HW113369   1.793   7.262   0.467 -2.0291 -1.0717 -2.2818
 4171SOL    HW213370   1.663   7.308   0.530  0.3978  1.4439  1.2742
 4172SOL     OW13371   1.608   7.433   0.121 -0.0519  0.8802  0.0034
 4172SOL    HW113372   1.532   7.461   0.069 -1.6861  1.4617  2.5297
 4172SOL    HW213373   1.593   7.339   0.135 -1.4392  1.3415  2.0827
 4173SOL     OW13374   5.074   3.607   5.892  0.4690  0.5655 -0.2501
 4173SOL    HW113375   5.042   3.586   5.804 -3.0469 -2.3969  1.4354
 4173SOL    HW213376   5.046   3.697   5.907 -0.3170  0.5742 -1.6181
 4174SOL     OW13377   5.651   5.009   6.595 -0.0220  0.3675 -0.0382
 4174SOL    HW113378   5.721   5.061   6.557  0.5059  1.6425  2.5107
 4174SOL    HW213379   5.694   4.931   6.629  0.4328  1.5587  2.3304
 4175SOL     OW13380   4.474   0.306   1.796 -0.6612 -0.0234  0.1639
 4175SOL    HW113381   4.547   0.272   1.745 -1.9705 -1.8893 -0.6077
 4175SOL    HW213382   4.506   0.387   1.834  1.2148  0.1006 -1.5379
 4176SOL     OW13383   4.024   5.233   7.080 -0.0338 -0.0404  0.1618
 4176SOL    HW113384   4.018   5.265   7.170  0.9051 -0.3380  0.3406
 4176SOL    HW213385   3.988   5.303   7.027  1.0015  0.8876  0.6427
 4177SOL     OW13386   6.647   4.793   7.765  0.0105 -0.5200  0.1951
 4177SOL    HW113387   6.607   4.776   7.850  1.1195  0.9861  1.0772
 4177SOL    HW213388   6.732   4.832   7.786 -0.4142  1.5389 -1.5905
 4178SOL     OW13389   0.107   5.074   6.043  0.3826  0.6455  0.4162
 4178SOL    HW113390   0.044   5.108   6.106  0.5397 -0.1398  1.0088
 4178SOL    HW213391   0.141   4.994   6.083 -0.1378 -0.3421 -1.0331
 4179SOL     OW13392   0.707   3.849   0.646 -0.3935 -0.1509  0.0964
 4179SOL    HW113393   0.644   3.778   0.635 -2.0395  1.4262 -1.3322
 4179SOL    HW213394   0.700   3.900   0.565  0.8975  1.5131  0.9718
 4180SOL     OW13395   0.334   2.489   7.864  0.0567  0.2843 -0.2617
 4180SOL    HW113396   0.324   2.565   7.807 -0.7181  0.3115 -0.0928
 4180SOL    HW213397   0.336   2.414   7.804 -1.2284  0.2720 -0.3102
 4181SOL     OW13398   0.020   6.779   7.666 -0.1996 -0.3067  0.8534
 4181SOL    HW113399  -0.019   6.697   7.694 -1.3486 -0.1301 -0.1470
 4181SOL    HW213400  -0.055   6.836   7.647  0.5692  0.7334  0.8403
 4182SOL     OW13401   2.311   3.931   4.337  0.3728 -0.1087 -0.0425
 4182SOL    HW113402   2.222   3.919   4.306  0.1276 -0.8866  0.9301
 4182SOL    HW213403   2.347   3.842   4.342  1.7223  0.2602 -1.8398
 4183SOL     OW13404   0.490   5.516   5.482 -0.0954  0.0300 -0.7300
 4183SOL    HW113405   0.425   5.584   5.499 -1.3501 -1.0341 -1.0830
 4183SOL    HW213406   0.527   5.497   5.568 -0.1970  0.7031 -0.5320
 4184SOL     OW13407   5.867   2.002   1.098 -0.4891  0.4017  0.1549
 4184SOL    HW113408   5.821   2.007   1.182  1.7327 -0.9029  1.5510
 4184SOL    HW213409   5.811   1.949   1.043 -0.6161 -1.3950  1.8943
 4185SOL     OW13410   3.728   5.752   4.356  0.0725  0.3007 -0.3568
 4185SOL    HW113411   3.772   5.765   4.272 -0.1062  1.4344 -0.2881
 4185SOL    HW213412   3.714   5.657   4.361  2.6959 -0.1416 -0.2553
 4186SOL     OW13413   0.612   6.973   1.817  0.1137  0.4788 -0.3374
 4186SOL    HW113414   0.516   6.982   1.809  0.1234  0.7199 -0.2208
 4186SOL    HW213415   0.625   6.932   1.902  0.0945 -0.0334 -0.5808
 4187SOL     OW13416   6.358   3.265   5.044 -0.3697  0.0260 -0.2039
 4187SOL    HW113417   6.337   3.358   5.039 -0.6029 -0.0381 -0.4762
 4187SOL    HW213418   6.278   3.221   5.015  0.2157 -0.2162 -1.5537
 4188SOL     OW13419   7.588   1.491   7.072 -0.1408 -0.6229  0.3507
 4188SOL    HW113420   7.511   1.441   7.095 -1.1480  1.3583  1.5767
 4188SOL    HW213421   7.584   1.500   6.976 -1.4293 -0.5737  0.3972
 4189SOL     OW13422   4.477   5.561   5.983  0.1845 -0.1102  0.0013
 4189SOL    HW113423   4.434   5.477   5.998 -0.0364 -0.1311 -0.6933
 4189SOL    HW213424   4.408   5.617   5.949  0.0352  0.7378  1.6077
 4190SOL     OW13425   7.665   6.787   2.663  0.3147  0.6754  0.3732
 4190SOL    HW113426   7.706   6.773   2.748 -0.5020  1.8113  0.9783
 4190SOL    HW213427   7.666   6.700   2.621 -2.6565 -0.8737  3.0744
 4191SOL     OW13428   1.682   0.601   1.834 -0.2143 -0.6965  0.3271
 4191SOL    HW113429   1.666   0.541   1.907  0.4518 -0.6280  0.5340
 4191SOL    HW213430   1.777   0.602   1.825 -0.1485  1.0597  0.9361
 4192SOL     OW13431   4.958   0.160   5.999 -0.3542  0.0698 -0.5593
 4192SOL    HW113432   4.989   0.214   5.926  0.2206  0.6626  0.1139
 4192SOL    HW213433   5.030   0.161   6.062 -0.4184 -1.3063 -0.4275
 4193SOL     OW13434   5.287   3.893   6.473  0.0068 -0.4642 -0.4833
 4193SOL    HW113435   5.266   3.899   6.566  1.2173 -1.6200 -0.0941
 4193SOL    HW213436   5.205   3.869   6.430 -0.9757  1.7376  0.0145
 4194SOL     OW13437   2.098   6.782   5.733 -0.4824 -0.0675  0.1354
 4194SOL    HW113438   2.098   6.824   5.647 -1.7920  0.8577  0.5464
 4194SOL    HW213439   2.081   6.853   5.794  3.5887 -0.0860  1.5826
 4195SOL     OW13440   4.449   7.335   3.000 -0.0960 -0.0701  0.1593
 4195SOL    HW113441   4.447   7.241   3.014 -1.1983 -0.3800 -1.7579
 4195SOL    HW213442   4.505   7.348   2.924 -2.3137  0.4625 -1.4924
 4196SOL     OW13443   2.732   0.516   5.194  0.6284  0.0675 -0.3745
 4196SOL    HW113444   2.662   0.455   5.169  1.0402 -0.2799 -0.7042
 4196SOL    HW213445   2.802   0.459   5.227 -0.0405  0.5155  2.0318
 4197SOL     OW13446   7.990   2.921   7.631 -0.0447 -0.0727  0.0748
 4197SOL    HW113447   7.978   2.874   7.713 -1.1101  0.8645  0.4807
 4197SOL    HW213448   8.085   2.937   7.627  0.2015 -1.3383  0.4077
 4198SOL     OW13449   6.535   7.499   7.247 -0.7416  0.2476  0.1832
 4198SOL    HW113450   6.622   7.525   7.217 -0.9147 -0.1863 -0.7626
 4198SOL    HW213451   6.520   7.549   7.327  0.0722  0.8894 -0.0547
 4199SOL     OW13452   1.055   1.717   0.760  0.1027 -1.0917  0.2405
 4199SOL    HW113453   1.109   1.755   0.829  0.7531 -0.0906 -0.7821
 4199SOL    HW213454   1.057   1.782   0.690 -0.8841 -1.8945 -0.5586
 4200SOL     OW13455   7.944   4.460   1.690 -0.0937 -0.2488  0.1151
 4200SOL    HW113456   7.998   4.391   1.649  1.9827  1.3019  0.0794
 4200SOL    HW213457   8.005   4.506   1.748 -1.2070  2.0030 -0.4022
 4201SOL     OW13458   6.222   7.410   4.233 -0.0736 -0.5297 -0.0073
 4201SOL    HW113459   6.202   7.320   4.208  0.0817 -0.7090  0.4989
 4201SOL    HW213460   6.289   7.438   4.170  0.2051 -0.9233  0.1104
 4202SOL     OW13461   1.095   0.701   4.273 -0.3436 -0.5782 -0.3878
 4202SOL    HW113462   1.043   0.776   4.243  0.7015 -0.1688 -1.2244
 4202SOL    HW213463   1.035   0.626   4.266 -1.2979  0.1101  0.1530
 4203SOL     OW13464   3.693   1.452   6.249 -0.2496 -0.3713 -0.2234
 4203SOL    HW113465   3.733   1.493   6.326  0.9097  1.5025 -1.7385
 4203SOL    HW213466   3.766   1.413   6.202 -0.3378  1.6522 -2.1773
 4204SOL     OW13467   3.904   0.011   0.491 -0.1081  0.4809 -0.5220
 4204SOL    HW113468   3.940  -0.028   0.412 -0.0058  0.8703 -0.6658
 4204SOL    HW213469   3.809   0.012   0.477 -0.0226  1.5461 -1.1004
 4205SOL     OW13470   2.177   7.463   3.202  0.0208 -0.1380 -0.0626
 4205SOL    HW113471   2.253   7.456   3.145 -0.5565 -3.0339 -0.6216
 4205SOL    HW213472   2.185   7.389   3.262 -1.3991  0.5920  1.0858
 4206SOL     OW13473   6.983   5.567   0.134 -0.3014  0.3193 -0.0713
 4206SOL    HW113474   7.047   5.497   0.126 -1.9605 -1.2043 -0.5373
 4206SOL    HW213475   7.020   5.639   0.082  0.4024 -0.9839 -1.4513
 4207SOL     OW13476   0.131   4.801   2.506  0.4274 -0.5197  0.3048
 4207SOL    HW113477   0.096   4.855   2.435  0.7050 -0.8408 -0.0835
 4207SOL    HW213478   0.080   4.720   2.502 -1.4411  0.4734  2.2203
 4208SOL     OW13479   5.953   0.524   3.325 -0.9239 -0.2938  0.1503
 4208SOL    HW113480   5.920   0.545   3.238  0.7505  0.9623 -0.2328
 4208SOL    HW213481   6.031   0.470   3.309 -0.1946  0.5317  0.8208
 4209SOL     OW13482   6.430   5.946   1.929  0.4409 -0.4747 -0.1632
 4209SOL    HW113483   6.484   5.908   1.998 -0.6378 -0.0539  0.9524
 4209SOL    HW213484   6.384   5.872   1.890  0.3504 -0.6168  0.2109
 4210SOL     OW13485   4.955   6.435   7.909 -0.5627 -0.0128  0.1381
 4210SOL    HW113486   4.991   6.500   7.970  2.6064 -1.2679 -0.1883
 4210SOL    HW213487   4.954   6.480   7.825  2.8277 -0.5635 -0.3436
 4211SOL     OW13488   0.917   5.801   7.442  0.0325 -0.1084  0.4318
 4211SOL    HW113489   0.827   5.818   7.469  0.4613  2.2882  0.4999
 4211SOL    HW213490   0.961   5.774   7.523 -0.3136 -0.0288  0.6474
 4212SOL     OW13491   0.202   6.747   1.575 -0.2897 -0.3483  0.1525
 4212SOL    HW113492   0.254   6.693   1.515 -1.8468  0.5065 -2.0885
 4212SOL    HW213493   0.210   6.703   1.660  1.0997 -2.2406 -0.8824
 4213SOL     OW13494   1.070   7.837   3.657 -0.4639 -0.1147 -0.3635
 4213SOL    HW113495   1.043   7.839   3.749  1.1088 -1.0874  0.1418
 4213SOL    HW213496   0.988   7.820   3.609 -1.2968  0.3460  0.8386
 4214SOL     OW13497   5.486   4.482   1.494 -0.7118  0.0897  0.0595
 4214SOL    HW113498   5.439   4.447   1.418 -1.7125 -2.2583  1.6296
 4214SOL    HW213499   5.417   4.523   1.547 -0.4146 -0.2539  0.7247
 4215SOL     OW13500   1.544   2.896   3.848  0.8632  0.1431  0.0704
 4215SOL    HW113501   1.629   2.918   3.883  1.2130 -1.2655  0.1791
 4215SOL    HW213502   1.514   2.975   3.803  2.0442  0.7696  0.3743
 4216SOL     OW13503   6.189   3.791   1.830 -0.0520  0.1694 -0.3124
 4216SOL    HW113504   6.177   3.698   1.851  1.6681 -0.0468 -0.1967
 4216SOL    HW213505   6.255   3.821   1.892  0.5588  1.0813 -1.3839
 4217SOL     OW13506   7.263   3.573   2.174  0.6795  0.0394  0.3988
 4217SOL    HW113507   7.188   3.527   2.136  3.0308 -2.8698 -1.1437
 4217SOL    HW213508   7.271   3.537   2.262  1.2318 -0.9114 -0.0338
 4218SOL     OW13509   4.830   2.582   0.338  0.1986 -0.1743  0.2817
 4218SOL    HW113510   4.849   2.538   0.420 -2.0727  0.2144  1.0895
 4218SOL    HW213511   4.792   2.514   0.282 -1.5912  0.2809  0.8772
 4219SOL     OW13512   7.055   3.167   2.025 -0.0378 -0.0319 -0.3260
 4219SOL    HW113513   7.117   3.099   2.049  1.6164  1.2914 -0.7037
 4219SOL    HW213514   7.008   3.132   1.949 -0.2833 -1.3269  0.3938
 4220SOL     OW13515   4.591   0.118   7.214 -0.5944  0.2445 -0.2407
 4220SOL    HW113516   4.554   0.038   7.252  0.2612 -0.6886 -1.3092
 4220SOL    HW213517   4.668   0.137   7.268 -0.7616  0.3322 -0.0282
 4221SOL     OW13518   4.024   1.896   3.574 -0.2322  0.4575 -0.2884
 4221SOL    HW113519   4.037   1.990   3.582  0.3641  0.4128 -0.6845
 4221SOL    HW213520   3.990   1.884   3.485 -0.3198  0.3002 -0.2333
 4222SOL     OW13521   5.142   1.357   5.187 -0.9569 -0.3408  0.2303
 4222SOL    HW113522   5.195   1.339   5.109  0.0876  1.7541  0.3883
 4222SOL    HW213523   5.112   1.271   5.216  0.2006 -1.3482 -1.3782
 4223SOL     OW13524   5.267   6.160   6.098  0.6499  0.8131  0.4552
 4223SOL    HW113525   5.264   6.082   6.153  0.0897  1.0069  0.7132
 4223SOL    HW213526   5.343   6.148   6.042  0.6293  0.1367  0.5719
 4224SOL     OW13527   1.799   0.627   0.521  0.2269  0.1102 -0.5162
 4224SOL    HW113528   1.716   0.666   0.494 -0.1832 -0.8136 -0.6337
 4224SOL    HW213529   1.829   0.580   0.444  1.0989  0.8243 -0.6175
 4225SOL     OW13530   3.222   5.607   4.629 -0.1716 -0.4436  0.0430
 4225SOL    HW113531   3.282   5.575   4.562 -0.3547  1.0216 -0.8642
 4225SOL    HW213532   3.186   5.528   4.668  2.1653 -1.3715  0.4748
 4226SOL     OW13533   0.169   6.098   0.419 -0.5967 -0.1158 -0.5246
 4226SOL    HW113534   0.097   6.038   0.434  0.4161 -1.4587 -0.8485
 4226SOL    HW213535   0.230   6.080   0.491  0.1422 -0.1530 -1.1425
 4227SOL     OW13536   7.609   2.160   5.614 -0.2385 -0.3291  0.4035
 4227SOL    HW113537   7.660   2.080   5.618 -0.2801 -0.4459 -0.9122
 4227SOL    HW213538   7.584   2.168   5.522 -2.3299 -0.1272  0.9299
 4228SOL     OW13539   0.236   1.935   1.323 -0.0161  0.5419 -0.2526
 4228SOL    HW113540   0.244   2.030   1.336  1.3126  0.3326  0.7094
 4228SOL    HW213541   0.308   1.913   1.264 -0.1735  0.0865 -0.2777
 4229SOL     OW13542   6.427   7.718   0.639  0.2707 -0.1245 -0.4482
 4229SOL    HW113543   6.371   7.737   0.714 -0.9045 -1.6702 -0.8691
 4229SOL    HW213544   6.512   7.754   0.662 -0.3792  0.4812  1.1050
 4230SOL     OW13545   3.356   4.857   6.918  0.4575 -0.0857 -0.3919
 4230SOL    HW113546   3.361   4.796   6.844  0.5427 -1.4422  0.6698
 4230SOL    HW213547   3.265   4.854   6.945  0.6621 -0.5386  0.2817
 4231SOL     OW13548   4.033   3.199   7.304 -0.1329 -0.1214 -0.1675
 4231SOL    HW113549   4.072   3.241   7.382 -0.1721  0.2530 -0.3466
 4231SOL    HW213550   3.990   3.271   7.258  0.2519 -0.2682 -0.7591
 4232SOL     OW13551   1.342   0.093   7.578 -0.2177  0.3100 -0.1220
 4232SOL    HW113552   1.396   0.016   7.591 -0.5553  0.0488 -0.2651
 4232SOL    HW213553   1.397   0.166   7.607  0.1225  0.0240 -0.0478
 4233SOL     OW13554   4.597   5.849   1.247 -0.1267 -0.2456 -0.1008
 4233SOL    HW113555   4.516   5.816   1.286 -0.3776 -0.7209 -0.9923
 4233SOL    HW213556   4.574   5.868   1.157  0.7347 -0.3056 -0.3440
 4234SOL     OW13557   7.606   0.751   3.813  0.0718  0.4035  0.1849
 4234SOL    HW113558   7.608   0.841   3.782  0.3385  0.1800 -0.4614
 4234SOL    HW213559   7.524   0.715   3.778  1.6511 -0.6765 -2.7043
 4235SOL     OW13560   7.977   1.911   0.693  0.3917  0.1745 -0.3289
 4235SOL    HW113561   7.934   1.979   0.745 -1.5386 -1.2387  0.0432
 4235SOL    HW213562   8.070   1.920   0.713 -0.2464 -0.3120  3.4393
 4236SOL     OW13563   4.012   4.182   5.262  0.1252  0.3412  0.6395
 4236SOL    HW113564   4.088   4.200   5.318  1.6537 -2.0955 -0.4538
 4236SOL    HW213565   3.987   4.092   5.285 -0.6279  0.0993 -0.9961
 4237SOL     OW13566   5.357   3.415   1.064  0.4951 -1.0997 -0.1291
 4237SOL    HW113567   5.426   3.409   0.998  0.1788 -0.7463 -0.4996
 4237SOL    HW213568   5.337   3.324   1.088  0.2800 -1.2518 -0.8719
 4238SOL     OW13569   2.424   6.188   1.783 -0.6087 -0.0731 -0.3969
 4238SOL    HW113570   2.357   6.227   1.727 -0.9674  0.4396  0.3662
 4238SOL    HW213571   2.454   6.260   1.839  1.1925 -0.0842 -1.2735
 4239SOL     OW13572   7.827   1.955   0.452 -0.2247 -0.2191 -1.0924
 4239SOL    HW113573   7.859   1.908   0.529 -1.6277 -1.5985 -1.2897
 4239SOL    HW213574   7.905   1.989   0.410  0.6804 -0.6119  0.2100
 4240SOL     OW13575   6.330   0.844   6.024  1.2658  0.0440  0.2137
 4240SOL    HW113576   6.329   0.798   6.108 -1.4858  1.6638  1.2227
 4240SOL    HW213577   6.352   0.934   6.046  0.9375  0.4114 -0.8797
 4241SOL     OW13578   1.747   5.008   5.684  0.7777  0.1439 -0.3141
 4241SOL    HW113579   1.787   4.982   5.601  0.9420 -2.1083  0.4164
 4241SOL    HW213580   1.811   5.067   5.723  0.7472  1.1612 -1.7039
 4242SOL     OW13581   1.982   2.237   5.676  0.0500 -0.2346 -0.1110
 4242SOL    HW113582   1.973   2.271   5.587 -0.0383 -0.8527 -0.3378
 4242SOL    HW213583   1.935   2.154   5.675 -1.2312  0.4424  0.9188
 4243SOL     OW13584   5.743   3.893   6.648 -0.4443  0.3546 -0.6698
 4243SOL    HW113585   5.733   3.944   6.567  0.9227  0.5427 -0.7532
 4243SOL    HW213586   5.786   3.953   6.709 -1.3584  0.1733  0.1698
 4244SOL     OW13587   3.365   4.551   0.856 -0.3329 -0.0003 -0.1817
 4244SOL    HW113588   3.433   4.611   0.822 -0.3090  0.3673  0.4993
 4244SOL    HW213589   3.398   4.464   0.835  0.7828  0.1326  0.8822
 4245SOL     OW13590   4.085   1.944   0.030  0.4952  0.2685 -0.6004
 4245SOL    HW113591   4.143   1.935   0.105  1.0441 -0.0753 -1.0611
 4245SOL    HW213592   4.004   1.981   0.066  0.1084 -1.4958  0.4651
 4246SOL     OW13593   7.394   0.299   5.978 -0.4665  0.0630 -0.0809
 4246SOL    HW113594   7.436   0.247   5.909  0.0515 -1.8134  1.5539
 4246SOL    HW213595   7.302   0.301   5.952 -0.6191 -2.2047  0.0269
 4247SOL     OW13596   1.823   1.362   5.729 -0.5143 -0.2135 -0.2312
 4247SOL    HW113597   1.781   1.436   5.773 -0.0380 -0.8749  1.3933
 4247SOL    HW213598   1.915   1.367   5.755 -0.2309 -0.6707 -1.1047
 4248SOL     OW13599   7.330   7.128   0.871 -0.1637 -0.2984  0.5605
 4248SOL    HW113600   7.322   7.172   0.956 -0.1122  0.2445  0.2929
 4248SOL    HW213601   7.418   7.151   0.840  0.7281 -2.4097  1.3965
 4249SOL     OW13602   4.051   0.063   7.961  0.2101  0.9644  0.2244
 4249SOL    HW113603   4.109   0.002   7.915  0.6950  2.1419 -0.7926
 4249SOL    HW213604   4.031   0.020   8.044 -0.0049 -0.8631 -0.7208
 4250SOL     OW13605   6.329   1.441   7.199 -0.4696 -0.4306  0.0677
 4250SOL    HW113606   6.284   1.501   7.259  2.0664  0.6520  1.0246
 4250SOL    HW213607   6.262   1.417   7.135 -2.0127  2.2487  0.5043
 4251SOL     OW13608   1.255   1.507   5.093 -0.1122  0.4732 -0.5216
 4251SOL    HW113609   1.225   1.501   5.002  1.0782  0.6674 -0.9421
 4251SOL    HW213610   1.309   1.428   5.105 -1.3499 -0.2672  0.4566
 4252SOL     OW13611   2.376   7.187   2.098 -0.3320  0.0307 -0.5859
 4252SOL    HW113612   2.304   7.186   2.035 -0.2263 -0.5777 -0.7017
 4252SOL    HW213613   2.335   7.169   2.182 -0.1350 -1.8460 -0.8581
 4253SOL     OW13614   5.072   7.674   4.940  0.0333 -0.1396 -0.3908
 4253SOL    HW113615   5.153   7.720   4.964 -0.6626  0.2328  1.4610
 4253SOL    HW213616   5.100   7.585   4.920  0.9537  0.1025 -0.2250
 4254SOL     OW13617   0.486   3.289   7.605  0.1797  0.4238 -0.2046
 4254SOL    HW113618   0.499   3.350   7.678 -0.6439  0.3133  0.0428
 4254SOL    HW213619   0.562   3.231   7.608  1.4697  1.9766 -1.0093
 4255SOL     OW13620   5.764   7.670   4.063  0.1940 -0.0873 -0.2457
 4255SOL    HW113621   5.831   7.733   4.091 -1.2134  1.5804 -0.4638
 4255SOL    HW213622   5.682   7.718   4.070 -0.6817 -0.9370 -3.1898
 4256SOL     OW13623   1.732   4.788   7.254 -0.8304  0.1520  0.2040
 4256SOL    HW113624   1.704   4.873   7.289  0.8784 -0.4154  3.2170
 4256SOL    HW213625   1.820   4.804   7.221 -1.0153 -0.2043 -0.4975
 4257SOL     OW13626   2.526   6.022   5.384  0.3777 -0.7368 -0.4114
 4257SOL    HW113627   2.526   5.961   5.457  1.0340 -0.8219 -0.4790
 4257SOL    HW213628   2.476   6.098   5.416  0.5289 -0.8352  0.0652
 4258SOL     OW13629   1.603   7.993   7.956  0.0155  0.4173 -0.1622
 4258SOL    HW113630   1.674   8.056   7.971 -0.7318  1.1457  0.4576
 4258SOL    HW213631   1.524   8.042   7.977 -0.7633 -0.0485 -1.8623
 4259SOL     OW13632   3.661   6.662   3.892  0.0116 -0.0733  0.2208
 4259SOL    HW113633   3.590   6.666   3.828  0.4508  0.0872 -0.2638
 4259SOL    HW213634   3.649   6.578   3.936 -0.4685 -0.0523  0.1301
 4260SOL     OW13635   1.413   1.868   7.199  0.1913 -0.5525 -0.0248
 4260SOL    HW113636   1.434   1.914   7.280 -1.1487 -0.0947  0.0748
 4260SOL    HW213637   1.377   1.934   7.141  0.6513 -0.9810 -0.8345
 4261SOL     OW13638   1.036   6.712   5.811  0.1740 -0.1960 -0.2021
 4261SOL    HW113639   1.103   6.709   5.743  0.1151  1.3298 -0.3515
 4261SOL    HW213640   0.997   6.799   5.803 -0.3441 -0.2645  1.2923
 4262SOL     OW13641   1.424   0.075   7.113  0.0905 -0.1171  0.3233
 4262SOL    HW113642   1.370   0.146   7.148 -1.5816 -0.7986 -0.7201
 4262SOL    HW213643   1.510   0.087   7.154 -0.5990  1.5361  1.3889
 4263SOL     OW13644   4.216   0.836   5.861 -0.0187  0.5561 -0.7197
 4263SOL    HW113645   4.233   0.916   5.811 -2.6778  1.6939  0.0099
 4263SOL    HW213646   4.297   0.786   5.855  1.0465  2.3702 -2.9202
 4264SOL     OW13647   5.427   6.810   1.060  0.1464  0.1886 -0.1587
 4264SOL    HW113648   5.444   6.860   0.980 -0.1382 -0.4482 -0.6283
 4264SOL    HW213649   5.487   6.847   1.125 -1.9687  3.0576  0.3272
 4265SOL     OW13650   3.444   6.697   3.729  0.4173  0.4855 -0.3754
 4265SOL    HW113651   3.403   6.763   3.673  0.2303 -0.4718 -1.3944
 4265SOL    HW213652   3.388   6.693   3.806  0.6465  1.7903 -0.1116
 4266SOL     OW13653   0.594   6.315   1.131  0.1214  0.0400  0.4329
 4266SOL    HW113654   0.515   6.267   1.156 -0.4099  0.3537 -0.5822
 4266SOL    HW213655   0.607   6.293   1.038  0.8540  0.5094  0.4144
 4267SOL     OW13656   1.403   5.986   1.635  0.4324 -0.1917 -0.1655
 4267SOL    HW113657   1.444   5.961   1.718  0.4922  0.6018  0.0559
 4267SOL    HW213658   1.474   6.023   1.583  0.4282 -0.8369 -0.6466
 4268SOL     OW13659   7.036   4.946   5.162 -0.2669 -0.4435  0.4271
 4268SOL    HW113660   7.087   4.964   5.084 -1.5820  1.2139 -0.0944
 4268SOL    HW213661   7.038   5.028   5.212 -0.8925 -0.9346  1.2877
 4269SOL     OW13662   7.587   1.564   7.353 -0.1631 -0.0524 -0.0040
 4269SOL    HW113663   7.565   1.542   7.263  0.8946 -0.1337 -0.2564
 4269SOL    HW213664   7.618   1.654   7.349 -3.1604  1.1574  0.8096
 4270SOL     OW13665   6.648   5.508   1.353  0.7748  0.1291  0.0435
 4270SOL    HW113666   6.699   5.469   1.283  0.7943  3.6169 -2.1208
 4270SOL    HW213667   6.711   5.561   1.402  0.1571  0.3844  0.5790
 4271SOL     OW13668   3.726   0.009   5.232 -0.0719 -0.3076 -0.1665
 4271SOL    HW113669   3.672   0.078   5.270 -1.2100 -0.8832 -0.6955
 4271SOL    HW213670   3.717  -0.064   5.292 -0.1275 -0.5107 -0.4230
 4272SOL     OW13671   0.780   5.250   2.637 -0.1008 -0.1191  0.4718
 4272SOL    HW113672   0.718   5.261   2.565 -0.2268  1.4037  0.7845
 4272SOL    HW213673   0.844   5.186   2.604  0.8959  1.8609 -1.7414
 4273SOL     OW13674   4.265   0.361   4.892  0.1131 -0.4096 -0.1637
 4273SOL    HW113675   4.272   0.312   4.810 -0.9703  0.6484 -0.9210
 4273SOL    HW213676   4.356   0.386   4.912  0.9107 -3.7114  0.9430
 4274SOL     OW13677   7.270   1.291   0.931  0.1593  1.0048 -0.0210
 4274SOL    HW113678   7.325   1.368   0.923  0.7800  0.5883  0.1889
 4274SOL    HW213679   7.331   1.219   0.946 -0.5478  0.8724  2.5912
 4275SOL     OW13680   0.976   7.054   6.235  0.0986 -0.5085  0.1094
 4275SOL    HW113681   1.012   7.082   6.151 -0.1280  1.1119  0.5132
 4275SOL    HW213682   0.881   7.061   6.223 -0.0288 -2.3327 -0.1550
 4276SOL     OW13683   3.791   3.785   4.125  0.3215 -0.0988  0.1090
 4276SOL    HW113684   3.779   3.797   4.219  2.2149  1.8978  0.1732
 4276SOL    HW213685   3.883   3.808   4.110 -0.3601  1.2430 -2.4632
 4277SOL     OW13686   6.170   4.728   1.662 -0.1014 -0.4096  0.1520
 4277SOL    HW113687   6.167   4.792   1.733  0.4065  1.2811 -1.2783
 4277SOL    HW213688   6.080   4.697   1.653 -1.0497  2.3331 -0.9911
 4278SOL     OW13689   5.908   4.558   1.081 -0.4540 -0.2106 -0.1313
 4278SOL    HW113690   5.963   4.485   1.053  0.9438  1.0338 -0.7338
 4278SOL    HW213691   5.852   4.577   1.006 -0.5394 -0.4064 -0.1167
 4279SOL     OW13692   2.032   5.277   6.282  0.6438 -0.1425 -0.0186
 4279SOL    HW113693   2.092   5.205   6.263 -0.6550 -0.7991 -2.0668
 4279SOL    HW213694   2.020   5.275   6.377  1.5785 -1.8543  0.0942
 4280SOL     OW13695   3.063   4.497   0.064  0.0921  0.2344 -0.1796
 4280SOL    HW113696   3.024   4.421   0.108  0.0659  0.1119 -0.4100
 4280SOL    HW213697   3.118   4.538   0.130 -1.4340  1.1738  0.5446
 4281SOL     OW13698   4.436   1.526   4.835  0.2019  0.3766  0.0187
 4281SOL    HW113699   4.358   1.484   4.870 -0.0488  1.6476  1.0568
 4281SOL    HW213700   4.491   1.453   4.804 -0.5690 -0.6479  0.9940
 4282SOL     OW13701   3.890   1.163   6.544  0.8327  0.7087 -0.1685
 4282SOL    HW113702   3.845   1.241   6.575  0.4170 -0.4239  2.3987
 4282SOL    HW213703   3.825   1.114   6.495  0.3751  0.8501  0.2946
 4283SOL     OW13704   4.150   1.286   1.119 -0.2516  1.0807  0.8000
 4283SOL    HW113705   4.102   1.226   1.062 -2.0391  1.8715  1.4061
 4283SOL    HW213706   4.166   1.237   1.199  0.6227  0.5897  0.3498
 4284SOL     OW13707   6.863   6.681   4.202 -0.0546  0.6783  0.3146
 4284SOL    HW113708   6.898   6.638   4.124 -0.9150  1.5030 -0.5618
 4284SOL    HW213709   6.810   6.614   4.245 -1.2263  0.7516 -0.9339
 4285SOL     OW13710   0.785   4.756   4.985  0.1722  0.1144  0.6823
 4285SOL    HW113711   0.743   4.777   5.069 -1.3678 -0.6427  0.1404
 4285SOL    HW213712   0.764   4.831   4.929 -0.7281 -0.3640  0.3440
 4286SOL     OW13713   2.917   5.038   4.744 -0.0008 -0.0502 -0.2582
 4286SOL    HW113714   2.981   5.060   4.812  0.4847  1.3439 -1.1220
 4286SOL    HW213715   2.925   5.109   4.680 -1.0186 -0.9048 -1.3715
 4287SOL     OW13716   6.650   0.319   3.544  0.0690  0.0265 -0.4055
 4287SOL    HW113717   6.625   0.391   3.486 -1.4437 -0.5878 -0.5613
 4287SOL    HW213718   6.644   0.240   3.489 -0.7261 -0.4904  0.4053
 4288SOL     OW13719   7.353   4.260   6.428  0.0392 -0.2597  0.1755
 4288SOL    HW113720   7.271   4.273   6.380 -0.7431 -1.7138  1.0365
 4288SOL    HW213721   7.373   4.346   6.466  0.2231  0.7130 -1.9931
 4289SOL     OW13722   1.122   7.754   6.774  0.1839  0.2509  0.4278
 4289SOL    HW113723   1.084   7.816   6.712  0.1973 -0.6353 -0.4887
 4289SOL    HW213724   1.048   7.725   6.828 -0.3746 -0.9967 -0.9457
 4290SOL     OW13725   5.072   5.381   6.987 -0.5899 -0.3618  0.4860
 4290SOL    HW113726   5.130   5.378   7.063  1.0647  0.8382 -0.6621
 4290SOL    HW213727   5.111   5.318   6.925 -1.8999 -1.3019  0.5758
 4291SOL     OW13728   0.983   0.581   0.308 -0.2942  0.0856  0.5006
 4291SOL    HW113729   0.908   0.521   0.300 -0.8777  0.6470  1.4309
 4291SOL    HW213730   0.943   0.666   0.329  0.4824  0.9389 -1.2752
 4292SOL     OW13731   1.921   7.380   1.204 -0.1852  0.1318 -0.2889
 4292SOL    HW113732   1.872   7.448   1.159  1.1318  3.1143  2.3935
 4292SOL    HW213733   1.855   7.331   1.253 -0.8768  2.0376  0.7799
 4293SOL     OW13734   0.187   3.435   5.618 -0.4389  0.1903  0.4300
 4293SOL    HW113735   0.262   3.428   5.677  0.6252 -0.8273 -0.9787
 4293SOL    HW213736   0.226   3.438   5.530 -1.9173  2.5511 -0.2410
 4294SOL     OW13737   4.288   0.387   2.458  0.3432  0.3378  0.1252
 4294SOL    HW113738   4.244   0.423   2.535  1.8749  2.1220  0.2448
 4294SOL    HW213739   4.316   0.300   2.485  1.1746  1.0674  1.7546
 4295SOL     OW13740   7.564   0.165   0.633  0.0890  0.3839 -0.5131
 4295SOL    HW113741   7.600   0.199   0.715  1.7979 -0.6864 -0.7609
 4295SOL    HW213742   7.571   0.239   0.572 -0.8300  1.0644  0.1789
 4296SOL     OW13743   6.550   0.090   6.294  0.1164 -0.4312 -0.8510
 4296SOL    HW113744   6.580   0.161   6.350  1.8928  0.5336 -2.8599
 4296SOL    HW213745   6.619   0.024   6.302 -0.4232 -0.9858 -0.6954
 4297SOL     OW13746   6.963   3.895   0.236  0.3942  0.2035 -0.5818
 4297SOL    HW113747   6.943   3.835   0.308  1.0637  1.0360  0.3223
 4297SOL    HW213748   6.991   3.838   0.165  0.8188 -0.5727  0.1882
 4298SOL     OW13749   5.571   1.253   2.372  0.5155  0.3975  0.2339
 4298SOL    HW113750   5.542   1.170   2.411  0.4351  0.1521 -0.3398
 4298SOL    HW213751   5.667   1.251   2.379  0.4770  0.6243  0.9492
 4299SOL     OW13752   6.176   0.829   4.473  0.4550 -0.4711  0.5868
 4299SOL    HW113753   6.130   0.745   4.471  0.5046 -0.5365 -2.6477
 4299SOL    HW213754   6.152   0.867   4.558 -1.2685 -2.8106  1.2519
 4300SOL     OW13755   0.545   0.589   0.165 -0.2541 -0.4909 -0.4315
 4300SOL    HW113756   0.569   0.563   0.254 -0.2668 -1.2997 -0.6556
 4300SOL    HW213757   0.529   0.683   0.171 -1.6188 -0.7589  0.7149
 4301SOL     OW13758   6.995   1.217   5.389 -0.0334  0.1101 -0.0939
 4301SOL    HW113759   6.976   1.130   5.425 -1.2838 -0.1196 -1.2394
 4301SOL    HW213760   7.056   1.199   5.317  1.0491  0.3837  0.7267
 4302SOL     OW13761   3.508   2.523   6.429  0.2930 -0.9680  0.0850
 4302SOL    HW113762   3.502   2.598   6.488  0.9286 -0.3794 -0.5823
 4302SOL    HW213763   3.539   2.451   6.484 -3.1854 -1.6222  1.4649
 4303SOL     OW13764   2.237   6.410   3.506 -0.3833  0.5623  0.3241
 4303SOL    HW113765   2.234   6.434   3.414 -0.8061  0.2277  0.2490
 4303SOL    HW213766   2.252   6.316   3.506 -1.7408  0.3171  0.5615
 4304SOL     OW13767   5.634   7.176   2.352  0.0780  0.7296 -0.2185
 4304SOL    HW113768   5.547   7.193   2.315 -0.0985  0.9009  0.2700
 4304SOL    HW213769   5.684   7.138   2.279 -1.0483 -1.4407  0.0573
 4305SOL     OW13770   6.901   5.865   6.048  0.9671 -0.2021 -0.3897
 4305SOL    HW113771   6.953   5.878   5.969  0.0846 -2.0775 -1.3467
 4305SOL    HW213772   6.822   5.918   6.034  0.9456 -0.2948 -0.6065
 4306SOL     OW13773   5.458   6.481   1.450  0.6729 -0.4102 -0.0041
 4306SOL    HW113774   5.529   6.537   1.420 -0.7829  0.6243 -1.7126
 4306SOL    HW213775   5.446   6.417   1.380  0.5906 -1.2519  0.7494
 4307SOL     OW13776   0.752   5.745   4.367 -0.0628  0.6369  0.1203
 4307SOL    HW113777   0.766   5.722   4.459  0.8027  0.8663  0.0593
 4307SOL    HW213778   0.821   5.808   4.348 -1.2433  1.8609 -0.2317
 4308SOL     OW13779   4.754   3.274   3.067  0.0619  0.1984  0.2519
 4308SOL    HW113780   4.842   3.238   3.059  0.2993  0.8327 -0.0980
 4308SOL    HW213781   4.766   3.354   3.120 -0.1503  0.7782 -0.5516
 4309SOL     OW13782   6.011   3.004   0.578  0.0246 -0.1534 -0.4938
 4309SOL    HW113783   5.937   3.008   0.516 -0.0247  3.5744 -0.4267
 4309SOL    HW213784   6.086   2.977   0.524 -0.3522  1.4119 -1.8888
 4310SOL     OW13785   3.478   4.893   4.301  0.5358  0.0819 -0.1679
 4310SOL    HW113786   3.461   4.922   4.212  2.1510  0.8294 -0.2720
 4310SOL    HW213787   3.471   4.972   4.354 -0.1519 -0.3083  0.3426
 4311SOL     OW13788   2.619   0.556   3.197 -0.1463  0.3765  0.2767
 4311SOL    HW113789   2.614   0.572   3.103  0.8368  0.6857  0.2582
 4311SOL    HW213790   2.689   0.614   3.227 -0.4514  0.2818  1.1991
 4312SOL     OW13791   1.113   7.886   0.340  0.5367  0.0107  0.1658
 4312SOL    HW113792   1.096   7.939   0.418  1.7342  0.1035  0.3752
 4312SOL    HW213793   1.182   7.934   0.293  1.9505 -1.5572  0.5677
 4313SOL     OW13794   2.922   4.912   4.183 -0.1789  0.8000  0.5559
 4313SOL    HW113795   2.994   4.939   4.240  0.1364  0.8316  0.1505
 4313SOL    HW213796   2.956   4.835   4.136  0.0175  1.5046 -0.4902
 4314SOL     OW13797   0.874   4.966   7.257  0.1313  0.5752 -0.0923
 4314SOL    HW113798   0.861   4.947   7.349  0.2364 -1.3031 -0.4261
 4314SOL    HW213799   0.839   5.055   7.245 -0.8105  0.4518  1.5376
 4315SOL     OW13800   5.689   6.190   4.041  0.5874 -0.2950 -0.1492
 4315SOL    HW113801   5.687   6.099   4.012  0.3006 -1.0474  2.0299
 4315SOL    HW213802   5.602   6.205   4.078  1.2457  0.2388  1.2430
 4316SOL     OW13803   7.632   5.234   6.976 -0.4671  0.3918  0.0963
 4316SOL    HW113804   7.650   5.146   7.010  0.6426  0.1029 -1.1665
 4316SOL    HW213805   7.539   5.247   6.992 -0.3000 -0.2980  1.8942
 4317SOL     OW13806   0.623   6.238   6.746 -0.1808 -0.1244  0.3116
 4317SOL    HW113807   0.588   6.313   6.794 -0.7032 -1.4008  2.0284
 4317SOL    HW213808   0.565   6.228   6.671 -1.4155 -0.0940  1.2353
 4318SOL     OW13809   2.400   2.394   1.648  0.3448  0.6640  0.1926
 4318SOL    HW113810   2.327   2.332   1.638  0.2659  0.7504  0.2293
 4318SOL    HW213811   2.479   2.340   1.639  0.2879  0.7575 -1.1168
 4319SOL     OW13812   2.478   5.861   2.370 -0.2771  0.4093 -0.5115
 4319SOL    HW113813   2.537   5.805   2.420  2.7184  2.4665 -1.3910
 4319SOL    HW213814   2.391   5.844   2.406  1.1027 -1.2780  2.3945
 4320SOL     OW13815   7.912   3.182   1.419  0.1981  0.1848 -0.2869
 4320SOL    HW113816   7.936   3.098   1.378  0.1464 -1.0715  2.0926
 4320SOL    HW213817   7.849   3.220   1.359  0.5504 -1.2628 -1.6595
 4321SOL     OW13818   4.911   2.740   2.250  0.1308  0.0613  0.3365
 4321SOL    HW113819   4.972   2.770   2.317 -0.3410  0.4986  0.5781
 4321SOL    HW213820   4.865   2.819   2.222  0.5439 -0.0607 -0.7407
 4322SOL     OW13821   1.528   5.782   4.886  0.0842 -0.0442  0.8014
 4322SOL    HW113822   1.493   5.801   4.799  1.2224  0.8753  0.5152
 4322SOL    HW213823   1.458   5.807   4.946 -0.7925 -0.8812  0.1510
 4323SOL     OW13824   0.213   1.138   6.898  0.1248  0.6369  0.1012
 4323SOL    HW113825   0.160   1.165   6.822 -0.0995 -0.3260 -0.0975
 4323SOL    HW213826   0.290   1.195   6.895 -0.3556  1.2769 -0.2770
 4324SOL     OW13827   6.065   6.379   7.004 -0.1412  0.1630  0.4143
 4324SOL    HW113828   6.111   6.308   6.960  3.4250  1.8416  1.0334
 4324SOL    HW213829   6.034   6.435   6.933  3.9303  1.8861 -0.2739
 4325SOL     OW13830   2.424   6.948   6.847 -0.1573  0.2837 -0.4079
 4325SOL    HW113831   2.519   6.955   6.863 -0.0702 -0.3064 -0.6513
 4325SOL    HW213832   2.386   7.013   6.906  0.3621  0.1343  0.1071
 4326SOL     OW13833   2.123   7.024   4.894  0.1527  0.2645  0.4757
 4326SOL    HW113834   2.174   6.981   4.963  2.0756  0.1761 -0.9270
 4326SOL    HW213835   2.176   7.099   4.868  0.3182 -0.6174 -1.9990
 4327SOL     OW13836   7.935   0.718   1.259 -0.4504 -0.2278  0.3932
 4327SOL    HW113837   7.852   0.703   1.304 -0.6975 -0.2480 -0.0681
 4327SOL    HW213838   7.931   0.809   1.232 -0.2018 -0.1510  0.6120
 4328SOL     OW13839   4.686   1.756   2.748  0.2628 -0.8085 -0.2478
 4328SOL    HW113840   4.623   1.764   2.820  0.2446  0.2993 -0.3650
 4328SOL    HW213841   4.745   1.686   2.775 -0.4297 -1.1877  0.3184
 4329SOL     OW13842   4.614   0.714   7.946  0.1263 -0.3829 -0.4821
 4329SOL    HW113843   4.607   0.760   7.862  0.3545  0.3107 -0.1260
 4329SOL    HW213844   4.560   0.765   8.006  0.8842 -0.1985  0.0674
 4330SOL     OW13845   1.236   0.504   3.768 -0.3667 -0.2395  0.0241
 4330SOL    HW113846   1.217   0.444   3.841 -0.0560 -1.1890 -0.6531
 4330SOL    HW213847   1.262   0.586   3.811 -0.4979 -0.6818  0.9785
 4331SOL     OW13848   5.045   0.685   3.012 -0.5540  0.2218 -0.2669
 4331SOL    HW113849   5.085   0.632   3.081 -0.4168  1.9655  1.0636
 4331SOL    HW213850   4.988   0.747   3.058 -3.4321 -0.9544 -1.9697
 4332SOL     OW13851   6.033   7.637   0.006  0.4853 -0.4464  0.1459
 4332SOL    HW113852   6.058   7.712   0.060  0.2857 -0.2360 -0.0503
 4332SOL    HW213853   5.956   7.600   0.049 -0.6376  0.6657 -0.8342
 4333SOL     OW13854   4.632   2.555   3.769 -0.1050 -0.3306  0.3155
 4333SOL    HW113855   4.674   2.633   3.733 -0.6229 -0.4799 -0.6405
 4333SOL    HW213856   4.604   2.581   3.857  0.1035  0.4249  0.1619
 4334SOL     OW13857   6.045   5.702   6.475 -0.3195  0.0988  0.3563
 4334SOL    HW113858   6.093   5.773   6.517 -1.6309  0.4951  1.2530
 4334SOL    HW213859   6.077   5.622   6.518 -0.4378  0.3586  0.9410
 4335SOL     OW13860   2.844   4.945   6.581 -0.0020 -0.0511  0.3277
 4335SOL    HW113861   2.841   5.036   6.550  2.7165 -0.4738 -1.5090
 4335SOL    HW213862   2.768   4.904   6.542 -0.5103  1.1268  0.0324
 4336SOL     OW13863   1.110   0.102   3.455 -0.4938  0.0824 -0.4303
 4336SOL    HW113864   1.112   0.015   3.415  1.7019  0.9450 -2.4291
 4336SOL    HW213865   1.189   0.145   3.424  1.3550  1.0630  4.6567
 4337SOL     OW13866   2.081   0.459   2.552 -0.1186 -0.1474  0.4794
 4337SOL    HW113867   2.046   0.370   2.552 -0.8793  0.1396  1.1189
 4337SOL    HW213868   2.166   0.451   2.597  0.6114 -0.8233 -0.9534
 4338SOL     OW13869   6.175   4.164   5.237  0.0112  0.4635 -0.2081
 4338SOL    HW113870   6.171   4.090   5.176 -1.0795  0.9533 -0.7620
 4338SOL    HW213871   6.169   4.242   5.181  0.4720  0.9612  0.4161
 4339SOL     OW13872   6.124   7.990   3.196  0.0285 -0.2719  0.2439
 4339SOL    HW113873   6.197   8.035   3.153  0.2206 -1.6265 -0.9105
 4339SOL    HW213874   6.134   7.898   3.172 -1.3122 -0.6924  1.1570
 4340SOL     OW13875   3.167   6.675   6.918  0.9837 -1.0318  0.3714
 4340SOL    HW113876   3.112   6.633   6.852 -1.0420 -1.6490  2.3405
 4340SOL    HW213877   3.180   6.764   6.885 -0.7375 -1.0394 -0.4568
 4341SOL     OW13878   6.697   5.978   1.261  0.6094  0.1091  0.5855
 4341SOL    HW113879   6.778   5.938   1.230  0.5046 -1.2073  1.9029
 4341SOL    HW213880   6.724   6.060   1.302  1.1973 -0.0290  0.4808
 4342SOL     OW13881   1.981   0.359   0.634 -0.1673  0.1742  0.6029
 4342SOL    HW113882   2.025   0.320   0.559  0.6160  1.4940  0.3530
 4342SOL    HW213883   1.996   0.453   0.625  0.6317  0.3178  2.8197
 4343SOL     OW13884   7.725   7.643   5.898 -0.5202  0.1924  0.0706
 4343SOL    HW113885   7.778   7.696   5.838  0.0224 -2.1400 -1.6654
 4343SOL    HW213886   7.787   7.579   5.935 -1.2915  0.2060  1.4718
 4344SOL     OW13887   7.192   1.792   1.760 -0.0382 -0.1706 -0.0476
 4344SOL    HW113888   7.271   1.767   1.711 -0.6111 -1.3425 -0.4186
 4344SOL    HW213889   7.131   1.720   1.745 -1.3767  0.9628 -0.1852
 4345SOL     OW13890   0.993   4.452   4.459 -0.7901  0.1163  0.6325
 4345SOL    HW113891   1.073   4.489   4.422 -0.0028 -0.3753  1.7895
 4345SOL    HW213892   0.922   4.502   4.418  0.0226 -0.3248 -1.4210
 4346SOL     OW13893   0.973   1.413   2.103 -0.1674  0.0911  0.0642
 4346SOL    HW113894   1.013   1.411   2.016 -0.6127  2.5397 -0.2781
 4346SOL    HW213895   1.041   1.380   2.161  0.6909 -0.1613 -1.0396
 4347SOL     OW13896   0.933   5.200   6.396 -0.3528  0.2814 -0.1863
 4347SOL    HW113897   0.931   5.218   6.301 -0.8716 -0.8080 -0.4011
 4347SOL    HW213898   0.846   5.166   6.415  0.5879 -2.2299  0.0973
 4348SOL     OW13899   2.237   6.644   3.339 -0.1750 -0.0284 -0.3112
 4348SOL    HW113900   2.157   6.595   3.320  1.0975 -3.7108  2.5783
 4348SOL    HW213901   2.209   6.711   3.402 -1.2238 -0.0361 -0.7348
 4349SOL     OW13902   5.128   2.175   7.968 -0.2182 -0.4126 -0.8435
 4349SOL    HW113903   5.151   2.225   7.890  0.9610 -1.1544 -1.0049
 4349SOL    HW213904   5.099   2.240   8.032  2.5996  0.6897 -0.5608
 4350SOL     OW13905   1.289   4.954   5.213  0.1378  0.1664 -0.1788
 4350SOL    HW113906   1.207   4.935   5.260  0.4068  1.0032  0.6551
 4350SOL    HW213907   1.310   5.044   5.238  0.8896  0.2354 -1.0356
 4351SOL     OW13908   7.160   5.174   2.813 -0.0316  0.9091  0.0033
 4351SOL    HW113909   7.153   5.111   2.885  1.7080 -0.2866 -0.8143
 4351SOL    HW213910   7.091   5.149   2.753  0.7559 -0.3689 -0.3970
 4352SOL     OW13911   1.086   6.771   5.208  0.4544 -0.4556 -0.1233
 4352SOL    HW113912   1.036   6.831   5.154 -1.4572 -1.0636  0.8644
 4352SOL    HW213913   1.131   6.827   5.271  0.2367  0.0649 -0.4248
 4353SOL     OW13914   2.980   6.759   2.042  0.0851 -0.3750 -0.6475
 4353SOL    HW113915   3.017   6.672   2.054 -0.3031 -0.5026 -0.3680
 4353SOL    HW213916   2.926   6.751   1.963  1.9810  0.2501 -2.0799
 4354SOL     OW13917   5.329   2.419   7.196  0.6898 -0.0277 -0.5123
 4354SOL    HW113918   5.314   2.500   7.244  0.0410 -0.1041 -0.5847
 4354SOL    HW213919   5.280   2.353   7.245 -0.4074 -0.0164 -1.5689
 4355SOL     OW13920   2.612   0.926   3.772 -0.4199 -0.5479  0.2135
 4355SOL    HW113921   2.698   0.885   3.761  0.3327  1.2136 -0.7967
 4355SOL    HW213922   2.570   0.916   3.687  0.4470  2.1246 -0.6260
 4356SOL     OW13923   3.423   0.760   7.555  0.0280 -0.3494  0.3805
 4356SOL    HW113924   3.355   0.770   7.622 -1.0746 -1.1775 -0.5505
 4356SOL    HW213925   3.477   0.838   7.562 -1.2704  0.5304  0.9106
 4357SOL     OW13926   3.478   5.697   3.500 -0.4817 -1.0127  0.0965
 4357SOL    HW113927   3.478   5.649   3.582  0.0821 -1.8497 -0.3844
 4357SOL    HW213928   3.404   5.661   3.450 -1.0266 -0.2817  0.3488
 4358SOL     OW13929   3.672   3.522   0.527  0.0401 -0.0590  0.1244
 4358SOL    HW113930   3.689   3.499   0.436  3.1093 -1.4180  0.9367
 4358SOL    HW213931   3.700   3.446   0.578  1.3563  1.7851  2.3727
 4359SOL     OW13932   5.376   2.860   7.086 -0.2850 -0.1387  0.0162
 4359SOL    HW113933   5.353   2.824   7.172  0.9950 -0.8744  0.0760
 4359SOL    HW213934   5.432   2.793   7.046 -0.4080  0.4366 -1.1698
 4360SOL     OW13935   1.440   6.375   4.456 -0.4269  0.3078 -0.0100
 4360SOL    HW113936   1.392   6.442   4.407  0.1449  1.0142  0.3855
 4360SOL    HW213937   1.399   6.374   4.542  1.0821  1.8613  0.7771
 4361SOL     OW13938   6.915   3.890   0.710 -0.4625 -0.3083 -0.0490
 4361SOL    HW113939   7.009   3.875   0.707 -0.4429 -0.1527 -0.2328
 4361SOL    HW213940   6.877   3.802   0.719 -0.3765 -0.5716 -1.7672
 4362SOL     OW13941   3.907   3.453   2.825  0.1600 -0.8749 -0.5869
 4362SOL    HW113942   3.962   3.377   2.804  0.0909 -1.3190  0.7334
 4362SOL    HW213943   3.957   3.528   2.793  0.7318 -1.3939 -0.9432
 4363SOL     OW13944   2.581   6.099   7.792  0.4017 -0.3419  0.3084
 4363SOL    HW113945   2.547   6.181   7.755  2.2516 -0.1863 -1.2034
 4363SOL    HW213946   2.522   6.031   7.760  0.2913  0.1254 -0.4919
 4364SOL     OW13947   1.670   6.625   2.311 -0.3539  0.1459 -0.0671
 4364SOL    HW113948   1.706   6.676   2.238  0.7762 -1.4468 -0.6825
 4364SOL    HW213949   1.661   6.536   2.276 -0.1528 -0.5690  1.5972
 4365SOL     OW13950   5.574   6.684   3.185 -0.6987 -0.2258 -0.2864
 4365SOL    HW113951   5.646   6.648   3.236  1.9793  2.4318 -1.8913
 4365SOL    HW213952   5.575   6.634   3.103  0.8778  1.2158 -1.2003
 4366SOL     OW13953   0.415   7.051   5.214 -1.1621 -0.1286  0.1826
 4366SOL    HW113954   0.365   7.039   5.295  0.8392  0.4348  1.5837
 4366SOL    HW213955   0.386   7.135   5.180  0.5318  1.4864  2.3833
 4367SOL     OW13956   5.712   3.344   1.195  0.5660 -0.3150 -0.5318
 4367SOL    HW113957   5.761   3.425   1.190 -1.2075  0.9787  1.4252
 4367SOL    HW213958   5.703   3.315   1.104 -0.8370  3.0164 -1.5882
 4368SOL     OW13959   4.974   6.379   2.193 -0.4077 -0.0611 -0.1763
 4368SOL    HW113960   4.975   6.322   2.117 -0.3976 -1.1826  0.6369
 4368SOL    HW213961   4.907   6.341   2.251 -0.0120  0.4143  0.6182
 4369SOL     OW13962   0.376   5.441   4.708  0.0215  0.3055  0.6015
 4369SOL    HW113963   0.354   5.413   4.796 -0.3316  0.5415  0.5900
 4369SOL    HW213964   0.350   5.534   4.705 -0.4554  0.1614  0.0879
 4370SOL     OW13965   0.329   5.654   1.063 -0.7888 -0.1389  0.4148
 4370SOL    HW113966   0.419   5.656   1.095 -0.6241  0.5797 -0.0662
 4370SOL    HW213967   0.276   5.684   1.137 -0.3814  1.8457 -0.0479
 4371SOL     OW13968   6.655   6.857   6.403 -0.4087  0.0680 -0.2139
 4371SOL    HW113969   6.671   6.929   6.463 -0.6116  0.9255 -1.1484
 4371SOL    HW213970   6.596   6.798   6.450  0.0573  0.3229  0.7004
 4372SOL     OW13971   3.106   4.437   0.465  0.0427  0.2780  0.1025
 4372SOL    HW113972   3.026   4.416   0.417  0.5265  0.0556 -0.6288
 4372SOL    HW213973   3.141   4.514   0.420  0.2704  0.3346  0.3751
 4373SOL     OW13974   0.472   5.479   2.296 -0.0960 -0.2602 -0.0706
 4373SOL    HW113975   0.400   5.519   2.345 -0.4546 -1.8518  0.7862
 4373SOL    HW213976   0.429   5.420   2.234  0.4407 -0.6009 -0.1268
 4374SOL     OW13977   6.114   0.370   0.475  0.3436 -0.3367 -0.2317
 4374SOL    HW113978   6.044   0.358   0.540  1.3475  0.6338  1.0782
 4374SOL    HW213979   6.138   0.281   0.449 -0.2166 -0.7366  0.5698
 4375SOL     OW13980   1.072   7.182   6.461  0.0494 -0.3227  0.2066
 4375SOL    HW113981   1.046   7.147   6.376 -0.2183  0.3223  0.0089
 4375SOL    HW213982   0.990   7.212   6.500  0.3163  0.4633  0.1808
 4376SOL     OW13983   3.437   1.539   0.389 -0.6007 -0.2365 -0.1302
 4376SOL    HW113984   3.346   1.529   0.415 -0.7889 -0.0121 -0.6915
 4376SOL    HW213985   3.486   1.483   0.449 -0.8992  1.1078  1.4354
 4377SOL     OW13986   4.249   4.481   0.845 -0.8153  0.3706 -0.0482
 4377SOL    HW113987   4.207   4.430   0.914  0.4072 -0.1494  0.3184
 4377SOL    HW213988   4.317   4.424   0.810  0.9825  1.9363  0.7689
 4378SOL     OW13989   6.529   6.141   6.325 -0.0706 -0.4320  0.0608
 4378SOL    HW113990   6.516   6.067   6.266 -0.3009 -1.0285  0.8458
 4378SOL    HW213991   6.518   6.104   6.412 -0.5188  0.6047  0.4523
 4379SOL     OW13992   5.966   5.449   5.682 -0.3280 -0.8557  0.4283
 4379SOL    HW113993   5.937   5.428   5.594  1.2554 -3.0385  0.3579
 4379SOL    HW213994   5.902   5.406   5.739 -0.6391 -0.5113  0.3426
 4380SOL     OW13995   0.181   6.147   4.038  0.2244 -0.4406  0.5804
 4380SOL    HW113996   0.150   6.225   4.083 -1.8412 -0.0825 -1.2709
 4380SOL    HW213997   0.127   6.142   3.959  0.4627 -3.6099  0.4910
 4381SOL     OW13998   2.753   7.906   6.746 -0.1947 -0.4019  0.1248
 4381SOL    HW113999   2.848   7.916   6.748 -0.3041  0.8287 -0.2167
 4381SOL    HW214000   2.733   7.879   6.657 -0.0817 -1.8774  0.5150
 4382SOL     OW14001   6.725   6.070   3.653  0.3066 -0.7524  0.1543
 4382SOL    HW114002   6.726   5.974   3.654  2.0366 -0.7614  0.5498
 4382SOL    HW214003   6.637   6.092   3.623  0.1038 -2.4708 -0.6645
 4383SOL     OW14004   3.087   7.460   3.542 -0.5386  0.1332  0.9711
 4383SOL    HW114005   3.151   7.480   3.473 -2.1876  0.5170 -0.5284
 4383SOL    HW214006   3.130   7.489   3.622  1.4810 -0.3632  0.1533
 4384SOL     OW14007   7.543   1.367   3.102  0.4909 -0.5262 -0.2239
 4384SOL    HW114008   7.492   1.289   3.123 -1.2451  0.0019 -2.2200
 4384SOL    HW214009   7.483   1.423   3.053  1.0685  2.9032  2.5317
 4385SOL     OW14010   0.485   3.753   7.226 -0.2673 -0.2383  0.0484
 4385SOL    HW114011   0.431   3.674   7.210  0.9750 -0.7616 -1.9078
 4385SOL    HW214012   0.531   3.734   7.307 -0.6095 -1.1867  0.0398
 4386SOL     OW14013   2.253   4.888   2.485  0.4054 -0.0260  0.0985
 4386SOL    HW114014   2.276   4.798   2.507  0.0297  0.0648  0.8641
 4386SOL    HW214015   2.337   4.934   2.481  0.4991 -0.0932  1.1321
 4387SOL     OW14016   2.157   1.071   2.228 -0.2188  0.5127  0.1188
 4387SOL    HW114017   2.160   1.033   2.315  0.8649 -0.6774 -0.4012
 4387SOL    HW214018   2.083   1.027   2.185 -0.5956  0.9154  0.3522
 4388SOL     OW14019   3.326   6.783   7.700 -0.5436  0.0535 -0.3669
 4388SOL    HW114020   3.341   6.762   7.608  0.4647 -1.1287  0.0379
 4388SOL    HW214021   3.270   6.860   7.698 -1.5297 -0.6559 -1.9575
 4389SOL     OW14022   0.076   2.965   3.861  0.0716  0.0210 -0.4503
 4389SOL    HW114023   0.048   2.874   3.847  1.9375 -0.7008  0.1358
 4389SOL    HW214024  -0.003   3.010   3.890 -0.9090 -1.4231 -0.7470
 4390SOL     OW14025   3.378   7.577   6.379  0.3546  0.0578 -0.1708
 4390SOL    HW114026   3.342   7.489   6.384  0.2826 -0.0031 -1.4742
 4390SOL    HW214027   3.341   7.614   6.299  0.2405  1.3453  0.4382
 4391SOL     OW14028   6.204   1.165   1.444  0.7406  0.1644 -0.0984
 4391SOL    HW114029   6.114   1.188   1.421  1.2412  1.0450 -1.2542
 4391SOL    HW214030   6.237   1.241   1.492  0.1915 -1.0561  2.4049
 4392SOL     OW14031   7.570   2.397   1.240 -0.1258  0.2346  0.1530
 4392SOL    HW114032   7.494   2.418   1.185  0.0420 -0.7471 -0.4739
 4392SOL    HW214033   7.550   2.311   1.276  0.3196  0.3455  0.6747
 4393SOL     OW14034   4.910   5.249   2.088  0.1841 -0.0476  0.6027
 4393SOL    HW114035   4.854   5.327   2.097 -1.7148 -1.1664 -0.6956
 4393SOL    HW214036   4.968   5.269   2.014 -0.6993 -0.0548 -0.1128
 4394SOL     OW14037   3.866   5.317   7.332  0.3258 -0.2652 -0.5365
 4394SOL    HW114038   3.874   5.248   7.398  0.7066  0.3878  0.1194
 4394SOL    HW214039   3.777   5.308   7.299  0.4638 -1.2438 -0.6670
 4395SOL     OW14040   2.916   5.100   0.603 -0.4468 -0.3774 -0.7574
 4395SOL    HW114041   2.941   5.150   0.525  0.9693 -0.3443 -0.3142
 4395SOL    HW214042   2.861   5.030   0.569  1.1127 -1.0813 -1.9872
 4396SOL     OW14043   4.736   6.297   4.137 -0.5606 -1.0945 -0.0263
 4396SOL    HW114044   4.832   6.299   4.131 -0.6295 -0.5207 -1.3054
 4396SOL    HW214045   4.710   6.389   4.143 -0.9853 -1.2960  1.9698
 4397SOL     OW14046   7.281   1.506   1.736 -0.0135 -0.1939 -0.1973
 4397SOL    HW114047   7.370   1.483   1.765  0.2280  1.0437  0.0682
 4397SOL    HW214048   7.286   1.504   1.640  0.4422  0.4016 -0.1877
 4398SOL     OW14049   5.472   1.347   0.127  0.6732 -0.2294  0.1041
 4398SOL    HW114050   5.551   1.371   0.174  1.4744  1.7862 -2.0789
 4398SOL    HW214051   5.503   1.297   0.051 -0.1220  0.5312 -0.7493
 4399SOL     OW14052   4.531   0.477   1.106  0.1095  0.1754 -0.3824
 4399SOL    HW114053   4.437   0.461   1.110 -0.1635  1.1688 -1.7956
 4399SOL    HW214054   4.569   0.393   1.081 -0.5310  0.0323 -0.9043
 4400SOL     OW14055   7.952   6.948   2.590 -0.0146 -0.3986 -0.1300
 4400SOL    HW114056   7.955   6.891   2.666  2.5133 -1.5012 -0.9324
 4400SOL    HW214057   7.899   6.901   2.526  1.0880 -1.3690 -0.3706
 4401SOL     OW14058   4.670   3.583   4.232 -0.2783 -0.3398  0.3716
 4401SOL    HW114059   4.707   3.653   4.285  0.1356 -0.1993 -0.0993
 4401SOL    HW214060   4.694   3.605   4.142  1.8759 -2.2704  0.3960
 4402SOL     OW14061   0.171   7.154   6.332  0.2062 -0.5007  0.3052
 4402SOL    HW114062   0.191   7.206   6.254 -0.8573 -1.8126 -0.8797
 4402SOL    HW214063   0.224   7.075   6.323 -0.8999 -1.2493  0.2363
 4403SOL     OW14064   1.544   6.389   3.635  0.3381  0.5758 -0.6923
 4403SOL    HW114065   1.533   6.309   3.686  0.1784  1.4895  0.7538
 4403SOL    HW214066   1.606   6.365   3.566 -0.1824 -0.9481 -0.6738
 4404SOL     OW14067   5.120   1.060   0.472 -0.5830  0.1751 -0.4612
 4404SOL    HW114068   5.185   1.129   0.486 -0.7205 -0.1414  2.1916
 4404SOL    HW214069   5.157   1.006   0.402  1.5607  0.5748  0.2875
 4405SOL     OW14070   6.017   5.355   3.706  0.2004 -0.4694  0.8133
 4405SOL    HW114071   6.034   5.318   3.619 -1.0999 -1.1577  0.8254
 4405SOL    HW214072   6.103   5.383   3.737  0.9913 -1.9878  0.1158
 4406SOL     OW14073   1.747   0.456   2.282 -0.1258 -0.3864  0.2777
 4406SOL    HW114074   1.810   0.523   2.258 -1.1279  0.8394  0.9580
 4406SOL    HW214075   1.710   0.426   2.199  1.3637 -1.1840 -0.1363
 4407SOL     OW14076   6.187   6.047   6.444  1.0041 -0.1471 -0.0804
 4407SOL    HW114077   6.135   6.114   6.489  2.0742  0.7607 -0.1350
 4407SOL    HW214078   6.198   6.082   6.355 -0.0645 -1.3433 -0.7216
 4408SOL     OW14079   5.904   2.354   4.613 -0.1620 -0.0710 -0.1267
 4408SOL    HW114080   5.890   2.311   4.698 -0.4264 -1.0694 -0.6627
 4408SOL    HW214081   5.824   2.404   4.599  0.7782  1.9731  1.2464
 4409SOL     OW14082   7.955   3.941   1.642 -0.0860 -0.3319 -0.2048
 4409SOL    HW114083   7.945   3.860   1.692 -0.4292 -1.3055 -1.7781
 4409SOL    HW214084   7.868   3.981   1.644 -0.2757 -0.7158 -0.5680
 4410SOL     OW14085   4.140   6.901   3.866  0.4293  0.0464 -0.2311
 4410SOL    HW114086   4.061   6.864   3.905 -0.2209  1.9442  0.3849
 4410SOL    HW214087   4.211   6.867   3.920 -0.0546 -0.7928 -0.0955
 4411SOL     OW14088   4.959   4.870   5.739  0.2034  0.0226  0.3101
 4411SOL    HW114089   4.980   4.881   5.831 -0.4080  2.2531  0.2414
 4411SOL    HW214090   5.042   4.847   5.698  0.4182 -1.3185  1.4193
 4412SOL     OW14091   1.076   4.499   7.528  0.6639  0.8205 -0.2540
 4412SOL    HW114092   1.135   4.515   7.454  1.5484 -0.4357  0.1407
 4412SOL    HW214093   1.033   4.416   7.507  0.2994  0.8695  0.2655
 4413SOL     OW14094   3.766   5.058   2.678 -0.0111 -0.4073  0.0266
 4413SOL    HW114095   3.795   4.967   2.682  1.1044 -0.0128  1.4076
 4413SOL    HW214096   3.841   5.106   2.642 -0.3857  0.0627 -0.1509
 4414SOL     OW14097   6.385   1.482   7.918  0.2015 -0.0631 -0.0678
 4414SOL    HW114098   6.402   1.576   7.931  1.4298 -0.3360  0.3976
 4414SOL    HW214099   6.325   1.479   7.843  1.5360  1.0252 -1.2423
 4415SOL     OW14100   5.382   7.732   7.388 -0.1194  0.5358  0.3156
 4415SOL    HW114101   5.328   7.806   7.359  0.0312  0.4225 -0.2576
 4415SOL    HW214102   5.466   7.772   7.411 -0.6117  0.7913  1.7428
 4416SOL     OW14103   4.089   2.597   7.266  0.5155  0.0434 -0.6226
 4416SOL    HW114104   4.102   2.590   7.172 -0.0309  0.7038 -0.7551
 4416SOL    HW214105   4.103   2.690   7.285 -1.6802  0.4060 -0.4427
 4417SOL     OW14106   1.973   5.808   6.339  0.5019  0.6946 -0.5549
 4417SOL    HW114107   2.003   5.841   6.255 -1.2079  1.0258 -1.0788
 4417SOL    HW214108   1.890   5.764   6.319 -0.6838  2.0303  1.1336
 4418SOL     OW14109   1.180   6.857   7.663  0.5132  0.4113 -0.4513
 4418SOL    HW114110   1.172   6.873   7.569  1.3456 -0.0160 -0.6027
 4418SOL    HW214111   1.145   6.937   7.704  0.0938  0.5756 -1.1115
 4419SOL     OW14112   2.997   7.329   6.104 -0.7038  0.0989 -0.4308
 4419SOL    HW114113   2.983   7.305   6.012 -1.2633 -1.9868  0.1382
 4419SOL    HW214114   3.076   7.281   6.129 -0.2045  1.1307  0.0484
 4420SOL     OW14115   5.191   2.038   0.901  0.0037  0.3045 -0.4632
 4420SOL    HW114116   5.238   2.116   0.931 -0.0553  0.3048 -0.3710
 4420SOL    HW214117   5.245   2.004   0.829 -0.6476  1.1799 -1.3894
 4421SOL     OW14118   7.058   5.412   3.766 -0.1105 -0.3501 -0.1256
 4421SOL    HW114119   7.036   5.503   3.745  1.3029 -0.0354 -0.3302
 4421SOL    HW214120   7.088   5.375   3.684  1.0962 -0.4487  0.3433
 4422SOL     OW14121   2.464   3.689   6.494 -0.8453  0.3913 -0.2609
 4422SOL    HW114122   2.404   3.719   6.426 -0.6260  0.6025 -0.3611
 4422SOL    HW214123   2.551   3.707   6.460 -0.7213  0.0550 -0.1285
 4423SOL     OW14124   5.728   6.385   6.831 -0.3518  0.4205  0.1103
 4423SOL    HW114125   5.721   6.384   6.927  1.6830 -2.1606  0.3601
 4423SOL    HW214126   5.807   6.436   6.813 -1.0110  1.3335 -0.2616
 4424SOL     OW14127   0.645   0.345   3.727  0.7433 -0.3748 -0.0367
 4424SOL    HW114128   0.628   0.430   3.688 -2.3893 -1.7197 -2.0179
 4424SOL    HW214129   0.594   0.345   3.808  0.7229 -0.3493 -0.0496
 4425SOL     OW14130   5.335   4.407   0.922 -0.0219  0.3586 -0.4598
 4425SOL    HW114131   5.274   4.479   0.941 -0.0044 -0.1655  1.8593
 4425SOL    HW214132   5.286   4.348   0.865 -1.3088  0.5092  0.4476
 4426SOL     OW14133   3.381   6.557   5.021  0.0525 -0.2529  0.0642
 4426SOL    HW114134   3.398   6.587   4.932 -0.2203  1.3145  0.5232
 4426SOL    HW214135   3.294   6.591   5.042  0.4524  0.0993  1.2129
 4427SOL     OW14136   5.932   3.588   4.180 -0.5531  0.2226  0.5931
 4427SOL    HW114137   5.897   3.674   4.157 -1.3670  0.0473  1.1132
 4427SOL    HW214138   5.865   3.549   4.237 -0.4957 -1.0141 -0.1373
 4428SOL     OW14139   7.651   6.506   4.011  0.0446  0.7918  0.1573
 4428SOL    HW114140   7.707   6.563   4.064 -1.6866  1.5183  1.3107
 4428SOL    HW214141   7.605   6.567   3.952  0.1086  0.2534 -0.4640
 4429SOL     OW14142   5.577   7.505   3.498  0.5958  0.0267  0.5812
 4429SOL    HW114143   5.620   7.501   3.583 -0.2951 -0.4058  1.0147
 4429SOL    HW214144   5.499   7.558   3.513  1.7031  2.1100 -0.5359
 4430SOL     OW14145   5.987   0.439   0.212 -0.7939  0.7367 -0.3603
 4430SOL    HW114146   5.984   0.347   0.187 -2.7164  1.1849 -2.0809
 4430SOL    HW214147   5.956   0.442   0.302  1.4304 -0.4643  0.5115
 4431SOL     OW14148   6.092   5.502   4.293  0.3452  0.5416  0.1639
 4431SOL    HW114149   6.128   5.587   4.321  1.8352  0.6164 -1.7877
 4431SOL    HW214150   6.009   5.523   4.252 -1.4952  0.5144  3.5002
 4432SOL     OW14151   7.463   5.290   4.378  0.5423 -0.4834  0.1237
 4432SOL    HW114152   7.519   5.353   4.424  0.0913  0.2979 -0.3682
 4432SOL    HW214153   7.525   5.231   4.334  0.9903  0.3286 -0.3584
 4433SOL     OW14154   0.764   4.615   4.624 -0.0271  0.1718  0.0478
 4433SOL    HW114155   0.719   4.553   4.682 -1.2625  1.5434  0.5966
 4433SOL    HW214156   0.757   4.576   4.537  1.5079 -1.7322  0.6848
 4434SOL     OW14157   5.567   5.133   4.499  0.1105 -0.3068 -0.0389
 4434SOL    HW114158   5.473   5.114   4.496  0.1296 -0.3146 -1.5251
 4434SOL    HW214159   5.584   5.185   4.420  1.3506 -0.2764  0.2181
 4435SOL     OW14160   0.452   1.503   1.682  0.4630 -0.6120 -0.4490
 4435SOL    HW114161   0.382   1.477   1.743  0.7618 -0.3421  0.0139
 4435SOL    HW214162   0.528   1.452   1.709  1.1735  0.9420  0.7241
 4436SOL     OW14163   0.294   1.795   1.787 -0.3216 -0.0971  0.4940
 4436SOL    HW114164   0.237   1.823   1.716 -0.0129 -0.3461  0.1452
 4436SOL    HW214165   0.347   1.725   1.749  2.4383  2.1595 -0.1650
 4437SOL     OW14166   7.452   7.941   3.307 -0.2339 -0.1505  0.2304
 4437SOL    HW114167   7.449   7.948   3.402 -1.3587  0.8829  0.1373
 4437SOL    HW214168   7.545   7.933   3.287  0.0131 -6.5518  1.7381
 4438SOL     OW14169   3.239   6.305   5.046  0.0793 -0.4368  0.0675
 4438SOL    HW114170   3.295   6.383   5.054 -0.0055 -0.5305  5.3239
 4438SOL    HW214171   3.300   6.233   5.028  1.0123  0.1291  0.8308
 4439SOL     OW14172   6.583   3.038   4.664  0.1080 -0.4656 -0.2879
 4439SOL    HW114173   6.528   3.035   4.742  1.0045 -1.0173  0.3406
 4439SOL    HW214174   6.670   3.061   4.696  0.2771  0.3019 -1.2545
 4440SOL     OW14175   0.781   1.838   1.435 -0.6009  0.7092  0.0760
 4440SOL    HW114176   0.780   1.863   1.343  1.4986  0.4637 -0.0651
 4440SOL    HW214177   0.691   1.853   1.465 -2.3280 -2.5678 -2.8279
 4441SOL     OW14178   2.026   5.692   3.798  0.1966  0.1741  0.3860
 4441SOL    HW114179   2.011   5.782   3.827 -0.2344  0.1497  0.2495
 4441SOL    HW214180   1.943   5.665   3.760  0.1608 -0.4494  0.8734
 4442SOL     OW14181   4.224   6.154   3.913 -0.3747  0.0043 -0.1802
 4442SOL    HW114182   4.299   6.194   3.957 -0.6905  0.5461 -0.1207
 4442SOL    HW214183   4.249   6.063   3.900 -0.1683 -0.1082  0.8988
 4443SOL     OW14184   1.344   7.944   2.403 -0.2391 -0.4166 -0.1225
 4443SOL    HW114185   1.365   7.994   2.324 -0.4636 -0.1230  0.0034
 4443SOL    HW214186   1.402   7.868   2.399 -0.4788 -0.5735 -0.7376
 4444SOL     OW14187   2.112   3.589   1.264  0.5514  0.1790 -0.0954
 4444SOL    HW114188   2.021   3.589   1.234  0.9198 -0.0744 -1.2445
 4444SOL    HW214189   2.116   3.515   1.326 -0.0081  0.1623 -0.0720
 4445SOL     OW14190   4.681   0.544   5.240  0.0352  0.8958 -0.2009
 4445SOL    HW114191   4.639   0.512   5.319  1.4982 -3.2780 -0.8458
 4445SOL    HW214192   4.736   0.617   5.270 -1.0091  0.7927  2.2010
 4446SOL     OW14193   3.752   3.981   3.404 -0.5095  0.0942 -0.1148
 4446SOL    HW114194   3.749   3.929   3.485  0.7449  1.7619  1.0754
 4446SOL    HW214195   3.660   3.998   3.383 -0.8657  0.2725  1.4256
 4447SOL     OW14196   4.712   2.588   2.355 -0.3578 -0.0790 -0.4117
 4447SOL    HW114197   4.740   2.504   2.318 -0.8206  0.1220 -1.2456
 4447SOL    HW214198   4.783   2.649   2.333 -0.2726 -0.1300 -0.2807
 4448SOL     OW14199   0.393   7.015   1.412  0.6253 -0.0620 -0.4491
 4448SOL    HW114200   0.301   7.000   1.434  0.7837  0.2266  0.4438
 4448SOL    HW214201   0.410   7.104   1.441  1.1791 -0.0993 -0.6512
 4449SOL     OW14202   7.102   5.464   5.595 -0.0907  0.3476 -0.5880
 4449SOL    HW114203   7.049   5.433   5.523  0.8323 -0.9778 -0.7330
 4449SOL    HW214204   7.190   5.430   5.577  0.5196  1.3714  0.3111
 4450SOL     OW14205   1.861   3.071   0.469 -0.4610 -0.0651 -0.3682
 4450SOL    HW114206   1.912   3.084   0.389 -0.0986 -1.5974 -0.4270
 4450SOL    HW214207   1.852   2.976   0.476 -0.1951 -0.0008  1.5832
 4451SOL     OW14208   1.548   5.536   6.842  0.5445 -0.9005  0.2960
 4451SOL    HW114209   1.550   5.454   6.793 -0.7242 -1.7156  1.5228
 4451SOL    HW214210   1.632   5.539   6.888  0.8147 -1.2540 -0.1732
 4452SOL     OW14211   1.566   5.281   6.708 -0.1435  0.2877  0.0431
 4452SOL    HW114212   1.576   5.296   6.614 -3.0341  0.8472 -0.2587
 4452SOL    HW214213   1.471   5.279   6.722  0.1440  2.1757  3.2276
 4453SOL     OW14214   7.118   7.939   7.210 -0.5342 -0.2645  0.2400
 4453SOL    HW114215   7.036   7.988   7.221 -0.6252 -0.7888  2.3442
 4453SOL    HW214216   7.165   7.985   7.141 -1.3828  1.7441  0.9410
 4454SOL     OW14217   4.379   6.109   6.619  0.0915  0.5231 -0.1161
 4454SOL    HW114218   4.468   6.142   6.610  0.3023 -0.3220 -1.3999
 4454SOL    HW214219   4.388   6.032   6.675 -0.1960  1.7375  1.6781
 4455SOL     OW14220   2.774   5.530   5.199 -0.1946 -0.4925 -0.9173
 4455SOL    HW114221   2.854   5.479   5.190  0.2304  0.2333 -1.2997
 4455SOL    HW214222   2.802   5.621   5.196 -0.6617 -0.1320  1.9888
 4456SOL     OW14223   7.729   7.460   7.118 -0.6651  0.4244  0.0289
 4456SOL    HW114224   7.683   7.405   7.055  1.2170  0.2823 -1.2729
 4456SOL    HW214225   7.675   7.539   7.124 -1.7200 -0.2346 -0.4997
 4457SOL     OW14226   4.543   6.922   2.855  0.3593  0.2582 -0.3588
 4457SOL    HW114227   4.519   6.947   2.766 -0.2687  1.1067  0.0193
 4457SOL    HW214228   4.528   6.828   2.859 -0.9464  0.4173 -0.7744
 4458SOL     OW14229   2.634   4.660   3.235 -0.6280 -0.2886 -0.3143
 4458SOL    HW114230   2.584   4.632   3.312 -1.3978  0.4633 -0.5327
 4458SOL    HW214231   2.583   4.731   3.197 -0.9093 -1.4297 -2.2277
 4459SOL     OW14232   2.785   2.658   2.455  0.1088 -0.1649  0.0738
 4459SOL    HW114233   2.831   2.742   2.448  0.5835 -0.5342 -1.4956
 4459SOL    HW214234   2.854   2.592   2.452 -0.0637 -0.6462  3.1972
 4460SOL     OW14235   5.542   1.222   7.050 -0.7352  0.2706 -0.1354
 4460SOL    HW114236   5.631   1.199   7.077 -1.0345 -1.7106 -0.6486
 4460SOL    HW214237   5.486   1.160   7.097 -1.9072  1.6593  0.3927
 4461SOL     OW14238   5.790   3.183   0.936 -0.7076  0.6720 -0.4202
 4461SOL    HW114239   5.843   3.108   0.911  0.2973  0.9977  0.6329
 4461SOL    HW214240   5.700   3.158   0.914 -0.4007 -0.8512 -0.0415
 4462SOL     OW14241   3.759   0.755   2.900  0.0775 -0.3698 -0.0437
 4462SOL    HW114242   3.704   0.830   2.878 -0.4832 -0.3961  1.1887
 4462SOL    HW214243   3.838   0.767   2.847  0.4604  1.6708  0.8954
 4463SOL     OW14244   6.188   6.032   1.802  0.0156 -0.1253 -0.3998
 4463SOL    HW114245   6.269   5.987   1.778 -0.1276 -0.1942 -0.7577
 4463SOL    HW214246   6.176   6.011   1.895  0.2525 -0.3531 -0.4179
 4464SOL     OW14247   5.350   3.010   1.393 -0.4232 -0.3389  0.1461
 4464SOL    HW114248   5.330   3.046   1.480 -0.0961 -0.1867  0.1579
 4464SOL    HW214249   5.428   3.057   1.365 -2.5932  2.3501 -1.8862
 4465SOL     OW14250   1.885   5.849   7.868 -0.3738 -0.3903  0.1732
 4465SOL    HW114251   1.894   5.804   7.784 -3.0809 -1.7643  0.4906
 4465SOL    HW214252   1.869   5.778   7.931  1.1339  0.6436  1.8121
 4466SOL     OW14253   4.163   4.195   6.124  0.2950 -0.1943  0.3221
 4466SOL    HW114254   4.218   4.245   6.063  0.1866  1.2040  1.3152
 4466SOL    HW214255   4.201   4.107   6.124  0.1157 -0.3338 -1.9531
 4467SOL     OW14256   1.981   3.342   7.957  0.1728 -0.3403 -0.0650
 4467SOL    HW114257   1.954   3.405   8.024  0.5536  0.0779 -0.2987
 4467SOL    HW214258   2.045   3.390   7.904  1.2230 -1.2408  0.3532
 4468SOL     OW14259   2.416   3.191   3.076  0.1023  0.0981 -0.4393
 4468SOL    HW114260   2.404   3.266   3.018  0.1271  1.3425  1.0822
 4468SOL    HW214261   2.393   3.225   3.163 -1.5154 -2.1127  0.0835
 4469SOL     OW14262   6.617   7.731   2.514  0.0582  0.4346  0.0541
 4469SOL    HW114263   6.709   7.733   2.488 -0.1738 -1.1813 -1.0110
 4469SOL    HW214264   6.595   7.823   2.530  1.7015  0.9088 -0.1635
 4470SOL     OW14265   7.435   0.878   1.482 -0.1242 -0.4443  0.0043
 4470SOL    HW114266   7.446   0.934   1.559  0.5228  0.1427 -0.4993
 4470SOL    HW214267   7.346   0.845   1.489 -0.1940 -0.1200  0.8206
 4471SOL     OW14268   3.371   5.736   1.768 -0.1204 -0.0350  0.2998
 4471SOL    HW114269   3.406   5.743   1.680  0.7703  2.1798  0.7735
 4471SOL    HW214270   3.302   5.802   1.772  0.8647  0.9721  1.6837
 4472SOL     OW14271   7.594   0.126   2.072 -0.0000  0.1660  0.1723
 4472SOL    HW114272   7.544   0.165   2.143  1.0691 -0.3478  1.2408
 4472SOL    HW214273   7.679   0.171   2.073  0.6969 -1.0827  0.4436
 4473SOL     OW14274   2.851   2.000   1.382  0.3693  0.0126  0.2314
 4473SOL    HW114275   2.929   2.022   1.331  0.2901 -1.8957 -0.7619
 4473SOL    HW214276   2.862   1.908   1.406 -1.8990 -0.5179 -0.5337
 4474SOL     OW14277   2.779   2.375   7.504 -0.0369 -0.2295  0.4431
 4474SOL    HW114278   2.780   2.373   7.600 -0.2245 -0.2740  0.4442
 4474SOL    HW214279   2.752   2.287   7.479 -1.8309  0.3101  0.3787
 4475SOL     OW14280   6.873   7.779   2.434 -0.2745 -0.0223  0.2125
 4475SOL    HW114281   6.949   7.721   2.436  1.1342  1.7402  0.6243
 4475SOL    HW214282   6.880   7.826   2.351 -0.6434  0.4940  0.4684
 4476SOL     OW14283   6.283   3.572   0.977 -0.4641  0.4838 -0.6870
 4476SOL    HW114284   6.239   3.637   0.922  1.9469  1.3879 -1.6663
 4476SOL    HW214285   6.350   3.534   0.920  0.9025  0.1205  1.0912
 4477SOL     OW14286   5.495   7.565   1.324 -0.9191  0.2606  0.2201
 4477SOL    HW114287   5.453   7.504   1.384 -2.7027 -0.7794 -1.9325
 4477SOL    HW214288   5.433   7.573   1.251  1.7740  0.1609 -2.2450
 4478SOL     OW14289   1.417   0.528   5.815 -0.1538 -0.8545 -0.4277
 4478SOL    HW114290   1.463   0.477   5.749  0.5549 -1.1183  0.2563
 4478SOL    HW214291   1.328   0.536   5.781 -0.1008 -1.9674 -0.8681
 4479SOL     OW14292   2.410   2.527   1.298  0.0377 -0.0253 -0.3064
 4479SOL    HW114293   2.340   2.548   1.359  0.3772 -0.4068  0.2222
 4479SOL    HW214294   2.416   2.603   1.241 -0.1019  0.4441  0.3016
 4480SOL     OW14295   7.150   4.640   1.456  0.0550  0.3661 -0.1544
 4480SOL    HW114296   7.220   4.631   1.521 -0.6019  0.1429  0.5234
 4480SOL    HW214297   7.162   4.566   1.397 -0.4565 -0.4775  0.7759
 4481SOL     OW14298   7.532   4.286   6.140 -0.4865  0.5277  0.4194
 4481SOL    HW114299   7.597   4.301   6.208 -1.8105 -0.0913  1.8868
 4481SOL    HW214300   7.548   4.355   6.076 -0.8827  2.8713  2.6724
 4482SOL     OW14301   2.432   7.460   3.118  0.1489  0.1991 -0.1601
 4482SOL    HW114302   2.470   7.543   3.090  1.6931 -0.3850  0.0806
 4482SOL    HW214303   2.508   7.404   3.137 -0.8531 -0.8806  0.8353
 4483SOL     OW14304   5.430   1.598   3.701  0.3007 -0.4743  0.1294
 4483SOL    HW114305   5.357   1.539   3.682 -0.3750  0.2809  0.3406
 4483SOL    HW214306   5.491   1.584   3.628  0.4491 -1.8656  0.4787
 4484SOL     OW14307   1.836   2.795   7.179  0.2776  0.0645 -0.5646
 4484SOL    HW114308   1.810   2.763   7.093  1.3281  1.0152 -1.2615
 4484SOL    HW214309   1.915   2.847   7.163  0.5485  0.1898  0.9837
 4485SOL     OW14310   2.554   5.615   1.880 -0.3452  0.0356  0.9374
 4485SOL    HW114311   2.628   5.637   1.822 -0.7421  1.4532  0.9177
 4485SOL    HW214312   2.582   5.536   1.925  1.5627  0.9762  1.5236
 4486SOL     OW14313   1.739   3.121   6.795  0.1274  0.5168 -0.6327
 4486SOL    HW114314   1.648   3.091   6.801 -0.0067  0.6022 -1.9961
 4486SOL    HW214315   1.733   3.214   6.774  0.5308  0.4655 -0.9917
 4487SOL     OW14316   6.914   6.506   3.963 -0.1055  0.1664  0.3760
 4487SOL    HW114317   6.846   6.527   3.898 -1.6746 -1.2895  1.4576
 4487SOL    HW214318   6.966   6.437   3.922  0.0137  0.4922 -0.0229
 4488SOL     OW14319   0.183   7.955   2.305 -0.4244  0.0657 -0.6335
 4488SOL    HW114320   0.101   7.936   2.351 -0.6067  3.1956  0.5605
 4488SOL    HW214321   0.243   7.984   2.373  1.7561 -2.0642 -1.4985
 4489SOL     OW14322   7.661   2.297   1.573  0.7429 -0.2352 -0.3268
 4489SOL    HW114323   7.589   2.281   1.512  0.9070  0.9646 -0.8680
 4489SOL    HW214324   7.732   2.330   1.518  1.1277  0.2215  0.4238
 4490SOL     OW14325   7.687   2.905   3.862 -0.3264 -0.2479  0.4576
 4490SOL    HW114326   7.768   2.861   3.886 -0.4910 -0.3594  0.8131
 4490SOL    HW214327   7.657   2.860   3.784 -0.1458 -0.3288  0.4347
 4491SOL     OW14328   1.616   7.424   5.103 -0.4456 -0.1772 -0.3181
 4491SOL    HW114329   1.645   7.343   5.147 -0.2432  0.5070  0.8582
 4491SOL    HW214330   1.684   7.441   5.038  0.8519  0.3434  1.0941
 4492SOL     OW14331   6.106   2.171   1.456 -0.0493  0.4216 -0.0075
 4492SOL    HW114332   6.099   2.262   1.426  1.0718  0.5888  0.1758
 4492SOL    HW214333   6.111   2.120   1.375 -0.6943  0.5206 -0.1121
 4493SOL     OW14334   6.626   2.523   0.639 -0.5221 -0.2849  0.3137
 4493SOL    HW114335   6.607   2.455   0.574 -0.2534 -0.7517  0.7234
 4493SOL    HW214336   6.694   2.486   0.694 -0.7609  0.1034  0.8806
 4494SOL     OW14337   0.789   0.377   6.707  0.4752  0.4829 -0.4031
 4494SOL    HW114338   0.745   0.428   6.775  2.5631  1.3104  0.4240
 4494SOL    HW214339   0.754   0.412   6.625 -2.0281 -0.4712  0.1728
 4495SOL     OW14340   6.756   0.521   0.948  0.0501 -0.4261 -0.7024
 4495SOL    HW114341   6.851   0.533   0.948  0.3076 -2.1971  0.0948
 4495SOL    HW214342   6.727   0.557   1.032  0.2187 -1.1847 -0.3128
 4496SOL     OW14343   2.970   1.671   4.614  0.0220  0.4632  0.5325
 4496SOL    HW114344   2.975   1.585   4.656 -1.5998 -0.6648 -1.4207
 4496SOL    HW214345   3.033   1.668   4.543 -1.5410  0.0225 -0.8933
 4497SOL     OW14346   0.416   6.513   5.839  0.3816  0.1187 -0.2301
 4497SOL    HW114347   0.329   6.495   5.875  0.6141  0.7410  0.6689
 4497SOL    HW214348   0.415   6.607   5.820  1.2558  0.3757  0.9159
 4498SOL     OW14349   4.985   6.061   6.115 -0.3185  0.0310  0.2261
 4498SOL    HW114350   5.012   6.066   6.023  1.7091 -2.2619  0.6124
 4498SOL    HW214351   5.050   6.113   6.161 -0.3198 -0.2578  0.5509
 4499SOL     OW14352   6.881   3.131   0.972  0.2821  0.5212 -0.0825
 4499SOL    HW114353   6.872   3.201   1.037  1.5371  1.0233 -0.4333
 4499SOL    HW214354   6.955   3.079   1.002  0.5333  0.4372 -0.8330
 4500SOL     OW14355   1.053   3.703   0.412  0.0189  0.0177  0.1764
 4500SOL    HW114356   0.960   3.687   0.393 -0.3148 -0.4049  1.9515
 4500SOL    HW214357   1.096   3.619   0.394 -0.3531 -0.4907  1.5032
 4501SOL     OW14358   6.148   1.378   5.995  0.5356  0.1644  0.5254
 4501SOL    HW114359   6.148   1.457   5.941 -3.7922 -0.6008 -1.0112
 4501SOL    HW214360   6.137   1.409   6.085  3.2426  1.2962  0.5684
 4502SOL     OW14361   1.996   0.716   2.617  0.2892  0.0129 -0.4438
 4502SOL    HW114362   2.024   0.632   2.579  0.6492  0.2527 -0.7187
 4502SOL    HW214363   1.957   0.693   2.701  2.8388 -0.2213  0.7701
 4503SOL     OW14364   7.553   6.760   0.083  0.2858 -0.1243  0.1891
 4503SOL    HW114365   7.618   6.829   0.070 -1.0965  1.2425  0.3118
 4503SOL    HW214366   7.471   6.806   0.101 -1.6154 -1.5815 -3.5645
 4504SOL     OW14367   1.677   7.806   1.740  0.2007 -0.1075 -0.0220
 4504SOL    HW114368   1.746   7.838   1.798  0.8674  0.0423 -0.8736
 4504SOL    HW214369   1.698   7.843   1.655 -0.4429 -0.7693 -0.4865
 4505SOL     OW14370   6.246   7.287   5.746 -0.0545  0.5923 -0.4637
 4505SOL    HW114371   6.178   7.318   5.687 -1.9310  1.0718  1.7818
 4505SOL    HW214372   6.284   7.366   5.783  0.0828  0.2997  0.0332
 4506SOL     OW14373   2.785   5.878   0.270 -0.4646 -0.0823 -0.1853
 4506SOL    HW114374   2.775   5.973   0.276 -0.8359 -0.1253 -0.1234
 4506SOL    HW214375   2.872   5.860   0.306 -0.7795  0.1348  0.6861
 4507SOL     OW14376   3.519   6.569   0.517  0.1068 -0.0253 -0.5426
 4507SOL    HW114377   3.540   6.662   0.523  2.7271 -0.4860 -1.1077
 4507SOL    HW214378   3.589   6.526   0.566 -0.7226 -1.7316 -0.7927
 4508SOL     OW14379   7.225   3.907   6.953 -0.1923 -0.8594 -0.4619
 4508SOL    HW114380   7.184   3.874   6.873 -1.7015 -2.1762  0.8117
 4508SOL    HW214381   7.153   3.916   7.015  0.8385  0.8560  0.5566
 4509SOL     OW14382   6.478   3.940   6.458 -0.1053  0.3525  0.3620
 4509SOL    HW114383   6.549   3.954   6.396 -2.5060  1.0304 -2.4942
 4509SOL    HW214384   6.448   4.029   6.479 -0.2371  0.0761  1.3756
 4510SOL     OW14385   6.591   4.808   0.235  0.1038  0.5117 -0.1935
 4510SOL    HW114386   6.670   4.758   0.258  0.6706  1.2847 -0.4142
 4510SOL    HW214387   6.526   4.781   0.300  0.4668 -0.3258 -0.1628
 4511SOL     OW14388   1.007   6.826   3.604  0.0589 -0.0687 -0.0842
 4511SOL    HW114389   1.016   6.921   3.598  4.7966  0.1526  3.7475
 4511SOL    HW214390   0.938   6.813   3.669  1.5067  1.1087  1.8152
 4512SOL     OW14391   3.154   0.227   0.544  0.3300 -0.7658  0.2121
 4512SOL    HW114392   3.101   0.256   0.619  0.0111 -1.7379  0.3772
 4512SOL    HW214393   3.167   0.306   0.492 -0.4010 -0.2977  0.7137
 4513SOL     OW14394   1.442   3.405   0.340 -0.1910  1.0832 -0.1248
 4513SOL    HW114395   1.497   3.483   0.341  2.4367 -0.6362  0.7926
 4513SOL    HW214396   1.401   3.403   0.427 -0.5774  1.6402 -0.2953
 4514SOL     OW14397   3.232   2.244   4.553  0.0847 -0.2629 -0.0892
 4514SOL    HW114398   3.194   2.330   4.531  1.3431  0.2720 -0.2637
 4514SOL    HW214399   3.195   2.184   4.488  0.0111  0.3673 -0.6408
 4515SOL     OW14400   5.835   3.395   1.652  0.4446 -0.9775  0.0951
 4515SOL    HW114401   5.922   3.425   1.679 -0.6576 -0.8540  4.2365
 4515SOL    HW214402   5.788   3.476   1.631  0.5657 -0.7693  0.5971
 4516SOL     OW14403   0.572   5.210   0.306 -0.1003 -0.5343 -0.1438
 4516SOL    HW114404   0.666   5.195   0.290 -0.5082 -2.9058 -0.7063
 4516SOL    HW214405   0.539   5.241   0.222  0.3402  1.3951  0.3614
 4517SOL     OW14406   6.958   1.129   6.610 -0.3424  0.2256 -0.5318
 4517SOL    HW114407   6.928   1.060   6.670 -0.0548 -0.3595 -1.0510
 4517SOL    HW214408   6.970   1.206   6.666 -1.7618  0.1898 -0.1273
 4518SOL     OW14409   7.699   7.868   6.874  0.2653 -0.1360 -0.6883
 4518SOL    HW114410   7.781   7.904   6.842  0.5565  1.3706  1.5450
 4518SOL    HW214411   7.716   7.845   6.965 -1.2369 -1.7188 -0.7457
 4519SOL     OW14412   3.010   6.615   5.359  0.4445  0.1182  0.1077
 4519SOL    HW114413   3.089   6.597   5.411  1.6839  3.0027 -0.5515
 4519SOL    HW214414   3.044   6.639   5.272 -1.2135  0.4614 -0.4797
 4520SOL     OW14415   1.624   7.784   2.498 -0.3550  0.0960  0.0816
 4520SOL    HW114416   1.637   7.744   2.411 -2.1745 -0.1917 -0.0977
 4520SOL    HW214417   1.546   7.741   2.532 -1.5316  2.4206  0.5185
 4521SOL     OW14418   0.275   7.393   1.300  0.2105 -0.8578  0.2914
 4521SOL    HW114419   0.224   7.373   1.378  0.2177 -2.2966 -0.0383
 4521SOL    HW214420   0.231   7.468   1.260 -2.7493 -3.0696 -0.9318
 4522SOL     OW14421   2.194   4.810   0.678  0.2449  0.3571 -0.4190
 4522SOL    HW114422   2.143   4.864   0.738  0.0549 -0.3194  0.0358
 4522SOL    HW214423   2.268   4.779   0.730 -0.2391 -0.7205 -0.3544
 4523SOL     OW14424   3.318   7.228   3.637 -0.2828  0.0227  0.6806
 4523SOL    HW114425   3.387   7.183   3.588 -1.6407 -1.3907 -0.0055
 4523SOL    HW214426   3.333   7.321   3.618  2.0907 -0.1183  1.4675
 4524SOL     OW14427   5.037   5.415   0.711 -0.3135 -0.2498 -0.2353
 4524SOL    HW114428   5.027   5.365   0.630 -1.6477  1.2867 -1.0745
 4524SOL    HW214429   5.106   5.479   0.690 -0.5018  0.0019 -0.0806
 4525SOL     OW14430   2.907   4.004   4.113  0.1140 -0.5978 -0.0149
 4525SOL    HW114431   2.982   4.000   4.055  0.1492 -2.5867  0.0940
 4525SOL    HW214432   2.943   3.989   4.201 -0.3466 -1.3668  0.0610
 4526SOL     OW14433   7.450   6.728   3.988  0.1399  0.2190 -0.1659
 4526SOL    HW114434   7.421   6.677   4.063 -0.3605  1.5087  0.5621
 4526SOL    HW214435   7.373   6.735   3.931  0.1732  0.2342 -0.2095
 4527SOL     OW14436   1.034   7.463   2.414 -0.5999  0.2386 -0.1342
 4527SOL    HW114437   1.007   7.422   2.496 -2.0385  0.1514 -0.6392
 4527SOL    HW214438   1.099   7.402   2.378 -1.1246 -0.5115  0.1671
 4528SOL     OW14439   3.039   7.751   6.199 -0.3155 -0.2075 -0.4724
 4528SOL    HW114440   3.063   7.832   6.244 -0.2583 -1.5542  2.1171
 4528SOL    HW214441   3.123   7.712   6.175 -0.2042 -0.6943  0.6310
 4529SOL     OW14442   2.771   4.529   3.937  0.1938 -0.0630  0.1620
 4529SOL    HW114443   2.751   4.483   3.855 -2.8455  0.8499  0.2816
 4529SOL    HW214444   2.692   4.521   3.989  1.4639  0.8326  2.3561
 4530SOL     OW14445   6.117   1.452   5.082 -0.0202 -0.2612  0.0626
 4530SOL    HW114446   6.117   1.470   4.988  0.2655 -1.3896 -0.1777
 4530SOL    HW214447   6.202   1.410   5.098 -0.8954 -2.0178  0.3967
 4531SOL     OW14448   5.163   1.965   6.885 -0.3041 -0.2127 -0.4054
 4531SOL    HW114449   5.112   2.041   6.911 -1.6729 -1.4333  0.6512
 4531SOL    HW214450   5.103   1.912   6.834  0.7493 -0.4318 -1.4608
 4532SOL     OW14451   0.131   1.777   1.516 -0.2917  0.5524  0.8543
 4532SOL    HW114452   0.052   1.761   1.465  0.3973 -0.5372  0.0695
 4532SOL    HW214453   0.171   1.854   1.475  0.9414 -1.0755 -1.2187
 4533SOL     OW14454   2.469   0.607   7.372 -0.3117  0.3636  0.1514
 4533SOL    HW114455   2.404   0.548   7.332 -0.3015 -0.2002  0.9453
 4533SOL    HW214456   2.419   0.685   7.396 -0.4979  0.3351 -0.1396
 4534SOL     OW14457   4.306   3.326   6.446  0.2976 -0.2617  0.1788
 4534SOL    HW114458   4.239   3.394   6.445 -0.0035 -0.5457  0.7450
 4534SOL    HW214459   4.388   3.372   6.460  0.1798  0.0485 -0.1272
 4535SOL     OW14460   3.953   3.470   6.764  0.4192 -0.4413 -0.0714
 4535SOL    HW114461   3.926   3.562   6.765 -0.5044 -0.6859 -0.9478
 4535SOL    HW214462   3.948   3.445   6.672  1.5070 -1.1408  0.0497
 4536SOL     OW14463   7.403   0.639   0.667  0.3247  0.0447  0.1235
 4536SOL    HW114464   7.395   0.666   0.575  1.5776 -0.4418 -0.1450
 4536SOL    HW214465   7.384   0.719   0.716 -2.7282 -0.2090 -0.4366
 4537SOL     OW14466   5.850   5.354   1.979  0.3817 -0.3438 -0.4991
 4537SOL    HW114467   5.926   5.299   1.995 -0.3774 -1.3929 -0.3655
 4537SOL    HW214468   5.851   5.418   2.050  0.1863 -1.4402  0.5294
 4538SOL     OW14469   2.439   5.111   0.791 -0.0487 -0.0938  0.0007
 4538SOL    HW114470   2.441   5.098   0.696  2.0320 -0.6264  0.0785
 4538SOL    HW214471   2.423   5.023   0.826 -0.3118  0.0194  0.1691
 4539SOL     OW14472   6.865   6.559   7.785 -0.3704  0.2905  0.5538
 4539SOL    HW114473   6.945   6.572   7.735 -0.7820  2.1269  0.3123
 4539SOL    HW214474   6.889   6.582   7.875 -0.2922 -0.4987  0.7428
 4540SOL     OW14475   1.569   1.666   3.045 -0.0061  0.3420  0.2260
 4540SOL    HW114476   1.485   1.621   3.044  0.5920 -0.8039 -1.2739
 4540SOL    HW214477   1.575   1.704   3.133 -1.5635 -0.5298  0.7352
 4541SOL     OW14478   3.728   1.797   0.098 -0.7304 -0.1098  0.5961
 4541SOL    HW114479   3.796   1.808   0.165  0.1286  0.8171 -0.3920
 4541SOL    HW214480   3.658   1.750   0.143 -0.0384  0.1773  2.0465
 4542SOL     OW14481   2.394   4.703   3.714 -0.4131 -0.4236 -0.8431
 4542SOL    HW114482   2.451   4.628   3.729 -1.7710 -1.3108  0.0938
 4542SOL    HW214483   2.425   4.770   3.774  0.6019 -0.3321 -1.4516
 4543SOL     OW14484   0.016   3.802   6.593 -0.1922  0.2559 -0.4093
 4543SOL    HW114485  -0.075   3.824   6.569  0.1933  1.2394 -1.0513
 4543SOL    HW214486   0.054   3.769   6.511 -0.0815 -0.5352 -0.0391
 4544SOL     OW14487   1.321   4.725   0.872  0.2017 -0.2483  0.1937
 4544SOL    HW114488   1.285   4.678   0.947  0.2334 -0.9804 -0.2289
 4544SOL    HW214489   1.416   4.717   0.882  0.3204  2.0082  1.5104
 4545SOL     OW14490   6.419   7.244   1.325  0.3550 -0.0926  0.9589
 4545SOL    HW114491   6.491   7.307   1.324 -1.3372  1.9759  0.9967
 4545SOL    HW214492   6.378   7.256   1.411 -1.4463  0.5628  0.0714
 4546SOL     OW14493   6.928   6.172   0.193  0.1173  0.4901  0.0064
 4546SOL    HW114494   7.005   6.118   0.178 -0.2956  0.0463 -0.6065
 4546SOL    HW214495   6.935   6.242   0.128  0.0610  0.5135  0.0250
 4547SOL     OW14496   5.890   6.307   6.301 -0.0413 -0.4217  0.3736
 4547SOL    HW114497   5.921   6.389   6.263 -0.0696  0.0878  1.4283
 4547SOL    HW214498   5.948   6.291   6.375  1.8370 -2.8658 -1.4217
 4548SOL     OW14499   3.446   3.597   1.133 -0.2547  0.5243  0.4822
 4548SOL    HW114500   3.425   3.615   1.224 -1.6875 -0.2671  0.3263
 4548SOL    HW214501   3.489   3.678   1.102  2.1806  0.0699  2.3677
 4549SOL     OW14502   3.407   0.330   4.401  0.2033  0.3570 -0.8320
 4549SOL    HW114503   3.391   0.399   4.336 -0.4211 -0.5251 -1.6282
 4549SOL    HW214504   3.447   0.259   4.352  0.5145  0.0010 -0.0793
 4550SOL     OW14505   3.790   1.861   6.287  0.3153  0.1317  0.0338
 4550SOL    HW114506   3.830   1.819   6.211  1.0415 -0.4597  0.7294
 4550SOL    HW214507   3.850   1.843   6.359 -0.3772  0.6593  0.7624
 4551SOL     OW14508   0.950   2.660   2.057 -0.2607  0.0386  0.5612
 4551SOL    HW114509   1.038   2.629   2.079  0.1110  0.8868  0.2754
 4551SOL    HW214510   0.960   2.754   2.041 -1.0192 -0.0482 -0.5515
 4552SOL     OW14511   3.807   0.774   1.942 -0.0606 -0.1937  0.0096
 4552SOL    HW114512   3.860   0.704   1.979  1.7722  1.8385  1.4913
 4552SOL    HW214513   3.721   0.764   1.981  1.4499  1.1368  4.2006
 4553SOL     OW14514   4.403   4.791   3.590 -0.5252  0.7759  0.3932
 4553SOL    HW114515   4.427   4.820   3.678 -0.6434  1.2340  0.2821
 4553SOL    HW214516   4.342   4.859   3.560 -2.5088 -0.6560  0.9298
 4554SOL     OW14517   7.128   5.941   3.488 -0.4104 -0.6176 -0.1120
 4554SOL    HW114518   7.129   5.845   3.488  1.5507 -0.6802  1.3239
 4554SOL    HW214519   7.149   5.965   3.398 -0.3163 -1.5533 -0.3518
 4555SOL     OW14520   1.944   3.927   0.752  0.7456  0.0483 -0.4117
 4555SOL    HW114521   1.921   3.927   0.659  1.1513 -0.0731 -0.5134
 4555SOL    HW214522   1.995   4.007   0.764  0.6781  0.0732 -0.2890
 4556SOL     OW14523   4.458   6.427   5.890 -0.1037  0.2466 -0.2080
 4556SOL    HW114524   4.536   6.428   5.834 -1.2018 -4.2104 -2.2737
 4556SOL    HW214525   4.489   6.392   5.974  0.6481  1.9565  0.2653
 4557SOL     OW14526   6.111   3.337   0.947  0.0730 -0.1526  0.5844
 4557SOL    HW114527   6.141   3.405   1.007  0.2281 -0.9419  1.4220
 4557SOL    HW214528   6.068   3.272   1.003  1.3187 -1.5270  0.0204
 4558SOL     OW14529   4.162   0.606   5.162 -0.4935 -0.6007 -0.0060
 4558SOL    HW114530   4.143   0.532   5.104  1.3971 -0.3050 -1.0897
 4558SOL    HW214531   4.256   0.617   5.156 -0.6588  1.5269  0.5940
 4559SOL     OW14532   2.085   2.925   7.570 -0.2410  0.2731 -0.5991
 4559SOL    HW114533   2.096   2.904   7.663 -1.3610  0.3530 -0.4415
 4559SOL    HW214534   2.007   2.877   7.544 -0.9973  1.7133 -1.0469
 4560SOL     OW14535   1.722   6.886   4.904  0.2614 -0.0258 -0.2551
 4560SOL    HW114536   1.687   6.825   4.839  2.4643 -0.2538 -1.3250
 4560SOL    HW214537   1.683   6.857   4.987 -0.6659 -1.3160 -1.0974
 4561SOL     OW14538   0.964   2.885   0.221  0.5896  0.3846 -0.2601
 4561SOL    HW114539   0.997   2.970   0.191 -0.8590  0.5826 -1.3947
 4561SOL    HW214540   0.869   2.892   0.216  0.4340 -1.4232 -0.7607
 4562SOL     OW14541   0.878   5.565   6.137 -0.3827 -0.1052 -0.1245
 4562SOL    HW114542   0.872   5.580   6.043  0.9851 -0.5571 -0.3000
 4562SOL    HW214543   0.802   5.610   6.174 -0.0152  1.4981 -1.2671
 4563SOL     OW14544   6.037   2.806   2.418 -0.2712  0.1585 -0.2272
 4563SOL    HW114545   6.113   2.862   2.435 -0.2821  0.2476 -0.4658
 4563SOL    HW214546   5.972   2.833   2.483  0.6825 -1.4535  1.4848
 4564SOL     OW14547   7.569   3.415   2.561 -0.3707 -0.5001  0.0280
 4564SOL    HW114548   7.496   3.442   2.506 -1.4700 -0.5226  1.4092
 4564SOL    HW214549   7.596   3.495   2.607  0.5835 -0.4653 -0.5434
 4565SOL     OW14550   6.613   5.898   0.313  0.0347  0.1466  0.2608
 4565SOL    HW114551   6.706   5.919   0.311  0.1098  0.0191  1.6222
 4565SOL    HW214552   6.580   5.927   0.228  1.4919 -0.6924 -0.6303
 4566SOL     OW14553   5.119   7.511   2.383  0.1737 -0.4262 -0.1969
 4566SOL    HW114554   5.045   7.571   2.385 -1.2570 -1.9360 -2.6030
 4566SOL    HW214555   5.081   7.428   2.354  2.5086 -1.7981  0.4279
 4567SOL     OW14556   1.955   5.651   0.539  0.0247  0.1922  0.0670
 4567SOL    HW114557   1.956   5.745   0.524 -1.1400  0.0369 -1.1837
 4567SOL    HW214558   2.031   5.619   0.492 -0.6892  0.3133 -1.2184
 4568SOL     OW14559   6.009   6.245   5.708  0.0647 -0.3187 -0.2186
 4568SOL    HW114560   6.041   6.291   5.785  0.1042 -0.4093 -0.1809
 4568SOL    HW214561   6.020   6.308   5.637 -2.1975  0.6461  0.2337
 4569SOL     OW14562   6.888   1.971   7.061 -0.0529 -0.1794 -0.2993
 4569SOL    HW114563   6.852   1.897   7.013 -0.3689 -0.5879  0.5487
 4569SOL    HW214564   6.886   2.044   6.998  0.1709 -0.8560 -1.1062
 4570SOL     OW14565   1.636   3.446   2.346  0.0613  0.6648  0.2385
 4570SOL    HW114566   1.590   3.383   2.402  1.0969  0.6543  1.1095
 4570SOL    HW214567   1.729   3.426   2.359  0.3422  0.9654 -1.1472
 4571SOL     OW14568   4.943   4.483   1.660 -0.0645 -0.1557 -0.1351
 4571SOL    HW114569   5.031   4.460   1.630  0.9070  2.0428  0.7762
 4571SOL    HW214570   4.957   4.545   1.732 -2.3667 -0.1914  0.4482
 4572SOL     OW14571   4.158   6.892   4.712 -0.0475 -0.2450 -0.2398
 4572SOL    HW114572   4.161   6.808   4.667 -0.2767 -0.5935  0.3823
 4572SOL    HW214573   4.075   6.891   4.759 -0.1667  0.4354 -0.4161
 4573SOL     OW14574   1.524   2.661   6.007 -0.1786 -0.0164  0.5142
 4573SOL    HW114575   1.514   2.641   6.100  1.3408 -2.3535  0.2603
 4573SOL    HW214576   1.616   2.641   5.988 -0.5336  0.0979 -1.5687
 4574SOL     OW14577   1.128   7.965   1.546 -1.2944  0.2260 -0.8072
 4574SOL    HW114578   1.177   8.037   1.585 -1.3192 -0.8774  1.4547
 4574SOL    HW214579   1.156   7.963   1.455  1.6111  0.6905 -0.0223
 4575SOL     OW14580   0.126   3.707   5.644 -0.3935  0.4311  0.4070
 4575SOL    HW114581   0.033   3.708   5.622 -0.2346 -0.6758 -0.3604
 4575SOL    HW214582   0.145   3.616   5.664  1.2233  0.0087 -2.5634
 4576SOL     OW14583   1.128   5.042   6.572 -0.4011  0.1294 -0.2710
 4576SOL    HW114584   1.097   5.127   6.540  0.3978  0.4427 -0.2274
 4576SOL    HW214585   1.096   4.979   6.507 -0.6214  0.5123 -0.5369
 4577SOL     OW14586   6.887   6.188   7.724 -0.2701  0.6169  0.4186
 4577SOL    HW114587   6.957   6.122   7.716 -1.5907 -0.6864 -1.7428
 4577SOL    HW214588   6.916   6.260   7.669 -0.1803  0.4838  0.2888
 4578SOL     OW14589   2.419   3.117   3.563 -0.3951  0.4098  0.1548
 4578SOL    HW114590   2.376   3.115   3.649  1.9217  2.8539  1.5145
 4578SOL    HW214591   2.504   3.077   3.578  0.2584  1.3773 -0.8534
 4579SOL     OW14592   0.019   5.996   2.907  0.1435 -0.0566 -0.1861
 4579SOL    HW114593  -0.029   6.016   2.987  1.7667  0.8701  0.6138
 4579SOL    HW214594   0.019   6.078   2.858  2.4132  0.5485  0.6924
 4580SOL     OW14595   2.306   1.052   7.592 -0.1473 -0.4921 -0.3266
 4580SOL    HW114596   2.294   1.138   7.551 -0.1793 -0.8098 -1.0086
 4580SOL    HW214597   2.347   1.071   7.676  1.6197  0.0857 -1.2632
 4581SOL     OW14598   6.812   7.998   2.588 -1.3076  0.1382  0.5282
 4581SOL    HW114599   6.716   7.992   2.595 -1.1120 -1.5619  2.7215
 4581SOL    HW214600   6.836   7.924   2.533 -1.3064  1.4982 -1.3908
 4582SOL     OW14601   6.216   4.577   5.357  0.1533  0.0993  0.1273
 4582SOL    HW114602   6.248   4.659   5.321  1.3859  0.6201  2.2198
 4582SOL    HW214603   6.248   4.510   5.296  1.3479  0.9863 -0.2604
 4583SOL     OW14604   4.325   0.355   4.312 -0.2762 -0.5755 -0.8527
 4583SOL    HW114605   4.239   0.313   4.311  0.9753 -3.4514  0.7073
 4583SOL    HW214606   4.329   0.401   4.396 -0.0238 -1.1064 -0.5696
 4584SOL     OW14607   5.307   3.224   2.705 -0.9014  0.2254 -0.2327
 4584SOL    HW114608   5.331   3.218   2.613 -1.2755 -0.9008 -0.2771
 4584SOL    HW214609   5.211   3.226   2.705 -0.9038  0.2232  0.1274
 4585SOL     OW14610   6.606   2.763   0.145  0.4265  0.2508  0.2327
 4585SOL    HW114611   6.574   2.675   0.165 -0.4691  0.3685 -0.5866
 4585SOL    HW214612   6.699   2.751   0.127  0.7604 -0.2027  2.0932
 4586SOL     OW14613   4.405   7.811   5.869 -0.2246  0.1696  0.0779
 4586SOL    HW114614   4.339   7.746   5.894  0.4307 -0.2349  0.7972
 4586SOL    HW214615   4.441   7.841   5.953  2.4079 -1.5893 -0.3354
 4587SOL     OW14616   1.135   3.313   5.970  0.3969  0.2180  0.7795
 4587SOL    HW114617   1.089   3.372   5.910  0.8355  0.2090  0.4263
 4587SOL    HW214618   1.068   3.254   6.002  0.4256 -0.8040 -0.9395
 4588SOL     OW14619   5.186   5.768   3.049  0.5737 -0.3917  0.0425
 4588SOL    HW114620   5.127   5.766   3.124  0.5389 -0.0140  0.0260
 4588SOL    HW214621   5.233   5.851   3.058  0.0067  0.0212 -0.7924
 4589SOL     OW14622   6.531   1.661   7.162 -0.2211 -0.9278 -0.0240
 4589SOL    HW114623   6.609   1.623   7.203 -0.2192 -0.8049  0.0899
 4589SOL    HW214624   6.461   1.597   7.177  0.1559 -1.6827 -1.3197
 4590SOL     OW14625   3.532   5.520   5.007  0.8769  0.4325 -0.0248
 4590SOL    HW114626   3.551   5.535   4.914 -1.1773 -0.3413 -0.6391
 4590SOL    HW214627   3.536   5.425   5.017  0.4471  0.4652  0.4975
 4591SOL     OW14628   3.259   7.709   3.946  0.1557 -0.1946 -0.1291
 4591SOL    HW114629   3.254   7.631   4.002  1.2516 -1.6026 -1.8921
 4591SOL    HW214630   3.168   7.729   3.925 -0.0992 -2.1058 -1.0483
 4592SOL     OW14631   1.508   3.516   3.023  0.3491 -0.0169 -0.2063
 4592SOL    HW114632   1.593   3.501   3.063  0.7747 -0.4739 -1.2383
 4592SOL    HW214633   1.484   3.605   3.049 -0.5520 -1.0787  3.0582
 4593SOL     OW14634   7.625   1.219   4.465  0.0156  0.5783 -0.3773
 4593SOL    HW114635   7.619   1.305   4.508  0.4085  0.6339 -0.4336
 4593SOL    HW214636   7.583   1.159   4.527 -0.0711  0.7737 -0.2422
 4594SOL     OW14637   3.262   0.398   2.409 -0.1745  0.7148 -0.0660
 4594SOL    HW114638   3.303   0.441   2.334  0.7344 -0.7358 -0.4400
 4594SOL    HW214639   3.302   0.439   2.485  1.2592  0.0259 -0.4252
 4595SOL     OW14640   7.373   3.718   1.886 -0.3348 -0.1127  0.2568
 4595SOL    HW114641   7.341   3.761   1.807  0.6641  0.9126  0.3819
 4595SOL    HW214642   7.326   3.635   1.889 -0.8528  0.1066 -1.0714
 4596SOL     OW14643   4.327   6.518   0.912  0.1603  0.0499  0.2520
 4596SOL    HW114644   4.299   6.539   0.822  2.0072 -0.4736 -0.4927
 4596SOL    HW214645   4.401   6.577   0.928  2.7626 -2.8018 -0.3232
 4597SOL     OW14646   3.833   2.268   5.693 -0.0242 -0.1424  0.0716
 4597SOL    HW114647   3.789   2.255   5.609 -0.5013  0.4820  0.2142
 4597SOL    HW214648   3.789   2.344   5.731  1.4248  0.7343  0.0667
 4598SOL     OW14649   5.049   7.384   4.357 -0.3616 -0.5476  0.0186
 4598SOL    HW114650   5.053   7.297   4.318 -1.2096 -0.3143 -0.6229
 4598SOL    HW214651   5.141   7.410   4.370 -0.0966 -1.1782 -0.5857
 4599SOL     OW14652   7.934   4.593   5.763 -0.3348 -0.4126  0.0445
 4599SOL    HW114653   8.013   4.614   5.813 -1.8098  0.5124  2.1280
 4599SOL    HW214654   7.880   4.672   5.771 -1.6182 -1.1428 -1.0656
 4600SOL     OW14655   1.985   2.247   2.174  0.3863 -0.6069 -0.3279
 4600SOL    HW114656   1.910   2.285   2.128  0.6777 -0.3034 -0.5496
 4600SOL    HW214657   1.956   2.240   2.265 -0.0140 -0.7553 -0.4648
 4601SOL     OW14658   1.119   7.036   0.397 -1.0270 -0.0259  0.3160
 4601SOL    HW114659   1.112   6.945   0.370 -0.4526 -0.8067  2.5950
 4601SOL    HW214660   1.095   7.036   0.490  0.5098  1.8534  0.7925
 4602SOL     OW14661   6.685   5.901   4.153  0.1145 -0.4289  0.5333
 4602SOL    HW114662   6.689   5.922   4.060 -0.8890  2.8613  1.0855
 4602SOL    HW214663   6.776   5.902   4.182  0.3983 -1.0080 -0.2924
 4603SOL     OW14664   7.711   4.991   0.742 -0.1909 -0.5675  0.7234
 4603SOL    HW114665   7.742   5.081   0.731  0.9849 -1.0278  0.0669
 4603SOL    HW214666   7.779   4.937   0.701 -1.8380 -1.6523 -0.7408
 4604SOL     OW14667   6.865   3.282   4.132  0.2917  0.3405 -0.2273
 4604SOL    HW114668   6.811   3.269   4.054  0.1375 -3.1772  0.2724
 4604SOL    HW214669   6.804   3.275   4.205  0.9373 -0.5623  0.2552
 4605SOL     OW14670   2.505   6.634   3.433  0.4625 -0.1933 -0.1798
 4605SOL    HW114671   2.433   6.618   3.494  0.6485 -1.4801 -0.2703
 4605SOL    HW214672   2.462   6.656   3.350  0.2066  0.7253  0.1781
 4606SOL     OW14673   2.300   7.053   1.026  0.1011 -0.1537  0.4521
 4606SOL    HW114674   2.225   7.111   1.020 -2.9996 -3.7034  1.1991
 4606SOL    HW214675   2.300   7.023   1.117  2.0532 -0.7754  0.3017
 4607SOL     OW14676   0.915   0.224   2.183 -0.3946  0.4419 -0.0328
 4607SOL    HW114677   0.971   0.296   2.154 -0.0336  0.1557 -0.0592
 4607SOL    HW214678   0.926   0.156   2.116 -2.1238  1.0215 -0.9819
 4608SOL     OW14679   0.780   6.670   4.498  0.1131  0.9090 -0.2486
 4608SOL    HW114680   0.721   6.622   4.557 -0.8737  2.2598 -0.0964
 4608SOL    HW214681   0.759   6.635   4.411 -1.6687  2.0289 -0.3313
 4609SOL     OW14682   1.203   3.059   4.531 -0.2392  0.5058 -0.5755
 4609SOL    HW114683   1.186   3.002   4.606 -0.3128  0.9750 -0.2290
 4609SOL    HW214684   1.245   3.003   4.467  2.8072  0.7767  1.0127
 4610SOL     OW14685   5.568   2.254   4.025  0.8376 -0.3057 -0.7676
 4610SOL    HW114686   5.520   2.221   4.101  1.5673  1.1057  0.3654
 4610SOL    HW214687   5.550   2.191   3.956 -0.5316 -1.1963  0.3378
 4611SOL     OW14688   7.869   2.586   4.886 -0.0287  0.4812  0.1756
 4611SOL    HW114689   7.903   2.604   4.974 -0.9820 -2.0201  1.1185
 4611SOL    HW214690   7.932   2.524   4.849 -0.7813 -0.1562 -0.0506
 4612SOL     OW14691   6.766   1.387   3.758  0.5144  0.0281  0.5733
 4612SOL    HW114692   6.764   1.310   3.701  2.0341 -0.0893  0.6391
 4612SOL    HW214693   6.721   1.358   3.838 -2.4433  0.4698 -0.8059
 4613SOL     OW14694   6.483   3.928   1.027 -0.5854 -0.3278  0.5044
 4613SOL    HW114695   6.460   4.021   1.023  0.3961 -0.1174 -1.5569
 4613SOL    HW214696   6.416   3.884   0.974  0.8444 -0.3125 -1.4118
 4614SOL     OW14697   4.485   3.288   4.885 -0.6476  0.1568 -0.3851
 4614SOL    HW114698   4.550   3.258   4.948 -2.8199 -0.4058  1.7349
 4614SOL    HW214699   4.475   3.215   4.824 -0.5782 -0.4770  0.3512
 4615SOL     OW14700   7.305   7.673   5.333  0.2132  0.0586 -0.2901
 4615SOL    HW114701   7.288   7.721   5.415 -0.0608  0.4098 -0.5518
 4615SOL    HW214702   7.276   7.584   5.352 -2.4878  0.7294 -0.8764
 4616SOL     OW14703   5.631   7.143   7.564  0.1952  0.3177 -0.4232
 4616SOL    HW114704   5.649   7.132   7.470 -0.2388 -2.7068 -0.2466
 4616SOL    HW214705   5.536   7.154   7.568  0.3695  1.9766 -0.4045
 4617SOL     OW14706   5.403   5.004   2.172  0.0944 -0.0896 -0.2649
 4617SOL    HW114707   5.498   5.006   2.162  0.0293 -1.5845 -1.7363
 4617SOL    HW214708   5.382   4.911   2.182 -1.1844  0.2591  0.5575
 4618SOL     OW14709   3.838   5.092   6.778  0.2567 -0.1891  0.0499
 4618SOL    HW114710   3.839   5.033   6.704 -1.2352 -1.2465  0.8214
 4618SOL    HW214711   3.922   5.079   6.821  1.1977  0.5410 -1.4783
 4619SOL     OW14712   1.230   6.468   0.679 -0.1255  0.2984 -0.0574
 4619SOL    HW114713   1.299   6.410   0.647 -1.2762 -0.8560 -0.5200
 4619SOL    HW214714   1.250   6.481   0.771  0.9910  0.4112 -0.2984
 4620SOL     OW14715   0.674   5.757   6.203  0.1974 -0.3104  0.0227
 4620SOL    HW114716   0.583   5.768   6.232  0.6230  2.0104  0.6740
 4620SOL    HW214717   0.681   5.811   6.124  0.5173 -2.1291 -1.2481
 4621SOL     OW14718   0.502   4.878   7.490  0.4927  0.2437  0.1184
 4621SOL    HW114719   0.563   4.804   7.491  1.5434  1.0671  1.6633
 4621SOL    HW214720   0.531   4.933   7.563 -2.5830  0.2747  1.4976
 4622SOL     OW14721   7.491   0.816   6.225  0.7010  0.6003 -0.3291
 4622SOL    HW114722   7.572   0.863   6.207  1.1636 -0.7218 -1.9304
 4622SOL    HW214723   7.461   0.786   6.139  0.8996 -2.7283  0.6126
 4623SOL     OW14724   6.403   6.305   0.282  0.2726  0.8772  0.1229
 4623SOL    HW114725   6.341   6.365   0.323 -0.4688 -1.9017  3.4630
 4623SOL    HW214726   6.486   6.322   0.327  0.2972  0.1073  0.3720
 4624SOL     OW14727   6.019   7.694   6.720 -0.1350 -0.3393 -0.3968
 4624SOL    HW114728   5.962   7.700   6.796  0.0871 -0.1887 -0.2409
 4624SOL    HW214729   5.969   7.734   6.649  0.0974  0.5402 -0.0729
 4625SOL     OW14730   6.454   6.836   4.256  0.1411  0.2791 -0.9317
 4625SOL    HW114731   6.472   6.786   4.336  0.1747  1.2720 -0.2979
 4625SOL    HW214732   6.530   6.893   4.246 -0.6371  1.4043 -0.6790
 4626SOL     OW14733   7.967   0.499   1.566  0.3330  0.2398  0.3914
 4626SOL    HW114734   7.874   0.517   1.549  0.4789 -0.0505 -0.7165
 4626SOL    HW214735   7.966   0.424   1.626 -0.1571  0.8986  1.2470
 4627SOL     OW14736   5.499   4.692   0.601 -0.2525 -0.4594 -0.6133
 4627SOL    HW114737   5.409   4.681   0.632 -0.7090  2.5043 -0.5619
 4627SOL    HW214738   5.526   4.604   0.573 -2.7714 -1.6299  0.3406
 4628SOL     OW14739   4.834   1.070   2.865 -0.4813 -0.6413  0.4807
 4628SOL    HW114740   4.890   1.142   2.894 -3.0269  1.8049 -0.2114
 4628SOL    HW214741   4.894   1.010   2.820  1.7380  1.1610  0.8356
 4629SOL     OW14742   3.239   7.574   0.828 -0.6088  0.5340  0.0538
 4629SOL    HW114743   3.264   7.538   0.743  2.5014  2.3320  0.0648
 4629SOL    HW214744   3.143   7.565   0.831 -0.6264 -1.3827 -2.7323
 4630SOL     OW14745   3.769   0.375   3.376 -0.5578  0.6640  0.4388
 4630SOL    HW114746   3.818   0.293   3.384  1.2754  1.7759  1.0464
 4630SOL    HW214747   3.816   0.424   3.308 -1.8834  1.0651 -0.2224
 4631SOL     OW14748   2.888   5.738   5.932 -0.0968  0.7260 -0.6890
 4631SOL    HW114749   2.881   5.656   5.883 -0.9332 -0.5176  1.3831
 4631SOL    HW214750   2.973   5.732   5.976 -0.7773  0.2726  0.5976
 4632SOL     OW14751   2.894   4.870   3.175 -0.2728 -0.7053 -0.3472
 4632SOL    HW114752   2.823   4.831   3.226 -0.6496 -1.1767 -1.2119
 4632SOL    HW214753   2.943   4.922   3.238 -1.9349  0.3966  0.1068
 4633SOL     OW14754   4.939   3.780   3.593  0.0389 -0.1900 -0.3342
 4633SOL    HW114755   4.944   3.840   3.519 -0.0893 -0.3930 -0.5087
 4633SOL    HW214756   4.846   3.759   3.602 -0.4397  2.3544  1.9419
 4634SOL     OW14757   7.866   5.862   2.357  0.3093 -0.9036 -0.3625
 4634SOL    HW114758   7.879   5.837   2.449  3.1587  1.4318  0.0243
 4634SOL    HW214759   7.921   5.801   2.308  1.9435  0.2718 -0.0657
 4635SOL     OW14760   0.870   1.686   0.164  0.0798  0.2706  0.4428
 4635SOL    HW114761   0.780   1.679   0.134  0.3934  0.0392 -0.4832
 4635SOL    HW214762   0.886   1.605   0.212 -0.0156  0.0106  0.0457
 4636SOL     OW14763   1.692   5.333   0.005 -0.4310  0.2399 -0.2137
 4636SOL    HW114764   1.598   5.315   0.012 -0.1329 -1.6681 -0.4271
 4636SOL    HW214765   1.719   5.286  -0.074  1.0072 -0.7678  0.8307
 4637SOL     OW14766   1.657   3.656   4.323 -0.0826 -0.1471  0.2148
 4637SOL    HW114767   1.744   3.629   4.353  0.7796  1.6107 -0.5081
 4637SOL    HW214768   1.623   3.710   4.395 -0.8812 -1.3417  0.7639
 4638SOL     OW14769   3.901   4.772   5.865  0.0297  0.3223  0.1071
 4638SOL    HW114770   3.996   4.782   5.874  0.0593  0.5715 -0.4720
 4638SOL    HW214771   3.884   4.784   5.772 -0.3797 -1.3471 -0.0703
 4639SOL     OW14772   6.279   3.093   6.529 -0.0972 -0.3230 -0.8375
 4639SOL    HW114773   6.235   3.160   6.581  0.9532  0.0740 -0.4286
 4639SOL    HW214774   6.344   3.056   6.588 -0.7853 -1.8557 -0.9952
 4640SOL     OW14775   5.964   6.518   6.786 -0.3268 -0.9541  0.2269
 4640SOL    HW114776   5.974   6.613   6.782 -2.7246 -0.6203  0.8344
 4640SOL    HW214777   5.967   6.490   6.694 -1.5250 -0.0321 -0.1220
 4641SOL     OW14778   0.315   5.416   6.151  0.2569  0.4012 -0.1134
 4641SOL    HW114779   0.294   5.406   6.244 -0.8434  0.9094 -0.2968
 4641SOL    HW214780   0.238   5.382   6.105  1.5775 -1.7337 -0.8952
 4642SOL     OW14781   0.805   5.237   7.238 -0.2719 -0.1984 -0.6038
 4642SOL    HW114782   0.863   5.234   7.162  2.1360  0.7129  1.0432
 4642SOL    HW214783   0.787   5.330   7.251 -0.6709 -0.3408 -0.1111
 4643SOL     OW14784   5.705   4.914   1.414  0.0577 -0.2649 -0.0336
 4643SOL    HW114785   5.668   4.838   1.370 -0.7656 -1.2811  2.2762
 4643SOL    HW214786   5.632   4.954   1.461  1.2275 -0.5075  2.1408
 4644SOL     OW14787   6.710   0.754   2.271 -0.3033 -0.0098 -0.6377
 4644SOL    HW114788   6.738   0.689   2.336 -0.3991  1.2789  0.7476
 4644SOL    HW214789   6.743   0.837   2.305 -2.5696  1.0634 -0.8639
 4645SOL     OW14790   7.439   5.781   5.879 -0.1450 -0.8227 -0.2008
 4645SOL    HW114791   7.414   5.774   5.971 -1.2712  3.4622  0.0101
 4645SOL    HW214792   7.372   5.732   5.832 -0.4826 -1.6997  1.1534
 4646SOL     OW14793   7.214   5.876   1.583  0.0905  0.5023 -0.5556
 4646SOL    HW114794   7.274   5.942   1.617 -0.4074  0.3429  0.6548
 4646SOL    HW214795   7.268   5.797   1.574  0.0040  0.2649  0.8583
 4647SOL     OW14796   0.510   6.109   5.173 -0.3799 -0.0327  0.4565
 4647SOL    HW114797   0.468   6.166   5.109  0.5338  0.4206  0.2496
 4647SOL    HW214798   0.554   6.169   5.234  1.4365 -0.4805 -0.3324
 4648SOL     OW14799   3.387   2.155   4.254  0.4783 -0.4881 -0.0003
 4648SOL    HW114800   3.423   2.234   4.293  0.4697  0.5398 -1.9948
 4648SOL    HW214801   3.451   2.087   4.276  1.6984  0.5432 -0.2328
 4649SOL     OW14802   5.145   2.964   7.254 -0.3754  0.2827 -0.8348
 4649SOL    HW114803   5.134   2.871   7.275 -0.6428  0.4785 -0.0475
 4649SOL    HW214804   5.233   2.985   7.284 -0.2154  0.2244 -1.2581
 4650SOL     OW14805   6.397   2.966   6.793 -0.0488 -0.2353  0.0396
 4650SOL    HW114806   6.374   3.054   6.824 -2.5340 -1.2502  1.4249
 4650SOL    HW214807   6.429   2.921   6.871 -0.5105 -1.0578 -0.2332
 4651SOL     OW14808   0.585   1.331   2.002  0.0862  0.0841 -0.3490
 4651SOL    HW114809   0.570   1.287   1.918 -0.6096  0.0426 -0.2172
 4651SOL    HW214810   0.639   1.406   1.981  1.5024 -0.9574 -0.5495
 4652SOL     OW14811   0.415   2.419   0.481  0.2723  0.4886  0.0644
 4652SOL    HW114812   0.452   2.495   0.524 -1.4114  1.2154  0.3238
 4652SOL    HW214813   0.458   2.416   0.396  0.6338  1.5194  0.1977
 4653SOL     OW14814   0.945   3.822   3.265  0.0370 -0.6863 -0.2828
 4653SOL    HW114815   0.884   3.749   3.265 -0.6948 -0.0925  0.0066
 4653SOL    HW214816   0.920   3.875   3.189 -0.4574  0.0643  0.3826
 4654SOL     OW14817   1.873   5.502   2.579 -0.7505  0.4935  0.2199
 4654SOL    HW114818   1.939   5.534   2.641 -0.2453 -0.3452  0.1232
 4654SOL    HW214819   1.834   5.582   2.543 -1.4838  1.0104  2.0576
 4655SOL     OW14820   2.709   6.437   6.697 -0.0852  0.5193 -0.1737
 4655SOL    HW114821   2.715   6.439   6.793  0.5289 -0.5014 -0.1706
 4655SOL    HW214822   2.757   6.515   6.668  0.3462  0.4530  0.3383
 4656SOL     OW14823   6.229   0.845   7.165  0.1890 -0.4010 -0.1778
 4656SOL    HW114824   6.319   0.845   7.198  0.3378  0.2730 -0.5546
 4656SOL    HW214825   6.192   0.762   7.195  0.3148  0.1616  1.6991
 4657SOL     OW14826   1.907   4.147   2.244 -0.1867 -0.3197  0.0890
 4657SOL    HW114827   1.834   4.183   2.295  0.2775  1.2245 -0.2747
 4657SOL    HW214828   1.969   4.220   2.238  0.6970 -1.1373 -0.8990
 4658SOL     OW14829   1.494   3.533   1.786 -0.2518 -0.2624 -0.3956
 4658SOL    HW114830   1.443   3.557   1.863  0.8849  0.1290  0.2575
 4658SOL    HW214831   1.512   3.440   1.798  1.7312  0.2220  0.9619
 4659SOL     OW14832   7.147   2.387   5.349 -0.1733  0.2022  0.2118
 4659SOL    HW114833   7.128   2.324   5.280  0.0404  0.1274  0.2206
 4659SOL    HW214834   7.242   2.401   5.344  0.1589 -1.2475  1.7069
 4660SOL     OW14835   2.008   3.625   1.755  0.5028 -0.3818  0.4696
 4660SOL    HW114836   1.940   3.558   1.743  0.1483  0.2351 -1.4248
 4660SOL    HW214837   1.987   3.666   1.839 -1.3907 -0.3174  0.0132
 4661SOL     OW14838   2.504   5.162   0.181  0.1642 -0.6683  0.0239
 4661SOL    HW114839   2.575   5.211   0.140  0.5603 -0.9874  0.3155
 4661SOL    HW214840   2.469   5.221   0.247  0.2638 -0.5685 -0.0127
 4662SOL     OW14841   7.088   4.534   1.772  0.2107 -0.1845 -0.3814
 4662SOL    HW114842   7.068   4.609   1.829 -0.7618  1.0290 -2.2093
 4662SOL    HW214843   7.002   4.507   1.739  0.7643 -0.7586 -1.3714
 4663SOL     OW14844   4.124   2.663   5.819  0.1797  0.4940 -0.1668
 4663SOL    HW114845   4.206   2.697   5.784  0.6353 -0.0901  0.3198
 4663SOL    HW214846   4.077   2.629   5.742  2.3384 -3.3151 -0.0601
 4664SOL     OW14847   2.092   4.149   0.815 -0.4053 -0.4739  0.0101
 4664SOL    HW114848   2.139   4.171   0.734  1.0919 -0.4424  0.8449
 4664SOL    HW214849   2.160   4.148   0.882 -1.8491  1.2073  1.6103
 4665SOL     OW14850   1.663   0.796   4.828  0.1382 -0.1023  0.3100
 4665SOL    HW114851   1.749   0.754   4.827  0.6411  0.8547  1.7049
 4665SOL    HW214852   1.610   0.743   4.768  0.8830 -2.4516  1.6145
 4666SOL     OW14853   7.191   0.380   2.464  0.6316  0.5742  0.0139
 4666SOL    HW114854   7.250   0.398   2.390 -0.8577 -0.4465 -1.5114
 4666SOL    HW214855   7.163   0.290   2.451 -1.1262  0.9692  0.7372
 4667SOL     OW14856   5.587   5.313   2.049 -0.3799 -0.0602 -0.4526
 4667SOL    HW114857   5.662   5.337   1.995  0.0810 -0.1163  0.1476
 4667SOL    HW214858   5.532   5.392   2.050  0.4777  0.5451  0.4314
 4668SOL     OW14859   7.207   4.997   4.315  0.5292  0.2214  0.5609
 4668SOL    HW114860   7.151   5.068   4.285 -0.1692 -1.3078 -2.1133
 4668SOL    HW214861   7.285   5.004   4.261  0.8720 -0.4704  0.9537
 4669SOL     OW14862   7.663   2.186   0.476 -0.0713 -0.0827  0.6370
 4669SOL    HW114863   7.731   2.124   0.451 -0.3385 -0.0938 -0.0642
 4669SOL    HW214864   7.582   2.149   0.440 -0.2518  0.5977  0.3333
 4670SOL     OW14865   5.751   0.893   0.822  0.1727  0.8791 -0.4761
 4670SOL    HW114866   5.768   0.822   0.760  2.8586  1.1016 -0.1207
 4670SOL    HW214867   5.656   0.904   0.821 -0.0089 -0.2714 -3.2220
 4671SOL     OW14868   4.564   4.031   0.281 -0.0507 -0.4676 -0.0406
 4671SOL    HW114869   4.510   3.996   0.352 -1.0935  2.5482  0.8092
 4671SOL    HW214870   4.651   3.995   0.297 -0.8264 -1.8773  1.2403
 4672SOL     OW14871   0.174   2.338   3.265 -0.3357  0.3084 -0.1603
 4672SOL    HW114872   0.198   2.283   3.190 -0.1185 -0.3695  0.3914
 4672SOL    HW214873   0.081   2.356   3.253 -0.0838  1.0209 -1.1016
 4673SOL     OW14874   7.488   7.778   4.451 -0.4407  0.2248 -0.7858
 4673SOL    HW114875   7.476   7.773   4.356  0.9577 -1.0150 -0.9266
 4673SOL    HW214876   7.497   7.872   4.469 -2.0988  0.5937 -1.6608
 4674SOL     OW14877   7.701   6.403   0.199 -0.3024 -0.2001  0.2266
 4674SOL    HW114878   7.761   6.361   0.259  0.6031 -0.2874 -0.7144
 4674SOL    HW214879   7.693   6.493   0.231 -3.6930 -1.3816  3.3545
 4675SOL     OW14880   5.425   4.980   5.808  0.1473 -0.4658 -0.1201
 4675SOL    HW114881   5.399   4.905   5.756  1.9633 -0.5046 -1.0430
 4675SOL    HW214882   5.516   4.963   5.831  0.7098  1.5810 -0.6290
 4676SOL     OW14883   5.988   1.243   2.904 -0.0728  0.2111 -0.3029
 4676SOL    HW114884   5.975   1.251   2.810  0.4008  0.0440 -0.3854
 4676SOL    HW214885   6.045   1.317   2.926  1.9235 -1.1683 -0.5823
 4677SOL     OW14886   2.678   6.523   4.587  0.4445 -0.0365  0.3621
 4677SOL    HW114887   2.693   6.469   4.510 -1.5077  0.3410 -0.3387
 4677SOL    HW214888   2.732   6.484   4.655  0.2507 -1.9521 -0.5279
 4678SOL     OW14889   6.128   0.948   4.725  0.7440 -0.4485 -0.1349
 4678SOL    HW114890   6.055   0.979   4.671 -0.4817 -2.4804  0.2476
 4678SOL    HW214891   6.121   0.997   4.806  0.5768  0.2703 -0.5768
 4679SOL     OW14892   5.843   7.859   1.211 -0.0863  0.0962 -0.8394
 4679SOL    HW114893   5.938   7.859   1.197 -0.1965  0.5432 -1.6232
 4679SOL    HW214894   5.832   7.821   1.298  0.6970 -1.5461 -1.4208
 4680SOL     OW14895   1.067   1.638   2.389 -0.1384  0.2693 -0.0160
 4680SOL    HW114896   1.129   1.565   2.392 -0.5285 -0.0398  1.2126
 4680SOL    HW214897   1.022   1.628   2.306 -0.0772 -0.8074  0.0679
 4681SOL     OW14898   1.726   7.694   3.472  0.5752  0.4138 -0.0040
 4681SOL    HW114899   1.775   7.634   3.414  0.3896  0.7448 -0.5055
 4681SOL    HW214900   1.670   7.744   3.413 -0.4128  0.0078  0.5770
 4682SOL     OW14901   6.144   2.442   4.551  0.8147 -0.6801 -0.0500
 4682SOL    HW114902   6.056   2.404   4.552  1.1747 -1.5408  0.8892
 4682SOL    HW214903   6.199   2.377   4.595  1.7896  0.1605  0.0164
 4683SOL     OW14904   0.788   0.611   2.870  0.1976  0.5704 -0.1664
 4683SOL    HW114905   0.837   0.572   2.943  0.5168 -0.6881 -1.0172
 4683SOL    HW214906   0.806   0.705   2.876 -0.2421  0.5794  1.6958
 4684SOL     OW14907   4.911   5.122   7.007 -0.1299 -0.1444  0.5145
 4684SOL    HW114908   5.002   5.104   7.033 -0.4759 -1.8184  0.6884
 4684SOL    HW214909   4.914   5.209   6.968  1.2980  0.4381  1.7905
 4685SOL     OW14910   1.673   7.793   1.224  0.0549 -0.3958 -0.4958
 4685SOL    HW114911   1.748   7.733   1.230  0.8393  0.6557  0.8625
 4685SOL    HW214912   1.712   7.875   1.193 -0.2946  0.4918  1.2987
 4686SOL     OW14913   6.830   0.021   3.915  0.4196  0.0311  0.2766
 4686SOL    HW114914   6.826   0.113   3.889  1.6155 -0.2169 -0.9101
 4686SOL    HW214915   6.754  -0.020   3.874 -0.5014  0.5954  1.3713
 4687SOL     OW14916   1.325   0.249   3.328 -0.4965  0.1884 -0.3005
 4687SOL    HW114917   1.357   0.188   3.262 -1.5539 -0.0544 -0.6059
 4687SOL    HW214918   1.337   0.335   3.288 -0.3476  0.0952 -0.4591
 4688SOL     OW14919   7.220   0.144   2.738  0.0232 -0.0502 -0.7854
 4688SOL    HW114920   7.220   0.165   2.832 -0.3043  0.8701 -0.9752
 4688SOL    HW214921   7.132   0.169   2.709  0.3746  0.3925 -1.4817
 4689SOL     OW14922   4.345   4.308   1.993  0.2931 -0.0321  0.0839
 4689SOL    HW114923   4.300   4.297   1.909  0.0115  0.8624  0.1167
 4689SOL    HW214924   4.434   4.335   1.969  1.7022 -4.0229 -0.1060
 4690SOL     OW14925   0.735   6.351   3.392 -0.0567 -0.9610  0.2478
 4690SOL    HW114926   0.759   6.340   3.484 -1.8961 -0.6229  0.8106
 4690SOL    HW214927   0.709   6.443   3.385  0.4474 -0.8825 -0.7117
 4691SOL     OW14928   1.663   1.137   2.108  0.1896 -0.4926  0.2155
 4691SOL    HW114929   1.643   1.077   2.180  1.0869 -0.5902  0.3859
 4691SOL    HW214930   1.723   1.089   2.052 -1.3670 -0.8539 -1.2351
 4692SOL     OW14931   2.048   0.226   6.877 -0.0655  0.2792 -0.0094
 4692SOL    HW114932   1.975   0.203   6.820 -0.3060 -0.1889  0.4811
 4692SOL    HW214933   2.007   0.265   6.955  0.1391 -0.7683  0.6472
 4693SOL     OW14934   1.433   6.095   3.319 -0.1778 -0.4328 -0.5374
 4693SOL    HW114935   1.456   6.003   3.309  0.4411 -0.1875 -1.4886
 4693SOL    HW214936   1.398   6.121   3.234 -0.1684  0.2621 -0.3349
 4694SOL     OW14937   2.939   2.249   6.210  0.1813  0.1109 -0.2331
 4694SOL    HW114938   2.998   2.185   6.249 -1.0313 -1.5009 -0.9266
 4694SOL    HW214939   2.858   2.200   6.195 -1.8292  2.5488  1.8805
 4695SOL     OW14940   0.562   6.162   0.359 -0.5517 -0.2079 -0.2022
 4695SOL    HW114941   0.649   6.155   0.320 -0.7652 -0.5635 -0.6336
 4695SOL    HW214942   0.539   6.255   0.351  0.2948  0.1243  1.0593
 4696SOL     OW14943   7.650   6.984   3.264  0.2782  0.4023 -0.5675
 4696SOL    HW114944   7.687   6.903   3.300 -0.2611  1.2759  2.2191
 4696SOL    HW214945   7.558   6.963   3.246  0.9078 -0.4918 -3.1925
 4697SOL     OW14946   4.660   4.383   1.204 -0.0872  0.1583 -0.7521
 4697SOL    HW114947   4.607   4.438   1.261 -0.2473 -0.1158 -0.6371
 4697SOL    HW214948   4.747   4.423   1.206  0.3898 -0.8678  1.1119
 4698SOL     OW14949   6.554   0.757   0.706 -0.0093  0.2334 -0.3357
 4698SOL    HW114950   6.620   0.699   0.668  0.4279  0.6342 -0.1881
 4698SOL    HW214951   6.483   0.698   0.733  0.0772 -0.1498 -0.9248
 4699SOL     OW14952   6.625   2.881   0.384  0.3935 -0.3367 -0.1338
 4699SOL    HW114953   6.603   2.849   0.297  1.4440  0.9537 -0.9147
 4699SOL    HW214954   6.590   2.970   0.386 -0.1960 -0.5784  1.0130
 4700SOL     OW14955   3.097   6.980   4.624  0.2563  0.3174 -0.5434
 4700SOL    HW114956   3.119   6.891   4.648 -1.4036  0.3183  1.2021
 4700SOL    HW214957   3.044   6.972   4.544  0.5421 -0.1992 -0.6802
 4701SOL     OW14958   4.691   5.322   6.729 -0.2104  0.6770  0.4717
 4701SOL    HW114959   4.664   5.256   6.793  0.0377  0.6054  0.5035
 4701SOL    HW214960   4.625   5.317   6.661  1.3464 -1.7109 -1.0428
 4702SOL     OW14961   6.946   0.921   4.096  0.4402  0.4173 -0.1470
 4702SOL    HW114962   6.898   0.904   4.177  0.9067  2.1407  0.5290
 4702SOL    HW214963   6.878   0.925   4.029 -0.4134  2.6964  0.7751
 4703SOL     OW14964   3.672   4.686   4.311 -0.9032 -0.3470  0.4516
 4703SOL    HW114965   3.609   4.756   4.296  0.0118  0.1889 -1.2170
 4703SOL    HW214966   3.648   4.617   4.249  0.4663  0.1140 -0.6364
 4704SOL     OW14967   0.434   4.045   3.933 -0.5103  0.5539  0.0878
 4704SOL    HW114968   0.419   3.963   3.979  0.9351 -0.0786 -0.5244
 4704SOL    HW214969   0.349   4.090   3.936 -1.2154 -0.7707  0.7733
 4705SOL     OW14970   2.232   1.892   1.859  0.0876 -0.0584 -0.1508
 4705SOL    HW114971   2.233   1.897   1.764 -1.1725  0.4561 -0.1666
 4705SOL    HW214972   2.146   1.927   1.883  0.2016 -0.6207  1.1447
 4706SOL     OW14973   2.467   0.983   4.868 -0.0116  0.3469 -0.2254
 4706SOL    HW114974   2.518   0.909   4.833 -1.4081 -1.5854  1.5443
 4706SOL    HW214975   2.532   1.037   4.913  0.8395 -0.8322  0.0310
 4707SOL     OW14976   5.847   2.639   3.926  0.2581 -0.0019 -0.4567
 4707SOL    HW114977   5.844   2.680   4.012  0.0295 -0.9731  0.0229
 4707SOL    HW214978   5.908   2.692   3.875  1.4784 -0.2179  0.7476
 4708SOL     OW14979   3.164   1.673   7.284 -0.0070  0.3032 -0.2868
 4708SOL    HW114980   3.119   1.684   7.200  0.3540  2.6733 -0.2581
 4708SOL    HW214981   3.101   1.706   7.349  0.8722  1.5386 -0.0177
 4709SOL     OW14982   1.696   5.409   7.483  0.7639 -0.7605 -0.3359
 4709SOL    HW114983   1.717   5.320   7.452 -1.0024 -1.3169 -0.0686
 4709SOL    HW214984   1.649   5.449   7.410  0.1735 -0.6166  0.1196
 4710SOL     OW14985   5.378   6.393   7.931  0.1406 -0.3136  0.2521
 4710SOL    HW114986   5.411   6.317   7.884  0.6111 -0.5133  0.8772
 4710SOL    HW214987   5.283   6.383   7.932  0.1431 -0.4287 -0.4283
 4711SOL     OW14988   3.704   0.127   7.768 -0.5114 -0.1562  0.4706
 4711SOL    HW114989   3.642   0.200   7.773 -0.8380 -0.3460 -0.6197
 4711SOL    HW214990   3.649   0.049   7.763 -0.1955 -0.3461 -0.2183
 4712SOL     OW14991   3.393   3.330   2.285  0.4079  0.2507  0.3734
 4712SOL    HW114992   3.311   3.358   2.246  1.3191  0.4669 -1.4588
 4712SOL    HW214993   3.402   3.384   2.364 -0.3894  1.4032 -0.2973
 4713SOL     OW14994   7.831   1.270   4.289 -0.0459  0.3162 -0.0105
 4713SOL    HW114995   7.753   1.254   4.342  0.6620 -0.6220  0.7961
 4713SOL    HW214996   7.871   1.348   4.328 -0.2445  0.4415 -0.0509
 4714SOL     OW14997   6.423   5.137   4.461 -0.0642 -0.1570  0.2109
 4714SOL    HW114998   6.458   5.210   4.512 -1.4375 -0.2767  1.3540
 4714SOL    HW214999   6.369   5.178   4.394  1.3549 -0.0270 -0.9162
 4715SOL     OW15000   7.805   6.981   4.552  0.0242  0.3189 -0.2035
 4715SOL    HW115001   7.852   6.931   4.485 -0.0261  1.0854 -0.8214
 4715SOL    HW215002   7.731   7.019   4.506 -0.3655  0.3440  0.4362
 4716SOL     OW15003   3.706   5.092   3.680  0.1967 -0.0680 -0.0746
 4716SOL    HW115004   3.719   5.159   3.747  1.9170  1.2128 -1.6213
 4716SOL    HW215005   3.649   5.027   3.723  0.1613  1.3269  2.1600
 4717SOL     OW15006   0.329   0.289   5.775 -0.1912  0.0402 -0.7136
 4717SOL    HW115007   0.295   0.315   5.861 -0.9130 -0.8052 -0.7306
 4717SOL    HW215008   0.254   0.301   5.716 -0.6323 -2.1630 -0.7003
 4718SOL     OW15009   0.550   5.283   6.750  0.1098  0.4176  0.0429
 4718SOL    HW115010   0.569   5.340   6.675 -0.0610 -1.2669 -1.3469
 4718SOL    HW215011   0.636   5.262   6.787  0.3153  0.0386 -0.6372
 4719SOL     OW15012   6.634   1.188   6.315  0.9787 -0.1978 -0.1992
 4719SOL    HW115013   6.658   1.263   6.261  0.0924  0.9783  0.9548
 4719SOL    HW215014   6.539   1.183   6.309  0.9829 -0.8801  0.1775
 4720SOL     OW15015   6.989   1.607   5.583  0.0979 -0.2029 -0.2743
 4720SOL    HW115016   7.044   1.650   5.649 -0.8528  0.2007  0.2850
 4720SOL    HW215017   7.032   1.626   5.499  1.0313 -0.2671  0.1834
 4721SOL     OW15018   5.423   7.651   6.482  0.1775 -0.4375  0.2368
 4721SOL    HW115019   5.361   7.588   6.446 -1.6381  1.1783  0.3742
 4721SOL    HW215020   5.429   7.630   6.575 -0.9998  0.0340  0.4269
 4722SOL     OW15021   5.451   2.931   7.898  0.0167  0.2574 -0.0594
 4722SOL    HW115022   5.357   2.915   7.887 -0.4811  2.9619 -0.3927
 4722SOL    HW215023   5.491   2.895   7.819 -1.3476  2.9332 -2.1538
 4723SOL     OW15024   5.989   3.604   5.826  0.5284 -0.3688 -0.6930
 4723SOL    HW115025   6.013   3.620   5.917  0.7402 -2.5161 -0.3085
 4723SOL    HW215026   5.915   3.663   5.809  1.4880  1.1839  0.3433
 4724SOL     OW15027   4.543   7.404   3.845 -0.4885  0.0258  0.2650
 4724SOL    HW115028   4.569   7.455   3.922  2.3958 -1.6313  0.5451
 4724SOL    HW215029   4.451   7.381   3.861 -0.6529  1.6575  2.0459
 4725SOL     OW15030   7.988   4.840   4.436 -0.1060 -0.0534 -0.0492
 4725SOL    HW115031   7.912   4.782   4.426  0.0943 -0.7946  2.1019
 4725SOL    HW215032   7.951   4.922   4.467 -0.2253  0.4511 -1.4502
 4726SOL     OW15033   3.302   5.469   5.347  0.0236  0.1519  0.2149
 4726SOL    HW115034   3.317   5.406   5.276  1.7646  0.0705  0.6086
 4726SOL    HW215035   3.305   5.415   5.427  0.9792  0.6287  0.5183
 4727SOL     OW15036   4.356   4.963   0.700 -0.6319  0.2362  0.5087
 4727SOL    HW115037   4.293   5.028   0.730 -1.5107  0.9134 -2.4650
 4727SOL    HW215038   4.310   4.879   0.707 -1.9196  0.7010 -1.4472
 4728SOL     OW15039   0.300   1.769   5.131 -0.2760  0.3226  0.3214
 4728SOL    HW115040   0.384   1.811   5.148 -0.0940  0.8686 -1.7183
 4728SOL    HW215041   0.238   1.841   5.119 -0.3403  0.0250 -1.3913
 4729SOL     OW15042   7.394   7.254   5.035 -0.0906 -0.0461 -0.2089
 4729SOL    HW115043   7.435   7.168   5.026 -0.1439 -0.3339  1.7857
 4729SOL    HW215044   7.353   7.252   5.122 -0.5126  1.8212 -0.3223
 4730SOL     OW15045   6.962   5.211   4.669 -0.7639 -0.3187  0.2968
 4730SOL    HW115046   6.984   5.253   4.586 -0.7785  1.5141  1.1650
 4730SOL    HW215047   7.000   5.124   4.663 -0.3922 -0.0738 -1.4477
 4731SOL     OW15048   5.881   7.840   1.843 -0.2192  0.3359 -0.4016
 4731SOL    HW115049   5.946   7.847   1.913 -0.5170  1.1839 -0.1993
 4731SOL    HW215050   5.887   7.749   1.814  1.0420  0.3985 -0.3822
 4732SOL     OW15051   0.335   3.940   5.639  0.1654 -0.2805  0.1574
 4732SOL    HW115052   0.366   3.885   5.711 -0.5884  0.7255  1.2796
 4732SOL    HW215053   0.298   3.878   5.575 -3.0365 -1.0444  2.5026
 4733SOL     OW15054   6.809   2.846   5.789  0.2382 -0.1896  0.1332
 4733SOL    HW115055   6.892   2.869   5.748 -0.0970  0.5404 -0.1554
 4733SOL    HW215056   6.757   2.927   5.787  0.6877  0.3108  3.2595
 4734SOL     OW15057   3.745   4.241   3.059  0.1458  0.1951 -0.0712
 4734SOL    HW115058   3.759   4.158   3.105 -0.0397  0.1381 -0.1178
 4734SOL    HW215059   3.650   4.245   3.045 -0.1998  1.5845  2.1510
 4735SOL     OW15060   0.402   1.673   1.442  0.4352  0.3981 -0.1263
 4735SOL    HW115061   0.427   1.609   1.508 -0.7072 -0.5409 -0.5632
 4735SOL    HW215062   0.307   1.680   1.450  0.1901 -0.1619 -2.0115
 4736SOL     OW15063   0.295   5.761   6.925  0.6587 -0.1255 -0.5370
 4736SOL    HW115064   0.313   5.855   6.927  1.5615 -0.2671  1.5726
 4736SOL    HW215065   0.382   5.720   6.928  0.2773 -0.9422  1.5095
 4737SOL     OW15066   5.192   4.108   7.475  0.0579  0.0286  1.1263
 4737SOL    HW115067   5.144   4.095   7.557  0.8635 -0.0121  1.5982
 4737SOL    HW215068   5.281   4.132   7.502  0.4892 -0.5609  0.2669
 4738SOL     OW15069   2.637   6.416   4.002  0.4226  0.2819 -0.0010
 4738SOL    HW115070   2.658   6.483   4.067 -1.4176  1.5340 -0.6322
 4738SOL    HW215071   2.641   6.334   4.052 -0.9548  1.2058  1.7368
 4739SOL     OW15072   2.504   1.252   0.321 -0.6555  0.2081 -0.6008
 4739SOL    HW115073   2.464   1.302   0.392  2.6652  0.5490  1.2151
 4739SOL    HW215074   2.537   1.172   0.363  1.2313  0.3234 -1.7814
 4740SOL     OW15075   2.002   4.002   7.767  0.7769 -0.0484  0.5171
 4740SOL    HW115076   2.057   3.947   7.712  0.1837  0.0107 -0.1576
 4740SOL    HW215077   2.001   4.087   7.723 -0.3987 -0.2404  0.1263
 4741SOL     OW15078   5.420   5.651   2.692  0.2860 -0.3579  0.1608
 4741SOL    HW115079   5.426   5.568   2.740  1.3499 -0.1359  0.4350
 4741SOL    HW215080   5.326   5.669   2.686  0.0453 -1.5274  0.1973
 4742SOL     OW15081   6.904   6.109   2.343 -0.2454 -0.6392  0.4416
 4742SOL    HW115082   6.900   6.057   2.263 -0.2876  0.1353 -0.0749
 4742SOL    HW215083   6.839   6.069   2.401 -0.3311 -1.1106  0.0286
 4743SOL     OW15084   7.314   2.403   4.289 -0.5306  0.2069 -0.5235
 4743SOL    HW115085   7.354   2.326   4.330  1.1877  1.6756  0.7571
 4743SOL    HW215086   7.334   2.394   4.196 -0.6142 -1.0100 -0.4404
 4744SOL     OW15087   2.598   3.666   1.329 -0.5045 -0.2040 -0.5977
 4744SOL    HW115088   2.661   3.626   1.389 -0.4440  0.2173 -0.3744
 4744SOL    HW215089   2.528   3.699   1.385  0.1552  1.3265 -0.6034
 4745SOL     OW15090   7.065   4.828   2.424  0.1611 -0.0887  0.5674
 4745SOL    HW115091   7.144   4.831   2.369  0.8537 -0.5214  1.4999
 4745SOL    HW215092   6.994   4.851   2.365  1.0665  0.9877 -0.1552
 4746SOL     OW15093   5.145   5.152   4.261  0.3563  0.2731  0.7421
 4746SOL    HW115094   5.053   5.161   4.237  0.8910  0.1291 -1.5343
 4746SOL    HW215095   5.192   5.207   4.199  1.7611  1.3136  2.6391
 4747SOL     OW15096   2.616   3.836   6.951  0.6461  0.2443 -0.1870
 4747SOL    HW115097   2.602   3.885   6.870 -0.4585  0.3633  0.0557
 4747SOL    HW215098   2.669   3.895   7.005 -1.4994  1.6695  0.4948
 4748SOL     OW15099   0.189   1.328   5.604  0.3130  0.5019  0.7149
 4748SOL    HW115100   0.139   1.408   5.614  0.7220  0.7190  1.0663
 4748SOL    HW215101   0.164   1.294   5.518  0.5437  1.2868  0.3308
 4749SOL     OW15102   7.475   2.959   4.883  0.2522 -0.1744 -0.3126
 4749SOL    HW115103   7.459   2.902   4.959  1.7357 -0.1840  0.0168
 4749SOL    HW215104   7.527   3.031   4.917 -1.2371  1.2008 -0.8210
 4750SOL     OW15105   2.265   0.312   1.808 -0.0929 -0.0700 -0.1588
 4750SOL    HW115106   2.242   0.246   1.873 -1.6204  0.6446  0.0615
 4750SOL    HW215107   2.307   0.263   1.737  2.7557 -0.7379  1.8151
 4751SOL     OW15108   5.207   7.931   6.957  0.4159  0.1763  0.4193
 4751SOL    HW115109   5.301   7.937   6.945  0.7554 -1.4100  1.9164
 4751SOL    HW215110   5.180   7.859   6.899  0.0898  0.6719 -0.0586
 4752SOL     OW15111   6.175   3.274   3.816  0.2788 -0.5715  0.3669
 4752SOL    HW115112   6.219   3.213   3.876 -2.1783 -1.3835  1.4866
 4752SOL    HW215113   6.140   3.343   3.873  1.2913  0.8500 -0.6592
 4753SOL     OW15114   3.371   6.371   4.241  0.0401  0.5191 -0.5501
 4753SOL    HW115115   3.355   6.413   4.156 -3.4712 -0.6970 -0.6315
 4753SOL    HW215116   3.295   6.394   4.294  2.0810  1.1553  2.3412
 4754SOL     OW15117   2.947   4.899   7.318 -0.3168 -0.2299 -0.0882
 4754SOL    HW115118   2.894   4.957   7.373  0.5642  1.5884 -1.0716
 4754SOL    HW215119   2.902   4.899   7.233 -0.4594 -1.2611 -0.0339
 4755SOL     OW15120   2.989   2.533   2.311 -0.3953  0.1256 -0.8756
 4755SOL    HW115121   3.041   2.460   2.277 -1.3998 -1.6207  1.1243
 4755SOL    HW215122   2.935   2.561   2.236  0.0492 -1.1309 -1.6958
 4756SOL     OW15123   1.104   4.111   2.518 -0.4661  0.0644  0.0118
 4756SOL    HW115124   1.175   4.151   2.569 -1.0435  1.0028  0.1052
 4756SOL    HW215125   1.040   4.182   2.507 -1.1136 -0.6018 -0.5832
 4757SOL     OW15126   2.837   1.225   0.258  0.2338  0.3118  0.6701
 4757SOL    HW115127   2.751   1.265   0.249 -0.6665 -1.3630  1.5643
 4757SOL    HW215128   2.827   1.136   0.224  1.8465  0.3418 -0.0133
 4758SOL     OW15129   5.967   4.747   2.013 -0.6098 -0.1994  0.3531
 4758SOL    HW115130   5.932   4.730   1.926 -0.1595  0.5368  0.0265
 4758SOL    HW215131   5.937   4.835   2.034 -0.4466 -0.2509  0.8143
 4759SOL     OW15132   0.671   2.379   2.574  0.1249  0.2628 -0.3480
 4759SOL    HW115133   0.636   2.442   2.510 -2.5093  1.1383  1.7579
 4759SOL    HW215134   0.662   2.423   2.658 -0.6676 -2.4311  1.0970
 4760SOL     OW15135   5.055   7.779   0.167 -0.2162  0.0363  0.5723
 4760SOL    HW115136   5.039   7.873   0.174 -0.2608  0.3248 -2.1784
 4760SOL    HW215137   5.115   7.770   0.093  0.0587 -2.0826  0.9739
 4761SOL     OW15138   4.281   0.539   1.573 -0.2038 -0.7561  0.0585
 4761SOL    HW115139   4.366   0.503   1.546  0.2962  0.6351 -0.3366
 4761SOL    HW215140   4.284   0.538   1.669  0.0315 -1.2151  0.0507
 4762SOL     OW15141   4.841   5.094   0.130  0.0040  0.8336 -0.0751
 4762SOL    HW115142   4.806   5.005   0.124  1.1080  0.4388 -1.2252
 4762SOL    HW215143   4.786   5.137   0.195 -0.5458 -0.6887  0.5223
 4763SOL     OW15144   7.398   5.510   2.279  0.2062 -0.2509 -0.1540
 4763SOL    HW115145   7.314   5.529   2.237  0.3213  0.0215 -0.2606
 4763SOL    HW215146   7.376   5.496   2.371  0.3329  2.2529  0.3366
 4764SOL     OW15147   0.714   6.512   5.215 -0.4281 -0.4235  0.7337
 4764SOL    HW115148   0.738   6.428   5.177 -0.7355 -0.1931  0.0187
 4764SOL    HW215149   0.771   6.522   5.291  1.3041 -0.1688 -0.5504
 4765SOL     OW15150   4.304   7.747   3.272  0.1553 -0.1109 -0.0084
 4765SOL    HW115151   4.308   7.655   3.246  2.8173 -0.3423  0.9356
 4765SOL    HW215152   4.377   7.759   3.332 -0.0768  2.6497 -0.1193
 4766SOL     OW15153   4.373   3.065   4.757 -0.0862 -0.0146 -0.2230
 4766SOL    HW115154   4.281   3.090   4.757  0.3183  1.5859  0.2618
 4766SOL    HW215155   4.383   3.012   4.836  0.0657  2.5914  1.6122
 4767SOL     OW15156   1.677   6.996   0.042  0.1989 -0.5141  0.5372
 4767SOL    HW115157   1.637   6.927  -0.011  1.9724 -0.9511 -0.3229
 4767SOL    HW215158   1.693   7.067  -0.021  0.1028 -0.0512  1.0285
 4768SOL     OW15159   5.298   4.621   1.620  0.2587  0.8936 -0.5406
 4768SOL    HW115160   5.218   4.642   1.572  1.3518  3.1681 -1.5461
 4768SOL    HW215161   5.352   4.700   1.612  1.8522  0.1382  1.6940
 4769SOL     OW15162   5.940   3.965   2.709 -0.0839 -0.3685  0.5399
 4769SOL    HW115163   6.018   3.948   2.655 -0.6589 -2.5040  0.2863
 4769SOL    HW215164   5.958   3.921   2.792 -0.9114 -0.6664  0.5708
 4770SOL     OW15165   0.733   1.673   6.650  0.0068  0.0555 -0.2804
 4770SOL    HW115166   0.646   1.634   6.647 -0.0884 -0.0184  1.9472
 4770SOL    HW215167   0.724   1.749   6.707  1.0257  1.1802 -1.5366
 4771SOL     OW15168   6.669   2.367   2.666  0.3855  0.2732  0.1660
 4771SOL    HW115169   6.642   2.286   2.709 -0.1785  0.4657  0.1830
 4771SOL    HW215170   6.740   2.401   2.721  1.9987 -1.2074 -0.9208
 4772SOL     OW15171   1.041   7.483   4.803  0.5508 -0.1191  0.7255
 4772SOL    HW115172   1.020   7.530   4.884  0.2770 -0.2598  0.7387
 4772SOL    HW215173   0.992   7.530   4.735  1.8936  0.8765  0.4027
 4773SOL     OW15174   1.723   2.064   7.117  0.2691 -0.6080  0.0227
 4773SOL    HW115175   1.676   2.125   7.173  1.3131  1.1275 -0.8934
 4773SOL    HW215176   1.664   2.046   7.045  1.3076  2.6430 -1.8510
 4774SOL     OW15177   7.518   1.999   1.668  0.4524 -0.0259  0.1280
 4774SOL    HW115178   7.605   2.031   1.647 -0.1272  1.0368 -0.7410
 4774SOL    HW215179   7.527   1.903   1.668  1.3397  0.0338 -1.2227
 4775SOL     OW15180   2.730   1.725   4.519  0.2497  0.1740  0.2956
 4775SOL    HW115181   2.824   1.709   4.524  0.1448 -1.0677 -1.1400
 4775SOL    HW215182   2.705   1.698   4.430 -1.1766  2.0544  0.0453
 4776SOL     OW15183   2.974   1.670   5.486  0.2786 -0.2795  0.2947
 4776SOL    HW115184   3.023   1.621   5.420  1.3467  0.1313  0.7704
 4776SOL    HW215185   2.893   1.695   5.441  0.9122 -0.1486 -0.8161
 4777SOL     OW15186   7.329   6.331   3.941  0.0687  0.3462 -0.0024
 4777SOL    HW115187   7.341   6.291   4.027 -0.7511  0.5895  0.2382
 4777SOL    HW215188   7.379   6.276   3.882  2.0884  1.1468  0.8570
 4778SOL     OW15189   5.713   5.664   5.504  0.4335 -0.1390  0.3190
 4778SOL    HW115190   5.699   5.683   5.597  0.7630  1.8988  0.0045
 4778SOL    HW215191   5.655   5.590   5.486  0.0636 -0.3227  2.0489
 4779SOL     OW15192   3.098   5.151   5.686  0.5372 -0.2202  0.1184
 4779SOL    HW115193   3.141   5.234   5.709  0.0426  0.3044 -0.7832
 4779SOL    HW215194   3.059   5.168   5.601  1.3162 -1.7256 -0.5707
 4780SOL     OW15195   5.809   0.548   5.472  0.2394  0.2462 -0.0054
 4780SOL    HW115196   5.809   0.564   5.378  0.3757 -0.4275 -0.1204
 4780SOL    HW215197   5.718   0.530   5.494  0.4231 -1.0743 -0.2674
 4781SOL     OW15198   5.234   7.546   4.103 -0.5057 -0.5076  0.5752
 4781SOL    HW115199   5.148   7.581   4.124 -0.2095  1.9205 -1.7833
 4781SOL    HW215200   5.294   7.591   4.163 -0.4516  1.0394 -0.5928
 4782SOL     OW15201   3.860   5.748   7.824 -0.2527 -0.6421 -0.2210
 4782SOL    HW115202   3.942   5.794   7.844 -0.5609 -1.2465  3.0663
 4782SOL    HW215203   3.887   5.663   7.791  0.4937 -0.8245  0.8071
 4783SOL     OW15204   6.092   6.184   3.266  0.1791  0.0814  0.6788
 4783SOL    HW115205   6.017   6.233   3.298 -0.0284  0.4428 -0.3204
 4783SOL    HW215206   6.054   6.111   3.216  0.3566  2.0404 -2.6099
 4784SOL     OW15207   3.142   4.449   7.615  0.1680 -0.5021  0.3465
 4784SOL    HW115208   3.082   4.375   7.620  0.3392 -0.7138 -0.5288
 4784SOL    HW215209   3.221   4.420   7.660 -0.1277 -0.4749  0.8928
 4785SOL     OW15210   5.124   1.208   1.851 -0.5196  0.6302 -0.1670
 4785SOL    HW115211   5.126   1.267   1.927 -1.6399 -0.3780  0.6785
 4785SOL    HW215212   5.034   1.177   1.848 -0.6249  1.0038 -2.2187
 4786SOL     OW15213   7.065   2.953   7.965  0.2415 -0.1431  0.1555
 4786SOL    HW115214   6.974   2.933   7.940  0.7563 -0.6824 -1.4569
 4786SOL    HW215215   7.118   2.900   7.904  1.6376  1.0370  0.2977
 4787SOL     OW15216   2.326   5.348   3.668 -0.1419  0.2393  0.0252
 4787SOL    HW115217   2.337   5.261   3.706 -0.5396  0.4863  0.7363
 4787SOL    HW215218   2.385   5.404   3.718 -0.0013  0.4070 -0.3267
 4788SOL     OW15219   0.953   1.177   0.174  0.2082 -0.3435 -0.2620
 4788SOL    HW115220   0.944   1.082   0.174  2.1811 -0.6425 -2.4019
 4788SOL    HW215221   1.048   1.192   0.181  0.3164  1.2490 -3.3461
 4789SOL     OW15222   1.136   0.378   5.211  0.0785 -0.1122 -0.7655
 4789SOL    HW115223   1.168   0.290   5.191 -3.7267 -1.5442 -1.4012
 4789SOL    HW215224   1.138   0.425   5.128  1.6784  0.3427 -0.5136
 4790SOL     OW15225   2.531   2.005   1.481  0.2605  0.4007 -0.0253
 4790SOL    HW115226   2.440   1.983   1.461  0.2158  1.7199 -1.4906
 4790SOL    HW215227   2.546   1.969   1.568 -1.3772 -0.6318 -0.1273
 4791SOL     OW15228   5.018   2.407   7.237 -0.4057  0.3871 -0.4077
 4791SOL    HW115229   4.973   2.399   7.321  2.9937 -0.5550  1.5107
 4791SOL    HW215230   5.019   2.501   7.219 -0.5937  0.6779  1.0005
 4792SOL     OW15231   5.929   5.118   5.662  0.0346  0.3696  0.2872
 4792SOL    HW115232   5.983   5.184   5.619  0.7552  0.2297  0.9557
 4792SOL    HW215233   5.840   5.138   5.634  0.2145  1.7264  0.5995
 4793SOL     OW15234   6.039   2.797   7.747  0.2945  0.2664  0.5452
 4793SOL    HW115235   6.109   2.799   7.682  0.5134  0.0990  0.7764
 4793SOL    HW215236   6.084   2.785   7.831 -0.1382 -1.9512  0.4957
 4794SOL     OW15237   4.173   4.522   2.851 -0.4694  0.0295 -0.7225
 4794SOL    HW115238   4.087   4.480   2.858 -0.2626 -0.3366 -0.3896
 4794SOL    HW215239   4.155   4.615   2.863 -0.7317 -0.1155  0.0345
 4795SOL     OW15240   5.377   3.838   7.731  0.2079  0.4627 -0.3957
 4795SOL    HW115241   5.370   3.789   7.649  1.1518  1.4497 -1.0846
 4795SOL    HW215242   5.449   3.795   7.778 -0.5057 -0.2702  0.0589
 4796SOL     OW15243   5.401   3.346   5.814  0.3423  0.2500  0.5499
 4796SOL    HW115244   5.384   3.430   5.771 -0.7362  0.0000  0.4691
 4796SOL    HW215245   5.318   3.298   5.807  0.9021 -0.7614  0.7400
 4797SOL     OW15246   1.942   7.342   2.395  0.3874  0.0246  0.4533
 4797SOL    HW115247   2.008   7.329   2.463  0.5144 -2.2553 -0.0477
 4797SOL    HW215248   1.958   7.432   2.364  2.5018 -0.0519  1.1451
 4798SOL     OW15249   1.161   4.716   3.155  0.0928  0.1430 -0.0532
 4798SOL    HW115250   1.247   4.674   3.154 -0.4810 -1.2397  1.6729
 4798SOL    HW215251   1.124   4.692   3.240 -0.6130  3.6687  0.7792
 4799SOL     OW15252   2.472   7.747   4.822  0.2507  0.0390  0.0007
 4799SOL    HW115253   2.567   7.755   4.827  0.1105  1.6311  0.4589
 4799SOL    HW215254   2.440   7.836   4.805 -1.0237 -0.8143 -2.6717
 4800SOL     OW15255   4.648   0.814   5.576 -0.6231 -0.0022 -0.2970
 4800SOL    HW115256   4.575   0.753   5.584 -0.0742 -0.4708  1.5345
 4800SOL    HW215257   4.668   0.815   5.482 -0.5394 -2.7617 -0.3880
 4801SOL     OW15258   1.238   1.787   6.353  0.5573 -0.1600  0.0843
 4801SOL    HW115259   1.151   1.826   6.350  0.0505 -1.2926 -0.5367
 4801SOL    HW215260   1.272   1.796   6.264 -0.1844 -2.4039 -0.5007
 4802SOL     OW15261   6.474   3.127   3.141 -0.1281 -0.4131  0.1220
 4802SOL    HW115262   6.406   3.165   3.085  0.5050 -0.4899 -0.7177
 4802SOL    HW215263   6.551   3.182   3.126  0.6009 -1.5836 -0.5855
 4803SOL     OW15264   4.199   3.961   7.793  0.3158  0.0724 -0.1841
 4803SOL    HW115265   4.116   3.997   7.762 -2.0097 -4.2698  0.0994
 4803SOL    HW215266   4.249   3.943   7.713 -0.0018  0.6395 -0.5133
 4804SOL     OW15267   0.137   3.056   7.968 -0.0982 -0.5707  0.2713
 4804SOL    HW115268   0.189   3.011   8.034  1.1925  1.1137  0.4765
 4804SOL    HW215269   0.193   3.054   7.889  0.1972  1.0262  0.4184
 4805SOL     OW15270   7.656   5.140   5.794  0.0844  0.3870 -0.2578
 4805SOL    HW115271   7.589   5.076   5.769  0.1264  0.3685 -0.3212
 4805SOL    HW215272   7.612   5.225   5.785  0.0886  0.3786 -0.3594
 4806SOL     OW15273   4.930   4.660   1.861  0.0081  0.1886 -0.3664
 4806SOL    HW115274   4.925   4.693   1.950 -0.0838  0.4974 -0.4836
 4806SOL    HW215275   4.893   4.731   1.807 -0.2253 -0.1199 -0.6153
 4807SOL     OW15276   2.996   0.566   4.595  0.0967  0.7284 -0.0062
 4807SOL    HW115277   3.061   0.522   4.540  0.6595  0.6405  0.7101
 4807SOL    HW215278   2.914   0.523   4.574  0.6028 -0.5658  0.5485
 4808SOL     OW15279   2.842   5.465   4.833  0.3214  0.0925 -0.1285
 4808SOL    HW115280   2.920   5.448   4.780 -1.7611  0.7917 -3.7814
 4808SOL    HW215281   2.829   5.559   4.826 -0.3838  0.1103  1.1895
 4809SOL     OW15282   6.707   2.212   7.439  0.1437  0.3271 -0.0437
 4809SOL    HW115283   6.792   2.192   7.477  0.3603  0.5057 -0.4285
 4809SOL    HW215284   6.690   2.303   7.463 -0.4737 -0.0446  1.0166
 4810SOL     OW15285   6.694   2.305   5.516  0.5123  0.7757  0.4336
 4810SOL    HW115286   6.619   2.255   5.546  0.4128  0.2123 -0.7084
 4810SOL    HW215287   6.758   2.239   5.488  0.9360  1.2662  0.2141
 4811SOL     OW15288   7.349   0.313   3.582 -0.5463  0.0531  0.7421
 4811SOL    HW115289   7.300   0.265   3.648 -0.8284  0.9833  1.2219
 4811SOL    HW215290   7.441   0.300   3.606 -0.4623 -2.3996 -0.6510
 4812SOL     OW15291   1.486   5.196   5.656 -0.1794  0.1111 -0.4932
 4812SOL    HW115292   1.448   5.281   5.677 -2.0728 -0.8578  0.2747
 4812SOL    HW215293   1.576   5.201   5.688 -0.5516  1.4906  0.4260
 4813SOL     OW15294   3.340   6.926   3.459 -0.2888 -0.1400 -0.1437
 4813SOL    HW115295   3.392   7.004   3.477  0.9685 -0.4082 -2.3448
 4813SOL    HW215296   3.264   6.958   3.411  0.2018 -0.2375 -1.0022
 4814SOL     OW15297   3.035   1.854   0.602  0.6117 -0.1504  0.3551
 4814SOL    HW115298   3.095   1.837   0.675  0.8690  0.9481  0.4130
 4814SOL    HW215299   3.073   1.928   0.555  0.8109 -1.2639 -1.3233
 4815SOL     OW15300   4.364   0.689   7.597 -0.1856  0.1321 -0.1833
 4815SOL    HW115301   4.423   0.734   7.658  1.7032 -1.4487 -0.7629
 4815SOL    HW215302   4.304   0.757   7.567  1.9047  2.0261 -0.2524
 4816SOL     OW15303   2.987   7.297   0.202  0.3340 -0.1453 -0.4619
 4816SOL    HW115304   2.957   7.308   0.292  0.3096  1.1547 -0.6001
 4816SOL    HW215305   3.079   7.324   0.205  0.6152 -1.0772 -0.6366
 4817SOL     OW15306   4.101   5.647   5.151  0.0725 -0.1542 -0.3545
 4817SOL    HW115307   4.155   5.612   5.221 -0.0103  0.4103  0.0012
 4817SOL    HW215308   4.089   5.740   5.174  2.3668  0.8054 -2.5369
 4818SOL     OW15309   6.592   4.808   6.843 -0.0365 -0.3007 -0.1997
 4818SOL    HW115310   6.546   4.726   6.828  0.2625 -0.3106 -1.0869
 4818SOL    HW215311   6.672   4.782   6.889 -1.3763 -0.1743  2.3954
 4819SOL     OW15312   6.940   4.001   3.957 -0.1890  0.3512  0.1325
 4819SOL    HW115313   6.957   3.976   4.048 -1.4628 -0.6854  0.1171
 4819SOL    HW215314   6.851   4.037   3.958 -0.1032  0.5968 -0.6422
 4820SOL     OW15315   7.780   3.793   7.496  0.2422  0.0974  0.4404
 4820SOL    HW115316   7.778   3.716   7.438  1.1321 -0.3760  1.0120
 4820SOL    HW215317   7.764   3.867   7.438 -2.3600 -0.6237  0.1276
 4821SOL     OW15318   6.694   5.665   2.411  0.0777 -0.0071 -0.0121
 4821SOL    HW115319   6.756   5.651   2.483 -0.1541  0.5063  0.2988
 4821SOL    HW215320   6.685   5.760   2.406  0.5171 -0.0101 -1.0961
 4822SOL     OW15321   7.224   0.139   1.839  0.2928 -0.1056 -0.1812
 4822SOL    HW115322   7.228   0.127   1.934 -0.5621  2.3933  0.2555
 4822SOL    HW215323   7.315   0.148   1.813  0.4581  2.7463  1.0388
 4823SOL     OW15324   6.372   0.433   2.130  0.6729 -0.3554 -0.1085
 4823SOL    HW115325   6.415   0.512   2.097  0.5662 -0.7818 -1.3297
 4823SOL    HW215326   6.401   0.363   2.070 -1.4599 -0.7157 -0.8112
 4824SOL     OW15327   7.881   4.577   6.371  0.0164  0.6797 -0.3330
 4824SOL    HW115328   7.918   4.632   6.302 -0.1343 -1.7293 -2.4362
 4824SOL    HW215329   7.894   4.488   6.341 -1.4037 -0.4389  2.0963
 4825SOL     OW15330   6.578   7.005   7.183 -0.3960  0.4941 -0.1720
 4825SOL    HW115331   6.569   7.061   7.106 -2.2042  0.3035 -0.1435
 4825SOL    HW215332   6.567   6.916   7.150 -3.4990  0.4926  0.4930
 4826SOL     OW15333   1.535   2.338   6.429 -0.1400  0.6138 -0.4023
 4826SOL    HW115334   1.586   2.260   6.408  0.7094  0.8234  0.7975
 4826SOL    HW215335   1.444   2.307   6.434 -0.0618  0.0835 -1.7685
 4827SOL     OW15336   6.925   0.583   4.013 -0.2158  0.0587  0.2690
 4827SOL    HW115337   6.893   0.541   4.093  0.4835 -0.0959  0.4797
 4827SOL    HW215338   7.010   0.621   4.039  0.3823 -0.6583 -0.5889
 4828SOL     OW15339   2.639   4.355   1.529  0.6248 -0.4008  0.2533
 4828SOL    HW115340   2.688   4.417   1.474 -1.2366  0.7856 -0.1535
 4828SOL    HW215341   2.550   4.356   1.493 -0.4889 -0.1550  2.7860
 4829SOL     OW15342   7.030   3.473   5.417 -0.1735 -0.4527  0.1120
 4829SOL    HW115343   7.061   3.438   5.333  0.2522 -0.6288  0.3403
 4829SOL    HW215344   6.938   3.447   5.421 -0.1531 -0.5809 -0.2300
 4830SOL     OW15345   5.283   6.710   0.158 -0.1651  0.5181  0.2102
 4830SOL    HW115346   5.309   6.643   0.220 -0.1832  0.3448  0.0321
 4830SOL    HW215347   5.288   6.667   0.072 -2.2893  0.0646  0.2564
 4831SOL     OW15348   2.747   4.090   4.511  0.5311  0.5682 -0.0534
 4831SOL    HW115349   2.792   4.038   4.577  0.1649  0.8908  0.4592
 4831SOL    HW215350   2.654   4.076   4.529  0.4292  0.2232 -0.8480
 4832SOL     OW15351   1.277   6.747   3.483 -0.2673  0.4559 -0.0039
 4832SOL    HW115352   1.327   6.820   3.448 -0.4679  0.9352  0.6849
 4832SOL    HW215353   1.190   6.757   3.445  0.1836 -0.4569 -1.3096
 4833SOL     OW15354   4.509   0.865   7.317  0.3526 -0.3210  0.5011
 4833SOL    HW115355   4.518   0.882   7.223  0.7809  0.9991  0.7585
 4833SOL    HW215356   4.591   0.896   7.354  0.8586 -2.3325  1.1403
 4834SOL     OW15357   0.179   3.440   3.088 -0.3862  0.2560 -0.5933
 4834SOL    HW115358   0.088   3.469   3.081 -0.6646  0.0147  1.4227
 4834SOL    HW215359   0.199   3.448   3.181  1.7688  0.5935 -1.0323
 4835SOL     OW15360   5.874   6.409   2.604 -0.0712 -0.0467 -0.2209
 4835SOL    HW115361   5.891   6.327   2.557 -0.8666 -0.7694  0.6919
 4835SOL    HW215362   5.941   6.412   2.672  0.4476  0.4806 -0.7416
 4836SOL     OW15363   0.720   7.126   4.130 -0.5016  0.1902  0.4578
 4836SOL    HW115364   0.775   7.059   4.089 -0.3184  0.2583  0.5936
 4836SOL    HW215365   0.752   7.209   4.093  0.5988  0.3875  1.7732
 4837SOL     OW15366   0.997   3.150   7.047  0.6177 -0.3540  0.0431
 4837SOL    HW115367   0.959   3.150   7.135  3.2345 -1.3505  1.2944
 4837SOL    HW215368   0.924   3.172   6.989 -1.3012 -0.0597  2.4046
 4838SOL     OW15369   2.007   1.156   7.700  0.5004  0.5367  0.4045
 4838SOL    HW115370   2.100   1.147   7.721  0.6790 -0.0567 -0.5785
 4838SOL    HW215371   1.987   1.248   7.718  1.7066  1.1094 -0.9796
 4839SOL     OW15372   4.948   6.510   6.681  0.5082 -0.1876  0.4897
 4839SOL    HW115373   4.880   6.500   6.747 -0.5641  2.2399 -0.1530
 4839SOL    HW215374   4.911   6.470   6.602  0.8220 -0.9598  0.7218
 4840SOL     OW15375   1.838   2.585   2.957 -0.5754 -0.1838  0.2864
 4840SOL    HW115376   1.857   2.491   2.952 -1.3648 -0.3850  0.8835
 4840SOL    HW215377   1.917   2.624   2.994 -0.8777 -0.8481  1.6690
 4841SOL     OW15378   7.900   6.407   7.099 -0.0135 -0.4971 -0.0479
 4841SOL    HW115379   7.815   6.405   7.142 -0.0981 -0.4256 -0.2111
 4841SOL    HW215380   7.947   6.479   7.142 -0.8961  1.0659 -1.5633
 4842SOL     OW15381   3.561   0.251   5.304 -0.0518  0.0758 -0.3768
 4842SOL    HW115382   3.564   0.346   5.317 -0.7185  0.2567 -1.4002
 4842SOL    HW215383   3.490   0.238   5.241 -0.1107 -1.1263 -0.0907
 4843SOL     OW15384   2.663   3.942   5.772  0.3740  0.5041  0.2652
 4843SOL    HW115385   2.746   3.981   5.800  0.2386  1.3814 -0.5266
 4843SOL    HW215386   2.607   3.948   5.850  0.6026  1.1984  0.3849
 4844SOL     OW15387   7.828   4.960   5.316 -0.6967 -0.4209  0.2958
 4844SOL    HW115388   7.912   4.922   5.290 -0.9444 -1.8953  1.5698
 4844SOL    HW215389   7.807   4.920   5.400 -2.8029 -0.2726 -0.0939
 4845SOL     OW15390   7.699   0.489   1.513 -0.3393 -0.1919 -0.2398
 4845SOL    HW115391   7.735   0.502   1.601 -0.7592  0.0633 -0.1039
 4845SOL    HW215392   7.604   0.499   1.524 -0.2715  1.7210 -1.0481
 4846SOL     OW15393   5.680   4.070   1.668  0.2397 -0.3675  0.0549
 4846SOL    HW115394   5.767   4.106   1.650  0.7085 -1.0420  0.8663
 4846SOL    HW215395   5.629   4.090   1.589  1.2881 -0.4673 -0.6753
 4847SOL     OW15396   7.938   7.205   1.625  0.0294  0.0694 -0.2246
 4847SOL    HW115397   7.964   7.234   1.712 -0.6972  3.6767 -1.0771
 4847SOL    HW215398   7.906   7.283   1.581 -1.5781 -1.9904 -3.0909
 4848SOL     OW15399   2.740   3.066   1.868  0.1821  0.1683 -0.7768
 4848SOL    HW115400   2.768   3.104   1.785  1.1548  0.4818 -0.3172
 4848SOL    HW215401   2.645   3.079   1.870 -0.0025 -0.7433 -2.2853
 4849SOL     OW15402   3.567   1.657   5.509 -0.1136  0.5265  0.3442
 4849SOL    HW115403   3.632   1.587   5.504 -0.7537 -0.0864  0.4983
 4849SOL    HW215404   3.484   1.612   5.525 -0.6677  1.2594 -0.3874
 4850SOL     OW15405   5.037   2.436   2.183 -0.6525  0.2612  0.2309
 4850SOL    HW115406   5.109   2.485   2.144 -1.3279  0.8770 -0.2697
 4850SOL    HW215407   5.076   2.393   2.260  1.0180 -2.0381 -1.7576
 4851SOL     OW15408   5.771   3.289   0.316  0.1622 -0.1609 -0.7915
 4851SOL    HW115409   5.771   3.208   0.367 -0.1649 -0.0873 -0.6722
 4851SOL    HW215410   5.859   3.325   0.327 -0.3743  0.7036  1.0539
 4852SOL     OW15411   6.598   1.761   7.827 -0.0927 -0.1990 -0.5313
 4852SOL    HW115412   6.554   1.714   7.756  0.7067 -1.3734 -0.2806
 4852SOL    HW215413   6.678   1.797   7.787 -0.5419  0.7040 -0.6451
 4853SOL     OW15414   0.070   5.585   6.578 -0.3236 -0.1725  0.0173
 4853SOL    HW115415  -0.013   5.538   6.589 -1.2710  1.3517 -0.3691
 4853SOL    HW215416   0.095   5.611   6.667  1.6612 -3.6368  0.6527
 4854SOL     OW15417   1.886   6.121   1.678  0.0253 -0.3755 -0.5710
 4854SOL    HW115418   1.962   6.120   1.621  0.9163  1.8364  0.4490
 4854SOL    HW215419   1.871   6.214   1.697 -1.1735 -0.9108  1.5109
 4855SOL     OW15420   0.319   0.566   7.203 -0.6954  0.1854  0.4597
 4855SOL    HW115421   0.347   0.475   7.198  0.1555  0.4317  0.5132
 4855SOL    HW215422   0.378   0.612   7.143 -1.7920  0.5553 -0.3710
 4856SOL     OW15423   2.780   3.399   7.174  0.3078  0.2612  0.3559
 4856SOL    HW115424   2.824   3.484   7.173 -1.1690  1.0967 -1.3806
 4856SOL    HW215425   2.851   3.335   7.169  1.4457  1.3659  1.5525
 4857SOL     OW15426   3.630   5.469   0.511 -0.0416 -0.0120  0.0751
 4857SOL    HW115427   3.538   5.496   0.508 -0.4148 -1.1894 -2.8165
 4857SOL    HW215428   3.674   5.528   0.448  1.3296  0.8316  1.7476
 4858SOL     OW15429   5.098   2.209   7.046  0.0119 -0.6845  0.3438
 4858SOL    HW115430   5.060   2.277   7.101 -1.0207 -1.0286  0.0809
 4858SOL    HW215431   5.135   2.146   7.107 -0.4109 -0.6620  0.6257
 4859SOL     OW15432   0.623   5.356   5.962 -0.0866  0.4216  0.0367
 4859SOL    HW115433   0.544   5.306   5.941  0.3735 -0.1703 -0.3156
 4859SOL    HW215434   0.592   5.427   6.019 -0.6682 -0.6594  1.1289
 4860SOL     OW15435   1.249   3.886   1.094  0.2557  0.1976  0.1962
 4860SOL    HW115436   1.313   3.957   1.087 -0.3810  0.7777  0.1552
 4860SOL    HW215437   1.296   3.815   1.138  1.2523  0.2165 -0.7917
 4861SOL     OW15438   3.739   7.411   7.652 -0.2434 -0.0934 -0.2728
 4861SOL    HW115439   3.706   7.348   7.716  0.0331  0.2127  0.1762
 4861SOL    HW215440   3.824   7.376   7.626 -0.5149 -0.4053 -0.7447
 4862SOL     OW15441   0.541   5.937   6.751 -0.2794  0.4137 -0.4212
 4862SOL    HW115442   0.561   5.978   6.667  0.0736 -0.0447 -0.5647
 4862SOL    HW215443   0.626   5.926   6.794 -0.3064 -0.6026 -0.5972
 4863SOL     OW15444   6.525   0.831   1.309  0.0365  0.6813  0.1679
 4863SOL    HW115445   6.490   0.919   1.306 -3.3678 -0.5559 -1.1347
 4863SOL    HW215446   6.491   0.788   1.230  0.3212 -2.1846  1.4611
 4864SOL     OW15447   6.489   4.720   7.992  0.0957  0.1465  0.4606
 4864SOL    HW115448   6.537   4.729   8.075 -0.6510  0.3766  0.8836
 4864SOL    HW215449   6.433   4.797   7.989 -2.0833 -1.3198  1.2245
 4865SOL     OW15450   2.600   1.404   5.300  0.1048 -0.1793  0.6556
 4865SOL    HW115451   2.530   1.409   5.365  0.6997  0.0510  1.2842
 4865SOL    HW215452   2.594   1.486   5.251  2.1805  1.5717  3.0598
 4866SOL     OW15453   1.022   1.915   6.261  0.0560 -0.1708  0.0054
 4866SOL    HW115454   1.064   1.986   6.212 -0.7084  0.8205  0.7419
 4866SOL    HW215455   0.998   1.851   6.193 -0.3091  0.8287 -0.8452
 4867SOL     OW15456   6.261   4.963   1.129 -0.1332 -0.5476  1.3577
 4867SOL    HW115457   6.217   4.879   1.116  0.3512 -0.8683  1.7556
 4867SOL    HW215458   6.340   4.958   1.076  0.3059 -0.6705  2.0029
 4868SOL     OW15459   5.638   5.093   7.317  0.6486 -0.3734 -0.1700
 4868SOL    HW115460   5.706   5.027   7.330  0.7263 -0.7361 -2.0676
 4868SOL    HW215461   5.678   5.158   7.260  0.1972  0.7574  0.7633
 4869SOL     OW15462   6.520   3.842   7.433  0.1575 -0.3157 -0.0141
 4869SOL    HW115463   6.606   3.851   7.393  0.8975 -0.0943  1.5967
 4869SOL    HW215464   6.524   3.760   7.482 -0.8350 -0.7247 -0.5721
 4870SOL     OW15465   0.431   0.040   6.963 -0.0261  0.3967  0.1609
 4870SOL    HW115466   0.441   0.134   6.974 -0.9868  0.3674  1.6028
 4870SOL    HW215467   0.339   0.027   6.941  0.0266 -0.2179  0.2583
 4871SOL     OW15468   0.401   7.624   5.628 -0.6475  0.2901 -0.0515
 4871SOL    HW115469   0.391   7.660   5.715 -0.2507 -1.3263  0.7062
 4871SOL    HW215470   0.329   7.560   5.620 -0.5248  0.2361 -0.8009
 4872SOL     OW15471   4.084   4.036   6.737  0.3770  0.3803  0.1414
 4872SOL    HW115472   4.136   3.960   6.712 -1.9028 -0.4677 -2.4190
 4872SOL    HW215473   4.119   4.107   6.683 -0.8358 -0.1170 -1.3467
 4873SOL     OW15474   4.230   3.554   4.258  0.0570  0.0265 -0.4326
 4873SOL    HW115475   4.307   3.498   4.254  0.5918  0.3182  2.9288
 4873SOL    HW215476   4.157   3.495   4.274  0.0919  0.0231 -0.2881
 4874SOL     OW15477   7.391   3.072   5.314  0.2738 -0.3143 -0.0172
 4874SOL    HW115478   7.444   2.995   5.290 -0.3214 -0.7108 -0.0767
 4874SOL    HW215479   7.427   3.143   5.261  0.7944 -0.5621 -0.0066
 4875SOL     OW15480   1.074   7.277   3.273 -0.1445  0.2830  0.6073
 4875SOL    HW115481   1.110   7.283   3.185 -0.9706  4.0287  0.3374
 4875SOL    HW215482   1.151   7.286   3.331  0.2421 -0.8241  0.2944
 4876SOL     OW15483   1.329   2.755   7.946  0.4368  0.2122  0.1973
 4876SOL    HW115484   1.341   2.775   8.039 -0.9447 -1.6178  0.8249
 4876SOL    HW215485   1.356   2.664   7.938 -2.2201 -0.5833 -0.5540
 4877SOL     OW15486   2.394   0.603   0.431 -0.2466 -0.2841 -0.0678
 4877SOL    HW115487   2.382   0.616   0.337 -0.3970 -0.4291 -0.0692
 4877SOL    HW215488   2.329   0.537   0.455 -0.8202  0.3880  0.2980
 4878SOL     OW15489   4.651   4.664   2.055 -0.1980  0.4221  0.1699
 4878SOL    HW115490   4.655   4.759   2.044  2.4897  0.3241 -0.2495
 4878SOL    HW215491   4.638   4.629   1.967  2.4186  0.3314 -0.2463
 4879SOL     OW15492   5.069   4.972   7.946 -0.4008 -0.2564 -0.0219
 4879SOL    HW115493   5.122   4.983   7.867  0.4406  0.5752  0.6414
 4879SOL    HW215494   5.130   4.943   8.013 -0.6499  1.2273  0.8940
 4880SOL     OW15495   7.863   4.768   6.853 -0.2066 -0.2579  0.3870
 4880SOL    HW115496   7.796   4.771   6.921  0.4824 -0.0319  1.0818
 4880SOL    HW215497   7.815   4.772   6.770 -1.0105  0.9891  0.8779
 4881SOL     OW15498   7.586   7.665   3.394 -0.2090 -0.0334 -0.2161
 4881SOL    HW115499   7.622   7.669   3.483  0.8080  2.2982 -0.6518
 4881SOL    HW215500   7.603   7.752   3.357 -2.0901 -0.3911 -2.1446
 4882SOL     OW15501   4.193   1.641   6.225  0.0326  0.0487  0.0279
 4882SOL    HW115502   4.229   1.566   6.271 -0.3715  0.1365  0.4949
 4882SOL    HW215503   4.144   1.689   6.292  0.8057  1.0701 -0.1110
 4883SOL     OW15504   2.009   7.014   2.434  0.3117 -0.3724  0.2060
 4883SOL    HW115505   1.954   7.088   2.458 -0.7824 -1.3533  0.8254
 4883SOL    HW215506   2.016   6.962   2.514  0.0996 -1.5186 -0.4878
 4884SOL     OW15507   6.769   6.069   4.504  0.3980  0.1543 -0.1784
 4884SOL    HW115508   6.812   6.098   4.424  1.2469 -0.2298  0.1243
 4884SOL    HW215509   6.763   5.974   4.495  2.4687 -0.1638  1.1129
 4885SOL     OW15510   2.219   0.449   1.222  0.1728  0.3525 -0.6715
 4885SOL    HW115511   2.154   0.413   1.283  1.3770 -1.5095 -0.3997
 4885SOL    HW215512   2.197   0.542   1.216 -1.9270 -0.0274  0.1268
 4886SOL     OW15513   2.212   7.177   5.293 -0.2041 -0.3385 -0.3070
 4886SOL    HW115514   2.197   7.248   5.231  0.1358 -0.2772 -0.3221
 4886SOL    HW215515   2.200   7.217   5.379  0.6070 -0.1008 -0.2928
 4887SOL     OW15516   1.254   7.702   0.893  0.4439  0.1865  0.0500
 4887SOL    HW115517   1.217   7.770   0.837 -1.6594  0.8140  2.0681
 4887SOL    HW215518   1.338   7.737   0.921  0.3645  0.9849 -0.6603
 4888SOL     OW15519   0.397   5.383   1.639 -0.2048  0.7278  0.3225
 4888SOL    HW115520   0.423   5.388   1.547  1.2705  1.5063  0.7368
 4888SOL    HW215521   0.338   5.457   1.652 -0.7514  0.3643 -0.0961
 4889SOL     OW15522   0.141   4.082   6.385 -0.8650 -0.1503  0.0688
 4889SOL    HW115523   0.098   4.001   6.356 -1.5708  0.0129  0.6346
 4889SOL    HW215524   0.075   4.150   6.375 -0.6410  0.1636  0.6513
 4890SOL     OW15525   3.062   6.705   2.436 -1.0309 -0.2600 -0.0037
 4890SOL    HW115526   3.126   6.768   2.471  0.0091 -0.1892 -1.9365
 4890SOL    HW215527   3.001   6.759   2.385 -0.1135 -0.7701 -1.7017
 4891SOL     OW15528   0.027   4.465   4.860 -0.1766 -0.0775 -0.1044
 4891SOL    HW115529  -0.028   4.543   4.861  1.2103  0.9229  1.2642
 4891SOL    HW215530  -0.035   4.392   4.863 -1.6256  0.7983 -3.4008
 4892SOL     OW15531   0.344   5.661   2.469  0.3315 -0.1307  0.5020
 4892SOL    HW115532   0.431   5.636   2.502  0.1153 -0.5395  0.7795
 4892SOL    HW215533   0.283   5.612   2.525 -0.0743  0.0993  0.2617
 4893SOL     OW15534   7.400   4.234   2.496 -0.0285 -0.1666  0.3799
 4893SOL    HW115535   7.329   4.294   2.520  0.7845  1.1326 -0.3567
 4893SOL    HW215536   7.449   4.222   2.577 -1.0622 -1.0782  0.8964
 4894SOL     OW15537   5.510   0.898   1.306  0.0042  0.6239 -0.3192
 4894SOL    HW115538   5.472   0.973   1.352  0.1432  0.3707  0.2116
 4894SOL    HW215539   5.542   0.840   1.375  0.7436  0.5116 -0.7405
 4895SOL     OW15540   4.137   7.749   4.715 -0.2354  0.6895  0.1689
 4895SOL    HW115541   4.128   7.814   4.645  0.5796  2.2877  1.4627
 4895SOL    HW215542   4.159   7.801   4.792  0.9477 -1.1944  1.1645
 4896SOL     OW15543   4.940   6.603   2.832  0.1369  0.2973  0.5272
 4896SOL    HW115544   4.946   6.681   2.777 -1.3417  0.9758  1.2789
 4896SOL    HW215545   4.911   6.533   2.773  2.7583 -0.1015 -0.4580
 4897SOL     OW15546   7.795   3.388   2.923  0.1783  0.4856  0.0468
 4897SOL    HW115547   7.853   3.370   2.849  0.4270 -1.8693  0.7130
 4897SOL    HW215548   7.823   3.326   2.990 -3.3436 -1.0828  0.2781
 4898SOL     OW15549   5.921   4.190   1.617  0.4164  0.9648 -0.3717
 4898SOL    HW115550   6.000   4.139   1.633 -1.9919 -2.3491  2.3140
 4898SOL    HW215551   5.919   4.255   1.687 -1.0585 -1.6186  2.1714
 4899SOL     OW15552   6.224   0.832   5.231  0.3789  0.5625  0.3601
 4899SOL    HW115553   6.273   0.793   5.159 -3.0342 -0.9359 -1.3313
 4899SOL    HW215554   6.161   0.890   5.189 -0.8051  0.7163  2.2469
 4900SOL     OW15555   5.476   2.129   5.068 -0.0484 -0.2773  0.4093
 4900SOL    HW115556   5.488   2.209   5.016 -0.6035 -0.2696  0.2925
 4900SOL    HW215557   5.543   2.135   5.136 -0.1695  0.3494  0.4799
 4901SOL     OW15558   8.000   5.184   4.237  0.0094 -0.0162  0.2381
 4901SOL    HW115559   7.986   5.124   4.164  0.3236 -1.5296  1.3619
 4901SOL    HW215560   8.074   5.238   4.210 -2.5761  2.5862 -2.3836
 4902SOL     OW15561   2.935   3.248   4.457  0.0658  0.0519  0.0201
 4902SOL    HW115562   2.849   3.206   4.467  0.9842 -1.6589  1.1939
 4902SOL    HW215563   2.986   3.215   4.531  2.0395  0.2800 -1.1892
 4903SOL     OW15564   7.933   0.991   0.643 -0.5945 -0.5637  0.0744
 4903SOL    HW115565   7.877   1.065   0.621 -0.9556 -1.3881 -2.0540
 4903SOL    HW215566   7.883   0.940   0.706 -1.4688 -0.3342 -0.4154
 4904SOL     OW15567   1.681   1.396   6.285 -0.0451 -0.4483  0.1388
 4904SOL    HW115568   1.773   1.423   6.283 -0.3471  0.6122 -0.8557
 4904SOL    HW215569   1.635   1.470   6.325 -0.4614 -1.0488  0.8027
 4905SOL     OW15570   1.645   7.639   7.001  0.2523 -0.3141 -0.3296
 4905SOL    HW115571   1.678   7.614   7.088 -1.2267  2.3175  1.1233
 4905SOL    HW215572   1.550   7.628   7.008 -0.2044  2.8599 -0.4661
 4906SOL     OW15573   3.571   3.774   2.134 -0.2125  0.2248 -0.3827
 4906SOL    HW115574   3.591   3.820   2.052 -2.1750  0.0644 -1.0040
 4906SOL    HW215575   3.649   3.722   2.152  0.5876  0.9183 -1.7037
 4907SOL     OW15576   7.345   0.028   2.304 -0.0669 -0.3800 -0.0444
 4907SOL    HW115577   7.362   0.056   2.393  0.0957 -0.7331  0.0343
 4907SOL    HW215578   7.401  -0.048   2.290 -1.2486 -1.3073  0.0866
 4908SOL     OW15579   2.556   5.027   1.289  0.0247  0.0810  0.5712
 4908SOL    HW115580   2.476   4.988   1.254 -0.3785  1.2816  0.1060
 4908SOL    HW215581   2.578   5.096   1.227  2.2034 -1.0887 -0.0723
 4909SOL     OW15582   2.360   8.001   7.878  0.9922 -0.1296 -0.0073
 4909SOL    HW115583   2.284   8.055   7.901 -1.5729 -2.9551 -1.0253
 4909SOL    HW215584   2.371   7.943   7.954 -1.2862 -3.0291 -1.6461
 4910SOL     OW15585   6.122   3.501   5.604  0.5131  0.2945  0.3943
 4910SOL    HW115586   6.183   3.430   5.624 -0.1397  0.3002  2.7319
 4910SOL    HW215587   6.085   3.525   5.689 -2.9011  0.1664 -0.8942
 4911SOL     OW15588   7.807   2.176   0.060 -0.3620  0.1462 -0.7341
 4911SOL    HW115589   7.859   2.179   0.141 -0.9656 -2.5836 -0.1403
 4911SOL    HW215590   7.736   2.114   0.080 -2.3721  1.7841 -2.3627
 4912SOL     OW15591   2.630   1.124   5.302  0.0494 -0.4094  0.2318
 4912SOL    HW115592   2.587   1.209   5.314  2.1738  0.7558 -0.0623
 4912SOL    HW215593   2.699   1.122   5.369  1.5213 -0.8725 -1.2500
 4913SOL     OW15594   5.201   0.077   5.658 -0.9070  0.7085 -0.0816
 4913SOL    HW115595   5.228   0.066   5.566 -2.4731 -2.5542 -0.2769
 4913SOL    HW215596   5.267   0.029   5.708 -1.1658  0.7510  0.2997
 4914SOL     OW15597   3.406   1.075   0.531 -0.0327  0.1794 -0.3440
 4914SOL    HW115598   3.436   1.038   0.447 -0.3091  1.4282 -1.0167
 4914SOL    HW215599   3.324   1.031   0.548 -0.0148 -0.0344 -0.7769
 4915SOL     OW15600   1.955   1.790   5.199  0.5227  0.1134  0.0636
 4915SOL    HW115601   1.881   1.799   5.140 -0.6352 -0.8576  1.3028
 4915SOL    HW215602   1.980   1.698   5.191  1.4665  0.3794 -0.1722
 4916SOL     OW15603   0.865   5.194   7.525  0.5496  0.1239 -0.2173
 4916SOL    HW115604   0.824   5.276   7.555  1.2781  0.1613  0.7437
 4916SOL    HW215605   0.851   5.193   7.431  0.4820  1.3431 -0.2421
 4917SOL     OW15606   7.727   6.871   7.515 -0.3993  0.3536  0.0819
 4917SOL    HW115607   7.664   6.833   7.576  0.2607 -0.3610  0.3375
 4917SOL    HW215608   7.747   6.800   7.454  0.5545  0.3920  0.3287
 4918SOL     OW15609   2.728   6.523   5.998 -0.7170  0.5606  0.2545
 4918SOL    HW115610   2.650   6.519   5.943 -0.5466  1.1479 -0.0364
 4918SOL    HW215611   2.768   6.436   5.990 -0.3663  0.8252 -1.0344
 4919SOL     OW15612   3.354   5.301   7.264  0.1034 -0.2079  0.1194
 4919SOL    HW115613   3.321   5.231   7.206 -2.0173  1.1271 -0.3853
 4919SOL    HW215614   3.297   5.298   7.340  0.7370  0.2462  0.6196
 4920SOL     OW15615   6.955   2.244   6.378  0.6730 -0.0010 -0.4124
 4920SOL    HW115616   7.024   2.283   6.431 -0.4454  1.0720  0.2956
 4920SOL    HW215617   6.875   2.290   6.404 -0.6926 -2.5763  0.2741
 4921SOL     OW15618   7.147   1.217   2.751  0.6824  0.3651 -0.3410
 4921SOL    HW115619   7.173   1.227   2.659 -0.0094 -0.5965 -0.6585
 4921SOL    HW215620   7.208   1.152   2.786 -0.1735 -0.6368 -0.6364
 4922SOL     OW15621   1.529   4.096   3.011  0.1141  0.0013  0.2856
 4922SOL    HW115622   1.531   4.088   2.916 -0.5917  1.0547  0.1696
 4922SOL    HW215623   1.444   4.061   3.037 -0.1725  0.7927  0.4167
 4923SOL     OW15624   3.043   0.898   0.997 -0.2941  0.5092  0.3454
 4923SOL    HW115625   3.027   0.832   0.930  0.8676  0.7068 -0.1462
 4923SOL    HW215626   2.961   0.947   1.002  0.3690  2.2978 -2.9852
 4924SOL     OW15627   2.813   3.082   4.091 -0.1458 -0.1285  0.0366
 4924SOL    HW115628   2.825   3.010   4.152  1.4344 -0.5202 -0.6874
 4924SOL    HW215629   2.841   3.160   4.139  2.1178 -0.5726 -0.4795
 4925SOL     OW15630   4.812   3.766   1.169 -0.7353 -0.0624 -0.1132
 4925SOL    HW115631   4.873   3.721   1.110 -2.4845  0.4460 -2.4555
 4925SOL    HW215632   4.866   3.831   1.214  0.7216 -0.5669 -1.0461
 4926SOL     OW15633   5.436   0.501   7.734  0.2121  0.3743  0.3562
 4926SOL    HW115634   5.472   0.415   7.715 -0.8333  0.0535 -0.2414
 4926SOL    HW215635   5.425   0.502   7.829  0.3295 -0.1031  0.3767
 4927SOL     OW15636   1.667   7.894   6.638 -0.2877  0.0406  0.4326
 4927SOL    HW115637   1.748   7.934   6.669  0.2860 -1.1316  0.4993
 4927SOL    HW215638   1.620   7.870   6.717 -0.1613 -0.3276  0.3974
 4928SOL     OW15639   3.334   7.605   7.280 -0.4624 -0.0378  0.4072
 4928SOL    HW115640   3.337   7.509   7.279  0.3172 -0.0449  1.2563
 4928SOL    HW215641   3.271   7.626   7.350 -0.2211  0.0648  0.5946
 4929SOL     OW15642   4.747   7.234   3.919  0.9440  0.3482  0.0353
 4929SOL    HW115643   4.725   7.172   3.989  0.9513  0.4997  0.1731
 4929SOL    HW215644   4.663   7.272   3.894  0.7892 -0.5461 -0.8409
 4930SOL     OW15645   0.063   7.246   3.143  0.0497  0.2598 -0.7823
 4930SOL    HW115646   0.083   7.188   3.216  2.6503 -0.3742 -1.8906
 4930SOL    HW215647  -0.033   7.244   3.137 -0.1307 -1.1005  1.4311
 4931SOL     OW15648   1.601   0.102   1.878 -0.2834  0.3120  0.0190
 4931SOL    HW115649   1.693   0.126   1.893 -0.2390  0.6780 -0.8260
 4931SOL    HW215650   1.596   0.082   1.785 -0.6818 -1.4265  0.3798
 4932SOL     OW15651   2.077   7.375   7.193  0.2979 -0.1496 -0.4040
 4932SOL    HW115652   2.066   7.293   7.146  1.8498 -0.1199 -0.8668
 4932SOL    HW215653   2.165   7.405   7.170 -0.3601  1.8325 -0.5445
 4933SOL     OW15654   1.509   4.518   1.276  0.2655  0.9999 -0.3797
 4933SOL    HW115655   1.489   4.426   1.291  2.2545  0.8743  1.9709
 4933SOL    HW215656   1.593   4.518   1.230  0.0052  1.6615 -0.8857
 4934SOL     OW15657   4.527   6.316   0.117  0.3598  0.3345 -0.4358
 4934SOL    HW115658   4.528   6.269   0.201  2.8600  1.2567  0.1348
 4934SOL    HW215659   4.543   6.408   0.141  1.1842  0.6047 -1.8982
 4935SOL     OW15660   5.003   5.332   4.674  0.0519  0.4320  0.0006
 4935SOL    HW115661   4.962   5.313   4.758 -0.2816  0.1557 -0.2194
 4935SOL    HW215662   4.930   5.354   4.616  0.1775 -0.2983 -0.4576
 4936SOL     OW15663   2.646   7.627   4.086  0.0864  0.2554 -0.0779
 4936SOL    HW115664   2.740   7.610   4.083 -0.0592 -0.6014  0.1154
 4936SOL    HW215665   2.621   7.646   3.995  0.3052 -0.2899 -0.2536
 4937SOL     OW15666   3.941   6.824   7.923 -0.2209 -0.2670  0.0224
 4937SOL    HW115667   4.033   6.833   7.945 -0.3525 -1.1443  0.9832
 4937SOL    HW215668   3.938   6.755   7.857 -0.1019  0.4661 -0.7664
 4938SOL     OW15669   7.860   3.078   5.872  0.1016 -0.0640 -0.5426
 4938SOL    HW115670   7.767   3.100   5.868 -0.6297 -2.7227 -0.2516
 4938SOL    HW215671   7.901   3.136   5.808 -1.6156  1.6947 -0.1360
 4939SOL     OW15672   4.310   2.161   2.633 -0.7086  0.6149  0.0021
 4939SOL    HW115673   4.319   2.215   2.712 -1.5534  1.0343 -0.1739
 4939SOL    HW215674   4.389   2.181   2.582  0.8799 -1.1930  1.6109
 4940SOL     OW15675   7.831   5.102   1.381  0.1815 -0.4995  0.8462
 4940SOL    HW115676   7.749   5.132   1.420  0.1588  0.4995  0.0687
 4940SOL    HW215677   7.892   5.175   1.394 -0.1733  0.4270 -2.0396
 4941SOL     OW15678   7.475   0.605   5.658  0.3429  0.0361  0.1437
 4941SOL    HW115679   7.538   0.550   5.611  0.1801  0.3637 -0.4649
 4941SOL    HW215680   7.512   0.693   5.654  0.4808  0.0178  0.9011
 4942SOL     OW15681   7.470   6.699   1.467 -0.1196  0.0982  0.3688
 4942SOL    HW115682   7.400   6.655   1.516  0.5392 -2.2958 -0.6898
 4942SOL    HW215683   7.426   6.746   1.397 -0.7299 -0.9240  0.0524
 4943SOL     OW15684   3.437   4.028   1.924  0.3143 -0.0297  0.2664
 4943SOL    HW115685   3.401   4.116   1.915 -0.1684 -0.0959  1.3040
 4943SOL    HW215686   3.527   4.042   1.954  0.0295  0.1175  1.0814
 4944SOL     OW15687   3.477   4.763   0.731  0.0284  0.4302 -0.6134
 4944SOL    HW115688   3.570   4.766   0.707  0.2962 -2.3508 -0.2951
 4944SOL    HW215689   3.433   4.813   0.663  1.7191  1.5933 -0.9175
 4945SOL     OW15690   0.249   2.444   7.488  0.1541  0.3995 -0.5341
 4945SOL    HW115691   0.212   2.355   7.487 -1.1716  0.8845 -3.2638
 4945SOL    HW215692   0.184   2.496   7.536  1.1602 -0.1067  1.4942
 4946SOL     OW15693   5.976   4.966   2.642 -0.1354 -0.3629 -0.3236
 4946SOL    HW115694   5.974   5.034   2.709  0.1448  0.0221 -0.7026
 4946SOL    HW215695   5.901   4.910   2.664  0.3197 -0.6048  0.6741
 4947SOL     OW15696   5.200   4.315   0.726 -0.4692  0.0901 -0.3153
 4947SOL    HW115697   5.122   4.366   0.703 -1.1969  0.0168  1.8221
 4947SOL    HW215698   5.167   4.225   0.735 -0.4975  0.2854  2.0335
 4948SOL     OW15699   5.494   0.449   2.630  0.6474  0.5785 -0.1096
 4948SOL    HW115700   5.532   0.362   2.620 -0.7736 -0.3429  1.8237
 4948SOL    HW215701   5.570   0.507   2.635  1.7785 -0.8890  1.2294
 4949SOL     OW15702   5.148   0.115   1.407  0.7761 -0.3515 -0.1710
 4949SOL    HW115703   5.095   0.194   1.413 -1.1564 -1.5444 -0.5340
 4949SOL    HW215704   5.182   0.102   1.495 -1.8632 -1.0187  0.8234
 4950SOL     OW15705   2.602   2.503   0.165  0.5764  0.2930 -0.4033
 4950SOL    HW115706   2.615   2.424   0.218 -0.6948 -1.1253 -2.1006
 4950SOL    HW215707   2.541   2.556   0.217  2.8949  1.1443  1.6446
 4951SOL     OW15708   1.973   6.424   3.712 -0.0156  0.2659  0.1090
 4951SOL    HW115709   1.935   6.431   3.625 -1.0513 -0.1115  0.5127
 4951SOL    HW215710   1.898   6.421   3.771  0.5819 -1.4615  0.8758
 4952SOL     OW15711   4.171   6.254   1.029 -0.2929 -0.7215  0.1495
 4952SOL    HW115712   4.133   6.184   1.083 -1.6273 -0.4606 -0.4058
 4952SOL    HW215713   4.095   6.299   0.993  0.5704  0.3279 -0.3899
 4953SOL     OW15714   3.349   6.733   3.125 -0.1064 -0.2275  0.3394
 4953SOL    HW115715   3.399   6.667   3.077 -0.5293 -0.0706 -0.3283
 4953SOL    HW215716   3.396   6.815   3.108 -1.3081  0.1504 -1.4051
 4954SOL     OW15717   5.364   0.063   6.291  0.1833  0.9031 -0.5293
 4954SOL    HW115718   5.438   0.061   6.230 -1.4898 -0.4875 -2.6484
 4954SOL    HW215719   5.299   0.118   6.248 -0.5362  1.0349  0.6817
 4955SOL     OW15720   4.127   5.315   2.760 -0.2749 -0.6703 -0.3544
 4955SOL    HW115721   4.101   5.376   2.829  3.5021 -2.1697  2.8246
 4955SOL    HW215722   4.186   5.366   2.704 -1.0443 -0.1874 -0.7380
 4956SOL     OW15723   4.888   6.951   0.774 -0.5907  0.0980  0.2406
 4956SOL    HW115724   4.901   7.024   0.714 -1.2250 -0.4248 -0.5642
 4956SOL    HW215725   4.798   6.923   0.758 -0.7746 -0.0451  1.4605
 4957SOL     OW15726   6.370   7.219   2.241  0.2020 -0.0852  0.1856
 4957SOL    HW115727   6.383   7.128   2.214  2.4715  0.7330 -1.8167
 4957SOL    HW215728   6.443   7.237   2.301 -0.3220  0.4060  0.6908
 4958SOL     OW15729   5.597   5.621   6.457 -0.6241  0.7531  0.1126
 4958SOL    HW115730   5.536   5.681   6.414 -0.0421  1.5909  0.4361
 4958SOL    HW215731   5.679   5.631   6.408 -0.1851  1.1250  0.9042
 4959SOL     OW15732   4.567   5.519   7.744  0.3420  0.4676 -0.3783
 4959SOL    HW115733   4.649   5.494   7.786  0.1082 -0.9188 -0.6973
 4959SOL    HW215734   4.508   5.445   7.759 -0.6695  1.1837 -0.6634
 4960SOL     OW15735   6.398   1.714   3.555 -0.4166 -0.1076  0.1264
 4960SOL    HW115736   6.408   1.801   3.516  0.8806 -0.1159  0.3830
 4960SOL    HW215737   6.488   1.680   3.561 -0.8556 -1.2605  0.4967
 4961SOL     OW15738   5.153   5.391   4.464 -0.1447  0.2002  0.2896
 4961SOL    HW115739   5.216   5.441   4.516 -0.9437  1.5007  0.0636
 4961SOL    HW215740   5.089   5.360   4.529  0.1318 -0.1858  0.3789
 4962SOL     OW15741   3.266   6.072   5.328 -0.0505 -0.2182  0.3486
 4962SOL    HW115742   3.175   6.054   5.307  0.0224 -0.9854  0.6411
 4962SOL    HW215743   3.316   6.005   5.280  0.4508  0.8868 -0.7140
 4963SOL     OW15744   5.776   4.529   5.940 -0.3638  0.1995  0.6328
 4963SOL    HW115745   5.778   4.437   5.912  0.7858 -0.1170  1.6332
 4963SOL    HW215746   5.765   4.525   6.035  2.0733  0.9549  1.0223
 4964SOL     OW15747   1.827   7.501   3.995  0.2294 -0.0943  0.1635
 4964SOL    HW115748   1.735   7.528   3.990  0.0173 -0.6935  0.7018
 4964SOL    HW215749   1.858   7.506   3.904 -0.5083 -0.4606 -0.1159
 4965SOL     OW15750   1.724   6.754   7.801 -0.1062 -0.1885 -0.5333
 4965SOL    HW115751   1.717   6.774   7.708 -0.4984  0.9858 -0.2766
 4965SOL    HW215752   1.649   6.698   7.820  0.3844 -1.0259 -1.0664
 4966SOL     OW15753   1.916   7.141   6.618  0.0915 -0.2835  0.2446
 4966SOL    HW115754   1.877   7.100   6.541  0.6892 -1.8103  0.7221
 4966SOL    HW215755   1.844   7.189   6.658 -0.7564 -1.2148 -0.1173
 4967SOL     OW15756   5.982   0.418   3.810  0.2120  0.1204 -0.2362
 4967SOL    HW115757   5.943   0.337   3.841 -2.4208  1.4398  0.2473
 4967SOL    HW215758   5.995   0.405   3.716 -0.7075 -0.6665 -0.2610
 4968SOL     OW15759   7.780   3.093   3.508  0.3848  0.4356  0.6930
 4968SOL    HW115760   7.690   3.124   3.515  0.3560  0.1024  2.1925
 4968SOL    HW215761   7.824   3.131   3.584  0.9255 -1.2369  1.2649
 4969SOL     OW15762   1.732   7.233   2.826  0.6694 -0.7915  0.3196
 4969SOL    HW115763   1.738   7.243   2.921  0.8736  1.1767  0.1454
 4969SOL    HW215764   1.680   7.308   2.797  2.4820 -0.0531 -1.3067
 4970SOL     OW15765   0.095   3.721   0.494 -0.1023  0.1437 -0.3932
 4970SOL    HW115766   0.103   3.715   0.399  0.6085 -1.4312 -0.2804
 4970SOL    HW215767   0.001   3.729   0.510 -0.3079 -0.4266 -1.2210
 4971SOL     OW15768   3.618   0.982   5.173 -0.3983  0.0248 -0.0353
 4971SOL    HW115769   3.551   0.987   5.241 -1.1177  0.4511 -0.7546
 4971SOL    HW215770   3.634   0.888   5.162 -1.2713 -0.1089 -0.2261
 4972SOL     OW15771   2.993   5.849   6.549  0.4055  0.1710  0.5671
 4972SOL    HW115772   2.994   5.764   6.504 -0.6892 -0.1298  1.0782
 4972SOL    HW215773   2.977   5.827   6.641  0.7718  0.8974  0.8076
 4973SOL     OW15774   0.156   7.968   6.893  0.2983  0.2299 -0.4360
 4973SOL    HW115775   0.175   7.893   6.837 -2.2411  0.7149 -2.1254
 4973SOL    HW215776   0.062   7.963   6.910  0.0040  3.0290 -0.6593
 4974SOL     OW15777   6.892   1.317   5.707  0.0118  0.5108 -0.0087
 4974SOL    HW115778   6.821   1.268   5.666  1.5451 -0.3815 -1.7282
 4974SOL    HW215779   6.891   1.403   5.664 -0.7769  0.9692  0.8751
 4975SOL     OW15780   1.265   5.626   4.547 -0.1368  0.1314  0.3629
 4975SOL    HW115781   1.288   5.694   4.611  0.0387 -1.1082  1.6899
 4975SOL    HW215782   1.350   5.598   4.512 -0.2881  1.3809 -1.0721
 4976SOL     OW15783   0.515   6.467   2.225  0.1615 -0.0203  0.0243
 4976SOL    HW115784   0.449   6.510   2.280  1.4724  0.4908  1.2757
 4976SOL    HW215785   0.598   6.484   2.270  1.0802 -1.2043 -1.1462
 4977SOL     OW15786   7.062   2.005   2.358  0.4924 -0.0652 -0.2720
 4977SOL    HW115787   7.005   2.048   2.423 -1.3123  0.6098 -2.1921
 4977SOL    HW215788   7.126   2.072   2.335 -0.1100  0.3893 -0.6504
 4978SOL     OW15789   3.707   2.401   1.832  0.1496  0.0719 -0.0193
 4978SOL    HW115790   3.612   2.413   1.830  0.2327  0.6468 -0.8368
 4978SOL    HW215791   3.729   2.406   1.925 -0.2516  3.1757  0.0409
 4979SOL     OW15792   6.275   4.745   4.365  0.0315  0.1014  0.2993
 4979SOL    HW115793   6.284   4.820   4.423  1.5674 -0.5404  0.9479
 4979SOL    HW215794   6.298   4.779   4.278 -0.3474  0.6142  0.3940
 4980SOL     OW15795   2.575   0.500   3.619  0.2995  0.2634 -0.3667
 4980SOL    HW115796   2.587   0.426   3.559 -3.0110 -0.0321 -0.8729
 4980SOL    HW215797   2.627   0.571   3.581 -0.3177 -0.4243 -2.6599
 4981SOL     OW15798   6.669   0.419   2.569  0.3181 -0.2941  0.0070
 4981SOL    HW115799   6.637   0.371   2.493  2.7037 -2.7484  0.4060
 4981SOL    HW215800   6.693   0.352   2.632 -1.2055  1.6409  2.8784
 4982SOL     OW15801   7.162   3.773   6.690 -0.3275  0.2621  0.0128
 4982SOL    HW115802   7.150   3.684   6.725  1.1853 -0.7617 -1.9192
 4982SOL    HW215803   7.109   3.775   6.611 -1.3392  1.5552  0.6771
 4983SOL     OW15804   6.629   7.428   0.756 -0.1816  0.2644  0.3456
 4983SOL    HW115805   6.590   7.458   0.838 -1.8541 -0.9596  0.0477
 4983SOL    HW215806   6.556   7.425   0.694  0.4953 -1.5127 -0.4223
 4984SOL     OW15807   2.520   6.396   0.121  0.5561 -0.3504  0.0184
 4984SOL    HW115808   2.605   6.407   0.078  0.1070 -1.3480 -1.1631
 4984SOL    HW215809   2.457   6.438   0.063  0.0422 -0.9936  0.0972
 4985SOL     OW15810   6.312   1.851   1.736  0.2731 -0.2156 -0.5188
 4985SOL    HW115811   6.238   1.909   1.717  0.2420 -0.4914 -1.2564
 4985SOL    HW215812   6.297   1.774   1.681  0.7499 -0.5688 -0.1575
 4986SOL     OW15813   5.648   1.389   2.765  0.0110  0.5244  0.1966
 4986SOL    HW115814   5.677   1.338   2.689 -1.1810  0.1569 -0.0286
 4986SOL    HW215815   5.704   1.466   2.764  1.9835 -0.8174  0.6375
 4987SOL     OW15816   4.337   0.678   3.889 -0.0859  0.5781  0.3555
 4987SOL    HW115817   4.317   0.759   3.843  2.0906  1.8801  1.5028
 4987SOL    HW215818   4.326   0.699   3.982  1.0178 -0.2314  0.7003
 4988SOL     OW15819   7.943   0.837   6.468 -0.5542  0.1621 -0.7118
 4988SOL    HW115820   7.861   0.806   6.429 -0.0822 -1.8639 -0.2009
 4988SOL    HW215821   7.916   0.912   6.522 -2.1626 -0.7356 -0.1849
 4989SOL     OW15822   5.661   6.239   1.841 -0.4924  0.0146 -0.0515
 4989SOL    HW115823   5.625   6.281   1.762 -0.4635  0.5660  0.2244
 4989SOL    HW215824   5.587   6.192   1.879 -0.8308  0.8080  0.2890
 4990SOL     OW15825   3.397   7.962   1.057 -0.2717 -0.0719  0.6057
 4990SOL    HW115826   3.424   8.035   1.113 -0.9034  2.6239 -2.3254
 4990SOL    HW215827   3.309   7.939   1.088  0.0903  0.0989  1.8092
 4991SOL     OW15828   6.961   5.967   6.851 -0.6792  0.0159 -0.3226
 4991SOL    HW115829   6.957   5.913   6.930 -2.1992  0.1571 -0.2810
 4991SOL    HW215830   6.892   5.932   6.794 -1.0029  1.2379 -0.7181
 4992SOL     OW15831   5.972   0.375   1.113 -0.1201  0.5030 -0.0530
 4992SOL    HW115832   5.946   0.291   1.152 -0.1965  0.5465 -0.0114
 4992SOL    HW215833   6.029   0.350   1.040 -2.0472  0.3019 -1.5728
 4993SOL     OW15834   3.993   0.934   5.574  0.1844  0.2611  0.1291
 4993SOL    HW115835   3.976   0.957   5.482  0.3134 -0.4997 -0.0953
 4993SOL    HW215836   4.055   0.862   5.569 -1.0189 -0.8621  0.7675
 4994SOL     OW15837   1.071   7.208   4.764 -0.2247 -0.1331  0.5172
 4994SOL    HW115838   1.128   7.169   4.831  1.4641  0.1332 -0.6917
 4994SOL    HW215839   1.051   7.295   4.798  1.6178  0.4635  0.1985
 4995SOL     OW15840   6.460   5.504   7.079 -0.1261 -0.0628 -0.1466
 4995SOL    HW115841   6.414   5.498   7.163 -0.4549  1.6273 -0.1827
 4995SOL    HW215842   6.547   5.537   7.101 -0.2261  0.4247 -0.4589
 4996SOL     OW15843   6.447   0.770   5.381  0.4948 -0.2575 -0.4177
 4996SOL    HW115844   6.493   0.729   5.307  1.5671  0.3473 -0.1051
 4996SOL    HW215845   6.363   0.798   5.344  0.6919 -0.6733 -1.2084
 4997SOL     OW15846   2.697   2.831   7.991 -0.4964  0.4487 -0.2386
 4997SOL    HW115847   2.617   2.855   7.944 -0.7752 -0.5634 -0.3006
 4997SOL    HW215848   2.722   2.911   8.038 -0.2531  1.4854 -2.0230
 4998SOL     OW15849   1.798   6.522   4.711 -0.0779  0.0403 -0.0606
 4998SOL    HW115850   1.760   6.483   4.632 -0.6482 -0.6738  0.5634
 4998SOL    HW215851   1.734   6.587   4.739  0.0293  0.1425 -0.0467
 4999SOL     OW15852   1.004   0.356   6.550 -0.1586  0.0197  0.2019
 4999SOL    HW115853   1.001   0.319   6.462  1.9873 -0.5557  0.3305
 4999SOL    HW215854   0.922   0.326   6.591 -0.3456 -1.2246 -1.0039
 5000SOL     OW15855   2.865   0.230   0.221 -0.3702  0.2529  0.7129
 5000SOL    HW115856   2.921   0.300   0.187  1.0935 -0.5323  1.4173
 5000SOL    HW215857   2.821   0.194   0.144  0.2372  0.7657  0.1147
 5001SOL     OW15858   3.362   6.185   3.739 -0.2746 -0.3279  0.4573
 5001SOL    HW115859   3.315   6.102   3.745 -0.4441 -0.2866 -0.1559
 5001SOL    HW215860   3.395   6.187   3.649  0.6326 -0.2084  0.7909
 5002SOL     OW15861   2.751   5.597   3.631 -0.6943  0.5596 -0.7769
 5002SOL    HW115862   2.717   5.543   3.702 -0.6450  0.5883 -0.7313
 5002SOL    HW215863   2.739   5.543   3.552 -2.9637  1.4679 -1.1166
 5003SOL     OW15864   6.443   6.131   5.516 -0.2303 -0.1292 -0.2815
 5003SOL    HW115865   6.357   6.107   5.551  0.4833  0.7061  2.3196
 5003SOL    HW215866   6.505   6.099   5.582  1.4079  0.1396 -1.6139
 5004SOL     OW15867   6.648   0.175   4.807  0.2846 -0.0558 -0.4237
 5004SOL    HW115868   6.687   0.101   4.853  2.0763  0.9905 -0.1624
 5004SOL    HW215869   6.577   0.204   4.865  0.6962 -0.5019  0.3178
 5005SOL     OW15870   5.024   0.422   4.308 -0.4430  0.0690 -0.0822
 5005SOL    HW115871   5.019   0.513   4.336 -1.7691  0.1792 -0.6205
 5005SOL    HW215872   5.101   0.388   4.353  0.3044  1.5529 -0.1826
 5006SOL     OW15873   7.905   4.331   0.055  0.1392 -0.4473  0.3747
 5006SOL    HW115874   7.906   4.238   0.077 -1.8500 -1.0065 -1.5499
 5006SOL    HW215875   7.813   4.352   0.042  0.6199  1.5693 -0.1267
 5007SOL     OW15876   7.298   5.299   5.006  0.2026 -0.4010 -0.3974
 5007SOL    HW115877   7.288   5.290   5.101 -0.4847 -1.6738 -0.5667
 5007SOL    HW215878   7.213   5.333   4.977 -0.0708 -1.3175 -0.6988
 5008SOL     OW15879   7.811   2.030   1.841  0.4982  0.3328  0.2881
 5008SOL    HW115880   7.871   1.980   1.896 -0.2805 -0.1896  0.6765
 5008SOL    HW215881   7.857   2.040   1.757 -0.0001 -2.5724 -0.4301
 5009SOL     OW15882   1.004   6.987   5.056  0.2906 -0.2978  0.2727
 5009SOL    HW115883   1.089   7.028   5.037  1.3444 -2.1365  0.7250
 5009SOL    HW215884   0.951   7.004   4.979  1.4681 -0.0857 -0.5158
 5010SOL     OW15885   5.283   5.626   7.275 -0.3416  0.2753  0.2294
 5010SOL    HW115886   5.324   5.707   7.244 -1.1885  0.0777 -1.5302
 5010SOL    HW215887   5.256   5.581   7.195 -0.9310 -1.2042  1.2236
 5011SOL     OW15888   4.548   4.230   7.826  0.2654  0.3021  0.2685
 5011SOL    HW115889   4.617   4.291   7.854 -0.7729  0.7468  2.0152
 5011SOL    HW215890   4.555   4.157   7.888  0.4126 -0.5897 -0.7688
 5012SOL     OW15891   6.493   5.753   1.614  0.3297 -0.2697  0.8318
 5012SOL    HW115892   6.468   5.750   1.521  0.9106  0.5969  0.6452
 5012SOL    HW215893   6.410   5.740   1.661 -0.6852  3.2202  0.2315
 5013SOL     OW15894   1.113   6.689   6.069 -0.3044  0.5689 -0.0068
 5013SOL    HW115895   1.044   6.665   6.131  0.0679 -0.0935  0.1633
 5013SOL    HW215896   1.071   6.685   5.983 -1.0270  2.2279  0.2273
 5014SOL     OW15897   3.064   5.775   0.063  0.3488 -0.2160 -0.1078
 5014SOL    HW115898   3.144   5.728   0.085 -0.6956 -1.1501  1.8899
 5014SOL    HW215899   3.063   5.851   0.121  1.1055  1.3752 -2.0492
 5015SOL     OW15900   6.632   7.459   2.265 -0.2090 -0.1213 -0.3575
 5015SOL    HW115901   6.696   7.456   2.336  0.2348 -0.4743 -0.7682
 5015SOL    HW215902   6.548   7.470   2.309  0.0768 -0.2212  0.2157
 5016SOL     OW15903   1.361   7.573   6.974 -0.2801  0.3819  0.3580
 5016SOL    HW115904   1.287   7.514   6.991 -0.5379  0.2761 -1.0492
 5016SOL    HW215905   1.332   7.658   7.006 -0.2747 -0.0302  1.5200
 5017SOL     OW15906   5.261   6.250   2.849 -0.2847 -0.1473  0.3598
 5017SOL    HW115907   5.200   6.318   2.876 -1.0821 -0.1103 -1.4187
 5017SOL    HW215908   5.207   6.187   2.802  0.8772 -0.6509 -0.3395
 5018SOL     OW15909   6.537   1.081   2.451  0.2756 -0.2793  0.2628
 5018SOL    HW115910   6.540   1.177   2.455  1.4436 -0.3177  0.6465
 5018SOL    HW215911   6.606   1.057   2.391 -0.2388 -0.8845 -0.1006
 5019SOL     OW15912   2.995   2.930   2.213  0.5437  0.1512  0.3251
 5019SOL    HW115913   3.088   2.934   2.190  0.2080 -0.9950 -1.4468
 5019SOL    HW215914   2.955   2.997   2.157  0.0690 -0.7453 -0.4359
 5020SOL     OW15915   2.505   0.521   6.148 -0.2687  0.4705  0.1003
 5020SOL    HW115916   2.492   0.595   6.090  0.7243  1.2469  0.8237
 5020SOL    HW215917   2.540   0.559   6.229  2.1989 -0.9477 -0.1980
 5021SOL     OW15918   0.361   7.380   4.399 -1.1055  0.3089  0.1243
 5021SOL    HW115919   0.452   7.353   4.395 -1.4847 -0.8915 -1.2927
 5021SOL    HW215920   0.321   7.321   4.464 -1.2517 -0.4423 -0.6307
 5022SOL     OW15921   1.887   6.707   1.536 -0.0286 -0.1838  0.2699
 5022SOL    HW115922   1.924   6.696   1.449  0.7190 -1.3371  0.7082
 5022SOL    HW215923   1.797   6.734   1.520  0.3202  0.3777 -0.8443
 5023SOL     OW15924   4.032   4.555   6.867 -0.5115  0.2212  0.1020
 5023SOL    HW115925   3.943   4.572   6.896  0.0309 -1.1725  2.9342
 5023SOL    HW215926   4.087   4.583   6.940  1.1915 -1.1053 -0.5866
 5024SOL     OW15927   5.790   1.021   6.961 -0.1960  0.0025 -0.7640
 5024SOL    HW115928   5.884   1.039   6.956 -0.0489 -0.1509  0.8657
 5024SOL    HW215929   5.781   0.933   6.924  0.4400 -0.3281 -0.1563
 5025SOL     OW15930   4.714   7.130   2.619 -0.0535 -0.3879 -0.4883
 5025SOL    HW115931   4.623   7.152   2.635 -0.3509 -2.0638  0.3525
 5025SOL    HW215932   4.711   7.050   2.566  0.9273 -0.5746 -0.2916
 5026SOL     OW15933   3.689   4.207   4.395 -0.3245  0.0582 -0.1186
 5026SOL    HW115934   3.612   4.175   4.347 -0.1289 -0.0031 -0.4005
 5026SOL    HW215935   3.675   4.178   4.485 -0.2944 -0.5697 -0.3098
 5027SOL     OW15936   7.613   3.977   3.368  0.0990  0.5585  0.3404
 5027SOL    HW115937   7.650   3.951   3.453  1.4803  0.0737 -0.3768
 5027SOL    HW215938   7.649   3.914   3.306 -0.3590  1.3109 -0.7108
 5028SOL     OW15939   7.656   5.629   4.182 -0.6402 -0.7353  0.7795
 5028SOL    HW115940   7.582   5.669   4.137 -0.1339  0.0917  0.6502
 5028SOL    HW215941   7.731   5.647   4.125  0.2501  1.4470  2.4741
 5029SOL     OW15942   4.790   5.344   5.366 -0.1198 -0.1860  0.1808
 5029SOL    HW115943   4.795   5.248   5.364 -0.3531 -0.2035 -1.8811
 5029SOL    HW215944   4.700   5.364   5.337 -0.5295  0.6623  1.9101
 5030SOL     OW15945   6.510   1.144   7.607 -0.1716  0.4911  0.3101
 5030SOL    HW115946   6.553   1.220   7.648  1.1623 -1.3470  2.5273
 5030SOL    HW215947   6.466   1.100   7.680 -2.4706  0.0666 -1.2542
 5031SOL     OW15948   6.050   3.803   6.538  0.2523 -0.2387  0.3818
 5031SOL    HW115949   5.981   3.845   6.486  0.1655 -0.0902  0.6135
 5031SOL    HW215950   6.005   3.773   6.618  0.0886 -1.6993 -0.2192
 5032SOL     OW15951   7.447   5.178   0.472 -0.3853  0.0319 -0.0110
 5032SOL    HW115952   7.367   5.220   0.502 -1.2718 -1.6431  0.0837
 5032SOL    HW215953   7.467   5.221   0.388 -2.9220 -1.2999 -1.4000
 5033SOL     OW15954   6.069   6.270   1.745 -0.5331  0.1917 -0.5162
 5033SOL    HW115955   6.125   6.195   1.761 -3.1187 -1.7370  0.2292
 5033SOL    HW215956   6.039   6.259   1.655 -2.5474 -0.9687  0.2234
 5034SOL     OW15957   2.030   6.284   4.453  0.0137 -0.0929 -0.1967
 5034SOL    HW115958   1.981   6.324   4.381  1.1612  0.9870 -0.4129
 5034SOL    HW215959   2.062   6.358   4.504  0.4947 -0.8104  0.5619
 5035SOL     OW15960   3.631   2.553   4.046 -0.3977 -0.8613 -0.0133
 5035SOL    HW115961   3.677   2.611   3.986 -0.4570 -1.8516 -1.0388
 5035SOL    HW215962   3.547   2.536   4.004 -1.4538  0.3246  1.4917
 5036SOL     OW15963   4.023   1.499   7.201 -0.1128  0.1720 -0.2143
 5036SOL    HW115964   4.062   1.412   7.209 -0.4025  0.1686  1.8742
 5036SOL    HW215965   3.952   1.488   7.137  1.1190 -0.6159 -1.4887
 5037SOL     OW15966   4.220   6.078   5.449 -0.1292  0.3709  0.0612
 5037SOL    HW115967   4.215   6.165   5.489  0.6886  0.1837  0.5767
 5037SOL    HW215968   4.313   6.064   5.434 -0.3316 -0.0187 -0.9181
 5038SOL     OW15969   6.445   5.032   3.548 -0.3507  0.6013 -0.0816
 5038SOL    HW115970   6.509   4.968   3.517 -0.8608  0.7276 -1.5001
 5038SOL    HW215971   6.379   4.979   3.593  0.9976  0.5284  1.9518
 5039SOL     OW15972   5.619   3.191   6.341 -0.2702  0.2137 -0.0784
 5039SOL    HW115973   5.570   3.111   6.318  0.5334 -0.2579 -0.1779
 5039SOL    HW215974   5.574   3.261   6.295 -1.4652 -0.0586  0.6239
 5040SOL     OW15975   6.783   1.129   1.258  0.1402  0.2980 -0.4021
 5040SOL    HW115976   6.862   1.177   1.232  0.6124 -0.6079 -0.6785
 5040SOL    HW215977   6.714   1.165   1.202  0.1330  1.7744  0.5141
 5041SOL     OW15978   4.214   4.244   1.769  0.0275  0.1595  0.1774
 5041SOL    HW115979   4.247   4.218   1.683 -0.8940 -1.8199  0.3642
 5041SOL    HW215980   4.119   4.245   1.759 -0.0338  1.8657  0.6812
 5042SOL     OW15981   4.611   4.965   5.484 -0.2614 -0.0956 -0.7426
 5042SOL    HW115982   4.585   4.895   5.425  1.0066 -0.9590 -0.3377
 5042SOL    HW215983   4.606   4.925   5.571 -2.1689  1.1724 -0.2160
 5043SOL     OW15984   3.360   4.536   1.689 -0.1720 -0.1961  0.0685
 5043SOL    HW115985   3.332   4.518   1.599  0.6614 -2.1510  0.1557
 5043SOL    HW215986   3.286   4.508   1.743  0.6455 -2.5104  0.1280
 5044SOL     OW15987   6.969   3.316   0.623  0.7792  0.1091  0.1200
 5044SOL    HW115988   6.993   3.236   0.577  1.5888 -0.0065  0.7311
 5044SOL    HW215989   6.930   3.286   0.705  0.6816  0.3373  0.1594
 5045SOL     OW15990   1.415   2.159   3.093  0.1038  0.0870 -0.3942
 5045SOL    HW115991   1.321   2.145   3.100  0.1855 -0.4460 -0.3552
 5045SOL    HW215992   1.454   2.084   3.137  0.5504  0.1539 -0.6719
 5046SOL     OW15993   0.063   0.028   3.480  0.1762 -0.5532 -0.1741
 5046SOL    HW115994   0.134   0.065   3.428  1.3430 -1.0937  0.9811
 5046SOL    HW215995  -0.017   0.055   3.434  1.0990  0.4018 -1.2844
 5047SOL     OW15996   3.053   3.986   7.973 -0.4072  0.0500  0.2709
 5047SOL    HW115997   3.109   3.982   7.896  1.7393  0.2939  1.7468
 5047SOL    HW215998   2.984   3.922   7.955 -0.1666  0.3295 -1.9489
 5048SOL     OW15999   6.610   2.649   3.600 -0.5087 -0.2346 -0.3499
 5048SOL    HW116000   6.680   2.621   3.541 -2.0315  2.5066 -3.8126
 5048SOL    HW216001   6.569   2.568   3.628  0.8446 -1.7523 -2.4368
 5049SOL     OW16002   6.066   5.807   3.656 -1.0121  0.2611  0.8790
 5049SOL    HW116003   5.981   5.852   3.665 -1.4166 -0.3674  0.2845
 5049SOL    HW216004   6.081   5.768   3.742 -0.3392  2.0367  1.6174
 5050SOL     OW16005   6.136   2.677   5.565 -0.0677 -0.1862 -0.4047
 5050SOL    HW116006   6.133   2.739   5.492  0.0051 -1.4261 -1.5126
 5050SOL    HW216007   6.228   2.675   5.591 -0.3930  1.7594  1.1222
 5051SOL     OW16008   5.569   0.564   6.295  0.0832 -0.7197  0.2921
 5051SOL    HW116009   5.577   0.657   6.273  1.1959 -0.1829  2.6091
 5051SOL    HW216010   5.521   0.525   6.222 -0.4797  1.6839 -0.6931
 5052SOL     OW16011   2.653   7.215   6.538 -0.4691  0.6905  0.0684
 5052SOL    HW116012   2.613   7.295   6.571  0.9278  1.4327  0.0134
 5052SOL    HW216013   2.704   7.242   6.462 -3.0001 -0.8562 -2.4102
 5053SOL     OW16014   2.021   6.206   5.116  0.0116 -0.4660  0.1002
 5053SOL    HW116015   1.999   6.287   5.070 -0.3722  0.7555  2.2995
 5053SOL    HW216016   2.116   6.209   5.124 -0.0905  0.3865  1.1911
 5054SOL     OW16017   7.119   1.848   2.672 -0.1541  0.3582  0.5310
 5054SOL    HW116018   7.044   1.789   2.667  0.2716 -0.2790  1.5121
 5054SOL    HW216019   7.108   1.907   2.597 -0.2294 -1.3614 -0.8596
 5055SOL     OW16020   6.242   1.755   6.291  0.0448 -0.2462 -0.0338
 5055SOL    HW116021   6.280   1.684   6.343 -0.1597 -1.3448 -1.3377
 5055SOL    HW216022   6.308   1.772   6.224 -0.2085  0.3322 -0.1348
 5056SOL     OW16023   2.498   2.236   7.489  0.3001 -0.0501 -0.2955
 5056SOL    HW116024   2.446   2.157   7.475  1.3785 -0.8405  0.0462
 5056SOL    HW216025   2.437   2.298   7.529 -0.4856 -0.8105 -0.2917
 5057SOL     OW16026   5.774   6.819   6.775  0.5062  0.5014  0.7254
 5057SOL    HW116027   5.715   6.894   6.767  1.1429  1.0121  0.7004
 5057SOL    HW216028   5.781   6.804   6.869  1.3299  1.2586  0.7976
 5058SOL     OW16029   7.991   3.281   3.324  0.1836  0.0263 -0.0781
 5058SOL    HW116030   8.008   3.245   3.411 -0.3393  0.3182  0.1488
 5058SOL    HW216031   8.012   3.374   3.331 -1.5891  0.4481  0.2690
 5059SOL     OW16032   0.788   7.234   5.926  0.4967  0.0586 -0.2558
 5059SOL    HW116033   0.771   7.162   5.987  0.2040  1.1695  1.0220
 5059SOL    HW216034   0.709   7.288   5.930  0.5576  0.2679 -1.4866
 5060SOL     OW16035   1.255   7.889   7.955 -0.2569  0.1160 -0.0361
 5060SOL    HW116036   1.223   7.966   7.907 -0.0669 -0.3696 -0.9618
 5060SOL    HW216037   1.226   7.814   7.903 -0.2322 -0.4288  0.7327
 5061SOL     OW16038   3.011   0.904   7.315 -0.4528 -0.0328  0.6368
 5061SOL    HW116039   2.992   0.858   7.233 -1.1483  0.1224  0.7008
 5061SOL    HW216040   3.046   0.837   7.373 -1.6790 -0.5486  0.8103
 5062SOL     OW16041   4.323   2.591   3.416  0.2839 -0.7126  0.8797
 5062SOL    HW116042   4.398   2.636   3.377 -0.8826  0.1776 -0.4085
 5062SOL    HW216043   4.249   2.650   3.401 -1.1364 -2.6362 -0.0822
 5063SOL     OW16044   1.971   1.404   4.369  0.4140  0.2325  0.1087
 5063SOL    HW116045   2.050   1.451   4.395  0.7298  1.1138 -2.1832
 5063SOL    HW216046   1.982   1.388   4.275 -1.3921 -1.1158  0.0695
 5064SOL     OW16047   3.722   3.631   7.973  0.1437  0.1897 -0.5525
 5064SOL    HW116048   3.754   3.560   7.918  0.9081  2.2071 -2.8466
 5064SOL    HW216049   3.631   3.644   7.946 -0.4933 -0.8197  0.9333
 5065SOL     OW16050   7.593   2.440   2.040 -0.2210  0.0406 -0.0196
 5065SOL    HW116051   7.668   2.467   2.093 -0.0150 -2.6744  1.2192
 5065SOL    HW216052   7.631   2.395   1.965 -0.5929  0.6475 -0.5830
 5066SOL     OW16053   1.439   4.908   7.540  0.0632 -0.1699  0.2050
 5066SOL    HW116054   1.356   4.926   7.584  0.1254 -0.8559  0.6216
 5066SOL    HW216055   1.426   4.823   7.498  0.6227 -0.3880  0.4597
 5067SOL     OW16056   0.114   6.765   7.403  0.2187  0.3312 -0.5273
 5067SOL    HW116057   0.088   6.773   7.495  0.0389 -0.7265 -0.4658
 5067SOL    HW216058   0.176   6.836   7.389 -0.4285  1.0576  0.1631
 5068SOL     OW16059   5.834   5.917   1.277  0.8932 -0.0671  0.3295
 5068SOL    HW116060   5.880   5.999   1.260  0.0518  0.3128 -0.1801
 5068SOL    HW216061   5.890   5.849   1.239  0.7105  0.4518 -0.8849
 5069SOL     OW16062   2.935   4.809   5.957  0.8057  0.6801  0.3376
 5069SOL    HW116063   3.003   4.742   5.956  0.6479  0.4972 -1.2313
 5069SOL    HW216064   2.862   4.770   6.004  1.1296  0.1783  0.4246
 5070SOL     OW16065   6.134   7.358   7.767 -0.3788 -0.1007  0.2005
 5070SOL    HW116066   6.197   7.388   7.833 -0.5122  1.0722 -0.1801
 5070SOL    HW216067   6.167   7.394   7.684  0.2767 -2.2712 -0.5607
 5071SOL     OW16068   3.015   3.051   6.829 -0.0548  0.1623  0.3894
 5071SOL    HW116069   2.941   2.997   6.800  0.3096 -1.4997  2.2728
 5071SOL    HW216070   3.085   3.029   6.768 -0.3263 -0.4630  0.2877
 5072SOL     OW16071   7.802   7.911   0.149 -0.5480 -0.1962 -0.1295
 5072SOL    HW116072   7.714   7.904   0.113 -0.6428  3.4046 -0.9202
 5072SOL    HW216073   7.794   7.971   0.223  0.9149 -1.6504  1.2983
 5073SOL     OW16074   6.392   1.121   0.710  0.2136 -0.1320 -0.1797
 5073SOL    HW116075   6.440   1.075   0.779 -0.2873 -1.9332 -0.9810
 5073SOL    HW216076   6.385   1.211   0.742  0.6037 -0.7501  1.7852
 5074SOL     OW16077   5.908   2.492   6.236  0.3351 -0.3665  0.3993
 5074SOL    HW116078   5.935   2.568   6.185 -1.2338 -1.8985 -3.0847
 5074SOL    HW216079   5.988   2.442   6.249  0.8062  0.0691 -0.6826
 5075SOL     OW16080   3.601   7.487   3.923 -0.3914 -0.5308  0.6405
 5075SOL    HW116081   3.555   7.491   3.839  0.2849  0.8655  0.2977
 5075SOL    HW216082   3.681   7.439   3.903 -0.0414  0.1458  0.3659
 5076SOL     OW16083   4.495   5.397   4.387  0.2751  0.2584  0.1959
 5076SOL    HW116084   4.475   5.355   4.470 -0.3822  0.0987 -0.0392
 5076SOL    HW216085   4.410   5.424   4.352  0.6455  1.5272  0.2032
 5077SOL     OW16086   6.831   1.289   5.083 -0.3340 -0.1043 -0.2009
 5077SOL    HW116087   6.740   1.273   5.057 -0.7510  1.5777  0.0984
 5077SOL    HW216088   6.877   1.304   5.001 -0.5400  0.0173 -0.2949
 5078SOL     OW16089   1.326   7.849   3.237  0.1552  0.2424 -0.2951
 5078SOL    HW116090   1.236   7.883   3.244  0.6151  1.5211 -0.2066
 5078SOL    HW216091   1.335   7.825   3.145 -0.4993 -0.5533 -0.1571
 5079SOL     OW16092   7.592   3.873   0.751  0.1785 -0.3251  0.3836
 5079SOL    HW116093   7.567   3.853   0.661  0.2635  1.7762 -0.1730
 5079SOL    HW216094   7.513   3.910   0.791  0.9864  1.9478  0.0583
 5080SOL     OW16095   7.278   1.402   7.576 -0.3450  0.6860  0.3558
 5080SOL    HW116096   7.315   1.411   7.664 -1.5185 -1.2297  1.1179
 5080SOL    HW216097   7.237   1.487   7.559  0.7308  1.4166  1.2322
 5081SOL     OW16098   4.540   3.035   6.072  0.2905  0.5930 -0.3171
 5081SOL    HW116099   4.617   2.999   6.115 -0.9027 -1.1730  0.4164
 5081SOL    HW216100   4.539   3.127   6.098  1.6950  0.4468  0.3278
 5082SOL     OW16101   1.828   7.785   5.893 -0.7254 -0.5518 -0.1553
 5082SOL    HW116102   1.851   7.878   5.884  0.1274 -0.6351  0.8513
 5082SOL    HW216103   1.909   7.744   5.925 -1.2093 -1.5671 -0.2070
 5083SOL     OW16104   3.137   0.830   6.322 -0.0320 -0.1153  0.3877
 5083SOL    HW116105   3.145   0.743   6.281 -1.3426  0.0503 -0.2779
 5083SOL    HW216106   3.065   0.820   6.384 -2.0425  1.1197 -1.5788
 5084SOL     OW16107   1.618   0.429   7.091  0.0516 -0.1317  0.1233
 5084SOL    HW116108   1.625   0.511   7.138  0.7376  0.9737 -1.7747
 5084SOL    HW216109   1.530   0.397   7.110  0.2148  0.3985  1.8677
 5085SOL     OW16110   2.075   7.156   7.949 -0.1349 -0.3724 -0.3255
 5085SOL    HW116111   2.004   7.100   7.919 -0.4465  1.2207 -2.9342
 5085SOL    HW216112   2.060   7.240   7.904  2.2280  0.6903  0.6721
 5086SOL     OW16113   0.546   3.757   4.995  0.2344  0.3207 -0.4312
 5086SOL    HW116114   0.454   3.744   4.972 -0.4228  0.4600  1.8552
 5086SOL    HW216115   0.582   3.668   5.004 -0.2696  0.2022  0.6601
 5087SOL     OW16116   7.441   2.010   0.075  0.3354 -0.0605  0.6205
 5087SOL    HW116117   7.359   2.010   0.025  1.3453 -0.7572 -1.1473
 5087SOL    HW216118   7.456   2.102   0.096 -0.8769  0.0777  0.9337
 5088SOL     OW16119   1.678   3.322   2.027 -0.5034 -0.4490 -0.4794
 5088SOL    HW116120   1.645   3.309   1.938 -1.5781 -0.8784 -0.0394
 5088SOL    HW216121   1.638   3.251   2.077  3.4115 -2.8782 -0.4080
 5089SOL     OW16122   5.141   3.256   5.754  0.6554 -0.1917 -0.1262
 5089SOL    HW116123   5.152   3.191   5.685  0.8977 -0.9075  0.5795
 5089SOL    HW216124   5.070   3.313   5.723 -0.9895 -1.9990  0.1563
 5090SOL     OW16125   0.434   2.257   7.041  0.7957  0.5726 -0.3106
 5090SOL    HW116126   0.404   2.330   7.095 -1.2985 -0.2136 -0.2928
 5090SOL    HW216127   0.444   2.184   7.102  0.6032  0.2575 -0.6466
 5091SOL     OW16128   0.115   5.396   5.436  0.2880 -0.5679 -0.7525
 5091SOL    HW116129   0.200   5.393   5.392  0.2412 -2.0458 -0.7726
 5091SOL    HW216130   0.089   5.305   5.446 -0.1796 -0.2517  1.4447
 5092SOL     OW16131   0.555   1.508   7.462 -0.5195  0.6387  0.1339
 5092SOL    HW116132   0.629   1.462   7.503 -0.2377  1.7163  0.8684
 5092SOL    HW216133   0.572   1.502   7.368  0.1490  0.2962  0.2714
 5093SOL     OW16134   4.135   4.298   0.220  0.0350 -0.7116  0.2809
 5093SOL    HW116135   4.068   4.248   0.267 -0.0928 -0.9028 -0.1010
 5093SOL    HW216136   4.179   4.234   0.165 -0.2198 -0.3915 -0.3098
 5094SOL     OW16137   4.709   5.524   2.396  0.3140 -0.2050 -0.2015
 5094SOL    HW116138   4.642   5.566   2.450 -0.0630 -2.3131  1.0815
 5094SOL    HW216139   4.792   5.555   2.432  0.0428 -0.4600  0.6846
 5095SOL     OW16140   4.793   5.108   0.545  0.0164  0.0402  0.1062
 5095SOL    HW116141   4.780   5.084   0.637  1.6790  1.1752  0.6876
 5095SOL    HW216142   4.738   5.047   0.496  1.9310 -3.1533  1.6173
 5096SOL     OW16143   0.284   7.552   4.197  0.1939 -0.9255 -0.2588
 5096SOL    HW116144   0.345   7.626   4.205 -0.5721  0.0766 -2.7474
 5096SOL    HW216145   0.306   7.495   4.270  0.6819  1.8458  1.9286
 5097SOL     OW16146   5.998   1.675   6.743 -0.6619  0.5147  0.2679
 5097SOL    HW116147   6.071   1.683   6.805 -0.0524 -1.7129 -0.0663
 5097SOL    HW216148   5.965   1.586   6.756 -2.1508  0.8625 -0.8691
 5098SOL     OW16149   0.922   1.137   6.144  0.0615  0.3645 -0.0558
 5098SOL    HW116150   0.848   1.100   6.095  1.4284 -0.1529 -1.8216
 5098SOL    HW216151   0.996   1.080   6.122  0.9588  0.7219  1.8752
 5099SOL     OW16152   7.219   1.900   3.970 -0.0030  0.3411  0.1966
 5099SOL    HW116153   7.139   1.888   4.021  1.3872 -2.0668  1.9698
 5099SOL    HW216154   7.267   1.968   4.017  0.0071  0.2033  0.3811
 5100SOL     OW16155   5.904   5.518   0.029  0.1397  0.7229  0.1378
 5100SOL    HW116156   5.820   5.502   0.072  0.7260 -1.9808  0.4321
 5100SOL    HW216157   5.900   5.467  -0.052  0.8343  2.0375 -0.7751
 5101SOL     OW16158   6.458   4.199   6.520  0.2599 -0.7765  0.2870
 5101SOL    HW116159   6.490   4.270   6.464 -0.8480  0.9377  1.7552
 5101SOL    HW216160   6.525   4.190   6.588  1.2859 -2.4314 -0.8435
 5102SOL     OW16161   4.479   6.981   7.999  0.0320 -0.5958 -0.7036
 5102SOL    HW116162   4.492   6.887   8.010 -0.7486 -0.8966 -2.1109
 5102SOL    HW216163   4.551   7.008   7.941 -0.9279 -0.7554 -2.0166
 5103SOL     OW16164   1.055   5.772   7.684  0.4069 -0.2333 -0.1371
 5103SOL    HW116165   1.082   5.737   7.770  2.1865  0.5539 -0.3223
 5103SOL    HW216166   1.135   5.768   7.631 -0.6746 -0.7512 -1.7954
 5104SOL     OW16167   3.560   6.396   4.442  0.4391 -0.1551  0.0885
 5104SOL    HW116168   3.496   6.385   4.371  0.1041  2.2058 -0.0508
 5104SOL    HW216169   3.546   6.486   4.473  1.1187 -0.8631  2.6429
 5105SOL     OW16170   0.739   2.124   4.397  0.1411  0.6373  0.2028
 5105SOL    HW116171   0.804   2.190   4.373  0.2770  1.0034  1.4849
 5105SOL    HW216172   0.672   2.130   4.329  0.4920  1.6227 -0.0717
 5106SOL     OW16173   3.169   3.670   7.888  0.1820  0.1396  0.3869
 5106SOL    HW116174   3.085   3.693   7.927 -0.0619 -0.6371  0.3328
 5106SOL    HW216175   3.218   3.629   7.959 -0.6192 -2.1615 -0.2948
 5107SOL     OW16176   1.364   3.296   5.738  0.1219 -0.2227  0.3181
 5107SOL    HW116177   1.297   3.352   5.778 -1.2965  0.1327 -2.2992
 5107SOL    HW216178   1.402   3.351   5.670  0.0752 -1.7833 -1.0190
 5108SOL     OW16179   2.381   7.946   0.151  0.0901  0.0147 -0.1186
 5108SOL    HW116180   2.311   7.984   0.204  0.5531 -0.0068  0.5249
 5108SOL    HW216181   2.385   7.855   0.178  0.8952  0.2028  0.4467
 5109SOL     OW16182   2.929   7.028   2.697 -0.1772 -0.4056  0.1124
 5109SOL    HW116183   2.976   7.091   2.643  0.8473 -0.9431  0.3565
 5109SOL    HW216184   2.855   7.077   2.733  1.1206  0.9338  1.0807
 5110SOL     OW16185   0.006   1.510   6.772  0.4290 -0.4529 -0.1271
 5110SOL    HW116186  -0.052   1.488   6.845 -0.8583  0.4052 -0.8399
 5110SOL    HW216187  -0.046   1.570   6.718  1.0685 -1.5515 -2.0803
 5111SOL     OW16188   7.091   1.909   1.506 -0.5290  0.9748  0.1611
 5111SOL    HW116189   7.182   1.940   1.501 -0.5351  1.1981  1.1797
 5111SOL    HW216190   7.066   1.925   1.597 -1.2924  0.0750  0.1178
 5112SOL     OW16191   7.445   5.513   3.876 -0.0449  0.2705  0.2772
 5112SOL    HW116192   7.498   5.448   3.830 -1.2866 -1.2917  0.9831
 5112SOL    HW216193   7.439   5.481   3.966  1.5852  2.8136  1.3914
 5113SOL     OW16194   4.135   2.414   6.272 -0.0065  0.4246 -0.4462
 5113SOL    HW116195   4.175   2.475   6.211  0.3530 -0.1288 -0.7783
 5113SOL    HW216196   4.077   2.361   6.218  0.1300  0.0910 -0.2684
 5114SOL     OW16197   3.488   4.617   5.290  0.0776  0.5101  0.2737
 5114SOL    HW116198   3.443   4.647   5.369 -0.3184 -1.7592  0.9610
 5114SOL    HW216199   3.568   4.670   5.287 -0.2274  1.1091  1.8002
 5115SOL     OW16200   7.303   5.631   7.686 -0.3035 -0.2465 -0.6448
 5115SOL    HW116201   7.321   5.659   7.776  1.6833 -0.1170 -1.0318
 5115SOL    HW216202   7.311   5.535   7.689  0.3062 -0.2039 -0.7767
 5116SOL     OW16203   2.492   0.256   4.663  0.1421 -0.2274 -0.3672
 5116SOL    HW116204   2.485   0.291   4.575 -0.1928 -1.7579 -0.9870
 5116SOL    HW216205   2.557   0.185   4.656  2.1079  1.2697  1.1960
 5117SOL     OW16206   6.360   0.906   3.383 -0.1624 -0.3998 -0.6138
 5117SOL    HW116207   6.440   0.957   3.370  0.1086 -0.5733  0.3384
 5117SOL    HW216208   6.363   0.879   3.475 -0.7683 -1.3382 -0.8550
 5118SOL     OW16209   6.539   1.925   7.101  0.5205  0.3778  0.2910
 5118SOL    HW116210   6.544   1.834   7.131  0.6748  0.5392  0.7706
 5118SOL    HW216211   6.525   1.919   7.007 -0.0369 -0.1495  0.4040
 5119SOL     OW16212   7.535   1.688   3.572  0.4177 -0.1300 -0.3936
 5119SOL    HW116213   7.463   1.640   3.530  0.7783 -1.1121  0.1025
 5119SOL    HW216214   7.494   1.732   3.647  0.6984 -2.5813  1.3253
 5120SOL     OW16215   5.757   5.385   3.301  0.1088  0.1865  0.2767
 5120SOL    HW116216   5.749   5.303   3.349  0.1838  0.3255  0.5281
 5120SOL    HW216217   5.849   5.410   3.312  0.6006 -0.6929 -1.4332
 5121SOL     OW16218   4.453   0.707   5.826  0.0137 -0.0995  0.6058
 5121SOL    HW116219   4.437   0.749   5.742 -1.3262 -0.3881  0.6995
 5121SOL    HW216220   4.532   0.750   5.860 -0.2751  1.0461 -0.1282
 5122SOL     OW16221   3.574   4.679   2.225 -0.1437 -0.5151  0.5819
 5122SOL    HW116222   3.576   4.745   2.156  2.4587 -3.1298 -2.1371
 5122SOL    HW216223   3.481   4.665   2.242 -0.8294  1.3386 -1.2672
 5123SOL     OW16224   1.769   1.759   7.540 -0.1244 -0.2938 -0.0578
 5123SOL    HW116225   1.709   1.757   7.615  0.1157 -1.8752  0.1248
 5123SOL    HW216226   1.850   1.794   7.576 -0.1893 -0.4943  0.2974
 5124SOL     OW16227   7.750   4.498   5.194 -0.3650 -0.2274 -0.0564
 5124SOL    HW116228   7.824   4.443   5.218 -1.2144 -1.3209  0.1568
 5124SOL    HW216229   7.710   4.522   5.278 -0.1307  0.5567 -0.1572
 5125SOL     OW16230   6.637   2.497   3.075 -0.2591 -0.2222 -0.2596
 5125SOL    HW116231   6.596   2.517   3.159 -0.3225 -0.5818 -0.2036
 5125SOL    HW216232   6.567   2.458   3.023 -0.0901 -0.4675 -0.3035
 5126SOL     OW16233   4.257   3.168   2.554 -0.5333 -0.6526 -0.5183
 5126SOL    HW116234   4.336   3.215   2.526 -0.1727 -1.6619 -1.2978
 5126SOL    HW216235   4.185   3.210   2.508 -0.1665 -1.0819 -1.5199
 5127SOL     OW16236   2.539   2.348   4.097  0.6386  0.3271  0.5076
 5127SOL    HW116237   2.622   2.362   4.143  0.4025 -1.0008  1.4069
 5127SOL    HW216238   2.562   2.298   4.019  0.7154  0.0199  0.7217
 5128SOL     OW16239   4.022   6.897   3.530  0.5568 -0.4844 -0.0242
 5128SOL    HW116240   4.026   6.868   3.621 -1.5434 -0.1197  0.2452
 5128SOL    HW216241   4.000   6.818   3.481 -0.2658 -0.3225  0.0661
 5129SOL     OW16242   4.318   2.538   2.905  0.2763 -0.0178  0.0004
 5129SOL    HW116243   4.364   2.574   2.980  1.3309 -1.8191  0.2932
 5129SOL    HW216244   4.341   2.445   2.906 -1.0066 -0.3972 -1.6056
 5130SOL     OW16245   4.381   3.720   7.022 -0.3024 -0.6323 -0.3429
 5130SOL    HW116246   4.344   3.728   7.111 -0.7636  1.5590 -0.6773
 5130SOL    HW216247   4.475   3.726   7.034 -0.4055  0.4664 -0.0656
 5131SOL     OW16248   7.144   2.135   4.597  0.3710  0.5137  0.2965
 5131SOL    HW116249   7.091   2.186   4.659  0.2738  0.1453  0.5163
 5131SOL    HW216250   7.105   2.048   4.598  0.4140  0.4863 -0.2363
 5132SOL     OW16251   4.545   4.683   0.923 -0.1502  0.0196 -0.0456
 5132SOL    HW116252   4.596   4.602   0.925  0.5729  0.4836  0.4284
 5132SOL    HW216253   4.534   4.702   0.830  0.6550 -0.0129 -0.1525
 5133SOL     OW16254   3.855   5.527   0.902 -0.0457  0.5002 -0.0413
 5133SOL    HW116255   3.768   5.535   0.864  0.0235  1.6787  0.0070
 5133SOL    HW216256   3.865   5.433   0.919 -1.0633  0.2733 -0.5862
 5134SOL     OW16257   4.546   5.824   3.267 -0.0984  0.1769  0.0686
 5134SOL    HW116258   4.587   5.909   3.253  0.3040 -0.0397 -0.0722
 5134SOL    HW216259   4.604   5.762   3.224 -0.2350 -0.2051  0.4284
 5135SOL     OW16260   0.490   1.687   3.804 -0.0955 -0.2811  0.4311
 5135SOL    HW116261   0.442   1.682   3.887 -0.7362 -0.8524  0.0403
 5135SOL    HW216262   0.446   1.756   3.755 -0.6124 -0.8941  0.0205
 5136SOL     OW16263   1.801   1.079   4.252 -0.2120 -0.0630  0.4301
 5136SOL    HW116264   1.706   1.095   4.256 -0.4140 -1.1162  0.2426
 5136SOL    HW216265   1.826   1.102   4.163 -0.2606  0.3576  0.5234
 5137SOL     OW16266   2.071   0.965   4.330 -0.6331  0.0759  0.0881
 5137SOL    HW116267   2.115   1.003   4.254 -1.4042  0.0260 -0.3961
 5137SOL    HW216268   1.978   0.988   4.318 -0.7453  0.1900  1.0857
 5138SOL     OW16269   5.118   6.983   2.750 -0.0960  0.3510 -0.1681
 5138SOL    HW116270   5.092   7.043   2.681 -0.7008  1.5646  1.0623
 5138SOL    HW216271   5.064   6.906   2.737 -0.0659  0.4837 -1.1450
 5139SOL     OW16272   3.133   3.109   7.842 -0.0667  0.9967 -0.3514
 5139SOL    HW116273   3.224   3.112   7.873 -0.1222  1.6490 -0.2288
 5139SOL    HW216274   3.108   3.017   7.849  0.9287  0.6308 -1.4129
 5140SOL     OW16275   1.136   5.472   1.766  0.1815  0.4279  0.1939
 5140SOL    HW116276   1.206   5.414   1.738 -1.0783 -1.6061  1.0485
 5140SOL    HW216277   1.090   5.495   1.686  0.1095 -0.5975 -0.0716
 5141SOL     OW16278   1.123   6.931   5.441 -0.1057 -0.2078 -0.7503
 5141SOL    HW116279   1.150   7.009   5.392  1.3354 -1.0576 -1.3652
 5141SOL    HW216280   1.035   6.952   5.473 -0.6538  0.8443 -2.7496
 5142SOL     OW16281   5.651   5.061   2.040  0.6946  0.4647 -0.3634
 5142SOL    HW116282   5.642   5.035   1.949  1.4738 -0.5512 -0.1669
 5142SOL    HW216283   5.638   5.156   2.039 -2.3531  0.1286 -1.0701
 5143SOL     OW16284   6.871   5.839   1.091  0.0711 -0.4591 -0.0151
 5143SOL    HW116285   6.792   5.786   1.078 -0.3689  0.3289 -0.6077
 5143SOL    HW216286   6.883   5.884   1.008  2.1079 -1.8134 -0.5177
 5144SOL     OW16287   2.329   4.394   4.140  0.2408 -0.2489 -0.4578
 5144SOL    HW116288   2.250   4.357   4.100  0.5942 -1.1309 -0.3664
 5144SOL    HW216289   2.321   4.372   4.233  0.5066 -0.1970 -0.4226
 5145SOL     OW16290   7.803   7.994   2.571  0.4322 -0.3895  0.2325
 5145SOL    HW116291   7.739   8.063   2.584 -0.1848 -0.9236  0.1252
 5145SOL    HW216292   7.751   7.920   2.538  1.0259 -0.9946  0.6396
 5146SOL     OW16293   0.880   4.812   7.742 -0.6529 -0.0102  0.3658
 5146SOL    HW116294   0.911   4.722   7.756  0.1454  0.2416  0.2490
 5146SOL    HW216295   0.924   4.863   7.810 -1.1562  0.2837  0.4718
 5147SOL     OW16296   5.690   2.004   3.209  0.0341 -0.1364 -0.6762
 5147SOL    HW116297   5.623   1.948   3.248  0.2112  0.0234 -0.1364
 5147SOL    HW216298   5.713   2.066   3.278 -0.7586  1.1491 -1.5270
 5148SOL     OW16299   7.441   4.693   3.573  0.0361 -1.0091  0.4275
 5148SOL    HW116300   7.449   4.600   3.553  0.1845 -1.2404  1.5088
 5148SOL    HW216301   7.396   4.696   3.658  1.1987 -0.1531  1.0470
 5149SOL     OW16302   2.606   4.478   2.708  0.0972  0.3864 -0.3439
 5149SOL    HW116303   2.606   4.498   2.802 -1.3220 -1.0044  0.0104
 5149SOL    HW216304   2.564   4.553   2.667 -1.5933 -0.0679  0.4696
 5150SOL     OW16305   5.468   7.169   6.024  0.0288 -0.8344 -0.1479
 5150SOL    HW116306   5.563   7.180   6.031 -0.3783  2.6262  2.0765
 5150SOL    HW216307   5.457   7.098   5.961  4.0598 -1.2274 -0.6650
 5151SOL     OW16308   6.996   3.189   6.935  0.1293  0.0869 -0.2297
 5151SOL    HW116309   7.089   3.208   6.945 -0.3662  2.6687  0.1679
 5151SOL    HW216310   6.961   3.192   7.024 -0.2153 -2.0145 -0.2263
 5152SOL     OW16311   6.707   6.732   1.031  0.1077 -0.1345 -0.2395
 5152SOL    HW116312   6.665   6.767   0.953 -0.1935  1.2659  0.5024
 5152SOL    HW216313   6.746   6.809   1.074  0.6033 -0.9178  0.7803
 5153SOL     OW16314   3.079   6.287   0.686  0.5588  0.1535 -0.2325
 5153SOL    HW116315   3.116   6.240   0.612  0.6227 -0.8086  0.4029
 5153SOL    HW216316   3.040   6.366   0.647  1.1720 -0.0066 -1.1947
 5154SOL     OW16317   0.541   4.942   6.846  0.3494  0.2037  0.3263
 5154SOL    HW116318   0.571   4.998   6.918  1.7086  0.2579 -0.2482
 5154SOL    HW216319   0.448   4.930   6.863  0.3569  1.3224  1.3475
 5155SOL     OW16320   4.096   7.542   0.931  0.0810 -0.1769  0.4673
 5155SOL    HW116321   4.188   7.562   0.919 -0.4590  2.2417 -0.1276
 5155SOL    HW216322   4.067   7.507   0.847  0.2924 -0.3098  0.4489
 5156SOL     OW16323   7.520   1.052   2.377  0.1914  0.4602 -0.4759
 5156SOL    HW116324   7.587   1.059   2.445  0.3268  0.4037 -0.6011
 5156SOL    HW216325   7.466   0.978   2.403  0.5849  0.0836 -0.7268
 5157SOL     OW16326   4.619   3.051   6.422  0.0278 -0.2294 -0.4115
 5157SOL    HW116327   4.527   3.067   6.402  0.3489 -0.5301 -2.3843
 5157SOL    HW216328   4.666   3.083   6.344  1.6728  0.6953  0.8978
 5158SOL     OW16329   6.296   1.014   2.082 -0.0045  0.5588 -0.8531
 5158SOL    HW116330   6.276   0.921   2.081  1.0140  0.3223 -0.8128
 5158SOL    HW216331   6.273   1.043   2.170  2.2057 -0.2824  0.0803
 5159SOL     OW16332   4.330   6.539   4.888  0.3238 -0.0029 -0.1431
 5159SOL    HW116333   4.308   6.460   4.938  2.7656 -0.4073  0.4029
 5159SOL    HW216334   4.336   6.508   4.797 -1.8296  0.2641 -0.4321
 5160SOL     OW16335   2.124   0.904   2.961 -0.6814  0.7283 -0.7060
 5160SOL    HW116336   2.213   0.871   2.969 -1.3297 -0.9761 -0.0136
 5160SOL    HW216337   2.119   0.938   2.871  0.0939 -0.9801 -1.4371
 5161SOL     OW16338   0.441   7.870   7.923 -0.3523 -0.2916 -0.5290
 5161SOL    HW116339   0.453   7.796   7.982  1.0167 -0.9807 -1.6133
 5161SOL    HW216340   0.415   7.830   7.840 -1.9111  0.6353 -0.5285
 5162SOL     OW16341   0.518   1.919   5.910  0.4607  0.5083 -0.4171
 5162SOL    HW116342   0.506   1.865   5.989  1.4611  1.0908  0.1500
 5162SOL    HW216343   0.516   1.856   5.838 -1.5935  0.0773 -0.0623
 5163SOL     OW16344   5.052   2.446   3.701 -0.7733  0.4069 -0.6240
 5163SOL    HW116345   4.983   2.401   3.750 -2.3819 -0.3891 -3.3810
 5163SOL    HW216346   5.077   2.383   3.633  1.6159  1.3043 -0.6721
 5164SOL     OW16347   1.082   4.532   4.067 -0.2305  0.4960 -0.7348
 5164SOL    HW116348   1.109   4.492   3.984 -2.4364  1.4398 -1.9707
 5164SOL    HW216349   1.034   4.610   4.042 -1.3222  0.5855  1.4263
 5165SOL     OW16350   6.240   0.627   0.581 -0.3612  0.7724  0.2171
 5165SOL    HW116351   6.192   0.549   0.556  0.6097  0.3037 -0.2118
 5165SOL    HW216352   6.322   0.595   0.618  0.4837  1.5917 -0.8732
 5166SOL     OW16353   7.594   1.156   3.425 -0.2841 -0.1091  0.5322
 5166SOL    HW116354   7.510   1.198   3.409 -1.0169 -1.3554  0.9026
 5166SOL    HW216355   7.582   1.067   3.391  1.0718 -0.1442  0.1120
 5167SOL     OW16356   6.664   6.329   7.942 -0.2271  0.2396  0.3863
 5167SOL    HW116357   6.652   6.259   8.006  0.2549  0.6360  0.9220
 5167SOL    HW216358   6.737   6.299   7.888 -0.1872  0.2170  0.4527
 5168SOL     OW16359   5.481   1.260   6.420 -0.7498  0.3449  0.4669
 5168SOL    HW116360   5.491   1.323   6.349 -2.7180  0.6888  0.4296
 5168SOL    HW216361   5.559   1.273   6.475  0.7003  0.2015 -1.4725
 5169SOL     OW16362   5.937   0.320   0.706 -0.2841 -0.3065 -0.2660
 5169SOL    HW116363   5.878   0.257   0.748  0.7160  0.0421  1.8422
 5169SOL    HW216364   5.992   0.352   0.778  0.7652  1.2710 -1.6900
 5170SOL     OW16365   5.981   5.274   3.107 -0.5723 -0.0561  0.1739
 5170SOL    HW116366   5.914   5.238   3.166 -1.0272  1.3590  0.5678
 5170SOL    HW216367   6.055   5.294   3.165 -0.7928  0.7762  0.1779
 5171SOL     OW16368   5.596   2.410   4.340 -0.0801 -0.5681 -0.1138
 5171SOL    HW116369   5.684   2.433   4.310  0.1634 -1.9141 -0.4785
 5171SOL    HW216370   5.602   2.417   4.436  0.2518 -0.0944 -0.1616
 5172SOL     OW16371   3.563   4.466   6.156  0.2511  0.1746  0.2811
 5172SOL    HW116372   3.535   4.555   6.135  0.4629  0.2656  0.3712
 5172SOL    HW216373   3.536   4.413   6.081  1.7281  0.6374 -0.6310
 5173SOL     OW16374   5.989   1.976   5.758 -0.3814  0.2946  0.1275
 5173SOL    HW116375   6.035   2.016   5.831 -1.0133  0.9675  0.1625
 5173SOL    HW216376   5.977   2.047   5.695  0.2366 -0.2969 -0.6876
 5174SOL     OW16377   5.334   0.670   5.062  0.0502 -0.4147  0.0424
 5174SOL    HW116378   5.323   0.758   5.026 -0.9347 -0.8350 -0.7657
 5174SOL    HW216379   5.428   0.663   5.080  0.0333  1.0561  0.8554
 5175SOL     OW16380   2.079   6.726   4.930  0.1293  0.1735 -0.1967
 5175SOL    HW116381   2.152   6.744   4.871  1.5426 -0.8400  1.1565
 5175SOL    HW216382   2.041   6.812   4.947  0.7437  0.6782 -1.2671
 5176SOL     OW16383   5.620   6.188   2.415 -0.5686  0.4059  0.2867
 5176SOL    HW116384   5.677   6.135   2.359  0.1435  1.7417 -0.2938
 5176SOL    HW216385   5.621   6.275   2.376 -1.8993  0.8091  1.0856
 5177SOL     OW16386   0.523   0.257   0.606 -0.0447 -0.1793 -0.6230
 5177SOL    HW116387   0.616   0.237   0.596 -0.0606  0.1622 -1.6125
 5177SOL    HW216388   0.489   0.186   0.660  0.4711 -1.2495 -1.6543
 5178SOL     OW16389   6.788   2.752   1.349 -0.0133 -0.2757  0.3883
 5178SOL    HW116390   6.757   2.693   1.418 -0.3667  2.6618  2.9569
 5178SOL    HW216391   6.713   2.809   1.331  0.0942 -0.8867 -2.4913
 5179SOL     OW16392   4.589   4.319   5.120 -0.3688  0.0064 -0.1566
 5179SOL    HW116393   4.544   4.398   5.151 -2.9840 -2.0760  1.8246
 5179SOL    HW216394   4.530   4.283   5.053  0.1120 -0.9402 -0.0864
 5180SOL     OW16395   0.403   3.289   3.915  0.1160  0.0787 -0.6449
 5180SOL    HW116396   0.433   3.199   3.909  0.0001  0.0706 -1.1155
 5180SOL    HW216397   0.481   3.342   3.898  0.1670  0.0705 -0.4450
 5181SOL     OW16398   7.016   7.134   6.515  0.2859 -0.3359  0.2327
 5181SOL    HW116399   7.013   7.081   6.435 -0.8516 -0.2916  0.2334
 5181SOL    HW216400   6.927   7.133   6.548  0.7728 -0.4799  1.5993
 5182SOL     OW16401   0.668   1.255   5.818  0.6597  0.1282  0.4020
 5182SOL    HW116402   0.582   1.288   5.794 -0.2650 -2.1894  0.2217
 5182SOL    HW216403   0.730   1.318   5.782 -0.9022  0.8101 -1.2300
 5183SOL     OW16404   6.267   5.434   3.742 -0.5738 -0.3318  0.1226
 5183SOL    HW116405   6.333   5.423   3.674 -0.1309 -2.9610  0.8910
 5183SOL    HW216406   6.302   5.503   3.799  0.2764  0.0674 -0.8595
 5184SOL     OW16407   6.469   1.151   0.171 -0.6534  0.0394  0.4850
 5184SOL    HW116408   6.445   1.146   0.264  1.5863 -0.2704  1.1261
 5184SOL    HW216409   6.451   1.063   0.137  0.3761 -0.4692  1.1838
 5185SOL     OW16410   1.296   4.842   3.843  0.1325 -0.6165 -0.4176
 5185SOL    HW116411   1.207   4.850   3.810  0.1774  2.9131 -0.0305
 5185SOL    HW216412   1.292   4.880   3.931  1.6736 -2.3082  0.4620
 5186SOL     OW16413   1.231   7.174   1.795 -0.0696 -0.4907  0.6241
 5186SOL    HW116414   1.201   7.133   1.876 -1.6813  0.5765  0.6163
 5186SOL    HW216415   1.166   7.148   1.729 -0.0323  0.4367  0.1952
 5187SOL     OW16416   4.831   3.090   7.980  0.1247  0.0173 -0.3712
 5187SOL    HW116417   4.850   3.040   7.900 -0.5518 -0.5943 -0.1621
 5187SOL    HW216418   4.763   3.039   8.024  0.8724  0.0568  0.8700
 5188SOL     OW16419   4.684   3.961   0.690 -0.1316  0.2120 -0.0809
 5188SOL    HW116420   4.643   4.001   0.767 -0.5207 -1.3227  0.5502
 5188SOL    HW216421   4.770   3.932   0.720  0.0274  0.3106 -0.4395
 5189SOL     OW16422   7.327   4.682   3.812  0.2117  0.3241  0.2006
 5189SOL    HW116423   7.276   4.732   3.875 -0.4343  2.5868 -1.9518
 5189SOL    HW216424   7.283   4.597   3.808 -0.9591  0.8504  1.2729
 5190SOL     OW16425   7.980   0.231   6.607 -0.2718 -0.0894  0.1156
 5190SOL    HW116426   8.062   0.255   6.564  1.4836 -1.1668  2.5667
 5190SOL    HW216427   7.918   0.299   6.582  1.6437  1.2886 -1.1180
 5191SOL     OW16428   5.130   7.818   2.859 -0.2626  0.3302 -0.4715
 5191SOL    HW116429   5.101   7.857   2.777  1.8890 -0.8315 -1.8895
 5191SOL    HW216430   5.222   7.844   2.867 -0.3083  0.0905  1.3947
 5192SOL     OW16431   7.848   6.076   6.064  0.8040 -0.3187 -0.2420
 5192SOL    HW116432   7.761   6.113   6.052  0.4234 -1.5452 -1.5924
 5192SOL    HW216433   7.862   6.075   6.159 -0.1552  0.9546 -0.0675
 5193SOL     OW16434   7.075   5.203   0.268 -0.2820 -0.5077  0.2028
 5193SOL    HW116435   7.161   5.164   0.250 -0.3629  0.0365 -1.5092
 5193SOL    HW216436   7.091   5.298   0.267 -0.5995 -0.4131  1.6410
 5194SOL     OW16437   4.029   6.171   7.691 -0.4770 -1.1424 -0.4224
 5194SOL    HW116438   4.010   6.222   7.612 -0.2650 -1.7598 -0.8797
 5194SOL    HW216439   4.054   6.085   7.658  1.7987 -0.7783  0.1880
 5195SOL     OW16440   5.180   4.385   2.267  0.3148  0.5987 -0.1711
 5195SOL    HW116441   5.258   4.350   2.309 -0.4502 -0.5737  0.3143
 5195SOL    HW216442   5.169   4.472   2.306  0.1199 -0.1117  1.4337
 5196SOL     OW16443   3.195   5.411   1.146 -0.1203  0.5169  0.0026
 5196SOL    HW116444   3.222   5.326   1.180  0.2738  0.6886  0.1247
 5196SOL    HW216445   3.104   5.399   1.122 -0.1477  0.1376  0.2815
 5197SOL     OW16446   2.537   2.186   6.016  0.1186 -0.8533 -0.2283
 5197SOL    HW116447   2.454   2.157   5.979 -0.0499 -0.4381 -0.1831
 5197SOL    HW216448   2.540   2.143   6.102  0.0188 -0.9886 -0.2919
 5198SOL     OW16449   3.226   5.331   7.807  0.2811 -0.8148 -0.2065
 5198SOL    HW116450   3.240   5.246   7.849  0.3032 -0.2870  0.8901
 5198SOL    HW216451   3.161   5.375   7.862 -0.5668 -0.5510 -1.3969
 5199SOL     OW16452   6.074   5.224   5.304  0.2100  0.1840  0.2015
 5199SOL    HW116453   6.064   5.172   5.225 -0.5061 -0.8997  0.9818
 5199SOL    HW216454   6.161   5.201   5.337 -0.2591 -0.8793  0.7616
 5200SOL     OW16455   4.328   5.806   7.612  0.1432  0.7581  0.1344
 5200SOL    HW116456   4.278   5.797   7.530  1.8816  1.0913 -1.0214
 5200SOL    HW216457   4.272   5.860   7.668 -0.7760  1.1550 -1.1139
 5201SOL     OW16458   1.575   7.401   7.366 -0.1138 -0.2854  0.6695
 5201SOL    HW116459   1.643   7.347   7.406 -0.4231 -1.1502  0.0312
 5201SOL    HW216460   1.623   7.463   7.311  0.2521  0.2622  1.5851
 5202SOL     OW16461   2.689   4.159   1.140  0.0525 -0.1675  0.6617
 5202SOL    HW116462   2.707   4.141   1.047  0.4939  1.9531  0.2799
 5202SOL    HW216463   2.597   4.185   1.142  0.0739 -0.1021  0.8019
 5203SOL     OW16464   2.471   3.499   3.906 -0.0831  0.2378 -0.8093
 5203SOL    HW116465   2.380   3.470   3.915 -0.2383  1.0926  0.6145
 5203SOL    HW216466   2.466   3.594   3.917  1.0150  0.2610 -0.4797
 5204SOL     OW16467   7.785   7.730   7.505  0.0800 -0.2535  0.0697
 5204SOL    HW116468   7.789   7.675   7.583 -0.8267 -0.7316 -0.2079
 5204SOL    HW216469   7.723   7.686   7.447 -0.5633  0.9787 -0.2220
 5205SOL     OW16470   5.033   6.770   6.738  0.4060 -0.5474 -0.7890
 5205SOL    HW116471   5.002   6.691   6.696  0.0346 -1.1503  0.5581
 5205SOL    HW216472   5.122   6.782   6.705 -0.2458 -0.3594 -2.5481
 5206SOL     OW16473   1.724   6.404   5.643 -0.1580  0.9885  0.2251
 5206SOL    HW116474   1.720   6.475   5.579 -2.5995  0.7925  0.0753
 5206SOL    HW216475   1.634   6.395   5.675  0.0078 -2.1005  0.1467
 5207SOL     OW16476   7.483   4.257   5.337 -0.4048  0.3626 -0.3054
 5207SOL    HW116477   7.570   4.269   5.374 -0.5453  0.3193  0.0393
 5207SOL    HW216478   7.458   4.344   5.305  0.1435  0.1901 -1.2474
 5208SOL     OW16479   0.091   0.691   7.173 -0.0666 -0.2415  0.1292
 5208SOL    HW116480   0.102   0.765   7.113 -1.5209 -0.5578 -0.5737
 5208SOL    HW216481   0.178   0.650   7.177  0.5727  1.0585 -0.0443
 5209SOL     OW16482   2.420   4.085   4.779  0.4653 -0.4220 -0.0911
 5209SOL    HW116483   2.473   4.157   4.816  0.8782 -0.1826 -1.1203
 5209SOL    HW216484   2.349   4.074   4.842 -0.4100  1.8426 -0.5774
 5210SOL     OW16485   6.629   1.370   1.806  0.0199  0.5253 -0.5374
 5210SOL    HW116486   6.663   1.284   1.782 -0.5246  0.6598 -1.8508
 5210SOL    HW216487   6.599   1.408   1.724  0.9781  2.3034 -0.1151
 5211SOL     OW16488   5.401   3.207   2.449  0.2554  0.0283 -0.4859
 5211SOL    HW116489   5.354   3.223   2.367 -0.3263  1.1029  0.0453
 5211SOL    HW216490   5.429   3.115   2.442 -0.2503 -0.0593 -1.6466
 5212SOL     OW16491   1.910   3.796   5.793 -0.5449  0.1260  0.2208
 5212SOL    HW116492   1.844   3.812   5.861 -0.9659 -0.9340  0.0785
 5212SOL    HW216493   1.976   3.742   5.836 -1.0314 -0.9153 -0.3225
 5213SOL     OW16494   4.930   0.706   5.792  0.5557 -0.1715 -0.0613
 5213SOL    HW116495   4.987   0.697   5.867  0.8760 -2.3549 -0.4796
 5213SOL    HW216496   4.976   0.765   5.732  0.6265  0.9968  1.1163
 5214SOL     OW16497   2.177   6.626   7.626  0.2849 -0.0690  0.0592
 5214SOL    HW116498   2.135   6.646   7.542  1.2844 -0.4238 -0.5346
 5214SOL    HW216499   2.157   6.703   7.681  1.0849  0.9734 -1.0623
 5215SOL     OW16500   5.803   4.192   4.250 -0.4595  0.4093  0.0003
 5215SOL    HW116501   5.773   4.283   4.259 -1.3649  0.3273 -1.6217
 5215SOL    HW216502   5.727   4.146   4.212  0.6736 -0.5457 -1.2050
 5216SOL     OW16503   0.246   0.446   3.978  0.1933 -0.0538  0.3603
 5216SOL    HW116504   0.247   0.458   3.883 -1.1063 -0.6693  0.2502
 5216SOL    HW216505   0.191   0.516   4.010  0.5348  0.0807  0.6598
 5217SOL     OW16506   0.190   3.949   2.098  0.1744 -0.1209  0.5533
 5217SOL    HW116507   0.189   3.933   2.192 -0.3282 -0.8435  0.4274
 5217SOL    HW216508   0.240   3.876   2.061 -0.8507 -0.6236  0.1256
 5218SOL     OW16509   1.767   0.558   1.514  0.2509 -0.2139 -0.4709
 5218SOL    HW116510   1.702   0.602   1.460  0.2244 -0.5299 -0.7009
 5218SOL    HW216511   1.820   0.629   1.551 -0.0671  0.0287 -0.4821
 5219SOL     OW16512   0.632   2.445   5.336 -0.1493 -0.2999  0.3030
 5219SOL    HW116513   0.603   2.478   5.421  0.1732 -2.2272  1.2230
 5219SOL    HW216514   0.552   2.442   5.283 -0.0198  2.9026 -0.2432
 5220SOL     OW16515   6.454   1.519   3.115  0.0264  0.0525  0.2091
 5220SOL    HW116516   6.448   1.612   3.135  1.7136  0.1708  0.3450
 5220SOL    HW216517   6.408   1.475   3.186  1.5554  0.6830  1.6384
 5221SOL     OW16518   7.930   5.745   1.234  0.5035  0.2913 -0.0426
 5221SOL    HW116519   7.839   5.732   1.208  1.3078 -1.0944 -2.4595
 5221SOL    HW216520   7.949   5.836   1.214  0.1612  0.0775 -1.4441
 5222SOL     OW16521   2.219   5.746   7.868 -0.4029  0.2108 -0.6411
 5222SOL    HW116522   2.198   5.778   7.955 -0.5576  1.0936 -0.9846
 5222SOL    HW216523   2.206   5.652   7.872  0.8648  0.0621  0.6455
 5223SOL     OW16524   5.551   1.891   7.223  0.2761 -0.5926 -0.1708
 5223SOL    HW116525   5.531   1.874   7.131 -1.4278 -0.3456  0.1185
 5223SOL    HW216526   5.545   1.805   7.265 -1.9077 -0.3381  0.1753
 5224SOL     OW16527   5.336   4.428   1.249 -0.3190  0.1892 -0.2373
 5224SOL    HW116528   5.328   4.357   1.185 -0.2020 -0.2896  0.2735
 5224SOL    HW216529   5.249   4.468   1.251 -0.6669 -0.5604  0.1740
 5225SOL     OW16530   6.696   1.493   3.272  0.1567 -0.8616  0.2590
 5225SOL    HW116531   6.684   1.577   3.316  0.7944 -1.6784  2.1175
 5225SOL    HW216532   6.672   1.509   3.181 -0.9128  1.0106  0.8305
 5226SOL     OW16533   6.901   5.851   0.028  0.4138  0.0955  0.4214
 5226SOL    HW116534   6.893   5.823  -0.063 -2.7153  0.4106  0.4944
 5226SOL    HW216535   6.824   5.905   0.043  2.0247  1.9797  2.6452
 5227SOL     OW16536   7.423   1.026   7.650 -0.5361  0.1705  0.1512
 5227SOL    HW116537   7.483   1.079   7.702 -0.7275  1.5602 -0.9495
 5227SOL    HW216538   7.341   1.077   7.649 -0.8788 -0.3759 -0.5638
 5228SOL     OW16539   2.690   2.103   2.885 -0.0849 -0.3530  0.5608
 5228SOL    HW116540   2.678   2.142   2.798 -1.2800 -1.0689  0.3819
 5228SOL    HW216541   2.781   2.122   2.907  0.4372 -0.7315 -1.1221
 5229SOL     OW16542   5.449   7.557   2.900  0.1291  0.5322  0.9879
 5229SOL    HW116543   5.540   7.529   2.915  0.3703  1.3229  1.0283
 5229SOL    HW216544   5.456   7.648   2.871 -0.5319  0.0517 -0.8345
 5230SOL     OW16545   2.571   2.164   4.811 -0.4126 -0.5372 -0.2423
 5230SOL    HW116546   2.478   2.168   4.834 -0.2209  1.8281  0.3421
 5230SOL    HW216547   2.574   2.183   4.717 -0.6030 -2.3302 -0.6457
 5231SOL     OW16548   4.059   2.134   5.712  0.1461  0.1339 -0.1158
 5231SOL    HW116549   4.038   2.077   5.638  0.0719 -0.3884  0.2997
 5231SOL    HW216550   3.986   2.195   5.717 -0.9290 -1.1735  0.8340
 5232SOL     OW16551   1.514   3.963   1.876 -0.0763  0.3049 -0.1749
 5232SOL    HW116552   1.481   3.905   1.945  0.5604 -0.7193 -0.7122
 5232SOL    HW216553   1.607   3.974   1.896 -0.2129  1.2913  0.0028
 5233SOL     OW16554   4.495   7.597   6.093  0.0627 -0.2857  0.2148
 5233SOL    HW116555   4.482   7.512   6.135  1.3973 -0.8828 -0.4999
 5233SOL    HW216556   4.412   7.615   6.050 -0.2703 -1.1953  0.4489
 5234SOL     OW16557   7.993   0.506   3.539  0.2723 -0.4098 -0.4344
 5234SOL    HW116558   7.955   0.576   3.591  0.5386 -1.4937  1.3107
 5234SOL    HW216559   7.929   0.489   3.470 -1.4160 -0.7202  1.1326
 5235SOL     OW16560   3.278   1.749   2.933  0.9493  0.3400  0.1216
 5235SOL    HW116561   3.363   1.783   2.904  0.4748  1.7540  0.3128
 5235SOL    HW216562   3.222   1.755   2.856  0.9105 -0.2005  0.1071
 5236SOL     OW16563   4.375   5.055   6.451 -0.2032  0.0816  0.1383
 5236SOL    HW116564   4.453   5.024   6.497 -0.6777 -1.1808  0.1133
 5236SOL    HW216565   4.384   5.020   6.362  0.1095  1.4980 -0.4145
 5237SOL     OW16566   0.405   0.675   0.496  0.1295 -0.4469  0.4792
 5237SOL    HW116567   0.438   0.700   0.583  1.6162  0.4158 -0.2908
 5237SOL    HW216568   0.482   0.675   0.440 -1.0143  0.6594 -1.2038
 5238SOL     OW16569   1.592   4.881   3.116  0.8563 -0.4342 -0.0466
 5238SOL    HW116570   1.535   4.866   3.041 -1.3103  1.5052  1.1230
 5238SOL    HW216571   1.673   4.916   3.078 -0.0120  0.0595 -1.5005
 5239SOL     OW16572   1.953   3.149   1.992 -0.0398  0.4300  0.0471
 5239SOL    HW116573   1.883   3.212   2.008  0.9443  1.7993 -0.8239
 5239SOL    HW216574   1.928   3.072   2.043 -1.2052  1.5658  1.2719
 5240SOL     OW16575   7.946   4.523   0.290  0.4749 -0.5087  0.0595
 5240SOL    HW116576   7.934   4.452   0.226  2.0200  0.4517 -1.3987
 5240SOL    HW216577   7.866   4.575   0.284  0.4117 -0.6829 -0.8137
 5241SOL     OW16578   6.905   1.731   5.074 -0.0099  0.0764 -0.0051
 5241SOL    HW116579   6.976   1.711   5.013  0.4866 -0.6255  0.7787
 5241SOL    HW216580   6.830   1.681   5.041  0.9887 -2.6323  1.4578
 5242SOL     OW16581   6.382   0.811   3.012 -0.4048  0.1989  0.3947
 5242SOL    HW116582   6.459   0.860   3.042  1.5155 -2.5045  0.2556
 5242SOL    HW216583   6.317   0.878   2.991  1.5382  2.5686  1.4936
 5243SOL     OW16584   6.345   7.612   3.954  0.6176  0.5952  0.0815
 5243SOL    HW116585   6.253   7.591   3.938  0.5891  0.5694  0.2752
 5243SOL    HW216586   6.346   7.707   3.965  1.1795  1.2184 -3.8528
 5244SOL     OW16587   1.658   0.032   2.517 -0.0893  0.0402 -0.7129
 5244SOL    HW116588   1.650   0.076   2.602  2.2209  1.3471 -1.0943
 5244SOL    HW216589   1.635  -0.059   2.535  0.3666  0.2763  1.3387
 5245SOL     OW16590   3.693   3.969   0.961 -0.0977  0.2957  0.6091
 5245SOL    HW116591   3.637   3.997   0.888 -0.5908 -0.9278  0.4875
 5245SOL    HW216592   3.742   4.047   0.985 -1.3326  1.2179  0.2286
 5246SOL     OW16593   0.268   7.301   6.826 -0.3723  0.4272  0.0624
 5246SOL    HW116594   0.227   7.337   6.904 -0.9517  0.1946 -0.1271
 5246SOL    HW216595   0.360   7.290   6.850 -0.2587  1.6598  0.2487
 5247SOL     OW16596   2.450   5.887   6.554 -0.1310 -0.3554 -0.0866
 5247SOL    HW116597   2.394   5.859   6.482 -0.0671 -0.1847 -0.2033
 5247SOL    HW216598   2.394   5.941   6.609 -0.5346 -1.4880  0.6696
 5248SOL     OW16599   2.548   7.705   3.005 -0.1416  0.6832 -0.4822
 5248SOL    HW116600   2.614   7.642   2.975  1.0671  1.8746 -0.4264
 5248SOL    HW216601   2.599   7.777   3.043 -1.4926  1.4950 -0.1345
 5249SOL     OW16602   4.885   6.654   0.401 -0.3467  0.0451  0.2016
 5249SOL    HW116603   4.817   6.684   0.461 -0.0560 -0.1802  0.6517
 5249SOL    HW216604   4.967   6.668   0.450 -0.0532  0.5198 -0.4140
 5250SOL     OW16605   7.376   6.929   4.566  0.1841  0.2279 -0.0715
 5250SOL    HW116606   7.439   6.924   4.495  1.2183 -0.5925  0.8553
 5250SOL    HW216607   7.392   6.850   4.617 -1.9230 -0.2374 -0.0495
 5251SOL     OW16608   5.392   4.832   5.444 -0.0923  0.0402 -0.1041
 5251SOL    HW116609   5.470   4.874   5.479 -0.2448  0.6205 -0.4521
 5251SOL    HW216610   5.376   4.876   5.360 -0.3862 -0.5548 -0.3689
 5252SOL     OW16611   5.290   6.612   4.783  0.2886  0.4893 -0.0717
 5252SOL    HW116612   5.380   6.595   4.757  0.2239 -2.9361  1.4181
 5252SOL    HW216613   5.265   6.536   4.835 -3.5252  1.2294 -0.5170
 5253SOL     OW16614   0.057   7.281   5.697 -0.1851  0.1780  0.7637
 5253SOL    HW116615  -0.020   7.305   5.645 -0.6536 -1.6354  0.5650
 5253SOL    HW216616   0.030   7.296   5.788 -0.3878  0.5627  0.6437
 5254SOL     OW16617   1.226   0.584   1.822  0.1676 -0.2844 -0.4317
 5254SOL    HW116618   1.196   0.672   1.841  0.0899 -0.8453  2.4608
 5254SOL    HW216619   1.150   0.541   1.781 -0.2540  0.6079 -0.5960
 5255SOL     OW16620   1.638   1.861   2.461 -0.0168 -0.0039  0.2860
 5255SOL    HW116621   1.611   1.932   2.519 -1.3898 -0.3470  0.1020
 5255SOL    HW216622   1.563   1.848   2.403  0.2396 -1.5266  0.2495
 5256SOL     OW16623   2.415   5.064   1.579 -0.2585 -0.4985 -0.3107
 5256SOL    HW116624   2.478   4.993   1.571  0.6124 -0.0399  1.7336
 5256SOL    HW216625   2.340   5.025   1.626 -0.7644 -0.6075 -1.1901
 5257SOL     OW16626   1.250   5.816   1.191  0.7826 -0.1188  0.1090
 5257SOL    HW116627   1.280   5.904   1.171 -0.3796  0.6367  1.4921
 5257SOL    HW216628   1.308   5.786   1.262  0.5610 -0.0785  0.3084
 5258SOL     OW16629   1.456   6.987   3.951  1.1430  0.0960 -0.0760
 5258SOL    HW116630   1.372   6.942   3.960  0.6385  1.1666  0.7395
 5258SOL    HW216631   1.520   6.916   3.946  0.3848 -0.7328  1.2930
 5259SOL     OW16632   1.208   4.661   0.196 -0.1105 -0.0785 -0.1780
 5259SOL    HW116633   1.225   4.570   0.218  0.7565  0.0718 -0.1788
 5259SOL    HW216634   1.242   4.671   0.107 -0.7720  0.0897 -0.4138
 5260SOL     OW16635   3.481   4.062   6.241 -0.1376 -0.1437  0.5564
 5260SOL    HW116636   3.457   4.152   6.264  0.0868 -0.2253  1.1426
 5260SOL    HW216637   3.570   4.052   6.275  0.1858 -0.2966 -0.3250
 5261SOL     OW16638   7.166   0.351   1.036 -0.5542 -0.2871 -0.1009
 5261SOL    HW116639   7.237   0.304   0.992  0.4734 -0.8427  2.0503
 5261SOL    HW216640   7.190   0.443   1.029 -0.1545 -0.4035 -0.2680
 5262SOL     OW16641   0.946   1.288   2.492 -0.1279  0.6111  0.2376
 5262SOL    HW116642   0.870   1.341   2.468  1.2450  1.9615 -1.3618
 5262SOL    HW216643   1.017   1.320   2.436  1.2909 -1.5621  0.6679
 5263SOL     OW16644   2.557   3.010   5.222  0.1423 -0.3340  0.1164
 5263SOL    HW116645   2.471   2.993   5.182  0.3183  1.6629 -1.2177
 5263SOL    HW216646   2.556   2.958   5.302 -2.0782 -0.8388 -0.1656
 5264SOL     OW16647   6.048   1.405   2.345 -0.4389  0.4560 -0.2349
 5264SOL    HW116648   6.007   1.490   2.329 -1.6756 -0.1012 -0.1829
 5264SOL    HW216649   6.142   1.421   2.337 -0.5352  2.1851  1.4271
 5265SOL     OW16650   1.717   0.154   7.193 -0.2733  0.0102 -0.4986
 5265SOL    HW116651   1.756   0.224   7.140 -0.0446  0.3370  0.1013
 5265SOL    HW216652   1.722   0.186   7.283 -1.9055  0.0624 -0.3898
 5266SOL     OW16653   2.031   4.539   0.538  0.3416  0.1180  0.2571
 5266SOL    HW116654   2.126   4.524   0.538  0.3616  0.2381  0.3024
 5266SOL    HW216655   2.013   4.579   0.623  0.1004 -0.8029  0.6528
 5267SOL     OW16656   1.264   4.160   6.669 -0.1930 -0.0666 -0.2870
 5267SOL    HW116657   1.181   4.156   6.622 -1.3080  1.0510  1.4265
 5267SOL    HW216658   1.278   4.254   6.686 -0.2127 -0.4127  2.0704
 5268SOL     OW16659   5.133   4.671   3.335 -0.7373 -0.1775  0.0481
 5268SOL    HW116660   5.151   4.736   3.268 -1.5463 -0.6005 -0.5965
 5268SOL    HW216661   5.040   4.652   3.326 -0.9503  0.0299  1.5502
 5269SOL     OW16662   1.669   4.553   0.649  0.1716  0.0636  0.9642
 5269SOL    HW116663   1.628   4.468   0.668 -0.1431 -0.1735 -0.6341
 5269SOL    HW216664   1.758   4.531   0.621  0.1342  0.2610  0.6854
 5270SOL     OW16665   4.611   5.824   6.265  0.0496 -0.0888  0.0598
 5270SOL    HW116666   4.524   5.784   6.259 -0.3194  0.5007  1.3337
 5270SOL    HW216667   4.621   5.869   6.181 -1.6810  1.4010  0.5767
 5271SOL     OW16668   2.811   1.706   0.565 -0.2252  0.0006 -0.3705
 5271SOL    HW116669   2.872   1.780   0.573 -0.7678  0.3914  0.2757
 5271SOL    HW216670   2.750   1.717   0.638  1.8143 -3.1459  2.0219
 5272SOL     OW16671   7.033   0.500   5.470 -0.0602  0.5564  0.2131
 5272SOL    HW116672   7.095   0.466   5.407  0.2641 -0.9323  1.2913
 5272SOL    HW216673   6.954   0.448   5.457 -0.2101  0.6812  0.6055
 5273SOL     OW16674   3.126   7.918   5.234 -0.7262 -0.4120  0.3746
 5273SOL    HW116675   3.174   7.948   5.312 -2.3644 -0.5727  1.5002
 5273SOL    HW216676   3.086   7.997   5.198  0.4387 -0.2566 -0.6430
 5274SOL     OW16677   6.840   6.761   7.250 -0.0915  0.8213 -0.7786
 5274SOL    HW116678   6.796   6.747   7.334  0.2992 -0.8068 -0.8100
 5274SOL    HW216679   6.918   6.811   7.272  1.2919 -1.6084  0.2655
 5275SOL     OW16680   1.803   1.297   7.211  0.0781  0.0048 -0.2465
 5275SOL    HW116681   1.766   1.229   7.266 -0.7063  1.4016  1.0155
 5275SOL    HW216682   1.791   1.378   7.260  0.0462  1.2178 -2.1286
 5276SOL     OW16683   3.419   1.914   4.845  0.5073 -0.2584 -0.1791
 5276SOL    HW116684   3.327   1.886   4.842  1.0080 -2.1401  0.3852
 5276SOL    HW216685   3.419   1.999   4.802 -1.4699 -0.2876 -0.3685
 5277SOL     OW16686   2.618   2.512   5.447 -0.0277 -0.0050  0.5168
 5277SOL    HW116687   2.592   2.604   5.450  2.2790  0.6950  1.8503
 5277SOL    HW216688   2.564   2.474   5.378 -0.2266  2.6008 -0.8901
 5278SOL     OW16689   2.689   1.067   6.095 -0.2618  0.6682  0.4622
 5278SOL    HW116690   2.741   1.063   6.175  0.7616  1.5316 -0.1435
 5278SOL    HW216691   2.627   0.994   6.104  0.3176  0.2911  1.6905
 5279SOL     OW16692   3.078   0.454   7.571 -0.1833  0.3247  0.1257
 5279SOL    HW116693   3.168   0.421   7.571  0.1327  1.0967  1.6359
 5279SOL    HW216694   3.060   0.476   7.662 -1.9330  0.1633 -0.1398
 5280SOL     OW16695   4.243   0.618   0.559  0.2214 -0.7610 -0.2670
 5280SOL    HW116696   4.193   0.560   0.617  0.0129 -0.8564 -0.5398
 5280SOL    HW216697   4.238   0.576   0.473  1.6648 -1.3375 -0.0944
 5281SOL     OW16698   2.389   5.471   5.489 -0.5055 -0.3411  0.2832
 5281SOL    HW116699   2.409   5.484   5.396 -1.4412 -0.7552  0.0116
 5281SOL    HW216700   2.378   5.560   5.524  2.1681 -0.0285  0.5791
 5282SOL     OW16701   1.218   4.860   4.510  0.3445 -0.4687 -0.1814
 5282SOL    HW116702   1.151   4.854   4.578  1.5183 -1.3194  0.9390
 5282SOL    HW216703   1.263   4.775   4.513  4.0503  1.3057  1.8675
 5283SOL     OW16704   3.756   6.513   0.277 -0.3475 -0.2063 -0.8370
 5283SOL    HW116705   3.814   6.569   0.328  1.6293 -1.6228 -1.3874
 5283SOL    HW216706   3.767   6.544   0.187 -0.1351 -0.7263 -0.9929
 5284SOL     OW16707   3.997   6.329   7.192  0.4310  0.5229 -0.0370
 5284SOL    HW116708   4.089   6.304   7.181  0.2850  0.3710 -1.0872
 5284SOL    HW216709   3.948   6.259   7.149 -0.3036 -0.3938  2.1734
 5285SOL     OW16710   3.780   6.409   4.284  0.1097 -0.0415  0.0399
 5285SOL    HW116711   3.699   6.408   4.335  0.3884 -1.9653  0.5116
 5285SOL    HW216712   3.845   6.369   4.342  0.6237 -1.5207 -1.4802
 5286SOL     OW16713   4.658   4.276   0.765  0.1146 -0.0878 -0.2274
 5286SOL    HW116714   4.623   4.283   0.854  0.1112 -0.9137 -0.1581
 5286SOL    HW216715   4.713   4.354   0.755 -0.1100  0.1596  0.3925
 5287SOL     OW16716   3.577   0.569   3.346  0.0020 -0.2805  0.5095
 5287SOL    HW116717   3.632   0.494   3.369 -0.4930 -0.7870  0.0656
 5287SOL    HW216718   3.620   0.608   3.269 -0.1094 -0.5136  0.3288
 5288SOL     OW16719   2.479   6.998   1.738  0.5768 -0.7372 -0.0007
 5288SOL    HW116720   2.388   6.971   1.743  0.6196 -0.6451  2.3207
 5288SOL    HW216721   2.478   7.077   1.684 -1.5169  2.0179  3.6022
 5289SOL     OW16722   2.493   1.891   2.877 -0.1477 -0.2737  0.1960
 5289SOL    HW116723   2.433   1.853   2.812 -0.6326 -0.7968  0.9307
 5289SOL    HW216724   2.502   1.982   2.850 -1.0991 -0.2459 -0.0609
 5290SOL     OW16725   7.845   3.849   4.452  0.1756 -0.3514  0.4502
 5290SOL    HW116726   7.939   3.833   4.462  0.1764 -1.6341 -1.1937
 5290SOL    HW216727   7.803   3.776   4.497  0.0106 -0.6039 -0.1026
 5291SOL     OW16728   1.512   3.588   5.020  0.1299 -0.2138 -0.2043
 5291SOL    HW116729   1.583   3.653   5.025  0.3755 -0.3117 -1.9501
 5291SOL    HW216730   1.539   3.528   4.951 -1.9318  0.1303 -1.3985
 5292SOL     OW16731   1.772   1.342   4.023 -0.2516  0.1319  0.5583
 5292SOL    HW116732   1.862   1.353   4.055 -0.4537  0.6154  0.9650
 5292SOL    HW216733   1.764   1.248   4.007  0.8759  0.2842 -1.1323
 5293SOL     OW16734   5.679   2.507   4.580  0.4076  0.9666 -0.7927
 5293SOL    HW116735   5.693   2.597   4.550 -2.1190  0.8924 -2.5748
 5293SOL    HW216736   5.616   2.515   4.652  0.0289  0.6492 -1.0789
 5294SOL     OW16737   3.924   3.812   7.653 -0.2431  0.2905 -0.8345
 5294SOL    HW116738   3.974   3.784   7.729  0.2342  0.0872 -1.2131
 5294SOL    HW216739   3.851   3.750   7.647  0.7061 -0.7995 -1.5639
 5295SOL     OW16740   0.984   1.037   1.595 -0.5407 -0.1563  0.0168
 5295SOL    HW116741   0.926   1.113   1.596  0.2230  0.4370  1.4676
 5295SOL    HW216742   0.930   0.966   1.632 -0.1003  0.6486  2.4175
 5296SOL     OW16743   7.047   5.148   7.548 -0.3555  0.1230  0.3102
 5296SOL    HW116744   7.070   5.158   7.455 -0.3911  1.1322  0.3957
 5296SOL    HW216745   7.074   5.058   7.570 -1.7519 -0.6796 -1.0660
 5297SOL     OW16746   1.714   1.519   6.834  0.0346  0.1270  0.2214
 5297SOL    HW116747   1.694   1.430   6.807 -0.2635 -0.0770  1.0876
 5297SOL    HW216748   1.670   1.529   6.918  1.2750  0.5900  0.8426
 5298SOL     OW16749   0.205   1.229   3.061  0.0202 -0.3651 -0.0219
 5298SOL    HW116750   0.231   1.216   2.970 -1.2229 -0.5440 -0.3707
 5298SOL    HW216751   0.268   1.293   3.095 -0.5804  1.1322 -1.5509
 5299SOL     OW16752   5.439   6.852   7.176  0.0350 -0.2969  0.0423
 5299SOL    HW116753   5.390   6.917   7.228  0.2762 -0.6416  0.7065
 5299SOL    HW216754   5.526   6.850   7.215 -0.7239 -3.0076  1.8598
 5300SOL     OW16755   1.850   4.605   5.207 -0.5205  0.0030  0.5199
 5300SOL    HW116756   1.799   4.539   5.160  0.8841 -0.9696  0.2874
 5300SOL    HW216757   1.842   4.684   5.155 -2.1273  0.0071  0.7258
 5301SOL     OW16758   0.390   7.668   2.749 -0.1868  0.1678 -0.5031
 5301SOL    HW116759   0.300   7.640   2.735  0.0861 -0.8964 -0.2219
 5301SOL    HW216760   0.387   7.716   2.831 -0.0310 -2.4414  1.1577
 5302SOL     OW16761   4.694   0.810   4.458  0.4603  0.5145  0.3440
 5302SOL    HW116762   4.693   0.896   4.501  0.7768  0.2766  0.8354
 5302SOL    HW216763   4.785   0.782   4.464  0.4923  0.4419 -0.4226
 5303SOL     OW16764   6.233   3.925   2.576 -0.0202  0.0505 -0.0080
 5303SOL    HW116765   6.229   4.018   2.554  1.7123 -0.1125 -1.2468
 5303SOL    HW216766   6.304   3.920   2.641 -0.2989 -0.3659  0.2630
 5304SOL     OW16767   1.365   7.545   6.686 -0.0303 -0.3489 -0.1331
 5304SOL    HW116768   1.272   7.563   6.673  0.1842 -1.1559 -4.1601
 5304SOL    HW216769   1.381   7.565   6.778 -4.0660  0.1664  0.6319
 5305SOL     OW16770   3.554   3.896   3.823 -0.1225  0.2217  0.0110
 5305SOL    HW116771   3.475   3.944   3.798 -0.0906 -0.3444 -1.2924
 5305SOL    HW216772   3.597   3.952   3.887 -0.8900  1.1679 -0.2710
 5306SOL     OW16773   1.319   6.707   7.322  0.1755  0.2128  0.0663
 5306SOL    HW116774   1.261   6.778   7.349  1.2646  1.1560  0.0104
 5306SOL    HW216775   1.403   6.750   7.307  0.7937 -1.0610 -0.2088
 5307SOL     OW16776   1.497   2.806   2.937 -0.1628 -0.5202 -0.0294
 5307SOL    HW116777   1.536   2.848   3.014  1.1654 -0.7346 -0.5599
 5307SOL    HW216778   1.566   2.808   2.871 -1.4396  0.1251 -1.4113
 5308SOL     OW16779   5.439   1.497   0.399  0.1554  0.0758 -0.3567
 5308SOL    HW116780   5.431   1.432   0.469  1.0910  0.2562 -0.0629
 5308SOL    HW216781   5.408   1.452   0.321 -0.5151 -0.2628  0.0951
 5309SOL     OW16782   7.429   2.412   5.613  0.5370 -0.2235  0.0612
 5309SOL    HW116783   7.478   2.330   5.613 -0.7966 -1.0597 -0.0409
 5309SOL    HW216784   7.453   2.455   5.695 -0.1623 -1.6371  1.0572
 5310SOL     OW16785   4.063   1.067   7.631  0.0539 -0.9289 -0.0883
 5310SOL    HW116786   4.051   1.130   7.702  2.8252 -0.7974  0.3704
 5310SOL    HW216787   4.090   1.121   7.556 -3.1140 -1.0242 -1.4775
 5311SOL     OW16788   5.059   6.548   2.544  0.5956  0.3111  0.4182
 5311SOL    HW116789   4.991   6.518   2.483  1.3369  0.5240 -0.5514
 5311SOL    HW216790   5.135   6.493   2.524  0.5067 -0.4278  2.0055
 5312SOL     OW16791   0.288   1.688   0.904  0.1068 -0.1806  0.0648
 5312SOL    HW116792   0.312   1.652   0.819  0.1800 -0.9594  0.4091
 5312SOL    HW216793   0.362   1.667   0.961 -0.8402 -1.5696  0.8421
 5313SOL     OW16794   4.388   4.352   3.502 -0.2185 -1.1100  0.2216
 5313SOL    HW116795   4.410   4.349   3.595  0.6912  2.0782  0.2362
 5313SOL    HW216796   4.293   4.339   3.499 -0.3079 -0.8879  1.6537
 5314SOL     OW16797   3.001   2.066   6.771  0.2369 -0.3419 -0.2379
 5314SOL    HW116798   3.024   1.980   6.737  0.5832 -0.5658  0.5424
 5314SOL    HW216799   2.906   2.063   6.783  0.1895 -0.4569 -0.6336
 5315SOL     OW16800   3.613   2.955   2.570  0.0424  0.0796  0.4378
 5315SOL    HW116801   3.610   2.886   2.504 -1.4267  2.0424 -1.7261
 5315SOL    HW216802   3.656   2.915   2.645 -1.0439 -3.2645 -0.5465
 5316SOL     OW16803   2.523   0.161   1.955 -0.2996 -0.2164  0.0495
 5316SOL    HW116804   2.572   0.214   2.018 -0.9623 -1.1628  1.3931
 5316SOL    HW216805   2.432   0.167   1.984 -0.3846 -2.1426  0.2981
 5317SOL     OW16806   0.336   2.205   4.037  0.0940  0.1828 -0.2506
 5317SOL    HW116807   0.370   2.210   3.947 -3.0019  0.4275 -1.5249
 5317SOL    HW216808   0.246   2.176   4.027  0.9144 -4.7501  3.1597
 5318SOL     OW16809   4.101   3.405   3.223 -0.3248  0.6747 -1.1746
 5318SOL    HW116810   4.136   3.426   3.136 -1.9314 -1.1036 -2.3184
 5318SOL    HW216811   4.168   3.350   3.263  0.4160  1.4813 -1.2584
 5319SOL     OW16812   6.520   4.563   3.889 -0.6142  0.0701 -0.0226
 5319SOL    HW116813   6.478   4.648   3.873 -1.2206 -0.0355  0.9703
 5319SOL    HW216814   6.565   4.574   3.973  0.0868 -0.3072 -0.3374
 5320SOL     OW16815   0.314   6.577   2.429 -0.2821  0.3798  0.6377
 5320SOL    HW116816   0.258   6.616   2.362  0.7179 -0.9326 -1.0260
 5320SOL    HW216817   0.254   6.523   2.481 -0.7553 -0.2563 -0.5229
 5321SOL     OW16818   5.707   0.895   3.473 -0.3791 -0.3581 -0.2470
 5321SOL    HW116819   5.663   0.832   3.416 -0.7114 -1.2464  0.9493
 5321SOL    HW216820   5.766   0.841   3.527  1.0349  0.6300 -0.7462
 5322SOL     OW16821   2.267   1.169   7.839 -0.2068  0.4685  0.2516
 5322SOL    HW116822   2.338   1.171   7.903  0.3328  0.7980 -0.3382
 5322SOL    HW216823   2.210   1.241   7.864  0.2034  0.8367  0.1445
 5323SOL     OW16824   5.034   0.287   0.355 -0.6301 -0.3534  0.1877
 5323SOL    HW116825   5.040   0.243   0.440  0.7514 -0.0171  0.2865
 5323SOL    HW216826   4.970   0.356   0.368  0.5806  0.6030  1.4029
 5324SOL     OW16827   0.143   5.580   2.629  0.1424 -0.4547  0.8783
 5324SOL    HW116828   0.139   5.492   2.591 -0.1163  0.0728 -0.3740
 5324SOL    HW216829   0.066   5.624   2.595  0.4355  0.3559  1.2362
 5325SOL     OW16830   7.305   7.079   1.510 -0.1641  0.2250  0.4215
 5325SOL    HW116831   7.364   7.014   1.549  0.2690 -0.0365 -0.6437
 5325SOL    HW216832   7.275   7.131   1.585  1.5499  0.4816  0.9753
 5326SOL     OW16833   1.408   1.912   7.553  0.2554  0.4973 -0.2493
 5326SOL    HW116834   1.351   1.844   7.588  1.4657 -0.4304 -0.0035
 5326SOL    HW216835   1.377   1.993   7.594 -0.6736 -0.0317  0.1105
 5327SOL     OW16836   4.178   5.077   1.052  0.1142 -0.2186  0.8186
 5327SOL    HW116837   4.232   5.008   1.091 -1.3482 -1.5322  0.6062
 5327SOL    HW216838   4.181   5.148   1.116  2.9192  0.2318  0.3426
 5328SOL     OW16839   3.820   3.446   7.314  0.6475  0.3286 -0.1892
 5328SOL    HW116840   3.776   3.458   7.398  1.1404  1.1055 -0.0296
 5328SOL    HW216841   3.894   3.507   7.317  0.8929  0.0855 -1.0318
 5329SOL     OW16842   0.259   7.390   5.578  0.4214  0.0036  0.2042
 5329SOL    HW116843   0.198   7.351   5.641  0.5729  0.9205  0.9535
 5329SOL    HW216844   0.203   7.419   5.506  0.0640  0.1437  0.5289
 5330SOL     OW16845   7.738   6.522   2.584  0.8466  0.2905 -0.1042
 5330SOL    HW116846   7.669   6.456   2.576  0.9093  0.4380 -2.9413
 5330SOL    HW216847   7.758   6.546   2.494  2.6935  2.2804  0.7567
 5331SOL     OW16848   1.977   3.109   5.322 -0.5822  0.6193  0.0108
 5331SOL    HW116849   1.891   3.149   5.311 -1.2013 -0.9897 -1.5029
 5331SOL    HW216850   1.959   3.016   5.331  0.8878  0.4876  2.2580
 5332SOL     OW16851   3.424   4.922   7.338 -0.2914 -0.1746  0.0485
 5332SOL    HW116852   3.462   4.859   7.276  0.0413  0.6374 -0.5861
 5332SOL    HW216853   3.498   4.948   7.393 -0.2388  0.3138 -0.2516
 5333SOL     OW16854   2.067   3.113   5.810  0.3856  0.6279  0.1322
 5333SOL    HW116855   2.006   3.040   5.803 -0.0150  1.0404 -0.7830
 5333SOL    HW216856   2.011   3.191   5.814  0.8429  0.9775 -0.1849
 5334SOL     OW16857   6.181   2.020   3.017 -0.5676 -0.6688  0.3737
 5334SOL    HW116858   6.168   2.088   3.083  0.8847  0.7792 -0.7331
 5334SOL    HW216859   6.276   2.006   3.015 -0.7182 -1.7287 -0.4078
 5335SOL     OW16860   7.391   6.294   7.749 -0.1149 -0.0083  0.0225
 5335SOL    HW116861   7.374   6.305   7.655 -3.4328  0.2704  0.5382
 5335SOL    HW216862   7.406   6.383   7.781 -0.5738  0.0825 -0.0088
 5336SOL     OW16863   2.534   1.623   4.708 -0.3990  0.2158  0.2529
 5336SOL    HW116864   2.576   1.647   4.626 -0.2203  0.2222  0.3458
 5336SOL    HW216865   2.580   1.543   4.736  0.5640  1.0522  1.1190
 5337SOL     OW16866   4.344   1.316   1.925 -0.3033  0.3547  0.3249
 5337SOL    HW116867   4.312   1.249   1.985  0.8041  0.2693  0.8499
 5337SOL    HW216868   4.340   1.397   1.975  2.7130 -0.0240  1.4146
 5338SOL     OW16869   4.506   1.784   4.119  0.9350  0.4430  0.3421
 5338SOL    HW116870   4.502   1.785   4.023  1.5050  1.1170  0.3188
 5338SOL    HW216871   4.480   1.695   4.142 -1.5031  0.9262 -0.3067
 5339SOL     OW16872   4.679   1.061   3.724  0.3023  0.0088 -1.1470
 5339SOL    HW116873   4.768   1.027   3.716 -0.5216 -2.3086 -1.4772
 5339SOL    HW216874   4.654   1.084   3.634  0.7093  1.1199 -0.9862
 5340SOL     OW16875   1.457   4.414   4.053  0.1768  0.0204 -0.1501
 5340SOL    HW116876   1.391   4.382   4.115 -1.1235  0.0638 -1.4655
 5340SOL    HW216877   1.417   4.491   4.013  1.8741  1.2673  0.4773
 5341SOL     OW16878   2.228   3.038   0.269  0.0590  0.1133 -0.3532
 5341SOL    HW116879   2.214   2.945   0.247  2.1631 -0.2287 -0.5095
 5341SOL    HW216880   2.292   3.036   0.340 -0.1460  1.4626 -0.1019
 5342SOL     OW16881   0.522   5.904   4.270 -0.5942  0.0380  0.1458
 5342SOL    HW116882   0.540   5.872   4.182  3.3957  1.3702  0.2461
 5342SOL    HW216883   0.580   5.852   4.326 -3.5039 -1.2346  2.2240
 5343SOL     OW16884   5.656   3.800   7.180 -0.0088 -0.3224  0.1958
 5343SOL    HW116885   5.667   3.885   7.223 -2.6297 -0.2201  0.7998
 5343SOL    HW216886   5.744   3.779   7.147  0.4399  3.3384 -1.3877
 5344SOL     OW16887   7.968   3.286   3.622  0.0536 -0.2074  0.1923
 5344SOL    HW116888   8.032   3.304   3.691  0.9006  0.3804 -0.7196
 5344SOL    HW216889   7.900   3.351   3.634  0.6539  0.4845 -0.0636
 5345SOL     OW16890   6.118   3.868   4.593 -0.2015  0.5622  0.3896
 5345SOL    HW116891   6.144   3.806   4.525  1.9579  1.3603  0.3825
 5345SOL    HW216892   6.037   3.907   4.560  0.8949  1.0970 -1.8959
 5346SOL     OW16893   2.180   2.049   4.095  0.3510  0.2976 -0.2492
 5346SOL    HW116894   2.111   2.083   4.152  0.4573  0.7039 -0.3547
 5346SOL    HW216895   2.169   2.098   4.013  0.7585  0.3571 -0.2701
 5347SOL     OW16896   1.579   7.466   3.294 -0.0487 -0.5437  0.3463
 5347SOL    HW116897   1.603   7.518   3.217 -1.8948 -0.1450  0.0107
 5347SOL    HW216898   1.663   7.450   3.339  0.8212  0.8489 -0.7100
 5348SOL     OW16899   6.313   2.303   5.311 -0.4612  0.1625  0.2110
 5348SOL    HW116900   6.318   2.261   5.224  0.5022 -0.5658  0.5998
 5348SOL    HW216901   6.390   2.360   5.314 -0.2028 -0.2164  0.7875
 5349SOL     OW16902   0.439   3.318   0.138  0.0230 -0.4179  0.0540
 5349SOL    HW116903   0.368   3.343   0.080 -0.4466 -1.7030  0.0479
 5349SOL    HW216904   0.415   3.231   0.170  1.1317 -0.4793  0.7897
 5350SOL     OW16905   0.110   2.327   0.141  0.0679  0.7942  0.4663
 5350SOL    HW116906   0.192   2.329   0.092 -1.1503  1.8240 -1.6782
 5350SOL    HW216907   0.103   2.237   0.173  1.4246  0.3576 -0.3655
 5351SOL     OW16908   3.933   5.977   6.609  0.0666  0.0921 -0.3084
 5351SOL    HW116909   3.984   5.897   6.621  0.4560  0.7658  4.2617
 5351SOL    HW216910   3.993   6.037   6.564  1.1937 -0.9762 -0.2936
 5352SOL     OW16911   6.458   3.727   3.228  0.1514 -0.4645  0.0231
 5352SOL    HW116912   6.384   3.774   3.265 -1.2443 -1.8392 -0.9055
 5352SOL    HW216913   6.433   3.634   3.232  1.4689 -0.9073 -1.0402
 5353SOL     OW16914   6.072   6.461   5.535 -0.1461 -0.9210  0.0238
 5353SOL    HW116915   6.164   6.469   5.563  0.1670 -2.5669 -0.4797
 5353SOL    HW216916   6.059   6.536   5.476  1.4573 -1.7099 -1.4116
 5354SOL     OW16917   5.315   3.439   4.280  0.3847  0.4273 -0.0958
 5354SOL    HW116918   5.294   3.506   4.345  1.7263  0.7658  0.0091
 5354SOL    HW216919   5.358   3.486   4.210 -0.8099  0.0204 -1.1461
 5355SOL     OW16920   5.466   1.615   1.686 -0.3429 -0.3382 -0.6879
 5355SOL    HW116921   5.522   1.649   1.616  1.1097  0.8345  0.9514
 5355SOL    HW216922   5.377   1.633   1.656  0.1816 -0.5360 -2.5246
 5356SOL     OW16923   7.503   7.619   6.441  0.0754 -0.3536  0.0644
 5356SOL    HW116924   7.534   7.641   6.528  0.8548 -1.5324  0.1107
 5356SOL    HW216925   7.568   7.558   6.407 -1.4760 -1.8772 -0.3619
 5357SOL     OW16926   1.793   1.152   1.570  0.3450  0.3999  0.4658
 5357SOL    HW116927   1.788   1.180   1.478 -1.6102  1.8460  0.9525
 5357SOL    HW216928   1.853   1.216   1.611 -0.2637  0.9117  0.5686
 5358SOL     OW16929   6.252   7.172   6.753  0.1993 -0.4267 -0.0429
 5358SOL    HW116930   6.171   7.127   6.779 -0.4707  0.9151  0.2791
 5358SOL    HW216931   6.229   7.216   6.671  0.4783  0.2755  0.2496
 5359SOL     OW16932   1.106   6.418   0.444 -0.0845 -0.5960  0.7810
 5359SOL    HW116933   1.145   6.452   0.525 -0.0105 -0.7017  0.7901
 5359SOL    HW216934   1.027   6.372   0.472  0.5457 -1.6344  0.9267
 5360SOL     OW16935   5.043   6.999   2.059  0.2934 -0.5892  0.4525
 5360SOL    HW116936   5.130   6.960   2.060  0.4229 -0.3008  0.5221
 5360SOL    HW216937   5.054   7.082   2.013 -0.3830 -1.5476 -1.5882
 5361SOL     OW16938   6.264   6.223   7.503 -0.5509  0.6316 -0.3145
 5361SOL    HW116939   6.289   6.246   7.413  0.1464  1.8081  0.1521
 5361SOL    HW216940   6.340   6.175   7.537  0.6245  2.9422  0.6276
 5362SOL     OW16941   5.190   2.668   3.458 -0.1349 -0.4403 -0.5567
 5362SOL    HW116942   5.283   2.689   3.467 -0.2232 -0.1516 -0.2997
 5362SOL    HW216943   5.175   2.600   3.524 -0.3253  0.2162  0.0804
 5363SOL     OW16944   3.004   0.973   7.588  0.0421  0.2010  0.1572
 5363SOL    HW116945   3.075   1.015   7.636 -0.5870  1.1506  0.2738
 5363SOL    HW216946   3.034   0.972   7.497 -0.4934  2.1608 -0.0748
 5364SOL     OW16947   5.095   6.304   6.826 -0.3420 -0.6245 -0.0208
 5364SOL    HW116948   5.037   6.326   6.753 -0.3242  0.7601  0.3432
 5364SOL    HW216949   5.086   6.378   6.887 -0.3218 -1.7285  1.3657
 5365SOL     OW16950   6.903   1.052   6.124  0.8509  0.6502  0.3675
 5365SOL    HW116951   6.903   1.147   6.132 -1.9919  0.7434  0.1982
 5365SOL    HW216952   6.930   1.021   6.211 -0.4510  1.6474  1.1624
 5366SOL     OW16953   1.635   4.331   5.427 -0.1582 -0.6489  0.2067
 5366SOL    HW116954   1.709   4.273   5.407  1.6888  1.2399  1.2689
 5366SOL    HW216955   1.656   4.369   5.512 -1.0202  1.9531 -0.6546
 5367SOL     OW16956   7.807   0.251   7.044 -0.1919  0.6854 -0.4137
 5367SOL    HW116957   7.716   0.260   7.014 -0.3750 -2.5163 -1.2215
 5367SOL    HW216958   7.859   0.279   6.969 -0.5828 -0.1504 -1.0190
 5368SOL     OW16959   1.907   0.936   2.212 -0.0193 -0.3519  0.2587
 5368SOL    HW116960   1.814   0.957   2.200  0.4295  1.4927 -0.2798
 5368SOL    HW216961   1.927   0.873   2.143 -0.5016  0.4644 -0.6447
 5369SOL     OW16962   3.234   3.815   5.858  0.0186  0.3740  0.6905
 5369SOL    HW116963   3.245   3.761   5.935  2.3401 -1.3557 -0.7440
 5369SOL    HW216964   3.301   3.883   5.866 -0.5894  0.9734  0.7975
 5370SOL     OW16965   4.500   3.641   2.277 -0.0592 -0.3409  0.1759
 5370SOL    HW116966   4.485   3.733   2.253  0.7469 -0.7290 -2.0274
 5370SOL    HW216967   4.589   3.623   2.247 -0.1038 -1.7873  0.8399
 5371SOL     OW16968   5.751   7.123   7.312  0.3367 -0.0333  0.0569
 5371SOL    HW116969   5.817   7.180   7.353 -1.2387  1.9344 -0.0043
 5371SOL    HW216970   5.780   7.115   7.221  0.2017  1.3290 -0.1217
 5372SOL     OW16971   4.818   4.785   5.061  0.0091  0.5289  0.3288
 5372SOL    HW116972   4.805   4.781   5.156  0.2797 -2.0070  0.3426
 5372SOL    HW216973   4.854   4.699   5.039 -1.3698  0.5155 -2.2616
 5373SOL     OW16974   2.956   3.699   0.056  0.7995  0.0397  0.3823
 5373SOL    HW116975   2.905   3.750   0.119  1.5020 -0.6362  1.5270
 5373SOL    HW216976   2.895   3.635   0.021  0.0108  1.3447 -0.7701
 5374SOL     OW16977   2.401   0.365   4.385 -0.0046 -0.5616 -0.5898
 5374SOL    HW116978   2.469   0.379   4.320  0.0263  0.3873 -0.3749
 5374SOL    HW216979   2.391   0.270   4.391  0.3551 -0.6656 -1.5903
 5375SOL     OW16980   6.148   4.963   7.484  0.4692  0.4858  0.5537
 5375SOL    HW116981   6.107   4.877   7.487 -1.2346  1.2409 -0.2669
 5375SOL    HW216982   6.242   4.945   7.475 -0.0122 -1.2798 -1.3017
 5376SOL     OW16983   2.378   4.611   6.519  0.2932  0.1123 -0.1781
 5376SOL    HW116984   2.306   4.604   6.581  0.5945 -0.7008  0.1008
 5376SOL    HW216985   2.336   4.620   6.433 -0.1331  0.3016  0.0514
 5377SOL     OW16986   6.707   6.340   4.588  0.5511 -0.0375 -0.0443
 5377SOL    HW116987   6.631   6.287   4.612  0.1240  1.1524  1.4281
 5377SOL    HW216988   6.782   6.288   4.616  0.1196  0.3299  1.9753
 5378SOL     OW16989   7.651   7.780   7.920 -0.3548  0.6089  0.1239
 5378SOL    HW116990   7.605   7.854   7.881  0.4009  0.6617 -0.7108
 5378SOL    HW216991   7.588   7.741   7.980 -0.6082  2.2326  0.9807
 5379SOL     OW16992   5.162   2.830   5.575  0.0842  0.7518 -0.4013
 5379SOL    HW116993   5.171   2.751   5.522 -0.3362  0.5878 -0.2306
 5379SOL    HW216994   5.143   2.799   5.663  1.4489  1.0118  0.0088
 5380SOL     OW16995   3.313   6.055   5.608  0.0742  0.4669  0.7763
 5380SOL    HW116996   3.305   6.075   5.515  0.6609 -0.0085  0.6176
 5380SOL    HW216997   3.294   5.961   5.614  0.5753  0.3802  1.0564
 5381SOL     OW16998   1.249   1.225   5.566 -0.0223 -0.0567  0.3512
 5381SOL    HW116999   1.158   1.221   5.535  0.0366 -2.1313  0.2824
 5381SOL    HW217000   1.288   1.297   5.516 -1.6226  0.8987  0.4087
 5382SOL     OW17001   2.905   6.572   3.267  0.1539  0.3315 -0.2673
 5382SOL    HW117002   2.823   6.537   3.233 -0.2240  1.0252 -0.0719
 5382SOL    HW217003   2.950   6.607   3.190 -0.8420  2.1885 -0.0464
 5383SOL     OW17004   2.266   2.111   4.426  0.0869 -0.4562 -0.7054
 5383SOL    HW117005   2.205   2.038   4.409  0.8206 -0.8415 -1.7878
 5383SOL    HW217006   2.216   2.189   4.404 -0.9569 -0.5222  1.1312
 5384SOL     OW17007   4.917   5.662   1.960  0.1110  0.4767 -0.1144
 5384SOL    HW117008   5.001   5.652   2.006  1.9139  1.4389 -2.9242
 5384SOL    HW217009   4.864   5.588   1.990  2.8261 -1.5349  0.0897
 5385SOL     OW17010   0.761   6.825   2.009  0.2317  0.0108 -0.9051
 5385SOL    HW117011   0.716   6.849   2.090 -1.3586 -2.0479 -1.0658
 5385SOL    HW217012   0.831   6.889   2.000 -0.6483  1.3788  1.1436
 5386SOL     OW17013   4.111   1.763   3.825 -0.2576  0.2481  0.6972
 5386SOL    HW117014   4.043   1.780   3.760  0.3069  0.0736  0.0433
 5386SOL    HW217015   4.175   1.833   3.811  0.1093 -0.0808  0.7302
 5387SOL     OW17016   7.902   2.555   2.508 -0.3920  0.6418  0.4470
 5387SOL    HW117017   7.911   2.631   2.565  0.9273 -0.6481  2.0596
 5387SOL    HW217018   7.871   2.485   2.567  2.0845 -1.0334 -0.0780
 5388SOL     OW17019   3.094   4.106   2.453 -0.6380  0.0679 -0.9631
 5388SOL    HW117020   3.079   4.097   2.547 -1.3485  0.2586 -1.0496
 5388SOL    HW217021   3.185   4.081   2.440 -0.3631  0.6271 -0.1423
 5389SOL     OW17022   5.396   0.402   1.147  0.1424 -0.2717  0.1354
 5389SOL    HW117023   5.369   0.466   1.081 -0.5779  0.4263  1.0848
 5389SOL    HW217024   5.406   0.453   1.227  2.7362 -0.7818  0.2247
 5390SOL     OW17025   0.311   2.388   5.473  0.5423  0.0505 -0.2538
 5390SOL    HW117026   0.291   2.471   5.515  1.8428  0.2392  0.0529
 5390SOL    HW217027   0.331   2.412   5.382  0.0154 -0.0478 -0.3955
 5391SOL     OW17028   3.242   3.366   2.732 -0.3547 -0.7669 -0.3558
 5391SOL    HW117029   3.302   3.407   2.671 -0.0528 -1.0486 -0.2497
 5391SOL    HW217030   3.156   3.400   2.708 -0.0454  0.4436  0.1466
 5392SOL     OW17031   2.312   3.643   2.276  0.2523 -0.1399 -0.1827
 5392SOL    HW117032   2.386   3.599   2.318 -0.8388 -2.7133 -0.8153
 5392SOL    HW217033   2.341   3.734   2.265  3.8719 -1.3146 -1.6640
 5393SOL     OW17034   4.355   1.033   5.740 -0.2115  0.6207  0.4558
 5393SOL    HW117035   4.367   1.043   5.645  0.2405  1.9733  0.6388
 5393SOL    HW217036   4.441   1.006   5.772 -0.3271  0.3042  0.4966
 5394SOL     OW17037   0.906   3.933   4.455  0.2532 -0.4410 -0.1597
 5394SOL    HW117038   0.899   4.024   4.428  1.8707 -0.4234 -0.6403
 5394SOL    HW217039   0.898   3.935   4.551 -3.0156 -0.2239 -0.3272
 5395SOL     OW17040   3.742   6.997   2.584  0.4807  0.3698 -0.0300
 5395SOL    HW117041   3.823   7.014   2.536 -0.1560  0.2787 -1.1802
 5395SOL    HW217042   3.687   7.074   2.567  0.2817  0.3979  0.6716
 5396SOL     OW17043   0.681   7.954   7.122  0.4107  0.7605 -0.8341
 5396SOL    HW117044   0.690   8.010   7.199  0.6875 -1.8956  1.2293
 5396SOL    HW217045   0.588   7.959   7.099 -0.4456 -0.9268  1.8589
 5397SOL     OW17046   5.857   2.434   4.170  0.1291  0.0698  0.2914
 5397SOL    HW117047   5.845   2.396   4.083  0.4053 -1.1328  0.7667
 5397SOL    HW217048   5.845   2.528   4.156 -1.4147 -0.2428 -0.7622
 5398SOL     OW17049   3.520   4.764   3.059  0.0662  0.2924  0.2511
 5398SOL    HW117050   3.611   4.791   3.072  0.6938 -1.5333 -0.0288
 5398SOL    HW217051   3.490   4.813   2.982  1.3125 -0.2011 -0.5727
 5399SOL     OW17052   5.234   4.807   0.493  0.3377  0.0724 -0.2230
 5399SOL    HW117053   5.310   4.782   0.440  0.3475  0.0251 -0.1865
 5399SOL    HW217054   5.221   4.733   0.553  1.5748  0.9763  1.2417
 5400SOL     OW17055   1.212   2.695   1.820  0.2574  0.1716  0.3342
 5400SOL    HW117056   1.285   2.754   1.800 -0.0092  0.1813 -0.6999
 5400SOL    HW217057   1.148   2.713   1.750  0.0413 -1.1175  0.1875
 5401SOL     OW17058   7.059   5.726   3.274  0.0818 -0.0470  0.9203
 5401SOL    HW117059   7.078   5.714   3.181  2.1415 -1.6125  1.4717
 5401SOL    HW217060   6.966   5.749   3.277 -0.3672 -1.2502 -1.4426
 5402SOL     OW17061   4.353   3.989   3.615 -0.1311  0.0397 -0.2787
 5402SOL    HW117062   4.343   3.940   3.696  2.0391 -0.8210 -0.4619
 5402SOL    HW217063   4.264   3.997   3.581 -1.0719  0.2619  2.0462
 5403SOL     OW17064   0.385   6.912   4.087  0.0059  0.6762 -0.2759
 5403SOL    HW117065   0.437   6.948   4.158 -0.3195 -1.4542  1.1435
 5403SOL    HW217066   0.385   6.980   4.020  1.2320  2.3313  1.3086
 5404SOL     OW17067   4.769   6.466   7.089 -0.4667  0.1024  0.3526
 5404SOL    HW117068   4.747   6.506   7.004 -0.7460 -1.5918 -0.4150
 5404SOL    HW217069   4.861   6.443   7.082 -0.0414  1.4061  1.1639
 5405SOL     OW17070   3.291   0.066   5.996  0.4415  0.2279  0.2527
 5405SOL    HW117071   3.312   0.082   5.904  0.1681  0.2412  0.1932
 5405SOL    HW217072   3.301  -0.028   6.007  0.3388  0.2086  0.1772
 5406SOL     OW17073   3.734   1.446   5.500  0.9111  0.4620 -0.0809
 5406SOL    HW117074   3.767   1.387   5.432  1.3167  1.5667 -0.8534
 5406SOL    HW217075   3.713   1.387   5.574 -1.5191 -1.0566 -1.8289
 5407SOL     OW17076   4.862   1.134   1.858  0.0793  0.5057  0.1466
 5407SOL    HW117077   4.832   1.050   1.824  2.2706 -0.5444  0.5928
 5407SOL    HW217078   4.785   1.172   1.900 -1.1488 -0.9339 -0.7004
 5408SOL     OW17079   7.528   4.655   0.822  0.3715  0.1388 -0.2115
 5408SOL    HW117080   7.445   4.616   0.850  0.1377  0.4888 -0.4089
 5408SOL    HW217081   7.595   4.605   0.868  0.0590 -0.2678 -0.1912
 5409SOL     OW17082   4.177   7.824   5.405  0.0933  0.2853 -0.6808
 5409SOL    HW117083   4.123   7.902   5.389  2.1069  1.7485 -0.7377
 5409SOL    HW217084   4.167   7.771   5.326 -1.2612  0.4892 -0.6690
 5410SOL     OW17085   0.244   4.509   2.565 -0.3168 -0.4252  1.2096
 5410SOL    HW117086   0.300   4.559   2.506  0.1573 -1.7808  0.4680
 5410SOL    HW217087   0.155   4.528   2.536 -0.0673 -2.4417 -1.1785
 5411SOL     OW17088   6.203   3.221   6.026 -0.1716  0.3702 -0.0530
 5411SOL    HW117089   6.275   3.226   6.088  0.3257  3.2933 -0.7269
 5411SOL    HW217090   6.138   3.283   6.060 -0.9360  0.2355 -1.2111
 5412SOL     OW17091   2.313   3.915   5.755 -0.2914 -0.3324 -0.2567
 5412SOL    HW117092   2.314   4.006   5.786 -1.8748  0.2609 -1.7360
 5412SOL    HW217093   2.363   3.917   5.674 -1.0356 -0.5686 -0.7353
 5413SOL     OW17094   2.586   7.436   1.714  0.2959 -0.2942  0.1242
 5413SOL    HW117095   2.615   7.387   1.792  1.6998  1.2295  0.6041
 5413SOL    HW217096   2.526   7.502   1.749 -0.3231 -0.6228 -0.3078
 5414SOL     OW17097   4.574   6.563   6.608  0.2911  0.3064  0.1802
 5414SOL    HW117098   4.609   6.474   6.603 -0.9273 -0.3003  1.6553
 5414SOL    HW217099   4.484   6.552   6.638 -0.1856  2.0022 -0.4994
 5415SOL     OW17100   4.054   3.687   1.286  0.0097  0.4388  0.3609
 5415SOL    HW117101   3.962   3.671   1.307  0.2256 -2.1785 -0.3374
 5415SOL    HW217102   4.066   3.646   1.200  1.4385  2.2858 -0.3811
 5416SOL     OW17103   5.181   2.909   6.541  0.0075 -0.0170  0.0958
 5416SOL    HW117104   5.143   2.950   6.619  1.3422 -0.5155  1.0524
 5416SOL    HW217105   5.253   2.967   6.516  0.0687 -0.2629 -0.3066
 5417SOL     OW17106   3.122   6.780   0.091  0.0531 -0.1564  0.1305
 5417SOL    HW117107   3.129   6.849   0.156  0.2993 -0.3296  0.2894
 5417SOL    HW217108   3.058   6.813   0.027 -0.6064 -0.2193  0.7478
 5418SOL     OW17109   6.449   0.599   7.102  0.0450  0.6670  0.3599
 5418SOL    HW117110   6.467   0.551   7.021  0.3323  0.7649  0.3635
 5418SOL    HW217111   6.436   0.532   7.168  1.1685  0.5958  0.5223
 5419SOL     OW17112   3.652   2.599   2.814 -0.7150 -0.1430 -0.0922
 5419SOL    HW117113   3.607   2.516   2.826 -1.1656 -0.3503 -2.5941
 5419SOL    HW217114   3.739   2.585   2.850 -0.9283 -1.5500 -0.0643
 5420SOL     OW17115   5.473   1.348   1.685  0.1605 -0.0722 -0.5187
 5420SOL    HW117116   5.542   1.345   1.619 -1.0335  1.9363 -1.9608
 5420SOL    HW217117   5.465   1.441   1.706 -1.3510 -0.3954  0.4375
 5421SOL     OW17118   0.394   3.072   0.222  0.0350 -0.1228  0.1031
 5421SOL    HW117119   0.375   3.018   0.145 -3.0813  2.8929 -1.5753
 5421SOL    HW217120   0.355   3.024   0.295 -1.9415 -0.6170 -1.1796
 5422SOL     OW17121   5.425   4.622   4.727 -0.1889 -0.0968 -0.2276
 5422SOL    HW117122   5.478   4.699   4.706 -0.0503  0.6839  2.5438
 5422SOL    HW217123   5.376   4.648   4.805  1.5946 -3.5122  2.2851
 5423SOL     OW17124   5.623   7.453   7.810 -0.0066 -0.2340 -0.3487
 5423SOL    HW117125   5.582   7.463   7.725 -0.7803 -0.1227  0.0347
 5423SOL    HW217126   5.707   7.499   7.802 -0.9824  1.6219 -0.3984
 5424SOL     OW17127   2.422   4.558   4.447 -0.4477  0.2833 -0.4319
 5424SOL    HW117128   2.465   4.473   4.453 -2.9207 -1.0420 -0.1547
 5424SOL    HW217129   2.483   4.619   4.488  0.3234 -1.7959  1.7262
 5425SOL     OW17130   7.237   6.267   4.545  0.1395 -0.4272  0.1729
 5425SOL    HW117131   7.255   6.357   4.572 -1.7233  0.2619 -0.7190
 5425SOL    HW217132   7.238   6.217   4.627  2.9214  0.0012  0.5136
 5426SOL     OW17133   4.132   6.505   6.115 -0.4874  0.4421  0.4886
 5426SOL    HW117134   4.150   6.571   6.182 -0.1126  2.2934 -1.3274
 5426SOL    HW217135   4.201   6.439   6.127  0.0674  1.1593  1.3902
 5427SOL     OW17136   2.993   2.326   7.342 -0.0126 -0.4919  0.2719
 5427SOL    HW117137   2.935   2.351   7.415  1.6250 -1.0065  1.8250
 5427SOL    HW217138   3.081   2.325   7.381  1.1914  1.0879 -2.1946
 5428SOL     OW17139   5.821   6.891   1.987  0.1776 -0.6147  0.4856
 5428SOL    HW117140   5.821   6.957   1.918 -0.5709 -0.5972  0.4985
 5428SOL    HW217141   5.826   6.807   1.940 -1.0561 -0.6334  0.3709
 5429SOL     OW17142   2.764   7.578   7.317 -0.0135 -0.4356  0.7121
 5429SOL    HW117143   2.705   7.612   7.384 -0.0923 -0.6900  0.7748
 5429SOL    HW217144   2.713   7.511   7.272 -0.6681  1.1029 -0.9473
 5430SOL     OW17145   3.967   4.780   6.199 -0.8009 -0.5103 -0.2568
 5430SOL    HW117146   3.945   4.757   6.289 -2.1490 -1.5873 -0.8381
 5430SOL    HW217147   4.046   4.730   6.180 -0.1703  0.1624  0.4808
 5431SOL     OW17148   6.520   5.999   6.569 -0.1685  0.2079 -0.5675
 5431SOL    HW117149   6.459   5.929   6.549  1.2349 -1.5190  0.8165
 5431SOL    HW217150   6.580   5.961   6.633  1.1444  2.4407 -0.3505
 5432SOL     OW17151   5.922   4.726   3.323  0.1984  0.8997 -0.6573
 5432SOL    HW117152   6.013   4.747   3.344 -0.0650  0.9667  0.4937
 5432SOL    HW217153   5.916   4.631   3.332  0.3994  0.7520 -1.8325
 5433SOL     OW17154   7.785   6.660   0.283  0.3463  0.0843 -0.3492
 5433SOL    HW117155   7.859   6.643   0.342 -0.0411 -0.6327 -0.0550
 5433SOL    HW217156   7.822   6.654   0.195  1.1940  2.3441 -0.2028
 5434SOL     OW17157   0.858   3.172   0.471  0.3113 -0.6794 -0.0182
 5434SOL    HW117158   0.823   3.104   0.413 -1.2144  0.4246 -0.4671
 5434SOL    HW217159   0.785   3.196   0.527  0.5627  1.1040 -0.3843
 5435SOL     OW17160   4.898   3.229   6.044 -0.8824 -0.0500  0.3599
 5435SOL    HW117161   4.979   3.280   6.048 -1.3640  0.8514 -0.8034
 5435SOL    HW217162   4.900   3.174   6.122  0.8848 -0.1098  0.3076
 5436SOL     OW17163   0.750   2.657   5.005  0.3576  0.2365  0.0725
 5436SOL    HW117164   0.750   2.680   5.098  0.1841 -1.1382  0.4415
 5436SOL    HW217165   0.674   2.703   4.970  1.0719  1.6805  0.3464
 5437SOL     OW17166   6.861   0.977   5.551  0.0340  0.0917 -0.2572
 5437SOL    HW117167   6.782   1.000   5.600  0.4455  0.1884  0.3691
 5437SOL    HW217168   6.902   0.908   5.603  1.6974  1.8035  0.8020
 5438SOL     OW17169   3.337   4.576   3.456  0.3806 -0.1754 -0.2693
 5438SOL    HW117170   3.366   4.613   3.540  0.8967 -2.2600  0.5221
 5438SOL    HW217171   3.372   4.637   3.391  1.3462  0.6506  0.9516
 5439SOL     OW17172   0.203   7.992   4.613  0.4626  0.0917  0.5259
 5439SOL    HW117173   0.114   8.012   4.640  0.1159 -0.3677 -0.2363
 5439SOL    HW217174   0.227   8.063   4.553 -0.1130 -0.7742 -0.7762
 5440SOL     OW17175   2.579   4.077   4.089  0.0934 -0.2060  0.1098
 5440SOL    HW117176   2.538   4.030   4.163 -0.9128 -0.4122 -0.5558
 5440SOL    HW217177   2.625   4.008   4.041 -0.2578 -0.2853 -0.1175
 5441SOL     OW17178   2.058   2.750   3.068  0.0769  0.0365 -0.1291
 5441SOL    HW117179   2.010   2.763   3.150  0.8211  1.2891  0.1264
 5441SOL    HW217180   2.030   2.822   3.012 -0.4920 -0.8614 -1.0212
 5442SOL     OW17181   3.218   4.784   1.950  0.0218  0.0735  0.3171
 5442SOL    HW117182   3.142   4.842   1.945 -2.7801 -3.2694  0.0754
 5442SOL    HW217183   3.230   4.752   1.860  1.9919  0.7412  0.2870
 5443SOL     OW17184   5.207   4.476   5.614 -0.6109 -0.3269 -0.7197
 5443SOL    HW117185   5.145   4.404   5.602  0.1779 -1.1722  0.1246
 5443SOL    HW217186   5.263   4.448   5.686  0.9950  0.2462 -1.6963
 5444SOL     OW17187   3.944   5.041   3.925  0.1340  0.5523 -0.1652
 5444SOL    HW117188   3.852   5.016   3.933  0.0500  1.3594  2.4402
 5444SOL    HW217189   3.993   4.959   3.934 -0.2840 -0.0189 -2.5399
 5445SOL     OW17190   1.159   4.890   3.482 -0.0481  0.0056  0.1089
 5445SOL    HW117191   1.106   4.951   3.431 -0.8655 -1.0527 -0.3687
 5445SOL    HW217192   1.238   4.877   3.430 -0.7739 -0.8841 -0.8115
 5446SOL     OW17193   6.792   2.299   1.721  0.1397  0.3752 -0.1391
 5446SOL    HW117194   6.840   2.268   1.798 -1.4618 -1.7928  0.1021
 5446SOL    HW217195   6.744   2.376   1.752 -1.0562 -0.8767  1.3519
 5447SOL     OW17196   4.914   4.146   7.531  0.5013  0.5881  0.0700
 5447SOL    HW117197   4.882   4.228   7.570 -1.4552 -0.1704  0.1863
 5447SOL    HW217198   4.860   4.078   7.572  1.6732 -0.7138 -0.4726
 5448SOL     OW17199   0.800   5.637   6.721  0.1859 -0.0569 -0.3293
 5448SOL    HW117200   0.867   5.673   6.781  1.1525 -1.1637 -0.7064
 5448SOL    HW217201   0.785   5.707   6.657 -0.9429  1.2004  1.2081
 5449SOL     OW17202   7.091   7.345   1.198  0.3718 -0.2779 -0.1651
 5449SOL    HW117203   7.076   7.438   1.182 -0.7797 -0.2305  1.0113
 5449SOL    HW217204   7.020   7.319   1.257  0.5712 -1.9479 -0.6146
 5450SOL     OW17205   4.100   7.617   4.031  0.2021  0.0022 -0.1834
 5450SOL    HW117206   4.026   7.609   4.090  2.0248 -1.0394  2.1082
 5450SOL    HW217207   4.090   7.704   3.991 -0.9604  0.9013  1.8997
 5451SOL     OW17208   6.509   1.915   6.844  0.4975  0.5598 -0.2238
 5451SOL    HW117209   6.538   1.829   6.813  0.6026  0.4941  0.0524
 5451SOL    HW217210   6.430   1.934   6.793  1.3672  1.0289 -1.4486
 5452SOL     OW17211   0.033   1.155   1.392 -0.1282 -0.7329  0.1708
 5452SOL    HW117212   0.033   1.229   1.453 -0.2973  0.1490 -0.8568
 5452SOL    HW217213   0.116   1.110   1.410  1.1106  1.0490 -0.6944
 5453SOL     OW17214   1.544   1.958   5.898 -0.1830  0.2043 -0.8022
 5453SOL    HW117215   1.541   1.908   5.980 -1.2052 -2.1306 -2.1347
 5453SOL    HW217216   1.474   2.022   5.906 -0.4639 -0.1945  0.0466
 5454SOL     OW17217   0.682   3.913   3.152  0.2253 -0.3623 -0.3257
 5454SOL    HW117218   0.605   3.927   3.207 -0.1980  0.9498 -1.1916
 5454SOL    HW217219   0.668   3.827   3.113 -0.3384 -0.5390  0.2449
 5455SOL     OW17220   1.849   5.425   5.226 -0.1434  0.5965 -0.2872
 5455SOL    HW117221   1.938   5.416   5.260  0.3689  3.1380 -0.7650
 5455SOL    HW217222   1.862   5.454   5.135 -1.4934 -0.8500 -0.9828
 5456SOL     OW17223   3.025   6.924   1.333 -0.1827 -0.0622 -0.2681
 5456SOL    HW117224   2.980   6.874   1.401 -0.2650 -0.3936 -0.5657
 5456SOL    HW217225   2.961   6.934   1.263  0.0874 -0.2139 -0.5377
 5457SOL     OW17226   4.740   7.612   1.633  0.2132 -0.1048  0.2218
 5457SOL    HW117227   4.816   7.587   1.581  1.2871  0.5896  1.4064
 5457SOL    HW217228   4.677   7.645   1.569  0.4603 -1.6924 -0.8948
 5458SOL     OW17229   4.925   4.586   7.147 -0.3454  0.2925 -0.2738
 5458SOL    HW117230   5.017   4.563   7.155 -0.5089 -0.4588 -0.4277
 5458SOL    HW217231   4.922   4.681   7.156  0.3543  0.2432  0.4778
 5459SOL     OW17232   4.284   0.840   5.413  0.8588 -0.3840  0.6527
 5459SOL    HW117233   4.332   0.912   5.454  1.0948  0.2127 -0.6563
 5459SOL    HW217234   4.239   0.879   5.339  0.5810 -1.4890  0.2175
 5460SOL     OW17235   3.848   6.332   6.383  0.0371 -0.3448 -0.3469
 5460SOL    HW117236   3.785   6.291   6.441  1.4217 -1.2803  0.5544
 5460SOL    HW217237   3.858   6.421   6.417 -0.6358 -0.2421 -0.3965
 5461SOL     OW17238   7.738   2.301   1.853 -0.1679 -0.7639  0.3461
 5461SOL    HW117239   7.760   2.210   1.871 -0.8873 -1.3029 -1.2812
 5461SOL    HW217240   7.699   2.299   1.766  1.0548  1.2889 -0.3257
 5462SOL     OW17241   0.903   1.318   4.917 -0.1417 -0.0901 -0.4051
 5462SOL    HW117242   0.952   1.244   4.882  2.4674  0.8458  0.9630
 5462SOL    HW217243   0.903   1.303   5.012 -2.2633  0.1520 -0.3302
 5463SOL     OW17244   1.000   0.293   5.583  0.0611  0.5559 -0.7137
 5463SOL    HW117245   1.008   0.361   5.649  2.2566 -0.8814  0.5867
 5463SOL    HW217246   1.088   0.258   5.572 -0.7807 -1.3190 -2.1892
 5464SOL     OW17247   1.922   2.951   1.551 -0.3402 -0.1944  0.0445
 5464SOL    HW117248   1.854   2.966   1.486 -0.8695 -2.2143  0.0560
 5464SOL    HW217249   2.001   2.935   1.501 -0.7220 -1.6257 -0.1517
 5465SOL     OW17250   4.463   4.534   1.415 -0.1488 -0.5382  0.1225
 5465SOL    HW117251   4.557   4.542   1.433  0.6920  0.7681 -3.6598
 5465SOL    HW217252   4.423   4.607   1.463  1.5079  1.5362 -1.4442
 5466SOL     OW17253   3.320   0.323   3.013  0.8612  0.0475 -0.5119
 5466SOL    HW117254   3.354   0.412   3.001 -0.4278  1.1780  2.8333
 5466SOL    HW217255   3.387   0.279   3.066 -0.4077  0.6122  1.6961
 5467SOL     OW17256   3.053   2.161   1.282  0.7418  0.1669 -0.0810
 5467SOL    HW117257   3.078   2.111   1.204 -1.3397 -0.1346 -0.6357
 5467SOL    HW217258   3.074   2.251   1.260 -0.3682  0.1680 -1.2918
 5468SOL     OW17259   2.881   7.075   4.201  0.1940 -0.2851 -0.4657
 5468SOL    HW117260   2.894   7.168   4.183  2.0266 -0.2444  0.7482
 5468SOL    HW217261   2.853   7.072   4.293  0.4436 -0.9266 -0.4041
 5469SOL     OW17262   7.353   5.408   1.540  0.7705 -0.4069 -0.0828
 5469SOL    HW117263   7.313   5.338   1.489 -2.4839  1.6084 -0.6044
 5469SOL    HW217264   7.337   5.384   1.631 -1.3646  0.0878 -0.2777
 5470SOL     OW17265   2.539   5.465   7.711 -0.5027 -0.5442 -0.0354
 5470SOL    HW117266   2.465   5.408   7.732 -0.4703 -0.5653  0.0220
 5470SOL    HW217267   2.512   5.510   7.631 -1.4057  0.9044  1.0346
 5471SOL     OW17268   3.283   1.350   5.260 -0.7479  0.2637  0.6168
 5471SOL    HW117269   3.302   1.287   5.329 -1.5741  0.8016  1.3550
 5471SOL    HW217270   3.201   1.318   5.221 -0.1977 -0.1362 -0.2552
 5472SOL     OW17271   5.150   5.062   5.443  0.1922  0.3895 -0.1743
 5472SOL    HW117272   5.193   5.105   5.369  1.5143 -0.3625  0.1086
 5472SOL    HW217273   5.190   5.101   5.520 -0.2662  0.2831  0.1216
 5473SOL     OW17274   4.996   7.684   7.291 -0.0440 -0.3108 -0.7216
 5473SOL    HW117275   4.909   7.650   7.313 -0.6487  1.8114  0.4563
 5473SOL    HW217276   5.008   7.663   7.199 -1.0463 -2.1386 -0.4835
 5474SOL     OW17277   0.558   4.113   2.982 -0.0883  0.3571  0.2100
 5474SOL    HW117278   0.487   4.120   3.046  0.6743 -1.3784  1.3197
 5474SOL    HW217279   0.617   4.048   3.020  1.0800  0.2931 -1.6436
 5475SOL     OW17280   1.184   2.506   1.435  0.2106 -0.3561 -0.1901
 5475SOL    HW117281   1.189   2.410   1.432  2.4297 -0.2609 -1.1857
 5475SOL    HW217282   1.211   2.534   1.348  1.2138  1.2193  0.5986
 5476SOL     OW17283   7.901   6.530   0.568  0.0552  0.4317 -0.1189
 5476SOL    HW117284   7.910   6.456   0.508  0.2816  0.4024 -0.0499
 5476SOL    HW217285   7.957   6.598   0.530  1.2143 -0.0106  0.7211
 5477SOL     OW17286   2.836   0.487   4.341 -0.4210  0.7555 -0.0510
 5477SOL    HW117287   2.922   0.453   4.320 -1.3440 -1.1878 -0.9539
 5477SOL    HW217288   2.846   0.583   4.338  1.6353  0.5721 -0.2647
 5478SOL     OW17289   2.456   1.471   7.626  0.0429  0.0884  0.5407
 5478SOL    HW117290   2.405   1.421   7.562  1.6616 -0.4046 -0.4283
 5478SOL    HW217291   2.530   1.414   7.647 -0.0730  0.5610  2.3215
 5479SOL     OW17292   0.961   2.224   1.659 -0.0029  0.1841  0.3941
 5479SOL    HW117293   1.019   2.160   1.618 -0.4602 -0.1535  0.2640
 5479SOL    HW217294   1.007   2.249   1.739  0.9627  0.9580 -0.3810
 5480SOL     OW17295   2.991   5.212   0.364  0.5938  0.4231  0.1421
 5480SOL    HW117296   2.996   5.121   0.335  1.4400  1.1380 -2.1906
 5480SOL    HW217297   2.940   5.256   0.296 -0.4214  1.5953  1.5904
 5481SOL     OW17298   6.177   4.962   5.029  0.2497  0.1788  0.6409
 5481SOL    HW117299   6.117   4.905   5.078 -0.3516 -2.4532 -2.7435
 5481SOL    HW217300   6.127   5.043   5.016 -0.5586 -0.0537  2.1082
 5482SOL     OW17301   7.268   3.617   2.655 -0.1485 -0.2605  0.0786
 5482SOL    HW117302   7.294   3.572   2.735  0.3929  2.2830  1.4201
 5482SOL    HW217303   7.205   3.683   2.684  0.8993  1.4656 -1.3993
 5483SOL     OW17304   1.353   5.698   1.751 -0.4751  0.5036  0.3491
 5483SOL    HW117305   1.437   5.693   1.704  0.3573 -0.1130  1.8270
 5483SOL    HW217306   1.329   5.607   1.767 -0.9907  0.6985  0.7059
 5484SOL     OW17307   5.119   0.959   2.714  0.3781 -0.0115  0.2896
 5484SOL    HW117308   5.087   1.045   2.687  0.4795 -0.7063 -2.3500
 5484SOL    HW217309   5.063   0.897   2.668  0.4749 -1.3832  1.9291
 5485SOL     OW17310   7.053   7.396   5.060  0.1535 -0.0597 -0.2998
 5485SOL    HW117311   7.083   7.339   4.990 -0.3570  0.6239 -1.0885
 5485SOL    HW217312   7.105   7.476   5.050 -1.6869  1.0491 -1.5441
 5486SOL     OW17313   3.794   3.059   2.074 -0.1920  0.0479  0.1566
 5486SOL    HW117314   3.748   3.037   1.993 -0.8073 -1.0926  0.7986
 5486SOL    HW217315   3.805   2.975   2.119  2.9615  0.1562 -0.1833
 5487SOL     OW17316   0.236   7.193   1.102  0.0169  0.0599 -0.5064
 5487SOL    HW117317   0.268   7.218   1.015 -0.2348 -1.1829 -0.9758
 5487SOL    HW217318   0.267   7.263   1.160  0.9419  0.4649 -1.4538
 5488SOL     OW17319   3.023   2.068   6.426 -0.2117  0.1462  0.3730
 5488SOL    HW117320   3.040   1.994   6.483  0.0814  0.6495  0.9505
 5488SOL    HW217321   2.928   2.079   6.427 -0.1068  1.3013  2.2734
 5489SOL     OW17322   4.942   3.873   7.681 -0.5597 -0.6436 -0.3349
 5489SOL    HW117323   4.918   3.834   7.597  0.0381 -0.1557 -0.7420
 5489SOL    HW217324   4.858   3.899   7.720 -0.8302 -0.7079 -0.8616
 5490SOL     OW17325   3.348   3.998   2.795 -0.3027  0.7212 -0.8581
 5490SOL    HW117326   3.333   4.090   2.816  2.2231  0.6163  2.1024
 5490SOL    HW217327   3.434   3.995   2.754  0.6074 -0.4103  0.9626
 5491SOL     OW17328   6.362   7.565   1.261 -0.0604  0.5605  0.3623
 5491SOL    HW117329   6.445   7.520   1.248 -0.4851  0.0210 -0.5943
 5491SOL    HW217330   6.362   7.636   1.197  0.0088  1.0717  0.9197
 5492SOL     OW17331   0.117   3.752   3.520  0.1126 -0.1615 -0.5014
 5492SOL    HW117332   0.144   3.807   3.447  0.2355 -0.2438 -0.5174
 5492SOL    HW217333   0.167   3.785   3.595  0.5992 -0.6061 -0.6242
 5493SOL     OW17334   3.701   3.222   2.530 -0.0229 -0.0808 -0.4410
 5493SOL    HW117335   3.707   3.128   2.513 -1.4191  0.2053 -2.9047
 5493SOL    HW217336   3.732   3.263   2.450  1.1100  1.6301  0.8043
 5494SOL     OW17337   0.847   7.034   6.600 -0.4152 -0.2058  0.4138
 5494SOL    HW117338   0.831   7.128   6.613 -2.2001 -0.5324  0.9170
 5494SOL    HW217339   0.915   7.012   6.663 -0.9074  0.5156  1.2273
 5495SOL     OW17340   0.965   7.259   4.346  0.4551 -0.4969  0.3126
 5495SOL    HW117341   1.011   7.342   4.343 -0.0145 -0.2425  0.0584
 5495SOL    HW217342   0.873   7.282   4.334  0.3521 -1.0792 -0.0466
 5496SOL     OW17343   1.663   4.169   1.496  0.0668 -0.0764  0.1431
 5496SOL    HW117344   1.593   4.192   1.435 -0.3926 -2.0463 -0.1191
 5496SOL    HW217345   1.660   4.238   1.562 -1.6159  0.2989 -0.2818
 5497SOL     OW17346   6.848   5.367   7.219  0.3094 -0.4449  0.3078
 5497SOL    HW117347   6.899   5.425   7.163  1.3783 -1.3861  0.2757
 5497SOL    HW217348   6.840   5.414   7.302  1.2925 -0.3095  0.3310
 5498SOL     OW17349   2.700   0.904   7.611  0.0092  0.1324 -0.3919
 5498SOL    HW117350   2.692   0.849   7.689  0.0759  0.8253  0.1099
 5498SOL    HW217351   2.793   0.928   7.609  0.5635 -1.8656 -2.0646
 5499SOL     OW17352   7.574   6.683   7.728  0.6925 -0.3273 -0.8540
 5499SOL    HW117353   7.577   6.773   7.760  0.2610  0.0329 -1.7842
 5499SOL    HW217354   7.574   6.629   7.807 -0.6954  0.5297 -0.2392
 5500SOL     OW17355   7.448   5.581   6.926 -0.1783 -0.3614 -0.4578
 5500SOL    HW117356   7.425   5.499   6.970  0.2721 -0.5136 -0.5022
 5500SOL    HW217357   7.385   5.645   6.960  0.7868 -0.2356  1.2012
 5501SOL     OW17358   2.059   6.484   1.691 -0.0062  0.4989  0.0366
 5501SOL    HW117359   2.053   6.575   1.661 -0.2318  0.5591  0.2645
 5501SOL    HW217360   1.971   6.449   1.680  0.2072  0.1419 -0.5755
 5502SOL     OW17361   3.618   2.257   1.397 -1.2655 -0.1559  0.2908
 5502SOL    HW117362   3.678   2.238   1.469 -1.1448 -0.4418  0.1175
 5502SOL    HW217363   3.552   2.315   1.435  0.0627  1.5953  0.0500
 5503SOL     OW17364   0.701   6.590   5.983  0.0524  0.0477 -0.1017
 5503SOL    HW117365   0.726   6.532   5.911 -0.1626  0.0047 -0.1446
 5503SOL    HW217366   0.761   6.569   6.054  0.3876  0.2192 -0.3293
 5504SOL     OW17367   1.207   6.892   3.899  0.6832  0.2812 -0.4872
 5504SOL    HW117368   1.160   6.969   3.867  0.2996  0.1607 -0.2293
 5504SOL    HW217369   1.156   6.818   3.866  1.4043  0.1175 -1.2686
 5505SOL     OW17370   7.551   5.985   5.246 -0.3532 -0.2563  0.0895
 5505SOL    HW117371   7.523   5.894   5.240 -1.5961  0.1961 -1.4085
 5505SOL    HW217372   7.645   5.979   5.264 -0.5687 -1.8133  0.8787
 5506SOL     OW17373   6.831   7.393   4.719  0.6451 -0.1532  0.4637
 5506SOL    HW117374   6.892   7.319   4.718  3.0058  1.6269 -2.4610
 5506SOL    HW217375   6.769   7.374   4.648 -0.5818 -0.6298  1.6191
 5507SOL     OW17376   3.398   7.444   4.748 -0.9537  0.6944  0.2719
 5507SOL    HW117377   3.491   7.465   4.751 -0.3787 -1.2082 -1.4966
 5507SOL    HW217378   3.392   7.355   4.783 -1.7036 -0.1021 -1.6982
 5508SOL     OW17379   0.440   1.874   2.476  0.5663  0.3345 -0.4520
 5508SOL    HW117380   0.450   1.831   2.390  1.4563 -0.1510 -0.1172
 5508SOL    HW217381   0.529   1.897   2.502  0.1891  1.4866 -0.1524
 5509SOL     OW17382   0.704   7.863   3.327  0.3974  0.0740  0.1065
 5509SOL    HW117383   0.717   7.946   3.373  1.0778  0.1076 -0.1352
 5509SOL    HW217384   0.665   7.888   3.243  1.4163  0.2414 -0.3305
 5510SOL     OW17385   4.101   3.267   2.813 -0.0503 -0.2740  0.3719
 5510SOL    HW117386   4.076   3.180   2.845  1.3168 -0.1042  2.0243
 5510SOL    HW217387   4.137   3.252   2.725  0.9760 -1.5092  0.9859
 5511SOL     OW17388   4.151   5.286   4.844 -0.8415  0.4524 -0.3207
 5511SOL    HW117389   4.156   5.340   4.923 -1.5096 -4.0976  3.2208
 5511SOL    HW217390   4.057   5.271   4.831 -0.6728  0.1455 -1.2504
 5512SOL     OW17391   7.469   0.813   4.979 -0.1132 -0.2885  0.1275
 5512SOL    HW117392   7.460   0.820   5.074 -3.4693  0.0039 -0.1017
 5512SOL    HW217393   7.489   0.902   4.949 -0.5309 -0.0823  0.4575
 5513SOL     OW17394   5.719   1.469   0.272 -0.7894  0.1544 -0.3379
 5513SOL    HW117395   5.698   1.451   0.364  0.5045 -0.4211 -0.1355
 5513SOL    HW217396   5.679   1.554   0.255 -0.2887  0.6876  1.0175
 5514SOL     OW17397   1.907   7.051   3.946 -0.1263  0.4212  0.4397
 5514SOL    HW117398   1.828   7.095   3.978  0.1374  0.8820  0.4740
 5514SOL    HW217399   1.977   7.114   3.963  0.0313  0.6919 -1.0732
 5515SOL     OW17400   2.867   5.652   0.763 -0.5745 -0.8001  0.0827
 5515SOL    HW117401   2.898   5.670   0.674 -0.5019  0.3889  0.3288
 5515SOL    HW217402   2.809   5.726   0.783  1.4325  0.4021  1.9618
 5516SOL     OW17403   3.324   2.592   7.063  0.2715  0.5569 -0.0941
 5516SOL    HW117404   3.390   2.658   7.084 -0.1020  0.1721  2.6814
 5516SOL    HW217405   3.243   2.641   7.053  0.1860  0.6538  0.9519
 5517SOL     OW17406   3.523   7.755   0.008 -0.1659  0.0143 -0.3361
 5517SOL    HW117407   3.462   7.797   0.068 -2.2159 -1.4624 -1.2768
 5517SOL    HW217408   3.597   7.730   0.063 -0.7839  1.0316  1.0331
 5518SOL     OW17409   7.801   7.212   3.168 -0.3716  0.0857  0.0547
 5518SOL    HW117410   7.773   7.126   3.201  0.6083  0.4044  1.8232
 5518SOL    HW217411   7.764   7.275   3.231  2.1566  0.6744  1.0699
 5519SOL     OW17412   3.547   3.888   7.067 -0.1726 -0.3689 -0.4502
 5519SOL    HW117413   3.454   3.865   7.068 -0.3146  0.2007 -0.2420
 5519SOL    HW217414   3.575   3.877   7.157 -0.1771  0.0049 -0.4016
 5520SOL     OW17415   4.595   1.648   6.646 -0.5783 -0.1463 -0.2516
 5520SOL    HW117416   4.531   1.620   6.711 -0.4258 -0.7574 -0.3570
 5520SOL    HW217417   4.620   1.736   6.674  0.0356 -0.6769  0.9565
 5521SOL     OW17418   1.859   1.111   6.542 -0.0180  0.0111 -0.1917
 5521SOL    HW117419   1.827   1.040   6.599  0.8139 -1.1264 -1.0958
 5521SOL    HW217420   1.945   1.082   6.513  0.3389  1.4076 -0.5974
 5522SOL     OW17421   7.291   6.883   0.428  1.2302 -0.2825  0.3086
 5522SOL    HW117422   7.363   6.832   0.465 -0.2736 -2.0633  0.9104
 5522SOL    HW217423   7.220   6.820   0.416 -1.7064  2.0420  3.5442
 5523SOL     OW17424   2.601   2.736   2.259 -0.3247 -0.3332 -0.4550
 5523SOL    HW117425   2.655   2.794   2.205 -0.8874 -0.8575 -1.6328
 5523SOL    HW217426   2.657   2.711   2.332  1.0228 -0.8103 -1.6152
 5524SOL     OW17427   1.156   4.084   5.537 -0.1718  0.0751 -0.2496
 5524SOL    HW117428   1.180   4.130   5.618 -2.9615  2.6916 -0.7324
 5524SOL    HW217429   1.210   4.125   5.469  1.3070 -1.3068  0.0189
 5525SOL     OW17430   4.687   4.020   7.356 -0.5861  0.2101 -0.1472
 5525SOL    HW117431   4.663   4.023   7.449  0.5590 -0.8613  0.1998
 5525SOL    HW217432   4.710   4.111   7.335 -0.0515  0.3164  0.8382
 5526SOL     OW17433   1.239   4.306   5.205 -0.7454  0.2497  0.1240
 5526SOL    HW117434   1.296   4.347   5.271  2.0807  0.0271 -1.9900
 5526SOL    HW217435   1.170   4.371   5.190  0.6213  1.9191  0.6715
 5527SOL     OW17436   6.154   6.274   2.982 -0.0541  0.2168  0.1658
 5527SOL    HW117437   6.066   6.260   3.017 -0.0461 -0.9873 -0.2524
 5527SOL    HW217438   6.201   6.316   3.053 -0.1806 -1.7261  1.4733
 5528SOL     OW17439   0.167   6.692   0.188 -0.0548 -0.1048 -0.0993
 5528SOL    HW117440   0.099   6.656   0.132 -0.3574  0.6155 -0.1993
 5528SOL    HW217441   0.178   6.782   0.158  1.2251 -0.3259 -0.3529
 5529SOL     OW17442   5.255   0.315   1.660  0.8060 -0.1564 -0.6966
 5529SOL    HW117443   5.222   0.225   1.667  0.0323  0.1648 -0.0459
 5529SOL    HW217444   5.350   0.306   1.667  0.8017 -1.0049 -1.5606
 5530SOL     OW17445   1.190   0.043   5.371 -0.1183 -0.1335 -0.3564
 5530SOL    HW117446   1.207   0.115   5.431 -1.0005  0.5628 -0.9268
 5530SOL    HW217447   1.115  -0.002   5.408 -0.1206 -0.2299 -0.4779
 5531SOL     OW17448   7.131   7.782   3.461  0.2092 -0.3321 -0.1497
 5531SOL    HW117449   7.185   7.861   3.472  1.2563 -1.1228  0.5715
 5531SOL    HW217450   7.041   7.814   3.469  0.5357  1.0208 -1.3581
 5532SOL     OW17451   4.114   5.335   0.048 -0.1673  0.6100  0.1484
 5532SOL    HW117452   4.130   5.420   0.090 -1.7335  1.4506 -0.8590
 5532SOL    HW217453   4.028   5.345   0.007 -0.3243 -1.4401 -0.0990
 5533SOL     OW17454   5.279   3.592   7.304  0.0853  0.1074 -0.4169
 5533SOL    HW117455   5.217   3.661   7.278  0.4453  1.4988  2.1270
 5533SOL    HW217456   5.345   3.593   7.235 -1.1382  0.6630 -1.6355
 5534SOL     OW17457   1.288   1.385   0.389 -0.2866  0.3043 -0.5615
 5534SOL    HW117458   1.247   1.350   0.310  0.2102 -1.6153 -0.0249
 5534SOL    HW217459   1.320   1.308   0.436  1.2350  1.5173  0.5275
 5535SOL     OW17460   0.727   0.027   2.303 -0.3924 -0.2746  0.3243
 5535SOL    HW117461   0.742  -0.057   2.347 -0.2319 -1.4540 -1.8182
 5535SOL    HW217462   0.813   0.068   2.299 -0.4635 -0.0099  1.3530
 5536SOL     OW17463   6.873   0.635   1.261 -0.0572  0.0171 -0.5429
 5536SOL    HW117464   6.881   0.651   1.355  0.7076 -0.4811 -0.5135
 5536SOL    HW217465   6.801   0.572   1.253 -1.9672  2.0594 -0.5298
 5537SOL     OW17466   7.229   0.644   5.955 -0.2368  0.6948  0.4022
 5537SOL    HW117467   7.240   0.555   5.922  2.1099  0.4860  1.5520
 5537SOL    HW217468   7.158   0.638   6.019  1.3057 -0.8746  2.0723
 5538SOL     OW17469   3.434   1.065   3.999  0.0024  0.0461 -0.4672
 5538SOL    HW117470   3.408   0.974   3.986 -0.9588  0.4526 -1.5029
 5538SOL    HW217471   3.489   1.063   4.078  1.5149 -1.6885 -1.5013
 5539SOL     OW17472   4.491   5.149   7.408  0.0121 -0.1181 -0.0184
 5539SOL    HW117473   4.490   5.059   7.374  0.3874 -0.0571 -0.1944
 5539SOL    HW217474   4.422   5.150   7.475  1.4624 -1.1645  1.5843
 5540SOL     OW17475   0.880   3.375   6.603 -0.3278  0.0747  0.5175
 5540SOL    HW117476   0.884   3.303   6.665 -1.4415 -0.5666 -0.1384
 5540SOL    HW217477   0.971   3.387   6.575 -0.1409 -1.1256  0.5708
 5541SOL     OW17478   0.521   1.422   2.884  0.0060 -0.0517  0.7454
 5541SOL    HW117479   0.433   1.460   2.880 -0.9049 -1.8904  1.8774
 5541SOL    HW217480   0.560   1.461   2.962  0.7878  1.8359 -0.5207
 5542SOL     OW17481   6.349   0.363   6.163 -0.0550  0.1226  0.2181
 5542SOL    HW117482   6.295   0.438   6.138  1.2485  1.7004  1.8229
 5542SOL    HW217483   6.415   0.355   6.093 -1.0796 -0.5187 -0.7056
 5543SOL     OW17484   0.173   4.856   6.167 -0.4015 -0.4487  0.2351
 5543SOL    HW117485   0.187   4.765   6.139 -1.1023 -0.7807  0.9197
 5543SOL    HW217486   0.163   4.851   6.262  1.7529  0.6422  0.5788
 5544SOL     OW17487   0.871   7.419   3.481  0.0945 -0.4104  0.3079
 5544SOL    HW117488   0.950   7.365   3.478  1.1127  0.9946  0.6997
 5544SOL    HW217489   0.903   7.509   3.477 -1.4790  0.2110  0.8149
 5545SOL     OW17490   1.579   1.622   1.763 -0.1790 -0.2680 -0.2085
 5545SOL    HW117491   1.672   1.644   1.759 -0.5202  1.0563 -1.3455
 5545SOL    HW217492   1.555   1.602   1.673 -1.7225  2.7703 -0.6009
 5546SOL     OW17493   1.719   5.911   1.362  0.0474  0.0013  0.6195
 5546SOL    HW117494   1.812   5.888   1.361  0.3406  1.1268  0.5101
 5546SOL    HW217495   1.689   5.895   1.273  0.2369  0.0022  0.5552
 5547SOL     OW17496   2.268   1.627   0.968  0.2248  0.5322  0.3673
 5547SOL    HW117497   2.306   1.642   1.054 -1.3050 -0.1411  1.1946
 5547SOL    HW217498   2.276   1.533   0.954  1.0064  0.7079 -0.5218
 5548SOL     OW17499   5.097   1.901   1.757 -0.1668  0.1456  0.0054
 5548SOL    HW117500   5.076   1.890   1.665 -0.5935 -1.2831  0.2509
 5548SOL    HW217501   5.116   1.812   1.788  0.5799  0.6801  1.1507
 5549SOL     OW17502   1.305   2.851   6.249 -0.6351  0.7218 -0.2795
 5549SOL    HW117503   1.340   2.762   6.240  1.7803  1.4693  0.8816
 5549SOL    HW217504   1.380   2.908   6.231 -2.0448  2.5258 -0.6462
 5550SOL     OW17505   4.807   0.936   6.498 -0.2225  0.6541  0.4953
 5550SOL    HW117506   4.730   0.896   6.457 -0.0306 -1.2358  1.8922
 5550SOL    HW217507   4.850   0.984   6.426 -2.2874  1.1722 -0.4556
 5551SOL     OW17508   2.064   0.628   0.056 -0.2118 -0.2618  0.2903
 5551SOL    HW117509   2.017   0.584   0.127  0.9365  1.0846  1.9817
 5551SOL    HW217510   2.155   0.600   0.067 -0.1297 -0.5712 -1.1057
 5552SOL     OW17511   4.511   7.051   1.325  0.1830  0.4454 -0.1856
 5552SOL    HW117512   4.453   7.110   1.373 -0.0763  0.8590 -0.9990
 5552SOL    HW217513   4.454   7.008   1.261  0.8086  1.0310 -1.1515
 5553SOL     OW17514   6.611   0.698   3.567 -0.1279  0.3872  0.4363
 5553SOL    HW117515   6.586   0.625   3.623 -3.4694 -1.2423 -2.7427
 5553SOL    HW217516   6.544   0.764   3.582  1.0879  1.5316  1.0049
 5554SOL     OW17517   6.081   2.678   4.663  0.0145  0.4596  0.0027
 5554SOL    HW117518   6.103   2.593   4.625  1.2575  0.0327  1.5777
 5554SOL    HW217519   6.007   2.658   4.722  1.0365  0.2142  1.2388
 5555SOL     OW17520   4.062   7.039   7.391 -0.7964  0.4871 -0.4439
 5555SOL    HW117521   4.121   7.070   7.322  0.0999  0.0579  0.1093
 5555SOL    HW217522   4.065   6.944   7.384 -0.2995  0.4148  0.4834
 5556SOL     OW17523   0.494   6.511   3.648 -0.3184 -0.1346  0.7990
 5556SOL    HW117524   0.455   6.428   3.620  2.6203 -1.6783  0.8215
 5556SOL    HW217525   0.491   6.508   3.743  1.1911 -1.0617  0.8592
 5557SOL     OW17526   7.224   4.392   6.892  0.3537  0.7594 -0.2829
 5557SOL    HW117527   7.152   4.422   6.948  1.6407  0.0091  1.8926
 5557SOL    HW217528   7.198   4.304   6.865  1.4866 -0.6855  2.7691
 5558SOL     OW17529   7.857   3.023   5.196  0.6429  0.8900 -0.4206
 5558SOL    HW117530   7.807   3.100   5.223  2.2564  1.4005  1.3876
 5558SOL    HW217531   7.947   3.042   5.225  0.8908 -2.1671  1.2465
 5559SOL     OW17532   0.904   5.220   4.786  0.1201 -0.5164  0.2291
 5559SOL    HW117533   0.924   5.140   4.835 -0.3523 -1.0095 -0.3602
 5559SOL    HW217534   0.849   5.190   4.713 -0.3314  0.3922  0.1819
 5560SOL     OW17535   2.143   2.736   5.046  0.0898 -0.0978  1.0891
 5560SOL    HW117536   2.121   2.801   4.979  1.4637 -0.2454  0.4509
 5560SOL    HW217537   2.059   2.710   5.083 -0.5894  1.0799  0.4504
 5561SOL     OW17538   7.924   1.101   2.346  0.2592 -0.1200  0.5771
 5561SOL    HW117539   7.962   1.032   2.400  0.6588  1.2215  2.0790
 5561SOL    HW217540   7.961   1.182   2.381 -0.2101  0.8768 -1.1236
 5562SOL     OW17541   2.376   5.120   6.796  0.2796 -0.2305  0.3581
 5562SOL    HW117542   2.393   5.125   6.890  0.9120 -0.8680  0.2808
 5562SOL    HW217543   2.281   5.114   6.789  0.2252 -0.1209  0.9528
 5563SOL     OW17544   4.864   2.093   0.281  0.1782 -0.2479 -0.9590
 5563SOL    HW117545   4.945   2.053   0.310  0.0756 -0.1900 -0.5927
 5563SOL    HW217546   4.796   2.057   0.338  0.0971  0.4944 -0.5742
 5564SOL     OW17547   6.414   4.368   3.557  0.5984  0.1142  0.2036
 5564SOL    HW117548   6.470   4.310   3.506 -0.7194 -1.0051 -0.0121
 5564SOL    HW217549   6.410   4.327   3.644 -0.7044 -0.3775 -0.0778
 5565SOL     OW17550   4.298   1.065   3.515 -0.1215  0.5061  0.1220
 5565SOL    HW117551   4.369   1.081   3.453 -0.4863  0.7879 -0.2386
 5565SOL    HW217552   4.271   1.153   3.543  0.2644  0.3670  0.9460
 5566SOL     OW17553   0.602   2.552   2.772 -0.2573 -0.0050 -0.1136
 5566SOL    HW117554   0.582   2.528   2.863  1.0076 -1.1061 -0.0861
 5566SOL    HW217555   0.517   2.552   2.728 -0.6844 -1.5410  0.6237
 5567SOL     OW17556   4.920   3.902   2.122  0.5242 -0.1872  0.3152
 5567SOL    HW117557   4.917   3.972   2.187 -0.5568  0.9528 -0.9055
 5567SOL    HW217558   5.011   3.904   2.090  0.5982  0.4245  0.5471
 5568SOL     OW17559   6.385   4.689   4.677  0.4885  0.8458 -0.2657
 5568SOL    HW117560   6.352   4.768   4.634 -2.0958  1.3647  2.3400
 5568SOL    HW217561   6.431   4.722   4.754  1.1939 -0.1529 -0.2440
 5569SOL     OW17562   7.016   3.121   3.802  0.3679 -0.4796 -0.1535
 5569SOL    HW117563   6.935   3.165   3.829  0.7385  0.8277 -1.1069
 5569SOL    HW217564   7.008   3.033   3.838 -2.3538 -1.0013 -1.7184
 5570SOL     OW17565   7.912   0.608   5.497  0.4562  0.5329 -0.1181
 5570SOL    HW117566   7.862   0.690   5.502 -1.3544 -0.5848  1.0493
 5570SOL    HW217567   7.944   0.606   5.407 -0.6599  1.8567 -0.5865
 5571SOL     OW17568   2.099   1.635   0.350  0.2023 -0.0889  0.2612
 5571SOL    HW117569   2.112   1.624   0.255 -0.1135 -1.2826  0.3360
 5571SOL    HW217570   2.004   1.637   0.360  0.2382  0.5174  0.5169
 5572SOL     OW17571   5.504   4.365   4.683  0.1045  0.0794 -0.3884
 5572SOL    HW117572   5.458   4.449   4.673 -2.1448 -1.2545 -2.2000
 5572SOL    HW217573   5.469   4.327   4.763 -0.2733  0.0633 -0.5595
 5573SOL     OW17574   1.028   4.306   6.954 -0.3136  0.1055  0.3806
 5573SOL    HW117575   1.039   4.401   6.960  2.1480 -0.1317  0.4980
 5573SOL    HW217576   0.995   4.280   7.041 -0.1145  0.7533  0.6567
 5574SOL     OW17577   6.377   1.543   2.860 -0.1066 -0.3829  0.0504
 5574SOL    HW117578   6.393   1.552   2.954  1.0752  2.3035 -0.3301
 5574SOL    HW217579   6.462   1.516   2.824 -0.3594 -0.6514 -0.3492
 5575SOL     OW17580   2.884   6.567   3.906 -0.3989  0.3743  0.5509
 5575SOL    HW117581   2.792   6.550   3.927 -0.9653  1.5291 -0.8080
 5575SOL    HW217582   2.903   6.508   3.833  1.0211 -2.3376  2.9288
 5576SOL     OW17583   6.518   3.140   4.084 -0.5987  0.0706  0.1107
 5576SOL    HW117584   6.432   3.105   4.107 -1.6276  2.3442 -0.0322
 5576SOL    HW217585   6.536   3.205   4.152  0.5656  0.3026 -0.3968
 5577SOL     OW17586   6.315   2.252   1.754 -0.1207 -0.3073  0.0271
 5577SOL    HW117587   6.230   2.230   1.716 -1.2307  1.2028  1.5066
 5577SOL    HW217588   6.331   2.342   1.725  0.6931 -0.3765  0.2543
 5578SOL     OW17589   4.095   6.931   4.215  0.0270 -0.2493 -0.0072
 5578SOL    HW117590   4.030   6.885   4.161 -1.4474 -0.5319  1.9251
 5578SOL    HW217591   4.148   6.860   4.253  0.6073 -0.0807 -0.4740
 5579SOL     OW17592   2.306   5.286   5.882 -0.0826 -0.1575 -0.3610
 5579SOL    HW117593   2.288   5.379   5.899 -0.0474 -0.0260 -1.0277
 5579SOL    HW217594   2.273   5.271   5.793  0.4252 -0.6485 -0.4690
 5580SOL     OW17595   4.549   2.334   6.864  0.2294 -0.3588 -0.1563
 5580SOL    HW117596   4.540   2.414   6.812 -2.6660 -0.8717 -0.6206
 5580SOL    HW217597   4.575   2.365   6.951  0.4661  0.9465 -0.6587
 5581SOL     OW17598   0.997   0.596   6.669  0.1698 -0.2063  0.1677
 5581SOL    HW117599   0.964   0.658   6.603 -0.1583 -0.2784  0.2604
 5581SOL    HW217600   0.995   0.511   6.625 -1.1267 -0.4326  0.6241
 5582SOL     OW17601   2.609   1.077   7.406  0.0963 -0.1698  0.0861
 5582SOL    HW117602   2.624   1.009   7.472 -2.7655 -2.8162 -1.7361
 5582SOL    HW217603   2.636   1.038   7.324  1.6618  2.3066 -0.7065
 5583SOL     OW17604   0.962   3.344   3.366 -0.0122 -0.3883 -0.1103
 5583SOL    HW117605   1.053   3.374   3.354  0.1161 -0.0205  1.5962
 5583SOL    HW217606   0.938   3.374   3.453 -0.9317 -2.6476  0.4838
 5584SOL     OW17607   7.032   0.212   1.662 -0.2793  0.1861 -0.0838
 5584SOL    HW117608   7.113   0.199   1.711  1.4688 -1.5547 -3.0793
 5584SOL    HW217609   6.980   0.135   1.682  0.1519 -0.1986 -0.3984
 5585SOL     OW17610   5.546   2.697   3.262 -0.2682 -0.1161 -0.2959
 5585SOL    HW117611   5.502   2.760   3.319 -1.3819 -1.6380  0.5684
 5585SOL    HW217612   5.629   2.678   3.306  0.2968  1.0214 -0.7910
 5586SOL     OW17613   4.743   7.491   4.794 -0.1971  0.0718  0.2481
 5586SOL    HW117614   4.699   7.506   4.878 -0.9031  1.2975 -0.3180
 5586SOL    HW217615   4.799   7.416   4.810 -1.9789 -1.1392  1.2051
 5587SOL     OW17616   7.795   0.817   0.827  0.2839 -0.6969 -0.1486
 5587SOL    HW117617   7.788   0.730   0.865 -2.1757 -0.5492 -0.1390
 5587SOL    HW217618   7.734   0.871   0.877  1.7731  1.0919 -0.1156
 5588SOL     OW17619   2.111   7.769   5.751 -0.1037 -0.0485  0.4500
 5588SOL    HW117620   2.079   7.707   5.686  1.9623 -0.2429 -0.4764
 5588SOL    HW217621   2.134   7.715   5.826 -0.8337 -0.0465  0.6818
 5589SOL     OW17622   0.948   0.035   5.860  0.4555 -0.1088  0.0730
 5589SOL    HW117623   0.943   0.107   5.922 -1.7082  0.1294 -0.3053
 5589SOL    HW217624   0.919  -0.042   5.910  3.5302 -0.9775  0.7127
 5590SOL     OW17625   4.191   1.036   5.243 -0.1069  0.1838  0.4548
 5590SOL    HW117626   4.253   1.094   5.286  0.9777 -0.8360  0.3169
 5590SOL    HW217627   4.138   1.093   5.188  0.8169  1.0520  0.4527
 5591SOL     OW17628   1.417   3.030   4.798  0.5654 -0.6170 -0.4018
 5591SOL    HW117629   1.383   3.101   4.852  2.7402  0.3056 -0.1324
 5591SOL    HW217630   1.412   3.063   4.709  0.6934 -0.5192 -0.3724
 5592SOL     OW17631   1.843   5.179   7.411 -0.0765  1.0098  0.6246
 5592SOL    HW117632   1.784   5.110   7.379  2.5224 -0.4954 -1.3862
 5592SOL    HW217633   1.877   5.144   7.493  0.3046  0.4098  0.2257
 5593SOL     OW17634   0.954   3.793   7.347 -0.8195 -0.2581 -0.1651
 5593SOL    HW117635   1.017   3.729   7.315  0.7540 -0.5985  3.1373
 5593SOL    HW217636   0.870   3.765   7.312  0.5378 -0.9930 -3.0621
 5594SOL     OW17637   6.032   7.044   6.844  0.5007 -0.1957  0.1022
 5594SOL    HW117638   6.005   7.048   6.936  1.8671  0.5310  0.4870
 5594SOL    HW217639   6.028   6.951   6.822 -0.6454 -0.2918  0.6354
 5595SOL     OW17640   1.339   0.066   6.681 -0.3930  1.3416 -0.6212
 5595SOL    HW117641   1.429   0.046   6.706 -0.8133 -0.8352 -0.6848
 5595SOL    HW217642   1.326   0.019   6.599 -1.0916  3.0202 -1.5282
 5596SOL     OW17643   2.840   0.327   2.357  0.0227 -0.2404  0.3319
 5596SOL    HW117644   2.904   0.268   2.397 -2.9900 -2.4581  2.3457
 5596SOL    HW217645   2.843   0.406   2.411 -1.3891 -1.7797  2.8466
 5597SOL     OW17646   5.928   6.482   2.027  0.1613  0.0508 -0.2067
 5597SOL    HW117647   5.980   6.474   2.107  1.0431  2.6112 -0.4292
 5597SOL    HW217648   5.993   6.491   1.958 -0.6014 -0.7089 -1.0331
 5598SOL     OW17649   3.634   2.277   0.922 -0.1806 -0.2729  0.3984
 5598SOL    HW117650   3.542   2.253   0.908  0.2715 -1.1850 -1.3505
 5598SOL    HW217651   3.641   2.366   0.888  0.0497 -1.0811 -1.8642
 5599SOL     OW17652   6.893   6.350   1.662  0.0895 -0.6711 -0.3383
 5599SOL    HW117653   6.816   6.370   1.608 -0.4341  0.7610  0.8700
 5599SOL    HW217654   6.967   6.358   1.603 -0.6864 -3.0631 -1.7936
 5600SOL     OW17655   7.507   1.129   0.935 -0.8587 -0.1848  0.4635
 5600SOL    HW117656   7.597   1.098   0.928 -0.3407  1.5226 -1.3502
 5600SOL    HW217657   7.457   1.052   0.960  1.0304 -1.2844  1.0065
 5601SOL     OW17658   4.402   5.556   7.471  0.1167 -0.3476 -0.0400
 5601SOL    HW117659   4.369   5.606   7.396  1.7296  0.7577 -0.0610
 5601SOL    HW217660   4.362   5.469   7.461  0.2360 -0.2084 -2.1464
 5602SOL     OW17661   5.451   0.250   7.075 -0.3568  0.7548  0.1205
 5602SOL    HW117662   5.534   0.234   7.030 -1.2342  0.5867 -1.5081
 5602SOL    HW217663   5.454   0.192   7.152  0.3704 -0.4413 -0.7681
 5603SOL     OW17664   2.157   2.576   0.903 -0.3258 -0.3317 -0.4425
 5603SOL    HW117665   2.142   2.667   0.927  0.1095 -0.6471  1.1756
 5603SOL    HW217666   2.252   2.569   0.897 -0.2860 -0.9480  0.6872
 5604SOL     OW17667   0.229   2.082   4.459  0.2022 -0.0520 -0.1834
 5604SOL    HW117668   0.177   2.136   4.401 -1.6411  0.4400  1.7678
 5604SOL    HW217669   0.171   2.008   4.481  2.0442 -2.0144 -1.4812
 5605SOL     OW17670   6.152   5.975   6.734  0.0330  0.7200  0.6394
 5605SOL    HW117671   6.060   5.947   6.735 -0.0329  0.9115  0.2767
 5605SOL    HW217672   6.176   5.974   6.641  0.1204  1.5705  0.6449
 5606SOL     OW17673   6.875   7.793   7.360 -0.4838  0.8434  0.3013
 5606SOL    HW117674   6.939   7.780   7.431 -0.0947 -0.8081 -0.3110
 5606SOL    HW217675   6.890   7.883   7.332  1.7045  0.4868  0.1016
 5607SOL     OW17676   4.870   7.815   3.563  0.0293  0.0448  0.5418
 5607SOL    HW117677   4.830   7.847   3.483 -0.0383 -1.4434 -0.0499
 5607SOL    HW217678   4.888   7.722   3.546 -1.0227 -0.6160  2.6434
 5608SOL     OW17679   4.441   3.290   7.962 -0.1778 -0.2934 -0.1657
 5608SOL    HW117680   4.521   3.286   7.910  0.8452 -0.0869  1.3034
 5608SOL    HW217681   4.422   3.198   7.984 -1.9616 -0.6495 -2.7317
 5609SOL     OW17682   0.403   5.550   0.770 -0.0208 -0.0285  0.1165
 5609SOL    HW117683   0.368   5.615   0.831 -0.1816  0.7582 -0.7811
 5609SOL    HW217684   0.338   5.480   0.770  0.5543 -0.5916  1.7102
 5610SOL     OW17685   1.722   3.850   6.811 -0.4274  0.3924  0.4724
 5610SOL    HW117686   1.763   3.897   6.884 -0.3436  0.4030  0.4191
 5610SOL    HW217687   1.651   3.800   6.851 -0.5721  0.6314  0.5188
 5611SOL     OW17688   2.169   4.760   6.048  0.0527  0.0394  0.0473
 5611SOL    HW117689   2.092   4.706   6.067  0.2423 -0.9555 -1.7371
 5611SOL    HW217690   2.147   4.806   5.967  0.6964  1.0789  0.4372
 5612SOL     OW17691   0.646   2.400   5.878 -0.4645 -0.4352 -0.3388
 5612SOL    HW117692   0.667   2.353   5.797 -0.0964 -0.4805 -0.2171
 5612SOL    HW217693   0.634   2.331   5.943  1.4948 -0.3277  0.1793
 5613SOL     OW17694   6.936   2.826   6.026 -0.3470  0.0065 -0.2476
 5613SOL    HW117695   6.855   2.850   6.071 -0.0604  0.9274 -0.2009
 5613SOL    HW217696   6.914   2.828   5.933 -0.1656  1.1233 -0.2757
 5614SOL     OW17697   5.116   5.356   0.118  0.4399  0.0269  0.2282
 5614SOL    HW117698   5.083   5.308   0.042 -1.8531  1.2799  0.3368
 5614SOL    HW217699   5.112   5.293   0.190 -0.3164 -0.3027 -0.0910
 5615SOL     OW17700   2.968   5.440   2.752  0.8550 -0.1265 -0.0519
 5615SOL    HW117701   2.882   5.401   2.736  0.2493  0.3148  1.8889
 5615SOL    HW217702   3.030   5.372   2.727 -0.0819 -0.9704 -0.1527
 5616SOL     OW17703   7.121   7.647   3.232 -0.0646 -0.1347  0.2695
 5616SOL    HW117704   7.146   7.685   3.316 -0.3811 -0.4495  0.5079
 5616SOL    HW217705   7.062   7.575   3.254 -1.1033  0.5301 -0.2883
 5617SOL     OW17706   5.280   5.044   4.464 -0.5606 -0.2505  0.5042
 5617SOL    HW117707   5.230   5.104   4.409  0.2955 -0.1445 -0.1708
 5617SOL    HW217708   5.306   4.973   4.405  0.5192 -0.0485  0.7288
 5618SOL     OW17709   7.883   6.111   0.243 -0.1312  0.5558 -0.6931
 5618SOL    HW117710   7.917   6.023   0.260 -0.1554  0.3518 -1.6100
 5618SOL    HW217711   7.875   6.115   0.147 -1.8554  0.8972 -0.5706
 5619SOL     OW17712   6.116   3.214   0.276  0.2315 -0.3848  0.1033
 5619SOL    HW117713   6.194   3.247   0.232  0.0042 -0.9989 -0.7817
 5619SOL    HW217714   6.145   3.135   0.321  0.5328  0.4057  1.3352
 5620SOL     OW17715   5.457   1.458   4.131  0.0210  0.4249  0.1420
 5620SOL    HW117716   5.533   1.501   4.093  0.6286 -0.9216 -0.2538
 5620SOL    HW217717   5.407   1.427   4.055  0.7104 -1.3827  0.3722
 5621SOL     OW17718   4.122   1.208   6.055  0.4704  0.7793  0.1876
 5621SOL    HW117719   4.171   1.236   5.978  0.5587 -0.2352 -0.1387
 5621SOL    HW217720   4.182   1.151   6.102 -0.4381 -0.6462 -0.3296
 5622SOL     OW17721   4.251   0.180   1.677 -0.2693  0.0758 -0.0917
 5622SOL    HW117722   4.326   0.227   1.714  0.9085 -1.3289 -0.5764
 5622SOL    HW217723   4.183   0.187   1.744  0.8049  0.1367  1.0369
 5623SOL     OW17724   2.184   6.331   5.616  0.1319 -0.5966 -0.3848
 5623SOL    HW117725   2.148   6.284   5.541 -2.0379 -0.0305  0.2365
 5623SOL    HW217726   2.236   6.401   5.577 -3.3463  1.5678 -1.5677
 5624SOL     OW17727   4.778   7.421   7.466  0.3840 -0.1566 -0.7501
 5624SOL    HW117728   4.694   7.434   7.509 -0.2362 -0.4872 -1.8420
 5624SOL    HW217729   4.773   7.474   7.387  1.1686 -0.2607 -0.8782
 5625SOL     OW17730   5.374   2.577   5.732  0.1845  0.0361 -0.0939
 5625SOL    HW117731   5.408   2.656   5.690 -0.0112  1.3951  2.1589
 5625SOL    HW217732   5.284   2.570   5.700 -0.3158  1.6608  0.8324
 5626SOL     OW17733   1.296   3.850   7.799  0.5551 -0.1318  0.0918
 5626SOL    HW117734   1.254   3.765   7.809  0.5862 -0.6145 -2.9901
 5626SOL    HW217735   1.225   3.910   7.776  0.8686  0.1415 -0.1759
 5627SOL     OW17736   7.158   5.961   4.074  0.2027  0.2838 -0.3674
 5627SOL    HW117737   7.247   5.983   4.049  0.4018  0.8034  0.7304
 5627SOL    HW217738   7.157   5.866   4.081  0.9363  0.3267  0.5029
 5628SOL     OW17739   2.461   4.796   4.024 -0.4970 -0.3917  0.2033
 5628SOL    HW117740   2.524   4.789   4.095 -0.4654 -0.5326  0.1613
 5628SOL    HW217741   2.512   4.821   3.948 -0.4129 -0.9829  0.0550
 5629SOL     OW17742   3.923   5.766   2.965 -0.1222 -0.3238 -0.0279
 5629SOL    HW117743   3.963   5.841   2.921 -2.0767 -0.2090 -1.7542
 5629SOL    HW217744   3.922   5.791   3.058 -0.6872  1.7903 -0.5457
 5630SOL     OW17745   4.811   2.210   1.462  0.1556 -0.1920 -0.1791
 5630SOL    HW117746   4.741   2.193   1.399  1.0571 -2.2199 -0.7234
 5630SOL    HW217747   4.768   2.257   1.534 -1.4074  0.0209 -1.2054
 5631SOL     OW17748   5.796   1.175   0.475 -0.0818 -0.2869 -0.4641
 5631SOL    HW117749   5.827   1.147   0.389 -0.4224 -0.5139 -0.5163
 5631SOL    HW217750   5.709   1.134   0.483 -0.7748  1.0737 -0.7184
 5632SOL     OW17751   0.286   0.371   0.888  0.6742  0.2013 -0.3617
 5632SOL    HW117752   0.263   0.312   0.959 -0.4086 -0.4322 -1.2153
 5632SOL    HW217753   0.334   0.442   0.931 -1.4880  0.7661  1.2933
 5633SOL     OW17754   4.645   3.734   6.806  0.5521  0.2748 -0.2563
 5633SOL    HW117755   4.661   3.664   6.743 -0.4897  0.5010 -0.7921
 5633SOL    HW217756   4.550   3.749   6.802  0.3612 -0.1223  1.8051
 5634SOL     OW17757   4.774   3.181   4.701  0.3652  0.2402 -0.2817
 5634SOL    HW117758   4.807   3.124   4.631 -0.2539  1.6662 -1.7979
 5634SOL    HW217759   4.756   3.121   4.773  0.1454 -1.4298 -1.6435
 5635SOL     OW17760   6.263   3.566   0.123  0.0819 -0.0264  0.2258
 5635SOL    HW117761   6.292   3.487   0.168  3.3000  1.6505  1.3690
 5635SOL    HW217762   6.331   3.583   0.057 -0.5968  1.6800 -0.0971
 5636SOL     OW17763   1.995   6.709   1.269 -0.0929 -0.1951  0.6485
 5636SOL    HW117764   1.949   6.662   1.199  1.4595 -1.0352  0.1515
 5636SOL    HW217765   1.967   6.800   1.259 -3.5469 -0.9633  1.9188
 5637SOL     OW17766   0.288   0.197   2.643  0.5654 -0.2100 -0.1006
 5637SOL    HW117767   0.226   0.126   2.657 -1.5377  1.6531  0.4716
 5637SOL    HW217768   0.281   0.217   2.549  1.9016 -1.3158 -0.4867
 5638SOL     OW17769   7.480   5.624   0.375 -0.4658 -0.5215 -0.2838
 5638SOL    HW117770   7.409   5.641   0.313 -0.7095  0.1713  0.1676
 5638SOL    HW217771   7.522   5.709   0.387  0.3735 -0.9024 -0.4485
 5639SOL     OW17772   2.883   5.370   2.408 -0.0412 -0.5365 -0.4187
 5639SOL    HW117773   2.922   5.455   2.385 -0.5475  0.4388  2.0251
 5639SOL    HW217774   2.834   5.344   2.330 -2.4483  2.9731 -0.2910
 5640SOL     OW17775   2.171   6.096   2.456 -0.0072  0.0390 -0.0031
 5640SOL    HW117776   2.156   6.190   2.460  2.6334  0.4958  0.9789
 5640SOL    HW217777   2.260   6.084   2.487  0.0595 -2.7268 -0.9594
 5641SOL     OW17778   7.212   4.983   3.802 -0.3994 -0.2306 -0.2415
 5641SOL    HW117779   7.200   4.967   3.709  1.0732  3.0562 -1.1437
 5641SOL    HW217780   7.307   4.992   3.812 -0.6855  2.2080  0.9594
 5642SOL     OW17781   0.411   4.996   6.562  0.0780 -0.2215  0.0113
 5642SOL    HW117782   0.444   5.006   6.651  0.7757 -2.5118  0.0774
 5642SOL    HW217783   0.320   5.024   6.566 -0.4373 -1.9386  1.8980
 5643SOL     OW17784   4.074   4.861   0.397 -0.0088  0.0753  0.5093
 5643SOL    HW117785   4.110   4.781   0.434  3.1361  1.1547  0.0768
 5643SOL    HW217786   4.029   4.904   0.470  0.8669 -0.6671  1.5027
 5644SOL     OW17787   7.811   4.737   6.573 -0.2378 -0.3698 -0.3017
 5644SOL    HW117788   7.854   4.690   6.502  0.1482 -0.0799 -0.2653
 5644SOL    HW217789   7.842   4.827   6.564 -1.6780  0.0843 -0.9263
 5645SOL     OW17790   0.151   1.897   6.137 -0.2393 -0.1092  0.5945
 5645SOL    HW117791   0.216   1.954   6.179 -0.0462  1.0515 -1.1684
 5645SOL    HW217792   0.177   1.808   6.163  1.8406  0.3455  0.2586
 5646SOL     OW17793   0.548   1.384   7.764  0.2191 -0.0463  0.5171
 5646SOL    HW117794   0.476   1.432   7.806  1.1894  0.9058  1.1471
 5646SOL    HW217795   0.604   1.452   7.726  0.7622 -0.7743 -0.0106
 5647SOL     OW17796   7.542   3.344   5.585 -0.1365  0.2646  0.5256
 5647SOL    HW117797   7.453   3.317   5.563 -1.9622  1.6699  4.9485
 5647SOL    HW217798   7.585   3.264   5.615  0.3312 -0.4747 -1.8920
 5648SOL     OW17799   7.714   0.199   0.861 -0.4289 -0.1703  0.4789
 5648SOL    HW117800   7.785   0.260   0.878 -0.5829  0.0054  0.4890
 5648SOL    HW217801   7.690   0.165   0.947 -0.0926 -0.5257  0.4342
 5649SOL     OW17802   7.963   2.687   3.905  0.9337 -0.0244  0.3191
 5649SOL    HW117803   7.906   2.648   3.972  2.9820 -2.1175  0.9818
 5649SOL    HW217804   8.047   2.643   3.917  1.2559 -1.0174 -4.0435
 5650SOL     OW17805   7.605   0.839   3.241 -0.3257  0.1987  0.0040
 5650SOL    HW117806   7.689   0.807   3.209 -0.1753  0.4860  0.1092
 5650SOL    HW217807   7.546   0.831   3.165  0.4872  2.6883 -0.9789
 5651SOL     OW17808   2.757   4.555   0.429  0.1335  0.2787 -0.1348
 5651SOL    HW117809   2.773   4.461   0.437  0.8618  0.3400 -0.7518
 5651SOL    HW217810   2.716   4.565   0.343  0.8018  0.6057 -0.4223
 5652SOL     OW17811   2.111   7.726   1.809 -0.0589 -0.2374  0.1574
 5652SOL    HW117812   2.056   7.675   1.869  1.0671 -1.1402  0.4417
 5652SOL    HW217813   2.064   7.809   1.800 -2.4185 -1.5778 -1.0208
 5653SOL     OW17814   3.587   2.354   2.902  0.1054  0.8225  0.0437
 5653SOL    HW117815   3.534   2.379   2.978 -0.3168  1.2071 -0.3768
 5653SOL    HW217816   3.606   2.261   2.917  0.8427  1.1212  1.1075
 5654SOL     OW17817   6.662   3.142   1.664  0.2208  0.5282  0.0372
 5654SOL    HW117818   6.620   3.207   1.721 -2.1137 -0.2671 -0.6640
 5654SOL    HW217819   6.641   3.170   1.575 -0.6299 -0.9922 -0.2868
 5655SOL     OW17820   5.620   2.875   4.300  0.2205 -0.3960 -0.1703
 5655SOL    HW117821   5.625   2.871   4.395  3.0121  1.8427 -0.0896
 5655SOL    HW217822   5.530   2.849   4.279 -0.8781  0.3374  3.1279
 5656SOL     OW17823   0.422   5.899   0.321 -0.2618 -0.2894  0.3016
 5656SOL    HW117824   0.337   5.942   0.321  0.2586  0.9239 -2.0554
 5656SOL    HW217825   0.485   5.971   0.329  0.5736 -0.9256 -0.3870
 5657SOL     OW17826   0.544   3.667   0.534 -0.1273 -0.2695 -0.1816
 5657SOL    HW117827   0.480   3.603   0.505 -0.3062 -0.6553  1.0078
 5657SOL    HW217828   0.615   3.662   0.469 -0.1788 -1.6013 -0.1637
 5658SOL     OW17829   1.683   2.538   4.430 -0.6485 -0.2162 -0.3129
 5658SOL    HW117830   1.622   2.592   4.481  0.2699  0.9930 -0.4531
 5658SOL    HW217831   1.641   2.530   4.344 -0.9575 -0.0034 -0.1855
 5659SOL     OW17832   3.300   2.171   3.703 -0.2809 -0.1886  0.2738
 5659SOL    HW117833   3.368   2.231   3.674 -1.1587  0.4989 -0.4271
 5659SOL    HW217834   3.248   2.221   3.766 -0.4640 -0.5196  0.3946
 5660SOL     OW17835   3.774   1.794   3.113 -0.0317  0.1479  0.1517
 5660SOL    HW117836   3.782   1.699   3.115 -1.2393  0.0333  1.0589
 5660SOL    HW217837   3.679   1.810   3.104  0.1227  1.2628  0.2990
 5661SOL     OW17838   1.747   5.799   5.172 -0.6655 -0.2219  0.1147
 5661SOL    HW117839   1.824   5.744   5.157 -0.4998 -0.1258  0.5933
 5661SOL    HW217840   1.758   5.872   5.111  0.4804  0.6570  1.3128
 5662SOL     OW17841   1.759   7.202   4.311  0.0985 -0.2547 -0.0008
 5662SOL    HW117842   1.724   7.277   4.359 -0.3347 -0.0865 -0.5688
 5662SOL    HW217843   1.682   7.157   4.276  0.3439 -1.0380  0.4234
 5663SOL     OW17844   5.768   3.666   2.536  0.2531  0.2492  0.4895
 5663SOL    HW117845   5.821   3.747   2.536 -0.6124  0.8673  2.1709
 5663SOL    HW217846   5.818   3.605   2.482  1.3051  1.6727 -0.2281
 5664SOL     OW17847   5.350   4.139   3.268  0.1672  0.3922 -0.2685
 5664SOL    HW117848   5.279   4.193   3.303 -0.6724 -0.8944  0.0673
 5664SOL    HW217849   5.338   4.142   3.173 -0.3842  0.1190 -0.2084
 5665SOL     OW17850   0.182   3.349   7.987 -0.4386  0.0148 -0.4412
 5665SOL    HW117851   0.172   3.254   7.977 -0.0931  0.1644 -2.8251
 5665SOL    HW217852   0.127   3.371   8.063 -2.8366 -1.7073 -1.5390
 5666SOL     OW17853   5.401   0.001   5.067 -0.0858 -0.0107 -0.3962
 5666SOL    HW117854   5.430   0.063   5.000 -1.6204 -0.5126 -1.5928
 5666SOL    HW217855   5.321   0.039   5.102 -0.8574 -1.1141 -0.9060
 5667SOL     OW17856   0.740   3.009   0.740 -0.0596  0.0872  0.2723
 5667SOL    HW117857   0.762   2.949   0.669  0.2551  1.4080 -0.7628
 5667SOL    HW217858   0.714   3.090   0.697  0.5643  1.0644  1.6559
 5668SOL     OW17859   2.831   1.032   6.329  0.0491  0.4565 -0.2081
 5668SOL    HW117860   2.775   1.044   6.406 -0.9086 -1.6657 -0.5157
 5668SOL    HW217861   2.918   1.060   6.358 -0.1860 -0.6975  1.8222
 5669SOL     OW17862   7.844   5.051   2.912  0.1627 -0.3230  0.3930
 5669SOL    HW117863   7.893   5.089   2.840  0.9553  0.7347  1.4482
 5669SOL    HW217864   7.765   5.104   2.918  0.7770  0.5314  1.1976
 5670SOL     OW17865   7.411   7.112   7.401 -0.4877 -0.5605  0.7286
 5670SOL    HW117866   7.472   7.076   7.337  0.5605 -0.1713  1.4882
 5670SOL    HW217867   7.329   7.063   7.386 -0.8254  0.6603 -2.0060
 5671SOL     OW17868   7.209   2.076   5.210  0.1154 -0.6287  0.4605
 5671SOL    HW117869   7.156   2.064   5.131 -1.1806 -0.4389  1.2561
 5671SOL    HW217870   7.167   2.020   5.275  0.9523 -0.5247  1.1035
 5672SOL     OW17871   5.546   2.931   5.141 -0.3854  0.7489  0.4873
 5672SOL    HW117872   5.574   2.848   5.102 -1.5314  1.0586 -1.0629
 5672SOL    HW217873   5.613   2.949   5.207 -0.9578 -2.2247  2.0687
 5673SOL     OW17874   6.235   2.533   4.927 -0.2804 -0.0645  0.9838
 5673SOL    HW117875   6.153   2.492   4.955  0.8434 -2.5780  0.8366
 5673SOL    HW217876   6.282   2.464   4.881  0.4912  2.2716 -2.0278
 5674SOL     OW17877   0.394   5.657   3.515  0.2391  0.8666 -0.0424
 5674SOL    HW117878   0.302   5.660   3.487 -0.2012 -0.1833  1.2214
 5674SOL    HW217879   0.423   5.569   3.494  1.2615  1.4632 -1.2589
 5675SOL     OW17880   4.368   3.812   7.985 -0.2123 -0.1761 -0.2853
 5675SOL    HW117881   4.319   3.752   8.041  0.1557 -1.2635 -1.0873
 5675SOL    HW217882   4.315   3.819   7.906 -0.0258  0.1893 -0.3787
 5676SOL     OW17883   1.549   5.626   2.127  0.1646  0.2192  0.1298
 5676SOL    HW117884   1.486   5.658   2.191  0.9272  0.4591  0.7719
 5676SOL    HW217885   1.514   5.542   2.099  0.6397 -0.7092  2.1297
 5677SOL     OW17886   7.494   6.691   4.651 -0.3752 -0.1623  0.1372
 5677SOL    HW117887   7.409   6.658   4.682 -0.4834  1.1574  1.3962
 5677SOL    HW217888   7.513   6.640   4.573 -2.7652  0.1014 -0.7059
 5678SOL     OW17889   2.112   5.027   2.691 -0.1117 -0.1974 -0.1672
 5678SOL    HW117890   2.046   5.067   2.634 -1.0761  0.6855  1.4696
 5678SOL    HW217891   2.177   4.991   2.631 -0.4562  1.7064 -1.8120
 5679SOL     OW17892   1.861   5.336   6.801 -0.1916  0.4840  0.5017
 5679SOL    HW117893   1.835   5.417   6.846 -1.6467 -0.1554  0.8492
 5679SOL    HW217894   1.790   5.318   6.740  1.1353  0.6036 -1.1612
 5680SOL     OW17895   4.778   1.289   0.628 -0.0829  0.1186 -0.6358
 5680SOL    HW117896   4.804   1.298   0.536 -0.3306  1.8920 -0.5514
 5680SOL    HW217897   4.846   1.334   0.677  0.3303 -1.2640  0.1306
 5681SOL     OW17898   6.176   1.094   7.287 -0.2512 -0.5694  0.1926
 5681SOL    HW117899   6.238   1.129   7.224  2.0908 -1.0662  2.0730
 5681SOL    HW217900   6.187   0.999   7.282  1.2020 -0.5938  2.3527
 5682SOL     OW17901   1.975   3.596   6.079 -0.0661 -0.4997 -0.7174
 5682SOL    HW117902   1.918   3.563   6.148 -1.0503  0.2957 -1.1255
 5682SOL    HW217903   2.037   3.653   6.124 -2.1056  1.8834 -0.6420
 5683SOL     OW17904   7.236   1.332   5.517 -0.6351 -0.1894  0.2311
 5683SOL    HW117905   7.142   1.317   5.526 -0.8812  1.1545  0.1585
 5683SOL    HW217906   7.277   1.255   5.557 -1.7673 -0.2111  1.4081
 5684SOL     OW17907   7.075   2.378   6.587  0.1123 -0.0971  0.1527
 5684SOL    HW117908   7.006   2.399   6.650  1.7045 -1.3311  2.4418
 5684SOL    HW217909   7.128   2.312   6.631  1.8500 -0.3488 -2.1627
 5685SOL     OW17910   5.945   6.151   2.519 -0.0284 -0.1137  0.2414
 5685SOL    HW117911   5.876   6.120   2.577 -2.2943 -0.0656 -2.2458
 5685SOL    HW217912   5.982   6.072   2.481 -1.5504 -0.0922 -1.4211
 5686SOL     OW17913   5.290   2.447   1.888 -0.3927  0.1060  0.0268
 5686SOL    HW117914   5.296   2.478   1.798 -1.8614 -0.3219 -0.2526
 5686SOL    HW217915   5.266   2.355   1.880  1.6159 -0.5375  0.8591
 5687SOL     OW17916   0.654   3.301   5.489  0.4614 -0.2771 -0.0121
 5687SOL    HW117917   0.652   3.388   5.450 -0.4855 -0.0676  0.4758
 5687SOL    HW217918   0.651   3.317   5.583  1.9237 -0.8017  0.1560
 5688SOL     OW17919   5.452   6.428   6.077 -0.8018 -0.3508  0.2722
 5688SOL    HW117920   5.471   6.434   6.170  0.7025 -0.4567  0.0054
 5688SOL    HW217921   5.446   6.335   6.059  0.7421 -0.4262 -0.0305
 5689SOL     OW17922   5.950   1.193   4.883  0.2275  0.5152  0.1634
 5689SOL    HW117923   5.902   1.231   4.956  1.9830  2.0120  0.6090
 5689SOL    HW217924   6.042   1.197   4.910  1.0095  1.8474 -2.4220
 5690SOL     OW17925   4.698   7.025   1.536  0.8322  0.0666 -0.3796
 5690SOL    HW117926   4.751   6.945   1.543  2.4163  0.9240 -1.7329
 5690SOL    HW217927   4.635   7.007   1.467  1.7863  0.2608 -1.3273
 5691SOL     OW17928   2.544   5.635   3.286  1.2027  0.2794 -0.1477
 5691SOL    HW117929   2.470   5.587   3.249  0.6711 -0.7669  2.0875
 5691SOL    HW217930   2.567   5.699   3.220 -0.0829 -1.0296 -1.9541
 5692SOL     OW17931   3.025   4.791   1.086  0.3517 -0.0744  0.2133
 5692SOL    HW117932   3.044   4.735   1.012 -2.0567 -1.3361  0.4444
 5692SOL    HW217933   3.062   4.745   1.162 -2.3051 -1.9307  0.5175
 5693SOL     OW17934   3.146   6.694   0.460 -0.5044 -0.3092  0.3415
 5693SOL    HW117935   3.128   6.714   0.551 -2.6719  2.3299 -0.5283
 5693SOL    HW217936   3.063   6.661   0.426  0.3497 -1.5359 -0.6548
 5694SOL     OW17937   7.641   7.172   4.375  0.2272  0.0708  0.2623
 5694SOL    HW117938   7.714   7.231   4.394  1.1879 -0.3476 -1.8439
 5694SOL    HW217939   7.616   7.194   4.285 -3.7208  1.6859  1.5189
 5695SOL     OW17940   4.781   5.141   1.063 -0.6546 -0.3556  0.5657
 5695SOL    HW117941   4.775   5.051   1.033  1.6282 -1.1989  2.3183
 5695SOL    HW217942   4.707   5.152   1.122 -2.1794 -0.3226 -1.2626
 5696SOL     OW17943   6.545   6.615   4.763  0.3038  0.0271 -0.3249
 5696SOL    HW117944   6.561   6.533   4.809  0.7879  0.3365  0.0630
 5696SOL    HW217945   6.457   6.641   4.789  0.1967 -0.3070 -0.3565
 5697SOL     OW17946   1.750   4.514   1.061  0.1372 -0.2159  0.0485
 5697SOL    HW117947   1.724   4.429   1.096  1.2022 -0.0718  1.2274
 5697SOL    HW217948   1.840   4.527   1.091 -0.1328  1.4965  0.2264
 5698SOL     OW17949   1.415   2.136   3.534  0.0743  0.7607  0.2547
 5698SOL    HW117950   1.485   2.202   3.537  0.8359  0.1660 -1.9775
 5698SOL    HW217951   1.441   2.070   3.598  1.5029  0.6584 -0.3745
 5699SOL     OW17952   5.070   1.287   0.191 -0.1440  0.2607 -0.0121
 5699SOL    HW117953   5.123   1.367   0.191  0.7346 -0.3046 -0.7820
 5699SOL    HW217954   5.131   1.217   0.214 -0.3209 -0.5284 -1.8097
 5700SOL     OW17955   0.075   5.545   5.039  0.1703 -0.2143 -0.0747
 5700SOL    HW117956   0.012   5.500   4.982 -0.4501 -1.9443  1.8588
 5700SOL    HW217957   0.142   5.480   5.058  0.0177  0.0935  1.6671
 5701SOL     OW17958   7.699   1.943   2.310  0.7733  0.1049 -1.0456
 5701SOL    HW117959   7.687   1.848   2.307 -1.9234  0.3665 -1.3352
 5701SOL    HW217960   7.713   1.962   2.402  3.0289 -0.6645 -1.1651
 5702SOL     OW17961   2.136   5.517   1.413  0.2360 -0.0890  0.0278
 5702SOL    HW117962   2.209   5.508   1.475 -0.9988 -1.0418  1.4307
 5702SOL    HW217963   2.170   5.486   1.330  1.3922 -0.6172  0.6838
 5703SOL     OW17964   0.286   1.404   7.533 -0.1122 -0.0370 -0.0349
 5703SOL    HW117965   0.278   1.474   7.468 -0.2647  1.4803  1.5401
 5703SOL    HW217966   0.377   1.375   7.526  0.4956  1.6180  0.5068
 5704SOL     OW17967   5.063   1.357   4.731 -0.3665  0.1705 -0.3224
 5704SOL    HW117968   5.065   1.274   4.683 -0.1461 -0.1565  0.2405
 5704SOL    HW217969   5.042   1.423   4.665  1.1573 -0.0993 -1.1228
 5705SOL     OW17970   6.179   0.245   1.982  0.2991 -0.2781 -0.1202
 5705SOL    HW117971   6.196   0.337   1.957  0.6882  0.1665  1.6394
 5705SOL    HW217972   6.230   0.194   1.918  1.4999  0.7976 -0.0727
 5706SOL     OW17973   2.850   7.047   4.484  0.5114  0.4191  0.7113
 5706SOL    HW117974   2.814   6.958   4.485  1.1486  0.1522  1.8785
 5706SOL    HW217975   2.829   7.082   4.570  1.5509  0.8671  0.7955
 5707SOL     OW17976   2.203   1.084   1.936 -0.5820 -0.7968 -0.7394
 5707SOL    HW117977   2.228   1.091   2.028  0.0430 -1.3878 -0.8642
 5707SOL    HW217978   2.285   1.081   1.888 -0.8995 -1.3034 -1.2604
 5708SOL     OW17979   5.450   2.434   5.384 -0.2940  0.1548 -0.5210
 5708SOL    HW117980   5.496   2.449   5.302  0.8371 -2.3478 -0.4294
 5708SOL    HW217981   5.515   2.451   5.452 -0.7778  0.6968 -0.1775
 5709SOL     OW17982   4.079   7.369   4.320 -0.4388  0.3777 -0.0845
 5709SOL    HW117983   4.061   7.461   4.342 -0.3276  0.2666  0.5061
 5709SOL    HW217984   4.174   7.361   4.328 -0.5287 -0.0081  0.8145
 5710SOL     OW17985   3.468   5.539   7.328 -0.4227 -0.0270  0.2093
 5710SOL    HW117986   3.423   5.454   7.323  0.5530 -0.7399  2.3642
 5710SOL    HW217987   3.456   5.567   7.419 -0.1723  1.8488 -0.3013
 5711SOL     OW17988   6.287   2.495   1.641  0.3142 -0.6130  0.2032
 5711SOL    HW117989   6.356   2.501   1.574 -0.4096  1.0045 -0.4393
 5711SOL    HW217990   6.208   2.526   1.596 -0.5575 -1.1385  1.3333
 5712SOL     OW17991   1.965   5.100   1.269  0.7251  0.5651 -0.5208
 5712SOL    HW117992   1.877   5.063   1.269 -0.6913  3.4537 -3.1816
 5712SOL    HW217993   2.023   5.024   1.264 -1.7746 -1.3907 -2.6249
 5713SOL     OW17994   1.336   7.160   3.755 -0.1545  0.0095  0.0054
 5713SOL    HW117995   1.385   7.178   3.675 -1.4068  0.2054 -0.7461
 5713SOL    HW217996   1.393   7.103   3.806  0.9875  0.5015 -0.6812
 5714SOL     OW17997   2.793   3.707   1.876  0.2969  0.2374 -0.1387
 5714SOL    HW117998   2.741   3.783   1.849  0.4746  0.0535 -1.0414
 5714SOL    HW217999   2.740   3.663   1.942  0.6507  1.7190  1.2007
 5715SOL     OW18000   7.050   0.215   7.522 -0.2660  0.8100  0.8312
 5715SOL    HW118001   7.032   0.285   7.459 -0.7758  0.8819  1.0556
 5715SOL    HW218002   7.051   0.258   7.607  1.6508  0.9385  0.7956
 5716SOL     OW18003   5.845   5.166   2.496  0.1256 -0.1292  0.1667
 5716SOL    HW118004   5.891   5.082   2.507 -0.0195 -0.1257  0.8712
 5716SOL    HW218005   5.899   5.215   2.435  0.4035 -0.6037  0.0241
 5717SOL     OW18006   0.566   5.470   3.821  0.3056 -0.6038 -0.9451
 5717SOL    HW118007   0.479   5.507   3.806  0.4560 -0.1775 -0.7816
 5717SOL    HW218008   0.587   5.492   3.912  0.8293 -0.1915 -1.1609
 5718SOL     OW18009   1.253   1.819   5.839  0.6721  0.6067 -0.3695
 5718SOL    HW118010   1.258   1.875   5.762 -1.1141  0.2955 -0.7561
 5718SOL    HW218011   1.275   1.732   5.807 -0.3655  0.4235 -0.6161
 5719SOL     OW18012   0.734   5.437   7.525  0.4451  0.7353  0.6616
 5719SOL    HW118013   0.748   5.481   7.441  2.2210 -0.7536  0.1091
 5719SOL    HW218014   0.660   5.483   7.564  0.3354  2.2471 -1.1767
 5720SOL     OW18015   7.814   5.089   1.069  0.4598  0.1609 -0.3641
 5720SOL    HW118016   7.757   5.013   1.061  1.7857 -1.0142  0.6564
 5720SOL    HW218017   7.902   5.054   1.055  1.0028  1.7796 -1.2112
 5721SOL     OW18018   2.187   2.199   5.359  0.7097  0.5026  0.5921
 5721SOL    HW118019   2.166   2.285   5.397  0.9497  2.2120 -2.7984
 5721SOL    HW218020   2.120   2.186   5.292  2.2112 -0.6912 -0.7361
 5722SOL     OW18021   3.379   4.843   0.253 -0.1133 -0.4769 -0.7751
 5722SOL    HW118022   3.407   4.929   0.221 -2.0150  0.4571 -0.0919
 5722SOL    HW218023   3.381   4.851   0.348 -0.9903 -0.9194 -0.7031
 5723SOL     OW18024   2.170   2.584   7.017  0.1370 -0.0984 -0.7689
 5723SOL    HW118025   2.089   2.565   7.064  0.9119  1.8631  1.5232
 5723SOL    HW218026   2.227   2.627   7.081  2.4532 -0.0434 -2.6932
 5724SOL     OW18027   2.696   6.826   2.864  0.2548 -0.6242 -0.1680
 5724SOL    HW118028   2.743   6.788   2.789  1.6556  0.0196  0.3408
 5724SOL    HW218029   2.707   6.763   2.934 -0.9275 -1.1550 -0.4429
 5725SOL     OW18030   5.316   4.076   1.251  0.2560  0.2449 -0.1028
 5725SOL    HW118031   5.286   4.000   1.201 -1.2581  0.9773 -0.3748
 5725SOL    HW218032   5.237   4.108   1.295  1.0774  1.0512  0.8270
 5726SOL     OW18033   0.707   2.964   3.326 -0.8271 -0.1890  0.4721
 5726SOL    HW118034   0.741   2.966   3.236  0.1363  0.4231  0.8254
 5726SOL    HW218035   0.614   2.981   3.317 -0.5048  1.3381 -0.3224
 5727SOL     OW18036   4.179   3.309   6.805 -0.1140 -0.4363  0.1941
 5727SOL    HW118037   4.191   3.274   6.893  0.1832 -1.9894 -0.4348
 5727SOL    HW218038   4.104   3.369   6.813  0.1513 -0.2572  1.5676
 5728SOL     OW18039   4.095   2.946   0.187  0.4755 -0.7461 -0.4473
 5728SOL    HW118040   4.164   2.904   0.239 -1.2848  1.2711  4.1096
 5728SOL    HW218041   4.023   2.883   0.188  0.8930 -1.2836 -1.8493
 5729SOL     OW18042   1.896   4.784   7.818 -0.1016  0.0960 -0.3968
 5729SOL    HW118043   1.803   4.796   7.795 -0.3327 -2.3561 -1.0289
 5729SOL    HW218044   1.894   4.744   7.905  0.2454 -1.3391 -1.0150
 5730SOL     OW18045   7.008   0.636   7.446  0.4829  0.2199 -0.2005
 5730SOL    HW118046   7.000   0.704   7.379  0.4085  0.8209  0.3965
 5730SOL    HW218047   7.020   0.685   7.528 -0.8223 -0.4537  0.4259
 5731SOL     OW18048   1.386   3.575   5.556  0.0554  0.5673 -0.0062
 5731SOL    HW118049   1.371   3.594   5.463  0.4586  0.8447 -0.0166
 5731SOL    HW218050   1.478   3.549   5.560 -0.4227 -1.2946  0.0232
 5732SOL     OW18051   7.823   6.190   1.717 -0.4210  0.5500 -0.4785
 5732SOL    HW118052   7.834   6.275   1.673 -3.1591  1.1328 -0.1917
 5732SOL    HW218053   7.800   6.129   1.646 -2.5562  1.0012 -0.2434
 5733SOL     OW18054   2.827   2.026   4.653  0.2256  0.4195  0.0694
 5733SOL    HW118055   2.774   2.001   4.577  1.3382 -1.3962 -0.1844
 5733SOL    HW218056   2.810   2.119   4.665 -1.0932  0.4296 -1.5047
 5734SOL     OW18057   7.411   3.800   1.351 -0.9719 -0.0020  0.0798
 5734SOL    HW118058   7.435   3.837   1.436  0.5888  0.0809 -0.3749
 5734SOL    HW218059   7.387   3.876   1.298  1.9566  0.4495 -0.7636
 5735SOL     OW18060   7.494   0.887   0.050 -0.2712  0.3225 -0.6370
 5735SOL    HW118061   7.479   0.866   0.142 -1.0754 -0.9288 -1.0143
 5735SOL    HW218062   7.421   0.845   0.004  1.4713 -1.3363 -2.0857
 5736SOL     OW18063   3.366   5.710   6.693 -0.1626  0.0375  0.1169
 5736SOL    HW118064   3.399   5.707   6.603  1.2130 -0.1232  0.5967
 5736SOL    HW218065   3.277   5.676   6.688 -0.1636  0.2005 -1.2082
 5737SOL     OW18066   5.220   3.693   3.432  0.2970  0.0337  0.0150
 5737SOL    HW118067   5.164   3.705   3.355 -0.3071 -0.5283  0.3512
 5737SOL    HW218068   5.187   3.613   3.473  0.5353  0.3858  0.9240
 5738SOL     OW18069   7.346   7.237   7.636  0.9007  0.0768 -0.0736
 5738SOL    HW118070   7.343   7.170   7.704  2.6764 -0.1093 -0.1258
 5738SOL    HW218071   7.376   7.190   7.557  1.4215  0.7722 -0.3004
 5739SOL     OW18072   6.362   1.537   6.399  0.2948 -0.4798 -0.6999
 5739SOL    HW118073   6.453   1.514   6.382  0.8709  0.5133  0.8011
 5739SOL    HW218074   6.347   1.513   6.490 -0.7637 -0.0805 -0.7463
 5740SOL     OW18075   5.485   0.136   4.519 -0.1929 -0.3426  0.1116
 5740SOL    HW118076   5.489   0.051   4.561 -2.2335 -0.3526  0.3759
 5740SOL    HW218077   5.530   0.195   4.579 -0.7647 -0.8325  1.0310
 5741SOL     OW18078   7.095   6.577   0.962  0.2992 -0.7561 -0.0001
 5741SOL    HW118079   7.187   6.591   0.939  0.9950  0.2081  2.9469
 5741SOL    HW218080   7.095   6.496   1.013 -0.4297 -0.5329  0.3645
 5742SOL     OW18081   5.701   2.783   0.527  0.5245  0.0660  0.4971
 5742SOL    HW118082   5.660   2.820   0.605 -0.0780 -1.0997  0.7588
 5742SOL    HW218083   5.656   2.700   0.514  0.6993  0.1925 -1.0350
 5743SOL     OW18084   5.809   3.602   3.519  0.1212 -0.3409 -0.4486
 5743SOL    HW118085   5.840   3.570   3.604  1.0176  2.2854  0.3230
 5743SOL    HW218086   5.750   3.674   3.541 -0.0348  0.0511 -2.0525
 5744SOL     OW18087   7.561   4.243   0.748  0.1472 -0.0468 -0.2523
 5744SOL    HW118088   7.535   4.285   0.830 -1.4965  1.4299 -1.4440
 5744SOL    HW218089   7.515   4.293   0.680  4.3216  1.2482 -2.4713
 5745SOL     OW18090   3.160   5.048   3.906 -0.0444 -0.0170  0.7310
 5745SOL    HW118091   3.142   5.115   3.841 -1.0313  0.1005  1.1099
 5745SOL    HW218092   3.193   4.973   3.856 -0.4943  0.1804  0.1361
 5746SOL     OW18093   4.346   2.125   7.276  0.0017  0.8672 -0.0090
 5746SOL    HW118094   4.292   2.142   7.354 -0.5110  1.3589 -0.4660
 5746SOL    HW218095   4.292   2.068   7.222  0.7182 -0.2188  0.3843
 5747SOL     OW18096   4.253   4.261   2.372  0.4750 -0.4665  0.0755
 5747SOL    HW118097   4.213   4.310   2.444  0.1629  0.9093 -0.9766
 5747SOL    HW218098   4.345   4.287   2.374  0.2764  0.3307 -0.5853
 5748SOL     OW18099   5.358   1.123   1.766  0.3554  0.2341 -0.1230
 5748SOL    HW118100   5.397   1.206   1.738  0.2633  0.0039 -0.9611
 5748SOL    HW218101   5.269   1.146   1.794  0.7978  0.6280  0.9896
 5749SOL     OW18102   5.623   7.075   2.611  0.5366  0.3410  1.0560
 5749SOL    HW118103   5.528   7.062   2.617  0.4374  0.7341  0.4157
 5749SOL    HW218104   5.643   7.067   2.518  1.3796 -1.3534  1.3462
 5750SOL     OW18105   3.735   7.896   2.505 -0.2245 -0.2789  0.3592
 5750SOL    HW118106   3.712   7.803   2.498 -0.5996 -0.1707  0.1461
 5750SOL    HW218107   3.653   7.943   2.490  0.2804  0.1392 -1.3373
 5751SOL     OW18108   0.394   0.704   2.348 -0.6501 -0.4895 -0.4432
 5751SOL    HW118109   0.419   0.709   2.256 -0.8162 -0.0877 -0.4681
 5751SOL    HW218110   0.426   0.619   2.377  0.0219 -0.3246 -0.6879
 5752SOL     OW18111   5.589   3.428   3.589 -0.2393  0.3512 -0.0820
 5752SOL    HW118112   5.502   3.394   3.610 -0.5767  1.5192  0.5440
 5752SOL    HW218113   5.572   3.511   3.545  0.5237  1.6632  1.9392
 5753SOL     OW18114   0.099   2.373   1.706 -0.4737  0.5050 -0.7438
 5753SOL    HW118115   0.192   2.396   1.711 -0.3795  0.3442 -1.6635
 5753SOL    HW218116   0.087   2.309   1.777 -0.3117  1.8810  0.5862
 5754SOL     OW18117   2.260   1.646   0.554 -0.1283 -0.1622 -0.0941
 5754SOL    HW118118   2.343   1.657   0.508  0.4817  1.4893  1.2993
 5754SOL    HW218119   2.198   1.623   0.485  1.6831 -2.7307 -1.0028
 5755SOL     OW18120   2.561   2.684   7.672  0.1562  0.4206 -0.1707
 5755SOL    HW118121   2.646   2.683   7.628 -0.6800  2.0647 -1.9800
 5755SOL    HW218122   2.503   2.637   7.612 -0.5933  0.9258  0.1398
 5756SOL     OW18123   5.348   2.331   4.584 -0.1516  0.0677  0.0939
 5756SOL    HW118124   5.327   2.391   4.513 -0.2711  1.2125  1.0633
 5756SOL    HW218125   5.266   2.287   4.604 -0.1913 -0.0202 -0.2663
 5757SOL     OW18126   1.257   6.325   6.489  0.2011  0.1391  0.3237
 5757SOL    HW118127   1.238   6.356   6.400 -1.4473 -1.0424  0.2091
 5757SOL    HW218128   1.260   6.230   6.480 -0.3941 -0.0160  1.5966
 5758SOL     OW18129   0.362   5.501   5.900  0.5175  0.1818  0.0600
 5758SOL    HW118130   0.351   5.457   5.984 -1.2196 -0.1391 -0.2938
 5758SOL    HW218131   0.314   5.583   5.910 -2.0806 -1.0209 -1.4074
 5759SOL     OW18132   2.142   7.336   2.596  0.0770 -0.1280  0.1396
 5759SOL    HW118133   2.166   7.356   2.686 -1.4442  0.4053  0.4644
 5759SOL    HW218134   2.189   7.401   2.544 -0.1919  0.5320  0.6947
 5760SOL     OW18135   5.804   0.240   0.330  0.3409 -0.4879  0.3743
 5760SOL    HW118136   5.748   0.266   0.256 -0.1919  1.3884  1.3777
 5760SOL    HW218137   5.791   0.309   0.395  1.8047 -1.4177  1.7105
 5761SOL     OW18138   4.313   2.773   5.664 -0.4203 -0.2727 -0.1581
 5761SOL    HW118139   4.374   2.736   5.601  0.3450  0.8952 -0.1405
 5761SOL    HW218140   4.348   2.860   5.683 -1.0138 -0.3222  1.3481
 5762SOL     OW18141   5.029   6.348   5.058 -0.1216  0.1177 -0.1485
 5762SOL    HW118142   5.018   6.420   5.119  0.0189 -0.7285  0.9006
 5762SOL    HW218143   4.970   6.280   5.090 -0.2258 -0.2644 -1.0963
 5763SOL     OW18144   7.380   6.604   7.568  0.5516  0.2204  0.3610
 5763SOL    HW118145   7.456   6.631   7.620  0.1341  2.3060 -0.0282
 5763SOL    HW218146   7.401   6.632   7.479 -0.0772 -0.4794 -0.0189
 5764SOL     OW18147   7.044   6.810   5.816 -0.3441  0.2676  0.2755
 5764SOL    HW118148   6.977   6.844   5.757 -1.2244 -1.2775  0.3064
 5764SOL    HW218149   7.050   6.717   5.793  1.4569  0.2641  0.6123
 5765SOL     OW18150   5.535   0.583   5.241 -0.5375 -0.5370  0.6911
 5765SOL    HW118151   5.501   0.503   5.280 -0.5609  0.3658  2.6158
 5765SOL    HW218152   5.486   0.654   5.283 -0.2414  0.5251 -0.6745
 5766SOL     OW18153   7.197   3.165   7.322 -0.3651 -0.5055 -0.5978
 5766SOL    HW118154   7.190   3.195   7.412  0.2633 -0.0213 -0.7037
 5766SOL    HW218155   7.277   3.112   7.320 -0.4395 -0.6119 -0.8458
 5767SOL     OW18156   6.730   0.439   7.767  0.0138 -0.1777  0.2615
 5767SOL    HW118157   6.759   0.478   7.685  1.3565  0.3123  0.9312
 5767SOL    HW218158   6.714   0.347   7.745  2.3917 -0.5755 -0.1676
 5768SOL     OW18159   4.261   6.566   0.030 -0.1400  0.4900  0.6843
 5768SOL    HW118160   4.224   6.481   0.052  0.6092  0.0977  0.4504
 5768SOL    HW218161   4.256   6.571  -0.065  3.1108 -0.8720  0.3380
 5769SOL     OW18162   6.168   7.859   1.517 -0.2867  0.3316 -0.1559
 5769SOL    HW118163   6.260   7.880   1.535 -0.1723 -0.8181  0.7901
 5769SOL    HW218164   6.140   7.809   1.594 -1.7265  0.6921 -0.4155
 5770SOL     OW18165   4.536   6.113   0.312  0.4180  0.2108  0.3320
 5770SOL    HW118166   4.472   6.054   0.275  0.2496  0.9003 -0.5124
 5770SOL    HW218167   4.608   6.057   0.341 -0.4626 -0.5423  1.0929
 5771SOL     OW18168   4.023   3.734   4.373  0.1297  0.1090 -0.2531
 5771SOL    HW118169   4.091   3.680   4.332 -0.5962 -0.4410 -0.7647
 5771SOL    HW218170   3.971   3.672   4.423  1.2837  0.8348  1.9662
 5772SOL     OW18171   5.240   5.884   4.746 -0.4437  0.1315  0.6595
 5772SOL    HW118172   5.328   5.852   4.726  0.4095  1.0717  2.6608
 5772SOL    HW218173   5.191   5.870   4.665  1.5681 -0.3043 -0.5606
 5773SOL     OW18174   5.454   4.652   6.931  0.0980  0.1252 -0.0863
 5773SOL    HW118175   5.501   4.683   6.853  0.1171 -1.3525 -0.6790
 5773SOL    HW218176   5.487   4.564   6.946 -2.2731 -0.8953 -0.3909
 5774SOL     OW18177   5.496   0.031   3.205 -0.0156 -0.1033  0.0055
 5774SOL    HW118178   5.404   0.006   3.198  0.2601 -0.5671 -3.4389
 5774SOL    HW218179   5.494   0.121   3.237 -1.5235 -0.6987  1.7311
 5775SOL     OW18180   1.472   4.873   0.003  0.2002  0.3034 -0.0406
 5775SOL    HW118181   1.450   4.787  -0.033  0.3629  0.2855 -0.0996
 5775SOL    HW218182   1.549   4.858   0.057 -1.1107 -0.0067  1.8255
 5776SOL     OW18183   6.182   4.745   5.838  0.3223  0.3226 -0.2859
 5776SOL    HW118184   6.269   4.729   5.875 -1.1312 -2.6742  2.2463
 5776SOL    HW218185   6.167   4.671   5.779 -1.6479 -1.1083  1.8357
 5777SOL     OW18186   3.210   5.050   6.288  0.0667 -0.7989 -0.2019
 5777SOL    HW118187   3.267   5.127   6.297  1.5906 -1.9209  0.0181
 5777SOL    HW218188   3.122   5.085   6.302  0.3007  1.5623 -3.2994
 5778SOL     OW18189   3.747   6.931   6.433  0.2937 -0.3307  0.5450
 5778SOL    HW118190   3.665   6.957   6.473  0.5848 -0.2218  1.0793
 5778SOL    HW218191   3.771   6.849   6.478 -1.0859 -2.1185 -1.7358
 5779SOL     OW18192   4.684   1.172   6.633  0.2897  0.0794  0.5337
 5779SOL    HW118193   4.593   1.148   6.650  0.0168 -0.5925 -1.5586
 5779SOL    HW218194   4.722   1.094   6.594  1.6973  0.4605  1.1004
 5780SOL     OW18195   3.971   0.702   1.746 -0.2235 -0.1254  0.1646
 5780SOL    HW118196   3.898   0.744   1.790  0.7340  0.1405  1.5857
 5780SOL    HW218197   3.935   0.668   1.664 -1.1252  3.2272 -0.9827
 5781SOL     OW18198   3.731   7.008   0.774  0.0405  0.1309 -0.6085
 5781SOL    HW118199   3.702   7.081   0.828 -2.3181 -0.2479 -1.2500
 5781SOL    HW218200   3.793   6.961   0.830 -0.1224  1.3493  0.6614
 5782SOL     OW18201   1.344   5.022   4.347 -0.4596  0.2488 -0.0002
 5782SOL    HW118202   1.284   4.964   4.395 -0.4919 -0.5424 -0.9718
 5782SOL    HW218203   1.343   5.104   4.397 -1.6516 -0.0551  0.5044
 5783SOL     OW18204   5.638   2.049   0.743 -0.1000  0.2470 -0.4277
 5783SOL    HW118205   5.554   2.065   0.786 -0.0425 -1.1531  0.2540
 5783SOL    HW218206   5.645   2.119   0.678 -2.4770 -0.4406 -1.5318
 5784SOL     OW18207   1.751   1.129   0.485 -0.2478  0.0301 -0.4351
 5784SOL    HW118208   1.675   1.167   0.440 -0.9365 -0.0780  0.6002
 5784SOL    HW218209   1.749   1.036   0.460  1.1218  0.4885 -2.5296
 5785SOL     OW18210   6.555   3.985   3.844 -0.2837 -0.0756 -0.2774
 5785SOL    HW118211   6.631   4.033   3.810  0.4948 -0.2658  1.0892
 5785SOL    HW218212   6.480   4.023   3.799  0.7229 -1.1724 -3.1169
 5786SOL     OW18213   5.027   7.063   6.998  0.1378  0.5804  0.3900
 5786SOL    HW118214   5.072   7.081   6.915 -0.4526  1.5226  0.2509
 5786SOL    HW218215   4.934   7.076   6.977 -0.3643 -2.2901  0.3983
 5787SOL     OW18216   6.911   4.698   5.560  0.3605 -0.0629 -0.3808
 5787SOL    HW118217   6.980   4.731   5.504  1.1769 -0.1450  0.5489
 5787SOL    HW218218   6.862   4.637   5.504  0.7237  0.3697 -1.1885
 5788SOL     OW18219   2.102   2.397   5.019  0.2734 -0.1541  0.3775
 5788SOL    HW118220   2.072   2.419   4.931  1.1767 -0.0514  0.0821
 5788SOL    HW218221   2.049   2.451   5.077  0.7682  0.9858 -0.1997
 5789SOL     OW18222   2.677   2.507   1.147 -0.4508  0.1643 -0.3155
 5789SOL    HW118223   2.701   2.415   1.159 -0.0200  0.2121 -0.7868
 5789SOL    HW218224   2.659   2.539   1.235  1.8415  0.2936  0.1641
 5790SOL     OW18225   1.877   3.098   7.884 -0.4252  0.5473  0.5527
 5790SOL    HW118226   1.870   3.082   7.790  0.3427 -0.9058  0.7137
 5790SOL    HW218227   1.912   3.187   7.891 -0.1511  0.5400 -0.5286
 5791SOL     OW18228   7.241   7.805   6.702  0.3503  0.1565 -0.0485
 5791SOL    HW118229   7.223   7.851   6.620 -1.2528 -1.4783 -0.6786
 5791SOL    HW218230   7.195   7.857   6.769  0.6572  0.8232 -0.3415
 5792SOL     OW18231   5.818   4.898   0.905  0.4405 -0.3497 -0.5857
 5792SOL    HW118232   5.785   4.959   0.971  0.4900  0.6670 -1.4780
 5792SOL    HW218233   5.759   4.909   0.830  1.1442 -0.5361 -1.1812
 5793SOL     OW18234   4.506   1.228   7.176 -0.4136  0.1710  0.0343
 5793SOL    HW118235   4.492   1.211   7.083  0.7758  1.7128 -0.4465
 5793SOL    HW218236   4.513   1.323   7.183  1.2589 -0.0039  1.4365
 5794SOL     OW18237   6.226   3.900   6.285  0.3204  0.0547  0.3425
 5794SOL    HW118238   6.181   3.852   6.354 -0.0505  1.2075  0.9299
 5794SOL    HW218239   6.318   3.896   6.308  0.1888  0.5004  0.9581
 5795SOL     OW18240   5.151   2.412   1.025  0.0557  0.0073  0.1599
 5795SOL    HW118241   5.066   2.438   0.989  0.8406  0.9271 -1.1359
 5795SOL    HW218242   5.177   2.486   1.080  0.6388  0.3568 -0.5754
 5796SOL     OW18243   6.335   7.318   3.619  0.1277 -0.2200 -0.9350
 5796SOL    HW118244   6.412   7.263   3.611 -0.4323 -1.2376  0.4742
 5796SOL    HW218245   6.262   7.257   3.626 -0.5574  0.6932  0.1726
 5797SOL     OW18246   2.197   4.120   3.010 -0.0017  0.1924 -0.1172
 5797SOL    HW118247   2.152   4.174   2.945  2.0554  0.7485 -1.1519
 5797SOL    HW218248   2.251   4.181   3.060  0.7317 -0.6242  0.1151
 5798SOL     OW18249   6.637   1.543   6.400 -0.5758  0.0814  0.6020
 5798SOL    HW118250   6.716   1.489   6.404 -0.4140  0.0519 -1.5917
 5798SOL    HW218251   6.655   1.617   6.458  0.2589 -0.8908  1.6111
 5799SOL     OW18252   1.152   1.928   3.355  0.2411  0.3576  0.5067
 5799SOL    HW118253   1.145   1.956   3.263 -1.1939  0.1777  0.5396
 5799SOL    HW218254   1.168   2.010   3.403 -0.4680  0.6692  0.2358
 5800SOL     OW18255   3.682   2.861   3.406  0.0400  0.6250 -0.1213
 5800SOL    HW118256   3.730   2.928   3.357  0.2298  1.6800  1.4039
 5800SOL    HW218257   3.750   2.812   3.452 -0.1169 -0.5102 -1.0467
 5801SOL     OW18258   6.159   0.504   6.947  0.3686  0.1258  0.1676
 5801SOL    HW118259   6.209   0.535   6.872  2.0735 -0.8863  0.8337
 5801SOL    HW218260   6.205   0.425   6.976 -1.0413 -0.2801  1.4447
 5802SOL     OW18261   4.004   5.543   6.703 -0.5007  0.3890  0.3916
 5802SOL    HW118262   3.926   5.571   6.656 -0.4245 -0.9630 -0.6276
 5802SOL    HW218263   4.054   5.623   6.718 -0.9462  0.9853 -1.1140
 5803SOL     OW18264   4.433   3.920   1.783  0.4235 -0.7334 -0.5524
 5803SOL    HW118265   4.396   3.917   1.872 -0.6202  1.5879 -0.8224
 5803SOL    HW218266   4.522   3.953   1.795 -0.3262  1.4150 -0.4282
 5804SOL     OW18267   3.961   4.871   1.309  0.3942  0.1305  0.6674
 5804SOL    HW118268   3.976   4.813   1.234 -0.3186  1.8875 -0.9183
 5804SOL    HW218269   3.870   4.856   1.333 -0.4031  1.8957 -1.0124
 5805SOL     OW18270   2.350   6.739   5.303 -0.1489 -0.6358  0.1915
 5805SOL    HW118271   2.339   6.822   5.258 -1.8485 -0.7959  0.2496
 5805SOL    HW218272   2.388   6.681   5.237  0.3723 -0.0238 -0.0579
 5806SOL     OW18273   4.691   3.519   3.649  0.4509 -0.3507 -0.1025
 5806SOL    HW118274   4.624   3.511   3.717  0.3431 -0.6033 -0.2360
 5806SOL    HW218275   4.725   3.430   3.639  0.3400 -0.3476 -0.5060
 5807SOL     OW18276   5.867   1.997   5.397 -0.5297 -0.7035 -0.2789
 5807SOL    HW118277   5.821   1.961   5.321  0.2742  0.1864 -1.2166
 5807SOL    HW218278   5.952   1.951   5.398 -0.5850 -0.8041  0.1699
 5808SOL     OW18279   5.443   4.910   3.860 -0.1226  0.1609  0.0379
 5808SOL    HW118280   5.393   4.883   3.937  0.9601 -2.5275 -0.0937
 5808SOL    HW218281   5.387   4.887   3.786  0.2741 -0.5594 -0.0454
 5809SOL     OW18282   7.421   4.118   6.895  0.1261 -0.7682  0.0485
 5809SOL    HW118283   7.373   4.083   6.970 -1.4767 -0.2291 -0.6889
 5809SOL    HW218284   7.367   4.096   6.819  0.6568  0.5205 -0.7340
 5810SOL     OW18285   7.793   6.204   2.768  0.8500 -0.0742 -0.2244
 5810SOL    HW118286   7.713   6.181   2.720  0.4907  1.9033 -0.6600
 5810SOL    HW218287   7.864   6.170   2.713  0.3802  0.5034 -1.2229
 5811SOL     OW18288   4.765   4.356   2.418 -0.2719 -0.0753 -0.4781
 5811SOL    HW118289   4.839   4.297   2.410  0.8696  0.9315  1.7747
 5811SOL    HW218290   4.781   4.424   2.353  1.6877  0.9844  1.0417
 5812SOL     OW18291   1.777   1.819   7.246  0.1348  0.6571 -0.0034
 5812SOL    HW118292   1.756   1.815   7.339 -0.8557 -2.0134 -0.2793
 5812SOL    HW218293   1.758   1.910   7.221 -0.3874  1.2025  2.1750
 5813SOL     OW18294   3.755   4.017   1.912  0.2770  0.1474 -0.2592
 5813SOL    HW118295   3.801   4.071   1.848  1.9569 -0.3564  0.4713
 5813SOL    HW218296   3.813   4.014   1.987 -1.1677 -0.1808  0.8887
 5814SOL     OW18297   5.351   7.778   0.310 -0.1671 -0.1524  0.2861
 5814SOL    HW118298   5.323   7.781   0.219 -0.5693 -1.1974  0.3615
 5814SOL    HW218299   5.371   7.869   0.332  0.7060  0.0243 -1.0766
 5815SOL     OW18300   2.100   4.259   4.020 -0.6462 -0.4100  0.2314
 5815SOL    HW118301   2.162   4.186   4.015 -0.0901  0.1182 -1.3722
 5815SOL    HW218302   2.024   4.228   3.971 -1.6221 -0.9823  2.0327
 5816SOL     OW18303   5.830   6.328   5.393  0.0402 -0.3807  0.4810
 5816SOL    HW118304   5.897   6.334   5.324 -0.5625  1.9614  0.0154
 5816SOL    HW218305   5.748   6.349   5.349 -1.0268 -2.7203  1.1525
 5817SOL     OW18306   7.233   0.333   5.339  0.2217 -0.4776 -0.1152
 5817SOL    HW118307   7.230   0.258   5.399 -0.8118 -0.1514  0.2664
 5817SOL    HW218308   7.179   0.306   5.265 -2.8875  1.0223  1.4334
 5818SOL     OW18309   2.421   3.493   6.672 -0.1026 -0.2600  0.4657
 5818SOL    HW118310   2.416   3.550   6.595  2.2147 -0.7660 -0.1388
 5818SOL    HW218311   2.502   3.520   6.716 -0.7951 -0.7626  2.1295
 5819SOL     OW18312   3.991   1.383   3.964  0.1151  0.0294 -0.2698
 5819SOL    HW118313   3.985   1.308   3.905  0.7698 -0.2038 -0.0486
 5819SOL    HW218314   3.913   1.435   3.945  0.1507 -0.2115 -1.1068
 5820SOL     OW18315   0.353   0.762   2.086  0.3856  0.0445  0.1824
 5820SOL    HW118316   0.329   0.722   2.002  0.7105  2.0468 -0.9197
 5820SOL    HW218317   0.297   0.839   2.093  0.4803  0.0031  1.7482
 5821SOL     OW18318   5.073   7.229   7.830  0.1155 -0.0917 -0.3310
 5821SOL    HW118319   5.060   7.137   7.852  0.9170 -0.0991  0.1553
 5821SOL    HW218320   5.166   7.244   7.843 -0.2763  1.2158  1.3104
 5822SOL     OW18321   5.702   5.774   1.484  0.0381  0.5606  0.1027
 5822SOL    HW118322   5.744   5.837   1.425 -0.7577  0.7958 -0.2227
 5822SOL    HW218323   5.610   5.772   1.455 -0.1551 -0.0057  0.7494
 5823SOL     OW18324   1.245   3.955   3.612 -0.2177  0.1057  0.3686
 5823SOL    HW118325   1.337   3.936   3.630  0.0286  2.2950  1.9290
 5823SOL    HW218326   1.205   3.870   3.597  1.6734 -1.0883  1.6459
 5824SOL     OW18327   7.173   4.577   7.971  0.0147 -0.5947  0.1132
 5824SOL    HW118328   7.206   4.663   7.996  3.1391 -1.3666 -0.9775
 5824SOL    HW218329   7.140   4.539   8.053  2.9265 -0.1081  1.6330
 5825SOL     OW18330   0.350   2.879   2.570  0.4379 -0.1682 -0.0987
 5825SOL    HW118331   0.303   2.937   2.510 -0.8640 -0.4655  0.5885
 5825SOL    HW218332   0.442   2.888   2.546 -0.1377 -1.3496 -3.0588
 5826SOL     OW18333   7.776   3.142   4.222 -0.6593  0.5393 -0.6779
 5826SOL    HW118334   7.724   3.222   4.232  0.3779  1.0150  1.5940
 5826SOL    HW218335   7.836   3.161   4.150  0.7014  2.5462  0.8625
 5827SOL     OW18336   2.736   2.562   2.043  0.5218  0.4334  0.6918
 5827SOL    HW118337   2.696   2.589   2.126  0.5996  0.6809  0.6497
 5827SOL    HW218338   2.752   2.643   1.997 -0.8821  0.2239 -0.2132
 5828SOL     OW18339   4.511   5.536   6.806 -0.0243 -0.0468  0.1590
 5828SOL    HW118340   4.446   5.468   6.825 -1.1603  0.8746 -0.2825
 5828SOL    HW218341   4.594   5.489   6.805 -0.6215 -1.2016  1.1275
 5829SOL     OW18342   7.637   6.913   0.453 -0.0392  0.2125 -0.6738
 5829SOL    HW118343   7.588   6.831   0.457  0.9255 -0.3225  0.9772
 5829SOL    HW218344   7.699   6.899   0.381  0.0379 -0.4629 -0.4838
 5830SOL     OW18345   2.523   6.788   5.041  0.1792  0.2155 -0.1846
 5830SOL    HW118346   2.446   6.734   5.028  0.7144 -0.5319 -0.2980
 5830SOL    HW218347   2.525   6.846   4.965  0.6625 -0.9157 -1.0564
 5831SOL     OW18348   1.798   1.559   7.353  1.0761 -0.5915 -0.0449
 5831SOL    HW118349   1.772   1.629   7.413 -0.7052 -0.3130 -1.0485
 5831SOL    HW218350   1.885   1.585   7.322  1.5411 -0.1729  1.5116
 5832SOL     OW18351   0.660   7.644   5.518 -0.0409  0.0563  0.0268
 5832SOL    HW118352   0.629   7.589   5.445 -3.1092  0.4444  0.8921
 5832SOL    HW218353   0.583   7.655   5.574  1.0730  3.2622  1.1442
 5833SOL     OW18354   2.074   2.132   2.739  0.3156 -0.3630  0.5075
 5833SOL    HW118355   2.125   2.056   2.709 -0.3952 -0.1247 -1.4636
 5833SOL    HW218356   2.133   2.179   2.797  0.3206 -3.1152  2.9830
 5834SOL     OW18357   0.841   5.894   7.186 -0.0968  0.0608  0.4528
 5834SOL    HW118358   0.886   5.845   7.255  0.5710 -0.8210 -0.5651
 5834SOL    HW218359   0.875   5.983   7.194  3.1626 -0.8475 -1.2195
 5835SOL     OW18360   7.425   7.236   1.334 -0.3930  0.3798  0.1540
 5835SOL    HW118361   7.359   7.197   1.392 -3.5511  2.1599 -1.8763
 5835SOL    HW218362   7.449   7.318   1.379 -0.3946  0.2307  0.4314
 5836SOL     OW18363   2.888   2.561   4.238 -0.7214  0.0704  0.4187
 5836SOL    HW118364   2.971   2.543   4.281  1.1572  2.2179 -2.0358
 5836SOL    HW218365   2.885   2.499   4.165  1.0609  2.7787 -2.1817
 5837SOL     OW18366   5.093   7.835   0.484 -0.4856  0.1130 -0.3553
 5837SOL    HW118367   5.173   7.878   0.452  0.6007 -1.3939  0.2069
 5837SOL    HW218368   5.059   7.788   0.408  0.0824 -0.5447 -0.2146
 5838SOL     OW18369   1.384   6.682   0.145 -0.4321 -0.4236  0.1005
 5838SOL    HW118370   1.462   6.673   0.200 -0.2875 -1.6378 -0.2881
 5838SOL    HW218371   1.352   6.593   0.133  0.1190 -0.3484 -2.6115
 5839SOL     OW18372   3.057   5.826   7.759  0.1070  0.1663  0.2302
 5839SOL    HW118373   3.003   5.751   7.735 -0.2618  0.6845 -0.5940
 5839SOL    HW218374   3.069   5.818   7.854 -0.9594 -0.2612  0.3340
 5840SOL     OW18375   7.315   5.414   6.444  0.2945  0.3342  0.5392
 5840SOL    HW118376   7.256   5.489   6.436  0.2271  0.3015  0.7289
 5840SOL    HW218377   7.373   5.437   6.516 -0.1613 -0.0849  1.0509
 5841SOL     OW18378   4.399   3.007   5.724  0.5754 -0.5489 -0.5923
 5841SOL    HW118379   4.468   3.070   5.706  0.9099 -0.7219  0.0787
 5841SOL    HW218380   4.331   3.058   5.768  0.5604 -0.5200 -0.6486
 5842SOL     OW18381   1.146   0.043   0.560  0.5469  0.5880  0.6307
 5842SOL    HW118382   1.239   0.067   0.559  0.9177 -0.7295  1.4553
 5842SOL    HW218383   1.127   0.026   0.652 -0.7477  1.6082  0.5933
 5843SOL     OW18384   4.550   0.056   2.034  0.0376  0.6298  0.0902
 5843SOL    HW118385   4.638   0.049   2.071  0.0699  1.3273  0.1567
 5843SOL    HW218386   4.555   0.131   1.976 -0.6863  1.0651  0.5785
 5844SOL     OW18387   5.839   3.449   3.228 -0.2816  0.3216 -0.2023
 5844SOL    HW118388   5.758   3.415   3.191 -0.1233  0.0206 -0.2766
 5844SOL    HW218389   5.811   3.510   3.296 -0.5732  0.5162 -0.4923
 5845SOL     OW18390   4.575   5.328   7.196  0.0654  0.6404 -0.2201
 5845SOL    HW118391   4.536   5.413   7.213  0.3885  0.4001  1.9981
 5845SOL    HW218392   4.553   5.275   7.273  3.3322  0.0263  0.4597
 5846SOL     OW18393   5.837   6.759   1.667  0.1426  0.2409  0.1885
 5846SOL    HW118394   5.898   6.718   1.605 -0.7969 -0.9503  0.0098
 5846SOL    HW218395   5.852   6.853   1.656  0.9228  0.0236 -0.8884
 5847SOL     OW18396   4.740   4.668   4.504 -0.1185  0.5322  0.2222
 5847SOL    HW118397   4.781   4.698   4.585  2.5658 -1.8687 -0.0785
 5847SOL    HW218398   4.667   4.613   4.532  0.2708  0.3977  0.9866
 5848SOL     OW18399   1.122   2.085   3.111  0.0333 -0.2105 -0.0828
 5848SOL    HW118400   1.124   2.179   3.089  2.2957 -0.6129 -2.0348
 5848SOL    HW218401   1.030   2.060   3.099 -0.5810  1.6748  0.2536
 5849SOL     OW18402   1.978   3.308   6.624  0.0682 -0.0627 -0.4800
 5849SOL    HW118403   1.904   3.362   6.650 -0.2367 -0.1290 -1.2015
 5849SOL    HW218404   1.964   3.225   6.670  0.5254  0.4501  0.6100
 5850SOL     OW18405   1.581   5.625   1.591  0.1044  0.0747 -1.0467
 5850SOL    HW118406   1.621   5.547   1.552  0.8301  0.7180 -1.6289
 5850SOL    HW218407   1.654   5.671   1.632 -0.7479 -0.9669  1.8417
 5851SOL     OW18408   6.916   5.964   5.325  0.8320 -0.3998  0.1649
 5851SOL    HW118409   6.951   6.007   5.403  1.2190 -1.8011  0.7944
 5851SOL    HW218410   6.884   5.879   5.357 -1.1834 -0.0506 -0.7856
 5852SOL     OW18411   4.571   3.127   0.440 -0.0452  0.6564  0.1035
 5852SOL    HW118412   4.588   3.093   0.528  1.4885 -0.2119 -0.4744
 5852SOL    HW218413   4.517   3.204   0.453 -0.1867  0.3049  1.7780
 5853SOL     OW18414   4.255   7.860   7.922  0.1442  0.2449  0.1113
 5853SOL    HW118415   4.244   7.792   7.988 -0.8882  2.3611  2.2917
 5853SOL    HW218416   4.337   7.902   7.945  0.5292  0.0715 -0.9097
 5854SOL     OW18417   6.523   3.183   0.422  0.1803  0.2183 -0.5466
 5854SOL    HW118418   6.598   3.235   0.394  0.2741 -0.3320 -1.3478
 5854SOL    HW218419   6.537   3.169   0.516  0.4350  1.1577 -0.4354
 5855SOL     OW18420   6.782   7.761   5.727 -0.2239  0.2826 -0.3267
 5855SOL    HW118421   6.779   7.676   5.684  1.0750  0.6277 -1.1285
 5855SOL    HW218422   6.855   7.756   5.788  0.2296  1.0094 -0.7952
 5856SOL     OW18423   2.651   4.023   2.760 -0.5250  0.1041  0.3146
 5856SOL    HW118424   2.603   3.966   2.820  0.5049 -1.2330 -0.1095
 5856SOL    HW218425   2.734   3.979   2.744 -1.9254 -1.4213 -4.6806
 5857SOL     OW18426   1.143   3.539   2.199 -0.0776  0.1400  0.8752
 5857SOL    HW118427   1.092   3.615   2.170  0.9182  0.6468  0.4223
 5857SOL    HW218428   1.162   3.557   2.291  1.2513  1.0918  0.4467
 5858SOL     OW18429   4.026   6.346   0.331 -0.1275  0.4914  0.2143
 5858SOL    HW118430   3.962   6.315   0.267 -0.5725  0.4529  0.6781
 5858SOL    HW218431   4.059   6.427   0.293  0.9717 -0.4576 -0.9597
 5859SOL     OW18432   6.165   0.405   6.614 -0.3023 -0.3079 -0.1465
 5859SOL    HW118433   6.174   0.321   6.659 -5.1532 -1.4870 -0.7868
 5859SOL    HW218434   6.167   0.383   6.521  1.9301  0.9463 -0.4617
 5860SOL     OW18435   2.582   3.151   7.812  0.7814  0.8267  0.0038
 5860SOL    HW118436   2.549   3.064   7.790  0.6539  1.1103 -0.9834
 5860SOL    HW218437   2.678   3.140   7.815  0.7354  0.5250  0.4943
 5861SOL     OW18438   4.470   6.796   4.826 -0.1326  0.0649  0.1521
 5861SOL    HW118439   4.420   6.739   4.884  0.6647 -1.2461 -0.3895
 5861SOL    HW218440   4.528   6.736   4.778  0.4816  1.3018 -0.7096
 5862SOL     OW18441   3.245   4.866   4.587  0.1066 -0.3424  0.5581
 5862SOL    HW118442   3.304   4.797   4.556 -2.6961 -2.6248 -0.1303
 5862SOL    HW218443   3.241   4.853   4.682 -0.5689 -1.3491  0.4106
 5863SOL     OW18444   4.474   7.366   5.743 -0.3925  0.6597 -0.1833
 5863SOL    HW118445   4.438   7.351   5.831 -0.9900  1.0058 -0.3615
 5863SOL    HW218446   4.421   7.311   5.686  0.5757 -0.2663 -0.2334
 5864SOL     OW18447   7.485   4.891   1.195 -0.1433 -0.1229 -0.0855
 5864SOL    HW118448   7.393   4.917   1.190 -0.7125 -2.0934 -1.4100
 5864SOL    HW218449   7.518   4.901   1.106  0.1829 -1.7606 -0.1851
 5865SOL     OW18450   7.968   6.043   0.891  0.2523 -0.2389  0.7932
 5865SOL    HW118451   7.954   5.953   0.863 -0.9473 -0.1209  0.9557
 5865SOL    HW218452   8.040   6.074   0.837 -0.5463 -0.7131 -0.5838
 5866SOL     OW18453   5.035   6.362   6.310 -0.1276  0.1936 -0.5861
 5866SOL    HW118454   4.949   6.392   6.338  1.1672  1.5749  2.2438
 5866SOL    HW218455   5.040   6.272   6.341 -1.1008 -0.4837 -2.2456
 5867SOL     OW18456   1.552   4.062   0.561  0.0925 -0.3827 -0.1689
 5867SOL    HW118457   1.633   4.045   0.514 -0.1405  0.4158 -0.8769
 5867SOL    HW218458   1.543   3.987   0.620  0.3685 -1.4382 -1.4129
 5868SOL     OW18459   3.587   4.565   3.794  0.1041  0.2763  0.1734
 5868SOL    HW118460   3.518   4.544   3.857  1.2273 -0.5273  1.1857
 5868SOL    HW218461   3.660   4.595   3.848  1.8430 -2.4044 -0.4962
 5869SOL     OW18462   2.463   5.878   0.040 -0.1928 -0.2901  0.4499
 5869SOL    HW118463   2.549   5.917   0.056 -0.0611  0.5396 -1.8251
 5869SOL    HW218464   2.483   5.796  -0.006 -0.5482  1.0006 -2.2069
 5870SOL     OW18465   7.972   2.288   5.107  0.0177 -0.3796 -0.5795
 5870SOL    HW118466   8.000   2.311   5.196  3.0635 -2.2634 -0.9137
 5870SOL    HW218467   7.877   2.282   5.113  0.0880 -0.0589  2.4725
 5871SOL     OW18468   1.961   3.720   6.472 -0.0144 -0.0211 -0.6908
 5871SOL    HW118469   1.960   3.815   6.469  0.3975  0.0255  0.2468
 5871SOL    HW218470   2.003   3.699   6.555 -2.2233 -0.9903  0.2713
 5872SOL     OW18471   0.829   0.596   4.682 -0.2294  0.0944 -0.6782
 5872SOL    HW118472   0.746   0.641   4.696  0.4700  0.8078  1.6379
 5872SOL    HW218473   0.853   0.562   4.768  0.4648 -2.6952 -1.8722
 5873SOL     OW18474   5.157   7.555   2.931  0.3626 -0.6243 -0.1448
 5873SOL    HW118475   5.245   7.543   2.895  0.1667 -0.5279 -0.6799
 5873SOL    HW218476   5.142   7.650   2.924 -0.1192 -0.7432 -0.8981
 5874SOL     OW18477   3.165   5.379   5.812  0.6314 -0.0099  0.0294
 5874SOL    HW118478   3.140   5.321   5.884 -0.5472 -0.6981 -0.9028
 5874SOL    HW218479   3.240   5.427   5.846 -0.7379  0.7230  2.2580
 5875SOL     OW18480   0.229   0.301   1.154 -0.0018  0.6982 -0.1432
 5875SOL    HW118481   0.176   0.378   1.135  0.8930  1.5034  0.5747
 5875SOL    HW218482   0.190   0.264   1.234 -0.9472 -0.1018 -0.9403
 5876SOL     OW18483   1.066   6.537   3.622  0.1752  0.0727  0.1456
 5876SOL    HW118484   1.080   6.595   3.547 -0.3268 -0.5951 -0.4858
 5876SOL    HW218485   1.064   6.595   3.698  0.4108  0.7918 -0.3867
 5877SOL     OW18486   5.866   7.609   2.435 -0.6789  0.0789 -0.5964
 5877SOL    HW118487   5.850   7.670   2.507  0.9872  0.7232 -0.7446
 5877SOL    HW218488   5.822   7.528   2.463  3.2221 -1.1320  3.1995
 5878SOL     OW18489   3.945   4.494   5.660 -0.2861  0.2049  0.1650
 5878SOL    HW118490   3.871   4.479   5.719  1.0517  1.2935  2.2446
 5878SOL    HW218491   3.929   4.580   5.623  1.2465  1.7933  2.8839
 5879SOL     OW18492   0.033   6.623   1.267  0.6422  0.2361  0.2902
 5879SOL    HW118493   0.013   6.676   1.344 -1.6774 -0.7376  0.4216
 5879SOL    HW218494   0.123   6.593   1.282  0.7712  1.2760  1.8733
 5880SOL     OW18495   4.968   6.779   2.629  0.5464  0.3336  0.2896
 5880SOL    HW118496   4.997   6.690   2.608  1.1374  0.3224  1.0826
 5880SOL    HW218497   4.917   6.806   2.553  0.5037 -0.6167 -0.0410
 5881SOL     OW18498   0.927   4.919   6.386  0.1873 -0.5994  0.7255
 5881SOL    HW118499   0.884   4.837   6.362 -1.6572  0.4899  0.0483
 5881SOL    HW218500   0.899   4.981   6.318  0.3621  0.9198  1.9914
 5882SOL     OW18501   4.903   3.358   5.084  0.1958 -0.2744  0.4159
 5882SOL    HW118502   4.973   3.294   5.077 -0.0722 -0.5071 -0.2328
 5882SOL    HW218503   4.879   3.359   5.177 -0.0579 -1.3922  0.3749
 5883SOL     OW18504   3.264   2.779   6.572  0.4595  0.0068  0.3161
 5883SOL    HW118505   3.255   2.731   6.490 -0.1149 -0.3039  0.5521
 5883SOL    HW218506   3.343   2.743   6.612 -0.1541 -1.0015  0.6506
 5884SOL     OW18507   3.222   7.093   1.023 -0.1500 -0.1557 -0.6486
 5884SOL    HW118508   3.275   7.031   1.073 -0.2803 -0.7278 -1.2130
 5884SOL    HW218509   3.258   7.090   0.935  0.1808  0.9665 -0.5704
 5885SOL     OW18510   4.559   1.969   7.725  0.1764 -0.1397 -0.2111
 5885SOL    HW118511   4.471   2.003   7.711 -0.1579 -0.1902  1.5674
 5885SOL    HW218512   4.594   2.020   7.798  0.7018 -1.7210  0.6923
 5886SOL     OW18513   7.422   6.625   6.687 -0.7209  0.4325  0.1702
 5886SOL    HW118514   7.340   6.624   6.638 -0.6882 -1.1094  0.0990
 5886SOL    HW218515   7.487   6.591   6.626 -0.3440  0.1396  0.7249
 5887SOL     OW18516   5.888   6.805   7.521 -0.4059  0.0366 -0.3866
 5887SOL    HW118517   5.931   6.720   7.529 -1.3630 -0.3948  0.3990
 5887SOL    HW218518   5.959   6.869   7.535  0.3644 -0.6131 -1.2132
 5888SOL     OW18519   2.751   0.869   6.667 -0.4686  0.0956 -0.1617
 5888SOL    HW118520   2.731   0.783   6.704 -1.9177  0.5920  0.2810
 5888SOL    HW218521   2.824   0.853   6.606  0.6741 -1.0715  1.4318
 5889SOL     OW18522   0.956   5.045   2.522  0.3499  0.1821 -0.2351
 5889SOL    HW118523   0.950   4.951   2.501 -1.8918  0.8236 -3.0932
 5889SOL    HW218524   0.984   5.086   2.441  1.2084  2.0565  0.9479
 5890SOL     OW18525   3.242   4.737   7.798 -0.1302 -0.5130 -0.1382
 5890SOL    HW118526   3.236   4.796   7.722 -0.0858  1.5431  1.3742
 5890SOL    HW218527   3.183   4.664   7.776 -1.2557  0.7412 -1.5317
 5891SOL     OW18528   3.238   0.566   0.844 -0.2055  0.2135 -0.0956
 5891SOL    HW118529   3.169   0.558   0.779 -0.3279 -0.0139  0.0612
 5891SOL    HW218530   3.274   0.654   0.830  1.7907 -0.8506 -2.4621
 5892SOL     OW18531   5.027   3.053   2.226 -0.0771  0.2686  0.3036
 5892SOL    HW118532   4.968   3.065   2.299 -1.0572  2.9369 -0.8295
 5892SOL    HW218533   4.976   3.076   2.148  1.0453 -2.0288 -1.2689
 5893SOL     OW18534   7.399   5.070   4.054 -0.1403  0.2073 -0.8747
 5893SOL    HW118535   7.441   5.070   3.968  0.5540 -1.0292 -0.5585
 5893SOL    HW218536   7.414   4.982   4.089  0.5492  0.9839  0.9540
 5894SOL     OW18537   3.319   4.038   7.410 -0.7456 -0.0120 -0.3984
 5894SOL    HW118538   3.289   4.074   7.326  1.3221 -0.9895 -1.6538
 5894SOL    HW218539   3.356   4.114   7.456 -1.5452  0.4659 -0.5370
 5895SOL     OW18540   1.926   4.052   5.655  0.3748  0.6639  0.6973
 5895SOL    HW118541   2.020   4.054   5.636  0.1249 -0.5620 -0.8399
 5895SOL    HW218542   1.921   4.021   5.746  1.4406  0.6631  0.7682
 5896SOL     OW18543   1.666   5.444   1.057  0.5965 -0.8857  0.5963
 5896SOL    HW118544   1.628   5.496   1.128  0.0121  1.4722 -1.3246
 5896SOL    HW218545   1.591   5.407   1.011  0.7924 -0.1055 -0.3972
 5897SOL     OW18546   2.057   7.187   1.076  0.2550  0.0438  0.4731
 5897SOL    HW118547   2.041   7.218   0.987  0.0366 -0.3170  0.3818
 5897SOL    HW218548   2.035   7.261   1.132 -0.7448 -0.0988  0.2854
 5898SOL     OW18549   5.595   5.080   6.875  0.1754 -0.1684 -0.3280
 5898SOL    HW118550   5.504   5.056   6.894  0.4685 -1.7630 -0.7954
 5898SOL    HW218551   5.608   5.054   6.784  0.9027  0.7075 -0.4866
 5899SOL     OW18552   5.645   6.518   0.006  0.2675 -0.0730  0.3531
 5899SOL    HW118553   5.620   6.516   0.098 -0.1349  0.5055  0.2566
 5899SOL    HW218554   5.566   6.492  -0.041  0.1407  0.7396  0.1079
 5900SOL     OW18555   5.748   1.554   3.105  0.2287  0.0454 -0.0472
 5900SOL    HW118556   5.788   1.470   3.084  0.4643 -0.6800  2.9427
 5900SOL    HW218557   5.657   1.533   3.125 -0.0945  0.7655 -0.6811
 5901SOL     OW18558   4.729   1.421   7.288 -0.2719  0.1481 -0.0961
 5901SOL    HW118559   4.648   1.467   7.264 -0.7743 -0.3719  0.5666
 5901SOL    HW218560   4.759   1.466   7.367  0.2791  0.5598 -0.5351
 5902SOL     OW18561   5.890   7.543   7.737  0.9753  0.4231 -0.3560
 5902SOL    HW118562   5.890   7.447   7.734  2.5724  0.3887 -3.6762
 5902SOL    HW218563   5.962   7.565   7.796  1.3064 -0.4371 -0.4262
 5903SOL     OW18564   2.473   5.405   4.581 -0.2653  0.0573 -0.2366
 5903SOL    HW118565   2.384   5.373   4.588 -0.6331  0.4048 -2.6639
 5903SOL    HW218566   2.524   5.330   4.551 -0.3593  0.6222 -1.8955
 5904SOL     OW18567   3.487   7.699   0.866 -0.5594  0.7152 -0.2393
 5904SOL    HW118568   3.408   7.649   0.845 -0.3643 -0.3909  1.4485
 5904SOL    HW218569   3.556   7.659   0.813 -1.1129  1.7718 -1.8237
 5905SOL     OW18570   7.124   6.405   4.901 -0.1791 -0.4736 -0.1740
 5905SOL    HW118571   7.041   6.360   4.889  0.1177 -0.6688 -1.7212
 5905SOL    HW218572   7.178   6.344   4.950 -0.2394 -1.2467 -1.0481
 5906SOL     OW18573   3.266   5.228   0.843 -0.3048 -0.5483 -0.1866
 5906SOL    HW118574   3.185   5.204   0.798  0.5026 -0.4169 -1.8121
 5906SOL    HW218575   3.262   5.182   0.926 -1.0970 -2.2388 -1.1039
 5907SOL     OW18576   5.119   5.793   7.966  0.4587 -0.5537  0.0901
 5907SOL    HW118577   5.133   5.711   8.014  2.9028 -0.3359 -0.1008
 5907SOL    HW218578   5.206   5.815   7.932 -0.6083  0.8847 -1.8925
 5908SOL     OW18579   0.133   5.205   5.136 -0.6327 -0.1361  0.1530
 5908SOL    HW118580   0.048   5.233   5.169 -1.7120 -1.4019 -1.4211
 5908SOL    HW218581   0.147   5.119   5.175 -0.8148 -0.5987 -0.7761
 5909SOL     OW18582   7.279   7.192   6.558 -0.0885 -0.2305 -0.3359
 5909SOL    HW118583   7.185   7.173   6.555 -0.1415  0.1573 -1.9676
 5909SOL    HW218584   7.285   7.286   6.544  0.6370 -0.6737 -3.6316
 5910SOL     OW18585   2.972   3.337   2.460  0.1322  0.0136 -0.4402
 5910SOL    HW118586   2.966   3.432   2.474  3.0178  0.2833 -0.2781
 5910SOL    HW218587   3.027   3.329   2.382  0.3375 -1.5227 -0.1605
 5911SOL     OW18588   1.325   3.120   0.152  0.4312 -0.0089  0.7363
 5911SOL    HW118589   1.233   3.115   0.178 -0.2158 -0.6283 -1.4924
 5911SOL    HW218590   1.356   3.030   0.159  0.4812 -0.0345  0.2155
 5912SOL     OW18591   7.986   6.697   3.585  0.1892 -0.4053 -0.4970
 5912SOL    HW118592   8.058   6.635   3.597 -0.1741 -0.9205 -0.9671
 5912SOL    HW218593   7.907   6.643   3.587 -0.3971  0.3852  2.3438
 5913SOL     OW18594   1.362   6.286   5.103 -0.5834 -0.0153  0.0844
 5913SOL    HW118595   1.414   6.207   5.118  0.1906  0.6615  1.1151
 5913SOL    HW218596   1.273   6.254   5.092 -0.2583 -1.0414  0.3255
 5914SOL     OW18597   5.346   4.056   4.540 -0.5654 -0.2819  0.2426
 5914SOL    HW118598   5.438   4.035   4.556 -1.1671 -2.1345  1.5439
 5914SOL    HW218599   5.346   4.098   4.454  1.6086  0.7470  0.6884
 5915SOL     OW18600   5.704   1.980   1.312  0.6324 -0.6876  0.5258
 5915SOL    HW118601   5.616   2.001   1.341  1.3183  0.4692  1.8786
 5915SOL    HW218602   5.753   1.964   1.392  1.4783 -2.1721 -0.2316
 5916SOL     OW18603   2.101   5.020   7.139  0.6073 -0.1793 -0.0043
 5916SOL    HW118604   2.178   5.009   7.195  1.7640  0.3368 -1.4421
 5916SOL    HW218605   2.085   5.114   7.139  0.8736 -0.1238 -0.8416
 5917SOL     OW18606   4.416   4.607   4.894 -0.1457 -0.6606  0.3399
 5917SOL    HW118607   4.324   4.625   4.911  0.1589  1.7236 -0.1824
 5917SOL    HW218608   4.458   4.693   4.892  2.0484 -1.6543  0.2509
 5918SOL     OW18609   4.142   6.656   4.601  0.1878  0.3816 -0.0941
 5918SOL    HW118610   4.194   6.585   4.563  0.5828  0.0679  1.0053
 5918SOL    HW218611   4.055   6.617   4.615 -0.6236  1.0930 -2.5506
 5919SOL     OW18612   7.081   2.225   5.983 -0.0948  0.0193  0.0036
 5919SOL    HW118613   7.097   2.287   5.912 -0.5726 -0.5502 -0.6315
 5919SOL    HW218614   6.986   2.230   5.998 -0.2661 -1.0653 -0.5752
 5920SOL     OW18615   6.526   0.976   0.876 -0.0876  0.0796  0.0263
 5920SOL    HW118616   6.563   0.905   0.824  0.0491  0.0911  0.1055
 5920SOL    HW218617   6.500   0.935   0.958  0.4829  0.2132  0.2826
 5921SOL     OW18618   3.644   3.039   1.842 -0.3308  0.3038  0.3896
 5921SOL    HW118619   3.559   3.082   1.851  0.6389  2.5534 -0.5823
 5921SOL    HW218620   3.623   2.945   1.846 -2.8051  0.7818  0.4799
 5922SOL     OW18621   5.118   6.991   3.381  0.4666  0.1481  0.5430
 5922SOL    HW118622   5.117   6.902   3.416 -0.6713 -0.0792 -0.0254
 5922SOL    HW218623   5.180   6.988   3.309  0.4032 -0.1945  0.5041
 5923SOL     OW18624   3.812   0.489   2.895 -0.1752  0.4391  0.3513
 5923SOL    HW118625   3.762   0.440   2.829  0.3959  0.9238 -0.4619
 5923SOL    HW218626   3.769   0.574   2.899  0.0525  0.5581  0.2868
 5924SOL     OW18627   0.278   6.605   4.703  0.2359 -0.1563 -0.3364
 5924SOL    HW118628   0.202   6.628   4.649 -1.2494  0.6220  1.9284
 5924SOL    HW218629   0.294   6.512   4.683 -0.7926 -0.1258 -1.4553
 5925SOL     OW18630   2.890   2.669   4.558 -0.0501 -0.1335  0.4247
 5925SOL    HW118631   2.937   2.743   4.595  2.1350 -0.8065 -0.8084
 5925SOL    HW218632   2.959   2.610   4.527 -1.7232 -1.9611 -0.0194
 5926SOL     OW18633   2.004   4.341   3.516 -0.2491  0.6551  0.2306
 5926SOL    HW118634   2.012   4.400   3.590 -0.2034  2.2783 -1.0049
 5926SOL    HW218635   1.948   4.388   3.454  0.5703 -0.1797 -1.1919
 5927SOL     OW18636   6.647   7.454   0.262  0.0604  0.1691  0.2640
 5927SOL    HW118637   6.681   7.382   0.315 -0.7436 -0.2462  0.2253
 5927SOL    HW218638   6.559   7.469   0.296 -0.7031 -0.4991 -1.3266
 5928SOL     OW18639   3.405   6.627   6.453 -0.0132  0.2317  0.4683
 5928SOL    HW118640   3.342   6.664   6.516 -2.5975 -0.2799 -1.6276
 5928SOL    HW218641   3.420   6.698   6.390  0.1821 -0.1988  0.0240
 5929SOL     OW18642   1.724   7.616   2.294 -0.0988  0.3395  0.2986
 5929SOL    HW118643   1.729   7.679   2.222 -0.5787 -0.5887 -0.5795
 5929SOL    HW218644   1.814   7.605   2.323  0.1004  0.7404 -0.1501
 5930SOL     OW18645   4.306   6.053   7.869 -0.4556  0.0428  0.1346
 5930SOL    HW118646   4.361   6.001   7.928 -0.5590  0.5823  0.7267
 5930SOL    HW218647   4.368   6.100   7.814 -0.1587  2.3255  2.2260
 5931SOL     OW18648   0.167   1.622   4.272 -0.1117 -0.3401 -0.3506
 5931SOL    HW118649   0.209   1.565   4.208 -0.4897 -0.8982 -0.1167
 5931SOL    HW218650   0.238   1.676   4.307 -0.1538  1.1807 -2.4295
 5932SOL     OW18651   0.077   3.870   3.957  0.1183  0.1290 -0.1801
 5932SOL    HW118652  -0.018   3.879   3.965  0.0029 -0.8545 -0.3592
 5932SOL    HW218653   0.103   3.821   4.035  0.3356 -0.4897 -0.6334
 5933SOL     OW18654   0.443   3.476   0.982  0.1428  0.1056 -0.5876
 5933SOL    HW118655   0.399   3.449   0.901  0.5205 -1.4984 -0.2906
 5933SOL    HW218656   0.536   3.480   0.959  0.3671 -1.2719 -0.0467
 5934SOL     OW18657   6.126   4.630   5.604  0.3577  0.4826  0.1671
 5934SOL    HW118658   6.053   4.689   5.589 -0.5365 -0.7938 -0.7615
 5934SOL    HW218659   6.153   4.602   5.516  0.3500 -0.9149  0.5758
 5935SOL     OW18660   3.971   4.662   4.465 -0.2968  0.1059 -0.0435
 5935SOL    HW118661   4.023   4.589   4.498 -0.3690  0.2321  0.3478
 5935SOL    HW218662   3.891   4.661   4.518 -0.1170  0.7292  0.2507
 5936SOL     OW18663   1.070   4.800   7.145 -0.6446 -0.0590 -0.3024
 5936SOL    HW118664   1.154   4.845   7.137  0.0557 -0.8240  2.1014
 5936SOL    HW218665   1.008   4.869   7.167 -0.5233  0.3937 -1.3178
 5937SOL     OW18666   1.652   3.700   0.007  0.2447 -0.2499  0.4282
 5937SOL    HW118667   1.660   3.743  -0.078 -2.8287  1.6320  0.9038
 5937SOL    HW218668   1.642   3.772   0.069  3.1970 -1.5275  2.6226
 5938SOL     OW18669   7.241   5.059   1.880  0.4678 -0.0311 -0.2527
 5938SOL    HW118670   7.250   5.093   1.791  0.9209 -1.8031 -0.9446
 5938SOL    HW218671   7.280   4.971   1.875 -1.5126 -1.0603  1.1408
 5939SOL     OW18672   7.576   1.006   0.568 -0.2060  0.3131 -0.2368
 5939SOL    HW118673   7.514   0.963   0.627  0.0706  0.7186  0.3617
 5939SOL    HW218674   7.560   1.100   0.581  0.6923  0.4306  0.1046
 5940SOL     OW18675   1.587   4.560   7.575  0.0384 -0.3271 -0.0175
 5940SOL    HW118676   1.673   4.569   7.616 -0.0594  0.7367  0.0030
 5940SOL    HW218677   1.534   4.511   7.637  0.4150 -0.3083  0.3161
 5941SOL     OW18678   0.413   0.644   1.846 -0.2132 -0.2614 -0.3515
 5941SOL    HW118679   0.363   0.657   1.765 -0.2472  0.2737 -0.2502
 5941SOL    HW218680   0.504   0.659   1.820 -0.1261 -1.0169 -0.4888
 5942SOL     OW18681   4.786   0.571   3.287  0.2156 -0.6019 -0.2959
 5942SOL    HW118682   4.853   0.515   3.327 -0.5094 -0.5530  1.0808
 5942SOL    HW218683   4.778   0.538   3.198  1.4547 -1.1643 -0.2267
 5943SOL     OW18684   5.892   1.864   6.543  0.5438 -0.1508 -0.0971
 5943SOL    HW118685   5.913   1.782   6.588 -0.9958 -0.1617  0.6459
 5943SOL    HW218686   5.884   1.928   6.613  0.7599  0.4258 -0.5942
 5944SOL     OW18687   4.687   0.364   3.612 -0.2790  0.2698  0.1523
 5944SOL    HW118688   4.652   0.421   3.543  0.7239 -0.9755 -1.4683
 5944SOL    HW218689   4.613   0.307   3.635 -0.5849  0.5981 -0.0032
 5945SOL     OW18690   6.427   3.049   2.172 -0.2187 -0.0012 -0.4022
 5945SOL    HW118691   6.508   3.079   2.133 -0.0596  0.2065  0.0840
 5945SOL    HW218692   6.375   3.129   2.185 -1.1694 -0.2665 -2.1607
 5946SOL     OW18693   5.141   6.933   0.937  0.4100 -0.2811  0.2261
 5946SOL    HW118694   5.051   6.926   0.906  0.0467  2.6913  0.3305
 5946SOL    HW218695   5.194   6.916   0.859 -0.1533 -2.4893  0.2550
 5947SOL     OW18696   1.036   4.537   5.489  0.0629  0.2194  0.3202
 5947SOL    HW118697   1.127   4.563   5.505  0.1224 -0.3943  0.9788
 5947SOL    HW218698   0.986   4.582   5.556  0.0856 -0.7923  1.0304
 5948SOL     OW18699   7.977   1.693   1.320 -0.1463 -0.2391  0.6501
 5948SOL    HW118700   8.031   1.656   1.249 -0.5947 -0.2662  0.3178
 5948SOL    HW218701   7.889   1.659   1.303 -0.0592 -1.1272  1.8411
 5949SOL     OW18702   1.965   5.211   5.850 -0.2016  0.0464 -0.2992
 5949SOL    HW118703   1.923   5.282   5.800 -1.3951  2.1387  3.2856
 5949SOL    HW218704   2.034   5.255   5.899  1.6958 -2.1171 -0.8742
 5950SOL     OW18705   7.354   6.111   5.418  0.3583  0.0880  0.5680
 5950SOL    HW118706   7.424   6.143   5.474  0.4764 -2.0668  1.7776
 5950SOL    HW218707   7.399   6.062   5.349  0.1203  0.9741 -0.2381
 5951SOL     OW18708   2.429   2.031   0.304 -0.3901 -0.3033  0.3868
 5951SOL    HW118709   2.456   1.988   0.385 -0.3830 -0.4973  0.2817
 5951SOL    HW218710   2.433   1.962   0.238 -0.0363 -0.0569  0.1466
 5952SOL     OW18711   0.371   3.837   0.416  0.2092 -0.0509 -0.1195
 5952SOL    HW118712   0.294   3.887   0.443  2.3372  3.2523  0.4091
 5952SOL    HW218713   0.414   3.813   0.498  1.4756  1.1893 -0.3809
 5953SOL     OW18714   6.838   6.342   6.555 -0.0717 -0.3224 -0.1407
 5953SOL    HW118715   6.789   6.391   6.489  2.3794  1.8389 -0.4924
 5953SOL    HW218716   6.781   6.343   6.632 -0.6567  2.0067 -0.5370
 5954SOL     OW18717   2.367   6.703   2.327 -0.3086 -0.1735 -0.5096
 5954SOL    HW118718   2.453   6.694   2.366 -0.5902 -0.5923  0.0365
 5954SOL    HW218719   2.333   6.785   2.363 -0.2161 -0.1129 -0.5623
 5955SOL     OW18720   1.477   4.491   0.311 -0.2038 -0.6322 -0.2975
 5955SOL    HW118721   1.459   4.403   0.346 -0.1506 -0.3877  0.3618
 5955SOL    HW218722   1.536   4.475   0.238  0.0372 -1.1285 -0.0041
 5956SOL     OW18723   4.528   0.995   6.412  0.2985  0.1720 -0.6631
 5956SOL    HW118724   4.540   1.036   6.327  0.6190 -0.4008 -0.9042
 5956SOL    HW218725   4.473   1.056   6.461  0.9211  0.9691 -0.9330
 5957SOL     OW18726   7.207   4.584   5.574  0.3215  0.9929 -0.0154
 5957SOL    HW118727   7.163   4.619   5.652  0.7555  0.8861  0.2811
 5957SOL    HW218728   7.215   4.660   5.516  0.4544  1.1921  0.2558
 5958SOL     OW18729   0.252   5.576   1.966 -0.0992 -0.2684  0.0633
 5958SOL    HW118730   0.311   5.547   2.035 -1.1544 -0.0814  1.0778
 5958SOL    HW218731   0.208   5.496   1.937  0.0992 -0.2962 -0.1687
 5959SOL     OW18732   0.292   3.354   0.778 -0.1090  0.5237 -0.1224
 5959SOL    HW118733   0.336   3.279   0.738 -0.6770  0.5061 -0.7287
 5959SOL    HW218734   0.214   3.317   0.818  0.6431  0.4770  1.3783
 5960SOL     OW18735   4.740   2.102   4.459  0.4730  0.0598  0.4333
 5960SOL    HW118736   4.757   2.039   4.390  0.5215  0.3559  0.1717
 5960SOL    HW218737   4.692   2.053   4.526 -2.3672  0.4416 -1.1352
 5961SOL     OW18738   3.468   6.271   4.673  0.3391 -0.1094 -0.0080
 5961SOL    HW118739   3.472   6.305   4.583 -1.3446  0.0276 -0.0596
 5961SOL    HW218740   3.420   6.188   4.665 -1.8477  0.9683  0.9966
 5962SOL     OW18741   5.890   5.393   7.781  0.2346  0.2631 -0.2096
 5962SOL    HW118742   5.914   5.313   7.735  0.3849 -1.1495  2.1809
 5962SOL    HW218743   5.794   5.395   7.776  0.2736  0.5251 -1.1421
 5963SOL     OW18744   6.901   5.571   2.975 -0.1564 -0.1915  0.4717
 5963SOL    HW118745   6.870   5.548   2.887  0.2664  0.0935  0.2458
 5963SOL    HW218746   6.930   5.662   2.967 -1.7762  0.4465  1.3452
 5964SOL     OW18747   7.817   2.645   0.455  0.3968 -0.1093 -0.1600
 5964SOL    HW118748   7.895   2.617   0.502  1.4709 -0.2185 -1.8962
 5964SOL    HW218749   7.844   2.646   0.363 -2.0506 -1.5153 -0.9850
 5965SOL     OW18750   4.439   2.147   3.418  0.3852  0.6848  0.3457
 5965SOL    HW118751   4.446   2.212   3.349  2.2998  2.0855  1.7644
 5965SOL    HW218752   4.486   2.185   3.492  1.2427 -2.1258  1.3705
 5966SOL     OW18753   0.529   6.743   7.637  0.7718  0.4840  0.2918
 5966SOL    HW118754   0.486   6.796   7.704  0.5727  0.5586  0.1075
 5966SOL    HW218755   0.575   6.806   7.582 -0.1516  0.5637 -0.4296
 5967SOL     OW18756   1.467   5.860   4.330  0.0330  0.3856  0.0098
 5967SOL    HW118757   1.380   5.857   4.291 -0.7219  1.5919  1.5105
 5967SOL    HW218758   1.515   5.789   4.287 -1.0909  0.8768 -2.1816
 5968SOL     OW18759   0.171   5.746   7.181 -0.2990  0.5289 -0.2559
 5968SOL    HW118760   0.197   5.837   7.198 -1.6969  0.8674  0.2128
 5968SOL    HW218761   0.223   5.720   7.106 -0.3641  1.9500 -0.8302
 5969SOL     OW18762   1.285   4.015   3.053 -0.1845 -0.0296  0.1521
 5969SOL    HW118763   1.206   4.008   3.000  0.3139  0.3769 -0.6568
 5969SOL    HW218764   1.254   4.005   3.143 -1.3023  1.1077 -0.0787
 5970SOL     OW18765   1.827   7.498   7.210  0.4255 -0.2788 -0.3579
 5970SOL    HW118766   1.877   7.580   7.202 -0.7766  0.6013  0.7071
 5970SOL    HW218767   1.893   7.432   7.229  1.2989  0.6885  0.1187
 5971SOL     OW18768   0.972   0.041   2.738 -0.0072 -0.0181  0.3964
 5971SOL    HW118769   0.916   0.091   2.679  0.8527 -1.0246 -1.3421
 5971SOL    HW218770   0.999  -0.035   2.687  2.0265 -0.1453  1.5561
 5972SOL     OW18771   0.609   4.366   5.634  0.0915 -0.5732  0.5476
 5972SOL    HW118772   0.602   4.372   5.539 -1.4249 -0.6981  0.6323
 5972SOL    HW218773   0.634   4.275   5.650 -0.7916 -0.8691  0.3071
 5973SOL     OW18774   7.134   4.585   6.504  0.0208 -0.4027  0.2306
 5973SOL    HW118775   7.229   4.570   6.502  0.3450  1.4203 -1.7075
 5973SOL    HW218776   7.114   4.622   6.418 -2.7243 -2.0470  0.0513
 5974SOL     OW18777   6.531   1.090   1.969  0.0285 -0.5031  0.1313
 5974SOL    HW118778   6.540   1.087   1.874  1.7367 -0.3304  0.2442
 5974SOL    HW218779   6.439   1.070   1.986 -0.3879 -0.1483 -1.5660
 5975SOL     OW18780   0.148   0.102   3.165  0.0716  0.1073  0.7913
 5975SOL    HW118781   0.220   0.138   3.114  2.2569 -1.2946  2.6799
 5975SOL    HW218782   0.148   0.153   3.246 -0.7429 -0.2379  1.0216
 5976SOL     OW18783   0.297   6.364   7.341 -0.2326 -0.0011  0.6146
 5976SOL    HW118784   0.221   6.306   7.336 -0.1887 -0.0023 -0.0718
 5976SOL    HW218785   0.365   6.310   7.382 -0.3202 -0.3051  0.3662
 5977SOL     OW18786   3.145   5.904   6.025  0.1389 -0.4136  0.2013
 5977SOL    HW118787   3.230   5.901   5.981  0.7560  2.1913  1.0728
 5977SOL    HW218788   3.166   5.927   6.116 -1.5386  1.1839  0.2221
 5978SOL     OW18789   6.281   6.004   1.404 -0.2423 -0.7490 -0.2644
 5978SOL    HW118790   6.200   5.972   1.443 -0.0513 -0.4696  0.3756
 5978SOL    HW218791   6.321   5.927   1.364  0.6942 -1.5423  2.0754
 5979SOL     OW18792   1.316   7.452   3.247 -0.0447  0.0674  0.4653
 5979SOL    HW118793   1.406   7.465   3.276  0.5065  1.3616 -1.5882
 5979SOL    HW218794   1.316   7.366   3.205  0.0887 -0.1620  0.9301
 5980SOL     OW18795   4.216   5.511   5.354 -0.3175  0.2034  0.4313
 5980SOL    HW118796   4.220   5.425   5.395 -0.8916  0.5502  1.2464
 5980SOL    HW218797   4.297   5.555   5.382  0.4924 -0.4241 -0.8452
 5981SOL     OW18798   5.922   5.442   2.592  0.1845  0.0786 -0.7751
 5981SOL    HW118799   5.988   5.429   2.659  0.8664  2.3533 -0.9137
 5981SOL    HW218800   5.870   5.362   2.593 -0.9414  0.6174  3.6443
 5982SOL     OW18801   3.180   4.211   6.771 -0.0082 -0.3154 -0.3384
 5982SOL    HW118802   3.115   4.263   6.819  0.6181 -0.0399  0.2210
 5982SOL    HW218803   3.128   4.148   6.722 -0.7235  0.1329 -0.1759
 5983SOL     OW18804   2.278   4.317   2.338 -0.7904  0.3807 -0.1975
 5983SOL    HW118805   2.347   4.255   2.316  0.3973  1.1766  1.1662
 5983SOL    HW218806   2.231   4.331   2.255 -1.2474 -2.4601 -0.4909
 5984SOL     OW18807   6.323   1.616   7.455  0.0820 -0.5048 -0.6087
 5984SOL    HW118808   6.237   1.632   7.415 -0.3116 -0.8442  0.0673
 5984SOL    HW218809   6.305   1.613   7.549  0.6562 -1.5957 -0.5108
 5985SOL     OW18810   0.573   4.372   2.326  0.4945  0.9648 -0.1360
 5985SOL    HW118811   0.665   4.348   2.317  0.6449  1.4761 -0.0091
 5985SOL    HW218812   0.525   4.305   2.277  1.0266  1.4358 -1.3377
 5986SOL     OW18813   1.008   7.231   0.583 -0.1143  0.1096 -0.1930
 5986SOL    HW118814   0.940   7.181   0.539  1.3534 -1.2565 -1.0118
 5986SOL    HW218815   1.029   7.180   0.661  1.4505 -0.6971 -1.0781
 5987SOL     OW18816   7.507   3.874   3.858  0.3932 -0.1420 -0.1466
 5987SOL    HW118817   7.480   3.862   3.948 -0.3768  0.9507 -0.2168
 5987SOL    HW218818   7.430   3.854   3.806  0.6755 -0.2494 -0.5331
 5988SOL     OW18819   3.399   2.432   2.159  0.0110 -0.5188 -0.1517
 5988SOL    HW118820   3.477   2.385   2.190  1.4750  1.2060 -0.9653
 5988SOL    HW218821   3.415   2.444   2.065  0.4082  2.6098  0.1932
 5989SOL     OW18822   1.898   2.123   3.839 -0.1537 -0.8243  0.1987
 5989SOL    HW118823   1.876   2.124   3.932 -1.1310 -1.1211 -0.0123
 5989SOL    HW218824   1.824   2.167   3.796  2.7325  4.5156 -0.0378
 5990SOL     OW18825   6.887   5.905   0.305 -0.5884 -0.1337  0.3839
 5990SOL    HW118826   6.882   5.879   0.213 -0.6425 -0.4526  0.4753
 5990SOL    HW218827   6.958   5.852   0.342  0.8961  1.5132  0.0385
 5991SOL     OW18828   6.446   2.273   3.286  0.4832  0.6381 -0.3293
 5991SOL    HW118829   6.434   2.280   3.191  0.1794  1.6543 -0.2218
 5991SOL    HW218830   6.462   2.362   3.315 -2.4434  0.8449  0.9851
 5992SOL     OW18831   6.281   3.633   0.427  0.5154  0.6182  0.1144
 5992SOL    HW118832   6.306   3.715   0.386  1.0514  0.0262 -0.7531
 5992SOL    HW218833   6.218   3.594   0.367  2.1720 -0.8063 -0.7785
 5993SOL     OW18834   3.378   5.521   1.946  0.4447  0.0288 -0.0369
 5993SOL    HW118835   3.458   5.500   1.993  0.9499 -0.9855 -1.3184
 5993SOL    HW218836   3.400   5.598   1.894 -0.4930  1.9888  2.2597
 5994SOL     OW18837   4.714   6.303   2.098 -0.4772 -0.6948 -0.0266
 5994SOL    HW118838   4.661   6.322   2.021  0.7271 -0.9037 -0.9372
 5994SOL    HW218839   4.696   6.212   2.119 -1.5091 -0.3771  0.5209
 5995SOL     OW18840   0.618   2.913   4.510  0.2416 -0.0157  0.1728
 5995SOL    HW118841   0.534   2.880   4.543  0.1388 -0.8837 -0.8895
 5995SOL    HW218842   0.615   2.896   4.416 -0.5001  4.5526 -0.8684
 5996SOL     OW18843   0.178   4.592   0.474  0.2157 -0.1016  0.1410
 5996SOL    HW118844   0.263   4.580   0.434 -0.0389 -2.1784  0.1261
 5996SOL    HW218845   0.127   4.515   0.447 -1.2132  0.3984  1.2593
 5997SOL     OW18846   7.090   1.578   6.322 -0.2396  0.0265 -0.1374
 5997SOL    HW118847   7.099   1.673   6.311 -1.3548  0.0188 -1.3383
 5997SOL    HW218848   7.176   1.549   6.351  0.4320  1.2689 -0.8016
 5998SOL     OW18849   6.161   7.500   4.762  0.3756 -0.3917 -0.1701
 5998SOL    HW118850   6.220   7.573   4.781 -0.6864  1.3412 -2.9423
 5998SOL    HW218851   6.204   7.451   4.692  0.1956 -1.3067  0.3459
 5999SOL     OW18852   5.557   2.978   2.972  0.2563 -0.4513 -0.2720
 5999SOL    HW118853   5.611   3.013   3.042 -0.9890 -1.1962  1.1186
 5999SOL    HW218854   5.469   3.014   2.990 -0.6447 -2.7135  0.1164
 6000SOL     OW18855   0.745   6.233   6.102  0.4844  0.4477  0.2127
 6000SOL    HW118856   0.784   6.154   6.066  0.2491  1.4081 -2.3800
 6000SOL    HW218857   0.665   6.246   6.051 -0.3107  1.5226  1.6493
 6001SOL     OW18858   1.778   0.966   7.934  0.3481 -0.4153 -0.1956
 6001SOL    HW118859   1.758   1.023   7.860  0.0849  0.1238  0.2842
 6001SOL    HW218860   1.870   0.982   7.953  0.2766 -0.1581 -0.0682
 6002SOL     OW18861   3.846   2.080   2.041 -0.0083 -0.7819  0.3272
 6002SOL    HW118862   3.810   2.108   2.125  0.6138 -0.2667  0.4274
 6002SOL    HW218863   3.769   2.064   1.987 -0.5093  2.8054 -0.2957
 6003SOL     OW18864   1.839   6.609   1.083  0.0556  0.7151 -0.1648
 6003SOL    HW118865   1.844   6.521   1.046  1.0875  0.7201 -0.0668
 6003SOL    HW218866   1.864   6.667   1.011 -1.6283  1.0244 -0.5297
 6004SOL     OW18867   0.025   2.033   6.924  0.0927  0.5715 -0.2538
 6004SOL    HW118868   0.038   2.071   6.838  1.6127  1.0924  0.1672
 6004SOL    HW218869   0.109   1.991   6.944 -0.4184 -0.0058  0.7392
 6005SOL     OW18870   3.385   5.467   0.919 -0.0534  0.5745  0.3658
 6005SOL    HW118871   3.342   5.501   0.998 -0.1847 -0.4692  0.7636
 6005SOL    HW218872   3.345   5.380   0.906  1.4652 -0.1508  0.3703
 6006SOL     OW18873   5.590   3.866   4.620  0.0507  0.0717 -0.8788
 6006SOL    HW118874   5.643   3.937   4.656  1.5644 -1.4204 -0.0166
 6006SOL    HW218875   5.612   3.863   4.527 -0.4886  1.0792 -1.0549
 6007SOL     OW18876   0.017   2.996   1.771  0.0767  0.1798 -0.2694
 6007SOL    HW118877   0.034   2.958   1.685 -0.2396  0.1842 -0.3361
 6007SOL    HW218878   0.006   2.920   1.829 -2.4901  0.0688 -0.7663
 6008SOL     OW18879   0.554   7.111   2.896  0.5453  0.7928  0.0097
 6008SOL    HW118880   0.510   7.191   2.922  0.0786  0.6251 -0.2561
 6008SOL    HW218881   0.539   7.049   2.968  0.7502  0.8831  0.1315
 6009SOL     OW18882   7.593   1.873   6.815 -0.0828  0.8086  0.0714
 6009SOL    HW118883   7.561   1.803   6.758 -0.5466 -1.0413  2.4757
 6009SOL    HW218884   7.663   1.914   6.764  0.1143 -1.2910 -1.4895
 6010SOL     OW18885   0.034   7.607   1.760  0.3724  0.1889 -0.6146
 6010SOL    HW118886  -0.062   7.600   1.759  0.2285  1.8880 -1.2225
 6010SOL    HW218887   0.059   7.572   1.846 -0.9397  1.2111  0.2240
 6011SOL     OW18888   1.948   1.038   3.765  0.2291 -0.2498 -0.0354
 6011SOL    HW118889   1.918   1.120   3.726  1.1309 -0.8452 -2.1425
 6011SOL    HW218890   1.909   0.970   3.710  3.4177 -1.0844 -1.5258
 6012SOL     OW18891   3.038   6.802   2.811  0.3798 -0.0026  0.0017
 6012SOL    HW118892   3.132   6.818   2.807  0.3134  0.4446  0.1494
 6012SOL    HW218893   2.999   6.879   2.770  0.0957 -0.5231 -0.7324
 6013SOL     OW18894   1.506   5.714   0.863 -0.2034  0.6432 -0.1510
 6013SOL    HW118895   1.480   5.624   0.844  0.5612  0.6013 -1.0777
 6013SOL    HW218896   1.435   5.768   0.828 -0.9063  0.4012  0.8532
 6014SOL     OW18897   5.160   5.830   6.653 -0.0163  0.1246 -0.2994
 6014SOL    HW118898   5.129   5.771   6.720 -2.5635  0.5102 -1.0276
 6014SOL    HW218899   5.126   5.916   6.678  0.2909  0.5536 -1.2712
 6015SOL     OW18900   1.809   1.986   6.638 -0.3593  0.1485  0.4299
 6015SOL    HW118901   1.895   1.990   6.680  0.0322  0.1493 -0.3618
 6015SOL    HW218902   1.800   1.895   6.610 -0.1322  0.3985 -0.4758
 6016SOL     OW18903   0.385   5.251   3.719 -0.0116  0.0779  0.0308
 6016SOL    HW118904   0.468   5.272   3.677 -1.0260  0.5672 -1.8219
 6016SOL    HW218905   0.376   5.317   3.788 -0.3985  2.2002 -1.9225
 6017SOL     OW18906   7.183   4.940   1.424  0.2592 -0.9160 -0.1483
 6017SOL    HW118907   7.173   4.846   1.443 -0.2734 -0.7062  0.6271
 6017SOL    HW218908   7.094   4.975   1.429  0.5818 -0.1768  0.6290
 6018SOL     OW18909   6.658   4.413   2.342 -0.5077  0.7958  0.1720
 6018SOL    HW118910   6.624   4.423   2.431 -0.8340  1.4951 -0.0199
 6018SOL    HW218911   6.693   4.325   2.339 -0.1716  0.8917  1.1026
 6019SOL     OW18912   1.532   6.772   5.473 -0.5339  0.1970 -0.2876
 6019SOL    HW118913   1.538   6.867   5.481  0.2060  0.0499  1.3300
 6019SOL    HW218914   1.465   6.758   5.407 -1.9923  1.8333  0.7390
 6020SOL     OW18915   2.235   6.923   7.179 -0.2136 -0.1778  0.1608
 6020SOL    HW118916   2.222   6.900   7.271 -1.1628  0.5962  0.2221
 6020SOL    HW218917   2.222   6.841   7.132  0.4026 -0.6053  0.7110
 6021SOL     OW18918   5.110   2.793   6.981 -0.1631 -0.1867  0.0671
 6021SOL    HW118919   5.174   2.786   7.051 -0.2175 -0.5180  0.0841
 6021SOL    HW218920   5.025   2.787   7.025 -0.1978 -1.5759 -0.1357
 6022SOL     OW18921   5.868   2.970   5.315  1.2709  0.6588 -0.1340
 6022SOL    HW118922   5.839   2.894   5.264  0.1268  0.9306  0.0709
 6022SOL    HW218923   5.928   3.017   5.257  0.5183  0.6004 -0.9833
 6023SOL     OW18924   2.614   0.449   4.193  1.0184 -0.1179 -0.3624
 6023SOL    HW118925   2.693   0.492   4.225  1.2737 -0.8471  0.0147
 6023SOL    HW218926   2.638   0.414   4.108  0.7023  0.7741 -0.8331
 6024SOL     OW18927   1.300   1.613   3.065 -0.1199 -0.0535 -0.3037
 6024SOL    HW118928   1.299   1.635   3.158 -1.4936  0.3423 -0.3920
 6024SOL    HW218929   1.263   1.690   3.022 -0.2447 -0.5499 -1.1012
 6025SOL     OW18930   7.097   5.325   0.850  0.4289 -0.2549  0.2454
 6025SOL    HW118931   7.176   5.356   0.894  0.9228  0.8114 -1.3185
 6025SOL    HW218932   7.119   5.236   0.821  0.5661 -0.4652  0.9782
 6026SOL     OW18933   3.339   2.708   2.932 -0.8172 -0.3663  0.4530
 6026SOL    HW118934   3.270   2.752   2.982 -0.5177 -0.4564  0.9488
 6026SOL    HW218935   3.315   2.722   2.841  0.8263  3.5253  0.4049
 6027SOL     OW18936   1.312   0.825   5.824  0.1887 -0.4547 -0.2059
 6027SOL    HW118937   1.339   0.734   5.815 -1.9581 -1.1114 -0.5874
 6027SOL    HW218938   1.305   0.857   5.734 -0.7644 -0.4812 -0.1523
 6028SOL     OW18939   6.058   6.525   0.082 -0.0884 -0.1767  0.3170
 6028SOL    HW118940   6.153   6.510   0.085 -0.0293 -0.6695 -2.0133
 6028SOL    HW218941   6.049   6.602   0.025 -1.0841  0.1949  0.9607
 6029SOL     OW18942   4.452   0.582   3.243 -0.2667  0.2330 -0.1664
 6029SOL    HW118943   4.391   0.544   3.306  0.4215 -0.1397  0.2871
 6029SOL    HW218944   4.527   0.611   3.296 -0.0499  0.6891 -0.7112
 6030SOL     OW18945   5.302   6.951   0.686 -0.5274  0.1660 -0.0669
 6030SOL    HW118946   5.371   6.969   0.622 -0.8655 -2.0428 -1.1427
 6030SOL    HW218947   5.221   6.948   0.634 -0.7644 -1.9876  0.3366
 6031SOL     OW18948   4.008   3.196   6.328 -0.0387  0.1622  0.4225
 6031SOL    HW118949   4.084   3.179   6.272  1.0292 -1.6201  2.2648
 6031SOL    HW218950   3.942   3.231   6.269  2.1987  1.8236 -1.2577
 6032SOL     OW18951   5.392   6.173   3.284  0.1063  0.6411  0.1749
 6032SOL    HW118952   5.350   6.136   3.361  1.6474  1.6016  1.5634
 6032SOL    HW218953   5.477   6.205   3.317  0.2875  2.1952 -1.6478
 6033SOL     OW18954   6.554   0.752   1.813 -0.0562 -0.0265 -0.0404
 6033SOL    HW118955   6.591   0.709   1.736  3.1982  1.5242  0.4963
 6033SOL    HW218956   6.538   0.842   1.785 -0.3320  0.1557  0.6860
 6034SOL     OW18957   7.405   0.653   6.503  0.1821 -0.1484 -0.4541
 6034SOL    HW118958   7.381   0.626   6.414 -2.4587  1.8845 -0.4901
 6034SOL    HW218959   7.438   0.742   6.493 -0.4675  0.2221  0.6149
 6035SOL     OW18960   7.638   3.101   5.031 -0.3231 -0.3774  0.6200
 6035SOL    HW118961   7.728   3.109   5.001 -0.3384  0.2161  0.7247
 6035SOL    HW218962   7.644   3.081   5.124 -0.2981  0.4916  0.8171
 6036SOL     OW18963   3.453   3.391   0.921  0.2004 -0.2855 -0.1795
 6036SOL    HW118964   3.442   3.454   0.993 -2.0223 -0.7492 -0.0578
 6036SOL    HW218965   3.469   3.445   0.844  0.6236  0.3075  0.3134
 6037SOL     OW18966   1.772   3.430   3.067 -0.1040  0.0145  0.4581
 6037SOL    HW118967   1.799   3.489   3.137 -1.7003  1.6005 -0.2123
 6037SOL    HW218968   1.798   3.474   2.986 -2.4406  0.4649 -0.1060
 6038SOL     OW18969   6.672   0.958   5.291  0.0753  0.0247 -0.2248
 6038SOL    HW118970   6.584   0.921   5.301  0.2120 -0.1803  0.2439
 6038SOL    HW218971   6.707   0.959   5.380  0.1000  1.2123 -0.2269
 6039SOL     OW18972   3.097   0.284   7.095  0.2707 -0.1238 -0.8544
 6039SOL    HW118973   3.105   0.374   7.128 -1.0328  0.7449 -2.7247
 6039SOL    HW218974   3.120   0.229   7.170  0.8331  1.7542  0.4245
 6040SOL     OW18975   6.705   4.102   7.855  0.2183 -0.2560 -0.4797
 6040SOL    HW118976   6.733   4.075   7.942 -0.7940 -1.4248 -0.4948
 6040SOL    HW218977   6.691   4.197   7.863 -1.0260 -0.5201  0.9806
 6041SOL     OW18978   0.407   1.971   2.846  0.7476 -0.0897  0.0446
 6041SOL    HW118979   0.468   2.030   2.801  0.3361  0.6397  0.4321
 6041SOL    HW218980   0.320   2.001   2.820  0.5353 -1.2578 -0.6762
 6042SOL     OW18981   4.072   0.055   5.022 -0.2740 -0.0530 -0.2301
 6042SOL    HW118982   3.997   0.079   5.077 -1.7037 -3.1123 -0.6676
 6042SOL    HW218983   4.129   0.005   5.081 -1.2643 -2.3503 -1.0974
 6043SOL     OW18984   3.148   6.371   7.934 -0.6001 -0.0521 -0.1338
 6043SOL    HW118985   3.209   6.425   7.885 -3.0015  0.7088 -2.5359
 6043SOL    HW218986   3.172   6.281   7.911 -0.5606  0.2454 -1.3204
 6044SOL     OW18987   5.510   5.538   3.292 -0.0495 -0.1039 -0.0966
 6044SOL    HW118988   5.507   5.556   3.198  0.6276  1.9477  0.2249
 6044SOL    HW218989   5.578   5.471   3.302  1.3605  1.1550 -0.8967
 6045SOL     OW18990   2.925   7.187   6.341 -0.0370 -0.2950 -0.7056
 6045SOL    HW118991   2.945   7.240   6.264  4.3511 -1.2987 -0.5295
 6045SOL    HW218992   2.954   7.099   6.317 -0.8705 -1.1865  1.3101
 6046SOL     OW18993   7.334   7.458   1.768 -0.0311 -0.1880  0.4105
 6046SOL    HW118994   7.264   7.519   1.743  0.2011  0.4301  1.2298
 6046SOL    HW218995   7.288   7.379   1.795 -0.5840  0.8114  2.6920
 6047SOL     OW18996   0.442   1.532   6.643 -0.1248  0.6759  1.0431
 6047SOL    HW118997   0.398   1.589   6.707 -0.2327  1.2170  0.5018
 6047SOL    HW218998   0.371   1.492   6.594 -0.0487  1.9735 -0.1985
 6048SOL     OW18999   4.491   6.067   7.409 -0.2814 -0.3746 -0.3372
 6048SOL    HW119000   4.400   6.094   7.409 -0.6027 -1.4039  0.4138
 6048SOL    HW219001   4.493   5.989   7.354  0.2873  0.0378 -0.9224
 6049SOL     OW19002   5.790   6.006   2.704 -0.0855  0.0317  0.1394
 6049SOL    HW119003   5.724   5.939   2.689 -1.2329  0.7922  1.5927
 6049SOL    HW219004   5.748   6.069   2.763  0.2907  3.0090 -2.5308
 6050SOL     OW19005   7.773   2.269   2.415  0.3536 -0.1897  0.1754
 6050SOL    HW119006   7.864   2.253   2.440  0.0955 -1.7634  0.1702
 6050SOL    HW219007   7.722   2.209   2.470 -0.7192  0.8024  0.3201
 6051SOL     OW19008   2.800   6.406   2.251  0.7221  0.4598  0.4376
 6051SOL    HW119009   2.765   6.322   2.220  2.0008 -0.4840  1.4140
 6051SOL    HW219010   2.735   6.471   2.225 -0.4521 -0.8788 -0.0796
 6052SOL     OW19011   4.994   6.060   5.835 -0.3910  0.0109 -0.4834
 6052SOL    HW119012   4.926   6.127   5.843 -0.2370  0.2301 -0.9995
 6052SOL    HW219013   5.030   6.072   5.747  0.2674 -0.1527 -0.2461
 6053SOL     OW19014   2.234   0.221   2.887 -0.3157  0.4738  0.1138
 6053SOL    HW119015   2.300   0.244   2.952 -0.7700  2.5304 -0.0664
 6053SOL    HW219016   2.156   0.201   2.938 -0.3556  0.9735  0.2611
 6054SOL     OW19017   2.853   3.751   7.542 -0.1232  0.4474 -0.3524
 6054SOL    HW119018   2.947   3.764   7.555  0.3665 -2.1229 -0.8982
 6054SOL    HW219019   2.841   3.656   7.546 -2.4687  0.6158 -1.7951
 6055SOL     OW19020   6.090   1.989   1.661  0.4374 -0.1674  0.1379
 6055SOL    HW119021   6.058   2.062   1.609  1.4232 -0.0995 -0.4025
 6055SOL    HW219022   6.044   1.997   1.745 -3.0229 -1.7049 -1.4446
 6056SOL     OW19023   5.335   1.175   7.493  0.4102 -0.5573  0.2224
 6056SOL    HW119024   5.342   1.173   7.397  0.8364 -0.3655  0.2448
 6056SOL    HW219025   5.248   1.211   7.510  0.8612  0.7726 -0.0995
 6057SOL     OW19026   6.968   4.423   6.017 -0.1671  0.7268  0.0881
 6057SOL    HW119027   6.951   4.335   5.985  1.1907  0.3866  0.2731
 6057SOL    HW219028   6.933   4.480   5.948  0.2274  0.0334 -0.7059
 6058SOL     OW19029   2.156   3.618   6.995 -0.0847  0.2916  0.0813
 6058SOL    HW119030   2.223   3.550   7.000 -0.5865 -0.1477  1.5195
 6058SOL    HW219031   2.200   3.697   7.027 -0.1600  0.0696  0.7504
 6059SOL     OW19032   6.535   0.370   5.173  0.1511 -0.1155 -0.1606
 6059SOL    HW119033   6.579   0.285   5.171 -1.0947 -0.8247  0.9626
 6059SOL    HW219034   6.455   0.354   5.223  0.9866  2.2029  2.1813
 6060SOL     OW19035   2.344   7.452   7.406  0.3895 -0.1634  0.0143
 6060SOL    HW119036   2.340   7.465   7.312 -0.5247 -0.5008 -0.0000
 6060SOL    HW219037   2.355   7.357   7.417 -1.8290 -0.4361  0.2680
 6061SOL     OW19038   0.269   4.702   2.146 -0.3798 -0.6999 -0.1332
 6061SOL    HW119039   0.212   4.755   2.201  1.0881  1.6818 -0.7592
 6061SOL    HW219040   0.277   4.752   2.064  0.5691 -2.2104 -1.0228
 6062SOL     OW19041   3.793   3.294   6.531 -0.1301  0.2193  0.1052
 6062SOL    HW119042   3.845   3.302   6.451  0.5879  1.1476  0.6477
 6062SOL    HW219043   3.716   3.348   6.515 -1.1474 -1.4160 -0.8278
 6063SOL     OW19044   7.976   3.640   7.103  0.1009 -0.5691  0.4261
 6063SOL    HW119045   8.069   3.651   7.123  0.4853  0.4459 -1.6574
 6063SOL    HW219046   7.961   3.694   7.025 -1.6572 -2.7198 -0.8449
 6064SOL     OW19047   5.385   4.268   7.147 -0.2426 -0.0145  0.3580
 6064SOL    HW119048   5.371   4.286   7.240 -2.5444  1.8609 -0.2428
 6064SOL    HW219049   5.429   4.347   7.114 -0.2400 -0.2892 -0.3121
 6065SOL     OW19050   2.536   7.593   2.580  0.1774  0.7762 -0.6728
 6065SOL    HW119051   2.579   7.512   2.605 -2.2832 -1.9348 -4.2840
 6065SOL    HW219052   2.599   7.638   2.523  0.3202 -0.3308 -1.4043
 6066SOL     OW19053   3.550   1.258   2.423 -0.5399 -0.1933 -0.5783
 6066SOL    HW119054   3.521   1.349   2.431 -1.4437 -0.5611  0.6542
 6066SOL    HW219055   3.644   1.264   2.404 -0.2598  1.0039  0.9523
 6067SOL     OW19056   2.391   4.897   5.753  0.1054 -0.2918  0.2359
 6067SOL    HW119057   2.431   4.951   5.685  0.3841 -0.2066  0.4605
 6067SOL    HW219058   2.298   4.896   5.733 -0.0585  1.1001  0.7861
 6068SOL     OW19059   0.816   4.518   6.010  0.1512  0.3594 -0.0629
 6068SOL    HW119060   0.769   4.481   6.085  0.9134 -1.8273 -0.5698
 6068SOL    HW219061   0.899   4.550   6.046  0.7211 -1.1161  0.0240
 6069SOL     OW19062   7.502   3.491   3.858 -0.0714  0.2433  0.6580
 6069SOL    HW119063   7.457   3.409   3.880 -2.6166  1.1956 -0.5569
 6069SOL    HW219064   7.495   3.544   3.938 -4.2371  1.5718 -0.3146
 6070SOL     OW19065   0.851   6.304   3.657 -0.2173  0.2225  0.3148
 6070SOL    HW119066   0.931   6.353   3.677  1.1027 -0.2409 -3.1827
 6070SOL    HW219067   0.872   6.214   3.681 -0.9263  0.5279  2.3008
 6071SOL     OW19068   3.038   3.353   6.835 -0.0105  0.0966 -0.4686
 6071SOL    HW119069   3.038   3.258   6.824  1.6286  0.1830 -1.6844
 6071SOL    HW219070   3.056   3.366   6.928 -1.2738 -0.7607 -0.0781
 6072SOL     OW19071   1.197   0.949   5.585  0.2731  0.2677 -0.0975
 6072SOL    HW119072   1.209   1.044   5.578  0.7690  0.1913 -0.3343
 6072SOL    HW219073   1.173   0.922   5.496  2.7890 -0.1818 -0.7305
 6073SOL     OW19074   5.371   4.110   7.745  0.1312  0.0179  0.0567
 6073SOL    HW119075   5.389   4.018   7.726  1.3880  0.0308  1.0143
 6073SOL    HW219076   5.304   4.108   7.813  1.1035 -0.2727  1.0535
 6074SOL     OW19077   5.130   0.207   7.141 -0.1493  0.0192 -0.0994
 6074SOL    HW119078   5.073   0.277   7.110 -3.1259 -1.0951  2.3544
 6074SOL    HW219079   5.181   0.246   7.212 -0.5538  0.1444  0.1269
 6075SOL     OW19080   0.605   4.460   4.771  0.1330  0.3060 -0.3550
 6075SOL    HW119081   0.578   4.373   4.801 -0.4882  1.4612  2.7673
 6075SOL    HW219082   0.550   4.476   4.694 -1.5525 -1.0747  0.4954
 6076SOL     OW19083   1.284   1.135   4.745  0.0080  0.0641 -0.1761
 6076SOL    HW119084   1.193   1.131   4.774  0.1545 -1.2853  0.1708
 6076SOL    HW219085   1.329   1.070   4.799  0.9912  0.0563 -0.9783
 6077SOL     OW19086   2.995   6.780   5.684 -0.3214 -0.5400  0.5467
 6077SOL    HW119087   3.082   6.815   5.667 -1.3690  1.4437 -1.2356
 6077SOL    HW219088   2.956   6.840   5.747 -0.9631 -0.3953  0.0290
 6078SOL     OW19089   1.945   3.956   3.144  1.0258  0.4593  0.2468
 6078SOL    HW119090   1.881   3.953   3.074  1.3138 -1.5183  0.0344
 6078SOL    HW219091   2.010   4.020   3.115  0.0540  1.2353 -0.2828
 6079SOL     OW19092   7.505   1.204   3.995  0.6901  0.4501  0.3807
 6079SOL    HW119093   7.582   1.261   3.996  0.8748  0.3324 -1.7042
 6079SOL    HW219094   7.441   1.252   3.941 -0.4202  0.1618  1.3793
 6080SOL     OW19095   6.721   5.003   0.572 -0.1432 -0.0354 -0.5649
 6080SOL    HW119096   6.803   5.051   0.581  0.9224 -1.9442  0.6736
 6080SOL    HW219097   6.740   4.917   0.609 -2.5259 -0.7634 -0.8837
 6081SOL     OW19098   7.370   6.275   4.297  0.5736 -0.4518  0.4280
 6081SOL    HW119099   7.334   6.283   4.385 -0.7485  1.0434 -0.1889
 6081SOL    HW219100   7.371   6.181   4.279 -2.7428 -0.6374  0.6658
 6082SOL     OW19101   2.850   5.632   6.750  0.1600 -0.5684  0.0288
 6082SOL    HW119102   2.860   5.609   6.658 -0.9719 -0.6925 -0.0883
 6082SOL    HW219103   2.761   5.668   6.756  0.2980 -0.3635  1.0263
 6083SOL     OW19104   2.448   2.293   2.747 -0.2936  0.0444 -0.1941
 6083SOL    HW119105   2.369   2.302   2.802 -0.1175  2.5187 -0.2257
 6083SOL    HW219106   2.521   2.300   2.809 -0.1091  1.6843 -0.5425
 6084SOL     OW19107   6.785   7.016   6.044  0.4026 -0.1242  0.1051
 6084SOL    HW119108   6.723   6.946   6.023  0.3005 -0.4109  1.2713
 6084SOL    HW219109   6.870   6.972   6.045  0.4579 -0.0251 -0.0948
 6085SOL     OW19110   6.237   6.660   4.469 -0.3853 -0.4204  0.1340
 6085SOL    HW119111   6.172   6.690   4.406 -0.5591  0.1120  0.5539
 6085SOL    HW219112   6.205   6.574   4.497 -0.7265 -0.3179  0.0728
 6086SOL     OW19113   2.469   0.491   4.846 -0.5026  0.5617  0.3435
 6086SOL    HW119114   2.506   0.449   4.924  0.3253 -0.7256 -0.7201
 6086SOL    HW219115   2.467   0.423   4.780 -0.3969  1.8497 -1.0419
 6087SOL     OW19116   0.389   3.876   4.713  0.2464 -0.0260  0.0657
 6087SOL    HW119117   0.348   3.833   4.789  2.0304  0.8809  1.6100
 6087SOL    HW219118   0.350   3.964   4.712  1.2344  0.4379  0.8217
 6088SOL     OW19119   5.784   2.376   7.197 -0.0491  0.4916 -0.1361
 6088SOL    HW119120   5.837   2.411   7.269  1.6781  0.8754 -1.5036
 6088SOL    HW219121   5.734   2.305   7.236  0.6362  0.8608  1.4981
 6089SOL     OW19122   4.804   1.705   3.708  0.2152 -0.0899  0.4959
 6089SOL    HW119123   4.806   1.616   3.744 -2.8614  0.2571  1.8611
 6089SOL    HW219124   4.728   1.746   3.750 -0.1983  2.2707 -2.2571
 6090SOL     OW19125   1.626   5.551   7.266  0.5228  0.2953  0.3994
 6090SOL    HW119126   1.698   5.612   7.251  0.9213  0.2654  1.9769
 6090SOL    HW219127   1.548   5.600   7.242  1.0534  0.2240 -1.6408
 6091SOL     OW19128   7.474   7.449   1.098  0.2763 -0.6969  0.0836
 6091SOL    HW119129   7.378   7.454   1.096  0.2377 -1.4609 -0.8989
 6091SOL    HW219130   7.503   7.540   1.096 -0.4286 -0.4773 -0.4107
 6092SOL     OW19131   4.383   2.465   3.653  0.4398 -0.2147 -0.6020
 6092SOL    HW119132   4.468   2.493   3.688 -0.7663  2.0755  0.7157
 6092SOL    HW219133   4.370   2.519   3.575 -0.9067  1.4454  0.6876
 6093SOL     OW19134   7.836   2.712   4.409 -0.0813 -0.2699 -0.1884
 6093SOL    HW119135   7.883   2.795   4.399 -0.1946 -0.4297 -2.5767
 6093SOL    HW219136   7.845   2.669   4.324 -1.7676 -1.7934  0.3445
 6094SOL     OW19137   1.552   6.085   0.917  0.2610 -0.1064  0.1028
 6094SOL    HW119138   1.546   6.021   0.847 -0.4611 -0.4429  0.4665
 6094SOL    HW219139   1.645   6.086   0.940  0.4085 -0.4238 -0.4532
 6095SOL     OW19140   0.859   3.166   6.773 -0.1550  0.2937 -0.3087
 6095SOL    HW119141   0.778   3.117   6.764 -0.9124  0.4907  3.7037
 6095SOL    HW219142   0.925   3.111   6.730 -1.4069 -2.9318  1.5650
 6096SOL     OW19143   4.308   0.763   1.057 -0.6938  0.2617  0.0621
 6096SOL    HW119144   4.289   0.753   1.151  0.1145 -0.6730  0.1519
 6096SOL    HW219145   4.404   0.758   1.052 -0.7681 -0.6935 -0.9026
 6097SOL     OW19146   0.520   5.425   7.116  0.0441  0.0713 -0.4039
 6097SOL    HW119147   0.446   5.446   7.172  0.4721  1.6358 -0.3902
 6097SOL    HW219148   0.509   5.332   7.096 -1.3647  0.0408  0.3937
 6098SOL     OW19149   5.762   2.477   0.594 -0.3124 -0.0575  0.2729
 6098SOL    HW119150   5.773   2.525   0.677  1.1108  0.2690 -0.0900
 6098SOL    HW219151   5.670   2.493   0.570 -0.4782  0.6404  1.2857
 6099SOL     OW19152   1.549   1.451   4.223 -0.4177  0.3065 -0.0082
 6099SOL    HW119153   1.573   1.530   4.175  0.2936  0.2335  0.2118
 6099SOL    HW219154   1.616   1.387   4.200 -0.6885 -0.0690  0.2249
 6100SOL     OW19155   1.216   0.942   2.361  0.5082  0.6292  0.5707
 6100SOL    HW119156   1.263   1.016   2.322 -0.3936  1.5571  1.1842
 6100SOL    HW219157   1.263   0.924   2.443  2.4326 -1.3525 -0.8637
 6101SOL     OW19158   0.047   2.492   6.138 -0.0695  0.0170 -0.1568
 6101SOL    HW119159   0.104   2.499   6.061  0.0903  0.0842 -0.0327
 6101SOL    HW219160  -0.009   2.417   6.119  1.2183 -1.1517  0.4721
 6102SOL     OW19161   1.588   2.095   2.601  0.2721 -0.3241 -0.4379
 6102SOL    HW119162   1.563   2.077   2.692 -0.4092 -0.5860 -0.6750
 6102SOL    HW219163   1.648   2.170   2.608 -0.3377  0.1180  0.1644
 6103SOL     OW19164   0.122   3.158   0.897 -0.0575  0.1774  0.2935
 6103SOL    HW119165   0.186   3.118   0.955 -0.3911 -0.8043  0.0115
 6103SOL    HW219166   0.068   3.212   0.955 -0.0273 -0.3324  0.8117
 6104SOL     OW19167   7.564   2.774   6.227 -0.1563  0.1384 -0.0528
 6104SOL    HW119168   7.543   2.867   6.236  1.3514  0.4363  0.9182
 6104SOL    HW219169   7.492   2.728   6.271  0.1898  0.9938  1.5029
 6105SOL     OW19170   3.164   7.018   7.702 -0.6765  0.4671 -0.4853
 6105SOL    HW119171   3.232   7.072   7.741  0.5371 -1.8192  0.7841
 6105SOL    HW219172   3.180   7.024   7.608  0.5988  0.8328 -0.2639
 6106SOL     OW19173   5.549   0.165   4.041 -0.7644  0.2112  0.2672
 6106SOL    HW119174   5.463   0.196   4.013 -0.9381  0.4963  1.0885
 6106SOL    HW219175   5.604   0.244   4.042 -0.7004  0.1662  0.4953
 6107SOL     OW19176   1.255   3.569   2.751  0.4263 -0.1753 -0.4606
 6107SOL    HW119177   1.344   3.570   2.715  0.8336 -1.7623  0.3870
 6107SOL    HW219178   1.214   3.492   2.713 -0.2455 -0.0275 -0.0604
 6108SOL     OW19179   7.531   7.645   7.106 -0.3357 -0.6690  0.4202
 6108SOL    HW119180   7.542   7.740   7.110  0.2522 -0.6619 -0.8337
 6108SOL    HW219181   7.461   7.632   7.043 -2.7584 -1.0038  2.9732
 6109SOL     OW19182   3.850   3.413   7.013 -0.1110 -0.2840 -0.2900
 6109SOL    HW119183   3.804   3.494   7.037 -0.0136  0.5122 -2.5580
 6109SOL    HW219184   3.882   3.429   6.925  0.1520 -2.7227 -0.7022
 6110SOL     OW19185   6.894   7.437   4.273  0.2789 -0.4290  0.0235
 6110SOL    HW119186   6.893   7.389   4.190  1.4302 -0.0475 -0.2237
 6110SOL    HW219187   6.960   7.506   4.261 -0.2970  0.3062  0.8813
 6111SOL     OW19188   2.585   7.680   1.874  0.6440 -0.0034  0.4686
 6111SOL    HW119189   2.502   7.727   1.887 -0.1036 -0.6727 -1.5096
 6111SOL    HW219190   2.635   7.736   1.816  0.4447 -0.8246 -0.5204
 6112SOL     OW19191   6.168   3.837   7.665  0.7606  0.1741  0.3523
 6112SOL    HW119192   6.086   3.789   7.660  1.4369 -0.9116 -0.7018
 6112SOL    HW219193   6.189   3.839   7.759  0.0417 -0.4034  0.5270
 6113SOL     OW19194   1.052   5.210   3.098 -0.3523  0.1237  0.1158
 6113SOL    HW119195   1.107   5.275   3.055 -0.8920  0.8597  0.5111
 6113SOL    HW219196   1.030   5.147   3.030 -0.7328  0.9606 -0.5457
 6114SOL     OW19197   2.835   1.014   2.994  0.2952 -0.5874 -0.6405
 6114SOL    HW119198   2.912   1.029   2.939  0.6881 -2.8824 -0.8269
 6114SOL    HW219199   2.762   1.053   2.946  1.0901  0.1934 -1.2412
 6115SOL     OW19200   7.120   7.409   5.323 -0.1294  0.0846 -0.2410
 6115SOL    HW119201   7.112   7.383   5.231 -1.0412 -0.4686 -0.0165
 6115SOL    HW219202   7.034   7.390   5.361  0.2454  0.2802  0.7344
 6116SOL     OW19203   4.233   2.734   4.986 -0.5101 -0.2715  0.5699
 6116SOL    HW119204   4.258   2.683   4.909  2.1574 -0.6051  1.5472
 6116SOL    HW219205   4.304   2.798   4.997 -1.5439  0.6999  1.9181
 6117SOL     OW19206   1.987   3.650   2.540 -0.6979 -0.1232 -0.4427
 6117SOL    HW119207   1.964   3.733   2.581 -1.3909  0.1551 -1.3512
 6117SOL    HW219208   1.932   3.646   2.461  3.0610  1.1164 -3.4684
 6118SOL     OW19209   6.730   1.617   1.195  0.3590 -0.1949 -0.4152
 6118SOL    HW119210   6.780   1.651   1.269  0.3669 -2.0928  0.5176
 6118SOL    HW219211   6.650   1.670   1.193  0.3114 -0.1849  1.0266
 6119SOL     OW19212   7.306   5.529   4.738 -0.5298 -0.0167 -0.0008
 6119SOL    HW119213   7.337   5.482   4.661 -1.9935  0.6282 -1.0506
 6119SOL    HW219214   7.384   5.573   4.772  0.2606 -0.7723 -0.7750
 6120SOL     OW19215   3.807   4.573   1.563  0.4773  0.7953  0.6783
 6120SOL    HW119216   3.812   4.587   1.658  0.8297 -0.3417  0.8351
 6120SOL    HW219217   3.889   4.530   1.540 -0.2359 -0.3019  0.1078
 6121SOL     OW19218   2.894   4.486   3.263 -0.9991  0.3331  0.2116
 6121SOL    HW119219   2.850   4.407   3.232  1.8746 -1.2882 -0.0817
 6121SOL    HW219220   2.908   4.471   3.357  0.0488  0.1655  0.0497
 6122SOL     OW19221   7.905   2.150   0.827 -0.2417 -0.7015 -0.3173
 6122SOL    HW119222   7.932   2.215   0.762 -2.0035  0.1028 -0.2840
 6122SOL    HW219223   7.841   2.195   0.882 -0.4752 -2.0627  0.5802
 6123SOL     OW19224   1.062   2.952   6.192 -0.2236 -0.8313  0.0817
 6123SOL    HW119225   1.146   2.911   6.212  1.4994  2.0460 -0.6320
 6123SOL    HW219226   1.062   3.033   6.243 -1.6518  0.2165 -1.4861
 6124SOL     OW19227   2.761   4.296   0.616 -0.2261  0.0469  0.3029
 6124SOL    HW119228   2.682   4.332   0.656 -1.3942 -0.8669 -1.1090
 6124SOL    HW219229   2.788   4.226   0.674 -0.3878  0.4227  0.8383
 6125SOL     OW19230   4.077   0.494   3.406  0.4950  0.4236 -0.1972
 6125SOL    HW119231   3.983   0.487   3.421  0.3741  3.0465  0.8911
 6125SOL    HW219232   4.085   0.547   3.326  1.0680 -0.5052 -0.7725
 6126SOL     OW19233   2.236   0.754   3.256  0.0864  0.3653 -0.3168
 6126SOL    HW119234   2.244   0.682   3.317  3.5136  1.8738  1.2769
 6126SOL    HW219235   2.307   0.740   3.192 -0.4950  1.2599 -1.1920
 6127SOL     OW19236   7.457   7.465   0.211 -0.5718 -0.2249 -0.7024
 6127SOL    HW119237   7.543   7.436   0.241 -0.3841  0.4205 -0.5989
 6127SOL    HW219238   7.404   7.471   0.290  0.0545  1.9220 -0.3905
 6128SOL     OW19239   6.901   4.154   5.436 -0.6142  0.2696  0.5626
 6128SOL    HW119240   6.973   4.144   5.498 -0.0228  0.1754 -0.1362
 6128SOL    HW219241   6.837   4.087   5.463 -0.0438 -0.2583  0.6254
 6129SOL     OW19242   0.045   2.300   5.867 -0.1261  0.0996  0.3955
 6129SOL    HW119243   0.002   2.276   5.949 -0.3906  0.3530  0.3301
 6129SOL    HW219244  -0.017   2.276   5.799  0.8966 -2.0260  0.1171
 6130SOL     OW19245   2.291   6.698   4.295 -0.5955  0.4625 -0.1248
 6130SOL    HW119246   2.286   6.603   4.293  0.1763  0.4315 -0.6860
 6130SOL    HW219247   2.206   6.726   4.259 -0.6079 -0.0140 -0.4845
 6131SOL     OW19248   1.201   2.531   4.053 -0.3163  0.2004  0.4262
 6131SOL    HW119249   1.267   2.599   4.062 -0.4280  0.2743  0.6981
 6131SOL    HW219250   1.251   2.453   4.029  0.0447 -0.0631  1.8910
 6132SOL     OW19251   1.739   0.637   7.669  0.2518 -0.2873 -0.0907
 6132SOL    HW119252   1.740   0.542   7.676 -1.5308 -0.2643  1.2798
 6132SOL    HW219253   1.803   0.667   7.734 -1.2732 -0.5489  1.6237
 6133SOL     OW19254   5.566   5.593   6.723 -0.5180 -0.1583  0.3193
 6133SOL    HW119255   5.650   5.580   6.768  0.5187 -1.6187 -1.8613
 6133SOL    HW219256   5.590   5.622   6.635 -2.1364 -2.1672 -0.8985
 6134SOL     OW19257   1.253   0.212   5.588 -0.0958 -0.0458  0.7411
 6134SOL    HW119258   1.327   0.262   5.554 -0.8496  0.8576  0.3974
 6134SOL    HW219259   1.267   0.210   5.683  1.7563 -2.1618  0.4878
 6135SOL     OW19260   2.805   4.589   2.052 -0.3779 -0.2831  0.0388
 6135SOL    HW119261   2.809   4.602   1.957 -0.5833  0.6967  0.1566
 6135SOL    HW219262   2.724   4.538   2.065 -1.0036  0.6248 -0.2147
 6136SOL     OW19263   2.365   2.067   6.977  0.7855  0.1706 -0.3785
 6136SOL    HW119264   2.439   2.093   7.032  0.6333 -0.5993  0.2018
 6136SOL    HW219265   2.303   2.140   6.984  0.0465 -0.5935  1.8135
 6137SOL     OW19266   6.759   4.665   0.418 -0.3110  0.0181 -0.0762
 6137SOL    HW119267   6.782   4.589   0.472  1.2410  1.0569  0.7855
 6137SOL    HW219268   6.843   4.708   0.401 -1.1518  1.4871 -0.6402
 6138SOL     OW19269   7.923   0.237   0.513 -0.8468  0.1916 -0.1725
 6138SOL    HW119270   7.945   0.145   0.505  1.2820  0.4660  1.6040
 6138SOL    HW219271   7.916   0.269   0.423  0.2366 -1.3000 -0.8178
 6139SOL     OW19272   5.185   4.830   3.104 -0.3108 -0.4469  0.3839
 6139SOL    HW119273   5.246   4.765   3.068 -3.5495 -3.0150 -0.9224
 6139SOL    HW219274   5.146   4.871   3.027  0.9106  2.4586  1.1986
 6140SOL     OW19275   4.893   7.390   2.733  0.4868  0.2796  0.0636
 6140SOL    HW119276   4.856   7.475   2.755 -0.9512 -0.0375 -0.9419
 6140SOL    HW219277   4.897   7.343   2.817  0.6694  1.1052  0.5236
 6141SOL     OW19278   1.199   0.978   2.900 -0.0664 -0.3803  0.1638
 6141SOL    HW119279   1.214   0.884   2.910 -0.5879 -0.5554 -0.5511
 6141SOL    HW219280   1.239   0.999   2.815  1.5807  0.4105  1.0954
 6142SOL     OW19281   5.841   7.797   2.631  0.2130  0.3888  0.2884
 6142SOL    HW119282   5.819   7.785   2.723 -0.4698 -0.4262  0.0334
 6142SOL    HW219283   5.851   7.891   2.620  0.7266  0.4611  1.2846
 6143SOL     OW19284   6.078   5.227   2.072 -0.4959 -0.5877 -0.2245
 6143SOL    HW119285   6.134   5.149   2.080  1.6746  0.7393 -1.4932
 6143SOL    HW219286   6.132   5.290   2.025 -1.7028  2.1570  1.7873
 6144SOL     OW19287   6.363   7.021   2.091  0.0853  0.1825 -0.3944
 6144SOL    HW119288   6.308   6.945   2.108  0.3103  0.2212  0.5500
 6144SOL    HW219289   6.302   7.094   2.078 -0.1010  0.3628  1.2934
 6145SOL     OW19290   6.618   7.424   1.270  0.1319  0.4892  0.5553
 6145SOL    HW119291   6.657   7.464   1.348 -1.2116  1.9041  0.5688
 6145SOL    HW219292   6.673   7.348   1.251  2.0079  1.5673  1.3699
 6146SOL     OW19293   6.196   1.106   1.833  0.1642  0.3312 -0.1252
 6146SOL    HW119294   6.277   1.091   1.784 -0.2173  0.3120 -0.7758
 6146SOL    HW219295   6.218   1.087   1.924  0.8314  0.1179 -0.3262
 6147SOL     OW19296   6.883   6.085   3.444  0.0487 -0.3140 -0.2518
 6147SOL    HW119297   6.969   6.047   3.459 -0.0001 -0.6864 -0.8816
 6147SOL    HW219298   6.830   6.055   3.518  0.4281 -0.1775  0.0767
 6148SOL     OW19299   4.055   4.793   3.975 -0.8321 -0.0567 -0.2685
 6148SOL    HW119300   4.123   4.838   4.025 -0.6024 -1.8766  1.1949
 6148SOL    HW219301   4.006   4.744   4.041 -1.5194 -1.3510 -1.6744
 6149SOL     OW19302   0.127   0.234   6.272 -0.1556  0.3415  0.0145
 6149SOL    HW119303   0.135   0.262   6.181 -2.0597  0.4089 -0.1649
 6149SOL    HW219304   0.072   0.156   6.268 -1.3760  1.1047  1.2154
 6150SOL     OW19305   7.176   4.143   3.733  0.4996 -0.4689  0.2544
 6150SOL    HW119306   7.229   4.063   3.743  1.9587  0.4802  0.3536
 6150SOL    HW219307   7.095   4.113   3.690  0.7795 -2.0832  0.7998
 6151SOL     OW19308   6.596   7.597   2.735  0.5066  0.0575 -0.4815
 6151SOL    HW119309   6.505   7.584   2.763  0.7036 -1.4016 -0.4415
 6151SOL    HW219310   6.590   7.662   2.665 -0.4952  0.4327 -0.0666
 6152SOL     OW19311   1.384   7.643   2.544 -0.3853  0.3301  0.1513
 6152SOL    HW119312   1.293   7.659   2.570 -0.5746 -0.4580 -0.0085
 6152SOL    HW219313   1.391   7.548   2.537  0.8835  0.2579  1.7616
 6153SOL     OW19314   5.973   1.289   5.771  0.2956  0.2081  0.0542
 6153SOL    HW119315   6.003   1.333   5.850  4.1672  1.2960 -1.7958
 6153SOL    HW219316   5.950   1.360   5.711 -2.0829 -0.5872 -0.0928
 6154SOL     OW19317   3.366   1.309   2.968 -0.0526  0.0986 -0.3216
 6154SOL    HW119318   3.275   1.278   2.975 -0.1525  0.7133  2.2101
 6154SOL    HW219319   3.400   1.266   2.890 -2.3167 -0.6782 -0.9651
 6155SOL     OW19320   1.130   7.493   4.360 -0.6863  0.3350 -0.2110
 6155SOL    HW119321   1.197   7.552   4.394 -0.7550 -0.7740  2.0219
 6155SOL    HW219322   1.119   7.519   4.269  3.2816  0.1052 -0.8918
 6156SOL     OW19323   2.582   4.968   2.917  0.7075 -0.6555  0.8655
 6156SOL    HW119324   2.554   5.058   2.899 -3.0888 -1.4311  2.0327
 6156SOL    HW219325   2.651   4.951   2.853  0.5478  2.6037 -0.3366
 6157SOL     OW19326   6.110   2.705   7.354  0.1037 -0.0383  0.5911
 6157SOL    HW119327   6.030   2.655   7.369 -0.7266  1.1636  0.2867
 6157SOL    HW219328   6.149   2.715   7.441 -1.1340  1.0871  1.0343
 6158SOL     OW19329   6.956   1.666   0.550  0.0384 -0.2545 -0.3795
 6158SOL    HW119330   6.866   1.652   0.519 -0.4548 -1.4093  1.3856
 6158SOL    HW219331   7.007   1.595   0.511  0.6142  1.3762 -2.7653
 6159SOL     OW19332   0.837   4.075   0.770  0.0069  0.3371  0.4823
 6159SOL    HW119333   0.789   4.005   0.726 -1.3142  1.4672  0.0184
 6159SOL    HW219334   0.785   4.093   0.849  2.2132 -1.5067  2.5242
 6160SOL     OW19335   1.929   0.531   3.604 -0.1092 -0.3281 -0.3147
 6160SOL    HW119336   1.847   0.495   3.571 -0.1801  0.7070 -1.3291
 6160SOL    HW219337   1.951   0.602   3.544  0.2160  1.0796  1.3620
 6161SOL     OW19338   7.910   3.503   6.687  0.4770 -0.2616 -0.0559
 6161SOL    HW119339   7.837   3.458   6.644  0.1874  0.2776 -0.1283
 6161SOL    HW219340   7.869   3.571   6.740  0.9091 -0.1626  0.1569
 6162SOL     OW19341   0.627   7.009   0.691 -0.5489 -0.0478 -0.1307
 6162SOL    HW119342   0.540   7.004   0.729 -0.7045  0.1027 -0.4670
 6162SOL    HW219343   0.684   7.032   0.764 -0.9633  1.0989 -0.1467
 6163SOL     OW19344   1.423   0.174   1.225 -0.2467 -0.3419  0.3289
 6163SOL    HW119345   1.388   0.262   1.211 -0.9957 -0.7291 -0.2976
 6163SOL    HW219346   1.489   0.185   1.293  0.0653  0.7976 -0.1347
 6164SOL     OW19347   7.934   1.961   4.206 -0.1518  0.0668  0.3822
 6164SOL    HW119348   7.928   2.012   4.287  0.5229  0.3530  0.2644
 6164SOL    HW219349   8.007   2.001   4.158 -0.4384 -0.2037 -0.2917
 6165SOL     OW19350   4.569   0.839   4.097  0.0036 -0.1663  0.0600
 6165SOL    HW119351   4.534   0.921   4.062  1.0158  0.3529  0.2245
 6165SOL    HW219352   4.492   0.792   4.129 -0.5695  0.8298  0.1930
 6166SOL     OW19353   0.551   0.110   5.851 -0.3889 -0.0089  0.6011
 6166SOL    HW119354   0.622   0.145   5.797 -1.1953  1.3268  0.3672
 6166SOL    HW219355   0.476   0.168   5.833 -1.2577 -0.7965  1.5781
 6167SOL     OW19356   7.942   1.181   1.838  0.9764 -0.1580 -0.0637
 6167SOL    HW119357   7.961   1.107   1.896  1.7383 -0.5812 -0.8356
 6167SOL    HW219358   7.873   1.148   1.780 -1.1265  0.8497  1.6954
 6168SOL     OW19359   2.553   4.355   4.002 -0.4720 -0.0403  0.0567
 6168SOL    HW119360   2.575   4.266   4.029 -1.1487 -0.0035  0.7760
 6168SOL    HW219361   2.480   4.380   4.060 -0.6208  0.7914 -0.4751
 6169SOL     OW19362   1.868   0.341   4.572  0.0347 -0.0288  0.2628
 6169SOL    HW119363   1.798   0.344   4.637  0.1713  1.3505  0.3622
 6169SOL    HW219364   1.823   0.328   4.488 -0.3586  0.8499  0.3267
 6170SOL     OW19365   0.133   2.110   6.692  0.3904 -0.2436  0.2200
 6170SOL    HW119366   0.196   2.039   6.681 -0.6725 -1.0004 -1.4288
 6170SOL    HW219367   0.146   2.166   6.615  1.7830  1.8898  1.8970
 6171SOL     OW19368   3.837   1.018   2.092  0.0949 -0.8089 -0.2999
 6171SOL    HW119369   3.774   1.080   2.055  0.5930 -0.0978  0.0201
 6171SOL    HW219370   3.843   0.948   2.026 -0.5449 -0.5703 -0.6237
 6172SOL     OW19371   6.207   6.453   0.385  0.2045 -0.4126  0.3135
 6172SOL    HW119372   6.147   6.523   0.360  0.5290 -0.3412 -0.2963
 6172SOL    HW219373   6.158   6.400   0.447 -0.4265 -0.2490 -0.0334
 6173SOL     OW19374   5.538   7.624   2.312  0.2275  0.1066  0.4720
 6173SOL    HW119375   5.471   7.556   2.320  0.4560  0.0430  2.5700
 6173SOL    HW219376   5.608   7.583   2.262  0.2025 -1.1019  1.3764
 6174SOL     OW19377   3.051   0.250   2.932  0.5529  0.4389 -0.5796
 6174SOL    HW119378   3.143   0.245   2.958 -0.0386  1.1755  1.9654
 6174SOL    HW219379   3.020   0.332   2.970 -1.6640 -0.8173  0.5282
 6175SOL     OW19380   4.454   6.323   0.748 -0.2965  0.2097 -0.3120
 6175SOL    HW119381   4.447   6.230   0.726  0.0452 -0.0085  0.4553
 6175SOL    HW219382   4.505   6.361   0.677 -1.9466  0.1788 -1.5811
 6176SOL     OW19383   1.483   5.580   6.472 -0.3149  0.2742 -0.3954
 6176SOL    HW119384   1.546   5.509   6.479 -1.9237 -1.2476 -0.4517
 6176SOL    HW219385   1.398   5.537   6.482 -1.3760  2.1536 -0.8214
 6177SOL     OW19386   5.184   3.005   5.347  0.1928  0.4442 -0.4065
 6177SOL    HW119387   5.223   2.933   5.297 -1.9473  0.5591 -2.3995
 6177SOL    HW219388   5.168   2.969   5.434  1.1651 -0.7535 -0.6940
 6178SOL     OW19389   2.165   5.248   2.871  0.1758  0.0573  0.6736
 6178SOL    HW119390   2.081   5.242   2.916 -0.5732  0.4100 -0.6219
 6178SOL    HW219391   2.163   5.177   2.807  1.2673 -0.5128  1.2379
 6179SOL     OW19392   3.819   0.458   4.152 -0.1709  0.5521 -0.0482
 6179SOL    HW119393   3.796   0.531   4.209 -1.0036  0.1846  0.1038
 6179SOL    HW219394   3.735   0.415   4.134  0.1081  0.5255 -1.3555
 6180SOL     OW19395   3.719   5.287   6.601 -0.3291 -0.5917 -0.2195
 6180SOL    HW119396   3.748   5.256   6.687 -0.1343 -2.8836 -1.0265
 6180SOL    HW219397   3.642   5.233   6.582 -0.9864  0.5985 -1.0674
 6181SOL     OW19398   4.227   3.765   7.384  0.2244  0.0004  0.2415
 6181SOL    HW119399   4.289   3.696   7.361  0.1131 -0.0356  0.0479
 6181SOL    HW219400   4.259   3.843   7.338 -0.0229 -0.0822 -0.0723
 6182SOL     OW19401   3.446   6.914   4.478  0.6716 -0.0296  0.1827
 6182SOL    HW119402   3.513   6.918   4.546  0.2525 -2.1667  0.7875
 6182SOL    HW219403   3.379   6.976   4.509  1.5235  0.7780  0.4826
 6183SOL     OW19404   3.246   5.520   2.206  0.6615  0.3113 -0.7384
 6183SOL    HW119405   3.262   5.527   2.112 -0.8151 -0.8247 -1.1207
 6183SOL    HW219406   3.259   5.427   2.226  2.6483  0.7987  0.5643
 6184SOL     OW19407   2.564   6.110   2.972 -0.0336  0.3209  0.4179
 6184SOL    HW119408   2.544   6.109   3.066 -1.7478  2.2493  0.1462
 6184SOL    HW219409   2.518   6.187   2.939 -1.7486 -1.7775 -2.5343
 6185SOL     OW19410   3.952   5.545   4.108  0.3372 -0.1561  0.2992
 6185SOL    HW119411   3.959   5.568   4.201  1.0920  1.2857 -0.0918
 6185SOL    HW219412   3.988   5.456   4.103 -1.3645 -0.9737  1.6394
 6186SOL     OW19413   4.621   0.729   1.138 -0.0065 -0.2091 -0.2259
 6186SOL    HW119414   4.613   0.634   1.140  0.3994 -0.2366  1.6016
 6186SOL    HW219415   4.706   0.745   1.098 -0.1689 -0.5899 -0.7410
 6187SOL     OW19416   6.159   0.794   7.897 -0.0504  0.0800  0.2111
 6187SOL    HW119417   6.250   0.807   7.872 -0.2029 -3.3389 -2.8866
 6187SOL    HW219418   6.163   0.737   7.973  0.4601 -1.2356 -0.7691
 6188SOL     OW19419   6.054   3.254   5.011  1.0204  0.1682 -0.0611
 6188SOL    HW119420   6.010   3.337   5.032  0.6382 -0.0529  0.0078
 6188SOL    HW219421   5.988   3.202   4.966  1.6429  0.4036 -1.3045
 6189SOL     OW19422   1.145   0.572   1.085  0.0369 -0.3666  0.3361
 6189SOL    HW119423   1.089   0.644   1.113 -1.3004 -2.0162  2.1725
 6189SOL    HW219424   1.131   0.566   0.991  0.4314  1.9261  0.0780
 6190SOL     OW19425   0.111   4.278   6.034  0.4646  0.3089 -0.3208
 6190SOL    HW119426   0.178   4.288   6.101  0.8871 -0.0825 -0.6739
 6190SOL    HW219427   0.089   4.367   6.007  2.6773  0.4236 -1.9917
 6191SOL     OW19428   4.602   4.746   6.846 -0.0039  0.0083 -0.2074
 6191SOL    HW119429   4.622   4.712   6.933 -3.8937 -0.0761  0.8231
 6191SOL    HW219430   4.649   4.829   6.841 -0.0877  0.2567  2.1950
 6192SOL     OW19431   7.272   1.654   0.119  0.4824 -0.1685  0.0370
 6192SOL    HW119432   7.208   1.625   0.054  0.4163 -2.0943  0.8889
 6192SOL    HW219433   7.232   1.632   0.203  1.5232  0.1934  0.6443
 6193SOL     OW19434   2.864   4.806   6.845  0.2100  0.2772 -0.2066
 6193SOL    HW119435   2.854   4.850   6.760 -0.2085  0.4329 -0.0750
 6193SOL    HW219436   2.856   4.713   6.825  0.0569  0.3165 -0.3305
 6194SOL     OW19437   1.794   5.951   2.920  0.5021 -0.1605 -0.0169
 6194SOL    HW119438   1.709   5.995   2.917  0.5301 -0.0514  0.6368
 6194SOL    HW219439   1.844   5.992   2.849 -0.0001 -0.2651 -0.4464
 6195SOL     OW19440   3.479   1.696   7.074 -0.3296 -0.2523  0.5340
 6195SOL    HW119441   3.456   1.732   7.159 -0.4642  0.5801  0.1466
 6195SOL    HW219442   3.531   1.764   7.032 -0.8043 -0.3934 -0.3038
 6196SOL     OW19443   0.376   0.516   3.037  0.8026 -0.0580  0.0455
 6196SOL    HW119444   0.421   0.431   3.043 -1.0118 -1.0266  0.5933
 6196SOL    HW219445   0.283   0.495   3.044  0.3500  2.0982  1.4912
 6197SOL     OW19446   0.359   1.636   5.884  0.5698 -0.2247 -0.0281
 6197SOL    HW119447   0.427   1.664   5.823  2.0095  2.2504  2.4962
 6197SOL    HW219448   0.404   1.576   5.944 -0.3123 -1.0198 -0.1286
 6198SOL     OW19449   4.794   0.848   1.715 -0.0441 -0.1070 -0.1439
 6198SOL    HW119450   4.885   0.838   1.744  0.1858  1.3812 -0.2674
 6198SOL    HW219451   4.801   0.897   1.633 -1.0129  1.5113  0.6909
 6199SOL     OW19452   2.864   4.513   1.065 -0.2585  0.2758 -0.0914
 6199SOL    HW119453   2.936   4.499   1.003 -0.5492  1.7709 -0.8157
 6199SOL    HW219454   2.874   4.443   1.130  0.6953 -0.6817 -1.2338
 6200SOL     OW19455   3.037   5.841   0.371 -0.0657  0.1953  0.2960
 6200SOL    HW119456   3.012   5.905   0.437 -0.7674 -1.7330  1.9875
 6200SOL    HW219457   3.131   5.852   0.361  0.0872  0.4064  1.7844
 6201SOL     OW19458   0.241   3.611   4.614 -0.0182 -0.1976 -0.0440
 6201SOL    HW119459   0.180   3.685   4.613  0.6579  0.3762 -1.2114
 6201SOL    HW219460   0.205   3.549   4.551  0.0798 -0.2950 -0.0046
 6202SOL     OW19461   2.096   6.508   0.130 -0.2931  0.2350 -0.3736
 6202SOL    HW119462   2.081   6.602   0.130  1.5070  0.6203  1.5019
 6202SOL    HW219463   2.149   6.492   0.052 -0.8160  0.7136 -0.8365
 6203SOL     OW19464   7.624   3.617   7.651 -0.3204 -0.2691  0.5007
 6203SOL    HW119465   7.561   3.628   7.579 -1.9885 -2.4438  1.5001
 6203SOL    HW219466   7.680   3.694   7.646 -2.1406  1.0395 -1.3774
 6204SOL     OW19467   6.178   7.061   3.599 -0.0691 -0.5718 -0.4388
 6204SOL    HW119468   6.084   7.052   3.585 -0.8099 -1.5260  3.7356
 6204SOL    HW219469   6.204   6.978   3.639  2.8702 -0.7343 -2.3399
 6205SOL     OW19470   5.421   6.795   5.080  0.4321 -0.4638  0.3604
 6205SOL    HW119471   5.359   6.842   5.025 -0.6124  1.5173  3.0338
 6205SOL    HW219472   5.463   6.733   5.021 -0.8745  1.2105 -2.5274
 6206SOL     OW19473   0.928   1.057   2.199 -0.2382 -0.5139  0.3173
 6206SOL    HW119474   1.018   1.071   2.170  0.1251 -1.4469  0.9322
 6206SOL    HW219475   0.928   1.086   2.291 -0.5294 -0.6272  0.3538
 6207SOL     OW19476   3.282   4.756   2.229 -0.0855 -0.0867  0.4844
 6207SOL    HW119477   3.208   4.696   2.229 -0.2279  0.0547  1.8261
 6207SOL    HW219478   3.288   4.787   2.139 -1.8916  0.1720  0.4086
 6208SOL     OW19479   0.672   4.190   4.874 -0.0812 -0.1014  0.0835
 6208SOL    HW119480   0.656   4.170   4.782 -1.9574 -0.3926  0.4435
 6208SOL    HW219481   0.753   4.142   4.894  0.1304 -0.3677 -1.2970
 6209SOL     OW19482   3.595   1.848   2.769 -0.1074 -0.2620  0.1905
 6209SOL    HW119483   3.576   1.941   2.775 -2.5453 -0.7490  1.0577
 6209SOL    HW219484   3.679   1.844   2.723 -0.4498  2.2885 -0.8295
 6210SOL     OW19485   4.888   7.460   6.671 -0.8586 -0.3399 -0.7112
 6210SOL    HW119486   4.801   7.449   6.708 -1.6106 -0.5014 -2.4477
 6210SOL    HW219487   4.917   7.546   6.701 -0.3289 -1.4708  2.3141
 6211SOL     OW19488   4.138   7.304   4.746 -0.6250  0.2871 -0.5724
 6211SOL    HW119489   4.087   7.257   4.680 -0.0273 -1.9312  0.4550
 6211SOL    HW219490   4.225   7.314   4.708 -0.7792  0.6705 -0.8295
 6212SOL     OW19491   7.104   0.743   2.346 -0.2385  0.4337  0.0292
 6212SOL    HW119492   7.127   0.817   2.290  0.0996 -0.4310 -1.0062
 6212SOL    HW219493   7.020   0.712   2.312  0.0140 -0.1556 -0.0756
 6213SOL     OW19494   3.587   5.915   4.849 -0.0687  0.0269  0.7756
 6213SOL    HW119495   3.629   5.904   4.764 -4.0586  1.6570 -1.6774
 6213SOL    HW219496   3.516   5.851   4.849 -1.1621  1.1672  2.0911
 6214SOL     OW19497   2.986   4.415   5.996 -0.4764 -0.0865  0.0588
 6214SOL    HW119498   2.948   4.334   5.962  1.1502 -0.9688  0.2340
 6214SOL    HW219499   3.057   4.385   6.053  0.3288  1.4817 -0.0937
 6215SOL     OW19500   6.204   2.870   0.199 -0.2897  0.1409 -0.3547
 6215SOL    HW119501   6.240   2.829   0.277 -1.0186  0.4577  0.1670
 6215SOL    HW219502   6.109   2.870   0.213 -0.4676 -0.1351 -1.4130
 6216SOL     OW19503   2.889   6.249   1.033  0.4510  0.7001  0.1154
 6216SOL    HW119504   2.803   6.274   1.001 -0.2497  0.0618  1.3943
 6216SOL    HW219505   2.920   6.326   1.081  0.5582  0.9032 -0.2807
 6217SOL     OW19506   6.335   0.584   6.746  0.2543 -0.0020  0.2283
 6217SOL    HW119507   6.399   0.631   6.693 -0.4190 -0.2765 -0.8529
 6217SOL    HW219508   6.309   0.509   6.692  1.2622 -1.6365  1.8763
 6218SOL     OW19509   2.664   5.323   7.313  0.0788  0.4813  0.1416
 6218SOL    HW119510   2.581   5.339   7.358  0.6844 -1.1484  1.9670
 6218SOL    HW219511   2.642   5.329   7.220 -2.1318 -0.1157  0.5741
 6219SOL     OW19512   7.272   6.107   6.186 -0.3274  0.1350  0.7457
 6219SOL    HW119513   7.208   6.165   6.226  0.0449 -0.0180  1.5957
 6219SOL    HW219514   7.227   6.022   6.182 -0.6682  0.3396  0.0291
 6220SOL     OW19515   6.053   0.433   1.548  0.4678 -0.3618 -0.3895
 6220SOL    HW119516   6.101   0.437   1.465  1.6274 -0.0244  0.2913
 6220SOL    HW219517   5.971   0.480   1.530 -0.2391 -2.0535 -1.9403
 6221SOL     OW19518   5.093   5.857   7.070 -0.1145 -0.2157  0.0024
 6221SOL    HW119519   5.098   5.796   6.996 -0.5071  0.2261 -0.3958
 6221SOL    HW219520   5.040   5.811   7.135  0.1087 -0.5485 -0.0461
 6222SOL     OW19521   0.336   3.771   5.329 -0.1073 -0.4082 -0.4859
 6222SOL    HW119522   0.251   3.795   5.292 -0.4886 -1.5651 -0.3991
 6222SOL    HW219523   0.357   3.687   5.289  1.2609  0.1071 -0.9056
 6223SOL     OW19524   4.166   2.773   4.029 -0.3576  0.3545  0.3371
 6223SOL    HW119525   4.182   2.683   4.059 -2.9454 -0.5736 -0.7367
 6223SOL    HW219526   4.123   2.815   4.103  0.7608  0.7229  0.8026
 6224SOL     OW19527   6.553   7.291   2.736  0.0238 -0.4388  0.0637
 6224SOL    HW119528   6.531   7.346   2.811 -0.2590 -0.6683  0.1539
 6224SOL    HW219529   6.479   7.229   2.729 -0.2879  0.0095 -0.8204
 6225SOL     OW19530   5.023   0.745   2.163 -0.0500  0.0342  0.0188
 6225SOL    HW119531   5.070   0.676   2.117  0.1933  0.0582  0.2270
 6225SOL    HW219532   5.081   0.769   2.235  0.4497  1.3585 -0.7949
 6226SOL     OW19533   4.566   5.662   2.598 -0.0470  0.2386 -0.1063
 6226SOL    HW119534   4.578   5.754   2.577 -0.0945  0.4862  0.8769
 6226SOL    HW219535   4.475   5.656   2.627 -0.2742 -0.2742 -0.8912
 6227SOL     OW19536   7.044   7.006   3.863 -0.5121 -0.0678  0.0547
 6227SOL    HW119537   7.125   6.972   3.901  0.6028  0.1221 -1.9876
 6227SOL    HW219538   6.985   6.931   3.860  0.7826 -1.0955 -1.4066
 6228SOL     OW19539   0.953   3.783   7.642 -0.5279 -1.1267  0.2619
 6228SOL    HW119540   0.965   3.805   7.550  0.4165 -0.2426  0.5743
 6228SOL    HW219541   1.005   3.704   7.655 -0.1511 -0.8915  0.1805
 6229SOL     OW19542   1.738   1.621   1.071 -0.1993 -0.2456  0.0733
 6229SOL    HW119543   1.764   1.597   1.160  2.0563 -1.6274 -0.8750
 6229SOL    HW219544   1.772   1.710   1.060 -1.3957  0.3321  0.9078
 6230SOL     OW19545   2.722   4.041   0.174  0.0802  0.1456 -0.0586
 6230SOL    HW119546   2.644   3.985   0.169 -0.5773  0.9056  1.1081
 6230SOL    HW219547   2.700   4.117   0.121  0.5955 -0.2461 -0.8567
 6231SOL     OW19548   0.555   1.439   2.248  0.1772 -0.3684 -0.2766
 6231SOL    HW119549   0.487   1.380   2.281  1.0156 -1.0759  0.2283
 6231SOL    HW219550   0.563   1.417   2.155 -0.1291 -0.4379 -0.2867
 6232SOL     OW19551   1.851   1.239   3.628  0.2390  0.4481 -0.1974
 6232SOL    HW119552   1.889   1.266   3.544  0.2911 -1.3810 -0.7993
 6232SOL    HW219553   1.776   1.184   3.604 -1.7165  2.4245  0.9719
 6233SOL     OW19554   3.835   0.692   3.492  0.2830  0.1611 -0.1610
 6233SOL    HW119555   3.873   0.667   3.576 -0.3674 -0.2047  0.0314
 6233SOL    HW219556   3.741   0.675   3.502  0.3706 -1.2863 -1.4560
 6234SOL     OW19557   6.081   4.454   5.102 -0.4415  0.4012  0.4842
 6234SOL    HW119558   6.122   4.491   5.024 -1.9614  0.1436 -0.4731
 6234SOL    HW219559   6.002   4.410   5.069  0.2736 -2.0751  1.7970
 6235SOL     OW19560   0.455   6.333   4.980  0.0531  0.0547 -0.2032
 6235SOL    HW119561   0.420   6.419   5.005 -0.1434 -0.1499  0.2223
 6235SOL    HW219562   0.522   6.354   4.914 -1.0553  0.4284 -1.2461
 6236SOL     OW19563   6.985   3.665   5.634 -0.1373 -0.5241 -0.1789
 6236SOL    HW119564   6.894   3.682   5.612 -0.0715  1.5010  0.8902
 6236SOL    HW219565   7.024   3.636   5.551 -0.8099  2.8398 -1.8596
 6237SOL     OW19566   0.938   5.762   3.636  0.6230  0.1417 -0.1865
 6237SOL    HW119567   0.953   5.740   3.728 -0.3121  0.3516  0.0247
 6237SOL    HW219568   1.025   5.784   3.602  1.0058 -0.1457  0.5893
 6238SOL     OW19569   2.776   7.767   4.850  0.0430  0.6468 -0.2660
 6238SOL    HW119570   2.844   7.834   4.845 -0.2139  0.9633  0.4720
 6238SOL    HW219571   2.774   7.729   4.762  2.3978 -0.5661  0.1362
 6239SOL     OW19572   5.491   3.408   6.241 -0.2208 -0.6866  0.2800
 6239SOL    HW119573   5.477   3.470   6.169  0.3125 -0.2250  0.5730
 6239SOL    HW219574   5.419   3.426   6.302  0.9576  0.9457  1.2629
 6240SOL     OW19575   6.003   0.779   2.896  0.0619  0.4922 -0.0432
 6240SOL    HW119576   5.939   0.850   2.898 -0.6585 -0.1620  0.5544
 6240SOL    HW219577   6.087   0.822   2.915 -0.4083  1.1367  0.6373
 6241SOL     OW19578   4.313   0.711   1.333  0.7639  0.5286 -0.0066
 6241SOL    HW119579   4.293   0.662   1.413  0.8234  1.0265  0.3159
 6241SOL    HW219580   4.408   0.719   1.333  1.0478 -1.8573 -1.5495
 6242SOL     OW19581   6.253   0.008   4.280 -0.5268  0.0381  0.1721
 6242SOL    HW119582   6.161   0.031   4.294 -1.2323 -1.0782 -2.0914
 6242SOL    HW219583   6.249  -0.072   4.227  1.7627 -0.1368  0.1813
 6243SOL     OW19584   7.809   0.958   2.881 -0.0461  0.1460 -0.2034
 6243SOL    HW119585   7.790   0.866   2.863 -0.4172  0.5531 -2.1242
 6243SOL    HW219586   7.901   0.959   2.908 -0.1682 -0.8373  0.2586
 6244SOL     OW19587   1.824   0.160   3.512  0.2902 -0.0280  0.2248
 6244SOL    HW119588   1.749   0.181   3.456  1.1105  2.0391 -0.2189
 6244SOL    HW219589   1.817   0.066   3.528 -2.8765  0.2268  0.9372
 6245SOL     OW19590   0.195   2.664   0.368 -0.1289 -0.6284  0.0042
 6245SOL    HW119591   0.110   2.647   0.328 -0.2350  0.9494 -0.5079
 6245SOL    HW219592   0.259   2.626   0.307 -0.3204  1.2360 -1.4322
 6246SOL     OW19593   4.678   1.027   2.145 -0.8148  0.1572 -0.2489
 6246SOL    HW119594   4.651   0.988   2.062 -0.9576 -0.5134  0.1030
 6246SOL    HW219595   4.603   1.015   2.203 -1.1781  1.6981 -0.3521
 6247SOL     OW19596   2.168   5.452   3.455 -0.2656  0.1583  0.0213
 6247SOL    HW119597   2.206   5.405   3.530  0.4074  0.8157  0.1037
 6247SOL    HW219598   2.132   5.383   3.399  0.8958 -0.4776  0.0321
 6248SOL     OW19599   0.134   7.641   2.652 -0.0841  0.5255 -0.7019
 6248SOL    HW119600   0.084   7.588   2.590 -0.8138  1.6497 -1.1025
 6248SOL    HW219601   0.071   7.666   2.719  0.7871 -1.0213  0.7797
 6249SOL     OW19602   4.438   5.891   2.519 -0.2425  0.2799  0.5404
 6249SOL    HW119603   4.391   5.827   2.465 -0.2153  0.4124  0.3602
 6249SOL    HW219604   4.370   5.938   2.567 -0.4239  1.6021 -0.9444
 6250SOL     OW19605   0.503   6.632   3.371  0.1878 -0.1006 -0.5578
 6250SOL    HW119606   0.501   6.725   3.392  1.0754  0.3238 -2.1709
 6250SOL    HW219607   0.518   6.588   3.455  1.0787  1.3056  0.0453
 6251SOL     OW19608   7.134   2.026   4.216 -0.0959 -0.3012  0.2103
 6251SOL    HW119609   7.104   2.102   4.166 -2.1512 -0.8263  0.5309
 6251SOL    HW219610   7.165   2.063   4.299 -1.9733  0.1791  0.7553
 6252SOL     OW19611   6.924   2.214   1.452  0.1227 -0.1576  0.2350
 6252SOL    HW119612   6.863   2.149   1.416  1.7119 -2.0686  0.8066
 6252SOL    HW219613   6.918   2.201   1.547 -0.3083  1.3025  0.4196
 6253SOL     OW19614   2.954   0.247   4.609 -0.1231  0.4541  0.3099
 6253SOL    HW119615   2.922   0.161   4.636 -0.0392  0.5844  0.8336
 6253SOL    HW219616   2.876   0.303   4.609  0.1374  0.8562  1.9261
 6254SOL     OW19617   2.301   6.749   2.048 -0.7267 -0.3243  0.2977
 6254SOL    HW119618   2.251   6.675   2.014  1.1466 -1.5793  0.1753
 6254SOL    HW219619   2.329   6.722   2.135  0.3377  0.0592  0.0853
 6255SOL     OW19620   2.565   0.298   7.361  0.4299 -0.6498 -0.0565
 6255SOL    HW119621   2.552   0.247   7.441  0.7704 -1.6590 -0.6397
 6255SOL    HW219622   2.526   0.383   7.381  0.5107 -0.8886  1.1827
 6256SOL     OW19623   1.290   6.423   5.507  0.3382 -0.1432 -0.1323
 6256SOL    HW119624   1.225   6.454   5.445  1.4689  0.2815 -1.1450
 6256SOL    HW219625   1.307   6.332   5.483  0.4792 -0.1027 -0.1900
 6257SOL     OW19626   2.142   6.062   3.022 -0.3156  0.3728 -0.0015
 6257SOL    HW119627   2.234   6.038   3.018 -0.1116  1.2654 -2.1152
 6257SOL    HW219628   2.125   6.077   3.115  0.9800 -2.1823  0.7273
 6258SOL     OW19629   0.895   3.983   7.118  0.2093 -0.0018 -0.1506
 6258SOL    HW119630   0.896   3.888   7.130  1.4453  0.0891  0.6736
 6258SOL    HW219631   0.986   4.005   7.097 -0.1178  0.9685 -0.5925
 6259SOL     OW19632   3.503   0.962   2.381  0.3710  0.0394 -0.3822
 6259SOL    HW119633   3.517   1.057   2.377  0.8733 -0.0609 -1.3471
 6259SOL    HW219634   3.468   0.939   2.295 -0.7185 -0.5128  0.1902
 6260SOL     OW19635   3.452   3.460   6.243 -0.1461 -0.1261  0.4308
 6260SOL    HW119636   3.437   3.496   6.156 -0.0107  0.1603  0.5251
 6260SOL    HW219637   3.365   3.454   6.282 -0.0535  1.3040  0.8882
 6261SOL     OW19638   6.935   7.652   4.624 -0.1862  0.6392 -0.2486
 6261SOL    HW119639   7.016   7.644   4.574  0.6715  1.0031  1.0009
 6261SOL    HW219640   6.910   7.563   4.645 -2.1109  0.2570 -3.5705
 6262SOL     OW19641   5.761   7.226   6.034 -0.9247 -0.3437 -0.1454
 6262SOL    HW119642   5.767   7.196   6.125  1.2693 -0.7692 -0.3734
 6262SOL    HW219643   5.820   7.301   6.029  1.5185 -2.2062 -1.8496
 6263SOL     OW19644   6.155   5.951   0.139 -0.0242  0.6569 -0.6920
 6263SOL    HW119645   6.133   5.869   0.094  0.3748  1.2030 -1.9317
 6263SOL    HW219646   6.140   5.932   0.232 -0.1284 -0.7582 -0.9706
 6264SOL     OW19647   1.772   0.292   6.330 -0.0275  0.3832 -0.0197
 6264SOL    HW119648   1.855   0.339   6.318  1.2357 -0.7951  3.0207
 6264SOL    HW219649   1.716   0.353   6.379 -0.3150  0.5378 -0.5341
 6265SOL     OW19650   4.506   7.616   7.430 -0.5105 -0.1427  0.0285
 6265SOL    HW119651   4.529   7.597   7.521  0.9166  0.2375 -0.2293
 6265SOL    HW219652   4.414   7.593   7.424 -0.2454 -1.7165  1.1501
 6266SOL     OW19653   5.091   4.467   5.200  0.3629 -0.5480 -0.4073
 6266SOL    HW119654   5.149   4.536   5.231  0.1885 -0.3953 -0.4193
 6266SOL    HW219655   5.045   4.506   5.126 -0.0040 -0.5552 -0.1823
 6267SOL     OW19656   6.719   6.704   1.867 -0.5963  0.0126 -0.1045
 6267SOL    HW119657   6.656   6.773   1.888  0.4112  0.6909  0.7497
 6267SOL    HW219658   6.710   6.692   1.772 -2.5942 -0.5029  0.1186
 6268SOL     OW19659   3.938   5.572   4.913  0.2128  0.1301  0.3059
 6268SOL    HW119660   4.014   5.593   4.967 -0.1187  1.2091  0.3901
 6268SOL    HW219661   3.872   5.636   4.940 -0.4045 -0.1819 -0.4325
 6269SOL     OW19662   0.729   2.440   0.241 -0.0744  0.3165  0.0971
 6269SOL    HW119663   0.682   2.523   0.253  1.1895  1.0407  0.2615
 6269SOL    HW219664   0.778   2.429   0.322  0.6508  0.0071 -0.3701
 6270SOL     OW19665   1.400   0.141   0.625 -0.1224 -0.6907 -0.3212
 6270SOL    HW119666   1.392   0.169   0.716 -0.2028  1.9497 -1.0477
 6270SOL    HW219667   1.438   0.217   0.580 -2.0150 -1.1245 -2.8746
 6271SOL     OW19668   5.503   4.816   7.568  0.8094 -0.6424 -0.1973
 6271SOL    HW119669   5.460   4.731   7.560  0.7821 -0.6722  0.2463
 6271SOL    HW219670   5.431   4.879   7.579  0.8021 -0.4923 -1.0912
 6272SOL     OW19671   0.183   7.807   1.836  0.1597 -0.1508  0.2030
 6272SOL    HW119672   0.136   7.814   1.919  0.0799 -0.0632  0.1519
 6272SOL    HW219673   0.153   7.725   1.798  1.2902 -0.9160  0.9246
 6273SOL     OW19674   6.920   1.113   7.405 -0.0244  0.3555  0.0207
 6273SOL    HW119675   7.002   1.070   7.381 -0.7010  0.6267 -3.1249
 6273SOL    HW219676   6.871   1.046   7.454 -0.0889 -1.7559 -2.7148
 6274SOL     OW19677   4.479   1.744   0.315 -0.1380  0.1734 -0.1324
 6274SOL    HW119678   4.513   1.665   0.274  1.8690  0.7020  0.4200
 6274SOL    HW219679   4.463   1.720   0.406 -2.5859 -0.4096 -0.6249
 6275SOL     OW19680   5.766   3.229   3.442 -0.2688 -0.5939 -0.1658
 6275SOL    HW119681   5.846   3.275   3.418 -0.8000 -0.4268 -1.7070
 6275SOL    HW219682   5.720   3.290   3.500 -1.0635  0.9735 -2.3497
 6276SOL     OW19683   3.962   1.819   1.305  0.2348  0.7739 -0.1968
 6276SOL    HW119684   4.004   1.904   1.291 -0.4686  1.0281 -0.8953
 6276SOL    HW219685   3.869   1.837   1.292 -0.0369  0.1172  0.7672
 6277SOL     OW19686   5.169   4.335   1.603  0.1556  0.3667  0.2533
 6277SOL    HW119687   5.131   4.268   1.660 -0.2575 -0.4008 -0.8818
 6277SOL    HW219688   5.259   4.345   1.635  0.1051 -0.4481  0.6892
 6278SOL     OW19689   3.991   3.256   0.771  0.4713 -0.3230 -0.0747
 6278SOL    HW119690   4.086   3.262   0.769  0.5034  0.7990  2.0427
 6278SOL    HW219691   3.961   3.346   0.781 -0.6108 -0.8712  2.5524
 6279SOL     OW19692   2.305   6.039   1.314  0.6734 -0.3863  0.4774
 6279SOL    HW119693   2.295   5.991   1.231 -2.2904  0.2807  0.3445
 6279SOL    HW219694   2.278   6.128   1.293 -0.8680 -0.3803  2.2942
 6280SOL     OW19695   0.497   2.588   3.457 -0.0384  0.6725 -0.1218
 6280SOL    HW119696   0.438   2.557   3.388 -1.8877  1.8305  0.8412
 6280SOL    HW219697   0.567   2.633   3.411  0.9454 -1.9822 -1.3746
 6281SOL     OW19698   2.527   6.042   5.868 -0.2104 -0.3562  0.4684
 6281SOL    HW119699   2.452   6.096   5.841 -0.2212 -1.1748 -1.3041
 6281SOL    HW219700   2.495   5.952   5.860  0.2940 -0.6715  1.8629
 6282SOL     OW19701   2.218   6.723   2.709  0.0402 -0.1592 -0.0031
 6282SOL    HW119702   2.283   6.791   2.726 -1.3628  1.6261 -1.4710
 6282SOL    HW219703   2.134   6.762   2.732 -1.0621 -0.4914 -3.0049
 6283SOL     OW19704   3.946   4.602   4.153  0.7308 -0.0686  0.9867
 6283SOL    HW119705   3.945   4.605   4.249 -1.0651 -1.3938  1.0543
 6283SOL    HW219706   3.985   4.518   4.131  0.1409 -0.2492  0.5932
 6284SOL     OW19707   3.304   2.912   1.557 -0.1358  0.0611  0.1825
 6284SOL    HW119708   3.242   2.893   1.487 -0.2625 -1.9642  0.7513
 6284SOL    HW219709   3.283   3.001   1.585 -3.3233 -0.7689  0.8294
 6285SOL     OW19710   7.771   0.501   1.774 -0.2756  0.4625 -0.0944
 6285SOL    HW119711   7.820   0.419   1.783 -0.3309  0.4524  0.1186
 6285SOL    HW219712   7.807   0.557   1.842 -1.2027  0.1373  0.6762
 6286SOL     OW19713   6.906   7.037   1.065  0.1132  0.3778 -0.2102
 6286SOL    HW119714   6.947   6.954   1.039 -1.3178 -1.5966  3.2100
 6286SOL    HW219715   6.954   7.064   1.143 -0.7381  1.7371 -0.1328
 6287SOL     OW19716   5.232   0.427   3.094  0.0754 -0.3195  0.0562
 6287SOL    HW119717   5.279   0.461   3.018  0.0914  1.7780  0.9341
 6287SOL    HW219718   5.194   0.345   3.064 -0.5193  0.7754 -2.4278
 6288SOL     OW19719   6.981   7.474   0.911  0.0314  0.1929  0.3680
 6288SOL    HW119720   6.995   7.381   0.895 -0.6247 -0.0739  1.2728
 6288SOL    HW219721   6.908   7.477   0.973 -1.1405  1.3623 -0.9891
 6289SOL     OW19722   7.797   5.622   3.342 -0.2672 -0.0556  0.7825
 6289SOL    HW119723   7.779   5.666   3.259 -1.0579 -0.5772  0.6669
 6289SOL    HW219724   7.723   5.563   3.355  0.9751 -1.6885  0.7217
 6290SOL     OW19725   7.224   6.141   7.121  0.1539 -0.3436  1.2336
 6290SOL    HW119726   7.131   6.121   7.118  0.4000 -1.4890  0.5152
 6290SOL    HW219727   7.244   6.177   7.034  0.4056 -0.2161  1.3413
 6291SOL     OW19728   2.479   3.235   7.398  0.1582 -0.0609 -1.0619
 6291SOL    HW119729   2.414   3.166   7.385 -0.2634 -0.0590  0.7905
 6291SOL    HW219730   2.553   3.190   7.439  0.7459  0.2291 -1.7695
 6292SOL     OW19731   5.000   7.373   0.587 -0.0121  0.5626  0.1250
 6292SOL    HW119732   4.996   7.302   0.523 -2.2161  0.4036  0.3735
 6292SOL    HW219733   4.934   7.350   0.653  0.0656  2.2477  0.8413
 6293SOL     OW19734   5.782   7.407   4.093 -0.3972 -0.1466  0.0063
 6293SOL    HW119735   5.696   7.406   4.135 -0.4967 -1.0936 -0.2049
 6293SOL    HW219736   5.797   7.499   4.071 -2.2849 -0.2189 -1.8268
 6294SOL     OW19737   2.115   7.748   3.504  0.4639 -0.9928 -0.4343
 6294SOL    HW119738   2.109   7.841   3.526 -0.0724 -0.8482 -1.1613
 6294SOL    HW219739   2.141   7.747   3.412 -0.2228 -1.5467 -0.6337
 6295SOL     OW19740   0.662   4.794   2.262 -0.3116  0.1375 -0.4026
 6295SOL    HW119741   0.651   4.754   2.348  0.8391 -0.1048 -0.3524
 6295SOL    HW219742   0.638   4.725   2.200 -0.2219  0.0028 -0.2877
 6296SOL     OW19743   5.956   6.859   2.690 -0.1145 -0.0775  0.1473
 6296SOL    HW119744   5.873   6.845   2.734 -0.0001  0.6021  0.5905
 6296SOL    HW219745   5.969   6.954   2.691 -0.5151  0.0559 -2.1256
 6297SOL     OW19746   5.456   6.945   5.617  0.2310  0.0985 -0.2539
 6297SOL    HW119747   5.467   7.026   5.567 -1.2993 -0.7990 -2.1542
 6297SOL    HW219748   5.533   6.893   5.594  1.6706  1.2481  1.6366
 6298SOL     OW19749   3.989   1.860   4.244  0.2477  0.0414 -0.4026
 6298SOL    HW119750   3.910   1.877   4.192  0.7663  1.7146 -0.6817
 6298SOL    HW219751   4.044   1.805   4.188 -0.1632 -0.0624 -0.7080
 6299SOL     OW19752   7.159   4.661   3.351 -0.0302  0.4492 -0.1870
 6299SOL    HW119753   7.222   4.630   3.285 -0.5201  0.5166 -0.6892
 6299SOL    HW219754   7.103   4.722   3.304  0.0979  1.1002  0.4858
 6300SOL     OW19755   7.539   6.505   4.454  0.2448  0.0464  0.2314
 6300SOL    HW119756   7.484   6.552   4.392  3.9446  1.0341 -2.7248
 6300SOL    HW219757   7.530   6.413   4.429 -0.2546  0.1662 -0.0412
 6301SOL     OW19758   3.932   3.056   7.945 -0.3277  0.1528  0.0914
 6301SOL    HW119759   3.984   3.064   8.025 -1.3190  0.9053  0.6753
 6301SOL    HW219760   3.979   3.109   7.881  0.0309  0.2136  0.3998
 6302SOL     OW19761   2.696   7.537   2.244 -0.4060  0.1858  0.4452
 6302SOL    HW119762   2.617   7.484   2.249  0.3387 -0.8294  2.1120
 6302SOL    HW219763   2.672   7.621   2.283 -0.0108 -1.0162  3.4902
 6303SOL     OW19764   6.416   7.992   7.982 -0.3342  0.0557  0.5309
 6303SOL    HW119765   6.491   8.005   8.040 -0.5465 -1.2940  1.1387
 6303SOL    HW219766   6.347   8.047   8.020 -0.3770 -0.5750  1.3840
 6304SOL     OW19767   4.667   5.565   1.807 -0.5826 -0.3735 -0.3732
 6304SOL    HW119768   4.699   5.597   1.723  0.6043  1.1714  0.6157
 6304SOL    HW219769   4.656   5.644   1.860 -1.6372 -1.2869  0.8338
 6305SOL     OW19770   3.543   3.483   4.178 -0.2477  0.2672 -0.5055
 6305SOL    HW119771   3.562   3.532   4.098 -0.0576 -0.5833 -0.9888
 6305SOL    HW219772   3.448   3.469   4.175 -0.2623  0.3613 -0.5042
 6306SOL     OW19773   4.503   0.757   6.606 -0.2505 -0.0586 -0.4813
 6306SOL    HW119774   4.519   0.667   6.580  1.1404  0.4966 -1.6758
 6306SOL    HW219775   4.517   0.808   6.526  0.9351  1.4029  0.5973
 6307SOL     OW19776   5.299   2.151   7.530  0.3365  0.4127 -0.7011
 6307SOL    HW119777   5.355   2.223   7.500  0.0330  0.6013 -0.8210
 6307SOL    HW219778   5.361   2.084   7.560  0.6677  0.1259 -1.9367
 6308SOL     OW19779   0.722   1.274   3.339  0.3696 -0.6914 -1.0773
 6308SOL    HW119780   0.648   1.273   3.278  0.7354 -0.3038 -1.5433
 6308SOL    HW219781   0.739   1.181   3.358 -1.0102 -0.7478  0.0210
 6309SOL     OW19782   4.022   6.745   5.841  0.4794  0.0999 -0.0711
 6309SOL    HW119783   3.957   6.718   5.906 -0.1937  0.6725 -0.5024
 6309SOL    HW219784   4.071   6.664   5.822  1.1555  0.0556  1.6407
 6310SOL     OW19785   7.296   3.292   7.858  0.0573 -0.0891 -0.0952
 6310SOL    HW119786   7.201   3.283   7.850  0.0203 -0.5361  0.7351
 6310SOL    HW219787   7.331   3.222   7.803 -0.1374 -1.1210  1.0477
 6311SOL     OW19788   6.393   1.141   1.262  0.2743  0.0195 -0.0259
 6311SOL    HW119789   6.370   1.185   1.180  1.8982  1.2770  0.1477
 6311SOL    HW219790   6.312   1.142   1.313 -0.3575  0.5733 -1.0119
 6312SOL     OW19791   7.575   1.791   7.068  0.4115  0.5153  0.3817
 6312SOL    HW119792   7.569   1.696   7.066 -0.0750  0.5436  0.3303
 6312SOL    HW219793   7.578   1.818   6.977  0.7347  0.5384  0.3993
 6313SOL     OW19794   6.144   5.849   4.836  0.3176 -0.2794 -0.4419
 6313SOL    HW119795   6.072   5.829   4.777  1.1637  0.7768 -1.8999
 6313SOL    HW219796   6.168   5.764   4.874 -2.0884 -0.5595  0.6313
 6314SOL     OW19797   5.154   2.740   1.823 -0.2078  0.9039  0.1244
 6314SOL    HW119798   5.129   2.832   1.828 -1.9148  0.4738  0.2722
 6314SOL    HW219799   5.083   2.699   1.773 -0.5478 -0.6426  1.7635
 6315SOL     OW19800   1.438   4.473   5.282  0.5118  0.1576  0.0152
 6315SOL    HW119801   1.506   4.410   5.304 -2.2250 -2.2232  2.5619
 6315SOL    HW219802   1.473   4.557   5.308  2.4299 -0.9896  1.3410
 6316SOL     OW19803   2.786   5.330   0.129  0.6353  0.4498  0.2401
 6316SOL    HW119804   2.785   5.396   0.060  0.5624  0.0394 -0.1635
 6316SOL    HW219805   2.749   5.373   0.205  0.5128  0.8492 -0.0423
 6317SOL     OW19806   6.329   6.095   2.866 -0.0829  0.2808  0.3672
 6317SOL    HW119807   6.274   6.149   2.922 -1.6154  0.9127 -1.6255
 6317SOL    HW219808   6.342   6.148   2.787  0.0396 -1.4465 -0.8252
 6318SOL     OW19809   1.591   3.372   2.785  0.5926  0.2082 -0.0796
 6318SOL    HW119810   1.579   3.424   2.864  0.1275  0.2740 -0.1890
 6318SOL    HW219811   1.635   3.292   2.815  1.3009  0.6482  0.0897
 6319SOL     OW19812   4.854   1.636   7.453 -0.3082  0.2492 -0.2537
 6319SOL    HW119813   4.875   1.729   7.462 -0.8528  0.5224 -1.5212
 6319SOL    HW219814   4.808   1.613   7.533  1.1000  0.6973  0.7132
 6320SOL     OW19815   1.434   1.881   2.276 -0.5033 -0.3826 -0.3133
 6320SOL    HW119816   1.340   1.874   2.261 -1.0634  1.1015  1.9050
 6320SOL    HW219817   1.447   1.972   2.305  1.5421 -0.6598 -0.1810
 6321SOL     OW19818   5.158   1.389   5.467 -0.4888 -0.2364  0.0558
 6321SOL    HW119819   5.068   1.400   5.436  0.6018  2.3402 -2.7069
 6321SOL    HW219820   5.201   1.337   5.399  0.5594  0.2992  0.2830
 6322SOL     OW19821   5.873   3.045   4.999  0.5107 -0.6982 -0.1687
 6322SOL    HW119822   5.789   3.057   4.955 -0.3737 -3.0782  0.6818
 6322SOL    HW219823   5.866   2.960   5.042  3.0401 -0.5717  0.7114
 6323SOL     OW19824   5.626   7.633   3.268 -0.0249  0.3360 -0.0943
 6323SOL    HW119825   5.633   7.578   3.346  0.0388 -0.8162 -0.8705
 6323SOL    HW219826   5.716   7.640   3.236 -0.3570 -2.3318 -2.0617
 6324SOL     OW19827   5.781   2.684   0.833  0.1863  0.3708 -0.3894
 6324SOL    HW119828   5.757   2.686   0.925  2.1373  1.2886  0.1526
 6324SOL    HW219829   5.823   2.768   0.817  0.2838  0.0455 -2.0030
 6325SOL     OW19830   1.604   5.643   0.407 -0.2015  0.4764 -0.7138
 6325SOL    HW119831   1.657   5.621   0.330  0.7424  0.2982 -0.0367
 6325SOL    HW219832   1.611   5.738   0.414  1.0684  0.3614  0.0561
 6326SOL     OW19833   2.998   5.230   6.918  0.3804 -0.4107  0.4168
 6326SOL    HW119834   3.000   5.287   6.994 -0.6749  0.2911 -0.0603
 6326SOL    HW219835   2.984   5.142   6.954 -0.4481 -0.0466  1.0203
 6327SOL     OW19836   0.252   6.933   2.816  0.5347  0.4769 -0.7772
 6327SOL    HW119837   0.180   6.870   2.822  0.0242  1.1394  0.5223
 6327SOL    HW219838   0.330   6.879   2.811  0.2143 -0.3330  1.6614
 6328SOL     OW19839   0.064   7.059   7.848  0.1960  0.1187 -0.6524
 6328SOL    HW119840  -0.012   7.114   7.866 -1.9620 -3.5430  2.8409
 6328SOL    HW219841   0.027   6.976   7.816  2.9971 -0.8293 -1.7663
 6329SOL     OW19842   0.184   4.183   4.580 -0.3706  0.4798  0.4490
 6329SOL    HW119843   0.223   4.209   4.496  0.4058 -2.0952 -0.0699
 6329SOL    HW219844   0.241   4.222   4.646  0.3772  0.5982 -0.2476
 6330SOL     OW19845   2.190   3.150   5.159  0.2670 -0.5956 -0.0354
 6330SOL    HW119846   2.119   3.117   5.214 -0.9081 -0.9079 -1.6702
 6330SOL    HW219847   2.148   3.214   5.101  1.4298 -0.3985 -0.7019
 6331SOL     OW19848   5.594   3.578   5.715  0.0860 -0.0683 -0.2062
 6331SOL    HW119849   5.536   3.554   5.643  0.9957  0.5837 -1.1767
 6331SOL    HW219850   5.535   3.605   5.785 -0.8659 -2.0187 -0.1862
 6332SOL     OW19851   2.186   7.430   4.105  0.1279 -0.0686  0.1698
 6332SOL    HW119852   2.099   7.391   4.109 -0.0768 -0.2965 -3.3174
 6332SOL    HW219853   2.236   7.371   4.048  2.4163  0.4175  1.5237
 6333SOL     OW19854   5.066   3.713   1.478 -0.7184  0.4677  0.2762
 6333SOL    HW119855   4.994   3.730   1.418 -1.0251 -0.1629  0.4516
 6333SOL    HW219856   5.145   3.722   1.425 -0.9577  0.5324 -0.0718
 6334SOL     OW19857   7.705   5.971   3.015  1.1627  0.1719 -0.0488
 6334SOL    HW119858   7.696   5.886   3.059  0.4612  0.7425  0.9264
 6334SOL    HW219859   7.739   5.948   2.928  0.3124 -1.1751 -0.0699
 6335SOL     OW19860   2.064   3.571   5.187  0.0240  0.4700 -0.1099
 6335SOL    HW119861   2.018   3.655   5.178  0.0920  0.5005 -0.1756
 6335SOL    HW219862   2.157   3.595   5.184  0.0405  0.3453 -0.5510
 6336SOL     OW19863   4.819   6.534   3.522 -0.7870  0.5219 -0.0077
 6336SOL    HW119864   4.844   6.487   3.602 -0.2180  0.2557 -0.3366
 6336SOL    HW219865   4.724   6.527   3.519 -0.6596 -1.9645 -0.8427
 6337SOL     OW19866   1.563   3.639   6.939  0.0159  0.3007  0.1750
 6337SOL    HW119867   1.532   3.575   6.874  2.2666 -0.8031  0.0988
 6337SOL    HW219868   1.535   3.602   7.023  0.5875 -0.3791  0.0754
 6338SOL     OW19869   4.457   1.975   5.553 -0.5212 -0.3144  0.6388
 6338SOL    HW119870   4.454   2.061   5.511  1.4347  0.0056  1.0802
 6338SOL    HW219871   4.384   1.927   5.514 -0.5780  0.9517 -0.9017
 6339SOL     OW19872   3.427   5.200   7.665  0.5123 -0.4513 -0.0800
 6339SOL    HW119873   3.363   5.241   7.723  0.3466 -1.6283  0.6074
 6339SOL    HW219874   3.393   5.215   7.577  1.1730  2.0622  0.0216
 6340SOL     OW19875   6.684   2.899   1.004 -0.1038  0.2460 -0.7577
 6340SOL    HW119876   6.730   2.968   1.052 -0.5560  0.7015 -0.9742
 6340SOL    HW219877   6.745   2.874   0.934  1.5830 -2.0406  1.3367
 6341SOL     OW19878   2.717   7.908   3.110 -0.0999 -0.4715 -0.4639
 6341SOL    HW119879   2.805   7.922   3.145  0.1493  0.0849 -1.2904
 6341SOL    HW219880   2.659   7.949   3.175  0.2745 -0.4907 -0.1114
 6342SOL     OW19881   5.582   5.854   2.337  0.2079  0.2007  0.2033
 6342SOL    HW119882   5.570   5.921   2.405 -1.0209  0.9092 -0.6691
 6342SOL    HW219883   5.613   5.777   2.385 -1.2406  0.4745  1.7063
 6343SOL     OW19884   7.670   6.769   6.477  0.1000 -0.0582  0.0582
 6343SOL    HW119885   7.601   6.831   6.454  0.5259  0.3159 -0.2298
 6343SOL    HW219886   7.682   6.781   6.571  0.0166  0.1216  0.0463
 6344SOL     OW19887   7.653   4.198   4.161  0.0066 -0.5191 -0.2620
 6344SOL    HW119888   7.699   4.276   4.191  0.2875 -1.2273  1.2600
 6344SOL    HW219889   7.623   4.219   4.072  3.3383 -0.0261 -1.4098
 6345SOL     OW19890   7.382   2.767   5.066 -0.5595  0.1084  0.2098
 6345SOL    HW119891   7.411   2.693   5.012 -1.5890  0.0162 -0.2363
 6345SOL    HW219892   7.292   2.746   5.088 -0.2174  0.2415  1.8248
 6346SOL     OW19893   0.900   7.658   7.521  0.5399 -0.1482  0.0711
 6346SOL    HW119894   0.911   7.664   7.426  0.4238 -1.0690 -0.0115
 6346SOL    HW219895   0.976   7.608   7.551  1.4342  1.4955  0.6831
 6347SOL     OW19896   7.340   3.361   6.265  0.3388  0.7672 -0.2797
 6347SOL    HW119897   7.325   3.284   6.209 -0.7758  1.4273 -0.9300
 6347SOL    HW219898   7.313   3.435   6.210 -0.9880  1.4170  1.1790
 6348SOL     OW19899   3.205   2.438   6.043  0.0795  0.4182 -0.0842
 6348SOL    HW119900   3.112   2.456   6.060  0.0439 -1.0046  1.5504
 6348SOL    HW219901   3.241   2.415   6.129  1.1429 -2.3245 -1.1391
 6349SOL     OW19902   4.536   6.276   1.900  0.0596  0.1968  0.0338
 6349SOL    HW119903   4.479   6.350   1.921  0.5364  0.3449  0.8135
 6349SOL    HW219904   4.492   6.234   1.826 -0.3863  1.0660 -0.2207
 6350SOL     OW19905   4.880   7.718   0.913 -0.0798 -0.0423  0.3573
 6350SOL    HW119906   4.901   7.686   1.001 -1.3568  0.9894  1.0754
 6350SOL    HW219907   4.914   7.807   0.911 -0.2646  0.0188 -0.1060
 6351SOL     OW19908   4.196   1.130   0.251  0.2316  0.1490  0.3431
 6351SOL    HW119909   4.179   1.117   0.158  1.1370  0.2437  0.1563
 6351SOL    HW219910   4.111   1.157   0.287  0.3853  2.6916 -0.9221
 6352SOL     OW19911   7.851   5.333   2.443 -0.0500 -0.1059 -0.7116
 6352SOL    HW119912   7.803   5.253   2.462 -0.2479  0.0831 -0.4144
 6352SOL    HW219913   7.931   5.303   2.399 -0.0224 -0.4814 -0.4115
 6353SOL     OW19914   1.694   1.664   0.631  0.2302  0.0122  0.0258
 6353SOL    HW119915   1.659   1.752   0.644  1.2664  0.8581 -2.3456
 6353SOL    HW219916   1.705   1.656   0.536 -0.1338 -2.8144  0.1245
 6354SOL     OW19917   5.473   1.517   2.369  0.1361  0.1205  0.5132
 6354SOL    HW119918   5.500   1.425   2.363 -0.3583  0.0018  0.0245
 6354SOL    HW219919   5.554   1.567   2.360  0.4733 -0.2774  1.2770
 6355SOL     OW19920   0.370   1.518   0.692 -0.4940 -0.0943 -0.0842
 6355SOL    HW119921   0.333   1.457   0.627 -1.4135  0.0694  0.2710
 6355SOL    HW219922   0.451   1.550   0.651 -1.5023  0.6988 -1.5517
 6356SOL     OW19923   5.461   6.300   2.162  0.4443 -0.2846 -0.4572
 6356SOL    HW119924   5.449   6.212   2.125  1.1220 -0.5533 -0.0679
 6356SOL    HW219925   5.551   6.324   2.139  0.8074 -0.3649  0.7609
 6357SOL     OW19926   6.241   6.979   6.365  0.0700 -0.1151 -0.2737
 6357SOL    HW119927   6.303   6.986   6.293 -1.3908  0.2075 -1.5432
 6357SOL    HW219928   6.223   7.070   6.390  2.6125 -0.1789  2.4320
 6358SOL     OW19929   5.017   2.391   0.051  0.7407  0.0803  0.1506
 6358SOL    HW119930   5.014   2.475   0.005 -0.1797 -0.0605 -0.0743
 6358SOL    HW219931   4.979   2.410   0.137 -1.4697 -0.5186 -0.6312
 6359SOL     OW19932   2.578   2.751   2.954  0.4706  0.0785  0.5132
 6359SOL    HW119933   2.488   2.758   2.985  0.5801  0.1661  0.8169
 6359SOL    HW219934   2.571   2.705   2.871  0.2181 -0.6850  0.9445
 6360SOL     OW19935   0.591   3.634   7.458 -0.4247  0.0388  0.4221
 6360SOL    HW119936   0.678   3.657   7.492  0.5590  2.3409 -3.0964
 6360SOL    HW219937   0.530   3.679   7.516  1.0317  2.2624  0.3614
 6361SOL     OW19938   2.017   3.799   4.505 -0.1117  0.6713  0.5038
 6361SOL    HW119939   2.065   3.880   4.490 -1.7145  2.0239  2.2369
 6361SOL    HW219940   1.948   3.823   4.567 -1.7943 -1.6111 -0.3418
 6362SOL     OW19941   3.715   6.209   5.548 -0.0361 -0.4094 -0.4029
 6362SOL    HW119942   3.643   6.155   5.515  1.4757 -2.6383 -0.2717
 6362SOL    HW219943   3.779   6.209   5.478  0.2565  0.7550 -0.1562
 6363SOL     OW19944   3.799   3.506   4.774  0.1274 -0.5395 -0.5675
 6363SOL    HW119945   3.707   3.534   4.780  0.0014 -0.9937 -0.2819
 6363SOL    HW219946   3.801   3.422   4.821  0.4276 -1.1471 -1.6210
 6364SOL     OW19947   1.158   3.436   0.307  0.2197  0.3667 -0.5309
 6364SOL    HW119948   1.253   3.443   0.302  0.2173  1.8308  0.7260
 6364SOL    HW219949   1.142   3.372   0.376  0.2481 -1.2401 -1.9459
 6365SOL     OW19950   7.268   5.920   0.844 -0.0333  0.5114 -0.1890
 6365SOL    HW119951   7.241   5.874   0.764 -0.0260  0.7852 -0.3499
 6365SOL    HW219952   7.208   5.995   0.850 -0.9961 -0.3082  0.8542
 6366SOL     OW19953   1.012   2.429   0.287  0.9977  0.1721 -0.0269
 6366SOL    HW119954   0.982   2.383   0.208  0.3004  0.4060  0.0965
 6366SOL    HW219955   1.001   2.365   0.357  1.0985  0.1496 -0.0311
 6367SOL     OW19956   2.572   2.062   6.263 -0.1044 -0.8574 -0.7592
 6367SOL    HW119957   2.639   2.019   6.316  0.2117  1.2282  0.6335
 6367SOL    HW219958   2.553   2.144   6.309 -2.9078 -0.9080 -1.6551
 6368SOL     OW19959   3.752   5.940   0.995  0.3350  0.1910  0.3145
 6368SOL    HW119960   3.834   5.894   1.014  0.7300  0.6686 -0.1902
 6368SOL    HW219961   3.691   5.870   0.969  0.8800 -0.0752 -0.2882
 6369SOL     OW19962   3.210   6.394   3.997  0.8318  0.1016  0.3736
 6369SOL    HW119963   3.180   6.484   4.006  1.3461  0.3397 -0.1802
 6369SOL    HW219964   3.131   6.344   3.976  0.6677  0.5621 -0.1313
 6370SOL     OW19965   2.338   0.854   7.405  0.3177  0.5547 -0.0984
 6370SOL    HW119966   2.350   0.912   7.480  2.0144  0.5584 -0.3437
 6370SOL    HW219967   2.348   0.911   7.329  0.7293  0.1742 -0.3332
 6371SOL     OW19968   5.514   6.568   4.984 -0.1337 -0.0401  0.1551
 6371SOL    HW119969   5.448   6.498   4.982  0.1620 -0.3640  1.1539
 6371SOL    HW219970   5.570   6.549   4.908 -1.0382  0.1030 -0.5626
 6372SOL     OW19971   7.575   6.957   7.774  0.6417 -0.1234 -0.3288
 6372SOL    HW119972   7.488   6.986   7.801  1.4741  0.6798  1.7100
 6372SOL    HW219973   7.609   7.027   7.718  0.8155  0.6334  0.7021
 6373SOL     OW19974   3.392   2.280   0.360  0.3305  0.0208  0.0885
 6373SOL    HW119975   3.466   2.324   0.402  1.5796 -0.5065 -1.4781
 6373SOL    HW219976   3.379   2.199   0.410  0.5570  0.2929  0.5892
 6374SOL     OW19977   1.563   2.489   6.784 -0.1203 -0.2365  0.3286
 6374SOL    HW119978   1.468   2.477   6.788  0.0991 -2.3327  0.2807
 6374SOL    HW219979   1.598   2.403   6.760  1.7540  0.6886 -0.5366
 6375SOL     OW19980   4.127   0.774   4.313 -0.6661 -0.3350  0.4498
 6375SOL    HW119981   4.063   0.781   4.384  0.5989 -0.6994  1.6660
 6375SOL    HW219982   4.074   0.780   4.233 -1.8986  2.3182  1.3521
 6376SOL     OW19983   2.523   0.933   3.466 -0.3291  0.3461 -0.0976
 6376SOL    HW119984   2.540   0.842   3.444  1.6926  0.5420  0.5177
 6376SOL    HW219985   2.587   0.983   3.415  1.0375  1.1448  2.2531
 6377SOL     OW19986   6.146   6.602   5.801  0.5057  0.1799  0.2121
 6377SOL    HW119987   6.217   6.549   5.837 -0.1083 -0.4325  0.5511
 6377SOL    HW219988   6.189   6.663   5.741  1.0644 -1.8231 -1.5052
 6378SOL     OW19989   6.726   4.479   4.768  0.0002  0.5238  0.5442
 6378SOL    HW119990   6.787   4.441   4.831  0.5173  0.1498 -0.1746
 6378SOL    HW219991   6.766   4.563   4.745 -0.1699  0.6425  0.6786
 6379SOL     OW19992   4.209   5.120   4.405  0.0239  0.1837  0.1506
 6379SOL    HW119993   4.272   5.145   4.337 -0.4891  1.9641  0.2788
 6379SOL    HW219994   4.192   5.028   4.389  2.6707 -0.3757  0.1321
 6380SOL     OW19995   6.776   5.408   4.750 -0.3624 -0.1743 -0.2136
 6380SOL    HW119996   6.823   5.479   4.707 -0.7090  0.6357  0.7135
 6380SOL    HW219997   6.816   5.328   4.716  0.1785  0.4651 -1.1025
 6381SOL     OW19998   6.415   5.747   5.480 -0.5074  0.2554  0.5448
 6381SOL    HW119999   6.405   5.653   5.493 -0.9184  0.0229 -1.1828
 6381SOL    HW220000   6.421   5.783   5.568 -0.4489 -1.3725  1.2383
 6382SOL     OW20001   4.187   1.563   0.338  0.1592 -0.0514  0.0709
 6382SOL    HW120002   4.184   1.599   0.249 -0.7007 -1.0414 -0.3208
 6382SOL    HW220003   4.253   1.494   0.334  0.4659  0.2190  0.3399
 6383SOL     OW20004   1.091   0.696   7.472  0.2956  0.5756 -0.2788
 6383SOL    HW120005   1.118   0.787   7.456  0.1984  0.5505 -0.5974
 6383SOL    HW220006   1.022   0.702   7.537  0.4680  0.7119 -0.1085
 6384SOL     OW20007   1.686   3.091   6.463  0.4538 -0.1187  0.4520
 6384SOL    HW120008   1.602   3.095   6.509 -0.0482  0.3695 -0.4817
 6384SOL    HW220009   1.738   3.028   6.514 -0.1249  0.3035  1.5902
 6385SOL     OW20010   5.872   4.198   0.827  0.0264  0.2715  0.5660
 6385SOL    HW120011   5.808   4.214   0.758  0.9229  1.5330 -0.0072
 6385SOL    HW220012   5.885   4.103   0.826 -0.6776  0.1794 -0.3599
 6386SOL     OW20013   4.506   4.780   2.715  0.2918 -0.1393 -0.2798
 6386SOL    HW120014   4.561   4.715   2.672  0.4825 -1.4056  1.7442
 6386SOL    HW220015   4.493   4.746   2.804  0.2976  2.5205  0.8568
 6387SOL     OW20016   3.705   7.241   0.933 -0.3140  0.0844 -0.1155
 6387SOL    HW120017   3.756   7.194   0.998  0.5496 -2.1410 -2.2332
 6387SOL    HW220018   3.666   7.314   0.981  0.4056 -1.2957  2.7873
 6388SOL     OW20019   1.750   4.968   2.875  0.0866 -0.0528 -0.1201
 6388SOL    HW120020   1.667   5.014   2.868  0.7377  1.0557 -0.7712
 6388SOL    HW220021   1.753   4.913   2.796  0.0748  0.0760 -0.2103
 6389SOL     OW20022   5.239   5.577   0.625  0.1724  0.2404 -0.3145
 6389SOL    HW120023   5.237   5.529   0.541  1.1307 -1.3709  0.5242
 6389SOL    HW220024   5.312   5.638   0.616 -0.8999  1.4307 -1.3091
 6390SOL     OW20025   7.254   0.004   5.538 -0.1550 -0.3473 -0.1111
 6390SOL    HW120026   7.335  -0.031   5.576 -0.7760 -1.4568  0.2461
 6390SOL    HW220027   7.197  -0.072   5.528 -1.8091  0.6202  1.2681
 6391SOL     OW20028   2.492   6.293   2.330  0.3536  0.0281 -0.3309
 6391SOL    HW120029   2.512   6.228   2.397  0.3974  0.7630  0.3850
 6391SOL    HW220030   2.505   6.378   2.374  0.3638  0.5214 -1.2604
 6392SOL     OW20031   0.276   0.987   4.549 -0.0953  0.1343 -0.1596
 6392SOL    HW120032   0.295   1.046   4.622  0.8850  0.2316 -0.4739
 6392SOL    HW220033   0.359   0.981   4.501 -0.8334  0.4185 -1.5169
 6393SOL     OW20034   3.869   0.108   2.354 -0.0098  0.3396  0.2555
 6393SOL    HW120035   3.826   0.026   2.375  0.6498 -0.5480 -1.6302
 6393SOL    HW220036   3.912   0.092   2.270  0.0417  2.6476 -0.2308
 6394SOL     OW20037   1.602   6.506   6.893  0.3760 -0.1881 -0.1862
 6394SOL    HW120038   1.532   6.525   6.831  0.7690  0.4373 -0.4479
 6394SOL    HW220039   1.575   6.549   6.975 -0.5445 -1.7046  0.3545
 6395SOL     OW20040   0.976   2.522   7.020  0.7407 -0.2428  0.0233
 6395SOL    HW120041   1.024   2.439   7.013  0.9438 -0.0323 -1.1388
 6395SOL    HW220042   1.004   2.558   7.105  2.3960 -0.2835 -0.4586
 6396SOL     OW20043   4.449   5.282   1.013  0.2368  0.1091  0.3103
 6396SOL    HW120044   4.361   5.288   1.050  0.1327 -0.5522  0.1884
 6396SOL    HW220045   4.487   5.204   1.053  0.0750 -0.7004 -1.0489
 6397SOL     OW20046   5.376   2.120   3.135  0.7626 -0.0746 -0.6145
 6397SOL    HW120047   5.422   2.037   3.124  0.7522  0.0131 -1.3962
 6397SOL    HW220048   5.416   2.178   3.070 -1.9203 -0.6379 -3.0063
 6398SOL     OW20049   1.969   1.471   6.291 -0.5431 -0.0902  0.0393
 6398SOL    HW120050   1.963   1.567   6.292 -0.8558 -0.1084  0.0664
 6398SOL    HW220051   2.051   1.453   6.246 -0.4069  0.1951  0.1701
 6399SOL     OW20052   5.040   4.475   2.819 -0.4233 -0.2245 -0.5161
 6399SOL    HW120053   5.099   4.422   2.872 -0.8646  0.3687  0.5993
 6399SOL    HW220054   4.981   4.412   2.778 -0.8078 -0.6215  0.6141
 6400SOL     OW20055   6.687   0.409   7.261  0.0071  0.0064 -0.2528
 6400SOL    HW120056   6.703   0.488   7.209  1.1470 -0.4209 -0.5876
 6400SOL    HW220057   6.686   0.338   7.197 -2.5657 -0.1250 -0.1426
 6401SOL     OW20058   7.275   0.619   3.192  0.4873  0.2472  0.4209
 6401SOL    HW120059   7.220   0.695   3.213  1.3381  0.8242  0.6166
 6401SOL    HW220060   7.214   0.553   3.160 -0.5577  0.2743  2.1986
 6402SOL     OW20061   4.908   6.174   7.638  0.1579  0.1509 -0.4051
 6402SOL    HW120062   4.922   6.124   7.718  2.5178 -0.4933 -1.1377
 6402SOL    HW220063   4.815   6.164   7.619 -0.0938 -1.1408  1.2781
 6403SOL     OW20064   5.841   1.424   1.997 -0.0420 -0.1645  0.8491
 6403SOL    HW120065   5.929   1.387   1.985 -0.1558 -0.8012  1.8714
 6403SOL    HW220066   5.857   1.512   2.029  0.2332  0.7695 -1.6277
 6404SOL     OW20067   1.173   4.079   4.809 -0.1961 -0.4631  0.1793
 6404SOL    HW120068   1.195   4.079   4.903 -0.0788  0.4732  0.1665
 6404SOL    HW220069   1.140   4.168   4.793 -0.9873 -0.8748 -0.4990
 6405SOL     OW20070   5.826   2.820   5.628 -0.8500 -0.1512 -0.1115
 6405SOL    HW120071   5.750   2.866   5.592  0.5903  0.3218 -2.8338
 6405SOL    HW220072   5.872   2.887   5.680  0.0869  0.9596 -2.2704
 6406SOL     OW20073   6.248   7.497   2.300 -0.1965 -0.1571 -0.0944
 6406SOL    HW120074   6.291   7.444   2.233  0.0689 -0.5470  0.3858
 6406SOL    HW220075   6.295   7.478   2.380  0.0761  1.0036  0.0396
 6407SOL     OW20076   1.605   3.602   0.714  0.2064  0.3000  0.3418
 6407SOL    HW120077   1.558   3.531   0.758 -0.1693  1.1527  1.3514
 6407SOL    HW220078   1.635   3.563   0.632 -3.8909  0.1581 -1.3228
 6408SOL     OW20079   4.106   3.092   4.807 -0.1888  0.1983 -0.2946
 6408SOL    HW120080   4.044   3.051   4.867  0.2685  0.5533  0.4372
 6408SOL    HW220081   4.087   3.185   4.811 -1.0161  0.1205 -1.7142
 6409SOL     OW20082   1.567   3.244   0.175 -0.0172  0.0630  0.0393
 6409SOL    HW120083   1.495   3.189   0.144 -1.1177  0.6436  1.4745
 6409SOL    HW220084   1.525   3.322   0.210  1.4098  1.0479 -0.3174
 6410SOL     OW20085   6.235   4.708   1.398  0.6446 -0.1200 -0.1920
 6410SOL    HW120086   6.234   4.708   1.494  1.1126  0.2854 -0.1815
 6410SOL    HW220087   6.147   4.736   1.373 -0.1076 -2.0510  0.0851
 6411SOL     OW20088   3.476   4.223   4.681 -0.1561 -0.1684  0.0137
 6411SOL    HW120089   3.529   4.292   4.723 -0.3724 -0.0123  0.0352
 6411SOL    HW220090   3.396   4.269   4.653 -0.2723 -0.3994 -0.0304
 6412SOL     OW20091   6.661   6.579   1.562 -0.3597 -0.9710 -0.2793
 6412SOL    HW120092   6.747   6.593   1.523 -0.2580 -0.5796  0.0756
 6412SOL    HW220093   6.600   6.622   1.502  0.0174  1.8436  1.1887
 6413SOL     OW20094   2.818   4.545   2.557 -0.0817  0.0412 -0.3077
 6413SOL    HW120095   2.813   4.497   2.474  1.8321 -2.6042  0.9727
 6413SOL    HW220096   2.759   4.499   2.616  2.0251 -1.0726  1.0474
 6414SOL     OW20097   7.388   3.588   3.141  0.2348 -0.2634 -0.0768
 6414SOL    HW120098   7.468   3.640   3.146  0.5085 -0.7929  1.4150
 6414SOL    HW220099   7.319   3.653   3.127  0.8040  0.2861 -0.3923
 6415SOL     OW20100   2.537   7.128   7.299 -0.5610  0.3866 -0.3034
 6415SOL    HW120101   2.506   7.135   7.389  1.0988  1.9403  0.2139
 6415SOL    HW220102   2.600   7.056   7.302 -0.7344  0.2369 -0.2805
 6416SOL     OW20103   1.559   6.462   4.088  0.1918  0.3507  0.4715
 6416SOL    HW120104   1.507   6.449   4.009  1.4232  2.6261 -0.8293
 6416SOL    HW220105   1.514   6.533   4.134  0.9508  0.8810  0.4136
 6417SOL     OW20106   4.263   7.835   5.050 -0.4752  1.0901 -0.0195
 6417SOL    HW120107   4.177   7.794   5.060  0.5630 -1.1452  0.2734
 6417SOL    HW220108   4.313   7.774   4.996  0.5847  2.9320 -1.1951
 6418SOL     OW20109   1.790   7.883   1.478  0.4531 -0.4731  0.5499
 6418SOL    HW120110   1.812   7.972   1.506 -1.3257 -0.2467  1.3243
 6418SOL    HW220111   1.764   7.893   1.386  2.3630 -0.5759 -0.0382
 6419SOL     OW20112   6.209   4.196   5.496 -0.0675 -0.1627 -0.7063
 6419SOL    HW120113   6.305   4.194   5.495 -0.0342  0.8014 -1.7586
 6419SOL    HW220114   6.183   4.175   5.406 -0.7694  1.0578 -0.8182
 6420SOL     OW20115   5.537   0.923   5.331 -0.1769 -0.3066  1.1828
 6420SOL    HW120116   5.543   0.907   5.237 -0.8920 -0.5397  1.1683
 6420SOL    HW220117   5.627   0.943   5.358 -0.2692  1.7733  0.1093
 6421SOL     OW20118   1.694   3.706   7.404 -0.0224  0.1812 -0.2993
 6421SOL    HW120119   1.631   3.692   7.475 -0.4042  1.1893 -0.4347
 6421SOL    HW220120   1.642   3.707   7.324 -0.0770  2.4754 -0.2965
 6422SOL     OW20121   1.730   7.911   5.196  0.0282  0.3195  0.2315
 6422SOL    HW120122   1.711   7.817   5.202 -0.3741  0.4620  1.9908
 6422SOL    HW220123   1.684   7.940   5.117  0.2912 -0.9811 -0.4235
 6423SOL     OW20124   4.979   1.532   1.456  0.4515  0.2540  0.0406
 6423SOL    HW120125   4.940   1.445   1.460  0.4842  0.2638  0.5663
 6423SOL    HW220126   5.002   1.543   1.363 -1.5332  0.5799 -0.4501
 6424SOL     OW20127   4.502   6.255   7.837  0.5456 -0.4056  0.3103
 6424SOL    HW120128   4.556   6.330   7.812  1.2657 -1.0505 -0.0998
 6424SOL    HW220129   4.501   6.257   7.932  0.9126 -0.1162  0.3121
 6425SOL     OW20130   1.925   5.924   0.515 -0.5104 -0.1123  0.3886
 6425SOL    HW120131   1.840   5.941   0.475 -0.0418  0.3611 -0.4559
 6425SOL    HW220132   1.907   5.910   0.607 -1.7467 -2.0651 -0.0999
 6426SOL     OW20133   6.208   2.220   3.425 -0.1561  0.0584  0.2457
 6426SOL    HW120134   6.230   2.146   3.481  0.4267  0.5872  0.7285
 6426SOL    HW220135   6.292   2.251   3.391 -0.3064  1.0155  0.7166
 6427SOL     OW20136   1.941   7.027   7.429  0.8913  0.1799  0.5396
 6427SOL    HW120137   1.893   7.090   7.483 -0.0981  1.7079 -1.9954
 6427SOL    HW220138   2.017   7.004   7.483  0.3619  2.1664  2.2886
 6428SOL     OW20139   3.768   6.690   6.252  0.3170 -0.0592 -0.0515
 6428SOL    HW120140   3.783   6.639   6.332 -0.6284 -0.4407 -0.1059
 6428SOL    HW220141   3.724   6.769   6.282 -3.7832 -1.9320 -0.4940
 6429SOL     OW20142   4.283   7.892   7.036 -0.3273  0.2168 -0.5757
 6429SOL    HW120143   4.249   7.980   7.021  0.0651  0.6124  0.7493
 6429SOL    HW220144   4.348   7.902   7.105 -1.9904 -1.4628  1.3896
 6430SOL     OW20145   1.917   7.383   3.058  0.2672 -0.2022 -0.2498
 6430SOL    HW120146   2.003   7.395   3.097  0.9786 -0.5058 -1.6564
 6430SOL    HW220147   1.888   7.472   3.035  0.6414 -0.1872 -0.6643
 6431SOL     OW20148   5.052   2.395   4.962  0.5298 -0.2871  0.7472
 6431SOL    HW120149   5.007   2.471   4.927  1.2351  0.2434  0.9672
 6431SOL    HW220150   5.036   2.325   4.898  1.0787  0.4291 -0.1930
 6432SOL     OW20151   0.902   7.661   4.630 -0.2649 -0.4402  0.0447
 6432SOL    HW120152   0.838   7.606   4.585  0.5839 -0.3642 -1.2863
 6432SOL    HW220153   0.934   7.721   4.563  0.7258 -0.0455  0.8487
 6433SOL     OW20154   0.397   3.806   4.029 -0.2973  1.0698  0.1315
 6433SOL    HW120155   0.302   3.799   4.015 -0.1650 -2.3276  0.2605
 6433SOL    HW220156   0.423   3.720   4.061  2.7724  2.1284  0.7829
 6434SOL     OW20157   3.596   0.282   0.406  0.1765 -0.0354  0.2348
 6434SOL    HW120158   3.529   0.216   0.390 -0.5223  0.9792 -1.2036
 6434SOL    HW220159   3.639   0.295   0.322  0.9876  0.6191  0.7227
 6435SOL     OW20160   6.164   2.419   7.611  0.0212  0.7551 -0.5211
 6435SOL    HW120161   6.254   2.450   7.618  0.0216  0.5076  0.9066
 6435SOL    HW220162   6.110   2.492   7.642 -0.1689  0.4128 -0.0268
 6436SOL     OW20163   6.257   0.754   3.842  0.4016 -0.5068  0.0935
 6436SOL    HW120164   6.291   0.773   3.930  0.9129 -0.9830  0.0070
 6436SOL    HW220165   6.162   0.749   3.853  0.2015  2.0777  0.1166
 6437SOL     OW20166   1.862   2.953   3.824 -0.2335 -0.0359  0.2003
 6437SOL    HW120167   1.876   2.987   3.735  0.1712 -1.6112 -0.3817
 6437SOL    HW220168   1.932   2.888   3.835 -0.0913  0.3560  1.8059
 6438SOL     OW20169   6.524   1.010   1.712 -0.3117  0.1602  0.3985
 6438SOL    HW120170   6.612   1.016   1.674  0.1170 -0.0596  1.3193
 6438SOL    HW220171   6.469   0.980   1.640  0.7748 -1.8748  0.3337
 6439SOL     OW20172   4.194   4.348   7.296 -0.3851 -0.3369  0.5081
 6439SOL    HW120173   4.205   4.430   7.248 -0.9157 -0.0087  0.9331
 6439SOL    HW220174   4.179   4.282   7.228  0.9427 -0.2542  0.1049
 6440SOL     OW20175   8.001   1.443   1.927 -0.0017  0.2021 -0.0589
 6440SOL    HW120176   7.991   1.446   2.022  0.5952 -1.0196  0.0576
 6440SOL    HW220177   7.997   1.349   1.905 -0.8413  0.4974 -1.3199
 6441SOL     OW20178   1.803   6.354   5.966  0.0463  0.6249  0.4306
 6441SOL    HW120179   1.876   6.307   5.926 -0.5182 -0.7076  0.8988
 6441SOL    HW220180   1.767   6.407   5.895  1.1091  0.8822  0.0553
 6442SOL     OW20181   4.439   2.917   4.976  0.0719 -0.2724 -0.3211
 6442SOL    HW120182   4.532   2.936   4.959 -0.0530  1.4425  0.6815
 6442SOL    HW220183   4.428   2.934   5.069 -1.4503  0.4688 -0.6079
 6443SOL     OW20184   1.451   6.434   5.763 -0.2773 -0.0791  0.0158
 6443SOL    HW120185   1.430   6.348   5.799 -1.1320  0.1231  0.0172
 6443SOL    HW220186   1.398   6.440   5.684 -1.6974  1.1891  1.0066
 6444SOL     OW20187   4.031   5.294   4.026  0.2256  0.2359 -0.2364
 6444SOL    HW120188   4.006   5.203   4.009  1.0419 -0.2652  1.1023
 6444SOL    HW220189   4.122   5.300   3.997  0.4352  0.3854  0.4335
 6445SOL     OW20190   4.568   4.657   2.337  0.0403 -0.2596 -0.1594
 6445SOL    HW120191   4.531   4.745   2.334  1.4360  0.4133  0.9804
 6445SOL    HW220192   4.589   4.636   2.246  0.0766  0.7618 -0.3927
 6446SOL     OW20193   3.525   6.631   4.507  0.9799 -0.1180 -0.9466
 6446SOL    HW120194   3.589   6.667   4.568  0.0479  1.9629 -1.1278
 6446SOL    HW220195   3.529   6.689   4.431  0.2176 -1.0842 -1.7513
 6447SOL     OW20196   3.387   8.000   2.973 -0.6603 -0.0260  1.0939
 6447SOL    HW120197   3.304   8.011   2.927  1.2607 -0.7563 -2.9640
 6447SOL    HW220198   3.410   8.088   3.001 -1.3142  0.7502 -0.6581
 6448SOL     OW20199   7.528   0.578   2.447  0.7856  0.2701  0.0131
 6448SOL    HW120200   7.452   0.627   2.415  0.2259  0.1925  1.1708
 6448SOL    HW220201   7.581   0.643   2.493  1.8598  0.4924 -1.4807
 6449SOL     OW20202   3.580   0.033   6.725  0.2133 -0.1014 -0.0206
 6449SOL    HW120203   3.484   0.036   6.721  0.2163  1.5979  0.5359
 6449SOL    HW220204   3.607   0.014   6.635 -0.6089  1.4756 -0.6362
 6450SOL     OW20205   4.798   4.825   1.354  0.5056  0.7458  0.5402
 6450SOL    HW120206   4.892   4.846   1.358  0.6082  0.0926  2.4936
 6450SOL    HW220207   4.755   4.909   1.344  1.2458  1.2057  1.0971
 6451SOL     OW20208   2.053   6.231   6.768  0.3181 -0.2057 -0.7877
 6451SOL    HW120209   1.958   6.222   6.761  0.3291 -4.4446  1.0385
 6451SOL    HW220210   2.066   6.290   6.842 -1.0462 -1.1413  0.2676
 6452SOL     OW20211   0.906   5.392   5.676  0.1340  0.2183  0.4472
 6452SOL    HW120212   0.999   5.407   5.656 -0.6128  2.1735 -2.0001
 6452SOL    HW220213   0.862   5.400   5.592 -2.1007 -2.9367  1.1482
 6453SOL     OW20214   4.283   4.218   5.328  0.6881  0.0428  0.0162
 6453SOL    HW120215   4.345   4.238   5.257  1.7258  1.0440  1.1454
 6453SOL    HW220216   4.325   4.146   5.376  0.7922  0.4456  0.5401
 6454SOL     OW20217   3.140   6.439   4.384 -0.4112  0.2125 -0.3065
 6454SOL    HW120218   3.054   6.402   4.361 -1.2142  1.1335  1.0847
 6454SOL    HW220219   3.125   6.534   4.385  1.0202  0.4925 -1.4738
 6455SOL     OW20220   4.726   2.331   0.256  0.2886 -0.0460  0.0628
 6455SOL    HW120221   4.663   2.330   0.184 -0.3504 -2.1348  0.5719
 6455SOL    HW220222   4.778   2.251   0.244 -0.0672 -0.6363  2.0673
 6456SOL     OW20223   6.180   6.089   7.837 -0.5652 -0.2945  0.3453
 6456SOL    HW120224   6.204   6.035   7.912  0.6310 -1.6494 -0.9520
 6456SOL    HW220225   6.259   6.138   7.816 -1.2900  1.0933  0.7679
 6457SOL     OW20226   6.446   2.777   0.993  0.2399 -0.5013 -0.3091
 6457SOL    HW120227   6.389   2.848   1.023 -0.0010 -0.5617 -0.6243
 6457SOL    HW220228   6.530   2.820   0.975 -0.2925 -0.0324 -1.8261
 6458SOL     OW20229   7.017   3.738   2.680  0.3070 -0.3004 -0.6791
 6458SOL    HW120230   6.990   3.750   2.772 -0.8161  2.9467 -1.2882
 6458SOL    HW220231   6.953   3.677   2.644 -0.1833 -0.4142  0.3423
 6459SOL     OW20232   5.840   2.510   6.765 -0.0596  0.0469  0.5656
 6459SOL    HW120233   5.863   2.531   6.856  0.2200  1.5786  0.1758
 6459SOL    HW220234   5.754   2.468   6.771  0.3529 -0.7084  1.5947
 6460SOL     OW20235   1.283   4.020   0.489  0.2018 -0.8514 -0.3918
 6460SOL    HW120236   1.260   3.970   0.568 -0.7715 -0.5783 -0.4911
 6460SOL    HW220237   1.379   4.027   0.492  0.1693 -0.7172  0.8490
 6461SOL     OW20238   3.153   4.179   3.651 -0.3096  0.1352 -0.6579
 6461SOL    HW120239   3.201   4.152   3.573 -0.6785 -2.0979 -0.1919
 6461SOL    HW220240   3.158   4.274   3.651 -0.0320  0.1797 -3.2155
 6462SOL     OW20241   0.784   0.994   5.260  0.2187 -0.3484  0.5026
 6462SOL    HW120242   0.709   0.938   5.279  0.5235 -0.4371  1.5040
 6462SOL    HW220243   0.747   1.080   5.242 -0.1240 -0.3782  1.0495
 6463SOL     OW20244   6.220   1.960   6.993  0.6547  0.1794 -0.8118
 6463SOL    HW120245   6.148   1.908   7.028  2.1090 -0.1165  2.0407
 6463SOL    HW220246   6.214   2.044   7.039  1.4706  0.5480 -1.3534
 6464SOL     OW20247   4.808   6.862   4.019 -0.1106  0.1373  0.1108
 6464SOL    HW120248   4.728   6.897   3.980  2.4994  1.8345 -4.5190
 6464SOL    HW220249   4.865   6.938   4.029  1.5869 -1.2510  1.5789
 6465SOL     OW20250   6.073   7.549   1.962  0.2000  0.0495  0.1366
 6465SOL    HW120251   6.014   7.551   2.038 -1.0148 -0.5651 -0.7474
 6465SOL    HW220252   6.159   7.572   1.997 -0.0186 -1.6932  1.9755
 6466SOL     OW20253   4.062   0.233   3.136 -0.3701  0.4175 -0.1199
 6466SOL    HW120254   4.072   0.242   3.041  0.4171 -0.0507 -0.0938
 6466SOL    HW220255   4.005   0.306   3.161  1.0785  1.8106 -0.6767
 6467SOL     OW20256   5.840   5.930   3.717 -0.2543  0.0578  0.0233
 6467SOL    HW120257   5.819   5.915   3.809 -1.5794  1.0643 -0.0871
 6467SOL    HW220258   5.776   5.878   3.669 -0.5805  0.7619 -0.3197
 6468SOL     OW20259   6.612   5.585   3.907 -0.7037 -0.4048 -0.0519
 6468SOL    HW120260   6.679   5.608   3.843  1.5348 -1.3325  1.7888
 6468SOL    HW220261   6.583   5.498   3.881 -0.4204 -0.4281 -0.3023
 6469SOL     OW20262   4.408   5.252   4.636 -0.3514  0.2967 -0.2982
 6469SOL    HW120263   4.328   5.232   4.685 -0.3980  0.9759 -0.0813
 6469SOL    HW220264   4.422   5.175   4.580 -2.5170  1.1454 -2.1741
 6470SOL     OW20265   3.585   4.012   0.478 -0.2869 -0.1045  0.1976
 6470SOL    HW120266   3.593   3.926   0.437 -0.4442 -0.4189  0.8188
 6470SOL    HW220267   3.629   4.072   0.417 -1.6912 -0.3379 -1.1258
 6471SOL     OW20268   2.840   3.607   4.264 -0.0124 -0.1668  0.6176
 6471SOL    HW120269   2.926   3.641   4.292 -0.1688  0.7441  0.0416
 6471SOL    HW220270   2.789   3.604   4.345  0.8426 -1.6423  1.1378
 6472SOL     OW20271   2.490   2.613   6.341 -0.3880 -0.1847  0.0466
 6472SOL    HW120272   2.408   2.631   6.295 -0.9372 -2.1952  0.1413
 6472SOL    HW220273   2.463   2.589   6.430  0.0733 -2.5478 -0.3736
 6473SOL     OW20274   0.763   0.724   6.131  0.0373  0.3473 -0.4236
 6473SOL    HW120275   0.807   0.758   6.053  0.6991  0.0542 -0.1890
 6473SOL    HW220276   0.833   0.684   6.183 -0.5085 -0.1251 -0.0301
 6474SOL     OW20277   2.520   5.776   0.371  0.0914 -0.0709 -0.2231
 6474SOL    HW120278   2.582   5.830   0.322  0.0403  0.0029 -0.2082
 6474SOL    HW220279   2.483   5.716   0.306 -0.8576  0.8192 -0.5433
 6475SOL     OW20280   5.258   4.035   5.864  0.6690  0.2672 -0.0937
 6475SOL    HW120281   5.224   3.981   5.935  1.1816 -0.2416 -0.2338
 6475SOL    HW220282   5.194   4.025   5.794  0.1467  0.7931  0.2922
 6476SOL     OW20283   0.846   6.566   5.551 -0.4779  0.4751  0.5609
 6476SOL    HW120284   0.792   6.623   5.606  0.9621  0.1837  2.3857
 6476SOL    HW220285   0.927   6.615   5.539  0.1172 -0.4576  0.6962
 6477SOL     OW20286   5.882   3.536   5.470 -0.0628  0.4337 -0.2223
 6477SOL    HW120287   5.836   3.600   5.524  1.2961 -0.7505  2.5505
 6477SOL    HW220288   5.975   3.551   5.491  0.2945 -2.3716  0.5335
 6478SOL     OW20289   5.470   3.095   2.096  0.4719 -0.0388  0.1721
 6478SOL    HW120290   5.417   3.086   2.017  0.6576  1.0057 -0.0769
 6478SOL    HW220291   5.408   3.120   2.165  0.5405  0.6114  0.0053
 6479SOL     OW20292   5.726   6.947   5.166 -0.4743 -0.2031  0.0950
 6479SOL    HW120293   5.717   6.882   5.096 -1.5859 -0.3332  0.3284
 6479SOL    HW220294   5.799   6.916   5.220 -0.3949 -0.7533 -0.3267
 6480SOL     OW20295   6.242   0.502   2.801  0.3379 -0.2025  0.4735
 6480SOL    HW120296   6.271   0.413   2.782  0.9758 -0.2058  1.3994
 6480SOL    HW220297   6.319   0.545   2.838  0.6482  1.3519 -1.7570
 6481SOL     OW20298   2.051   2.541   0.647  0.0929 -0.2617  0.1877
 6481SOL    HW120299   2.095   2.617   0.609 -0.2128  0.2633  0.8467
 6481SOL    HW220300   2.101   2.522   0.727 -0.3650 -0.1820  0.4995
 6482SOL     OW20301   5.788   6.653   4.544 -0.8616 -0.1188  0.5055
 6482SOL    HW120302   5.768   6.680   4.454 -0.1105  3.1047  1.1788
 6482SOL    HW220303   5.883   6.663   4.552 -1.0058  0.3806  1.8596
 6483SOL     OW20304   6.661   0.711   1.545 -0.8867  0.1891  0.1381
 6483SOL    HW120305   6.634   0.751   1.463 -1.5611 -0.5001  0.0069
 6483SOL    HW220306   6.593   0.647   1.564  0.0822 -0.8123  0.3906
 6484SOL     OW20307   0.264   4.146   1.199  0.4020  0.1127  0.0719
 6484SOL    HW120308   0.346   4.120   1.243  0.8736 -2.0853 -1.9477
 6484SOL    HW220309   0.224   4.064   1.171 -0.6724  1.3128 -2.1717
 6485SOL     OW20310   3.949   6.279   7.469 -0.5229 -0.1875  0.6664
 6485SOL    HW120311   3.985   6.299   7.382 -0.7336 -1.7054  0.2125
 6485SOL    HW220312   3.858   6.309   7.465 -0.2460  0.6824  0.7212
 6486SOL     OW20313   3.113   6.112   4.542 -0.0111 -0.1556  0.1159
 6486SOL    HW120314   3.146   6.033   4.584  0.7981 -1.0970 -2.1103
 6486SOL    HW220315   3.169   6.123   4.465 -1.0369  1.7711 -0.4185
 6487SOL     OW20316   5.065   6.045   2.965 -0.0781  0.5485  0.2447
 6487SOL    HW120317   5.008   5.986   3.015 -0.8678  0.6399 -0.5113
 6487SOL    HW220318   5.132   6.072   3.027 -1.5943  1.4521  1.5671
 6488SOL     OW20319   6.111   4.962   0.831 -0.5155 -0.4824  0.2825
 6488SOL    HW120320   6.024   4.995   0.853 -0.5278  0.0916 -0.5685
 6488SOL    HW220321   6.169   5.036   0.848 -0.2824 -0.6497  0.2189
 6489SOL     OW20322   4.090   1.135   3.818  0.1254  0.2197  0.0709
 6489SOL    HW120323   4.136   1.054   3.795 -0.1228 -0.1399  0.8148
 6489SOL    HW220324   4.000   1.120   3.790  0.0379  0.1630  0.3802
 6490SOL     OW20325   3.621   4.416   2.277  0.1024  0.5310  0.5441
 6490SOL    HW120326   3.624   4.512   2.281 -0.3908  0.5836 -0.2767
 6490SOL    HW220327   3.529   4.395   2.289  0.2965  0.1103  1.4059
 6491SOL     OW20328   6.677   5.339   4.999  0.1694 -0.5643 -0.5191
 6491SOL    HW120329   6.723   5.340   4.915 -0.7241  1.0804 -1.0365
 6491SOL    HW220330   6.727   5.399   5.054 -0.7885  0.5227 -0.7950
 6492SOL     OW20331   5.243   5.887   6.233  0.1820  0.2433 -0.1995
 6492SOL    HW120332   5.311   5.870   6.298  0.5954 -1.2042 -0.9723
 6492SOL    HW220333   5.205   5.801   6.215 -0.7705  0.7997 -0.9582
 6493SOL     OW20334   2.254   4.745   4.331 -0.3526 -0.2991 -0.4250
 6493SOL    HW120335   2.197   4.698   4.271  0.6562  0.1646 -1.8063
 6493SOL    HW220336   2.314   4.678   4.364 -1.8990 -0.8670  1.3526
 6494SOL     OW20337   7.669   2.602   2.370  0.3107  0.7289 -0.4420
 6494SOL    HW120338   7.685   2.685   2.325  0.9820  0.0819 -1.4405
 6494SOL    HW220339   7.756   2.574   2.400  0.1284  0.2675 -0.3363
 6495SOL     OW20340   4.830   5.663   4.486 -0.4110 -0.9153  0.3198
 6495SOL    HW120341   4.886   5.691   4.413  1.3393 -0.5449  1.7405
 6495SOL    HW220342   4.750   5.715   4.475  0.8110  1.0475  0.0755
 6496SOL     OW20343   1.492   0.913   4.152  0.0875 -0.1803  0.6332
 6496SOL    HW120344   1.452   0.889   4.069 -0.0573  0.7438  0.4267
 6496SOL    HW220345   1.539   0.834   4.180  0.3516 -0.4153 -0.4466
 6497SOL     OW20346   3.212   6.629   5.854 -0.1340 -0.6010  0.3412
 6497SOL    HW120347   3.130   6.581   5.839  0.7336 -2.0270 -0.0416
 6497SOL    HW220348   3.265   6.611   5.776  0.0695  1.4063 -0.0392
 6498SOL     OW20349   3.588   7.296   7.198  0.0139 -0.6957  0.6086
 6498SOL    HW120350   3.494   7.312   7.208  0.0408  0.6073 -0.8738
 6498SOL    HW220351   3.594   7.205   7.171 -0.9087 -0.5486 -0.1449
 6499SOL     OW20352   1.054   6.735   1.920 -0.1712 -0.1667 -0.1529
 6499SOL    HW120353   1.004   6.712   1.999 -1.6844  1.3483 -0.6115
 6499SOL    HW220354   1.101   6.655   1.898 -1.7864 -1.4481  0.7952
 6500SOL     OW20355   7.814   6.645   5.787 -0.2402 -0.0700 -0.2190
 6500SOL    HW120356   7.866   6.633   5.707  0.8377  1.5093  0.1989
 6500SOL    HW220357   7.875   6.686   5.849 -0.8355 -1.9256  1.7005
 6501SOL     OW20358   3.486   3.915   5.529 -0.4928 -0.2989  0.0554
 6501SOL    HW120359   3.509   3.876   5.613  0.0747 -1.1959 -0.5092
 6501SOL    HW220360   3.562   3.969   5.507  0.0544 -1.3492 -0.6538
 6502SOL     OW20361   4.000   6.423   4.743 -0.3611 -0.3790 -0.1072
 6502SOL    HW120362   3.952   6.377   4.674 -1.9032 -1.6721  1.6958
 6502SOL    HW220363   4.080   6.371   4.755 -1.3262 -1.7330  0.8001
 6503SOL     OW20364   0.554   0.962   1.951 -0.2446 -0.1687  0.2952
 6503SOL    HW120365   0.558   0.870   1.926 -0.6064 -0.9220  2.7307
 6503SOL    HW220366   0.577   0.963   2.044 -0.0502  2.2359  0.2915
 6504SOL     OW20367   0.753   7.434   4.576  0.4652  0.1375 -0.2354
 6504SOL    HW120368   0.765   7.400   4.665  0.6803  2.1131  0.5400
 6504SOL    HW220369   0.684   7.379   4.538  1.0415 -1.3374  0.8077
 6505SOL     OW20370   0.602   1.025   6.608  0.2855 -0.1217  0.4378
 6505SOL    HW120371   0.580   1.118   6.599 -1.1017 -0.4430  0.3343
 6505SOL    HW220372   0.603   0.992   6.518  1.3124 -0.1000  0.4349
 6506SOL     OW20373   5.995   6.745   3.856 -0.6040  0.1270  0.5902
 6506SOL    HW120374   6.074   6.740   3.802 -0.2268  1.3492  1.0101
 6506SOL    HW220375   5.950   6.661   3.840 -0.1125  0.1320 -1.0087
 6507SOL     OW20376   4.874   2.647   4.422  0.2600 -0.1086  0.0882
 6507SOL    HW120377   4.794   2.691   4.450 -0.5202 -1.9310  0.8477
 6507SOL    HW220378   4.857   2.621   4.331 -0.6638 -1.8093  0.6990
 6508SOL     OW20379   4.046   5.531   2.896  0.4238  0.1528  0.2574
 6508SOL    HW120380   3.994   5.599   2.938 -1.2868 -0.7664 -0.2933
 6508SOL    HW220381   4.089   5.485   2.968 -1.0367 -0.2573  0.9091
 6509SOL     OW20382   1.749   2.290   5.235  0.9300 -0.4982 -0.2721
 6509SOL    HW120383   1.751   2.312   5.142  3.0839 -2.7193 -0.8666
 6509SOL    HW220384   1.775   2.371   5.279 -0.2704  0.6275 -1.5440
 6510SOL     OW20385   7.274   4.021   6.644 -0.4964 -0.1674  0.0573
 6510SOL    HW120386   7.233   3.934   6.634  0.3529 -0.4595 -1.1020
 6510SOL    HW220387   7.258   4.064   6.560  1.9486 -0.4809 -0.6393
 6511SOL     OW20388   1.253   2.214   6.444  0.4767 -0.8793 -0.4477
 6511SOL    HW120389   1.244   2.249   6.356 -0.4157  1.3243  0.4428
 6511SOL    HW220390   1.170   2.171   6.462  0.3958 -0.7312 -0.4619
 6512SOL     OW20391   7.108   7.724   0.184 -0.7212 -0.7339 -0.4578
 6512SOL    HW120392   7.124   7.716   0.278  2.8690  1.6841 -0.6485
 6512SOL    HW220393   7.074   7.639   0.158  0.9128 -2.4948  2.5681
 6513SOL     OW20394   3.663   3.513   3.255  0.3851 -0.3014  0.6189
 6513SOL    HW120395   3.740   3.484   3.206  0.5835 -0.2389  0.8852
 6513SOL    HW220396   3.699   3.539   3.341 -0.0010 -0.7638  0.9262
 6514SOL     OW20397   6.510   7.109   3.344 -0.5319  0.0268 -0.5282
 6514SOL    HW120398   6.568   7.080   3.274  0.1600  1.4519 -0.5743
 6514SOL    HW220399   6.509   7.036   3.406 -0.3089 -0.8157 -1.4983
 6515SOL     OW20400   6.535   6.472   1.804 -0.2985 -0.2268 -0.0226
 6515SOL    HW120401   6.630   6.483   1.796 -0.1573  0.1779  1.8107
 6515SOL    HW220402   6.521   6.378   1.810 -0.0669 -0.3088 -0.6953
 6516SOL     OW20403   1.532   5.367   0.351  0.4009  0.1452 -0.8979
 6516SOL    HW120404   1.546   5.458   0.380  1.8205  0.1081 -1.3754
 6516SOL    HW220405   1.555   5.314   0.428 -0.4485  0.1795 -0.6124
 6517SOL     OW20406   7.804   0.149   7.339 -0.0056 -0.2837 -0.2461
 6517SOL    HW120407   7.862   0.081   7.306 -0.3998 -0.7387 -0.0220
 6517SOL    HW220408   7.726   0.102   7.368 -0.0605  0.2042  0.4287
 6518SOL     OW20409   0.394   3.737   3.229  0.3360 -0.3857  0.1662
 6518SOL    HW120410   0.405   3.814   3.285 -0.6786 -0.0226 -0.1201
 6518SOL    HW220411   0.482   3.721   3.194  1.0312 -0.7483  2.0078
 6519SOL     OW20412   2.847   5.528   7.343 -0.1046 -0.7759  0.4383
 6519SOL    HW120413   2.768   5.491   7.303 -0.7145  0.4534  0.4505
 6519SOL    HW220414   2.861   5.476   7.421 -0.8701 -1.0617  0.3985
 6520SOL     OW20415   1.710   5.711   6.285 -0.4445 -0.2150  0.1779
 6520SOL    HW120416   1.665   5.631   6.313  0.7862 -0.6422  1.0248
 6520SOL    HW220417   1.690   5.719   6.192 -2.0467 -0.5181  0.4711
 6521SOL     OW20418   6.682   3.943   3.534 -0.3695  0.2815 -0.0068
 6521SOL    HW120419   6.718   3.855   3.523 -2.3553 -1.0353  2.9179
 6521SOL    HW220420   6.730   3.980   3.608 -2.1302  0.0793  1.2929
 6522SOL     OW20421   6.129   1.254   4.381  0.2664  0.9434  0.0944
 6522SOL    HW120422   6.121   1.191   4.453  0.0201  1.1101  0.2142
 6522SOL    HW220423   6.094   1.207   4.305 -1.2207  1.3999  0.4632
 6523SOL     OW20424   5.236   1.720   0.339 -0.0467 -0.4610  0.6986
 6523SOL    HW120425   5.274   1.646   0.292 -0.3544  0.0531 -0.4018
 6523SOL    HW220426   5.261   1.797   0.288 -1.0268  0.0530  0.9558
 6524SOL     OW20427   7.377   0.507   2.944 -0.5770 -0.2523 -0.6363
 6524SOL    HW120428   7.296   0.486   2.991 -0.0542 -0.3789  0.2241
 6524SOL    HW220429   7.367   0.464   2.859 -1.1866 -0.7193 -0.3378
 6525SOL     OW20430   7.198   0.020   3.307 -0.7135  0.1730  0.0362
 6525SOL    HW120431   7.283  -0.010   3.274 -1.3181 -0.5640 -0.9321
 6525SOL    HW220432   7.209   0.113   3.323 -0.1634  0.4239 -1.6230
 6526SOL     OW20433   6.037   3.041   6.891  1.0408 -0.1683 -0.1926
 6526SOL    HW120434   6.108   3.030   6.828 -0.1520 -1.2295 -1.4246
 6526SOL    HW220435   5.957   3.033   6.838 -0.0074  1.1012  1.1232
 6527SOL     OW20436   4.659   1.928   5.206  0.3319  0.0650 -1.0656
 6527SOL    HW120437   4.725   1.963   5.266  0.1287 -1.1492 -0.0929
 6527SOL    HW220438   4.687   1.838   5.189 -0.4789 -0.1141 -1.5144
 6528SOL     OW20439   1.937   6.357   4.210  0.0556 -0.2587 -0.2301
 6528SOL    HW120440   1.849   6.321   4.202  0.4199 -1.4895  1.0226
 6528SOL    HW220441   1.966   6.371   4.119 -1.2616 -0.1866 -0.6593
 6529SOL     OW20442   3.095   0.946   5.612 -0.0059  0.3586 -0.5948
 6529SOL    HW120443   3.166   1.003   5.581  1.1770 -0.3316  0.7139
 6529SOL    HW220444   3.015   0.995   5.593  0.9428  2.2973  0.1405
 6530SOL     OW20445   3.570   3.608   4.450 -0.1984  0.5650  1.5815
 6530SOL    HW120446   3.546   3.540   4.387 -0.2953  2.1674 -0.2300
 6530SOL    HW220447   3.541   3.575   4.535 -0.2162 -1.6217  0.7671
 6531SOL     OW20448   5.617   4.553   6.163 -0.0977  0.2000  0.0550
 6531SOL    HW120449   5.589   4.640   6.137 -3.0054 -0.6118  0.1777
 6531SOL    HW220450   5.565   4.494   6.109  0.7352 -1.4711  1.0040
 6532SOL     OW20451   4.430   2.792   6.007  0.1054  0.0014 -0.1304
 6532SOL    HW120452   4.457   2.877   6.041 -0.2235 -0.9286  2.7301
 6532SOL    HW220453   4.498   2.768   5.945  0.8380  1.8087 -0.0777
 6533SOL     OW20454   7.591   6.623   0.920  0.2790 -0.3545 -0.9531
 6533SOL    HW120455   7.505   6.618   0.880 -1.1588 -1.5413  2.0025
 6533SOL    HW220456   7.617   6.532   0.934  0.8513 -0.0205  0.4065
 6534SOL     OW20457   4.197   5.961   2.095 -0.2969 -0.1928 -0.3598
 6534SOL    HW120458   4.191   5.873   2.057 -1.8027 -0.2714 -0.0007
 6534SOL    HW220459   4.180   6.019   2.021  1.8681 -0.1086 -0.8613
 6535SOL     OW20460   2.509   1.696   0.430 -0.1402  0.1540 -0.4077
 6535SOL    HW120461   2.561   1.655   0.499  0.7471  1.5413 -0.2219
 6535SOL    HW220462   2.571   1.750   0.382 -0.9604  0.0398 -1.6538
 6536SOL     OW20463   6.549   7.488   5.538 -0.4636 -0.6617 -0.1580
 6536SOL    HW120464   6.553   7.569   5.487 -2.0627 -1.7672 -2.2089
 6536SOL    HW220465   6.464   7.492   5.582 -1.2236 -1.7742 -1.4165
 6537SOL     OW20466   5.031   0.533   4.068 -0.1974  0.1863  0.3809
 6537SOL    HW120467   5.050   0.490   4.151  0.2286  0.6295  0.5233
 6537SOL    HW220468   5.009   0.462   4.008  0.9394 -0.2771  0.4919
 6538SOL     OW20469   4.714   4.101   6.755  0.2764 -0.2883 -0.4009
 6538SOL    HW120470   4.679   4.189   6.774 -1.9661 -1.2256  0.1723
 6538SOL    HW220471   4.690   4.049   6.831 -1.6598 -2.2134 -2.1685
 6539SOL     OW20472   0.725   4.314   1.735 -0.2197  0.1266 -0.4365
 6539SOL    HW120473   0.774   4.267   1.669 -0.9280 -0.5799 -0.4712
 6539SOL    HW220474   0.739   4.265   1.816 -0.1159  0.4533 -0.2514
 6540SOL     OW20475   1.920   2.446   4.023  0.5879  0.0675  0.3967
 6540SOL    HW120476   1.883   2.361   4.044 -0.9274  0.9029  1.2837
 6540SOL    HW220477   1.898   2.460   3.931 -0.2727  0.0303  0.5916
 6541SOL     OW20478   0.576   5.761   3.710 -0.0297 -0.5565 -0.8464
 6541SOL    HW120479   0.611   5.672   3.716 -1.8344 -1.2164  0.9329
 6541SOL    HW220480   0.492   5.750   3.665 -0.2547  0.2605 -0.6412
 6542SOL     OW20481   3.851   0.994   5.320  0.0119 -0.2335 -0.1259
 6542SOL    HW120482   3.886   0.927   5.260  0.0812 -1.4957  1.2658
 6542SOL    HW220483   3.781   1.036   5.270  0.3269 -0.9604 -1.2344
 6543SOL     OW20484   5.550   4.298   5.985  0.5315  0.2315 -0.0988
 6543SOL    HW120485   5.534   4.227   6.047 -1.4176  1.3569  0.7633
 6543SOL    HW220486   5.620   4.264   5.929 -0.8710 -2.7310 -0.2891
 6544SOL     OW20487   5.367   0.073   2.129  0.6406  0.4912  0.0513
 6544SOL    HW120488   5.430   0.023   2.180  2.1463  2.4579  0.2656
 6544SOL    HW220489   5.294   0.088   2.189  0.4443 -0.8501  0.1757
 6545SOL     OW20490   7.867   0.482   6.224  0.3112 -0.0452  0.0755
 6545SOL    HW120491   7.803   0.489   6.294  1.2116  0.2667  0.8874
 6545SOL    HW220492   7.952   0.493   6.267  0.9244 -0.5279 -0.9584
 6546SOL     OW20493   0.352   3.676   6.610  0.6001 -0.1197  0.3349
 6546SOL    HW120494   0.373   3.658   6.518  0.4262  0.3002  0.2139
 6546SOL    HW220495   0.407   3.614   6.659 -0.4747 -1.4593 -0.0921
 6547SOL     OW20496   3.383   4.315   6.327 -0.0071 -0.5311 -0.4505
 6547SOL    HW120497   3.457   4.362   6.288  1.5827 -2.2640  0.2905
 6547SOL    HW220498   3.370   4.357   6.412 -0.1363  0.0193 -0.7373
 6548SOL     OW20499   2.407   7.602   5.142  0.6020  0.7791 -0.0801
 6548SOL    HW120500   2.497   7.626   5.119  0.4424 -0.4533 -2.2925
 6548SOL    HW220501   2.356   7.619   5.063 -0.6740 -0.7157  0.3585
 6549SOL     OW20502   6.947   4.451   5.740 -0.0708  0.2085  0.0406
 6549SOL    HW120503   6.943   4.532   5.689  0.0978 -0.0977 -0.4685
 6549SOL    HW220504   7.036   4.418   5.725  0.0727  0.2653  0.7703
 6550SOL     OW20505   5.773   0.185   6.637  0.3275  0.1796  0.1426
 6550SOL    HW120506   5.841   0.150   6.694  0.8848 -1.6648 -1.5143
 6550SOL    HW220507   5.702   0.121   6.642 -1.4176  2.1334  1.9367
 6551SOL     OW20508   7.731   1.829   7.607  0.0633  0.6063  0.6662
 6551SOL    HW120509   7.677   1.750   7.608 -0.7497  1.1362  0.1424
 6551SOL    HW220510   7.730   1.858   7.516 -0.6398  1.8700  1.0500
 6552SOL     OW20511   0.989   1.858   7.191  0.4276  0.7973  0.2646
 6552SOL    HW120512   1.021   1.948   7.199  2.2280  0.1007  1.4979
 6552SOL    HW220513   0.996   1.822   7.280  0.2264 -0.7043 -0.2963
 6553SOL     OW20514   4.160   4.584   0.197 -0.1588 -0.4857 -0.2081
 6553SOL    HW120515   4.082   4.585   0.142 -0.9364  1.1763  0.8481
 6553SOL    HW220516   4.165   4.494   0.229 -1.0808 -0.8568 -1.0533
 6554SOL     OW20517   4.817   2.610   2.004 -0.1613 -0.1910  0.2965
 6554SOL    HW120518   4.858   2.631   2.087  0.4263  0.3130 -0.1140
 6554SOL    HW220519   4.869   2.537   1.969  2.1807  2.1621 -1.4879
 6555SOL     OW20520   3.996   4.554   7.975 -0.1097 -0.0135  0.7312
 6555SOL    HW120521   3.978   4.464   7.947  1.0304 -0.7839  2.2770
 6555SOL    HW220522   3.979   4.607   7.898 -2.1130 -1.3863  0.1556
 6556SOL     OW20523   4.262   7.584   5.950 -0.0237 -0.1829  0.1168
 6556SOL    HW120524   4.236   7.556   5.862 -0.5753 -1.2078  0.5847
 6556SOL    HW220525   4.181   7.614   5.990  0.2259  0.2826  0.2757
 6557SOL     OW20526   2.127   5.502   5.264  0.3935 -0.2072 -0.0357
 6557SOL    HW120527   2.087   5.532   5.183  0.5943 -0.4453 -0.2266
 6557SOL    HW220528   2.218   5.484   5.240  1.1887  2.2177  0.8157
 6558SOL     OW20529   5.725   4.516   0.741 -0.4659  0.2163 -0.2228
 6558SOL    HW120530   5.812   4.556   0.740 -1.0792  1.8403 -3.2803
 6558SOL    HW220531   5.669   4.582   0.781 -0.1402 -1.6882  3.8237
 6559SOL     OW20532   0.372   4.255   3.207  0.1031 -0.1178 -0.1082
 6559SOL    HW120533   0.318   4.284   3.134 -0.4601  0.4995  0.5301
 6559SOL    HW220534   0.343   4.309   3.281  0.1285 -1.2135  0.7414
 6560SOL     OW20535   7.715   7.782   4.643 -0.1848  0.4422 -0.0553
 6560SOL    HW120536   7.754   7.698   4.665  1.8580  1.3312 -0.0340
 6560SOL    HW220537   7.638   7.760   4.591 -0.4100 -1.4499  0.9873
 6561SOL     OW20538   5.654   7.487   3.771 -0.4568 -0.2181  0.3236
 6561SOL    HW120539   5.679   7.494   3.863 -0.0071  0.6393  0.1405
 6561SOL    HW220540   5.647   7.392   3.756 -0.4176 -0.3698  1.2030
 6562SOL     OW20541   6.140   5.445   5.114 -0.0469  0.2960  0.6864
 6562SOL    HW120542   6.186   5.420   5.195 -0.8142  3.0412  2.0804
 6562SOL    HW220543   6.058   5.395   5.117  0.3301 -0.3152  1.1241
 6563SOL     OW20544   5.717   1.096   6.195 -0.0373  0.4468 -0.4408
 6563SOL    HW120545   5.796   1.145   6.171  0.2811  0.1556  0.0117
 6563SOL    HW220546   5.738   1.056   6.279 -0.4788 -0.0596 -0.5675
 6564SOL     OW20547   6.286   7.368   4.586 -0.4451 -0.1074 -0.2815
 6564SOL    HW120548   6.293   7.280   4.549  0.5538 -0.6725  1.1348
 6564SOL    HW220549   6.342   7.422   4.532 -1.8674 -0.0702 -1.8074
 6565SOL     OW20550   3.710   5.716   5.029 -0.3903  0.0351  0.7712
 6565SOL    HW120551   3.666   5.770   4.963 -0.0657 -0.3099  0.2651
 6565SOL    HW220552   3.643   5.654   5.057 -1.3143  1.7545  2.6275
 6566SOL     OW20553   4.193   6.599   6.537 -0.3725  0.7648  0.3179
 6566SOL    HW120554   4.208   6.626   6.446 -1.9568  2.3156  0.4678
 6566SOL    HW220555   4.098   6.600   6.547 -0.3587 -1.5038  1.4218
 6567SOL     OW20556   6.743   7.565   6.370 -0.1423  0.0638 -0.2899
 6567SOL    HW120557   6.771   7.584   6.459 -2.0913 -1.4526  0.6936
 6567SOL    HW220558   6.663   7.514   6.379 -1.5586  1.5796 -2.9296
 6568SOL     OW20559   1.013   2.872   7.909 -0.4617  0.5964  0.1627
 6568SOL    HW120560   0.987   2.799   7.965  0.7858  0.8655  1.1640
 6568SOL    HW220561   1.093   2.905   7.951  0.9835  0.3221 -2.2042
 6569SOL     OW20562   0.428   2.728   5.239 -0.4727  0.0130 -0.4464
 6569SOL    HW120563   0.492   2.772   5.295  0.6547 -2.2201  0.1574
 6569SOL    HW220564   0.381   2.799   5.196  4.0591  1.9839 -2.9260
 6570SOL     OW20565   7.549   7.427   7.710 -0.4970  0.5508 -0.2200
 6570SOL    HW120566   7.461   7.423   7.672 -0.0661  0.8329 -1.2682
 6570SOL    HW220567   7.537   7.396   7.800 -1.4492 -0.6522 -0.7271
 6571SOL     OW20568   0.814   6.136   0.269  0.1202  0.5120  0.6207
 6571SOL    HW120569   0.889   6.194   0.253  0.8869 -0.7624 -0.7133
 6571SOL    HW220570   0.819   6.071   0.198 -0.7869 -1.0818  1.9409
 6572SOL     OW20571   3.924   7.738   2.975 -0.1607 -0.0319 -0.1073
 6572SOL    HW120572   3.933   7.700   3.062 -0.3357 -0.6539 -0.3545
 6572SOL    HW220573   3.838   7.779   2.975  0.1560  0.6606  0.2645
 6573SOL     OW20574   3.100   2.809   0.108  0.0369  0.0880 -0.0428
 6573SOL    HW120575   3.083   2.722   0.144 -0.1266  0.0800 -0.1373
 6573SOL    HW220576   3.115   2.865   0.185  1.5716 -0.3070 -0.0241
 6574SOL     OW20577   0.105   3.180   1.611 -0.6172 -0.3701 -0.1734
 6574SOL    HW120578   0.033   3.182   1.548 -0.4723 -1.7811 -0.4362
 6574SOL    HW220579   0.071   3.129   1.685  0.2723 -1.5686 -0.5517
 6575SOL     OW20580   7.450   3.970   6.251  0.2609 -0.6885 -0.0585
 6575SOL    HW120581   7.522   3.988   6.312  0.2280 -0.0352 -0.2103
 6575SOL    HW220582   7.397   3.903   6.295  0.7255 -0.8613  0.2398
 6576SOL     OW20583   3.709   7.615   2.406 -0.5539  0.1575  0.4232
 6576SOL    HW120584   3.628   7.618   2.354 -0.4250 -0.7148  0.1386
 6576SOL    HW220585   3.764   7.552   2.360  0.7012  1.4755  0.0569
 6577SOL     OW20586   0.688   7.417   2.750 -0.0780 -0.2805 -0.0307
 6577SOL    HW120587   0.628   7.399   2.823 -1.6145 -0.5782 -1.3148
 6577SOL    HW220588   0.635   7.467   2.687  0.3090 -2.3558 -2.1468
 6578SOL     OW20589   2.738   1.275   0.680  0.3779  0.1437  0.5590
 6578SOL    HW120590   2.831   1.293   0.673  0.6870 -0.5765  2.2362
 6578SOL    HW220591   2.732   1.204   0.744 -1.2981 -0.1066  0.1834
 6579SOL     OW20592   3.522   4.424   7.995 -0.5190  0.1275  0.5656
 6579SOL    HW120593   3.604   4.418   8.044  1.6460 -0.1238 -2.7666
 6579SOL    HW220594   3.493   4.514   8.006  0.0418  0.1596  1.9589
 6580SOL     OW20595   6.017   3.243   2.703 -0.1783  0.1236 -0.0810
 6580SOL    HW120596   6.029   3.335   2.679  0.3152 -0.2443 -1.3087
 6580SOL    HW220597   6.106   3.208   2.712 -0.3604 -0.2470  0.3425
 6581SOL     OW20598   4.957   4.619   5.936 -0.3615 -0.8189 -0.1839
 6581SOL    HW120599   5.009   4.699   5.926 -0.0704 -1.1158 -1.1969
 6581SOL    HW220600   4.911   4.609   5.852 -0.1818 -1.8425 -0.1823
 6582SOL     OW20601   5.780   4.612   7.660 -0.4154 -0.0488  0.0820
 6582SOL    HW120602   5.687   4.603   7.638  0.0290  1.0907 -2.6147
 6582SOL    HW220603   5.811   4.686   7.608  2.0381 -0.4225  0.8553
 6583SOL     OW20604   7.055   1.970   1.910 -0.7530 -0.1143  0.0210
 6583SOL    HW120605   6.977   1.996   1.861 -0.2640  1.6166  0.0913
 6583SOL    HW220606   7.091   1.896   1.862 -1.8806 -0.2938 -0.5713
 6584SOL     OW20607   7.498   7.016   4.928  0.1002  0.2358  0.1411
 6584SOL    HW120608   7.580   7.020   4.976 -1.5641 -1.5939  3.5518
 6584SOL    HW220609   7.472   6.924   4.932 -1.9322  0.6728 -1.1610
 6585SOL     OW20610   1.233   5.867   4.164  0.0961 -0.0254  0.0475
 6585SOL    HW120611   1.301   5.826   4.110 -0.2550 -1.6283  0.7400
 6585SOL    HW220612   1.210   5.947   4.118  2.0952  0.3049 -0.4709
 6586SOL     OW20613   1.622   6.756   3.940  0.2171 -0.4056 -0.4648
 6586SOL    HW120614   1.605   6.713   3.856 -0.6040  0.1491 -0.5954
 6586SOL    HW220615   1.717   6.750   3.950  0.3811 -0.1439 -1.6282
 6587SOL     OW20616   7.132   2.485   4.461 -0.0404  0.2121  0.1001
 6587SOL    HW120617   7.062   2.520   4.406  0.7773  1.7603 -0.0035
 6587SOL    HW220618   7.208   2.481   4.404  0.2712 -0.2900  0.5397
 6588SOL     OW20619   6.666   1.341   0.846 -0.2074 -0.8170  0.4025
 6588SOL    HW120620   6.729   1.385   0.902  0.9825 -0.6887 -0.9908
 6588SOL    HW220621   6.581   1.366   0.882  0.4983  0.1252  1.4794
 6589SOL     OW20622   5.450   6.379   3.046  0.5374 -0.5865  0.2781
 6589SOL    HW120623   5.488   6.336   3.122  0.9430 -0.8204 -0.0534
 6589SOL    HW220624   5.355   6.373   3.060  0.6075 -0.6776  0.7328
 6590SOL     OW20625   5.679   2.783   3.530  0.1955 -0.0334  0.3665
 6590SOL    HW120626   5.627   2.703   3.539 -0.7284  0.7472  2.4867
 6590SOL    HW220627   5.701   2.808   3.619  0.8856  1.8325 -0.2757
 6591SOL     OW20628   4.895   0.559   1.718 -0.3517  0.0160  0.4233
 6591SOL    HW120629   4.962   0.623   1.745  1.1272 -1.3079  0.0169
 6591SOL    HW220630   4.822   0.613   1.687  0.4173  1.5103  1.0933
 6592SOL     OW20631   6.156   1.621   3.449 -0.5825 -0.3220 -0.7636
 6592SOL    HW120632   6.116   1.568   3.517 -0.4465 -0.1342 -0.5362
 6592SOL    HW220633   6.249   1.627   3.474 -0.6490  0.2411 -0.6464
 6593SOL     OW20634   4.500   6.696   5.609  0.2653 -0.2131  0.1596
 6593SOL    HW120635   4.465   6.624   5.557  0.8892  0.3682 -1.0828
 6593SOL    HW220636   4.571   6.656   5.661  0.1328 -0.6340  0.0170
 6594SOL     OW20637   2.164   7.182   1.500  0.3711  0.3811 -0.1899
 6594SOL    HW120638   2.104   7.257   1.503 -0.1059  0.0056  1.8869
 6594SOL    HW220639   2.106   7.105   1.497  0.7761  0.0558  0.1636
 6595SOL     OW20640   3.178   7.971   6.335 -0.7038 -0.1480 -0.2006
 6595SOL    HW120641   3.251   8.015   6.290  0.0063 -0.5257  0.5624
 6595SOL    HW220642   3.136   8.040   6.385 -0.1536 -0.1476  0.2701
 6596SOL     OW20643   1.158   1.261   3.328 -0.1522  0.1809  0.2593
 6596SOL    HW120644   1.101   1.239   3.255  0.7234 -4.5035  0.6408
 6596SOL    HW220645   1.099   1.281   3.400 -1.3361 -1.7325 -0.1025
 6597SOL     OW20646   1.523   3.930   1.114  0.3323  0.3359 -0.4609
 6597SOL    HW120647   1.528   4.005   1.174 -2.5652  0.7190 -0.5541
 6597SOL    HW220648   1.555   3.964   1.031 -2.0137  1.9449 -0.8119
 6598SOL     OW20649   2.032   0.161   4.290 -0.0070  0.2600 -0.1539
 6598SOL    HW120650   2.106   0.178   4.232 -0.0738  0.5278 -0.1613
 6598SOL    HW220651   1.956   0.160   4.232 -0.0847  0.6152 -0.0630
 6599SOL     OW20652   2.989   7.573   1.825 -0.3522 -0.0755  0.5845
 6599SOL    HW120653   3.001   7.479   1.840 -0.6641 -0.2263 -0.1131
 6599SOL    HW220654   3.076   7.604   1.798 -0.6194 -0.4772 -0.7977
 6600SOL     OW20655   7.992   1.460   4.398  0.0326 -0.4820  0.7981
 6600SOL    HW120656   8.021   1.478   4.488 -0.2588 -0.0072  0.8028
 6600SOL    HW220657   8.037   1.526   4.345 -0.8924  0.1585  0.7862
 6601SOL     OW20658   3.250   6.446   7.391  0.1670 -0.2860 -0.5241
 6601SOL    HW120659   3.310   6.428   7.319  0.1655  1.2010 -0.9403
 6601SOL    HW220660   3.166   6.410   7.362  0.0699  0.6433 -1.4833
 6602SOL     OW20661   1.156   0.235   2.365 -0.3133  0.2779 -0.0656
 6602SOL    HW120662   1.077   0.216   2.314  1.0799 -1.3904 -1.7404
 6602SOL    HW220663   1.218   0.167   2.339  0.2985 -1.2516  4.4824
 6603SOL     OW20664   5.888   5.794   4.692  0.3957  0.1365  0.1352
 6603SOL    HW120665   5.889   5.771   4.599 -0.9427  0.8274 -0.0670
 6603SOL    HW220666   5.831   5.870   4.698  2.0412  1.3688  1.2666
 6604SOL     OW20667   4.917   3.587   3.872  0.3057  0.0264 -0.2452
 6604SOL    HW120668   4.837   3.546   3.837  0.7343 -0.9746 -0.0678
 6604SOL    HW220669   4.887   3.671   3.906 -0.5851 -0.1118 -0.6456
 6605SOL     OW20670   1.767   5.012   0.082  0.3960 -0.1352  0.2421
 6605SOL    HW120671   1.737   5.012  -0.009 -0.9274 -0.6536  0.6490
 6605SOL    HW220672   1.862   5.002   0.077  0.2722 -0.8278 -1.0624
 6606SOL     OW20673   5.642   6.633   1.836 -0.0396  0.3126 -0.3562
 6606SOL    HW120674   5.633   6.541   1.861 -3.0342 -0.2835 -2.9821
 6606SOL    HW220675   5.709   6.632   1.767  2.2095  0.7108  1.6855
 6607SOL     OW20676   1.289   2.423   1.897 -0.3996 -0.2779 -0.1122
 6607SOL    HW120677   1.207   2.377   1.913 -0.2128  0.1728  2.7161
 6607SOL    HW220678   1.262   2.513   1.879 -0.6004  0.2893  2.5550
 6608SOL     OW20679   3.425   1.094   7.328 -0.2695  0.2565 -0.1863
 6608SOL    HW120680   3.496   1.123   7.386  0.0919 -0.0610 -0.4612
 6608SOL    HW220681   3.347   1.093   7.383  0.3698 -1.6936  0.7629
 6609SOL     OW20682   2.600   1.939   2.186  0.3081 -0.0173 -0.1752
 6609SOL    HW120683   2.551   1.861   2.158  1.3581 -0.4110 -1.0008
 6609SOL    HW220684   2.541   2.012   2.168 -0.4290 -0.5712 -0.0378
 6610SOL     OW20685   5.488   5.270   5.940  0.7821  0.4165  0.7507
 6610SOL    HW120686   5.422   5.312   5.995  0.4562  0.4169  0.3647
 6610SOL    HW220687   5.571   5.311   5.965  0.6570  0.3066  1.3455
 6611SOL     OW20688   2.671   7.112   2.815 -0.0018 -0.6496  0.2789
 6611SOL    HW120689   2.726   7.131   2.891  0.2574 -0.7451  0.1181
 6611SOL    HW220690   2.662   7.017   2.815  0.7328 -0.7350 -0.3057
 6612SOL     OW20691   2.947   7.300   4.426 -0.0935 -0.1041  0.3224
 6612SOL    HW120692   2.934   7.205   4.432  1.0454 -0.4070 -1.1372
 6612SOL    HW220693   2.861   7.338   4.443 -1.0125 -1.5104 -0.8990
 6613SOL     OW20694   4.943   4.776   0.436  0.5607 -0.6307 -0.6711
 6613SOL    HW120695   4.882   4.840   0.399 -1.4820 -1.4088  1.1074
 6613SOL    HW220696   5.027   4.821   0.438 -0.7490  2.0058  0.4023
 6614SOL     OW20697   2.876   4.228   2.690 -0.1146  0.2090 -0.1215
 6614SOL    HW120698   2.874   4.307   2.744 -1.2260  0.1236 -0.0227
 6614SOL    HW220699   2.803   4.176   2.721  0.3071 -0.6407 -0.5282
 6615SOL     OW20700   4.607   6.309   4.418 -0.2610  0.2252 -0.5922
 6615SOL    HW120701   4.628   6.319   4.325 -1.1843 -1.5969 -1.0505
 6615SOL    HW220702   4.669   6.243   4.449  1.0714  1.9176  0.5296
 6616SOL     OW20703   0.774   6.594   3.550 -0.5132 -0.6959  0.6247
 6616SOL    HW120704   0.779   6.543   3.631  1.2837  0.1574  1.1033
 6616SOL    HW220705   0.697   6.650   3.561  1.5171  1.8664  3.3291
 6617SOL     OW20706   3.639   6.202   2.049  0.4589  0.0701  0.4141
 6617SOL    HW120707   3.552   6.203   2.089  0.2345  1.5987 -0.0522
 6617SOL    HW220708   3.622   6.213   1.955  1.1730  1.3029  0.4123
 6618SOL     OW20709   4.077   7.314   3.182 -0.5060 -0.7875 -0.1891
 6618SOL    HW120710   4.094   7.233   3.229  2.1943  0.8144  1.8919
 6618SOL    HW220711   4.074   7.288   3.090  0.1092 -3.2633  0.4211
 6619SOL     OW20712   1.950   7.720   4.081 -0.3934  0.2051  0.0996
 6619SOL    HW120713   1.900   7.639   4.073 -0.1946  0.0783  0.1305
 6619SOL    HW220714   2.002   7.708   4.160 -0.3223  0.3412  0.0736
 6620SOL     OW20715   6.186   4.237   2.523  0.0382 -0.3016  0.1032
 6620SOL    HW120716   6.096   4.270   2.527  0.7202  1.6617  0.3196
 6620SOL    HW220717   6.231   4.282   2.594  0.8865 -2.4262  1.0187
 6621SOL     OW20718   5.155   6.500   5.368 -0.0458  0.1777  0.2377
 6621SOL    HW120719   5.111   6.541   5.293 -0.7049  1.0952  1.1120
 6621SOL    HW220720   5.084   6.458   5.417  0.5548 -1.6999 -0.4041
 6622SOL     OW20721   4.503   2.821   4.701  0.2637  0.0757  0.0855
 6622SOL    HW120722   4.597   2.829   4.720  0.2636  0.1430  0.0595
 6622SOL    HW220723   4.469   2.910   4.711  0.4699  0.3456 -1.2779
 6623SOL     OW20724   1.992   7.606   2.377  0.4320 -0.1342 -0.1286
 6623SOL    HW120725   2.082   7.571   2.378  0.2093 -0.8462 -1.6734
 6623SOL    HW220726   2.000   7.691   2.335  0.4879  0.1688  0.4862
 6624SOL     OW20727   6.020   6.593   7.592 -0.2576  0.6687 -0.2454
 6624SOL    HW120728   5.955   6.612   7.660 -0.3116  0.6781 -0.2997
 6624SOL    HW220729   6.051   6.505   7.613 -0.7122  0.4295 -0.5604
 6625SOL     OW20730   6.420   2.622   5.642 -0.0518  0.1648 -0.6355
 6625SOL    HW120731   6.496   2.643   5.588  0.0536 -0.2297 -0.6433
 6625SOL    HW220732   6.439   2.663   5.727 -0.6379  1.5882 -1.1570
 6626SOL     OW20733   2.064   4.155   6.277 -0.1507  0.2122 -0.2462
 6626SOL    HW120734   2.100   4.140   6.190  0.3144  0.5918 -0.1225
 6626SOL    HW220735   1.969   4.155   6.264 -0.0911 -0.2037 -0.6717
 6627SOL     OW20736   1.143   7.965   4.705  0.2102 -0.2592  0.5545
 6627SOL    HW120737   1.215   8.012   4.663  0.4773 -2.0540 -1.1830
 6627SOL    HW220738   1.186   7.896   4.757 -0.2212 -0.7499  0.2738
 6628SOL     OW20739   3.918   2.699   0.133  0.0801 -0.0634  0.1732
 6628SOL    HW120740   3.865   2.674   0.208 -0.5239  1.5405  0.3260
 6628SOL    HW220741   3.993   2.639   0.135 -0.9503 -1.3891  0.8268
 6629SOL     OW20742   7.433   2.891   3.467 -0.7507  0.0823  0.1158
 6629SOL    HW120743   7.420   2.945   3.545  0.6760  0.7727 -0.0994
 6629SOL    HW220744   7.480   2.948   3.406  1.3993 -1.5866  0.1277
 6630SOL     OW20745   6.428   2.545   0.865  0.0260 -0.3881 -0.0071
 6630SOL    HW120746   6.516   2.538   0.830 -0.2251 -1.0069 -0.5215
 6630SOL    HW220747   6.422   2.635   0.898  1.0620 -0.5403  0.6348
 6631SOL     OW20748   1.407   6.458   6.685  0.5922 -0.0853 -0.0586
 6631SOL    HW120749   1.359   6.541   6.684 -0.7756 -0.8158  1.0763
 6631SOL    HW220750   1.350   6.397   6.638 -0.0650 -1.1775  2.0387
 6632SOL     OW20751   4.181   7.310   2.542 -0.1606  0.0459 -0.7360
 6632SOL    HW120752   4.174   7.406   2.535  1.7206  0.3033  0.3259
 6632SOL    HW220753   4.192   7.294   2.636  1.6966 -0.9912 -1.0791
 6633SOL     OW20754   4.346   1.006   2.034  0.8093 -0.0854 -0.0175
 6633SOL    HW120755   4.419   1.005   1.971  1.1156  2.1998  0.1999
 6633SOL    HW220756   4.361   0.931   2.090  2.2625 -0.4167 -0.8091
 6634SOL     OW20757   5.084   4.151   6.170  0.4929  0.4986  0.3902
 6634SOL    HW120758   5.122   4.169   6.256 -1.3896  0.7084  1.2255
 6634SOL    HW220759   5.086   4.236   6.124  0.7248  0.5785  0.5500
 6635SOL     OW20760   1.653   2.677   3.712 -0.6354 -0.6750  0.2524
 6635SOL    HW120761   1.653   2.707   3.621 -1.2849 -0.2237  0.3942
 6635SOL    HW220762   1.588   2.732   3.756  0.1510 -0.4418  1.1487
 6636SOL     OW20763   5.408   4.100   2.988  0.0648  0.1636 -0.2160
 6636SOL    HW120764   5.429   4.007   2.982 -2.3706 -0.5449  0.9248
 6636SOL    HW220765   5.373   4.122   2.901  0.7911  0.0765 -0.5387
 6637SOL     OW20766   5.199   5.743   5.165  0.1598  0.0820  0.2616
 6637SOL    HW120767   5.167   5.832   5.180  0.8645  0.1886  1.1686
 6637SOL    HW220768   5.281   5.738   5.214 -0.4122 -1.4115  1.1299
 6638SOL     OW20769   3.729   5.018   0.988 -0.1592 -0.6932  0.2981
 6638SOL    HW120770   3.802   4.958   0.976  1.6058  1.5877 -1.3489
 6638SOL    HW220771   3.659   4.964   1.025  0.7179 -4.1108 -2.4394
 6639SOL     OW20772   6.842   0.929   6.776  0.2499 -0.1194  0.6363
 6639SOL    HW120773   6.864   0.845   6.735  2.3617  0.5729  0.1977
 6639SOL    HW220774   6.749   0.942   6.755  0.0642 -1.9763  0.0864
 6640SOL     OW20775   0.791   4.480   1.113 -0.3076 -0.4381 -0.4453
 6640SOL    HW120776   0.855   4.548   1.134  0.2847 -0.6576 -1.4919
 6640SOL    HW220777   0.715   4.529   1.081 -1.1037 -0.1154  1.7271
 6641SOL     OW20778   0.903   3.895   1.070  0.6521  0.6670 -0.6320
 6641SOL    HW120779   0.841   3.961   1.042  0.0575 -0.2497 -1.5362
 6641SOL    HW220780   0.980   3.945   1.098  0.7324  1.6970 -2.5531
 6642SOL     OW20781   2.377   2.460   0.587 -0.4243  0.1494 -0.4101
 6642SOL    HW120782   2.399   2.367   0.584 -0.2005  0.2094 -0.6614
 6642SOL    HW220783   2.371   2.481   0.680  1.2376  0.2883 -0.3135
 6643SOL     OW20784   1.363   6.178   0.382 -0.1041  0.0171  0.1465
 6643SOL    HW120785   1.412   6.201   0.461  0.1076  0.2352 -0.0473
 6643SOL    HW220786   1.399   6.093   0.356  2.0710  1.3459 -1.4952
 6644SOL     OW20787   1.434   0.400   4.488 -0.2263 -0.3889 -0.0537
 6644SOL    HW120788   1.361   0.434   4.436 -0.1058 -1.2522 -0.8189
 6644SOL    HW220789   1.503   0.384   4.424  0.3264 -0.4191  0.5406
 6645SOL     OW20790   0.495   7.212   7.651 -0.2158  0.2100  0.2535
 6645SOL    HW120791   0.432   7.281   7.672  1.2851  1.4311  0.9586
 6645SOL    HW220792   0.580   7.253   7.667  0.7176 -1.8498  0.7937
 6646SOL     OW20793   6.168   4.803   3.373  0.1864 -0.0088  0.4620
 6646SOL    HW120794   6.203   4.751   3.446  1.1776  1.3215  0.9683
 6646SOL    HW220795   6.226   4.784   3.300 -0.5625 -1.0229  0.1081
 6647SOL     OW20796   0.338   2.576   1.985 -0.4358 -0.2359  0.2804
 6647SOL    HW120797   0.278   2.617   1.923 -0.8454 -1.9743 -0.5485
 6647SOL    HW220798   0.281   2.523   2.041 -0.1524  1.7827  2.6266
 6648SOL     OW20799   6.590   7.739   3.553 -0.4860  0.1312 -0.2662
 6648SOL    HW120800   6.534   7.773   3.483 -0.5844  0.7607  0.1076
 6648SOL    HW220801   6.531   7.686   3.607 -0.4134 -0.3400 -0.6370
 6649SOL     OW20802   0.400   4.727   5.502  0.1926  0.0226  0.4476
 6649SOL    HW120803   0.453   4.686   5.434 -0.2313 -0.1992  0.2471
 6649SOL    HW220804   0.396   4.819   5.477  0.2102 -0.0215  0.2830
 6650SOL     OW20805   7.450   7.973   1.280  0.2647  0.1356 -0.1049
 6650SOL    HW120806   7.415   7.887   1.258  0.8411  0.0964 -0.9155
 6650SOL    HW220807   7.494   7.959   1.364  1.1315 -0.6010 -0.6511
 6651SOL     OW20808   5.234   0.289   4.426 -0.2654 -0.3505 -0.0495
 6651SOL    HW120809   5.197   0.225   4.365  0.5303  0.7223 -1.7397
 6651SOL    HW220810   5.310   0.245   4.464 -0.6626 -0.9737  0.0332
 6652SOL     OW20811   1.873   0.354   7.043  0.2763 -0.1806  0.0559
 6652SOL    HW120812   1.790   0.400   7.048  0.8290  0.7535  1.3034
 6652SOL    HW220813   1.936   0.414   7.084  2.2066  0.5168 -3.5070
 6653SOL     OW20814   1.785   1.693   6.603 -0.7016 -0.1277 -0.1674
 6653SOL    HW120815   1.724   1.660   6.538 -0.3431 -2.1211  0.4335
 6653SOL    HW220816   1.775   1.633   6.678  0.1942  0.9977  0.8976
 6654SOL     OW20817   0.326   0.325   4.210 -0.0050  0.4543  0.1657
 6654SOL    HW120818   0.379   0.260   4.165  0.4964  0.8085  0.2366
 6654SOL    HW220819   0.284   0.375   4.140  0.9530  1.1535  0.0672
 6655SOL     OW20820   5.726   0.027   2.045  0.4006 -0.3777 -0.2184
 6655SOL    HW120821   5.653  -0.023   2.083 -0.3214  0.2315 -0.7670
 6655SOL    HW220822   5.739  -0.011   1.959 -0.7025  0.8504 -0.9776
 6656SOL     OW20823   6.348   0.931   1.519 -0.4743 -0.1284  0.5609
 6656SOL    HW120824   6.293   1.008   1.504 -0.7339  0.0753  2.3593
 6656SOL    HW220825   6.345   0.882   1.436  0.4360  2.2107 -0.9419
 6657SOL     OW20826   6.208   1.743   2.485 -0.0110 -0.5620 -0.3892
 6657SOL    HW120827   6.155   1.790   2.421 -0.7558 -2.1280 -0.9711
 6657SOL    HW220828   6.290   1.723   2.439  0.3961  0.3224 -0.0691
 6658SOL     OW20829   0.508   7.123   7.218 -0.2154 -0.1266  0.1327
 6658SOL    HW120830   0.441   7.189   7.200  0.1367 -0.2280 -1.8578
 6658SOL    HW220831   0.494   7.055   7.152  0.3203 -1.3647  1.2471
 6659SOL     OW20832   3.893   4.462   2.720  0.4123 -0.1152 -0.4445
 6659SOL    HW120833   3.804   4.429   2.706  0.2875 -0.7583  1.4930
 6659SOL    HW220834   3.905   4.457   2.815  1.7584  1.9608 -0.4428
 6660SOL     OW20835   3.432   1.402   1.986  0.8422  0.2103 -0.1335
 6660SOL    HW120836   3.435   1.307   1.985 -0.4886  0.0250  3.0239
 6660SOL    HW220837   3.342   1.424   1.962  0.9187  0.6355 -0.0431
 6661SOL     OW20838   0.983   2.438   1.012 -0.2631 -0.2865 -0.2641
 6661SOL    HW120839   0.906   2.441   1.069 -0.6011  0.0675 -0.7342
 6661SOL    HW220840   0.968   2.362   0.956 -0.8387  0.4424 -1.1322
 6662SOL     OW20841   7.735   1.688   3.134  0.1687 -0.9446 -0.4009
 6662SOL    HW120842   7.795   1.689   3.208  0.1836  1.1147 -0.3969
 6662SOL    HW220843   7.649   1.672   3.173  0.5193 -2.6976 -0.2793
 6663SOL     OW20844   3.928   6.589   7.754  0.1781 -0.2254 -0.0974
 6663SOL    HW120845   3.910   6.601   7.661 -0.4607 -0.9074 -0.0723
 6663SOL    HW220846   3.866   6.522   7.782 -0.2884  0.6459  1.0410
 6664SOL     OW20847   7.806   4.948   2.233  0.3112 -0.0133 -0.2325
 6664SOL    HW120848   7.756   5.014   2.185 -1.2031 -0.0408  1.2401
 6664SOL    HW220849   7.811   4.874   2.173  0.3714  0.7339 -1.1758
 6665SOL     OW20850   1.936   2.323   1.685  0.4765  0.1633 -0.1803
 6665SOL    HW120851   1.910   2.329   1.777  2.4622  1.4974  0.3731
 6665SOL    HW220852   1.866   2.365   1.636 -0.6213 -0.5960  0.6904
 6666SOL     OW20853   6.862   3.984   7.013 -0.1889 -0.4475 -0.0567
 6666SOL    HW120854   6.808   3.953   6.941  0.2377  0.4587 -0.7900
 6666SOL    HW220855   6.818   4.064   7.043 -1.2665 -1.6631  1.7887
 6667SOL     OW20856   0.798   3.367   4.163  0.1936  0.5280  0.4198
 6667SOL    HW120857   0.883   3.404   4.188 -0.1268  0.7440  1.2516
 6667SOL    HW220858   0.760   3.338   4.246 -0.4182  0.1547  0.0180
 6668SOL     OW20859   1.749   0.330   1.689 -0.0470 -0.3407  0.6327
 6668SOL    HW120860   1.655   0.344   1.705  0.4165  1.7498  1.8274
 6668SOL    HW220861   1.773   0.400   1.628 -0.0078 -3.2690 -3.1177
 6669SOL     OW20862   1.453   3.091   4.143 -0.5464  0.6405  0.6054
 6669SOL    HW120863   1.538   3.109   4.102 -0.6938 -1.5547 -0.8050
 6669SOL    HW220864   1.394   3.156   4.104  0.4175  2.2338  1.6534
 6670SOL     OW20865   5.523   1.362   2.071 -0.1855  0.2404  0.2566
 6670SOL    HW120866   5.614   1.371   2.042  0.4426  2.5643  2.6236
 6670SOL    HW220867   5.530   1.318   2.157 -1.1347  1.6514  1.0850
 6671SOL     OW20868   1.939   0.748   3.447 -0.1112 -0.1390 -0.5663
 6671SOL    HW120869   1.879   0.785   3.512 -0.3543 -0.4781 -0.5920
 6671SOL    HW220870   1.923   0.798   3.367 -1.9112 -1.5928 -1.1918
 6672SOL     OW20871   7.551   0.026   1.027 -0.4241  0.3177  0.3149
 6672SOL    HW120872   7.621  -0.038   1.013 -1.3796 -0.2374 -2.7068
 6672SOL    HW220873   7.532   0.022   1.121  1.3797 -1.8455  0.6562
 6673SOL     OW20874   3.103   1.232   3.775 -0.0252  0.1681 -0.2647
 6673SOL    HW120875   3.088   1.138   3.779 -1.9678  0.4613  0.9617
 6673SOL    HW220876   3.143   1.253   3.860 -1.7126  0.6994  0.4502
 6674SOL     OW20877   7.334   7.900   1.723 -0.0837 -0.5953  0.0658
 6674SOL    HW120878   7.263   7.962   1.738  1.0790  0.5906  0.8782
 6674SOL    HW220879   7.389   7.907   1.801  0.5742 -1.9844 -0.2394
 6675SOL     OW20880   0.029   6.732   0.468 -0.7818 -0.1261 -0.6553
 6675SOL    HW120881   0.014   6.799   0.402  0.3298  0.7921 -0.0139
 6675SOL    HW220882   0.117   6.751   0.502 -1.5080 -0.2116  1.4367
 6676SOL     OW20883   3.903   3.990   1.294 -0.2215 -0.9323  0.0431
 6676SOL    HW120884   3.808   3.986   1.291 -0.3818  1.7803 -0.7490
 6676SOL    HW220885   3.924   3.993   1.388 -1.1286  0.9385  0.2289
 6677SOL     OW20886   4.468   4.601   4.539  0.3528  0.3123  0.1327
 6677SOL    HW120887   4.396   4.574   4.597  1.4117 -0.3618  1.1705
 6677SOL    HW220888   4.433   4.676   4.491 -0.8219  0.4095  1.0915
 6678SOL     OW20889   1.366   3.588   5.239 -0.4412 -0.0500  0.8663
 6678SOL    HW120890   1.301   3.647   5.202  0.4264  0.8258  0.6775
 6678SOL    HW220891   1.429   3.574   5.168 -0.0096 -0.2452  1.2764
 6679SOL     OW20892   4.484   6.953   2.593  0.1018 -0.1963 -0.0194
 6679SOL    HW120893   4.405   6.900   2.598 -0.0176  0.0336  0.8125
 6679SOL    HW220894   4.477   7.000   2.510 -0.4133 -0.5244 -0.1647
 6680SOL     OW20895   7.201   0.253   6.173  0.0423  0.0490 -0.3716
 6680SOL    HW120896   7.286   0.255   6.129 -0.4968 -0.3525 -1.4683
 6680SOL    HW220897   7.151   0.187   6.125 -1.2490  1.0204 -0.4088
 6681SOL     OW20898   7.496   1.981   4.914 -0.5816 -0.9225  0.1761
 6681SOL    HW120899   7.513   2.021   4.829 -3.0096  0.1725  0.1282
 6681SOL    HW220900   7.558   2.024   4.973 -1.0848  0.7653 -0.4664
 6682SOL     OW20901   4.081   2.263   1.025  0.4480  0.1434 -0.3930
 6682SOL    HW120902   4.118   2.191   1.077 -0.7989 -1.4358 -1.5883
 6682SOL    HW220903   4.000   2.286   1.070  0.8514  0.8511 -0.0049
 6683SOL     OW20904   5.193   7.026   6.477  0.0759  0.6964 -0.1529
 6683SOL    HW120905   5.235   7.032   6.392  0.3297  0.4914 -0.0397
 6683SOL    HW220906   5.113   6.976   6.461 -0.4338  1.5829 -0.4826
 6684SOL     OW20907   2.828   3.307   5.749 -0.1527 -0.0169 -0.5856
 6684SOL    HW120908   2.917   3.280   5.771 -0.3017 -0.7772 -0.8587
 6684SOL    HW220909   2.786   3.226   5.718 -1.1764  0.1561  0.3149
 6685SOL     OW20910   2.023   5.237   7.792 -0.1740  0.0380  0.0812
 6685SOL    HW120911   2.042   5.143   7.795  1.6760  0.3813  0.5011
 6685SOL    HW220912   1.928   5.242   7.800 -0.4917 -1.8532 -1.5748
 6686SOL     OW20913   6.257   6.106   3.812 -0.2317 -0.6025 -0.3182
 6686SOL    HW120914   6.345   6.078   3.833 -0.8981 -1.1043  2.1878
 6686SOL    HW220915   6.204   6.077   3.887 -2.1800  1.2873 -0.8518
 6687SOL     OW20916   6.052   7.457   5.518  0.2751 -0.5794 -0.2444
 6687SOL    HW120917   5.989   7.388   5.495 -1.6864  0.9145  0.3650
 6687SOL    HW220918   6.040   7.524   5.450  1.7383 -0.5478 -0.5020
 6688SOL     OW20919   3.375   6.229   2.164 -0.6907 -0.0761  0.0384
 6688SOL    HW120920   3.295   6.231   2.113 -1.6023  0.8976  1.4114
 6688SOL    HW220921   3.367   6.152   2.220 -0.3219 -0.3892 -0.3366
 6689SOL     OW20922   5.167   0.550   2.064  0.1994  0.1265 -0.0929
 6689SOL    HW120923   5.249   0.530   2.108  1.1556  0.4740 -1.6624
 6689SOL    HW220924   5.131   0.464   2.039 -0.3763 -0.0764  1.3412
 6690SOL     OW20925   5.725   6.973   4.075 -0.9704  0.3010 -0.9930
 6690SOL    HW120926   5.653   7.037   4.072 -1.3483 -0.1293 -1.3143
 6690SOL    HW220927   5.756   6.976   4.165 -1.7175  0.1334 -0.7248
 6691SOL     OW20928   0.634   3.609   6.211  0.5145  0.1313 -0.4126
 6691SOL    HW120929   0.698   3.584   6.144 -1.8379 -0.2984 -2.6613
 6691SOL    HW220930   0.612   3.700   6.191  1.4822  0.7911  1.3139
 6692SOL     OW20931   2.842   4.156   6.136 -0.2692  0.3314 -0.3067
 6692SOL    HW120932   2.928   4.131   6.102 -0.2714  2.1934 -1.8327
 6692SOL    HW220933   2.862   4.208   6.215  0.2215  2.7400 -1.9090
 6693SOL     OW20934   6.884   0.912   1.368  0.2715  0.5666  0.0070
 6693SOL    HW120935   6.855   0.858   1.295 -2.4843  0.2099  1.2206
 6693SOL    HW220936   6.830   0.991   1.363  0.7525  0.9923  1.0521
 6694SOL     OW20937   1.383   6.848   2.888 -0.0057 -0.0394  0.8838
 6694SOL    HW120938   1.339   6.835   2.972  0.1076 -0.7489  0.8378
 6694SOL    HW220939   1.313   6.865   2.826 -0.0342  1.5866  1.2975
 6695SOL     OW20940   6.943   1.038   0.926 -0.0866  0.0541  0.4812
 6695SOL    HW120941   6.852   1.044   0.899  0.1385  0.1044 -0.2754
 6695SOL    HW220942   6.969   1.128   0.943  0.3466  0.2395 -1.0759
 6696SOL     OW20943   6.902   6.317   6.988 -0.7850  0.1362  0.1614
 6696SOL    HW120944   6.815   6.319   6.948 -0.7465 -0.3563  0.0385
 6696SOL    HW220945   6.912   6.403   7.029  0.1783  1.6918 -3.0202
 6697SOL     OW20946   3.979   2.932   3.664 -0.6180 -0.3306 -0.1858
 6697SOL    HW120947   4.058   2.894   3.703 -1.2039  1.0211  2.5453
 6697SOL    HW220948   3.986   3.025   3.682 -2.4937 -0.0750 -0.5646
 6698SOL     OW20949   5.007   1.267   7.935 -0.0783 -0.3034 -0.3201
 6698SOL    HW120950   5.096   1.275   7.901  0.5290  2.0186  1.6027
 6698SOL    HW220951   5.016   1.277   8.030 -2.4715  0.9395 -0.1501
 6699SOL     OW20952   0.045   6.856   5.553 -0.1570  0.1020 -0.3597
 6699SOL    HW120953   0.004   6.769   5.550 -0.6568  0.3534 -1.1132
 6699SOL    HW220954   0.036   6.890   5.464  2.3354 -0.1016 -0.7602
 6700SOL     OW20955   5.338   0.664   0.731 -0.4099  0.8316  0.2622
 6700SOL    HW120956   5.292   0.591   0.772 -0.3068  0.2196 -0.6614
 6700SOL    HW220957   5.295   0.742   0.764 -1.1259  0.3195  0.5622
 6701SOL     OW20958   7.573   3.533   2.236 -0.2234 -0.0726  0.1336
 6701SOL    HW120959   7.571   3.625   2.264 -0.3371 -0.0823  0.1583
 6701SOL    HW220960   7.481   3.511   2.221 -0.2736 -0.4122  0.8776
 6702SOL     OW20961   7.515   2.405   4.075 -0.1055  0.3950 -0.1988
 6702SOL    HW120962   7.473   2.325   4.045  1.3401 -0.2827 -0.5095
 6702SOL    HW220963   7.541   2.451   3.995 -0.1099  0.7216 -0.0155
 6703SOL     OW20964   4.791   5.487   6.224  0.2388  0.1080 -0.5357
 6703SOL    HW120965   4.735   5.413   6.199  3.0540 -1.9161 -1.3918
 6703SOL    HW220966   4.803   5.536   6.143  0.1746  0.1709 -0.5061
 6704SOL     OW20967   0.371   3.229   7.345  0.7271 -0.0802  0.9672
 6704SOL    HW120968   0.323   3.245   7.264 -0.3996 -0.7978  1.4686
 6704SOL    HW220969   0.384   3.134   7.347  1.5640  0.0276  1.1880
 6705SOL     OW20970   2.975   6.715   7.173 -0.4132  0.2656  0.1472
 6705SOL    HW120971   2.992   6.646   7.237 -1.0682  1.1144  1.2756
 6705SOL    HW220972   3.059   6.760   7.164  0.1404 -0.9227 -0.9432
 6706SOL     OW20973   7.800   0.563   0.910  0.1376  0.0646  0.2136
 6706SOL    HW120974   7.855   0.485   0.900  1.6686  1.0425  0.6548
 6706SOL    HW220975   7.720   0.530   0.951  1.3797 -1.0576  1.8838
 6707SOL     OW20976   6.058   5.628   5.350  0.7129  0.0383 -0.2981
 6707SOL    HW120977   5.988   5.619   5.414  1.3977  1.9193  0.7825
 6707SOL    HW220978   6.137   5.602   5.397  1.0698  0.2309 -0.7859
 6708SOL     OW20979   4.478   3.920   0.517 -0.1469 -0.2203 -0.4786
 6708SOL    HW120980   4.562   3.959   0.541  0.5234 -1.9822  0.2817
 6708SOL    HW220981   4.440   3.894   0.601 -1.8889  1.3167 -0.7452
 6709SOL     OW20982   5.096   7.644   6.409  0.6299  0.8113  0.6848
 6709SOL    HW120983   5.129   7.559   6.378 -2.6299 -0.1639 -0.5997
 6709SOL    HW220984   5.099   7.638   6.504 -0.4754 -1.2468  0.6466
 6710SOL     OW20985   5.289   0.620   5.901  0.3506  0.4010  0.1548
 6710SOL    HW120986   5.218   0.620   5.965  1.4699  1.1533  1.4496
 6710SOL    HW220987   5.320   0.710   5.899  2.2426 -0.1946  0.7549
 6711SOL     OW20988   5.310   2.250   2.135 -0.1608  0.5000 -0.1485
 6711SOL    HW120989   5.272   2.294   2.211 -0.4222  1.6715 -0.9285
 6711SOL    HW220990   5.399   2.284   2.129 -0.2749  0.7325 -0.5990
 6712SOL     OW20991   1.824   4.290   0.773  0.3400  0.3852  0.1140
 6712SOL    HW120992   1.890   4.220   0.771 -0.3912 -0.4281  1.8874
 6712SOL    HW220993   1.740   4.244   0.770 -0.1850  0.9986  2.7201
 6713SOL     OW20994   6.153   2.780   5.114 -0.0177 -0.2787  0.3333
 6713SOL    HW120995   6.184   2.709   5.058  1.7231  0.7783 -0.1074
 6713SOL    HW220996   6.066   2.801   5.078 -0.2292 -1.6500 -0.0099
 6714SOL     OW20997   3.381   1.902   2.388 -0.0902 -0.0539  0.2130
 6714SOL    HW120998   3.323   1.835   2.425 -0.4269  0.1666  0.0931
 6714SOL    HW220999   3.452   1.910   2.452 -0.0430 -0.5285  0.2240
 6715SOL     OW21000   6.944   2.104   2.608 -0.1231 -0.3236  0.0844
 6715SOL    HW121001   7.016   2.167   2.613 -0.8134  0.4146  1.1491
 6715SOL    HW221002   6.891   2.121   2.686 -1.7385 -0.4905 -0.9192
 6716SOL     OW21003   3.921   7.853   6.503 -0.1473 -0.1898 -0.6046
 6716SOL    HW121004   3.837   7.899   6.504  0.9964  2.1035  1.7462
 6716SOL    HW221005   3.917   7.795   6.579 -0.4060 -1.8840 -1.8332
 6717SOL     OW21006   7.649   3.694   1.923 -0.5052 -0.7192  0.3085
 6717SOL    HW121007   7.658   3.614   1.974 -0.1696 -0.2122  1.0607
 6717SOL    HW221008   7.557   3.696   1.897 -0.5772 -1.2126  0.5174
 6718SOL     OW21009   1.325   4.992   0.811 -0.1308  0.5044 -0.2119
 6718SOL    HW121010   1.406   5.002   0.762  0.5161 -1.1830  0.4300
 6718SOL    HW221011   1.304   4.899   0.804 -1.7039  0.7934  0.1332
 6719SOL     OW21012   6.933   5.141   3.799 -0.1589  0.5319 -0.0696
 6719SOL    HW121013   6.970   5.229   3.794  1.5492 -0.2123 -2.9058
 6719SOL    HW221014   7.010   5.083   3.805 -0.9917 -0.8672 -1.7851
 6720SOL     OW21015   5.254   2.611   5.452  0.1305  0.0389 -0.0278
 6720SOL    HW121016   5.314   2.539   5.471  0.9666  1.0418  1.3838
 6720SOL    HW221017   5.285   2.647   5.369  2.6466  1.5763  1.4369
 6721SOL     OW21018   5.418   4.678   0.267  0.9371  0.4463 -0.0132
 6721SOL    HW121019   5.482   4.748   0.260  1.0690  0.2106 -1.5710
 6721SOL    HW221020   5.470   4.600   0.287  1.0426  0.4117 -0.4151
 6722SOL     OW21021   4.290   7.878   1.887  0.3281  0.3161  0.0302
 6722SOL    HW121022   4.340   7.947   1.930  0.1334  0.3598  0.1881
 6722SOL    HW221023   4.350   7.842   1.821  0.3282  0.8264 -0.2482
 6723SOL     OW21024   6.981   5.147   0.539  0.2198 -0.0185  0.3554
 6723SOL    HW121025   7.000   5.056   0.559 -1.2207 -0.8201 -1.6087
 6723SOL    HW221026   6.976   5.150   0.444 -1.3044  1.7750  0.4429
 6724SOL     OW21027   3.041   2.786   3.527 -0.9904 -0.1085 -0.6155
 6724SOL    HW121028   2.967   2.762   3.583 -0.1916  1.8649  1.4496
 6724SOL    HW221029   3.000   2.817   3.446 -2.5316  1.3556  0.6325
 6725SOL     OW21030   4.963   6.900   1.192 -0.3591 -0.4557 -0.4777
 6725SOL    HW121031   4.891   6.846   1.161 -0.7697  0.8957 -2.0706
 6725SOL    HW221032   4.925   6.987   1.204  0.0740 -0.5991  2.8875
 6726SOL     OW21033   0.772   4.713   6.300  0.4256  0.0229  0.2980
 6726SOL    HW121034   0.780   4.698   6.205 -1.2535 -0.0134  0.1402
 6726SOL    HW221035   0.723   4.638   6.333 -0.2135  0.7214  0.9686
 6727SOL     OW21036   4.480   4.355   4.402 -0.8515 -0.3805 -0.1695
 6727SOL    HW121037   4.574   4.367   4.387 -1.3387 -0.3565 -4.1781
 6727SOL    HW221038   4.453   4.434   4.448  0.9241  0.0701  0.1752
 6728SOL     OW21039   1.459   4.110   5.694 -0.7046 -0.0575 -0.5118
 6728SOL    HW121040   1.464   4.015   5.684  0.5365 -0.3276  1.9214
 6728SOL    HW221041   1.380   4.124   5.746 -0.6519  0.2199 -0.5053
 6729SOL     OW21042   4.296   3.896   2.017  0.1832  0.1027 -0.0893
 6729SOL    HW121043   4.211   3.921   2.051 -0.5529 -0.0896 -1.6872
 6729SOL    HW221044   4.358   3.923   2.084 -1.0491  1.1507  0.6655
 6730SOL     OW21045   0.332   2.863   0.033 -0.1822  0.5939  0.5161
 6730SOL    HW121046   0.346   2.798   0.101  0.5995 -0.2253 -0.3937
 6730SOL    HW221047   0.305   2.812  -0.044  1.3981  1.2054 -0.5080
 6731SOL     OW21048   0.933   5.295   3.484  0.2088  0.0769  0.3608
 6731SOL    HW121049   0.844   5.320   3.508  0.1099  1.0693 -0.9290
 6731SOL    HW221050   0.923   5.219   3.427  0.2850 -0.6534  1.3026
 6732SOL     OW21051   7.716   7.099   2.197 -0.4962  0.5421 -0.0082
 6732SOL    HW121052   7.688   7.106   2.288  1.5929  0.7812  0.6738
 6732SOL    HW221053   7.772   7.176   2.183 -0.5676  0.3701 -1.4072
 6733SOL     OW21054   3.845   7.765   2.101  0.5511 -0.3897  0.2236
 6733SOL    HW121055   3.855   7.857   2.078 -0.5633 -0.5553 -1.0555
 6733SOL    HW221056   3.803   7.767   2.188  1.0535  0.2877  0.4586
 6734SOL     OW21057   0.887   6.655   3.273  0.1204 -0.2352 -0.1955
 6734SOL    HW121058   0.844   6.645   3.358 -0.3995  2.3607 -0.0720
 6734SOL    HW221059   0.952   6.725   3.287  0.6948 -0.4287 -1.6956
 6735SOL     OW21060   4.016   6.014   4.014  0.7950  0.5209  0.3099
 6735SOL    HW121061   4.082   6.075   3.981  0.1775  1.0630  0.0641
 6735SOL    HW221062   3.937   6.067   4.024  0.4219 -0.1007  0.6995
 6736SOL     OW21063   7.928   3.728   1.381 -0.9754 -0.4357 -0.4274
 6736SOL    HW121064   8.003   3.717   1.438 -0.5699  1.2862 -0.5706
 6736SOL    HW221065   7.854   3.695   1.432 -0.4212 -0.1926  0.5591
 6737SOL     OW21066   4.334   1.128   7.813  0.4850  0.0800 -0.1441
 6737SOL    HW121067   4.424   1.146   7.839  0.2425  0.5714  0.3774
 6737SOL    HW221068   4.322   1.178   7.732  0.3349  0.9414  0.3989
 6738SOL     OW21069   1.273   5.039   5.672 -0.3224  0.4701 -0.7399
 6738SOL    HW121070   1.209   5.091   5.720 -1.2673 -0.7446 -0.6373
 6738SOL    HW221071   1.358   5.074   5.700 -0.9025  1.5393 -0.2298
 6739SOL     OW21072   5.369   0.513   7.023  0.2226  0.0283 -0.1227
 6739SOL    HW121073   5.397   0.561   7.101  4.6822  1.1382 -2.0595
 6739SOL    HW221074   5.420   0.432   7.024 -0.7188 -0.6189 -1.1877
 6740SOL     OW21075   5.237   2.106   5.188  0.4496 -0.2224  0.0647
 6740SOL    HW121076   5.317   2.122   5.138 -0.5300  0.0001 -1.4965
 6740SOL    HW221077   5.239   2.012   5.207 -0.0016 -0.6924 -1.9891
 6741SOL     OW21078   2.856   6.442   7.211  0.6204 -0.4306 -0.2534
 6741SOL    HW121079   2.778   6.390   7.229  1.0867 -1.3295 -0.7805
 6741SOL    HW221080   2.928   6.394   7.252  0.9952  0.0427 -0.3415
 6742SOL     OW21081   2.562   1.049   1.190 -0.5681 -0.0006 -0.4638
 6742SOL    HW121082   2.468   1.060   1.205 -0.7549 -0.4974 -1.2215
 6742SOL    HW221083   2.572   0.957   1.164  0.3580 -0.4426  1.2952
 6743SOL     OW21084   0.713   5.360   3.619  0.2551  0.0512  0.0433
 6743SOL    HW121085   0.660   5.407   3.683  2.5969  1.1351  1.2825
 6743SOL    HW221086   0.729   5.275   3.660  0.2944  0.0806  0.0873
 6744SOL     OW21087   2.849   5.731   3.079 -0.1636  0.5381 -0.0210
 6744SOL    HW121088   2.866   5.637   3.085  1.2529  0.8612  1.9021
 6744SOL    HW221089   2.918   5.765   3.022  0.2414  0.5956  0.4928
 6745SOL     OW21090   7.997   3.467   6.198  0.0784  0.0389  0.5072
 6745SOL    HW121091   7.942   3.517   6.259 -0.0224 -1.3230  1.5875
 6745SOL    HW221092   8.040   3.402   6.253  1.1952 -0.2476 -0.6590
 6746SOL     OW21093   6.651   3.602   1.618 -0.2266 -0.0146  0.5498
 6746SOL    HW121094   6.572   3.558   1.587 -0.9613  0.8285  1.1851
 6746SOL    HW221095   6.723   3.551   1.581 -0.9848  1.2133 -3.0731
 6747SOL     OW21096   5.981   4.485   6.810 -0.0114  0.0809 -0.3651
 6747SOL    HW121097   5.917   4.431   6.855 -0.7075 -0.3968 -1.8439
 6747SOL    HW221098   6.004   4.554   6.872 -0.5303 -0.8354  0.8650
 6748SOL     OW21099   7.762   4.962   6.098  0.7625 -0.3561 -0.6094
 6748SOL    HW121100   7.678   4.979   6.139  1.5314 -0.1299  0.9446
 6748SOL    HW221101   7.799   5.049   6.081  1.9893 -0.3716  1.5964
 6749SOL     OW21102   4.074   5.993   5.961 -0.7631 -0.3721  0.1582
 6749SOL    HW121103   4.066   5.977   5.867 -0.8857 -0.6206  0.2089
 6749SOL    HW221104   4.049   6.085   5.972  2.4825  0.6980 -0.4774
 6750SOL     OW21105   5.863   3.252   5.862  0.5467 -0.4807  0.0828
 6750SOL    HW121106   5.829   3.272   5.774 -1.0647 -1.7208  0.3854
 6750SOL    HW221107   5.795   3.284   5.921  1.3619 -0.1759  0.8670
 6751SOL     OW21108   4.844   6.608   2.381  0.1367  0.0864 -0.3251
 6751SOL    HW121109   4.821   6.521   2.348 -0.0254  0.0729 -0.1784
 6751SOL    HW221110   4.845   6.664   2.303  0.5586 -0.1120 -0.4647
 6752SOL     OW21111   0.142   6.091   2.172  0.3243  0.4971  0.1481
 6752SOL    HW121112   0.237   6.085   2.182  0.2990  1.3455  1.0845
 6752SOL    HW221113   0.128   6.086   2.077  1.1496 -1.2847  0.0942
 6753SOL     OW21114   6.139   5.495   1.258 -0.0170 -0.1761  0.7810
 6753SOL    HW121115   6.162   5.576   1.304 -0.5130  0.4756 -0.0915
 6753SOL    HW221116   6.057   5.516   1.213  0.3507 -0.8711 -0.2236
 6754SOL     OW21117   5.222   3.777   2.457 -0.4394 -0.2384  0.1677
 6754SOL    HW121118   5.133   3.763   2.488 -0.6677 -0.2207 -0.4716
 6754SOL    HW221119   5.249   3.692   2.421 -0.8344  0.1870 -1.2126
 6755SOL     OW21120   2.832   4.119   1.820  0.2241 -0.1393 -0.8097
 6755SOL    HW121121   2.919   4.082   1.805 -0.6498 -1.6970 -2.5940
 6755SOL    HW221122   2.818   4.178   1.746  0.6160  1.9981  0.7163
 6756SOL     OW21123   0.930   2.341   4.333  0.1269 -0.1110 -0.2085
 6756SOL    HW121124   0.888   2.347   4.248  0.6379 -0.7875 -0.5220
 6756SOL    HW221125   0.894   2.413   4.384 -1.1290 -0.4500 -0.5890
 6757SOL     OW21126   6.848   1.666   7.236 -0.1251 -0.2410 -0.1619
 6757SOL    HW121127   6.853   1.681   7.142  1.2654 -0.1052 -0.0956
 6757SOL    HW221128   6.932   1.625   7.258  1.1263  2.8462  1.5147
 6758SOL     OW21129   1.949   6.999   1.238 -0.3113  0.2954 -0.0110
 6758SOL    HW121130   1.986   7.060   1.175 -0.2388 -2.1438 -2.5050
 6758SOL    HW221131   1.857   6.993   1.216 -0.3598 -0.3479  0.3338
 6759SOL     OW21132   4.430   1.291   5.109  0.3501 -0.1914 -0.0586
 6759SOL    HW121133   4.488   1.232   5.062  0.2294  0.4406 -1.0228
 6759SOL    HW221134   4.342   1.260   5.088  0.2953  0.0972 -0.2638
 6760SOL     OW21135   0.928   4.186   4.344  0.0603 -0.4591 -0.1442
 6760SOL    HW121136   0.869   4.216   4.275 -1.6922 -0.2377  1.3755
 6760SOL    HW221137   0.954   4.266   4.389  0.1559 -0.7079  0.2422
 6761SOL     OW21138   3.220   7.128   1.386  0.7451  0.0141  0.3052
 6761SOL    HW121139   3.228   7.100   1.477  0.3074  0.4251  0.4745
 6761SOL    HW221140   3.150   7.075   1.349  0.1702  0.6047  0.5225
 6762SOL     OW21141   5.720   7.039   5.457 -0.2197 -0.3712 -0.2735
 6762SOL    HW121142   5.706   7.076   5.370 -1.5367  0.6949  0.3632
 6762SOL    HW221143   5.668   6.958   5.456 -2.6684  1.1213  0.4561
 6763SOL     OW21144   5.183   3.608   3.994 -0.1777  0.5095 -0.2324
 6763SOL    HW121145   5.128   3.624   3.917 -0.3754  1.4019  0.0771
 6763SOL    HW221146   5.138   3.652   4.065  0.1649 -0.0459  0.3382
 6764SOL     OW21147   1.016   6.386   6.166  0.3691  0.0057  0.4845
 6764SOL    HW121148   1.030   6.292   6.151  2.8473  0.5402 -1.1827
 6764SOL    HW221149   0.988   6.420   6.081  2.3286  1.1761  0.2507
 6765SOL     OW21150   0.803   7.828   5.948 -0.0403  0.0214 -0.2170
 6765SOL    HW121151   0.764   7.858   5.866 -1.3693  0.6845  0.6245
 6765SOL    HW221152   0.776   7.737   5.956 -0.1574  0.0422 -0.3715
 6766SOL     OW21153   2.032   2.921   2.855  0.3413 -0.9379  0.0031
 6766SOL    HW121154   2.069   3.009   2.860  1.6677 -1.3917 -1.2007
 6766SOL    HW221155   2.071   2.883   2.776  0.2378 -2.8062  0.8019
 6767SOL     OW21156   5.991   4.816   1.120  0.6187  0.4209 -0.5182
 6767SOL    HW121157   5.941   4.854   1.047 -2.0630  0.0288  0.9960
 6767SOL    HW221158   5.971   4.722   1.117  0.5321  0.3855  0.6518
 6768SOL     OW21159   2.765   0.686   0.972  0.4804  0.6652  0.3775
 6768SOL    HW121160   2.803   0.599   0.964  1.3247  1.0646 -0.0791
 6768SOL    HW221161   2.747   0.712   0.882  0.8928  1.2438  0.4554
 6769SOL     OW21162   3.932   7.416   2.245  0.2314  0.5091  0.1622
 6769SOL    HW121163   4.003   7.464   2.288  0.4101  0.8756 -0.5308
 6769SOL    HW221164   3.946   7.430   2.151 -2.1056  2.6027  0.0183
 6770SOL     OW21165   7.071   0.392   2.121 -0.5360 -0.2485  0.0114
 6770SOL    HW121166   7.059   0.297   2.129  0.8518 -0.3976  0.6009
 6770SOL    HW221167   6.983   0.428   2.131 -1.0414 -1.4479  0.1192
 6771SOL     OW21168   1.488   6.587   7.803  0.6733 -0.3677 -0.0745
 6771SOL    HW121169   1.397   6.611   7.823  0.8127 -0.0722  0.1973
 6771SOL    HW221170   1.488   6.491   7.804  0.2328 -0.3826 -0.6608
 6772SOL     OW21171   3.993   7.184   4.955 -0.5157  0.1302  0.0996
 6772SOL    HW121172   3.935   7.260   4.965  0.3574  0.7111  0.8546
 6772SOL    HW221173   4.057   7.211   4.890 -0.7028 -0.2870 -0.2662
 6773SOL     OW21174   1.083   3.021   5.086  0.5983  0.0570 -0.0835
 6773SOL    HW121175   1.038   2.945   5.050 -0.0912  0.2164  0.4335
 6773SOL    HW221176   1.091   3.081   5.012  0.4763 -0.2040 -0.3120
 6774SOL     OW21177   1.994   7.976   4.972 -0.0952  0.1423 -0.0953
 6774SOL    HW121178   1.943   7.897   4.954  0.4052 -0.1238 -0.3693
 6774SOL    HW221179   1.967   8.039   4.905  1.6061 -0.7690 -1.7297
 6775SOL     OW21180   6.155   5.056   1.792 -0.4269 -0.0379 -0.0479
 6775SOL    HW121181   6.169   5.150   1.801 -0.7225 -0.0411  0.4398
 6775SOL    HW221182   6.238   5.016   1.819 -0.6583  0.0369  0.7814
 6776SOL     OW21183   3.335   4.994   1.551  0.1073  0.1856  0.4146
 6776SOL    HW121184   3.396   4.958   1.616 -0.1495 -1.1333 -0.0288
 6776SOL    HW221185   3.391   5.037   1.487  0.6664 -1.5398 -0.3157
 6777SOL     OW21186   1.365   7.907   5.191  0.8423 -0.6789 -0.5992
 6777SOL    HW121187   1.401   7.984   5.148  0.4806 -0.1189  0.0825
 6777SOL    HW221188   1.344   7.936   5.280  0.4429 -1.4853 -0.4147
 6778SOL     OW21189   5.933   5.284   5.983  0.5382  0.3200 -0.4714
 6778SOL    HW121190   5.912   5.231   5.907 -1.1665  1.2098 -0.6762
 6778SOL    HW221191   6.029   5.289   5.984  0.6548 -1.2712 -1.4339
 6779SOL     OW21192   0.900   7.920   0.937  0.1206  0.2012  0.0061
 6779SOL    HW121193   0.863   7.941   1.023 -1.9385 -0.5754 -0.6468
 6779SOL    HW221194   0.914   7.825   0.939  1.4085  0.3628 -0.0542
 6780SOL     OW21195   5.311   2.746   5.224  0.1841  0.0683  0.1404
 6780SOL    HW121196   5.305   2.691   5.146 -0.5587  0.9277 -0.4320
 6780SOL    HW221197   5.394   2.794   5.214 -0.9921  1.9397 -1.3689
 6781SOL     OW21198   4.201   3.470   2.135 -0.0588  0.7188 -0.6110
 6781SOL    HW121199   4.213   3.377   2.158 -2.2111  0.7434  0.9524
 6781SOL    HW221200   4.134   3.469   2.067 -1.6213  1.1841  0.8747
 6782SOL     OW21201   3.652   7.842   1.288 -0.6160 -0.0388 -0.7432
 6782SOL    HW121202   3.578   7.782   1.284  0.4153 -1.2864 -1.9579
 6782SOL    HW221203   3.699   7.816   1.367  0.0038 -1.0718 -1.4378
 6783SOL     OW21204   0.605   6.062   7.637  0.1052  0.1227 -0.8125
 6783SOL    HW121205   0.693   6.025   7.630 -0.5201 -1.9800  1.2963
 6783SOL    HW221206   0.616   6.138   7.694  0.5435 -0.2642 -0.3677
 6784SOL     OW21207   2.287   0.487   3.366  0.1454 -0.1809  0.0029
 6784SOL    HW121208   2.209   0.432   3.375 -0.0274  0.1997  0.9712
 6784SOL    HW221209   2.360   0.425   3.365 -0.2155 -0.6929 -2.7747
 6785SOL     OW21210   0.112   1.556   1.086 -0.0747  0.4019 -0.1819
 6785SOL    HW121211   0.136   1.580   0.997 -1.0770 -1.3314 -0.9795
 6785SOL    HW221212   0.148   1.468   1.098 -1.6782 -0.2321  0.3427
 6786SOL     OW21213   7.260   1.311   2.031 -0.1374  0.2577 -0.0499
 6786SOL    HW121214   7.194   1.249   2.062  0.1889 -0.4254 -0.6926
 6786SOL    HW221215   7.210   1.389   2.006 -0.6051  0.0728  0.3050
 6787SOL     OW21216   6.208   5.342   1.874 -0.0345  0.3934 -0.3041
 6787SOL    HW121217   6.299   5.341   1.845 -0.1320 -2.3924 -0.7710
 6787SOL    HW221218   6.160   5.381   1.801  0.4857 -0.7068 -1.2618
 6788SOL     OW21219   3.617   6.233   1.778  0.4637 -0.2589  0.3416
 6788SOL    HW121220   3.580   6.168   1.718  0.7416 -0.1076  0.0039
 6788SOL    HW221221   3.705   6.249   1.745  0.6721 -0.2819  0.8810
 6789SOL     OW21222   1.291   2.439   6.761 -0.0171 -0.2031 -0.0443
 6789SOL    HW121223   1.231   2.513   6.756  0.3152  0.1901  1.2945
 6789SOL    HW221224   1.234   2.362   6.766 -0.4569  0.1792  1.4732
 6790SOL     OW21225   3.069   5.825   4.696 -0.4546 -0.5259 -0.0716
 6790SOL    HW121226   3.126   5.754   4.668  0.5823 -0.0069  0.6668
 6790SOL    HW221227   3.022   5.790   4.771 -0.9636 -0.8816 -0.5487
 6791SOL     OW21228   0.497   1.750   0.198  0.6390  0.6361 -0.2700
 6791SOL    HW121229   0.473   1.658   0.203 -0.7111  1.0633  2.6742
 6791SOL    HW221230   0.471   1.777   0.109 -2.2909 -0.9744 -0.0050
 6792SOL     OW21231   5.159   3.077   5.923 -0.2014 -0.3601 -0.5175
 6792SOL    HW121232   5.065   3.071   5.942  0.0160  0.0933  0.8412
 6792SOL    HW221233   5.166   3.149   5.861 -0.7678 -0.5813 -0.8535
 6793SOL     OW21234   7.333   1.413   7.106  0.3513  1.2849  0.0462
 6793SOL    HW121235   7.285   1.331   7.093  0.2835  1.1364  1.1857
 6793SOL    HW221236   7.264   1.479   7.117  0.3600  1.0018  2.1290
 6794SOL     OW21237   5.971   7.300   7.980  0.8470 -0.0566 -0.6799
 6794SOL    HW121238   5.883   7.299   7.941  0.7782 -0.2816 -0.5192
 6794SOL    HW221239   6.030   7.310   7.905  0.8753 -3.0526 -1.1736
 6795SOL     OW21240   5.101   2.269   0.666 -0.2819 -0.5108  0.0377
 6795SOL    HW121241   5.054   2.190   0.692  0.2827 -0.7059  0.4926
 6795SOL    HW221242   5.179   2.237   0.620  0.9294 -0.3181  1.8285
 6796SOL     OW21243   3.405   7.192   7.738  0.5929 -0.3687  0.2917
 6796SOL    HW121244   3.498   7.199   7.720  0.3349  0.3362 -0.9086
 6796SOL    HW221245   3.399   7.165   7.829  1.9783 -1.1328  0.1699
 6797SOL     OW21246   7.415   5.387   7.745 -0.2643  0.0221 -0.1231
 6797SOL    HW121247   7.352   5.315   7.736  0.2101 -0.2555 -1.5639
 6797SOL    HW221248   7.494   5.354   7.703  0.3608  0.9359  0.3144
 6798SOL     OW21249   7.590   1.672   2.020 -0.1953  0.0231  0.4465
 6798SOL    HW121250   7.670   1.712   2.054  0.7635 -1.3046 -0.1293
 6798SOL    HW221251   7.523   1.740   2.027  1.2660  1.5790 -0.1694
 6799SOL     OW21252   3.130   1.621   5.721  0.1113  0.2191 -0.0893
 6799SOL    HW121253   3.096   1.533   5.731 -2.3047  1.1322  0.5022
 6799SOL    HW221254   3.092   1.652   5.638  0.0868  1.0195  0.2062
 6800SOL     OW21255   5.119   6.527   0.866 -0.4145  0.1122  0.5497
 6800SOL    HW121256   5.059   6.453   0.873 -0.6913  0.2074 -0.5890
 6800SOL    HW221257   5.102   6.579   0.945 -0.3773 -0.8953  1.2511
 6801SOL     OW21258   6.752   1.861   5.708 -0.3450  0.6436  0.3821
 6801SOL    HW121259   6.717   1.781   5.748 -0.5637  1.2913  1.5075
 6801SOL    HW221260   6.730   1.852   5.615 -0.7650 -0.3949  0.5650
 6802SOL     OW21261   6.664   2.130   6.295 -0.2528  0.0568  0.1656
 6802SOL    HW121262   6.745   2.085   6.320  0.8508  2.0124  0.2894
 6802SOL    HW221263   6.688   2.185   6.221 -1.5432  0.4840  0.0258
 6803SOL     OW21264   1.381   3.416   6.034  0.4338  0.0755 -0.0355
 6803SOL    HW121265   1.305   3.374   5.993  1.6755  0.4230 -2.9714
 6803SOL    HW221266   1.385   3.377   6.122 -2.4903 -0.6934 -0.1285
 6804SOL     OW21267   5.385   5.758   0.271 -0.3998 -0.3333 -0.0187
 6804SOL    HW121268   5.330   5.702   0.216 -0.6938  0.6029 -0.7211
 6804SOL    HW221269   5.331   5.780   0.346 -0.1538 -1.2693  0.4412
 6805SOL     OW21270   2.324   5.933   1.789  0.0954  0.6050  0.0465
 6805SOL    HW121271   2.384   5.924   1.715  3.5705  1.1874  2.5335
 6805SOL    HW221272   2.328   6.025   1.813 -2.5212  0.8433 -0.0925
 6806SOL     OW21273   2.452   0.106   4.383 -0.1629 -0.6103 -0.4037
 6806SOL    HW121274   2.478   0.049   4.456 -0.0593  0.7634  0.6653
 6806SOL    HW221275   2.464   0.052   4.305  0.8064 -1.7529  0.5065
 6807SOL     OW21276   7.462   3.732   1.107 -0.0883  0.4364 -0.5037
 6807SOL    HW121277   7.472   3.753   1.200  1.3032 -0.7216 -0.3490
 6807SOL    HW221278   7.368   3.736   1.091 -0.3790  0.3887  1.0173
 6808SOL     OW21279   1.256   6.098   7.728  0.4185  0.1538 -0.5959
 6808SOL    HW121280   1.344   6.058   7.726 -0.4934 -2.2715  1.3753
 6808SOL    HW221281   1.218   6.077   7.643  0.6572 -1.6514 -0.3002
 6809SOL     OW21282   7.716   4.714   0.197  0.3773 -0.3039  0.9390
 6809SOL    HW121283   7.710   4.788   0.137  1.8206  0.7309  1.9828
 6809SOL    HW221284   7.658   4.648   0.159 -0.0881  0.9238 -0.6405
 6810SOL     OW21285   1.034   2.845   4.329  0.4061  0.5607 -0.0136
 6810SOL    HW121286   0.989   2.772   4.285  0.3088 -0.5626  1.8530
 6810SOL    HW221287   1.007   2.838   4.420  1.5036  2.1163  0.4650
 6811SOL     OW21288   7.149   4.249   7.712  0.5058  0.0241  0.4304
 6811SOL    HW121289   7.102   4.278   7.791  0.4878  0.6738  0.1860
 6811SOL    HW221290   7.089   4.185   7.672  0.3926 -0.1040  0.7935
 6812SOL     OW21291   4.718   4.304   0.293 -0.2110 -0.2456  0.3057
 6812SOL    HW121292   4.766   4.259   0.362 -1.5067 -1.0305  0.7191
 6812SOL    HW221293   4.740   4.255   0.213 -0.5046 -0.7697  0.5363
 6813SOL     OW21294   7.426   5.767   7.893 -0.3043  0.3200  0.3272
 6813SOL    HW121295   7.436   5.862   7.886 -0.2022  0.7301  3.8443
 6813SOL    HW221296   7.515   5.733   7.881 -0.0306  0.8785  0.6805
 6814SOL     OW21297   1.777   2.817   1.102  0.1444 -0.1533  0.0136
 6814SOL    HW121298   1.716   2.770   1.160 -0.5790 -0.1517 -0.7235
 6814SOL    HW221299   1.863   2.784   1.126 -0.3805 -2.3974 -0.9418
 6815SOL     OW21300   0.648   3.489   2.870  0.2727 -0.7973 -0.1268
 6815SOL    HW121301   0.628   3.410   2.920  1.7309 -3.0871 -2.8831
 6815SOL    HW221302   0.575   3.498   2.810 -1.1638  1.5855  1.7891
 6816SOL     OW21303   0.957   2.899   5.943  0.1116  0.1367 -0.4808
 6816SOL    HW121304   0.986   2.924   6.030  0.2762 -1.0946 -0.1568
 6816SOL    HW221305   0.903   2.821   5.957 -1.4481  1.0046 -1.3014
 6817SOL     OW21306   5.002   7.808   7.529 -0.5907  0.4707 -0.1068
 6817SOL    HW121307   5.047   7.760   7.598 -1.2367  1.0390  0.7230
 6817SOL    HW221308   5.011   7.753   7.452  1.0878  0.3274  0.1439
 6818SOL     OW21309   1.715   6.834   7.501 -0.0328  0.5084 -0.1828
 6818SOL    HW121310   1.645   6.897   7.518  1.3516  1.8280  0.8437
 6818SOL    HW221311   1.795   6.886   7.499  1.0526 -1.0842 -0.4071
 6819SOL     OW21312   1.948   7.608   1.999 -0.0036  0.4933  0.2742
 6819SOL    HW121313   1.992   7.656   2.069  1.8627  1.1731 -1.2591
 6819SOL    HW221314   1.963   7.516   2.021  1.0617  0.7016  0.5140
 6820SOL     OW21315   5.762   4.458   1.454  0.9379  0.1609  0.4498
 6820SOL    HW121316   5.768   4.426   1.364 -0.8583 -2.6808  1.2208
 6820SOL    HW221317   5.669   4.448   1.477  1.6444 -1.0575  3.1976
 6821SOL     OW21318   1.445   2.059   3.982 -0.2014 -0.0348  0.4949
 6821SOL    HW121319   1.355   2.034   3.999 -0.1700 -0.3982  0.1474
 6821SOL    HW221320   1.465   2.021   3.896 -0.0348  0.8757  0.1107
 6822SOL     OW21321   0.095   7.276   4.194 -0.2763  0.0916  0.4174
 6822SOL    HW121322   0.056   7.360   4.219 -2.5443 -1.0782  1.0834
 6822SOL    HW221323   0.133   7.291   4.108 -1.2253  1.6297  0.2356
 6823SOL     OW21324   1.929   3.916   1.015  0.1495  0.3146 -0.3540
 6823SOL    HW121325   2.021   3.894   1.029  0.0640 -0.0959 -0.4267
 6823SOL    HW221326   1.919   3.918   0.920  0.0671  0.2840 -0.3458
 6824SOL     OW21327   0.766   7.784   7.979 -0.3721  0.0092  0.5354
 6824SOL    HW121328   0.790   7.873   7.955 -1.7753  0.3144  0.1264
 6824SOL    HW221329   0.808   7.770   8.064  0.4975  0.7785  0.2420
 6825SOL     OW21330   5.468   5.255   6.551 -0.1409  0.2172  0.1796
 6825SOL    HW121331   5.493   5.209   6.632  0.2350 -1.4819 -0.8522
 6825SOL    HW221332   5.551   5.286   6.515 -0.1465 -0.2251 -0.2275
 6826SOL     OW21333   3.821   5.315   3.225 -0.2339  0.2849 -0.2072
 6826SOL    HW121334   3.785   5.258   3.294  0.5273  1.4781  1.2318
 6826SOL    HW221335   3.749   5.374   3.203 -1.2522 -1.5354 -2.1841
 6827SOL     OW21336   5.847   5.082   7.032 -0.3274 -0.5779  0.5059
 6827SOL    HW121337   5.754   5.077   7.013 -0.2682  0.6076 -0.2151
 6827SOL    HW221338   5.857   5.160   7.086  0.3079 -0.3840  0.1262
 6828SOL     OW21339   6.100   7.870   2.003 -0.2944 -0.0246  0.6527
 6828SOL    HW121340   6.185   7.878   1.960 -1.1405  0.1016 -1.0960
 6828SOL    HW221341   6.119   7.826   2.085  1.4008 -0.4382  0.0888
 6829SOL     OW21342   2.377   7.343   3.565 -0.4594  0.5121 -0.0851
 6829SOL    HW121343   2.397   7.266   3.512 -0.4362  0.4794 -0.0299
 6829SOL    HW221344   2.462   7.385   3.579 -0.5293  0.7758 -0.4628
 6830SOL     OW21345   6.172   2.180   4.639 -0.2911 -0.1057 -0.6512
 6830SOL    HW121346   6.129   2.138   4.564  1.5342 -1.2883 -1.1214
 6830SOL    HW221347   6.264   2.155   4.629  0.5515  2.4546  0.1858
 6831SOL     OW21348   1.086   3.183   1.319 -0.2467 -0.7358 -0.4912
 6831SOL    HW121349   1.135   3.262   1.344 -0.7365 -0.3987 -0.5986
 6831SOL    HW221350   1.082   3.132   1.400  0.2719 -0.7660 -0.4757
 6832SOL     OW21351   4.966   2.744   0.624 -0.2476 -0.2612 -0.0815
 6832SOL    HW121352   4.922   2.663   0.598  2.5709 -1.6422 -0.9178
 6832SOL    HW221353   4.959   2.746   0.719 -0.3877 -1.4948 -0.0498
 6833SOL     OW21354   3.902   2.865   4.769 -0.0545 -0.1212 -0.0085
 6833SOL    HW121355   3.906   2.947   4.819 -0.5839  1.2107 -2.0593
 6833SOL    HW221356   3.914   2.796   4.835 -0.8089  1.5368  1.9447
 6834SOL     OW21357   5.043   4.452   6.130 -0.6875 -0.7483 -0.2829
 6834SOL    HW121358   5.012   4.488   6.047 -0.1821  0.0924 -0.1129
 6834SOL    HW221359   5.088   4.525   6.173  0.4183 -1.5867  0.0373
 6835SOL     OW21360   2.430   6.592   7.065  0.5458  0.2370 -0.6632
 6835SOL    HW121361   2.449   6.505   7.101 -0.5954 -0.3769 -1.4825
 6835SOL    HW221362   2.499   6.648   7.100  2.0966 -1.2647 -1.1907
 6836SOL     OW21363   0.403   5.784   2.144 -0.0124  0.2270 -0.2509
 6836SOL    HW121364   0.455   5.728   2.202 -0.3389 -1.2908 -1.3368
 6836SOL    HW221365   0.312   5.763   2.165 -0.1680  1.2848  0.1756
 6837SOL     OW21366   6.477   4.205   3.364 -0.0285  0.1193 -0.1035
 6837SOL    HW121367   6.443   4.251   3.287 -0.3360 -1.5353 -0.9871
 6837SOL    HW221368   6.403   4.153   3.395  0.7047 -0.8408  0.0500
 6838SOL     OW21369   7.909   1.057   6.635  0.2858 -0.1231 -0.7701
 6838SOL    HW121370   7.871   1.079   6.720  0.2314  0.2554 -0.8926
 6838SOL    HW221371   7.980   1.121   6.624  0.3997 -0.2779 -0.9339
 6839SOL     OW21372   0.252   5.326   0.214 -0.0953  0.7304 -0.1579
 6839SOL    HW121373   0.181   5.265   0.193 -0.2648  0.5639  0.8462
 6839SOL    HW221374   0.331   5.284   0.181 -0.0153 -0.7231  1.7617
 6840SOL     OW21375   7.705   3.846   1.164 -0.0372  0.0029  0.5252
 6840SOL    HW121376   7.647   3.835   1.089  1.8292  0.9144 -1.1735
 6840SOL    HW221377   7.743   3.760   1.179 -0.0922 -0.0898  0.1288
 6841SOL     OW21378   7.955   5.239   5.700  0.8484 -0.4138  0.2206
 6841SOL    HW121379   7.882   5.180   5.721  0.1948  0.3442  0.1587
 6841SOL    HW221380   7.992   5.204   5.620 -0.4471  0.0596 -0.6184
 6842SOL     OW21381   2.189   1.902   1.250  0.2828 -0.8529 -0.2310
 6842SOL    HW121382   2.190   1.919   1.345  1.7208 -1.1793 -0.1760
 6842SOL    HW221383   2.104   1.860   1.235  0.4401 -1.7031  1.0717
 6843SOL     OW21384   5.093   6.343   6.035 -0.1911  0.3410  0.1688
 6843SOL    HW121385   5.167   6.282   6.039 -1.2037 -0.8952  0.6227
 6843SOL    HW221386   5.057   6.343   6.123 -1.4276  0.0365 -0.3218
 6844SOL     OW21387   7.641   7.657   6.692  0.1034 -0.3500  0.0266
 6844SOL    HW121388   7.669   7.578   6.738 -0.3713 -0.0211  0.9000
 6844SOL    HW221389   7.644   7.726   6.759 -2.1529 -0.1739  0.0089
 6845SOL     OW21390   0.945   1.691   2.124  0.1285 -0.0621 -0.3331
 6845SOL    HW121391   0.971   1.600   2.109 -0.0773 -0.0262 -0.9683
 6845SOL    HW221392   0.906   1.719   2.040 -1.1212  0.1593  0.2888
 6846SOL     OW21393   6.159   2.360   0.785 -0.2654 -0.0908 -0.0508
 6846SOL    HW121394   6.139   2.269   0.807  1.0493 -0.2096  0.7882
 6846SOL    HW221395   6.093   2.412   0.829  0.5225 -0.5135  1.7094
 6847SOL     OW21396   2.980   7.544   0.027 -0.7518 -0.1649  0.2318
 6847SOL    HW121397   2.972   7.520   0.119 -1.6266 -1.6068 -0.1957
 6847SOL    HW221398   2.890   7.557  -0.002 -0.4953  0.0241 -0.4949
 6848SOL     OW21399   6.061   3.885   1.135  0.8512  0.0345 -0.0388
 6848SOL    HW121400   6.055   3.888   1.039  1.8309  2.3851 -0.0964
 6848SOL    HW221401   6.129   3.821   1.153 -0.1385 -1.2980 -0.8154
 6849SOL     OW21402   2.545   4.729   4.882  0.2076 -0.0607  0.3502
 6849SOL    HW121403   2.590   4.813   4.870 -1.7924  1.3461  1.9040
 6849SOL    HW221404   2.453   4.749   4.865 -0.3202 -1.9475  0.8097
 6850SOL     OW21405   1.298   7.544   4.691  0.3632  0.2925  0.2640
 6850SOL    HW121406   1.325   7.591   4.769 -0.1595  0.9463  0.0602
 6850SOL    HW221407   1.210   7.512   4.712  0.0084  0.9135 -0.2361
 6851SOL     OW21408   5.153   3.752   7.865  0.0368 -1.0230 -0.3818
 6851SOL    HW121409   5.239   3.771   7.827  0.4136 -0.3718  0.7281
 6851SOL    HW221410   5.091   3.802   7.811  0.6988  0.9773  0.5735
 6852SOL     OW21411   1.045   7.922   1.802  0.1548 -0.0344  0.5834
 6852SOL    HW121412   1.096   7.844   1.823  0.1668 -0.3289 -0.4736
 6852SOL    HW221413   1.066   7.940   1.710 -2.2434 -0.6400 -0.1506
 6853SOL     OW21414   4.863   3.949   0.888  0.6334 -0.5967 -0.2965
 6853SOL    HW121415   4.905   4.012   0.946 -1.1689 -0.2136  0.6629
 6853SOL    HW221416   4.845   3.873   0.944 -0.3285 -0.5759 -0.5677
 6854SOL     OW21417   6.579   1.187   4.687  0.5261 -0.2708  0.0116
 6854SOL    HW121418   6.632   1.108   4.682 -0.3695 -1.0721  2.0333
 6854SOL    HW221419   6.491   1.158   4.665  0.2930  0.3079  0.1690
 6855SOL     OW21420   3.747   5.106   5.761  0.3462 -0.4392 -0.3355
 6855SOL    HW121421   3.747   5.174   5.694 -0.5376  1.9451  1.9193
 6855SOL    HW221422   3.683   5.041   5.729 -2.1991  1.9944 -0.6063
 6856SOL     OW21423   1.783   6.077   6.641 -0.2186  0.3514  0.5148
 6856SOL    HW121424   1.767   6.115   6.727 -0.7128 -1.4230  1.2507
 6856SOL    HW221425   1.707   6.022   6.624  0.4590 -0.3269 -0.4758
 6857SOL     OW21426   7.102   0.836   0.255 -0.4243 -0.5934  0.4908
 6857SOL    HW121427   7.047   0.827   0.333 -0.4139  2.2175  0.9283
 6857SOL    HW221428   7.174   0.776   0.269 -0.8624 -0.7435  2.2721
 6858SOL     OW21429   6.941   4.968   0.211  0.1107  0.1562 -0.4515
 6858SOL    HW121430   6.850   4.991   0.228  0.1159  0.0946 -0.3413
 6858SOL    HW221431   6.987   5.052   0.212  0.0191  0.2112 -0.7343
 6859SOL     OW21432   5.757   6.376   5.758 -0.2009 -0.3464 -0.1463
 6859SOL    HW121433   5.774   6.438   5.829 -0.8533  0.3675 -0.5954
 6859SOL    HW221434   5.839   6.328   5.747 -0.2815 -0.9158  1.5103
 6860SOL     OW21435   3.009   7.074   2.060  0.0227  0.4566  0.2869
 6860SOL    HW121436   3.079   7.035   2.112 -0.2453  0.3071  0.5398
 6860SOL    HW221437   2.969   7.000   2.014  1.7959  0.8576 -2.0449
 6861SOL     OW21438   6.742   4.019   0.134  0.1787  0.5454  0.2012
 6861SOL    HW121439   6.673   4.039   0.197  0.3984  0.4955  0.4571
 6861SOL    HW221440   6.812   3.979   0.186 -0.0077 -0.3489 -0.2042
 6862SOL     OW21441   3.110   0.141   5.686  0.6716 -0.4307  0.3385
 6862SOL    HW121442   3.120   0.205   5.755 -0.8877  0.7436 -0.4620
 6862SOL    HW221443   3.171   0.169   5.618  1.2845 -0.8572  0.6998
 6863SOL     OW21444   7.591   5.577   4.768  0.2730  0.2476 -0.1673
 6863SOL    HW121445   7.683   5.561   4.749  0.6327  0.6723  1.0894
 6863SOL    HW221446   7.592   5.652   4.827 -0.9090  0.4741 -0.4160
 6864SOL     OW21447   6.664   0.133   3.337  0.2040  0.4796  0.0530
 6864SOL    HW121448   6.731   0.070   3.311  0.5483  0.5732  0.6952
 6864SOL    HW221449   6.605   0.137   3.262  0.6343  0.0139 -0.3207
 6865SOL     OW21450   4.883   0.491   7.298 -0.1129 -0.1102 -0.0063
 6865SOL    HW121451   4.954   0.545   7.335 -0.0761  0.5098 -0.9386
 6865SOL    HW221452   4.837   0.550   7.238 -2.0425 -0.2116  1.2994
 6866SOL     OW21453   1.309   2.503   3.024 -0.0401  0.6818 -0.7463
 6866SOL    HW121454   1.375   2.471   2.962 -1.4602 -0.2487 -1.8526
 6866SOL    HW221455   1.300   2.596   3.003  0.4788  0.6859 -0.9807
 6867SOL     OW21456   5.641   6.265   5.207  0.5502  0.2175  0.8250
 6867SOL    HW121457   5.587   6.337   5.239  0.7010  0.5383  0.3675
 6867SOL    HW221458   5.668   6.292   5.119 -0.7311 -1.0924 -0.0233
 6868SOL     OW21459   1.127   7.566   3.742 -0.3580 -0.2457 -0.0152
 6868SOL    HW121460   1.139   7.483   3.696 -2.4919 -1.1293  0.8800
 6868SOL    HW221461   1.135   7.633   3.675 -1.1919 -1.3504 -1.2548
 6869SOL     OW21462   7.416   7.240   4.557 -0.5690  0.3616 -0.5556
 6869SOL    HW121463   7.393   7.151   4.584  0.6008 -0.1808 -1.2895
 6869SOL    HW221464   7.470   7.229   4.479 -1.8303  1.7815 -1.7168
 6870SOL     OW21465   2.999   4.305   4.490  0.1854  0.0688  0.0008
 6870SOL    HW121466   2.977   4.226   4.441 -0.3091  1.1483 -1.6185
 6870SOL    HW221467   2.992   4.280   4.582  0.1105 -1.7693 -0.4768
 6871SOL     OW21468   6.475   1.786   4.751  0.0005  0.2012 -0.0382
 6871SOL    HW121469   6.533   1.710   4.762 -2.7149 -2.2353 -1.1286
 6871SOL    HW221470   6.485   1.836   4.831  2.2076 -1.0927  0.5734
 6872SOL     OW21471   5.910   3.675   0.864  0.7950 -0.0358  0.5968
 6872SOL    HW121472   5.863   3.680   0.947 -0.7896  1.5492 -0.3054
 6872SOL    HW221473   5.875   3.597   0.821 -0.3668  0.5982  0.3437
 6873SOL     OW21474   6.562   7.632   6.715  0.0125  0.0669  0.2151
 6873SOL    HW121475   6.549   7.588   6.799 -1.4100 -1.3724 -0.6976
 6873SOL    HW221476   6.500   7.705   6.716 -1.0930 -0.8459 -0.1548
 6874SOL     OW21477   0.042   3.300   5.138 -0.5022  0.0200 -0.6186
 6874SOL    HW121478   0.137   3.288   5.134 -0.6504 -1.2545 -0.8672
 6874SOL    HW221479   0.030   3.384   5.181  0.7304 -0.2292  0.2739
 6875SOL     OW21480   1.729   3.375   1.438  0.6457 -0.2001  0.1330
 6875SOL    HW121481   1.744   3.446   1.376  2.5401  0.2626  1.0597
 6875SOL    HW221482   1.692   3.305   1.385  0.5634  0.7929 -1.1691
 6876SOL     OW21483   1.482   3.063   6.191  0.1921 -0.1893 -0.1653
 6876SOL    HW121484   1.569   3.044   6.226 -0.0142  0.0160  0.4952
 6876SOL    HW221485   1.496   3.083   6.099  0.8530 -0.1198 -0.0532
 6877SOL     OW21486   6.428   1.539   0.310 -0.0838 -0.2665  0.4320
 6877SOL    HW121487   6.428   1.633   0.325  2.4576  0.0768 -1.1355
 6877SOL    HW221488   6.371   1.526   0.234 -2.1564 -0.3568  1.8982
 6878SOL     OW21489   0.911   7.664   1.019 -0.0034 -0.4486  0.1450
 6878SOL    HW121490   0.868   7.666   1.104 -1.9099 -2.7656 -0.6393
 6878SOL    HW221491   0.933   7.571   1.005 -0.5304 -0.2889 -2.2183
 6879SOL     OW21492   3.438   5.343   3.198 -0.0937 -0.4114  0.2212
 6879SOL    HW121493   3.378   5.417   3.210  0.0272 -0.1702 -0.6101
 6879SOL    HW221494   3.524   5.383   3.193 -0.0817 -0.5420 -0.8353
 6880SOL     OW21495   0.108   0.715   5.030 -0.0082 -0.3712 -0.2447
 6880SOL    HW121496   0.200   0.699   5.011  0.1697 -1.3576  1.3004
 6880SOL    HW221497   0.069   0.732   4.944  1.2276 -1.9193 -1.1777
 6881SOL     OW21498   3.443   3.609   3.536 -0.1770  0.3093 -0.0991
 6881SOL    HW121499   3.432   3.533   3.478  2.4400 -0.6031  0.4832
 6881SOL    HW221500   3.439   3.572   3.624  2.8460  0.4526  0.1925
 6882SOL     OW21501   6.236   4.826   7.011 -0.4146 -0.1438 -0.0555
 6882SOL    HW121502   6.291   4.903   7.006 -2.4260  1.4814  1.4442
 6882SOL    HW221503   6.263   4.773   6.935  1.2480  1.8237 -0.9357
 6883SOL     OW21504   1.545   3.921   1.600  0.0383  0.1370 -0.4087
 6883SOL    HW121505   1.561   4.004   1.554 -2.8378  0.3382 -1.2492
 6883SOL    HW221506   1.556   3.943   1.692  0.7355  1.0726 -0.6969
 6884SOL     OW21507   0.953   4.554   7.784  0.3223  0.0929  0.0774
 6884SOL    HW121508   0.988   4.498   7.854 -1.3348 -0.2892  0.6420
 6884SOL    HW221509   0.994   4.522   7.704 -0.5790 -1.9753  0.3833
 6885SOL     OW21510   4.569   5.855   7.744 -0.2657 -0.8846  0.3174
 6885SOL    HW121511   4.576   5.862   7.839 -0.7279 -1.3057  0.3878
 6885SOL    HW221512   4.586   5.943   7.712 -0.5905 -0.6343  0.8195
 6886SOL     OW21513   6.577   7.751   7.914  0.7744 -0.2205 -0.2591
 6886SOL    HW121514   6.513   7.817   7.940  1.1429  1.1198 -2.4418
 6886SOL    HW221515   6.533   7.703   7.843  1.8221  0.1530 -1.1909
 6887SOL     OW21516   7.927   6.348   4.007  0.0074  0.4604 -0.5027
 6887SOL    HW121517   7.853   6.364   4.066 -1.7101  1.0250 -2.6916
 6887SOL    HW221518   7.974   6.431   4.004  0.5578  0.2130  0.5914
 6888SOL     OW21519   2.589   4.938   2.165  0.9061 -0.3589  0.0592
 6888SOL    HW121520   2.506   4.945   2.118  1.0844  1.7450 -0.0319
 6888SOL    HW221521   2.634   5.020   2.146  1.5004  0.0733  2.9270
 6889SOL     OW21522   0.648   2.895   1.881 -0.1568  0.7480 -0.7408
 6889SOL    HW121523   0.679   2.875   1.969 -1.1531 -0.3294 -0.6101
 6889SOL    HW221524   0.717   2.950   1.843 -0.1574  2.0706  1.0319
 6890SOL     OW21525   6.445   6.650   2.619 -0.2840  0.3548 -1.0278
 6890SOL    HW121526   6.454   6.677   2.528  1.6936 -2.1710 -1.7009
 6890SOL    HW221527   6.533   6.658   2.656 -0.5704 -0.8277 -0.0202
 6891SOL     OW21528   5.963   4.835   1.386  0.5178 -0.1574 -0.1779
 6891SOL    HW121529   5.875   4.870   1.400  1.6099  2.5925  0.2791
 6891SOL    HW221530   5.972   4.833   1.290 -0.2101 -1.0235 -0.2460
 6892SOL     OW21531   2.696   5.868   4.652 -0.3646 -0.0883  0.0173
 6892SOL    HW121532   2.660   5.956   4.664 -0.4086 -0.1079  0.0250
 6892SOL    HW221533   2.621   5.813   4.633 -0.1767  0.1712 -1.6393
 6893SOL     OW21534   7.101   7.244   3.425 -0.5547 -0.1328  0.5023
 6893SOL    HW121535   7.189   7.280   3.433 -0.6015 -0.2226  1.6307
 6893SOL    HW221536   7.043   7.316   3.450 -0.6601 -0.8370  2.5099
 6894SOL     OW21537   2.529   3.504   0.702 -0.0291 -0.2345  0.2131
 6894SOL    HW121538   2.446   3.490   0.656  0.6888 -2.2825 -0.6034
 6894SOL    HW221539   2.531   3.436   0.769  1.7299 -1.4350 -0.9677
 6895SOL     OW21540   1.485   1.848   0.749  0.2310  0.7995  0.2524
 6895SOL    HW121541   1.435   1.798   0.813 -1.5130  2.1467  0.0637
 6895SOL    HW221542   1.422   1.863   0.677  2.4409 -1.7444 -2.4759
 6896SOL     OW21543   6.387   3.563   7.202 -0.2362  0.3849  0.2965
 6896SOL    HW121544   6.346   3.587   7.285  0.8193 -1.3298  1.3695
 6896SOL    HW221545   6.314   3.537   7.146 -0.7995 -1.5120  1.7818
 6897SOL     OW21546   7.889   3.228   4.901 -0.3102 -0.0567 -0.0737
 6897SOL    HW121547   7.910   3.229   4.994  0.6777  0.0825 -0.2833
 6897SOL    HW221548   7.882   3.321   4.877  3.4836  0.1601 -0.9536
 6898SOL     OW21549   0.527   6.817   7.305 -0.4741  0.2244 -1.0262
 6898SOL    HW121550   0.539   6.908   7.331 -1.4890  0.6683 -2.0039
 6898SOL    HW221551   0.578   6.808   7.225 -0.5610 -0.0004 -1.0570
 6899SOL     OW21552   4.555   2.135   7.967  0.1493 -0.3027 -0.1252
 6899SOL    HW121553   4.592   2.067   8.024  1.0404  1.0843  0.9985
 6899SOL    HW221554   4.461   2.133   7.985  0.1997 -1.0106  0.1111
 6900SOL     OW21555   7.081   5.312   7.902  0.2450 -0.7285  0.1356
 6900SOL    HW121556   7.050   5.346   7.818 -1.6571  0.2096  1.1455
 6900SOL    HW221557   7.065   5.218   7.898 -2.7810 -0.3440  0.5010
 6901SOL     OW21558   0.538   3.175   2.757  0.7859  0.4371 -0.1829
 6901SOL    HW121559   0.492   3.257   2.736  0.4114  0.1383 -0.5439
 6901SOL    HW221560   0.542   3.128   2.674  1.4918  0.3293 -0.0881
 6902SOL     OW21561   1.600   7.198   2.104  0.6544 -0.4521 -0.3449
 6902SOL    HW121562   1.635   7.221   2.190  2.0021 -0.9209 -0.7477
 6902SOL    HW221563   1.523   7.254   2.094  2.2409  1.9154 -0.1420
 6903SOL     OW21564   7.334   6.925   6.183 -0.1160 -0.0405 -0.2966
 6903SOL    HW121565   7.276   6.984   6.135 -1.5762 -0.6175  0.6869
 6903SOL    HW221566   7.338   6.846   6.129  0.1902  0.1981 -0.6262
 6904SOL     OW21567   7.539   4.522   7.254  0.2719  0.5806 -0.0279
 6904SOL    HW121568   7.508   4.496   7.167 -0.8821  0.8237  0.2930
 6904SOL    HW221569   7.614   4.466   7.270 -0.5511 -0.7005 -0.4635
 6905SOL     OW21570   1.869   0.778   1.114 -0.5996 -0.6236  0.0336
 6905SOL    HW121571   1.814   0.711   1.073 -0.7286 -0.2913 -0.3338
 6905SOL    HW221572   1.958   0.744   1.105 -0.4989  0.0054 -1.6259
 6906SOL     OW21573   2.178   4.998   5.514  1.0619 -0.2907 -0.3030
 6906SOL    HW121574   2.271   4.979   5.501  0.9164 -1.2859  0.0105
 6906SOL    HW221575   2.150   4.935   5.580 -0.1727 -1.0001 -1.4479
 6907SOL     OW21576   1.880   4.852   3.747  0.0125 -0.7060 -0.3253
 6907SOL    HW121577   1.967   4.820   3.721 -0.0594 -0.6220 -0.6628
 6907SOL    HW221578   1.833   4.866   3.665  0.0023  0.1578 -0.1846
 6908SOL     OW21579   6.522   0.830   7.238 -0.1888  0.3355  0.1271
 6908SOL    HW121580   6.612   0.859   7.221  0.1606 -0.1388  1.0492
 6908SOL    HW221581   6.515   0.746   7.194 -0.1346  0.3120  0.1627
 6909SOL     OW21582   0.069   5.643   7.413 -0.4724 -0.2524  0.1196
 6909SOL    HW121583   0.108   5.555   7.415 -0.1791 -0.1528 -0.7712
 6909SOL    HW221584   0.109   5.685   7.337  0.3549  1.1167  1.2630
 6910SOL     OW21585   5.243   2.531   7.762  0.1263  0.1250  0.0175
 6910SOL    HW121586   5.198   2.448   7.752 -1.1611  1.0082 -2.3174
 6910SOL    HW221587   5.174   2.593   7.786  0.6410  0.9476 -0.5720
 6911SOL     OW21588   0.415   4.061   2.390 -0.5965 -0.0678 -0.0951
 6911SOL    HW121589   0.427   4.095   2.479  0.2614 -0.3937 -0.0863
 6911SOL    HW221590   0.353   3.989   2.401 -0.1151 -0.4317  0.3187
 6912SOL     OW21591   1.726   4.513   5.927 -0.2720  0.0827  0.1134
 6912SOL    HW121592   1.702   4.540   6.016 -0.7575  0.0562 -0.0074
 6912SOL    HW221593   1.642   4.509   5.880 -0.0046  0.2309 -0.3797
 6913SOL     OW21594   2.522   0.110   6.849 -0.1760  0.2101 -0.5663
 6913SOL    HW121595   2.598   0.052   6.851 -0.7790 -0.5795  0.2273
 6913SOL    HW221596   2.504   0.130   6.941 -2.6523 -1.9932 -0.4533
 6914SOL     OW21597   7.822   6.091   1.108 -0.4433  0.8958 -0.2018
 6914SOL    HW121598   7.857   6.103   1.020  0.2005 -1.3695 -0.3266
 6914SOL    HW221599   7.890   6.042   1.154 -1.1078  1.3483  1.3186
 6915SOL     OW21600   2.574   0.969   6.879 -0.3078  0.0154 -0.2135
 6915SOL    HW121601   2.643   0.920   6.833  0.4568  0.0407  0.8736
 6915SOL    HW221602   2.618   1.050   6.906 -0.8713  0.1883  0.1841
 6916SOL     OW21603   7.088   1.274   0.243 -0.2113 -0.0780  0.6750
 6916SOL    HW121604   7.033   1.284   0.165  0.4304  1.7284  0.4019
 6916SOL    HW221605   7.159   1.216   0.215 -0.6760 -0.4727  0.3026
 6917SOL     OW21606   0.611   5.705   0.565  0.3403 -0.0212  0.0303
 6917SOL    HW121607   0.643   5.631   0.616  0.3756 -0.4721 -0.6296
 6917SOL    HW221608   0.637   5.685   0.475 -1.5200 -0.2617 -0.4941
 6918SOL     OW21609   2.107   6.882   1.924  0.2700 -0.1328 -0.6334
 6918SOL    HW121610   2.188   6.847   1.962  0.1365 -0.0765 -0.3013
 6918SOL    HW221611   2.062   6.924   1.997  0.2756  0.4605 -0.9601
 6919SOL     OW21612   6.003   3.356   6.371 -0.2849 -0.1879  0.2269
 6919SOL    HW121613   5.985   3.330   6.280  1.6389  0.4390 -0.3645
 6919SOL    HW221614   5.936   3.421   6.391 -0.8008 -0.4218 -0.6956
 6920SOL     OW21615   7.207   3.465   0.178 -0.6546  0.5878  0.1463
 6920SOL    HW121616   7.175   3.437   0.264 -0.0433  0.8843  0.4790
 6920SOL    HW221617   7.279   3.406   0.159 -0.7093  0.6022 -0.1097
 6921SOL     OW21618   3.077   4.228   2.928 -0.2143  0.0974  0.3745
 6921SOL    HW121619   3.008   4.294   2.918  0.5790  1.0195  0.7534
 6921SOL    HW221620   3.146   4.274   2.977  0.7607 -0.7336 -0.1959
 6922SOL     OW21621   1.251   3.340   6.843  0.1388 -0.2834 -0.0244
 6922SOL    HW121622   1.263   3.302   6.931  1.2857  0.7580  0.2968
 6922SOL    HW221623   1.165   3.383   6.848  0.1224 -0.3636  0.5543
 6923SOL     OW21624   2.534   7.105   5.054 -0.1539  0.1566 -0.0911
 6923SOL    HW121625   2.578   7.188   5.042  0.4172 -0.2237 -0.7245
 6923SOL    HW221626   2.517   7.074   4.964 -2.0009  0.4421  0.1157
 6924SOL     OW21627   5.601   7.968   5.662  0.0236  0.1045 -0.4141
 6924SOL    HW121628   5.666   7.908   5.626  0.2413  0.2606 -0.2850
 6924SOL    HW221629   5.562   7.920   5.736 -0.2934 -0.1441 -0.7382
 6925SOL     OW21630   5.712   6.296   4.906  0.0687 -0.8761 -0.1538
 6925SOL    HW121631   5.643   6.347   4.864  1.7477  1.0705 -0.7241
 6925SOL    HW221632   5.723   6.219   4.850 -0.4436 -0.3188 -1.0421
 6926SOL     OW21633   5.297   0.492   1.465 -0.3904 -0.5930  0.2263
 6926SOL    HW121634   5.238   0.567   1.467 -1.1259 -1.1340 -0.2075
 6926SOL    HW221635   5.259   0.430   1.528 -1.2628 -1.6087 -1.2084
 6927SOL     OW21636   0.010   5.796   5.150  0.1319 -0.6470 -0.0513
 6927SOL    HW121637   0.099   5.822   5.173 -0.5663  0.6463  1.3079
 6927SOL    HW221638   0.021   5.712   5.103  1.9527 -1.1746  1.2209
 6928SOL     OW21639   2.558   7.887   4.198  0.1196  0.1540  0.3004
 6928SOL    HW121640   2.544   7.793   4.203  1.3761 -0.0396  0.6920
 6928SOL    HW221641   2.653   7.897   4.188 -0.1351  1.3398 -1.3409
 6929SOL     OW21642   3.514   2.803   7.123  0.3914  0.2906  0.1863
 6929SOL    HW121643   3.588   2.764   7.169  0.9050 -0.6876 -1.3847
 6929SOL    HW221644   3.479   2.868   7.184  0.7014 -1.2793  2.1374
 6930SOL     OW21645   0.771   4.158   6.241 -0.2780 -0.4482  0.2712
 6930SOL    HW121646   0.769   4.063   6.230  0.3230 -0.2722 -1.6979
 6930SOL    HW221647   0.818   4.190   6.164 -1.1327  1.5065  0.5107
 6931SOL     OW21648   6.797   2.307   2.257 -0.0125  0.1332  0.1120
 6931SOL    HW121649   6.726   2.286   2.318  0.0994  0.1874  0.2622
 6931SOL    HW221650   6.800   2.233   2.196  0.8388 -0.6427  1.0527
 6932SOL     OW21651   7.016   6.907   2.527 -0.3942 -0.5345 -0.3243
 6932SOL    HW121652   7.008   6.886   2.434  0.1592 -1.1806 -0.2316
 6932SOL    HW221653   6.926   6.910   2.559 -0.5388 -1.8498 -0.5568
 6933SOL     OW21654   1.214   0.686   2.906 -0.2708 -0.2233  0.1025
 6933SOL    HW121655   1.245   0.597   2.892 -0.9174 -0.4609  0.1532
 6933SOL    HW221656   1.176   0.685   2.994 -0.0121  0.1829  0.2237
 6934SOL     OW21657   4.076   3.632   2.303  0.3572  0.3186 -0.3707
 6934SOL    HW121658   4.121   3.656   2.384 -1.8232 -2.0834  1.7310
 6934SOL    HW221659   4.135   3.572   2.259  0.9745  0.5128  0.1758
 6935SOL     OW21660   0.476   3.693   3.629 -0.6728 -0.1696  0.2812
 6935SOL    HW121661   0.512   3.696   3.718  1.4629 -1.4582 -0.4609
 6935SOL    HW221662   0.471   3.784   3.601 -0.5967  0.1987  1.4195
 6936SOL     OW21663   1.520   1.422   6.997  0.1388 -0.1539 -0.4301
 6936SOL    HW121664   1.519   1.491   7.063  2.2687 -0.4069 -0.0666
 6936SOL    HW221665   1.434   1.380   7.005  0.6575 -0.8943  2.9830
 6937SOL     OW21666   0.274   5.616   1.599 -0.0184 -0.7225  0.4086
 6937SOL    HW121667   0.188   5.638   1.562  1.9009  1.5666 -3.4255
 6937SOL    HW221668   0.284   5.675   1.674 -1.2189  0.0522 -0.0128
 6938SOL     OW21669   7.928   5.357   4.889 -0.4115 -0.1528  0.4629
 6938SOL    HW121670   7.898   5.413   4.817 -0.6677  0.3392  0.9441
 6938SOL    HW221671   7.928   5.268   4.852 -0.9514  0.0398 -0.0185
 6939SOL     OW21672   6.113   6.858   4.629  0.2310  0.4355  0.0216
 6939SOL    HW121673   6.131   6.932   4.571 -0.2554 -0.3977 -1.2282
 6939SOL    HW221674   6.168   6.787   4.596  0.3315  0.0778  0.9142
 6940SOL     OW21675   4.708   7.383   1.320 -0.1668 -0.6929  0.7930
 6940SOL    HW121676   4.662   7.326   1.260  0.9055  0.3110 -1.0848
 6940SOL    HW221677   4.641   7.444   1.352 -0.2723  0.8084 -1.9600
 6941SOL     OW21678   2.690   1.415   4.801 -0.7040  0.1301  0.4545
 6941SOL    HW121679   2.655   1.345   4.857 -1.5787  0.4492  0.3275
 6941SOL    HW221680   2.783   1.419   4.823  0.1482 -3.2501 -1.8033
 6942SOL     OW21681   1.482   3.966   2.669 -0.3103 -0.4721  0.0920
 6942SOL    HW121682   1.529   4.015   2.737 -2.4062 -0.0848  1.3312
 6942SOL    HW221683   1.517   3.877   2.677  0.6024 -0.0915  0.5800
 6943SOL     OW21684   2.450   1.505   6.048 -0.3915  0.5701 -0.0876
 6943SOL    HW121685   2.516   1.439   6.025  0.8215  1.4574  0.7515
 6943SOL    HW221686   2.501   1.583   6.070 -1.7391  1.3071  0.4963
 6944SOL     OW21687   4.825   6.189   2.898 -0.5862 -0.7117 -0.2505
 6944SOL    HW121688   4.825   6.162   2.807  2.1249 -2.2475  0.0961
 6944SOL    HW221689   4.898   6.141   2.938 -1.0099  0.6855  2.4891
 6945SOL     OW21690   1.193   6.517   1.854  0.3839 -0.1886  0.4068
 6945SOL    HW121691   1.277   6.538   1.895  0.7213 -0.7496  0.0172
 6945SOL    HW221692   1.203   6.427   1.823 -0.1943 -0.0965 -0.0684
 6946SOL     OW21693   5.586   5.442   4.947  0.0546 -0.1683 -0.3699
 6946SOL    HW121694   5.582   5.453   5.042 -0.3599 -1.5446 -0.2120
 6946SOL    HW221695   5.543   5.358   4.930  0.9222 -0.3759 -1.6931
 6947SOL     OW21696   7.685   6.787   2.043 -0.3549  0.4085  0.0272
 6947SOL    HW121697   7.623   6.736   2.097 -0.9155  2.0762  1.0394
 6947SOL    HW221698   7.633   6.860   2.011  0.5549  0.6166 -1.0091
 6948SOL     OW21699   6.408   1.540   5.988 -0.8667  0.2270 -0.3618
 6948SOL    HW121700   6.326   1.584   5.967 -0.5877  1.6134  1.2240
 6948SOL    HW221701   6.453   1.600   6.048  1.0643 -0.7382 -0.7532
 6949SOL     OW21702   5.253   3.646   5.321 -0.3894  0.3117  0.3173
 6949SOL    HW121703   5.328   3.633   5.264 -1.2864  1.3275 -1.1728
 6949SOL    HW221704   5.223   3.735   5.301 -1.5092  0.2187  1.4453
 6950SOL     OW21705   7.296   2.637   6.275 -0.1853 -0.0252 -0.4528
 6950SOL    HW121706   7.251   2.712   6.312 -0.9023 -1.9478  2.9871
 6950SOL    HW221707   7.237   2.604   6.207 -0.7558  1.3292 -0.6503
 6951SOL     OW21708   5.178   6.847   5.652  0.2763 -0.2351 -0.1091
 6951SOL    HW121709   5.274   6.842   5.648  0.2206 -1.0601 -0.5308
 6951SOL    HW221710   5.158   6.935   5.620  0.8373 -0.5477 -1.4174
 6952SOL     OW21711   2.368   2.654   5.222 -0.2676 -0.0197  0.1220
 6952SOL    HW121712   2.280   2.658   5.184 -0.0816  2.2554 -0.2515
 6952SOL    HW221713   2.420   2.607   5.157 -1.1496 -1.2365  0.2703
 6953SOL     OW21714   5.090   0.145   4.204 -0.7884 -0.4770  0.3531
 6953SOL    HW121715   5.117   0.197   4.129 -0.8963 -0.4138  0.3595
 6953SOL    HW221716   5.153   0.073   4.206  0.3009  0.4627  1.2429
 6954SOL     OW21717   7.206   4.436   3.789 -0.1411 -0.2165 -0.5557
 6954SOL    HW121718   7.216   4.341   3.798 -3.1904 -0.4558  1.6069
 6954SOL    HW221719   7.168   4.448   3.701 -0.6748 -1.0996 -0.4551
 6955SOL     OW21720   4.214   1.354   3.345  0.2626 -0.1248 -0.0025
 6955SOL    HW121721   4.258   1.291   3.287  1.8594 -1.6441  2.6783
 6955SOL    HW221722   4.128   1.366   3.305  1.2876 -0.9671 -2.7335
 6956SOL     OW21723   1.758   5.644   0.184  0.2590 -0.1740  0.1080
 6956SOL    HW121724   1.785   5.735   0.168  4.1810 -0.7964  1.9577
 6956SOL    HW221725   1.835   5.592   0.160 -1.6861 -3.0262 -0.3900
 6957SOL     OW21726   3.800   7.202   6.324 -0.2365  0.1635  0.0932
 6957SOL    HW121727   3.757   7.122   6.358  0.5833  0.4634  1.9850
 6957SOL    HW221728   3.892   7.177   6.314 -0.0090  0.8008  0.5327
 6958SOL     OW21729   7.769   7.866   1.099  0.0014 -0.4531 -0.0174
 6958SOL    HW121730   7.817   7.847   1.019  0.6071  1.6266 -0.2218
 6958SOL    HW221731   7.833   7.856   1.170  0.6157  1.5836 -0.2200
 6959SOL     OW21732   2.268   1.046   6.876  0.1107 -0.0837  0.4606
 6959SOL    HW121733   2.298   1.137   6.865  1.2051  0.0705  3.6246
 6959SOL    HW221734   2.349   0.994   6.872 -0.2072 -0.6260  1.0269
 6960SOL     OW21735   4.427   4.075   1.142 -0.3442  0.0071  1.1829
 6960SOL    HW121736   4.351   4.037   1.186 -1.3879 -1.1551 -1.4087
 6960SOL    HW221737   4.458   4.006   1.083  0.1838  1.8216 -0.8046
 6961SOL     OW21738   3.475   7.205   6.499  0.1978 -0.3533  0.3875
 6961SOL    HW121739   3.400   7.241   6.453 -1.4732 -0.8767  2.5617
 6961SOL    HW221740   3.536   7.179   6.429 -0.9318  1.4766 -1.3819
 6962SOL     OW21741   2.120   6.318   0.332 -0.4603  0.1269  0.2158
 6962SOL    HW121742   2.083   6.352   0.250  0.1846  0.1712 -0.0639
 6962SOL    HW221743   2.044   6.301   0.387 -0.9517 -0.4886 -0.6164
 6963SOL     OW21744   1.704   0.768   4.235 -0.3804  0.6814 -0.1008
 6963SOL    HW121745   1.731   0.853   4.269 -0.9011  1.0705 -0.6379
 6963SOL    HW221746   1.754   0.758   4.154 -3.3506  2.4506 -2.3622
 6964SOL     OW21747   1.056   3.318   7.916 -0.4048  0.0875 -0.0383
 6964SOL    HW121748   0.972   3.322   7.871 -1.8291 -4.2639  1.7674
 6964SOL    HW221749   1.055   3.393   7.975 -2.7695  0.4616 -0.4525
 6965SOL     OW21750   3.787   2.237   1.632  0.0864 -0.2587 -0.9402
 6965SOL    HW121751   3.873   2.208   1.662 -0.1320  0.7380  0.7427
 6965SOL    HW221752   3.757   2.299   1.699 -2.9958 -2.3129 -0.1988
 6966SOL     OW21753   5.539   5.695   6.145  0.1996  0.5574 -0.1544
 6966SOL    HW121754   5.608   5.758   6.167  0.8518 -0.6612  1.5647
 6966SOL    HW221755   5.585   5.626   6.097 -0.3039  0.8816 -1.1146
 6967SOL     OW21756   6.615   0.657   4.359 -0.7173 -0.6172 -0.4746
 6967SOL    HW121757   6.563   0.721   4.310  0.0441  3.0306  2.9678
 6967SOL    HW221758   6.553   0.615   4.418 -0.4808  1.1831  1.1628
 6968SOL     OW21759   7.247   1.898   0.290 -0.3134 -0.0764 -0.4498
 6968SOL    HW121760   7.155   1.892   0.263 -0.5234 -1.6993  0.4578
 6968SOL    HW221761   7.296   1.857   0.219 -0.0719  2.2952 -1.7267
 6969SOL     OW21762   3.621   2.076   1.888  0.5700 -0.0946  0.5796
 6969SOL    HW121763   3.575   1.992   1.883  0.1687  0.0143  2.0454
 6969SOL    HW221764   3.640   2.098   1.797  0.1905 -1.5022  0.1314
 6970SOL     OW21765   0.954   0.312   5.953 -0.2154 -0.0304  0.3992
 6970SOL    HW121766   1.032   0.369   5.950 -0.1532 -0.1532 -1.4282
 6970SOL    HW221767   0.882   0.370   5.931 -0.3952 -0.3122  0.2531
 6971SOL     OW21768   1.789   5.172   0.895 -0.0632 -0.5542  0.1018
 6971SOL    HW121769   1.795   5.267   0.880 -0.6490 -0.1788  1.9317
 6971SOL    HW221770   1.790   5.163   0.991  0.4034 -2.4448 -0.0408
 6972SOL     OW21771   5.772   6.294   1.226 -0.1637 -0.2532  0.2545
 6972SOL    HW121772   5.807   6.338   1.149 -0.2616 -0.8909 -0.1522
 6972SOL    HW221773   5.678   6.310   1.222 -0.2876 -1.0561 -0.2586
 6973SOL     OW21774   0.000   4.003   1.091  0.3230 -0.5687 -0.2433
 6973SOL    HW121775  -0.088   3.978   1.065  0.1868 -0.6418  0.2720
 6973SOL    HW221776  -0.013   4.056   1.170  0.8741 -2.5491  1.2294
 6974SOL     OW21777   0.168   0.619   1.703  0.2057 -0.2088  0.1467
 6974SOL    HW121778   0.095   0.575   1.660 -0.5718  1.1142  0.0772
 6974SOL    HW221779   0.167   0.584   1.793  0.2891 -1.1176 -0.1910
 6975SOL     OW21780   3.536   6.019   0.095  0.6984  0.1968  0.3016
 6975SOL    HW121781   3.586   5.946   0.058  2.0891  0.8428  0.8204
 6975SOL    HW221782   3.527   5.997   0.188  0.3199  0.2537  0.2788
 6976SOL     OW21783   3.879   0.998   4.653 -0.0888 -0.1574  0.6465
 6976SOL    HW121784   3.922   0.989   4.738  1.8232  0.2493 -0.2199
 6976SOL    HW221785   3.933   1.061   4.606 -0.9727 -0.5485 -0.9601
 6977SOL     OW21786   2.367   3.444   1.106  0.2271 -0.1629  0.6288
 6977SOL    HW121787   2.439   3.494   1.068  0.3129 -0.6935  0.0787
 6977SOL    HW221788   2.288   3.494   1.082  0.1169 -1.3682 -1.8059
 6978SOL     OW21789   2.700   2.073   1.855  0.1496  0.3291 -0.7355
 6978SOL    HW121790   2.629   2.106   1.910  0.6436 -0.6022  0.5146
 6978SOL    HW221791   2.689   1.978   1.858  1.1560  0.2044 -0.9336
 6979SOL     OW21792   1.268   4.842   0.395  0.2838  0.2235  0.6007
 6979SOL    HW121793   1.325   4.782   0.442  0.1577 -0.5398 -0.1818
 6979SOL    HW221794   1.235   4.791   0.321 -0.6893  0.9247  0.5181
 6980SOL     OW21795   7.679   4.758   3.703 -0.4678  0.5663 -0.4787
 6980SOL    HW121796   7.599   4.738   3.654 -0.6457 -1.0219  0.4122
 6980SOL    HW221797   7.657   4.739   3.794  1.2900 -1.1130 -0.3493
 6981SOL     OW21798   2.313   0.511   2.055  0.0874  0.2200  0.4827
 6981SOL    HW121799   2.249   0.441   2.069  0.8408 -0.5360  0.2761
 6981SOL    HW221800   2.390   0.482   2.104 -0.0258  1.5696  1.5170
 6982SOL     OW21801   6.017   4.367   3.812 -0.0385 -0.2975 -0.5462
 6982SOL    HW121802   6.010   4.340   3.903 -3.0890  1.0554 -0.2488
 6982SOL    HW221803   5.992   4.289   3.762 -1.4289 -0.2101 -0.0371
 6983SOL     OW21804   1.042   2.272   1.940  0.5661 -0.7695  0.1694
 6983SOL    HW121805   1.057   2.211   2.012 -0.6295  0.4482  1.5208
 6983SOL    HW221806   0.955   2.308   1.957  0.9245  0.7542 -1.0037
 6984SOL     OW21807   4.765   4.094   5.797 -0.7698 -0.9648 -0.0888
 6984SOL    HW121808   4.858   4.080   5.777 -0.7458  1.1791 -1.8751
 6984SOL    HW221809   4.761   4.091   5.893  1.3187 -0.3033  0.0791
 6985SOL     OW21810   7.837   5.997   5.192 -0.2413  0.8529 -0.5656
 6985SOL    HW121811   7.887   5.917   5.176  0.3735  0.8457  1.1782
 6985SOL    HW221812   7.825   6.035   5.105  0.9811 -0.2262 -1.2500
 6986SOL     OW21813   5.640   3.219   7.794  0.0290  0.5322  0.1944
 6986SOL    HW121814   5.709   3.155   7.810 -0.6475 -0.3247 -0.2179
 6986SOL    HW221815   5.614   3.250   7.881  0.4474  0.3366  0.3879
 6987SOL     OW21816   4.856   4.794   3.484  0.1231 -0.3102  0.5591
 6987SOL    HW121817   4.800   4.788   3.561 -0.3954  0.6043  0.2755
 6987SOL    HW221818   4.835   4.715   3.433 -1.4844  0.3657  0.1047
 6988SOL     OW21819   3.769   0.733   3.983  0.5374 -0.0997  0.4138
 6988SOL    HW121820   3.799   0.651   4.021 -0.5605  0.0046  1.5588
 6988SOL    HW221821   3.679   0.716   3.956  0.3646  0.6555  0.4732
 6989SOL     OW21822   2.761   1.535   6.503  0.2354  0.1039  0.1058
 6989SOL    HW121823   2.727   1.471   6.566  0.3009  1.6865  1.8094
 6989SOL    HW221824   2.850   1.554   6.533 -0.6691  2.9306  1.2615
 6990SOL     OW21825   7.489   7.224   5.994 -0.1340 -0.1835 -0.1414
 6990SOL    HW121826   7.411   7.201   6.045 -0.3618  1.9322  0.5755
 6990SOL    HW221827   7.511   7.313   6.023  3.0326 -0.9744  0.2791
 6991SOL     OW21828   0.972   3.531   1.556 -0.2572 -0.1437  0.2396
 6991SOL    HW121829   0.980   3.584   1.477 -0.7049  3.1931  2.2291
 6991SOL    HW221830   1.062   3.526   1.590 -0.4512  0.9604  0.9642
 6992SOL     OW21831   0.449   1.036   3.336 -0.1250  0.1400 -0.5509
 6992SOL    HW121832   0.370   0.992   3.305  0.0946 -0.1721 -0.6658
 6992SOL    HW221833   0.418   1.090   3.409  0.0612 -2.5024  1.6424
 6993SOL     OW21834   7.788   6.679   4.141 -0.1625 -0.1303 -0.8518
 6993SOL    HW121835   7.878   6.699   4.118  0.0110 -0.8175 -0.7605
 6993SOL    HW221836   7.775   6.721   4.226  0.4165 -0.9869 -0.3370
 6994SOL     OW21837   7.966   4.216   2.713  0.5042  0.2326  0.6542
 6994SOL    HW121838   8.039   4.198   2.654  1.0505  0.3394  1.2875
 6994SOL    HW221839   8.000   4.195   2.801 -0.4918 -0.5177  0.8778
 6995SOL     OW21840   2.218   2.199   7.692 -0.3993 -0.6092 -0.3047
 6995SOL    HW121841   2.292   2.240   7.737  0.0119 -1.5700 -0.0627
 6995SOL    HW221842   2.256   2.160   7.614 -0.8724 -0.1098 -0.7950
 6996SOL     OW21843   2.525   3.984   6.003  0.1703  0.2519 -0.3294
 6996SOL    HW121844   2.558   3.997   6.092  1.3559  2.4240 -0.9903
 6996SOL    HW221845   2.441   3.940   6.014  1.0826 -1.1474  1.7343
 6997SOL     OW21846   5.793   4.293   5.788 -0.6537  0.8818 -0.3428
 6997SOL    HW121847   5.875   4.311   5.741 -0.0752  0.4441  0.4711
 6997SOL    HW221848   5.787   4.198   5.789 -0.4841  0.8710  0.7405
 6998SOL     OW21849   4.853   6.186   0.029 -0.1390 -0.7416  0.0903
 6998SOL    HW121850   4.883   6.264  -0.018 -1.7093  0.1016  0.4271
 6998SOL    HW221851   4.791   6.219   0.094 -0.7500 -2.2604  0.3190
 6999SOL     OW21852   3.225   5.176   2.778 -0.2705  0.2622 -0.2025
 6999SOL    HW121853   3.259   5.262   2.753 -3.0630  1.8941  1.0718
 6999SOL    HW221854   3.163   5.155   2.708 -0.4545 -0.1537  0.0871
 7000SOL     OW21855   7.987   3.038   7.079  0.5856 -0.0029  0.6011
 7000SOL    HW121856   7.912   3.021   7.021 -0.7293  0.5257  2.0870
 7000SOL    HW221857   7.986   3.132   7.093  0.4660 -0.1948  2.0014
 7001SOL     OW21858   5.817   2.032   7.550 -0.1085 -0.1718 -0.1689
 7001SOL    HW121859   5.868   1.974   7.607 -0.1540  0.6478  0.7456
 7001SOL    HW221860   5.730   2.036   7.592  0.0058  0.8360 -0.0020
 7002SOL     OW21861   4.032   4.430   3.229  0.3061 -0.6911 -0.0598
 7002SOL    HW121862   4.126   4.414   3.237  0.4753  0.0552 -0.4923
 7002SOL    HW221863   4.023   4.525   3.238 -0.4015 -0.7604 -0.0248
 7003SOL     OW21864   1.251   5.126   1.183  0.0384 -0.2621 -0.0336
 7003SOL    HW121865   1.330   5.088   1.145 -0.0871 -0.3256 -0.2325
 7003SOL    HW221866   1.192   5.140   1.108 -1.6134 -3.6587  0.4526
 7004SOL     OW21867   5.107   5.274   3.264  0.2788 -0.2139 -0.1200
 7004SOL    HW121868   5.044   5.207   3.288  0.6048 -1.1016 -1.6275
 7004SOL    HW221869   5.181   5.260   3.324  0.9334 -2.1469 -1.2844
 7005SOL     OW21870   2.106   4.314   2.108 -0.1735  0.0261  0.0391
 7005SOL    HW121871   2.098   4.240   2.047 -0.4232 -0.9695  1.2361
 7005SOL    HW221872   2.142   4.385   2.055 -1.6337 -0.3752 -1.6039
 7006SOL     OW21873   0.872   0.314   5.307 -0.3712  0.3650 -0.4912
 7006SOL    HW121874   0.885   0.303   5.213 -1.0760 -1.6516 -0.3913
 7006SOL    HW221875   0.954   0.353   5.339 -0.3385  1.6311 -1.9888
 7007SOL     OW21876   6.379   4.213   4.564 -0.2928  0.6313  0.1843
 7007SOL    HW121877   6.401   4.233   4.473 -1.8383  1.2381 -0.0783
 7007SOL    HW221878   6.417   4.285   4.614  1.6529 -0.3371  0.2064
 7008SOL     OW21879   7.837   2.096   3.864  0.1926  0.3103  0.4012
 7008SOL    HW121880   7.817   2.181   3.825 -0.4353  0.5679  1.2473
 7008SOL    HW221881   7.753   2.066   3.899 -0.4946 -2.4148 -3.0781
 7009SOL     OW21882   6.430   7.283   4.811  0.2747  0.5537  0.2809
 7009SOL    HW121883   6.462   7.343   4.878 -1.6206  1.5374  0.3517
 7009SOL    HW221884   6.386   7.339   4.747  1.3201 -0.4517 -1.3912
 7010SOL     OW21885   3.466   2.148   4.711 -0.0289 -0.0387 -0.0687
 7010SOL    HW121886   3.415   2.210   4.659  1.9410  0.8584 -1.0405
 7010SOL    HW221887   3.526   2.108   4.648 -0.2481 -1.8717  0.8222
 7011SOL     OW21888   7.293   4.496   3.165 -0.1660  0.4237  0.3239
 7011SOL    HW121889   7.309   4.447   3.085  2.2645  0.7070  0.5581
 7011SOL    HW221890   7.250   4.434   3.223 -1.9489  0.2193 -1.1637
 7012SOL     OW21891   7.922   6.383   1.529  0.4408 -0.2776 -0.1633
 7012SOL    HW121892   7.990   6.432   1.574  0.7500  0.4568 -1.3925
 7012SOL    HW221893   7.861   6.450   1.498 -0.1830 -0.8349 -0.1672
 7013SOL     OW21894   3.030   2.236   3.461 -0.1525  0.1940 -0.2305
 7013SOL    HW121895   2.988   2.320   3.483 -0.5862 -0.1224  0.1771
 7013SOL    HW221896   2.965   2.190   3.409  0.9529  1.0269 -2.4734
 7014SOL     OW21897   1.359   6.336   4.803  0.2955  0.0639 -0.1717
 7014SOL    HW121898   1.389   6.321   4.892  2.0650  0.7087 -0.6162
 7014SOL    HW221899   1.326   6.426   4.803  0.8212  0.2614 -0.2827
 7015SOL     OW21900   2.190   2.047   5.606 -0.5169  0.5291 -0.7537
 7015SOL    HW121901   2.240   2.107   5.661 -1.9846  0.6115  0.5584
 7015SOL    HW221902   2.171   2.097   5.527  0.3434  0.9210 -0.7296
 7016SOL     OW21903   3.694   7.897   0.376 -0.6972 -0.1713  0.0097
 7016SOL    HW121904   3.719   7.894   0.283  0.6253  0.5418  0.3252
 7016SOL    HW221905   3.633   7.824   0.386  0.2259 -1.1429 -1.1150
 7017SOL     OW21906   1.552   2.322   3.285 -0.2783 -0.1095 -0.2839
 7017SOL    HW121907   1.594   2.384   3.225  1.0951 -0.6221  0.1169
 7017SOL    HW221908   1.487   2.277   3.231  1.3515 -0.9989 -1.5690
 7018SOL     OW21909   2.818   2.076   3.333 -0.2231  0.5614  0.3690
 7018SOL    HW121910   2.880   2.043   3.268  0.7852  1.2913  0.9382
 7018SOL    HW221911   2.740   2.098   3.282  0.6167  1.3149 -0.6279
 7019SOL     OW21912   6.795   7.543   1.084 -0.4863 -0.2222 -0.5371
 7019SOL    HW121913   6.709   7.501   1.087 -0.7761  0.4078  0.9007
 7019SOL    HW221914   6.781   7.630   1.123  0.2212  1.0119 -2.8372
 7020SOL     OW21915   0.078   1.889   7.264 -0.7289  0.2994  0.3799
 7020SOL    HW121916   0.100   1.973   7.222 -0.4631  0.0519  0.0206
 7020SOL    HW221917   0.002   1.858   7.215  0.5998 -0.8149 -1.0690
 7021SOL     OW21918   3.613   5.576   3.796 -0.2687 -0.4408 -0.5121
 7021SOL    HW121919   3.580   5.488   3.815 -0.8442 -1.4902 -5.1681
 7021SOL    HW221920   3.703   5.562   3.767 -0.3333  0.4686 -1.2073
 7022SOL     OW21921   1.354   3.574   4.585 -0.4231 -0.1496  0.0983
 7022SOL    HW121922   1.440   3.601   4.617 -0.2253  1.4464 -1.5912
 7022SOL    HW221923   1.360   3.479   4.578  1.5673 -0.0198 -0.8351
 7023SOL     OW21924   6.106   3.583   3.399 -0.3291 -0.0921  0.1070
 7023SOL    HW121925   6.105   3.491   3.375  1.0414 -0.3492  0.8751
 7023SOL    HW221926   6.067   3.585   3.486 -0.1366  0.0089  0.1919
 7024SOL     OW21927   4.735   1.006   3.140  0.0224 -0.5011 -0.1179
 7024SOL    HW121928   4.759   1.050   3.059 -0.5254  1.0645  0.5267
 7024SOL    HW221929   4.691   0.926   3.112  1.0565 -0.6769 -1.3294
 7025SOL     OW21930   1.651   0.492   3.547  0.3725 -0.2873 -0.2517
 7025SOL    HW121931   1.575   0.439   3.569  1.8496 -2.1627  0.6393
 7025SOL    HW221932   1.615   0.578   3.524 -2.0987 -1.5715 -1.5076
 7026SOL     OW21933   5.341   3.650   5.868  0.1074  0.0206 -0.9515
 7026SOL    HW121934   5.331   3.718   5.801 -2.1509  0.2695 -0.4510
 7026SOL    HW221935   5.252   3.615   5.880  0.7874 -1.3206  0.5755
 7027SOL     OW21936   3.549   3.420   1.658 -0.2876 -0.3495  0.2326
 7027SOL    HW121937   3.550   3.431   1.563  0.5349 -1.3295  0.1086
 7027SOL    HW221938   3.531   3.508   1.692 -1.1825 -0.0988 -0.8287
 7028SOL     OW21939   5.567   0.286   2.301  0.3408  0.1486 -0.1465
 7028SOL    HW121940   5.537   0.210   2.352  0.8488  1.0230  1.5326
 7028SOL    HW221941   5.661   0.271   2.288  0.5711  0.7605  0.7300
 7029SOL     OW21942   7.813   4.484   0.672  0.0448 -0.1640 -0.3379
 7029SOL    HW121943   7.781   4.470   0.761 -1.1093 -0.3382 -0.7536
 7029SOL    HW221944   7.759   4.556   0.638  1.5634  1.0163 -0.3796
 7030SOL     OW21945   7.786   6.549   2.314 -0.6921  0.1419  0.0117
 7030SOL    HW121946   7.849   6.499   2.262 -2.2964  0.0151 -1.9205
 7030SOL    HW221947   7.712   6.562   2.255 -1.5051  2.3488  1.4250
 7031SOL     OW21948   4.217   7.450   1.823  0.5844  0.2304  0.0137
 7031SOL    HW121949   4.201   7.417   1.735 -2.1410 -0.9066  0.8176
 7031SOL    HW221950   4.149   7.516   1.836  1.4998  1.0141  0.9743
 7032SOL     OW21951   2.113   3.425   1.999  0.4578  0.1538 -0.1936
 7032SOL    HW121952   2.051   3.365   1.959  0.6440 -0.7869  0.8805
 7032SOL    HW221953   2.108   3.504   1.946  1.2452 -1.2787 -2.5387
 7033SOL     OW21954   0.604   1.336   4.898 -0.5522 -0.4307 -0.1014
 7033SOL    HW121955   0.591   1.430   4.913 -1.6587 -0.5594 -0.2009
 7033SOL    HW221956   0.697   1.328   4.875 -0.5070  0.6716 -0.3442
 7034SOL     OW21957   1.201   0.414   2.804  0.2662 -0.4149  0.2360
 7034SOL    HW121958   1.111   0.448   2.803  0.7207  0.8513 -0.3079
 7034SOL    HW221959   1.195   0.329   2.761 -0.3643  0.5408 -1.6777
 7035SOL     OW21960   7.357   6.950   0.142  0.2095  0.5824  0.0848
 7035SOL    HW121961   7.326   6.920   0.227 -1.6860 -1.6307 -1.2788
 7035SOL    HW221962   7.280   6.949   0.086  1.0499  3.5202 -1.3553
 7036SOL     OW21963   7.554   3.300   3.560  0.3078 -0.0757 -0.0265
 7036SOL    HW121964   7.491   3.296   3.489 -1.1948  1.2678  1.1468
 7036SOL    HW221965   7.513   3.251   3.631  0.8953  0.2313  0.5405
 7037SOL     OW21966   4.262   2.014   2.079 -0.6141  0.8362 -0.4061
 7037SOL    HW121967   4.321   2.000   2.005  0.6955 -0.7513  0.8540
 7037SOL    HW221968   4.292   1.951   2.146 -0.5695  3.3829  2.1696
 7038SOL     OW21969   3.395   6.174   0.755  0.3918 -0.7933 -0.5643
 7038SOL    HW121970   3.483   6.151   0.784 -0.4093 -1.7139  1.3243
 7038SOL    HW221971   3.372   6.109   0.689  0.4705 -1.6544  0.2464
 7039SOL     OW21972   1.103   3.759   6.519  0.7333  0.4979 -0.7957
 7039SOL    HW121973   1.061   3.805   6.592  1.5659  0.7016 -0.4380
 7039SOL    HW221974   1.195   3.752   6.545  0.8746 -0.1613 -1.4627
 7040SOL     OW21975   4.915   2.399   5.955  0.1557  0.4674 -0.1061
 7040SOL    HW121976   4.868   2.474   5.919  0.4043 -0.5712 -2.7900
 7040SOL    HW221977   4.906   2.409   6.050 -1.0754  3.0518 -0.4069
 7041SOL     OW21978   5.090   4.118   2.320 -0.3223  0.0304 -0.1373
 7041SOL    HW121979   5.172   4.071   2.334 -0.3449  0.0755  0.1605
 7041SOL    HW221980   5.111   4.184   2.254 -0.7227 -1.5145 -1.9080
 7042SOL     OW21981   1.790   7.341   0.846  0.1098 -0.7124 -0.2592
 7042SOL    HW121982   1.735   7.267   0.873 -0.3358 -0.2415  0.1582
 7042SOL    HW221983   1.763   7.413   0.903 -0.2171  0.0647 -1.3500
 7043SOL     OW21984   3.728   4.679   1.913 -0.5646 -0.0896 -0.5605
 7043SOL    HW121985   3.697   4.596   1.948  1.6226  1.0816  5.4609
 7043SOL    HW221986   3.821   4.665   1.896  0.2007  1.2073  1.9644
 7044SOL     OW21987   0.370   4.679   1.849 -0.2687 -0.1922  0.0199
 7044SOL    HW121988   0.412   4.613   1.795  0.4418 -0.1590  0.5170
 7044SOL    HW221989   0.390   4.762   1.807  0.4998 -0.1453  0.4561
 7045SOL     OW21990   6.727   7.036   3.597 -0.2868 -0.4349  0.1766
 7045SOL    HW121991   6.722   7.013   3.504 -0.9470 -0.2379  0.1584
 7045SOL    HW221992   6.820   7.044   3.615 -0.1651  1.4574 -0.9620
 7046SOL     OW21993   0.824   7.132   2.919 -0.8447  0.1206  0.2644
 7046SOL    HW121994   0.831   7.227   2.926 -2.1243  0.2150  0.4928
 7046SOL    HW221995   0.730   7.115   2.916 -0.6610 -1.2021  1.2246
 7047SOL     OW21996   1.297   0.963   0.176 -0.2528  0.0429  0.1927
 7047SOL    HW121997   1.308   0.877   0.216 -0.1679 -0.0478 -0.0257
 7047SOL    HW221998   1.364   0.966   0.107 -0.2459  0.2882  0.2096
 7048SOL     OW21999   0.017   0.567   7.772 -0.4964 -0.6316  0.4605
 7048SOL    HW122000   0.049   0.647   7.814  2.2554 -0.8033 -1.0992
 7048SOL    HW222001  -0.077   0.567   7.790 -0.2689  1.8684  2.2366
 7049SOL     OW22002   5.045   5.383   5.358  0.2238  0.3447  0.3830
 7049SOL    HW122003   4.950   5.374   5.347  0.3626 -1.3287  0.2108
 7049SOL    HW222004   5.060   5.367   5.451  0.2978  1.2504  0.5378
 7050SOL     OW22005   7.330   5.480   2.546  0.5353  0.3387  0.7945
 7050SOL    HW122006   7.376   5.397   2.542 -0.3070 -0.1265  0.3932
 7050SOL    HW222007   7.251   5.461   2.598 -1.0483  0.1562 -1.5330
 7051SOL     OW22008   3.273   5.387   7.501  0.2279  0.2656  0.2490
 7051SOL    HW122009   3.329   5.445   7.552  0.9796 -0.2288  0.0024
 7051SOL    HW222010   3.194   5.378   7.554  0.2400  1.2326  0.4497
 7052SOL     OW22011   6.297   4.946   5.623  0.0303  0.0664  0.0145
 7052SOL    HW122012   6.353   4.886   5.574 -0.1473  0.3633 -0.5598
 7052SOL    HW222013   6.255   4.890   5.689  1.7761  0.0418  1.1444
 7053SOL     OW22014   7.332   2.664   2.841 -0.2455 -0.5247 -0.1338
 7053SOL    HW122015   7.357   2.686   2.751 -1.4077  2.4947  0.1837
 7053SOL    HW222016   7.257   2.719   2.859 -1.0629 -2.2606  2.2074
 7054SOL     OW22017   0.230   3.161   4.807  0.6802 -0.3107 -0.4328
 7054SOL    HW122018   0.160   3.095   4.803  2.2494 -1.9927 -1.3664
 7054SOL    HW222019   0.185   3.244   4.792 -1.5391 -0.9718  1.7775
 7055SOL     OW22020   3.390   6.107   7.678 -0.1681 -0.0353 -0.2427
 7055SOL    HW122021   3.364   6.032   7.624  1.4049 -0.1804 -0.8568
 7055SOL    HW222022   3.340   6.097   7.759 -0.0955 -1.6851 -0.3681
 7056SOL     OW22023   3.999   3.460   5.360 -0.5860  0.1398 -0.2529
 7056SOL    HW122024   4.065   3.395   5.383 -0.2927  0.5128 -0.0359
 7056SOL    HW222025   4.049   3.537   5.332 -0.8931  0.9476  1.3210
 7057SOL     OW22026   2.418   2.581   0.842  0.3291  0.0493  0.0775
 7057SOL    HW122027   2.490   2.525   0.871 -0.2975  0.6567  3.1770
 7057SOL    HW222028   2.456   2.669   0.836  0.1047  0.1981  0.7238
 7058SOL     OW22029   2.173   4.879   2.213  0.6450 -0.3725  0.7243
 7058SOL    HW122030   2.158   4.914   2.301 -1.1252 -0.4676  0.4870
 7058SOL    HW222031   2.086   4.866   2.177  1.3151 -1.8154 -0.4788
 7059SOL     OW22032   2.935   7.369   0.503  0.2303  0.3827  0.1369
 7059SOL    HW122033   3.009   7.316   0.532  0.8052  1.2133  0.2389
 7059SOL    HW222034   2.860   7.310   0.506  0.8191 -0.3670  0.4098
 7060SOL     OW22035   1.644   3.885   5.472 -0.6233 -0.0124  0.0007
 7060SOL    HW122036   1.721   3.855   5.521 -0.1891 -3.2376 -2.3337
 7060SOL    HW222037   1.574   3.886   5.536  0.4090 -1.7121  1.2456
 7061SOL     OW22038   6.376   5.224   4.760  0.0297  0.2782  0.5936
 7061SOL    HW122039   6.451   5.247   4.705  0.2239 -0.8454  0.3413
 7061SOL    HW222040   6.312   5.293   4.745 -0.3377 -0.4881 -1.8996
 7062SOL     OW22041   3.098   6.474   0.901 -0.0489 -0.4362  0.4752
 7062SOL    HW122042   3.089   6.537   0.972 -0.4594  2.8788 -2.2578
 7062SOL    HW222043   3.020   6.487   0.847  0.3128 -2.6957 -0.7242
 7063SOL     OW22044   4.438   5.565   5.040  0.0114 -0.0634  0.4501
 7063SOL    HW122045   4.347   5.537   5.052 -0.1951  0.3771 -0.0484
 7063SOL    HW222046   4.454   5.555   4.946  0.9193 -1.4252  0.7063
 7064SOL     OW22047   7.419   1.289   2.255  0.0484  0.6529  0.4575
 7064SOL    HW122048   7.391   1.300   2.164 -0.0698  1.8241  0.6147
 7064SOL    HW222049   7.460   1.203   2.257 -1.2159 -0.0008 -0.3730
 7065SOL     OW22050   0.236   0.194   4.439  0.6517  0.1335  0.3577
 7065SOL    HW122051   0.236   0.255   4.365  0.6693  1.1504  1.1801
 7065SOL    HW222052   0.271   0.245   4.512  1.7616 -1.2091  0.7949
 7066SOL     OW22053   5.993   1.299   7.420  0.2212 -0.8101 -0.0342
 7066SOL    HW122054   6.040   1.290   7.503  1.9913  2.4795 -0.5102
 7066SOL    HW222055   6.040   1.242   7.360  1.1004 -0.6281  0.4603
 7067SOL     OW22056   3.401   4.085   5.056  0.2653 -0.3101  0.3762
 7067SOL    HW122057   3.454   4.005   5.050 -1.6485 -1.5990 -0.1882
 7067SOL    HW222058   3.371   4.086   5.147  1.4597  0.6045  0.7906
 7068SOL     OW22059   5.797   1.141   0.783 -0.4199 -0.4918  0.2431
 7068SOL    HW122060   5.809   1.063   0.837 -0.5125  0.4016  1.5844
 7068SOL    HW222061   5.783   1.106   0.694  2.3609 -1.9249  0.2353
 7069SOL     OW22062   3.674   6.980   1.351  0.7941  0.4106  0.1445
 7069SOL    HW122063   3.755   7.030   1.349  1.2781 -0.1746  2.1310
 7069SOL    HW222064   3.701   6.891   1.373 -0.2715 -0.1705 -0.7419
 7070SOL     OW22065   0.316   2.516   7.215  0.3078  0.0970  0.4071
 7070SOL    HW122066   0.293   2.488   7.303  1.6224  0.1910  0.7949
 7070SOL    HW222067   0.388   2.578   7.226 -0.9182  1.7883 -0.6047
 7071SOL     OW22068   1.565   3.394   4.835 -0.4069  0.3296  0.4960
 7071SOL    HW122069   1.504   3.328   4.868 -0.3992 -0.5499 -1.1282
 7071SOL    HW222070   1.552   3.394   4.740 -0.4029  2.6885  0.4306
 7072SOL     OW22071   1.681   4.238   3.353 -0.5243  0.3257  0.1945
 7072SOL    HW122072   1.607   4.223   3.411  0.6018 -1.2895  1.2941
 7072SOL    HW222073   1.732   4.157   3.357  0.8272  1.0533 -1.2194
 7073SOL     OW22074   2.105   5.523   0.893 -0.0875 -0.1344  0.0578
 7073SOL    HW122075   2.181   5.569   0.858 -1.4709  1.1922 -1.4115
 7073SOL    HW222076   2.096   5.446   0.838  0.0606 -0.1593  0.0696
 7074SOL     OW22077   1.103   6.169   5.151  0.1016  1.1735  0.1040
 7074SOL    HW122078   1.123   6.112   5.224  0.6187 -0.7534 -1.4706
 7074SOL    HW222079   1.030   6.223   5.182 -0.6519 -0.5897  1.5263
 7075SOL     OW22080   7.653   3.952   6.898 -0.6069  0.6460 -0.0503
 7075SOL    HW122081   7.579   4.013   6.892 -1.0216  0.0185 -2.1134
 7075SOL    HW222082   7.620   3.871   6.860  1.7100  0.9901 -3.1608
 7076SOL     OW22083   6.327   7.470   7.947  0.4602  0.9589  0.0115
 7076SOL    HW122084   6.312   7.479   8.041  1.0536 -1.2216  0.3718
 7076SOL    HW222085   6.421   7.458   7.938  0.0559 -4.4932 -0.1179
 7077SOL     OW22086   2.697   1.234   2.843 -0.1434  0.4863  0.3022
 7077SOL    HW122087   2.621   1.260   2.895  0.3261  1.0922  0.7092
 7077SOL    HW222088   2.661   1.209   2.758 -0.8071  0.6424  0.5311
 7078SOL     OW22089   3.387   6.385   7.640  0.0541  0.0964  0.2314
 7078SOL    HW122090   3.351   6.398   7.552  0.9112  0.5320 -0.0653
 7078SOL    HW222091   3.387   6.290   7.651  1.0869 -0.0307 -0.7376
 7079SOL     OW22092   2.690   7.665   5.087 -0.0868  0.1859 -0.0983
 7079SOL    HW122093   2.765   7.677   5.145 -0.9826 -0.6464  1.2880
 7079SOL    HW222094   2.722   7.694   5.001  2.3121 -1.5111  0.0918
 7080SOL     OW22095   7.796   2.382   3.473 -0.0939 -0.2095  0.4265
 7080SOL    HW122096   7.817   2.316   3.407  1.2476 -0.3038  0.9070
 7080SOL    HW222097   7.873   2.440   3.473 -2.1349  2.7737 -1.6421
 7081SOL     OW22098   6.872   0.492   3.573 -0.2076  0.0163  0.6027
 7081SOL    HW122099   6.946   0.449   3.616 -1.2185 -1.2328  1.1664
 7081SOL    HW222100   6.805   0.424   3.568 -0.9798  0.8369 -0.7854
 7082SOL     OW22101   2.028   2.173   5.149 -0.5877 -0.0702  0.0434
 7082SOL    HW122102   2.051   2.253   5.102 -1.1753 -0.4804 -0.9826
 7082SOL    HW222103   1.934   2.180   5.165 -0.8194 -0.9271 -0.8396
 7083SOL     OW22104   7.066   3.963   7.612  0.2805  0.6081 -0.0337
 7083SOL    HW122105   7.075   3.929   7.523 -1.8367 -0.7932  0.2117
 7083SOL    HW222106   6.986   4.016   7.609 -1.0636 -1.2066  1.4570
 7084SOL     OW22107   6.597   7.728   5.422  0.0400  0.6157 -0.1605
 7084SOL    HW122108   6.683   7.755   5.453  0.5580  0.0670 -1.1006
 7084SOL    HW222109   6.536   7.766   5.485  1.0794 -0.8631  1.8601
 7085SOL     OW22110   4.265   6.542   2.856  0.1115  0.1516 -0.6647
 7085SOL    HW122111   4.296   6.480   2.921  0.2482 -0.3792 -1.2233
 7085SOL    HW222112   4.332   6.540   2.787 -0.8468 -0.5779 -1.6199
 7086SOL     OW22113   2.517   7.485   4.717  0.2828  0.1891  0.5080
 7086SOL    HW122114   2.445   7.422   4.717  0.4055  0.0213 -0.5892
 7086SOL    HW222115   2.478   7.566   4.749  0.0962 -0.3969  1.8329
 7087SOL     OW22116   6.365   0.671   3.264 -0.1778  0.1411  0.6099
 7087SOL    HW122117   6.359   0.756   3.308  0.7423  1.4324 -1.5701
 7087SOL    HW222118   6.342   0.689   3.173  2.1982 -1.4499 -0.4205
 7088SOL     OW22119   2.967   2.509   6.113 -0.0020  0.1815 -0.4230
 7088SOL    HW122120   2.880   2.520   6.073  0.5213 -0.3961 -1.7522
 7088SOL    HW222121   2.969   2.418   6.143 -0.2723  0.5215  0.7001
 7089SOL     OW22122   6.402   6.986   7.425 -0.4756  0.3423 -0.2016
 7089SOL    HW122123   6.335   6.967   7.359 -0.4245 -0.2242 -0.0966
 7089SOL    HW222124   6.478   7.017   7.375  0.0923 -1.5117 -0.5635
 7090SOL     OW22125   0.393   7.577   5.135  0.4155  0.1121  0.1661
 7090SOL    HW122126   0.420   7.577   5.044  0.7752 -0.4529  0.2670
 7090SOL    HW222127   0.319   7.638   5.138  1.4495  1.4266 -0.1712
 7091SOL     OW22128   3.014   7.297   6.822  0.4277  0.3230 -0.0580
 7091SOL    HW122129   3.085   7.361   6.823  0.1918  0.5872 -0.0988
 7091SOL    HW222130   3.028   7.248   6.740  0.0312  0.9828 -0.5304
 7092SOL     OW22131   2.812   6.418   4.796 -0.9248 -0.7633 -0.1505
 7092SOL    HW122132   2.898   6.444   4.827 -1.0049 -0.1416 -0.4340
 7092SOL    HW222133   2.801   6.328   4.827 -0.7551 -0.3662  1.1001
 7093SOL     OW22134   4.527   0.343   3.865  0.1453 -0.1073  0.0422
 7093SOL    HW122135   4.527   0.389   3.781  2.5381 -0.6502 -0.3441
 7093SOL    HW222136   4.567   0.406   3.925 -1.8625  0.4065  0.9272
 7094SOL     OW22137   5.093   1.284   3.158 -0.7827 -0.2002 -0.5490
 7094SOL    HW122138   5.019   1.344   3.169 -0.0386  0.5768  0.3877
 7094SOL    HW222139   5.063   1.202   3.198  0.4883  1.4693  4.5454
 7095SOL     OW22140   6.134   4.142   0.457 -0.0592 -0.2514 -0.1579
 7095SOL    HW122141   6.134   4.227   0.500 -0.1308 -0.8943  1.1658
 7095SOL    HW222142   6.182   4.156   0.376  1.4365  0.6594  0.8342
 7096SOL     OW22143   1.713   2.296   3.723 -0.0660  0.2249 -0.1693
 7096SOL    HW122144   1.689   2.286   3.630  0.4798  2.0338 -0.5336
 7096SOL    HW222145   1.630   2.318   3.766  0.0215  1.4630 -0.5949
 7097SOL     OW22146   1.883   7.631   4.511 -0.3636  0.0379 -0.0284
 7097SOL    HW122147   1.847   7.563   4.453  0.3408 -1.1419  0.8635
 7097SOL    HW222148   1.806   7.674   4.548 -0.8253  0.0910 -1.0278
 7098SOL     OW22149   3.802   2.513   0.291  0.0210  0.5028 -0.3355
 7098SOL    HW122150   3.850   2.474   0.364 -1.3311 -0.7142 -0.0582
 7098SOL    HW222151   3.746   2.442   0.258 -3.6302  2.4983  1.0763
 7099SOL     OW22152   4.838   4.890   7.823  0.6797  0.0859 -0.3592
 7099SOL    HW122153   4.911   4.918   7.878 -0.5938  3.2316 -0.0496
 7099SOL    HW222154   4.771   4.861   7.885  1.0747 -1.3379 -0.5693
 7100SOL     OW22155   0.903   3.978   4.733  0.2814  0.1110  0.9409
 7100SOL    HW122156   0.991   3.987   4.770  0.4654 -0.7392  0.7388
 7100SOL    HW222157   0.863   3.907   4.782 -0.4756  0.7983  1.3439
 7101SOL     OW22158   1.639   2.542   3.152 -0.3191 -0.0254  0.3828
 7101SOL    HW122159   1.572   2.609   3.135 -0.5937 -0.3441  0.2040
 7101SOL    HW222160   1.712   2.565   3.095 -0.4153  0.1172  0.3173
 7102SOL     OW22161   0.187   4.207   5.238  0.6466  0.1142 -0.2782
 7102SOL    HW122162   0.258   4.204   5.303  0.1995  0.1752  0.2146
 7102SOL    HW222163   0.224   4.258   5.165  1.4741 -0.7317 -0.4730
 7103SOL     OW22164   6.306   6.553   1.611 -0.3303 -0.0522 -0.5254
 7103SOL    HW122165   6.364   6.518   1.679 -0.4249  3.2629  1.4864
 7103SOL    HW222166   6.362   6.611   1.560 -1.0219  0.0480 -1.1781
 7104SOL     OW22167   6.500   0.999   7.839 -0.0825 -0.1383 -0.1950
 7104SOL    HW122168   6.595   1.003   7.844 -0.1238  2.3401 -0.2414
 7104SOL    HW222169   6.471   0.979   7.928  0.4613 -0.1845 -0.0287
 7105SOL     OW22170   6.936   4.929   6.337 -0.1485 -0.5898 -0.0143
 7105SOL    HW122171   6.904   4.874   6.409 -0.6927 -0.2394  0.0189
 7105SOL    HW222172   7.004   4.983   6.378  0.4366 -1.2790 -0.0648
 7106SOL     OW22173   0.283   7.497   6.623  0.2446 -0.1517 -0.0293
 7106SOL    HW122174   0.368   7.494   6.578 -0.2549 -0.9073 -0.9496
 7106SOL    HW222175   0.289   7.427   6.688  0.8427  0.7224  0.8795
 7107SOL     OW22176   4.536   4.096   3.455 -0.1782  0.3543 -0.0462
 7107SOL    HW122177   4.519   4.190   3.470  0.8831  0.7826 -1.3156
 7107SOL    HW222178   4.462   4.052   3.495 -2.1843  1.8967 -1.8256
 7108SOL     OW22179   1.624   0.263   4.641  0.1073 -0.8781 -0.3599
 7108SOL    HW122180   1.549   0.312   4.608  0.5972  0.6522  0.7122
 7108SOL    HW222181   1.610   0.174   4.608 -0.7139 -0.0088 -2.5138
 7109SOL     OW22182   5.692   7.960   7.184 -0.3255  0.1339  0.0114
 7109SOL    HW122183   5.629   7.897   7.218  1.1225 -1.9851 -1.0102
 7109SOL    HW222184   5.776   7.915   7.190  0.4973  1.0890 -2.8050
 7110SOL     OW22185   4.344   7.349   6.172 -0.0757  0.5976  0.0380
 7110SOL    HW122186   4.371   7.293   6.245  1.1888  0.7457 -0.2821
 7110SOL    HW222187   4.378   7.304   6.094 -0.4486  0.9983 -0.3555
 7111SOL     OW22188   4.044   1.633   7.800  0.1129 -0.1469  0.3906
 7111SOL    HW122189   3.976   1.626   7.868  0.9254 -0.2471  1.2149
 7111SOL    HW222190   4.004   1.687   7.732 -1.3912 -1.5405  0.0989
 7112SOL     OW22191   0.368   0.182   0.128 -0.4893 -0.7049 -0.1192
 7112SOL    HW122192   0.330   0.196   0.215  2.3333  3.2342  0.7554
 7112SOL    HW222193   0.453   0.141   0.146  0.5135  0.9734 -0.8454
 7113SOL     OW22194   4.415   5.824   4.164  0.0399 -0.9253  0.1543
 7113SOL    HW122195   4.334   5.874   4.172  0.3775 -0.2468 -0.5585
 7113SOL    HW222196   4.389   5.744   4.119 -0.0408 -0.1579 -1.2214
 7114SOL     OW22197   2.787   1.133   3.837  0.0632 -0.5225 -0.2131
 7114SOL    HW122198   2.809   1.121   3.929  2.0419 -1.0181 -0.6974
 7114SOL    HW222199   2.719   1.069   3.819 -0.7915  0.0068  1.0300
 7115SOL     OW22200   1.002   6.356   7.433  0.0530  0.5821 -0.3461
 7115SOL    HW122201   0.942   6.292   7.472 -1.3245  2.4304  0.7454
 7115SOL    HW222202   1.072   6.366   7.497  0.8509 -0.5934 -1.0115
 7116SOL     OW22203   7.347   3.133   2.167 -0.1902  0.1725  0.4918
 7116SOL    HW122204   7.284   3.157   2.235  1.5369  1.9025  1.5532
 7116SOL    HW222205   7.339   3.202   2.101 -0.8744 -0.7551 -0.4266
 7117SOL     OW22206   3.325   3.009   6.152  0.1086  0.1617  0.5971
 7117SOL    HW122207   3.413   3.043   6.134  0.1222 -0.0201  0.3109
 7117SOL    HW222208   3.296   3.058   6.229 -0.2271  1.4641 -0.3307
 7118SOL     OW22209   5.440   5.535   7.889  0.1738 -0.2985  0.1516
 7118SOL    HW122210   5.389   5.471   7.840  0.5726  0.6465 -1.5507
 7118SOL    HW222211   5.507   5.483   7.934 -0.2394 -1.1906 -0.2516
 7119SOL     OW22212   0.808   0.370   0.298  0.1736  0.3627 -0.2132
 7119SOL    HW122213   0.799   0.317   0.219 -1.1496  1.3683 -0.7868
 7119SOL    HW222214   0.869   0.322   0.353  0.7909 -0.5841 -1.6678
 7120SOL     OW22215   6.222   0.238   1.660  0.3048  0.0915 -0.2705
 7120SOL    HW122216   6.169   0.163   1.688  0.3777  0.0900 -0.1355
 7120SOL    HW222217   6.158   0.304   1.633  0.2387  0.0135 -0.3068
 7121SOL     OW22218   6.326   0.184   3.959 -0.0732 -0.1954 -0.4795
 7121SOL    HW122219   6.363   0.269   3.935 -1.0731  1.3274  2.8119
 7121SOL    HW222220   6.364   0.164   4.045 -0.3811 -2.8134 -0.8568
 7122SOL     OW22221   1.803   4.382   6.425 -0.5881  0.2195 -0.2359
 7122SOL    HW122222   1.764   4.319   6.365 -2.3108  0.7104  0.3273
 7122SOL    HW222223   1.811   4.335   6.508 -0.0959  0.1725 -0.3040
 7123SOL     OW22224   3.365   0.037   7.575 -0.5096  0.1248 -0.2929
 7123SOL    HW122225   3.425  -0.031   7.543 -0.6343  0.6201 -1.6799
 7123SOL    HW222226   3.283  -0.010   7.592  0.0984 -0.4733  1.1568
 7124SOL     OW22227   7.806   1.078   5.833 -0.2606  0.5555  0.4358
 7124SOL    HW122228   7.788   0.991   5.869 -2.2933  1.0299  0.6584
 7124SOL    HW222229   7.720   1.119   5.822  0.5489  2.0037 -1.0629
 7125SOL     OW22230   3.213   0.778   0.146  0.0321 -0.3634 -0.0047
 7125SOL    HW122231   3.260   0.812   0.070 -0.8562 -0.1464 -0.4703
 7125SOL    HW222232   3.214   0.683   0.133 -0.2599 -0.3183 -0.3802
 7126SOL     OW22233   0.666   7.883   5.733  0.2609  0.1048  0.0054
 7126SOL    HW122234   0.679   7.878   5.638 -0.0377 -0.1329 -0.0204
 7126SOL    HW222235   0.593   7.944   5.744 -1.3988 -1.7676 -0.0434
 7127SOL     OW22236   7.838   2.926   6.846 -0.3312  0.1639  0.3008
 7127SOL    HW122237   7.786   2.923   6.766 -2.1795 -0.5232  1.4623
 7127SOL    HW222238   7.887   2.843   6.846 -0.2950  0.1812 -0.1069
 7128SOL     OW22239   4.309   2.939   7.581  0.4256  0.1120  0.1499
 7128SOL    HW122240   4.368   3.014   7.573 -0.1000  0.5361  0.1823
 7128SOL    HW222241   4.306   2.921   7.675 -0.7041  1.0845  0.3183
 7129SOL     OW22242   5.528   1.052   0.481  0.2578 -0.5027 -0.1551
 7129SOL    HW122243   5.505   1.018   0.568  1.7413 -1.6420 -0.1699
 7129SOL    HW222244   5.521   0.976   0.423 -0.1812  0.1266 -0.9410
 7130SOL     OW22245   6.867   1.578   6.063 -0.3196 -0.4601  0.0530
 7130SOL    HW122246   6.942   1.631   6.040 -0.4286 -0.0362  0.6643
 7130SOL    HW222247   6.821   1.564   5.980 -0.9508  1.4163  0.0557
 7131SOL     OW22248   0.608   4.457   7.906 -0.1718 -0.1647 -0.0807
 7131SOL    HW122249   0.551   4.512   7.852  1.8695  1.8044 -0.4185
 7131SOL    HW222250   0.646   4.394   7.845 -0.7272 -0.4067 -0.1768
 7132SOL     OW22251   3.247   1.520   6.669 -0.1391  0.3954 -0.1041
 7132SOL    HW122252   3.171   1.513   6.726  0.2102  0.0095  0.3124
 7132SOL    HW222253   3.313   1.566   6.721 -0.0495  0.6481 -0.4324
 7133SOL     OW22254   5.757   0.141   5.521 -0.2402 -0.2351 -0.1521
 7133SOL    HW122255   5.687   0.094   5.566 -0.0186 -0.8563 -0.4501
 7133SOL    HW222256   5.786   0.082   5.452 -1.4670  1.1993 -1.9850
 7134SOL     OW22257   7.147   5.455   2.737 -0.0585 -0.0993  0.5519
 7134SOL    HW122258   7.184   5.370   2.764 -2.0729 -1.0041  0.6198
 7134SOL    HW222259   7.173   5.515   2.807  1.1497 -0.7158  0.6657
 7135SOL     OW22260   7.980   2.394   2.971  0.2149  0.7111  0.5419
 7135SOL    HW122261   7.988   2.478   3.016 -0.0901  0.9417  0.1629
 7135SOL    HW222262   7.938   2.414   2.888 -0.0099  0.1605  0.5179
 7136SOL     OW22263   0.763   2.929   6.628  0.1489 -0.2975 -0.0225
 7136SOL    HW122264   0.845   2.880   6.621  0.1899 -0.1830 -0.3492
 7136SOL    HW222265   0.741   2.952   6.538 -0.6225 -0.9446 -0.0048
 7137SOL     OW22266   1.403   0.981   1.995 -0.1319 -0.3618 -0.1854
 7137SOL    HW122267   1.429   0.907   1.940  1.5845  0.6585 -0.8203
 7137SOL    HW222268   1.469   1.048   1.978 -2.2905  1.8001 -0.5530
 7138SOL     OW22269   0.539   2.845   4.282  0.0675  0.3613 -0.8917
 7138SOL    HW122270   0.514   2.862   4.191 -0.3899 -3.3043 -1.5936
 7138SOL    HW222271   0.620   2.795   4.276 -0.4256 -0.6831  0.6348
 7139SOL     OW22272   7.867   1.354   2.772 -0.0045  0.1651  0.1915
 7139SOL    HW122273   7.804   1.426   2.760  1.3357  0.9145 -3.7131
 7139SOL    HW222274   7.906   1.371   2.858 -0.7665  3.3040  0.0500
 7140SOL     OW22275   3.075   4.156   3.336  0.0020  0.2415 -0.4159
 7140SOL    HW122276   2.992   4.194   3.366 -0.6885 -0.6289 -1.1342
 7140SOL    HW222277   3.050   4.070   3.301  0.8856  0.7523 -2.4673
 7141SOL     OW22278   2.812   6.283   5.560  0.5638 -0.2337  0.0582
 7141SOL    HW122279   2.842   6.196   5.586  1.4135 -0.6822 -2.1768
 7141SOL    HW222280   2.800   6.277   5.465 -1.0690  1.6092  0.0718
 7142SOL     OW22281   1.759   3.549   3.683 -0.0606 -0.2187 -0.2972
 7142SOL    HW122282   1.756   3.636   3.722 -2.2198 -0.5153  0.3300
 7142SOL    HW222283   1.776   3.491   3.757  1.7913 -0.3627 -0.7711
 7143SOL     OW22284   3.616   7.680   2.011 -0.0343 -0.1447 -0.8154
 7143SOL    HW122285   3.607   7.645   1.923 -0.2658  0.8154 -1.1943
 7143SOL    HW222286   3.694   7.735   2.007  2.2563 -3.0575  0.6230
 7144SOL     OW22287   6.370   0.312   4.892  0.1745 -0.2024  0.3634
 7144SOL    HW122288   6.354   0.232   4.842 -0.2296  0.1071 -0.0116
 7144SOL    HW222289   6.321   0.300   4.973  0.2687 -0.4132  0.3893
 7145SOL     OW22290   3.340   3.218   1.182  0.3735 -0.8898 -0.0357
 7145SOL    HW122291   3.390   3.278   1.128 -2.4051 -0.1606 -2.0570
 7145SOL    HW222292   3.345   3.255   1.270  1.5466  0.3300 -0.5780
 7146SOL     OW22293   2.817   2.257   2.642 -0.4472 -0.4808  0.1261
 7146SOL    HW122294   2.849   2.338   2.682 -1.0230  0.3043 -0.9530
 7146SOL    HW222295   2.871   2.247   2.563 -0.7852 -0.8273 -0.0612
 7147SOL     OW22296   2.195   3.422   3.797 -0.4019  0.1003 -0.2681
 7147SOL    HW122297   2.190   3.384   3.709  3.0352 -0.4087 -0.3758
 7147SOL    HW222298   2.177   3.515   3.784 -0.9369 -0.1374 -1.3442
 7148SOL     OW22299   6.852   3.865   4.739 -0.2359 -0.0289 -0.0688
 7148SOL    HW122300   6.788   3.917   4.788  0.6686 -0.0464  1.1707
 7148SOL    HW222301   6.936   3.905   4.760  0.1129  0.6097 -2.4600
 7149SOL     OW22302   0.588   2.573   2.384  0.0536  0.3369  0.2915
 7149SOL    HW122303   0.498   2.605   2.392  0.8442  2.4821  1.1551
 7149SOL    HW222304   0.613   2.597   2.294 -0.2397 -0.3016  0.0354
 7150SOL     OW22305   3.547   3.580   4.819  0.1821 -0.2164  1.0234
 7150SOL    HW122306   3.511   3.508   4.870  0.1815 -0.7880  0.2356
 7150SOL    HW222307   3.477   3.646   4.818 -0.4474 -0.8828  0.3958
 7151SOL     OW22308   5.911   4.677   2.513  0.4955  0.8448  0.1197
 7151SOL    HW122309   5.938   4.752   2.460  1.0384  0.3651 -0.2902
 7151SOL    HW222310   5.823   4.656   2.482  1.2873 -0.2369 -1.5298
 7152SOL     OW22311   0.525   5.518   2.612  0.0278 -0.2355 -0.9795
 7152SOL    HW122312   0.572   5.434   2.612 -0.9271 -0.7879 -0.6812
 7152SOL    HW222313   0.472   5.515   2.692 -2.0164 -0.4982 -2.2601
 7153SOL     OW22314   1.987   6.539   0.523  0.2951  0.0483 -0.0043
 7153SOL    HW122315   1.918   6.602   0.543  0.4466  0.2874 -0.2213
 7153SOL    HW222316   2.059   6.593   0.489  1.4956  0.0843  2.4220
 7154SOL     OW22317   4.423   7.977   3.588  0.0439  0.0653  0.3510
 7154SOL    HW122318   4.391   7.926   3.513 -1.4066 -0.5882  1.3666
 7154SOL    HW222319   4.497   7.926   3.621  0.8711  0.5017 -0.7774
 7155SOL     OW22320   7.509   6.686   0.446 -0.4025 -0.2322 -0.1493
 7155SOL    HW122321   7.591   6.643   0.421 -0.9282 -0.5516 -1.4382
 7155SOL    HW222322   7.448   6.614   0.459 -0.0199 -0.1362  2.8701
 7156SOL     OW22323   4.226   0.849   0.239 -0.1411  0.2522 -1.0370
 7156SOL    HW122324   4.209   0.933   0.282  1.4226  0.0181  0.1015
 7156SOL    HW222325   4.146   0.799   0.252 -0.7509  1.2253 -0.9354
 7157SOL     OW22326   4.617   0.235   0.388 -0.4571  0.6080  0.3276
 7157SOL    HW122327   4.666   0.315   0.410 -0.5169  0.2548  1.8292
 7157SOL    HW222328   4.537   0.267   0.346 -0.7723  1.3933  1.4786
 7158SOL     OW22329   4.853   4.512   2.202  0.1105 -1.2784  0.3321
 7158SOL    HW122330   4.927   4.572   2.214 -0.2936 -0.4245 -1.1855
 7158SOL    HW222331   4.787   4.565   2.157  0.2142 -3.1717 -2.2281
 7159SOL     OW22332   6.531   4.501   7.589 -0.1829  0.5525 -0.1352
 7159SOL    HW122333   6.542   4.594   7.608  0.3209  0.2219  1.3043
 7159SOL    HW222334   6.444   4.495   7.549 -0.8154  1.4772  1.0314
 7160SOL     OW22335   7.716   6.581   1.493 -0.4605 -0.0498 -0.4223
 7160SOL    HW122336   7.635   6.633   1.485 -0.4477  0.0749  0.1795
 7160SOL    HW222337   7.785   6.646   1.507  0.0821 -0.0044 -2.9112
 7161SOL     OW22338   4.830   5.986   2.171 -0.9983 -0.4168  0.4261
 7161SOL    HW122339   4.770   5.935   2.117 -1.7122  0.4170  0.4180
 7161SOL    HW222340   4.779   6.009   2.249 -0.3607 -0.5762  0.9056
 7162SOL     OW22341   3.530   3.046   4.981  0.5348 -0.1041  0.2081
 7162SOL    HW122342   3.521   2.966   4.929 -1.7167 -0.1015  0.4972
 7162SOL    HW222343   3.552   3.014   5.069 -1.2282 -0.5245  0.5365
 7163SOL     OW22344   1.499   4.587   4.363 -0.5035  0.0739 -0.0258
 7163SOL    HW122345   1.424   4.583   4.305 -2.2987  1.4236  2.0731
 7163SOL    HW222346   1.462   4.586   4.452  2.1223 -3.1707  1.2672
 7164SOL     OW22347   3.773   2.147   2.311  0.3278 -0.2791  0.1160
 7164SOL    HW122348   3.771   2.089   2.387  0.2369  1.0666  1.1945
 7164SOL    HW222349   3.683   2.149   2.280 -0.3811  1.6574  2.0248
 7165SOL     OW22350   1.784   4.278   7.493  0.0487  1.0064 -0.1289
 7165SOL    HW122351   1.757   4.189   7.469  2.7782 -0.3246  1.3162
 7165SOL    HW222352   1.730   4.334   7.438 -0.6654 -1.5695 -2.2888
 7166SOL     OW22353   7.487   3.403   0.024  0.4849 -0.3853 -0.1227
 7166SOL    HW122354   7.463   3.488  -0.010  1.4229  0.6794  1.7212
 7166SOL    HW222355   7.429   3.341  -0.020 -1.4117  1.3820 -0.2126
 7167SOL     OW22356   1.476   7.235   3.543  0.0980  0.1808 -0.0668
 7167SOL    HW122357   1.559   7.195   3.570 -0.7563  0.6410  3.8348
 7167SOL    HW222358   1.502   7.314   3.495  1.9416  0.3490  1.1042
 7168SOL     OW22359   0.243   1.423   1.844  0.6635 -0.5970  0.1489
 7168SOL    HW122360   0.161   1.441   1.890  0.2809  0.0014 -0.7442
 7168SOL    HW222361   0.280   1.346   1.889 -0.2323 -0.6870  0.7439
 7169SOL     OW22362   2.800   7.995   7.459 -0.0162  0.8428 -0.0283
 7169SOL    HW122363   2.828   8.007   7.550  1.1060  2.5286 -0.5558
 7169SOL    HW222364   2.822   8.077   7.416 -0.6488  0.1218 -1.8171
 7170SOL     OW22365   4.228   0.147   7.007 -0.2462  0.1511  0.4059
 7170SOL    HW122366   4.245   0.211   7.076  0.1542 -0.2454  0.6768
 7170SOL    HW222367   4.134   0.158   6.987 -0.2184  0.7126  0.5515
 7171SOL     OW22368   0.775   0.047   7.384  0.6806  0.3090 -0.3198
 7171SOL    HW122369   0.861   0.048   7.341  0.4778 -0.4778 -0.7568
 7171SOL    HW222370   0.752  -0.045   7.389 -0.5073  0.5538 -0.9371
 7172SOL     OW22371   6.128   5.450   0.908  0.1398 -0.2762 -0.1325
 7172SOL    HW122372   6.073   5.443   0.830  0.4921 -0.0557 -0.4055
 7172SOL    HW222373   6.118   5.366   0.953  0.7522 -0.8144 -0.9731
 7173SOL     OW22374   3.632   7.942   6.022 -0.3176  0.4807 -1.0018
 7173SOL    HW122375   3.585   7.945   5.939  0.6725 -1.3792 -1.6969
 7173SOL    HW222376   3.669   7.853   6.025 -3.1268 -0.8181  3.0109
 7174SOL     OW22377   7.715   6.848   4.809 -0.4713 -0.0878 -0.5457
 7174SOL    HW122378   7.750   6.914   4.749 -0.8194 -0.0928 -0.7582
 7174SOL    HW222379   7.633   6.820   4.768 -0.6930 -0.1132 -0.0801
 7175SOL     OW22380   0.834   0.065   7.946  0.0257 -0.1638 -0.1728
 7175SOL    HW122381   0.908   0.089   8.001 -1.0546 -0.4316  1.4810
 7175SOL    HW222382   0.837   0.125   7.872  1.2788  0.4988  0.4003
 7176SOL     OW22383   6.509   5.630   6.677 -1.3813 -0.4190  0.3038
 7176SOL    HW122384   6.466   5.690   6.739 -1.4687  0.8700 -0.9357
 7176SOL    HW222385   6.596   5.668   6.665 -1.6918 -0.0853 -1.0594
 7177SOL     OW22386   5.877   3.965   6.388  0.2783 -0.1050  0.3493
 7177SOL    HW122387   5.800   4.009   6.352 -1.0137 -1.6985  1.0206
 7177SOL    HW222388   5.941   4.035   6.400 -2.0160  1.8714  2.3467
 7178SOL     OW22389   1.709   2.339   0.641 -0.0906  0.2879 -0.4894
 7178SOL    HW122390   1.781   2.294   0.597  0.5775  0.5586  0.3115
 7178SOL    HW222391   1.745   2.424   0.665 -1.3893  1.3679 -2.1431
 7179SOL     OW22392   5.988   0.670   3.855 -0.0359  0.1660  0.0870
 7179SOL    HW122393   5.964   0.688   3.946  0.9290  1.1657  0.1675
 7179SOL    HW222394   5.980   0.575   3.846  0.0752  0.0294  1.2771
 7180SOL     OW22395   2.402   6.897   2.768 -0.4916 -0.2691 -0.1484
 7180SOL    HW122396   2.386   6.991   2.769  0.7154 -0.0290  1.9259
 7180SOL    HW222397   2.475   6.884   2.829 -1.1374 -2.6243  0.2390
 7181SOL     OW22398   4.279   0.466   3.723 -0.0225  0.3501 -0.3969
 7181SOL    HW122399   4.188   0.436   3.718  0.0167  0.2831 -0.7542
 7181SOL    HW222400   4.277   0.538   3.785 -0.3889  0.5986 -0.6888
 7182SOL     OW22401   3.738   0.491   2.069 -0.9219 -0.7784  0.4675
 7182SOL    HW122402   3.675   0.432   2.108 -2.1279  0.4429  0.4415
 7182SOL    HW222403   3.725   0.483   1.974 -0.2685 -1.3259  0.4175
 7183SOL     OW22404   3.347   5.326   0.581 -0.0624 -0.7356  0.2947
 7183SOL    HW122405   3.337   5.287   0.668 -1.5323 -2.6052 -0.6277
 7183SOL    HW222406   3.267   5.378   0.569  0.0248 -0.6787 -0.0314
 7184SOL     OW22407   4.177   4.284   1.055 -0.1177  0.5958 -0.0013
 7184SOL    HW122408   4.142   4.195   1.056  0.3157  0.4043 -1.0799
 7184SOL    HW222409   4.222   4.292   1.140  0.3657 -0.4274 -0.1415
 7185SOL     OW22410   2.039   1.330   2.061  0.2927 -0.1712  0.4316
 7185SOL    HW122411   2.083   1.249   2.038  1.6879  0.6718  0.0229
 7185SOL    HW222412   2.109   1.395   2.069 -0.8626  1.2634 -0.3722
 7186SOL     OW22413   1.605   7.168   4.881 -0.7808  0.5533  0.2695
 7186SOL    HW122414   1.568   7.184   4.794 -3.5941 -2.7932  0.6105
 7186SOL    HW222415   1.640   7.079   4.876  0.8066  1.0052  2.0738
 7187SOL     OW22416   5.139   4.270   3.405 -0.0635  0.3829 -0.7832
 7187SOL    HW122417   5.130   4.361   3.433  3.4238  0.8007 -0.6151
 7187SOL    HW222418   5.128   4.219   3.485 -1.9666  0.5682 -0.8657
 7188SOL     OW22419   1.694   1.599   2.435  0.3340  0.0553 -0.3651
 7188SOL    HW122420   1.684   1.683   2.480  2.0422  0.3984 -0.5579
 7188SOL    HW222421   1.659   1.615   2.347 -0.7596  0.0880  0.0542
 7189SOL     OW22422   5.158   6.187   3.558  0.8586  0.0779 -0.7752
 7189SOL    HW122423   5.082   6.188   3.616 -0.4407 -0.3031 -2.4168
 7189SOL    HW222424   5.219   6.249   3.599  0.6838 -1.3370  1.8238
 7190SOL     OW22425   7.888   5.769   7.695 -0.6767  0.0546 -0.5821
 7190SOL    HW122426   7.815   5.771   7.634 -0.0689 -1.0031 -1.3836
 7190SOL    HW222427   7.949   5.705   7.657 -0.6177 -1.2241  1.4849
 7191SOL     OW22428   5.626   7.951   5.193  0.0662 -0.2183  0.0633
 7191SOL    HW122429   5.608   7.873   5.245 -2.9763  0.7058  0.5965
 7191SOL    HW222430   5.548   7.963   5.139  1.0880  1.6149 -1.1521
 7192SOL     OW22431   0.936   4.352   0.316  0.2091  0.3028  0.6797
 7192SOL    HW122432   0.913   4.290   0.385 -0.9550 -0.6812 -0.5427
 7192SOL    HW222433   0.859   4.408   0.307  0.9353  1.4160  1.1980
 7193SOL     OW22434   5.584   4.553   0.011  0.1323 -1.0701  0.3144
 7193SOL    HW122435   5.538   4.633  -0.015 -2.1333 -2.7321 -1.2168
 7193SOL    HW222436   5.578   4.551   0.106  0.8361  0.8825  0.4406
 7194SOL     OW22437   6.464   3.661   3.945 -0.2241  0.0341  0.1898
 7194SOL    HW122438   6.499   3.750   3.936 -1.6278  0.6580  0.6953
 7194SOL    HW222439   6.467   3.643   4.039 -0.8021 -0.1032  0.1812
 7195SOL     OW22440   6.830   0.060   5.030 -0.3316  0.5766  0.6392
 7195SOL    HW122441   6.904   0.086   5.084  2.4204 -0.6532 -2.2158
 7195SOL    HW222442   6.869   0.032   4.947 -3.9944 -0.5123 -0.9452
 7196SOL     OW22443   7.925   6.523   5.290 -0.8526  0.3353 -0.9684
 7196SOL    HW122444   7.996   6.470   5.254  0.9149  0.9022  1.4082
 7196SOL    HW222445   7.914   6.595   5.228  1.6188  0.9447 -0.7863
 7197SOL     OW22446   0.157   0.963   2.090 -0.0532  0.2826  0.6467
 7197SOL    HW122447   0.133   0.978   2.182 -0.6801 -0.8031  0.6815
 7197SOL    HW222448   0.196   1.045   2.061 -0.8166  0.9900  1.5820
 7198SOL     OW22449   0.915   4.783   2.531 -0.0846  0.4286 -0.3125
 7198SOL    HW122450   0.905   4.723   2.457  1.9666 -1.3342  0.7378
 7198SOL    HW222451   0.851   4.753   2.595 -0.5078  0.7187 -0.5927
 7199SOL     OW22452   7.077   7.392   6.306 -0.2502  0.6573 -0.7025
 7199SOL    HW122453   7.053   7.476   6.347  0.8943  1.1868 -1.0692
 7199SOL    HW222454   7.080   7.330   6.379  0.6320  1.3390 -0.1376
 7200SOL     OW22455   3.675   4.599   7.519  0.1490 -0.2826  0.3164
 7200SOL    HW122456   3.695   4.667   7.584  0.6424  0.3306 -0.4543
 7200SOL    HW222457   3.661   4.520   7.571 -0.8005  0.4708  1.2670
 7201SOL     OW22458   6.678   0.242   6.491 -0.3515  0.0465 -0.8571
 7201SOL    HW122459   6.638   0.319   6.451  0.3845  0.5380 -0.6710
 7201SOL    HW222460   6.706   0.272   6.578  2.1131  0.3073 -1.6529
 7202SOL     OW22461   7.891   5.596   4.419  0.1758 -0.2290  0.6168
 7202SOL    HW122462   7.888   5.685   4.384 -2.0426 -0.2985  0.4445
 7202SOL    HW222463   7.970   5.558   4.382 -0.5390  0.6236 -2.0281
 7203SOL     OW22464   3.924   7.124   2.443 -0.4528 -0.0047  0.7393
 7203SOL    HW122465   4.014   7.123   2.409 -1.0028 -0.2943 -0.7813
 7203SOL    HW222466   3.876   7.179   2.381 -1.6295 -1.0650  0.6838
 7204SOL     OW22467   5.274   4.602   4.496 -0.0889  0.2320  0.1450
 7204SOL    HW122468   5.354   4.554   4.478  0.0254  0.6674 -0.5193
 7204SOL    HW222469   5.281   4.627   4.588  0.9546  1.0398 -0.1355
 7205SOL     OW22470   3.521   2.807   1.011 -0.0644  0.0730 -0.4523
 7205SOL    HW122471   3.551   2.718   1.029  1.1873  0.2346 -1.5518
 7205SOL    HW222472   3.441   2.817   1.062  1.7577 -0.3874  2.8269
 7206SOL     OW22473   0.169   3.252   6.584 -0.2301 -0.2864 -0.3433
 7206SOL    HW122474   0.117   3.204   6.648  1.5586  1.1382  2.3644
 7206SOL    HW222475   0.178   3.340   6.621  2.5000  0.0611 -1.5749
 7207SOL     OW22476   6.740   6.883   1.430  0.2767  0.1869 -0.0564
 7207SOL    HW122477   6.793   6.914   1.503  0.4358 -0.2109 -0.0025
 7207SOL    HW222478   6.784   6.803   1.400 -1.7760 -1.7872  1.7831
 7208SOL     OW22479   6.438   3.484   3.005  0.2135 -0.3589 -0.3007
 7208SOL    HW122480   6.353   3.495   3.048 -0.4126 -0.4498 -1.4765
 7208SOL    HW222481   6.480   3.414   3.055 -0.3991 -0.3207  0.2929
 7209SOL     OW22482   6.960   1.046   3.032 -0.3131  0.0105 -0.5174
 7209SOL    HW122483   6.957   0.954   3.061  0.9584  0.3352  0.7918
 7209SOL    HW222484   6.943   1.042   2.938 -1.3608 -1.4495 -0.2988
 7210SOL     OW22485   6.335   2.152   1.029 -0.0945 -0.0749  0.2023
 7210SOL    HW122486   6.335   2.096   0.952 -3.6989  0.9897 -0.7896
 7210SOL    HW222487   6.305   2.237   0.997 -0.2752  0.8223  2.5281
 7211SOL     OW22488   6.061   3.921   1.621 -0.0825  0.2432  0.1228
 7211SOL    HW122489   5.988   3.889   1.568  1.2077 -0.8769 -1.0678
 7211SOL    HW222490   6.078   3.852   1.684 -0.2775  0.6767  0.6636
 7212SOL     OW22491   4.152   5.678   2.251 -0.6052  0.3537 -0.3355
 7212SOL    HW122492   4.151   5.695   2.157  0.0278  0.9472 -0.2473
 7212SOL    HW222493   4.244   5.691   2.277 -0.5433 -0.9132  0.1678
 7213SOL     OW22494   7.230   4.245   0.949  0.3043 -0.0988 -0.4055
 7213SOL    HW122495   7.191   4.225   0.864 -0.1486 -1.4416  0.0800
 7213SOL    HW222496   7.162   4.223   1.012  1.6460 -2.1022  0.4475
 7214SOL     OW22497   4.715   6.682   1.536  0.7006 -0.2713  0.3749
 7214SOL    HW122498   4.804   6.718   1.535  1.1883 -1.4151  0.2595
 7214SOL    HW222499   4.713   6.627   1.614  0.1816 -0.4743  0.2224
 7215SOL     OW22500   4.569   0.254   3.105 -0.3637 -0.7808  0.2498
 7215SOL    HW122501   4.497   0.233   3.164 -1.1767 -0.8833 -0.7584
 7215SOL    HW222502   4.613   0.170   3.088  1.9510 -0.3439  3.2583
 7216SOL     OW22503   6.604   5.079   0.343  0.1378  0.4768  0.1313
 7216SOL    HW122504   6.663   5.058   0.415  0.8885  0.2371 -0.5400
 7216SOL    HW222505   6.561   4.996   0.321 -0.3032  0.6058  0.4720
 7217SOL     OW22506   1.609   3.905   0.177  0.5547 -0.2431  0.1599
 7217SOL    HW122507   1.672   3.912   0.249  0.4910 -0.2165  0.2127
 7217SOL    HW222508   1.525   3.926   0.217  0.5769  0.1841 -0.0134
 7218SOL     OW22509   3.898   7.231   4.070 -0.2237 -0.4067  0.3433
 7218SOL    HW122510   3.989   7.250   4.093  0.0014 -1.1593  0.1115
 7218SOL    HW222511   3.904   7.179   3.989 -0.9522  1.3179 -0.8844
 7219SOL     OW22512   4.272   6.318   7.719  0.3704 -0.1876  0.6828
 7219SOL    HW122513   4.197   6.273   7.758 -0.5332  1.3010  0.7382
 7219SOL    HW222514   4.339   6.315   7.787 -0.2316 -0.0566  1.2957
 7220SOL     OW22515   5.768   2.930   3.794 -0.3533  0.0722  0.3710
 7220SOL    HW122516   5.752   3.025   3.798  1.0865  0.4659 -1.8308
 7220SOL    HW222517   5.689   2.892   3.832 -1.9449  2.1035 -0.6692
 7221SOL     OW22518   4.057   5.465   1.333 -0.2969  0.5063  0.2579
 7221SOL    HW122519   4.006   5.545   1.347  0.7362  0.8518  2.4019
 7221SOL    HW222520   4.054   5.419   1.417 -0.3933 -1.4618 -0.7642
 7222SOL     OW22521   6.223   0.089   7.540 -0.2771  0.2712  0.0947
 7222SOL    HW122522   6.300   0.121   7.495 -0.8539 -0.6316 -1.6543
 7222SOL    HW222523   6.198   0.159   7.600  0.5611  1.5396 -0.9872
 7223SOL     OW22524   1.915   1.717   5.955  0.3009 -0.4990 -0.2573
 7223SOL    HW122525   1.928   1.623   5.945 -1.0721 -0.6175 -1.2715
 7223SOL    HW222526   1.829   1.724   5.998  0.5182  0.2923  0.0685
 7224SOL     OW22527   2.239   3.855   2.938  0.3807 -0.4466  0.2083
 7224SOL    HW122528   2.164   3.798   2.954  1.2153 -1.5255  0.4201
 7224SOL    HW222529   2.215   3.938   2.978 -0.5846 -0.8633  0.5158
 7225SOL     OW22530   2.622   4.465   7.935 -0.8343  0.1903  0.1899
 7225SOL    HW122531   2.553   4.471   7.869 -1.3654  2.1129  0.8514
 7225SOL    HW222532   2.575   4.447   8.017 -0.3056 -0.8624  0.2741
 7226SOL     OW22533   2.169   2.298   6.512 -0.0602 -0.2352  0.0444
 7226SOL    HW122534   2.111   2.351   6.568 -0.8521 -0.2021 -0.7832
 7226SOL    HW222535   2.153   2.330   6.424 -0.1542 -1.4830 -0.4121
 7227SOL     OW22536   0.054   0.601   5.253  0.4909 -0.0969 -0.0388
 7227SOL    HW122537   0.101   0.520   5.274  2.7768  0.6107 -2.0171
 7227SOL    HW222538   0.084   0.624   5.166 -1.4063  2.0227 -0.2190
 7228SOL     OW22539   5.153   7.039   1.568 -0.0508 -0.2125 -0.0612
 7228SOL    HW122540   5.237   6.993   1.578 -0.0652 -0.3224 -0.4281
 7228SOL    HW222541   5.159   7.112   1.629 -0.0971 -0.7925  0.6602
 7229SOL     OW22542   1.725   5.127   4.041 -0.3143 -0.2794 -0.1011
 7229SOL    HW122543   1.695   5.115   4.131 -1.9111 -3.7572 -0.9394
 7229SOL    HW222544   1.693   5.050   3.994  2.7536  0.0126 -3.0935
 7230SOL     OW22545   2.471   2.637   4.125 -0.5821  0.2978 -0.5034
 7230SOL    HW122546   2.413   2.637   4.202 -0.7568 -0.1798 -0.6292
 7230SOL    HW222547   2.485   2.544   4.106 -0.2003  0.4135 -0.7986
 7231SOL     OW22548   1.117   1.450   0.606 -0.1524 -0.0269  0.1460
 7231SOL    HW122549   1.112   1.545   0.617  0.0089  0.1387 -1.0549
 7231SOL    HW222550   1.177   1.438   0.532 -1.3776 -0.9929 -0.7287
 7232SOL     OW22551   4.121   3.710   5.362  0.3052 -0.2078 -0.3141
 7232SOL    HW122552   4.081   3.797   5.364 -3.2752 -1.6002 -2.2298
 7232SOL    HW222553   4.126   3.689   5.269 -0.1531 -2.5152  0.1226
 7233SOL     OW22554   5.852   7.277   7.691 -0.3025  0.2749 -0.3381
 7233SOL    HW122555   5.765   7.244   7.670 -0.1436 -0.1393 -0.3651
 7233SOL    HW222556   5.898   7.277   7.607 -0.2691  0.4784 -0.3212
 7234SOL     OW22557   2.826   2.734   1.026  0.0898 -0.5049  0.4646
 7234SOL    HW122558   2.751   2.793   1.025  1.4074  1.2638 -0.6027
 7234SOL    HW222559   2.801   2.662   1.084 -1.6537  1.0106  1.6587
 7235SOL     OW22560   3.025   7.409   7.213  0.4233 -0.0979  0.1779
 7235SOL    HW122561   2.991   7.471   7.149  3.0532  0.8927 -0.3842
 7235SOL    HW222562   3.053   7.463   7.287  1.9216 -0.6488  0.0621
 7236SOL     OW22563   2.754   1.386   2.558  0.1335  0.2777  0.2755
 7236SOL    HW122564   2.682   1.327   2.579 -1.5567  1.8599 -0.7515
 7236SOL    HW222565   2.833   1.336   2.578 -1.1849 -2.3843 -0.6805
 7237SOL     OW22566   2.618   7.467   3.549  0.1957  0.2135  0.1284
 7237SOL    HW122567   2.589   7.494   3.462  1.3702 -0.2219 -0.4180
 7237SOL    HW222568   2.710   7.494   3.553  1.0045 -2.2949  0.1254
 7238SOL     OW22569   4.041   0.151   1.908  0.0222  0.2127  0.4912
 7238SOL    HW122570   4.084   0.229   1.943  0.7249  0.4499 -0.8026
 7238SOL    HW222571   3.964   0.185   1.862  0.9174  0.3057 -1.0070
 7239SOL     OW22572   0.230   2.337   2.558  0.3094  0.1841 -0.3600
 7239SOL    HW122573   0.209   2.272   2.624  0.0125 -0.5189 -1.1312
 7239SOL    HW222574   0.246   2.418   2.608 -2.9597  0.4937  0.4139
 7240SOL     OW22575   2.278   5.018   7.818  0.9238  0.1430  0.5431
 7240SOL    HW122576   2.344   4.949   7.816  1.3608  0.5409  1.0330
 7240SOL    HW222577   2.222   4.996   7.893  1.6519  0.8514  1.3052
 7241SOL     OW22578   2.656   5.796   0.607  0.1215  0.8998  0.0736
 7241SOL    HW122579   2.614   5.769   0.526  1.4125 -0.1649 -0.2868
 7241SOL    HW222580   2.624   5.885   0.623 -0.3137  1.0454 -1.4798
 7242SOL     OW22581   3.064   5.019   5.269  0.6122 -0.4527  0.1327
 7242SOL    HW122582   3.070   5.001   5.175 -1.8805  2.2872 -0.6806
 7242SOL    HW222583   3.074   4.932   5.310  0.9749 -1.8483 -2.6511
 7243SOL     OW22584   5.238   4.904   6.218  0.2256  0.1281  0.1789
 7243SOL    HW122585   5.307   4.964   6.187  0.1678  0.7351  1.1806
 7243SOL    HW222586   5.202   4.947   6.295 -1.5126 -0.0204 -0.5001
 7244SOL     OW22587   0.616   4.407   0.847 -0.6423 -0.1376  0.1097
 7244SOL    HW122588   0.644   4.399   0.938 -0.4656  0.1453  0.0806
 7244SOL    HW222589   0.521   4.404   0.851 -0.6358 -0.0914  0.3069
 7245SOL     OW22590   4.749   3.845   5.568  0.0511 -0.2045 -0.2459
 7245SOL    HW122591   4.825   3.895   5.599 -1.0954  1.0416  0.6714
 7245SOL    HW222592   4.764   3.837   5.473  0.9740  0.6523 -0.1996
 7246SOL     OW22593   5.491   7.022   3.396  0.0276  0.3738  0.2986
 7246SOL    HW122594   5.486   7.117   3.406 -2.1224  0.5385 -1.3917
 7246SOL    HW222595   5.446   7.005   3.313 -1.4199 -2.2744  1.5018
 7247SOL     OW22596   7.677   1.906   6.337 -0.2523  0.1761 -0.1336
 7247SOL    HW122597   7.688   1.911   6.432 -0.6550 -0.5076 -0.0423
 7247SOL    HW222598   7.733   1.833   6.310  0.0387  0.5162 -0.4528
 7248SOL     OW22599   3.871   2.450   2.921  0.0558 -0.1021  0.1744
 7248SOL    HW122600   3.945   2.433   2.980 -0.5559 -0.1499  0.9561
 7248SOL    HW222601   3.807   2.382   2.943 -0.9651  1.0373  0.8219
 7249SOL     OW22602   2.658   2.655   7.403  0.1901 -0.1190 -0.4876
 7249SOL    HW122603   2.693   2.569   7.427  0.4421 -0.0788 -0.7054
 7249SOL    HW222604   2.734   2.714   7.407 -0.2712  0.4111  1.2035
 7250SOL     OW22605   2.227   7.499   0.960  0.1299  0.3959 -0.6542
 7250SOL    HW122606   2.238   7.432   0.892 -0.6302  0.4596 -0.8471
 7250SOL    HW222607   2.244   7.452   1.042 -1.0796 -0.2263 -0.7324
 7251SOL     OW22608   6.677   6.041   5.994 -0.5506 -0.2096 -0.3211
 7251SOL    HW122609   6.724   6.121   6.016 -0.6389 -0.3271  0.3156
 7251SOL    HW222610   6.611   6.032   6.062 -2.2830  0.5579 -1.8224
 7252SOL     OW22611   1.434   3.640   3.722 -0.4229  0.2555 -0.2294
 7252SOL    HW122612   1.435   3.601   3.635 -0.5487  1.1611 -0.6562
 7252SOL    HW222613   1.348   3.619   3.757 -0.8854  1.0109 -0.8737
 7253SOL     OW22614   7.719   3.892   4.876  0.2665 -0.4732 -0.3863
 7253SOL    HW122615   7.702   3.965   4.936 -0.0291  0.6938 -1.8353
 7253SOL    HW222616   7.715   3.931   4.789  4.4699 -1.2598 -1.1614
 7254SOL     OW22617   4.996   1.277   2.903  0.0741  0.5552 -0.0842
 7254SOL    HW122618   4.992   1.363   2.862 -0.4787 -0.1704 -1.6372
 7254SOL    HW222619   5.073   1.281   2.960  0.3521  1.8986 -0.5274
 7255SOL     OW22620   5.371   6.556   0.955 -0.7610 -0.3980  0.4922
 7255SOL    HW122621   5.288   6.570   0.909  0.7950  1.2016 -2.1123
 7255SOL    HW222622   5.395   6.643   0.987  0.8206 -0.4176 -0.5570
 7256SOL     OW22623   6.697   2.998   6.506 -0.2897  0.2026  0.3648
 7256SOL    HW122624   6.739   3.070   6.553 -1.3081  1.0937 -0.0538
 7256SOL    HW222625   6.684   2.930   6.572  1.2119  0.1545  0.6366
 7257SOL     OW22626   4.812   2.323   2.257  0.0209  0.2194 -0.0566
 7257SOL    HW122627   4.863   2.379   2.199 -0.0839 -0.1170 -0.4776
 7257SOL    HW222628   4.873   2.254   2.282  0.6445  1.3364  1.7149
 7258SOL     OW22629   3.111   1.059   0.545  0.1235  0.1236 -0.1658
 7258SOL    HW122630   3.088   1.013   0.626 -0.9949 -0.6444 -0.8919
 7258SOL    HW222631   3.086   0.998   0.475 -0.9375  1.6309 -1.1583
 7259SOL     OW22632   4.825   6.388   0.303 -0.2266 -0.2396 -0.0795
 7259SOL    HW122633   4.903   6.333   0.293 -1.3393 -1.8740 -0.1565
 7259SOL    HW222634   4.854   6.459   0.361  1.6597 -0.0462 -1.1818
 7260SOL     OW22635   2.540   1.629   0.738  0.4436  0.3120 -0.3169
 7260SOL    HW122636   2.600   1.653   0.808 -0.5300  3.1578 -0.3204
 7260SOL    HW222637   2.458   1.672   0.762 -0.3160  0.1761 -2.5027
 7261SOL     OW22638   7.315   7.101   7.868  0.0417  0.6731  0.0411
 7261SOL    HW122639   7.273   7.109   7.954  1.7990 -1.2218  1.1795
 7261SOL    HW222640   7.258   7.042   7.819 -0.1542  0.4779  0.4954
 7262SOL     OW22641   7.023   0.720   5.313 -0.7536  0.4452 -0.2756
 7262SOL    HW122642   6.990   0.808   5.293  1.6240  2.0650  2.2256
 7262SOL    HW222643   6.969   0.692   5.388 -1.5980 -0.3380 -1.1550
 7263SOL     OW22644   6.378   1.106   5.282  0.5450 -0.3558  0.3189
 7263SOL    HW122645   6.356   1.015   5.303  1.5086 -0.4152  1.1527
 7263SOL    HW222646   6.421   1.102   5.197 -0.1446 -0.5696 -0.0266
 7264SOL     OW22647   0.268   6.157   2.479  0.1597  0.1283  0.7353
 7264SOL    HW122648   0.264   6.063   2.490  3.3157 -0.0293  1.6331
 7264SOL    HW222649   0.308   6.170   2.392  1.2190  0.5403  1.2606
 7265SOL     OW22650   2.049   2.925   0.076 -0.3702  0.0556 -0.1768
 7265SOL    HW122651   2.097   2.997   0.117 -1.2951  0.6211 -0.0555
 7265SOL    HW222652   1.972   2.967   0.038 -0.6612 -0.8044 -0.5398
 7266SOL     OW22653   6.425   4.628   2.407  0.3155 -0.0001 -0.0720
 7266SOL    HW122654   6.423   4.692   2.336  0.6277 -0.1174 -0.1892
 7266SOL    HW222655   6.332   4.611   2.427  0.1800 -1.1548 -1.5338
 7267SOL     OW22656   1.268   2.122   7.666 -0.0864 -0.0789  0.2875
 7267SOL    HW122657   1.319   2.168   7.732  1.3979  1.4583 -1.8188
 7267SOL    HW222658   1.196   2.181   7.645  0.4464  0.2253 -0.7077
 7268SOL     OW22659   5.536   3.656   3.152  0.4942 -0.3190 -0.1649
 7268SOL    HW122660   5.563   3.570   3.118 -0.1411 -1.1444  1.2936
 7268SOL    HW222661   5.561   3.718   3.084  3.0738 -1.3722 -0.3138
 7269SOL     OW22662   0.779   2.364   4.651 -0.2700 -0.8391  0.1736
 7269SOL    HW122663   0.811   2.423   4.719  2.1747 -1.0265 -0.7254
 7269SOL    HW222664   0.826   2.282   4.666 -2.0387 -1.9140  0.1169
 7270SOL     OW22665   0.588   5.122   7.055 -0.7393 -0.2644 -0.1310
 7270SOL    HW122666   0.542   5.122   7.139 -0.7337 -2.1568 -0.0982
 7270SOL    HW222667   0.680   5.133   7.078 -0.6521 -1.5518  0.1921
 7271SOL     OW22668   5.405   7.656   5.548  0.5092 -0.2985 -0.4344
 7271SOL    HW122669   5.368   7.737   5.581  1.4898 -0.1583  0.3741
 7271SOL    HW222670   5.461   7.624   5.619  3.3067  0.4086 -2.1556
 7272SOL     OW22671   6.548   6.489   7.089 -0.5846 -0.6581  0.4272
 7272SOL    HW122672   6.487   6.457   7.022  0.4085 -0.2640 -0.7087
 7272SOL    HW222673   6.507   6.568   7.123 -0.8186 -0.5212 -0.1627
 7273SOL     OW22674   2.303   2.998   3.804 -0.1597 -0.5878  0.1848
 7273SOL    HW122675   2.327   2.946   3.881  1.5376  1.0586  0.8272
 7273SOL    HW222676   2.290   2.933   3.735  0.9653 -1.9492  1.1872
 7274SOL     OW22677   6.501   6.127   3.512 -0.0660 -0.3708 -0.2913
 7274SOL    HW122678   6.451   6.053   3.547  0.5394 -1.0013 -0.7333
 7274SOL    HW222679   6.441   6.172   3.453 -0.4668 -0.4556  0.0500
 7275SOL     OW22680   1.208   2.421   5.317 -0.8193  0.0657  0.2446
 7275SOL    HW122681   1.157   2.346   5.349 -1.5990  0.8562  0.9131
 7275SOL    HW222682   1.253   2.455   5.395 -0.4896  0.3052 -0.0459
 7276SOL     OW22683   5.729   0.229   6.345 -0.1961 -0.8991  0.2019
 7276SOL    HW122684   5.635   0.234   6.362 -0.2520 -2.4025  0.4506
 7276SOL    HW222685   5.770   0.252   6.428 -0.3956 -2.3729  0.7378
 7277SOL     OW22686   6.818   4.114   3.125  0.1789 -0.4853 -0.5327
 7277SOL    HW122687   6.867   4.068   3.193 -0.2438 -1.9349 -1.1800
 7277SOL    HW222688   6.727   4.095   3.144 -0.1455  1.4588  0.1315
 7278SOL     OW22689   7.449   7.899   0.625 -0.0998 -0.4487  0.1459
 7278SOL    HW122690   7.468   7.993   0.627 -1.3437 -0.1454  3.6300
 7278SOL    HW222691   7.358   7.892   0.653 -0.3700 -2.6707 -1.0862
 7279SOL     OW22692   0.390   0.999   6.329  0.5114 -0.4419 -0.0193
 7279SOL    HW122693   0.302   1.010   6.295  0.8151 -0.5600 -0.8685
 7279SOL    HW222694   0.391   0.910   6.366  0.3857 -0.5792 -0.3465
 7280SOL     OW22695   2.223   4.175   4.955  0.0109  0.0240  0.7164
 7280SOL    HW122696   2.236   4.156   5.047  1.0780 -0.4055  0.4897
 7280SOL    HW222697   2.131   4.203   4.949 -0.0037  0.2975  1.9327
 7281SOL     OW22698   6.942   1.327   6.204 -0.5721 -0.0425  0.3315
 7281SOL    HW122699   6.926   1.345   6.296 -0.5053  1.2696  0.1001
 7281SOL    HW222700   6.922   1.409   6.159 -1.4303 -0.8847 -0.9306
 7282SOL     OW22701   2.255   6.103   0.597 -0.3198  0.1038  0.1270
 7282SOL    HW122702   2.182   6.160   0.621 -1.2455 -0.6724 -0.7722
 7282SOL    HW222703   2.222   6.050   0.525  1.4086  0.3074 -0.8780
 7283SOL     OW22704   1.036   4.852   3.729  0.1581  0.3590 -0.3724
 7283SOL    HW122705   1.074   4.890   3.649 -0.8309 -1.4939 -1.7946
 7283SOL    HW222706   0.942   4.846   3.710 -0.3800  1.4838  1.6469
 7284SOL     OW22707   0.847   0.902   1.955  0.1632 -0.6769  0.8342
 7284SOL    HW122708   0.859   0.942   2.041 -2.3864  0.2783  0.8266
 7284SOL    HW222709   0.794   0.965   1.907  1.1203 -1.4124 -1.3156
 7285SOL     OW22710   6.131   7.169   7.113 -0.1206 -0.0223 -0.1288
 7285SOL    HW122711   6.200   7.123   7.162  0.1225  0.7726  0.2830
 7285SOL    HW222712   6.145   7.261   7.133 -1.0794  0.1738 -0.3474
 7286SOL     OW22713   4.337   4.927   0.428  0.9527 -0.4828 -0.1410
 7286SOL    HW122714   4.243   4.914   0.444  0.3565  1.6302 -1.4707
 7286SOL    HW222715   4.376   4.930   0.515 -0.1565 -1.5553  0.4329
 7287SOL     OW22716   0.286   1.257   2.341 -0.3394  0.4057  0.3665
 7287SOL    HW122717   0.299   1.352   2.342  1.7174  0.1633  1.8254
 7287SOL    HW222718   0.218   1.241   2.406 -1.9166  0.9588 -1.0606
 7288SOL     OW22719   7.559   2.495   3.537 -0.1558  0.1678 -1.2309
 7288SOL    HW122720   7.584   2.578   3.577 -0.2348  0.2436 -1.3398
 7288SOL    HW222721   7.642   2.458   3.506 -0.0133 -0.1843 -0.4426
 7289SOL     OW22722   2.672   3.210   6.683  0.1599  0.4541  0.1982
 7289SOL    HW122723   2.582   3.234   6.662  0.2800  0.3117 -0.5235
 7289SOL    HW222724   2.685   3.238   6.773 -0.3163  1.3230  0.0024
 7290SOL     OW22725   1.332   1.944   2.709 -0.0597  0.7508 -0.4015
 7290SOL    HW122726   1.293   1.882   2.649  2.1691 -1.1646 -0.0283
 7290SOL    HW222727   1.346   1.894   2.790  1.3760  1.8613  0.0824
 7291SOL     OW22728   3.189   4.014   7.745 -0.0383 -0.4388  0.2373
 7291SOL    HW122729   3.159   4.022   7.654 -1.4954  0.7501  0.7734
 7291SOL    HW222730   3.280   4.043   7.742  0.3567 -1.6890 -1.0411
 7292SOL     OW22731   7.982   5.035   4.022  0.2041  0.0113 -0.2130
 7292SOL    HW122732   8.036   5.031   3.942  0.9819 -2.7437  0.3377
 7292SOL    HW222733   7.905   4.982   4.001 -1.7742  2.7580 -0.4974
 7293SOL     OW22734   5.599   4.298   2.981 -0.3858  0.3276 -0.1478
 7293SOL    HW122735   5.538   4.225   2.994  0.3341 -0.0628  1.2081
 7293SOL    HW222736   5.596   4.346   3.064  1.4702  0.0353  0.1170
 7294SOL     OW22737   3.439   1.331   4.636  0.0886  0.1210  0.0802
 7294SOL    HW122738   3.354   1.314   4.677  1.0645 -0.1946  2.0849
 7294SOL    HW222739   3.449   1.260   4.572 -0.8364 -0.2738  0.3524
 7295SOL     OW22740   4.954   6.541   3.279  0.2047  0.3137  0.1461
 7295SOL    HW122741   4.909   6.470   3.234  1.2593  0.4940 -1.2636
 7295SOL    HW222742   4.919   6.540   3.368  0.5786 -2.3282  0.3299
 7296SOL     OW22743   7.696   2.879   4.230  0.0932  0.3797  0.0574
 7296SOL    HW122744   7.730   2.841   4.311 -0.1599  0.7107  0.3226
 7296SOL    HW222745   7.745   2.960   4.219  0.8819 -0.1830 -0.6960
 7297SOL     OW22746   2.299   0.127   7.453  0.1547 -0.0518  0.5227
 7297SOL    HW122747   2.263   0.052   7.501  1.9215 -1.0439  0.4041
 7297SOL    HW222748   2.278   0.202   7.508 -2.8055 -0.3815  0.0222
 7298SOL     OW22749   7.615   2.472   3.214  1.0658  0.1804  0.0793
 7298SOL    HW122750   7.640   2.547   3.160 -1.1630  0.3155 -0.8727
 7298SOL    HW222751   7.529   2.494   3.248  0.3716 -1.9236 -0.1774
 7299SOL     OW22752   1.313   2.602   4.415  0.3424  0.2510  1.0554
 7299SOL    HW122753   1.240   2.635   4.363  2.1994  0.7821 -1.3981
 7299SOL    HW222754   1.302   2.507   4.413 -0.3910  0.3321  0.8877
 7300SOL     OW22755   4.800   6.704   7.804 -0.2853  0.4872  0.1160
 7300SOL    HW122756   4.879   6.667   7.765 -0.4185  0.7910 -0.4493
 7300SOL    HW222757   4.824   6.794   7.824  0.6795 -0.3526  3.2832
 7301SOL     OW22758   2.088   3.146   3.231  0.1597  0.0100 -0.1270
 7301SOL    HW122759   2.000   3.112   3.245  0.9766 -1.4601  2.1758
 7301SOL    HW222760   2.076   3.240   3.216 -1.7079  0.3991  2.8919
 7302SOL     OW22761   4.551   6.057   3.761  0.3236  0.4569  0.2714
 7302SOL    HW122762   4.506   6.006   3.829  1.5352  0.1105  0.8425
 7302SOL    HW222763   4.550   6.000   3.685 -3.1595  1.7382 -0.8794
 7303SOL     OW22764   3.534   0.855   4.658  0.1105  0.6044  0.0928
 7303SOL    HW122765   3.493   0.838   4.742  0.4916 -0.1261  0.1354
 7303SOL    HW222766   3.566   0.945   4.664 -1.2226  1.0860  0.1603
 7304SOL     OW22767   1.676   5.489   0.625 -0.0811 -0.3102 -0.8152
 7304SOL    HW122768   1.672   5.554   0.554  0.5034  0.1914 -0.3969
 7304SOL    HW222769   1.745   5.521   0.683 -1.1765 -0.2124  0.4766
 7305SOL     OW22770   5.913   4.911   3.010 -0.1994  0.1261  0.5381
 7305SOL    HW122771   5.889   4.945   3.097 -2.2393 -1.4524  0.6692
 7305SOL    HW222772   5.899   4.985   2.951  0.1627  0.9093  1.4052
 7306SOL     OW22773   2.704   2.692   3.380  0.3138 -0.2242 -0.6180
 7306SOL    HW122774   2.705   2.610   3.429  2.0189  0.1000 -0.0470
 7306SOL    HW222775   2.614   2.699   3.347 -0.1040 -1.8608  0.0642
 7307SOL     OW22776   1.928   2.497   0.987 -0.4179 -0.5384  0.2772
 7307SOL    HW122777   2.015   2.533   0.972 -0.4205  0.4052  2.1716
 7307SOL    HW222778   1.884   2.502   0.903  1.6319 -1.9336 -0.9719
 7308SOL     OW22779   6.203   6.870   0.622 -0.4546  0.4327  0.2610
 7308SOL    HW122780   6.208   6.790   0.570  0.5191 -0.5743  1.8040
 7308SOL    HW222781   6.199   6.941   0.558  0.3802 -0.7631 -1.1604
 7309SOL     OW22782   1.442   7.036   5.271  0.0336 -0.1870 -0.2112
 7309SOL    HW122783   1.467   7.007   5.359 -2.1896 -3.3890 -0.4457
 7309SOL    HW222784   1.370   7.097   5.285 -1.5218 -2.0364  0.2881
 7310SOL     OW22785   3.302   3.761   5.197  0.3996 -0.4287 -0.3678
 7310SOL    HW122786   3.310   3.856   5.198 -0.9934 -0.2833  1.0915
 7310SOL    HW222787   3.226   3.744   5.141  0.7353 -0.7151 -0.7477
 7311SOL     OW22788   7.989   5.821   4.693  0.3979 -0.4363 -0.4312
 7311SOL    HW122789   7.923   5.807   4.761  0.8493  0.6010  0.2461
 7311SOL    HW222790   7.946   5.880   4.630  0.2468 -0.7808 -0.6540
 7312SOL     OW22791   0.932   1.259   7.258 -0.4137 -0.1232 -0.1638
 7312SOL    HW122792   0.924   1.304   7.174 -0.2883  0.8288  0.3324
 7312SOL    HW222793   0.848   1.214   7.268 -0.0594 -1.0858 -1.2660
 7313SOL     OW22794   3.727   6.785   6.748 -0.1691  0.1606 -0.5794
 7313SOL    HW122795   3.662   6.837   6.702 -1.5911  0.9932  2.1143
 7313SOL    HW222796   3.751   6.716   6.687 -1.0574  1.7801 -2.8955
 7314SOL     OW22797   5.478   4.044   0.484  0.1361  0.6775  0.6817
 7314SOL    HW122798   5.429   4.040   0.403  1.6719  1.4679 -0.3314
 7314SOL    HW222799   5.567   4.019   0.460  1.1773  3.1553  1.5956
 7315SOL     OW22800   2.812   3.084   5.071 -0.1957  0.2876 -0.1522
 7315SOL    HW122801   2.759   3.155   5.034 -0.3322 -1.2654 -3.2506
 7315SOL    HW222802   2.759   3.006   5.059  1.1258 -0.7618  0.5719
 7316SOL     OW22803   1.840   0.247   0.327  0.6180  0.6521  0.0371
 7316SOL    HW122804   1.925   0.273   0.361 -0.3547  2.0624  1.5445
 7316SOL    HW222805   1.831   0.155   0.353  1.5590  0.5761  0.1086
 7317SOL     OW22806   1.904   4.850   3.252 -0.5669 -0.0017 -0.7890
 7317SOL    HW122807   1.961   4.882   3.322 -1.4727 -2.8975  1.4842
 7317SOL    HW222808   1.946   4.881   3.172  1.6488  1.8111  0.9066
 7318SOL     OW22809   4.034   0.163   0.683  0.3496  0.0192 -0.6186
 7318SOL    HW122810   3.986   0.240   0.713  0.6804  0.3895 -1.0205
 7318SOL    HW222811   3.983   0.131   0.608 -0.1128 -0.5106 -0.0857
 7319SOL     OW22812   0.826   1.659   5.202 -0.1667  0.1235  0.0272
 7319SOL    HW122813   0.910   1.704   5.193 -0.6915  1.0931 -0.1703
 7319SOL    HW222814   0.800   1.674   5.293  1.6027 -3.3796  1.3365
 7320SOL     OW22815   4.014   5.574   0.466 -0.0684 -0.9508 -0.5918
 7320SOL    HW122816   4.076   5.501   0.471 -1.3069 -1.9546  2.1095
 7320SOL    HW222817   4.008   5.606   0.556 -1.4987  0.8516 -1.2694
 7321SOL     OW22818   6.108   7.245   3.094  0.0662 -0.2507  0.4253
 7321SOL    HW122819   6.118   7.220   3.186  0.8854 -1.3701  0.0639
 7321SOL    HW222820   6.106   7.340   3.095 -0.8511 -0.2600  1.6855
 7322SOL     OW22821   5.825   6.063   5.620  0.4720 -0.4246 -0.5100
 7322SOL    HW122822   5.889   6.129   5.647 -0.9822  0.2318  1.5944
 7322SOL    HW222823   5.780   6.102   5.545  0.8331  0.1950 -0.4112
 7323SOL     OW22824   2.187   2.473   0.371  0.0283  0.0376  0.6835
 7323SOL    HW122825   2.250   2.494   0.440  0.5659  0.0458  0.2041
 7323SOL    HW222826   2.213   2.386   0.340 -1.4830 -0.8716  1.8796
 7324SOL     OW22827   0.605   0.415   6.920  0.5161 -0.2244 -0.4938
 7324SOL    HW122828   0.551   0.347   6.961  0.9438 -0.3826 -0.1887
 7324SOL    HW222829   0.640   0.465   6.994  3.0967 -1.8625 -0.4924
 7325SOL     OW22830   3.171   1.178   0.138 -0.3314 -0.3697  0.1852
 7325SOL    HW122831   3.153   1.236   0.212 -0.3698 -0.7397  0.4673
 7325SOL    HW222832   3.085   1.162   0.098 -0.2879 -0.0254 -0.0500
 7326SOL     OW22833   2.053   7.579   6.298  0.0056  0.0083  0.1934
 7326SOL    HW122834   2.001   7.501   6.316  1.2399 -0.2465  3.3745
 7326SOL    HW222835   2.002   7.651   6.333  1.0287 -0.0675  1.9701
 7327SOL     OW22836   6.536   5.385   4.606 -0.3354  0.2704 -0.1847
 7327SOL    HW122837   6.620   5.403   4.649 -0.1077 -1.3113  0.0778
 7327SOL    HW222838   6.554   5.397   4.512  0.4846 -1.0174 -0.2240
 7328SOL     OW22839   7.995   4.466   4.459  0.0110 -0.1585 -0.3279
 7328SOL    HW122840   7.943   4.386   4.453  0.2780 -0.4347  0.8114
 7328SOL    HW222841   7.981   4.498   4.548 -0.3088  1.2302 -0.8504
 7329SOL     OW22842   3.361   2.800   0.717 -1.0960  0.1265 -0.3778
 7329SOL    HW122843   3.452   2.776   0.732 -1.8044 -1.0237  2.7637
 7329SOL    HW222844   3.350   2.882   0.765 -1.5542  0.7103 -1.4389
 7330SOL     OW22845   0.804   4.959   6.620  0.2470 -0.1160 -0.1667
 7330SOL    HW122846   0.850   4.949   6.537 -0.4874  2.1811 -0.9485
 7330SOL    HW222847   0.747   5.035   6.606  0.2441  0.4609  2.4966
 7331SOL     OW22848   0.784   6.849   7.727  0.2476  0.0334  0.5936
 7331SOL    HW122849   0.814   6.815   7.812  0.1375  1.4425  1.2300
 7331SOL    HW222850   0.860   6.838   7.669  0.0482 -1.7423  0.6013
 7332SOL     OW22851   4.741   5.106   1.373 -0.2536 -0.4939  0.4146
 7332SOL    HW122852   4.793   5.184   1.352 -0.3725 -0.1930  1.2209
 7332SOL    HW222853   4.743   5.101   1.468 -2.2314 -0.0971  0.5139
 7333SOL     OW22854   4.877   7.827   6.526  0.0236  0.1569 -0.4695
 7333SOL    HW122855   4.960   7.784   6.546 -0.1056  0.4205  0.7436
 7333SOL    HW222856   4.817   7.795   6.593 -0.4775  1.0368 -0.4787
 7334SOL     OW22857   1.199   5.953   6.940 -0.4966 -0.1338  0.2785
 7334SOL    HW122858   1.274   5.950   7.000 -0.5357  0.2046  0.3422
 7334SOL    HW222859   1.172   6.044   6.938  0.2189  0.0792 -1.1432
 7335SOL     OW22860   6.621   5.096   2.991  0.8603  0.1200 -0.4606
 7335SOL    HW122861   6.542   5.150   2.991 -0.6652 -1.9737  0.3868
 7335SOL    HW222862   6.630   5.065   2.901  0.1716 -0.3427 -0.3779
 7336SOL     OW22863   2.033   6.916   2.183 -0.0824  0.4195 -0.4280
 7336SOL    HW122864   2.048   6.924   2.277 -0.2407  1.3329 -0.4747
 7336SOL    HW222865   2.002   6.827   2.172  1.1573 -0.1291  0.2231
 7337SOL     OW22866   7.782   0.908   7.985  0.2936 -0.1857 -0.8915
 7337SOL    HW122867   7.695   0.934   8.016  0.6596  0.7057 -0.5612
 7337SOL    HW222868   7.797   0.961   7.907 -0.2883 -1.8397 -2.1668
 7338SOL     OW22869   7.360   3.406   4.815  0.2646  0.1646  0.1536
 7338SOL    HW122870   7.431   3.348   4.787  0.2138  0.6670 -1.0995
 7338SOL    HW222871   7.282   3.350   4.817  0.2721  0.1012 -0.7567
 7339SOL     OW22872   1.825   2.883   7.450  0.1205 -0.2013  0.2991
 7339SOL    HW122873   1.820   2.844   7.363  0.9988 -2.6753  1.2570
 7339SOL    HW222874   1.776   2.823   7.506  0.6413  0.6538  1.7331
 7340SOL     OW22875   1.018   3.438   3.018  0.1021 -0.0935  0.5162
 7340SOL    HW122876   1.100   3.389   3.022 -0.2154 -0.6327  0.4356
 7340SOL    HW222877   0.960   3.394   3.080 -0.5250 -0.4685 -0.3104
 7341SOL     OW22878   4.822   2.891   4.727  0.8881  0.3605 -0.3820
 7341SOL    HW122879   4.904   2.852   4.758  0.3173  0.0752  0.8351
 7341SOL    HW222880   4.836   2.904   4.633  1.9061 -0.7206 -0.4083
 7342SOL     OW22881   0.649   0.632   3.721 -0.1669 -0.2252  0.0116
 7342SOL    HW122882   0.723   0.642   3.662  0.6040 -0.0557  0.9734
 7342SOL    HW222883   0.688   0.632   3.809 -1.1027 -2.1329  0.4726
 7343SOL     OW22884   7.740   2.883   3.347 -0.1062  0.8026 -0.7153
 7343SOL    HW122885   7.775   2.939   3.416 -0.0223  0.8312 -0.7814
 7343SOL    HW222886   7.722   2.943   3.274  0.4542  0.6696 -0.9667
 7344SOL     OW22887   5.152   1.258   1.518 -0.0938 -1.2033  0.2971
 7344SOL    HW122888   5.103   1.249   1.436  0.6014 -2.5060 -0.0004
 7344SOL    HW222889   5.123   1.342   1.553 -0.9157 -0.9301 -0.9397
 7345SOL     OW22890   3.824   2.346   6.666  0.0054 -0.1294  0.1447
 7345SOL    HW122891   3.841   2.316   6.577 -0.2760  0.5463 -0.1432
 7345SOL    HW222892   3.882   2.293   6.721  0.1550 -0.5738 -0.4366
 7346SOL     OW22893   7.957   0.560   4.405  0.0081  0.2019 -0.4964
 7346SOL    HW122894   7.929   0.651   4.397 -0.7695  0.1859  1.6037
 7346SOL    HW222895   8.052   0.565   4.417  0.0137  0.7086 -0.7315
 7347SOL     OW22896   2.311   7.667   6.351  0.2738 -0.1724  0.5661
 7347SOL    HW122897   2.226   7.641   6.314  0.6538 -0.1811 -0.3354
 7347SOL    HW222898   2.341   7.738   6.293  0.3989  0.5698  1.5123
 7348SOL     OW22899   5.032   3.444   7.150 -0.0134  0.4052  0.3523
 7348SOL    HW122900   5.119   3.425   7.183  0.0742 -1.6148 -0.8544
 7348SOL    HW222901   5.046   3.475   7.061 -0.5246 -0.6195 -0.1053
 7349SOL     OW22902   1.035   2.257   0.778  0.2680 -0.3528 -0.1730
 7349SOL    HW122903   1.122   2.284   0.750  0.1106 -0.1577 -0.4728
 7349SOL    HW222904   0.975   2.319   0.738 -0.0196 -0.5378 -0.0412
 7350SOL     OW22905   1.128   0.239   1.432 -0.4640  0.1422  0.0004
 7350SOL    HW122906   1.047   0.196   1.404 -0.1659 -0.1207 -0.4566
 7350SOL    HW222907   1.196   0.202   1.376  0.3050 -1.0667  1.6555
 7351SOL     OW22908   1.579   4.656   0.892  0.2776 -0.0074  0.6061
 7351SOL    HW122909   1.620   4.625   0.812 -0.3492  1.1743 -0.1903
 7351SOL    HW222910   1.635   4.622   0.962  1.2325 -0.4543 -0.3513
 7352SOL     OW22911   7.962   3.974   5.342  0.4404 -0.1077  0.5836
 7352SOL    HW122912   7.870   3.970   5.316  0.6557 -0.3808 -0.1639
 7352SOL    HW222913   7.984   4.067   5.338  0.3002 -0.0821  0.4036
 7353SOL     OW22914   3.615   7.125   3.281  0.3122  0.5369 -0.2448
 7353SOL    HW122915   3.678   7.191   3.253  1.1301 -0.0621  0.1425
 7353SOL    HW222916   3.653   7.042   3.251 -0.6007  0.2217 -0.5560
 7354SOL     OW22917   5.417   1.368   1.059 -0.8356  0.6895 -0.5632
 7354SOL    HW122918   5.359   1.294   1.075 -0.5851  0.9843  2.0347
 7354SOL    HW222919   5.401   1.428   1.132  2.3239  1.0378 -0.0314
 7355SOL     OW22920   7.584   0.221   2.808  0.1703 -0.1038 -0.3276
 7355SOL    HW122921   7.569   0.134   2.771  2.3513 -0.3643 -0.7126
 7355SOL    HW222922   7.577   0.280   2.733 -0.0498 -0.0810 -0.2912
 7356SOL     OW22923   4.277   4.809   7.519  0.1747 -0.1467  0.2149
 7356SOL    HW122924   4.370   4.787   7.528 -0.0275 -0.6333  1.2352
 7356SOL    HW222925   4.235   4.724   7.503 -0.0546  0.1279 -0.7402
 7357SOL     OW22926   4.029   5.035   5.657 -0.2528 -0.0969  0.1179
 7357SOL    HW122927   3.965   5.095   5.695 -0.0358 -0.6409  1.4047
 7357SOL    HW222928   4.102   5.090   5.631 -0.2176  0.2620  0.9370
 7358SOL     OW22929   3.348   4.840   6.149  0.5320 -0.3052  0.0171
 7358SOL    HW122930   3.421   4.901   6.158 -0.2075  0.6399 -0.2554
 7358SOL    HW222931   3.270   4.892   6.168 -0.1796 -0.9656 -0.9444
 7359SOL     OW22932   0.953   4.820   0.169 -0.2667  0.0079 -0.0669
 7359SOL    HW122933   1.032   4.769   0.188 -0.5152 -0.2082  0.4234
 7359SOL    HW222934   0.896   4.804   0.245 -0.9597 -0.1871 -0.6251
 7360SOL     OW22935   0.362   6.106   2.726  0.3833 -0.0130 -0.3033
 7360SOL    HW122936   0.330   6.138   2.642 -0.7408 -0.5377 -0.0995
 7360SOL    HW222937   0.452   6.080   2.710  0.3193  0.3169 -1.2311
 7361SOL     OW22938   3.893   4.121   6.089 -0.2480  0.5498  0.0635
 7361SOL    HW122939   3.838   4.200   6.095  0.4416  0.9684  1.4511
 7361SOL    HW222940   3.982   4.154   6.093  0.1268 -0.1585 -1.7719
 7362SOL     OW22941   3.206   6.759   1.209 -0.0663  0.1320 -0.6258
 7362SOL    HW122942   3.172   6.827   1.266  1.5498  1.4366 -1.1541
 7362SOL    HW222943   3.296   6.785   1.190  0.0809 -1.2963 -2.1723
 7363SOL     OW22944   6.815   3.512   7.627  0.6613 -0.2554  0.5599
 7363SOL    HW122945   6.888   3.575   7.620 -0.7246  1.3455 -0.2714
 7363SOL    HW222946   6.831   3.467   7.710  0.4378  2.9929  2.5601
 7364SOL     OW22947   1.602   2.204   7.722  0.3874 -0.4010 -0.1567
 7364SOL    HW122948   1.531   2.260   7.689  0.5063 -1.0577 -1.6246
 7364SOL    HW222949   1.666   2.202   7.651 -0.1215 -3.2616 -0.6601
 7365SOL     OW22950   6.651   3.989   2.068 -0.4371  0.1561  0.1617
 7365SOL    HW122951   6.620   4.044   2.140  0.8180  1.0895  0.0196
 7365SOL    HW222952   6.730   3.946   2.102  0.8450  1.4982 -0.9878
 7366SOL     OW22953   4.707   7.833   7.105  0.1158  0.0351 -0.5048
 7366SOL    HW122954   4.790   7.873   7.079 -0.1652  0.0185 -1.4694
 7366SOL    HW222955   4.640   7.894   7.074 -0.2456 -0.1177 -0.0363
 7367SOL     OW22956   2.829   2.139   0.614  0.4825 -0.6592 -0.2453
 7367SOL    HW122957   2.874   2.220   0.639 -0.4960 -0.1926  0.0759
 7367SOL    HW222958   2.808   2.097   0.698  1.9666 -1.8321 -0.4200
 7368SOL     OW22959   0.710   7.043   6.115  0.3976  0.4081 -0.3525
 7368SOL    HW122960   0.672   7.071   6.198  1.2668 -0.4207  0.3453
 7368SOL    HW222961   0.680   6.953   6.104  2.7517 -0.5767  0.6479
 7369SOL     OW22962   4.262   3.220   6.103 -0.2255  0.0638  0.3077
 7369SOL    HW122963   4.214   3.301   6.120 -0.2037  0.2908 -0.6425
 7369SOL    HW222964   4.351   3.238   6.133 -0.6937 -0.3364  2.0137
 7370SOL     OW22965   4.569   1.526   1.965 -0.1038 -0.4660  0.4217
 7370SOL    HW122966   4.575   1.536   2.060  0.4405 -1.3508  0.4859
 7370SOL    HW222967   4.607   1.440   1.947 -0.1055 -0.2635 -0.6095
 7371SOL     OW22968   3.432   1.676   2.106 -0.3005  0.1528  0.2543
 7371SOL    HW122969   3.437   1.586   2.073  1.4164  0.0543  0.6815
 7371SOL    HW222970   3.513   1.688   2.156 -1.0968  1.5138  1.3129
 7372SOL     OW22971   6.804   1.016   2.328 -0.7751 -0.5428  0.2516
 7372SOL    HW122972   6.800   1.045   2.237  0.9750 -2.0527 -0.3761
 7372SOL    HW222973   6.867   1.076   2.369  1.3839 -2.1064 -0.5686
 7373SOL     OW22974   6.221   5.945   2.668 -0.9784  0.1442  0.1467
 7373SOL    HW122975   6.228   6.013   2.602 -0.5947  0.1660  0.2085
 7373SOL    HW222976   6.257   5.984   2.747 -2.3662  0.4719  0.6420
 7374SOL     OW22977   0.218   7.397   3.977 -0.2666  0.0826  0.0020
 7374SOL    HW122978   0.135   7.420   3.933 -0.9786 -1.4228  0.4969
 7374SOL    HW222979   0.250   7.480   4.012 -1.9484  0.5958  0.4234
 7375SOL     OW22980   0.680   5.323   4.905  0.0286 -0.1660  0.6716
 7375SOL    HW122981   0.757   5.283   4.865  0.3456  0.9033  0.1726
 7375SOL    HW222982   0.640   5.374   4.834 -0.6350  0.0029  1.1561
 7376SOL     OW22983   4.091   0.932   2.878 -0.2404  0.1847  0.2795
 7376SOL    HW122984   4.096   0.849   2.831  1.4193  0.2611  0.2699
 7376SOL    HW222985   4.178   0.970   2.869 -0.3779  0.9843  2.0162
 7377SOL     OW22986   7.680   4.162   1.500  0.2166  0.0007 -0.0376
 7377SOL    HW122987   7.722   4.247   1.514 -0.0791  0.3693 -1.2034
 7377SOL    HW222988   7.744   4.111   1.451 -0.4443  0.3816 -1.3587
 7378SOL     OW22989   6.817   1.097   2.037  0.2525  0.3614  0.3663
 7378SOL    HW122990   6.725   1.082   2.016  0.2935  0.6577 -0.0330
 7378SOL    HW222991   6.865   1.048   1.969  0.3893  0.4111  0.4260
 7379SOL     OW22992   1.567   7.524   3.613  0.2473  0.2465  0.3328
 7379SOL    HW122993   1.477   7.555   3.607 -0.2639 -1.1780  0.1918
 7379SOL    HW222994   1.620   7.594   3.575 -0.9123  0.6137 -0.6593
 7380SOL     OW22995   5.068   6.037   1.630 -0.4458  0.2185  0.4906
 7380SOL    HW122996   4.992   6.017   1.575 -1.3602  1.6123  1.1739
 7380SOL    HW222997   5.030   6.058   1.716  0.9004 -1.3801  1.5332
 7381SOL     OW22998   2.002   7.812   2.196  0.2597  0.9670 -0.0687
 7381SOL    HW122999   1.971   7.879   2.256  0.6117  1.3807 -0.3413
 7381SOL    HW223000   2.012   7.858   2.112 -0.8680  0.2561 -0.6141
 7382SOL     OW23001   5.625   2.344   4.914  0.1862 -0.0477  0.0150
 7382SOL    HW123002   5.679   2.281   4.866  0.2893  0.9260 -1.1807
 7382SOL    HW223003   5.575   2.390   4.847  0.6623  1.6665  0.7731
 7383SOL     OW23004   5.670   5.151   7.710  0.3974 -0.4566  0.1110
 7383SOL    HW123005   5.610   5.157   7.635 -0.8440 -1.2300  0.9989
 7383SOL    HW223006   5.739   5.091   7.681 -0.3275 -1.1245 -0.2607
 7384SOL     OW23007   3.927   2.636   4.412  0.1702 -0.6318 -0.2396
 7384SOL    HW123008   3.842   2.672   4.386  1.1480  0.0711 -2.7550
 7384SOL    HW223009   3.963   2.701   4.473 -0.0206  0.4028 -1.2036
 7385SOL     OW23010   6.603   6.733   3.091 -0.4893 -0.4683  0.7590
 7385SOL    HW123011   6.579   6.825   3.078 -0.0244 -0.3742  0.5097
 7385SOL    HW223012   6.554   6.686   3.025 -0.6918 -0.3896  0.8543
 7386SOL     OW23013   7.502   7.521   6.011  0.4771 -0.5671  0.1438
 7386SOL    HW123014   7.579   7.563   5.973  0.2554 -0.2039  0.0866
 7386SOL    HW223015   7.463   7.589   6.066 -0.9028 -0.0984 -1.3589
 7387SOL     OW23016   7.850   0.226   3.595 -0.2469  0.1304  0.5509
 7387SOL    HW123017   7.847   0.212   3.500 -2.5915  2.5062  0.1447
 7387SOL    HW223018   7.896   0.309   3.606  0.1178 -0.1830  1.5304
 7388SOL     OW23019   2.275   2.651   6.190  0.1642  0.5690  0.1537
 7388SOL    HW123020   2.222   2.715   6.143 -0.5064  0.7931  1.1896
 7388SOL    HW223021   2.297   2.586   6.124 -0.9863  0.7373 -0.4273
 7389SOL     OW23022   1.995   4.969   2.959 -0.2014  0.6811  0.0141
 7389SOL    HW123023   1.905   4.957   2.930 -0.1987 -0.0262  0.2672
 7389SOL    HW223024   2.045   4.978   2.878 -0.3001 -0.4796 -0.1998
 7390SOL     OW23025   6.802   6.996   0.790 -0.4806  0.8839  0.4812
 7390SOL    HW123026   6.862   6.935   0.834 -2.5618 -2.1877 -0.5615
 7390SOL    HW223027   6.725   7.000   0.847 -0.5281  2.3226  0.3540
 7391SOL     OW23028   2.632   2.263   1.542  0.5431  0.2171 -0.0997
 7391SOL    HW123029   2.592   2.176   1.553  2.9962 -0.9311  0.4427
 7391SOL    HW223030   2.671   2.261   1.455 -0.1603  1.1554 -0.4519
 7392SOL     OW23031   6.672   4.918   1.196  0.2371 -0.5230 -0.0111
 7392SOL    HW123032   6.644   4.976   1.267 -1.4128  1.1030 -1.8289
 7392SOL    HW223033   6.627   4.836   1.212 -1.3198  0.3058  0.1000
 7393SOL     OW23034   4.748   1.716   1.294 -0.5470  0.3295  0.1113
 7393SOL    HW123035   4.782   1.797   1.257 -0.6923  0.4097  0.1548
 7393SOL    HW223036   4.812   1.693   1.362 -1.1057  1.0163  0.8847
 7394SOL     OW23037   4.267   6.072   6.977  0.1895  0.1142  0.0382
 7394SOL    HW123038   4.326   6.015   7.027  0.0741  0.9804  1.1925
 7394SOL    HW223039   4.188   6.077   7.030  0.1825  1.3084 -0.0662
 7395SOL     OW23040   5.295   7.390   0.552 -0.3743  0.2444 -0.0958
 7395SOL    HW123041   5.324   7.436   0.630  0.6650 -0.4897 -0.0217
 7395SOL    HW223042   5.201   7.403   0.549 -0.4106  0.3469  1.2348
 7396SOL     OW23043   4.406   3.232   7.488 -0.9733  0.4941 -0.1095
 7396SOL    HW123044   4.494   3.242   7.523 -1.0326  0.3400  0.0888
 7396SOL    HW223045   4.352   3.291   7.541 -1.1657 -0.1812  0.4634
 7397SOL     OW23046   4.951   2.587   4.020 -0.3226 -0.3266 -0.2724
 7397SOL    HW123047   4.927   2.520   4.084 -1.5449  0.4751  0.1581
 7397SOL    HW223048   5.042   2.608   4.040 -0.2609 -1.0794  0.2827
 7398SOL     OW23049   0.568   6.025   6.484  0.2632  0.2313 -0.5037
 7398SOL    HW123050   0.650   6.031   6.436  0.5072 -0.6676 -0.2153
 7398SOL    HW223051   0.505   5.990   6.421  0.2246  0.4246 -0.5744
 7399SOL     OW23052   6.406   3.231   6.734  0.0589  0.2200 -0.2007
 7399SOL    HW123053   6.331   3.283   6.705 -0.6388 -1.0153 -0.6599
 7399SOL    HW223054   6.450   3.205   6.653  0.8126  0.6577  0.0534
 7400SOL     OW23055   7.255   3.192   1.755  0.4168  0.2797 -0.1060
 7400SOL    HW123056   7.267   3.097   1.762 -1.3521  0.0065 -0.3769
 7400SOL    HW223057   7.235   3.220   1.844  1.2819  0.4798  0.0395
 7401SOL     OW23058   2.850   7.993   0.640 -0.1335 -0.0753 -0.4530
 7401SOL    HW123059   2.921   7.964   0.697 -0.3423  0.2849 -0.0067
 7401SOL    HW223060   2.888   7.993   0.553 -0.3231 -2.4575 -0.6155
 7402SOL     OW23061   4.738   0.007   7.925 -0.1850  0.2158 -0.2615
 7402SOL    HW123062   4.722  -0.014   8.017  0.3149 -1.1121 -0.4551
 7402SOL    HW223063   4.831  -0.014   7.912 -0.7918 -1.8734 -1.6238
 7403SOL     OW23064   4.241   2.480   0.693  0.0683  0.3731 -0.6633
 7403SOL    HW123065   4.272   2.483   0.784  2.2089  1.3428 -1.3715
 7403SOL    HW223066   4.162   2.426   0.697 -0.0060  0.5431  1.7969
 7404SOL     OW23067   7.833   5.621   0.304  0.3466  0.0148 -0.0692
 7404SOL    HW123068   7.775   5.696   0.317  1.8336  1.1671  0.2280
 7404SOL    HW223069   7.849   5.619   0.210  2.7953  2.1360  0.1756
 7405SOL     OW23070   7.202   7.393   3.829  0.0083 -0.0998  0.1936
 7405SOL    HW123071   7.127   7.333   3.828  0.5225 -0.7746  0.7407
 7405SOL    HW223072   7.184   7.455   3.758 -1.2279 -0.0360  0.5353
 7406SOL     OW23073   6.144   6.398   4.527 -0.2071 -0.5733 -0.3975
 7406SOL    HW123074   6.093   6.335   4.476 -1.2942 -1.5714  1.7513
 7406SOL    HW223075   6.124   6.376   4.618  0.9429  1.6392  0.4733
 7407SOL     OW23076   2.396   4.178   0.331 -0.1493 -0.0770  0.0234
 7407SOL    HW123077   2.310   4.169   0.291  0.0825  0.2315 -0.5573
 7407SOL    HW223078   2.384   4.146   0.421 -1.0828  0.7960  0.2305
 7408SOL     OW23079   2.337   7.192   7.475  0.3193 -0.9225  0.0226
 7408SOL    HW123080   2.313   7.101   7.492  0.8234 -0.7277  2.0400
 7408SOL    HW223081   2.255   7.241   7.489  0.6528 -0.8029  1.8095
 7409SOL     OW23082   6.318   1.276   1.015  0.2069 -0.2195 -0.3277
 7409SOL    HW123083   6.242   1.251   0.963 -0.1045  0.6215 -0.3001
 7409SOL    HW223084   6.305   1.370   1.032  0.8728 -0.2352  0.3070
 7410SOL     OW23085   7.725   5.307   4.229  0.4949  0.1011 -0.1936
 7410SOL    HW123086   7.719   5.400   4.206 -1.6967 -0.1147 -0.6321
 7410SOL    HW223087   7.819   5.289   4.227  0.9651  2.2316 -0.3603
 7411SOL     OW23088   7.622   4.477   2.814 -0.5703 -0.7954  0.3190
 7411SOL    HW123089   7.678   4.450   2.741  1.0547 -0.5827  1.4276
 7411SOL    HW223090   7.651   4.423   2.887 -3.2704 -2.1781  0.4804
 7412SOL     OW23091   0.184   7.036   2.248 -0.2362  0.2803  0.3531
 7412SOL    HW123092   0.215   7.010   2.335  1.1048 -1.2176 -0.5255
 7412SOL    HW223093   0.145   7.123   2.261 -2.1060 -0.8138  2.8563
 7413SOL     OW23094   3.374   5.109   4.769  0.0202 -0.0062  0.1570
 7413SOL    HW123095   3.386   5.017   4.744 -0.1575  0.1577 -0.5736
 7413SOL    HW223096   3.289   5.111   4.813  0.4262 -0.3380  0.9639
 7414SOL     OW23097   4.760   6.729   6.304  0.0837  0.6622 -0.7863
 7414SOL    HW123098   4.691   6.782   6.344 -0.2307  0.4595 -1.0517
 7414SOL    HW223099   4.760   6.755   6.212 -0.3684 -0.1045 -1.0109
 7415SOL     OW23100   3.012   3.499   7.429 -0.3354  0.4239 -0.1962
 7415SOL    HW123101   3.097   3.512   7.471  0.5036 -0.7888 -1.4099
 7415SOL    HW223102   3.001   3.404   7.428 -0.5738  0.4379 -2.1777
 7416SOL     OW23103   2.265   1.357   0.875  0.0997 -0.0750 -0.5199
 7416SOL    HW123104   2.258   1.268   0.909  0.0475  0.5853  1.3384
 7416SOL    HW223105   2.217   1.355   0.793  0.1560 -1.7696 -0.5569
 7417SOL     OW23106   6.264   5.082   6.639  0.0447 -0.4429 -0.0469
 7417SOL    HW123107   6.353   5.067   6.670 -0.3808 -0.1825  1.3686
 7417SOL    HW223108   6.275   5.124   6.553  1.3018  0.6185  0.5963
 7418SOL     OW23109   5.276   7.889   3.900 -0.3365 -0.2110 -0.8410
 7418SOL    HW123110   5.274   7.945   3.977  1.0947 -0.7608 -0.3606
 7418SOL    HW223111   5.210   7.822   3.916  0.8556 -1.1172  0.5934
 7419SOL     OW23112   0.424   1.339   6.945  0.6971 -0.0626  0.1550
 7419SOL    HW123113   0.447   1.381   7.028  0.3699  1.4816 -0.4987
 7419SOL    HW223114   0.498   1.357   6.888 -0.1469  1.1083 -0.6287
 7420SOL     OW23115   5.944   3.072   1.991  0.1617  0.8767  0.4292
 7420SOL    HW123116   5.969   3.154   2.035  0.4725 -0.2413  2.4635
 7420SOL    HW223117   5.859   3.050   2.029  0.1365  0.2041 -0.0198
 7421SOL     OW23118   7.714   5.397   3.126 -0.3794 -0.3504 -0.3200
 7421SOL    HW123119   7.806   5.373   3.138 -0.6129 -1.2248 -0.1672
 7421SOL    HW223120   7.681   5.333   3.063 -1.3534 -1.2597  1.0616
 7422SOL     OW23121   2.428   2.804   7.056 -0.3307 -0.5160 -0.2773
 7422SOL    HW123122   2.384   2.845   6.981 -0.3486 -0.1174 -0.0539
 7422SOL    HW223123   2.427   2.872   7.124  2.0190  0.0958 -0.7587
 7423SOL     OW23124   6.659   0.144   1.625  0.9548  0.3607  0.1703
 7423SOL    HW123125   6.605   0.148   1.705  1.0231  0.2860  0.2200
 7423SOL    HW223126   6.748   0.131   1.657  0.8880 -0.3993  0.0522
 7424SOL     OW23127   4.484   3.948   2.548 -0.1856  1.0389 -0.8514
 7424SOL    HW123128   4.469   4.037   2.581 -1.6889  1.2494 -1.9690
 7424SOL    HW223129   4.400   3.903   2.564  1.3116 -1.0493  2.1026
 7425SOL     OW23130   3.334   5.741   5.108 -0.1545 -0.5213 -0.3512
 7425SOL    HW123131   3.370   5.656   5.133  0.6284  0.0223  0.4313
 7425SOL    HW223132   3.389   5.805   5.153  0.3302  0.4787 -2.2514
 7426SOL     OW23133   2.687   3.626   4.048  0.7879 -0.4665  0.4851
 7426SOL    HW123134   2.736   3.611   4.129  1.1329 -2.4347 -0.0362
 7426SOL    HW223135   2.614   3.565   4.053  1.1088 -0.9909 -0.8982
 7427SOL     OW23136   3.605   1.112   4.709 -0.2977 -0.4392 -0.5831
 7427SOL    HW123137   3.579   1.204   4.713  0.3761 -0.2485 -0.4139
 7427SOL    HW223138   3.701   1.115   4.700 -0.1602 -1.1269  0.5357
 7428SOL     OW23139   3.921   3.039   4.995  0.1275  0.3573  0.1993
 7428SOL    HW123140   3.911   3.134   4.982  3.0340  0.7954  0.4101
 7428SOL    HW223141   3.919   3.028   5.090 -1.3374  0.0008  0.1487
 7429SOL     OW23142   1.346   6.583   1.540 -0.4273 -0.7022  0.2424
 7429SOL    HW123143   1.269   6.583   1.597  1.2886 -1.5357  2.7607
 7429SOL    HW223144   1.323   6.523   1.469 -2.2495 -0.5269  0.6281
 7430SOL     OW23145   5.554   6.925   4.358 -0.1164  0.0570  0.0317
 7430SOL    HW123146   5.527   6.971   4.438 -0.4492  1.9215 -1.0999
 7430SOL    HW223147   5.479   6.933   4.299  0.3223 -0.8312 -0.6643
 7431SOL     OW23148   2.019   7.034   0.201  0.4182  0.5713  0.2706
 7431SOL    HW123149   2.044   7.095   0.132 -3.8605  0.7501 -1.4057
 7431SOL    HW223150   2.002   7.090   0.277  0.2536  1.0141 -0.0864
 7432SOL     OW23151   7.607   5.960   6.312  0.0752 -0.6683  0.2175
 7432SOL    HW123152   7.590   5.938   6.403 -0.7833 -1.0875 -0.0360
 7432SOL    HW223153   7.644   6.048   6.314 -0.3509 -0.5084  0.9280
 7433SOL     OW23154   1.040   4.381   5.865 -1.1446  0.5865 -0.4089
 7433SOL    HW123155   0.973   4.429   5.817 -1.9252  1.5975  1.5384
 7433SOL    HW223156   1.087   4.449   5.914  0.5166 -0.2367 -0.7952
 7434SOL     OW23157   4.462   4.989   7.763  0.1036  0.1149 -0.0251
 7434SOL    HW123158   4.540   5.030   7.802 -1.1082  0.8608  1.7487
 7434SOL    HW223159   4.497   4.926   7.701  2.1157  1.1417 -0.0213
 7435SOL     OW23160   1.373   6.933   4.889 -0.5823  0.3486  0.2613
 7435SOL    HW123161   1.343   6.844   4.876 -0.4265  0.3544 -0.1894
 7435SOL    HW223162   1.452   6.925   4.943  1.0871 -0.0667 -2.0830
 7436SOL     OW23163   1.809   5.902   4.398  0.4482  0.3015 -0.5320
 7436SOL    HW123164   1.752   5.977   4.417  2.2302  1.2205  1.6230
 7436SOL    HW223165   1.886   5.940   4.356  0.8055 -0.5051 -0.6234
 7437SOL     OW23166   0.744   3.733   1.266 -0.5179 -0.7369 -0.3300
 7437SOL    HW123167   0.756   3.664   1.201 -3.5985 -0.4865 -1.3027
 7437SOL    HW223168   0.782   3.811   1.225  1.9107 -1.5109  0.2890
 7438SOL     OW23169   6.229   7.020   1.199 -0.0367 -0.3710 -0.5107
 7438SOL    HW123170   6.224   6.941   1.145  2.8416 -0.4727 -0.7739
 7438SOL    HW223171   6.312   7.011   1.246 -1.2558  0.9187  2.0800
 7439SOL     OW23172   2.535   0.749   5.812  0.4211  0.2104  0.2231
 7439SOL    HW123173   2.625   0.718   5.801  0.1786 -0.5869  0.4512
 7439SOL    HW223174   2.536   0.839   5.777  0.4891 -0.9336 -3.0223
 7440SOL     OW23175   3.427   1.967   0.074 -0.3744  0.1096  0.3266
 7440SOL    HW123176   3.452   1.875   0.065  1.1037  0.4653  0.4819
 7440SOL    HW223177   3.413   1.980   0.168 -0.8455 -0.0153  0.2750
 7441SOL     OW23178   1.666   5.450   6.203  0.1253 -0.0733  0.3732
 7441SOL    HW123179   1.707   5.364   6.203 -1.6550 -0.9758 -0.9280
 7441SOL    HW223180   1.575   5.433   6.226 -0.2386  1.5024  0.2184
 7442SOL     OW23181   0.503   6.815   6.289  0.3254  0.0339  0.0909
 7442SOL    HW123182   0.510   6.910   6.301  0.9501  0.0939 -0.7137
 7442SOL    HW223183   0.536   6.799   6.201 -1.4875 -0.7316 -0.4921
 7443SOL     OW23184   7.687   0.409   2.292 -0.1506 -0.4628  0.3690
 7443SOL    HW123185   7.758   0.394   2.354  0.4939  1.6735  0.2068
 7443SOL    HW223186   7.640   0.485   2.326 -1.3204 -0.7754 -0.4546
 7444SOL     OW23187   6.372   5.664   6.254 -0.1312  0.3457  0.2348
 7444SOL    HW123188   6.393   5.609   6.330  1.2505 -0.4729 -0.6986
 7444SOL    HW223189   6.342   5.602   6.188  1.7390  0.6204 -0.9373
 7445SOL     OW23190   4.737   4.132   1.204 -0.3028 -0.0503 -0.0453
 7445SOL    HW123191   4.706   4.223   1.203 -2.4905 -0.7453  0.4681
 7445SOL    HW223192   4.662   4.080   1.176  0.1529 -1.8947  1.8588
 7446SOL     OW23193   7.101   5.586   2.376  0.1777 -0.7500  0.1263
 7446SOL    HW123194   7.171   5.646   2.401  0.4612 -0.7205 -0.7034
 7446SOL    HW223195   7.130   5.550   2.292 -0.3323 -1.4932  0.2615
 7447SOL     OW23196   1.795   4.028   2.911 -0.3214  0.2781 -0.1621
 7447SOL    HW123197   1.839   3.999   2.832 -0.6389 -1.3348  0.2215
 7447SOL    HW223198   1.736   4.097   2.881 -1.3040 -1.0994 -1.5749
 7448SOL     OW23199   5.244   0.841   7.803 -0.3504  0.3177 -0.2188
 7448SOL    HW123200   5.315   0.809   7.748 -1.4376 -0.5553 -1.1718
 7448SOL    HW223201   5.172   0.858   7.742 -0.8761  1.4706  0.6768
 7449SOL     OW23202   7.242   1.817   4.884 -0.2683  0.1583 -0.2960
 7449SOL    HW123203   7.301   1.765   4.938 -1.3451  0.4443  1.1997
 7449SOL    HW223204   7.258   1.907   4.910 -0.1267  0.3916 -1.1536
 7450SOL     OW23205   2.321   5.330   1.893  0.3315 -0.0408 -0.2882
 7450SOL    HW123206   2.414   5.315   1.877  0.8111  0.9183  1.3552
 7450SOL    HW223207   2.302   5.279   1.972 -0.7466 -0.8288 -1.0265
 7451SOL     OW23208   1.297   2.514   5.557  0.1647  0.2760  0.7156
 7451SOL    HW123209   1.362   2.581   5.577  0.1377  0.1632  1.1884
 7451SOL    HW223210   1.216   2.563   5.540  0.3334  0.4075  0.2649
 7452SOL     OW23211   6.813   4.105   0.883  0.0081 -0.1321 -0.3577
 7452SOL    HW123212   6.727   4.066   0.867  0.2164 -0.4956 -0.6035
 7452SOL    HW223213   6.874   4.048   0.837  0.5588 -0.8696  1.1992
 7453SOL     OW23214   1.228   2.345   7.366  0.4146  0.4490  0.1623
 7453SOL    HW123215   1.237   2.438   7.389  0.5808 -0.0895  2.4492
 7453SOL    HW223216   1.310   2.305   7.396 -1.1841 -1.0761  2.8275
 7454SOL     OW23217   3.462   4.397   6.593  0.0760  0.1280 -0.0822
 7454SOL    HW123218   3.462   4.343   6.672  0.5765  0.2712  0.0161
 7454SOL    HW223219   3.553   4.400   6.565 -0.1002  0.0478 -0.6901
 7455SOL     OW23220   4.960   0.691   6.871 -0.0341  0.2847  0.2339
 7455SOL    HW123221   5.035   0.749   6.881 -0.1329  0.3303  0.6953
 7455SOL    HW223222   4.932   0.703   6.780  0.6709  0.0800 -0.0149
 7456SOL     OW23223   3.717   5.002   0.487  0.1491 -0.3814  0.2318
 7456SOL    HW123224   3.742   5.075   0.544 -1.6997 -0.0353  0.6684
 7456SOL    HW223225   3.742   5.031   0.399 -0.2557  0.6642  0.4388
 7457SOL     OW23226   3.467   6.112   3.154 -0.5736 -0.1280  1.2328
 7457SOL    HW123227   3.409   6.041   3.126  0.7598 -1.5445  1.9136
 7457SOL    HW223228   3.411   6.190   3.153 -1.2801 -0.5093 -2.6703
 7458SOL     OW23229   5.062   0.101   4.835  0.2557  0.1075  0.1620
 7458SOL    HW123230   5.047   0.050   4.755 -0.2080  0.6886 -0.1365
 7458SOL    HW223231   5.066   0.192   4.804 -0.3247  0.3759  0.8513
 7459SOL     OW23232   0.519   3.272   6.906 -0.2419 -0.0713  0.1582
 7459SOL    HW123233   0.429   3.302   6.911 -0.8971 -2.0294  2.2502
 7459SOL    HW223234   0.513   3.184   6.868  0.8885  0.1118 -0.4838
 7460SOL     OW23235   1.296   6.351   6.201  0.5645  0.1890  0.1376
 7460SOL    HW123236   1.311   6.266   6.241  0.0701 -0.3708 -0.8173
 7460SOL    HW223237   1.201   6.353   6.184  0.9068 -0.1863 -2.1745
 7461SOL     OW23238   2.056   1.737   6.551  0.4845  0.5421  0.1687
 7461SOL    HW123239   1.983   1.705   6.604  0.9315 -1.3588 -0.2678
 7461SOL    HW223240   2.015   1.761   6.467  0.3537 -0.7144 -0.1497
 7462SOL     OW23241   7.098   5.804   6.610 -1.1541 -0.1667 -0.2186
 7462SOL    HW123242   7.025   5.846   6.655 -0.6082  0.1932  0.3266
 7462SOL    HW223243   7.173   5.860   6.627 -0.6434 -0.7947 -0.3695
 7463SOL     OW23244   4.971   4.470   6.694 -0.3559 -0.3669  0.3965
 7463SOL    HW123245   5.044   4.524   6.726 -0.7035 -0.9030  2.2050
 7463SOL    HW223246   4.994   4.381   6.722 -0.2695 -1.0353 -1.6749
 7464SOL     OW23247   4.652   7.154   0.382 -0.6969  0.1701 -0.6128
 7464SOL    HW123248   4.579   7.172   0.441 -0.1321 -0.2657  0.2508
 7464SOL    HW223249   4.672   7.061   0.396 -0.1762  0.2071 -1.0512
 7465SOL     OW23250   2.629   7.265   2.386  0.0050 -0.2998 -0.8645
 7465SOL    HW123251   2.541   7.292   2.361  0.7851  1.3359 -2.0476
 7465SOL    HW223252   2.670   7.236   2.304  0.3535 -1.7673 -0.2042
 7466SOL     OW23253   2.646   7.436   2.914 -0.1246 -0.4731 -0.2545
 7466SOL    HW123254   2.689   7.366   2.963  0.7414  0.6980  0.7328
 7466SOL    HW223255   2.655   7.410   2.822  1.3392 -1.0253  0.0205
 7467SOL     OW23256   2.768   0.936   2.434 -0.5374 -0.0760 -0.4681
 7467SOL    HW123257   2.833   0.932   2.364  0.7490  0.4598  0.6444
 7467SOL    HW223258   2.820   0.942   2.514 -1.9300 -1.8555  0.6538
 7468SOL     OW23259   7.369   5.445   3.152 -0.5177 -0.2612  0.1216
 7468SOL    HW123260   7.443   5.394   3.184 -1.2196 -0.3584  1.7199
 7468SOL    HW223261   7.292   5.392   3.175 -1.2161  1.0946  1.0673
 7469SOL     OW23262   4.218   2.798   1.608  0.8481  1.0051  0.0497
 7469SOL    HW123263   4.237   2.799   1.701  1.5328 -0.7953 -0.0249
 7469SOL    HW223264   4.124   2.813   1.602  0.6113  0.0995  1.1128
 7470SOL     OW23265   0.750   0.705   6.866  0.3293  0.1631 -0.1219
 7470SOL    HW123266   0.675   0.714   6.925  0.9351  1.4617  0.4976
 7470SOL    HW223267   0.713   0.716   6.779 -0.2296  0.7865  0.1788
 7471SOL     OW23268   4.122   7.323   1.099  0.6474 -0.1780  0.4425
 7471SOL    HW123269   4.106   7.410   1.063  0.6604  0.1585  1.2387
 7471SOL    HW223270   4.035   7.282   1.101  0.6817 -0.2986 -0.2000
 7472SOL     OW23271   3.538   1.497   4.441 -0.2906  0.0972 -0.2861
 7472SOL    HW123272   3.487   1.498   4.522 -1.0041 -0.6549 -0.7113
 7472SOL    HW223273   3.629   1.506   4.470 -0.6638  1.8506  0.4682
 7473SOL     OW23274   2.468   5.761   5.850 -0.9690  0.0724  0.1611
 7473SOL    HW123275   2.395   5.699   5.853  0.6570 -2.3774 -3.2906
 7473SOL    HW223276   2.475   5.785   5.758  1.8739  1.0424  0.5165
 7474SOL     OW23277   6.182   2.180   3.856  0.5969  0.9879  0.2719
 7474SOL    HW123278   6.178   2.144   3.945  1.3861  3.2587  1.3202
 7474SOL    HW223279   6.091   2.204   3.837  0.2669 -0.3884  0.0471
 7475SOL     OW23280   1.492   6.744   2.013 -0.1454 -0.0457 -0.0632
 7475SOL    HW123281   1.457   6.808   2.076 -0.2473  0.0440 -0.2100
 7475SOL    HW223282   1.506   6.795   1.933  0.5176 -0.0362  0.0567
 7476SOL     OW23283   4.104   6.335   1.754  0.1875  0.0598 -0.0388
 7476SOL    HW123284   4.033   6.306   1.696  0.4616  0.2981 -0.4937
 7476SOL    HW223285   4.173   6.270   1.741 -0.6864 -1.3359  1.9098
 7477SOL     OW23286   7.902   1.526   7.080 -0.4763 -0.2405  0.2886
 7477SOL    HW123287   7.813   1.491   7.074 -0.2302 -0.8134 -0.0144
 7477SOL    HW223288   7.914   1.543   7.173 -0.3852 -1.5213  0.5301
 7478SOL     OW23289   2.627   1.368   4.498 -0.2577 -0.0368  0.0451
 7478SOL    HW123290   2.657   1.375   4.588  0.9391 -0.4189 -0.2930
 7478SOL    HW223291   2.708   1.361   4.447 -0.9092  0.2324 -1.0594
 7479SOL     OW23292   3.174   6.086   2.902  0.1347  0.5730 -0.5009
 7479SOL    HW123293   3.113   6.047   2.838  2.0031 -1.5556 -1.1341
 7479SOL    HW223294   3.128   6.163   2.934 -2.1643  0.0501 -2.1922
 7480SOL     OW23295   1.826   1.904   0.445 -0.1760 -0.4635  0.5314
 7480SOL    HW123296   1.878   1.915   0.525  0.9208 -2.2394  0.1271
 7480SOL    HW223297   1.837   1.811   0.421 -3.4416 -0.9129  0.3058
 7481SOL     OW23298   7.141   2.963   6.174  0.0394  0.0078  0.4029
 7481SOL    HW123299   7.078   2.911   6.125 -0.2273 -0.1714  0.9278
 7481SOL    HW223300   7.137   2.928   6.263 -0.2723  1.0272  0.8102
 7482SOL     OW23301   0.097   3.053   0.646 -0.0962 -0.1340  0.1350
 7482SOL    HW123302   0.025   3.080   0.587  1.3074  0.1329 -1.5465
 7482SOL    HW223303   0.090   3.112   0.720 -0.5524  1.1053 -0.8520
 7483SOL     OW23304   4.307   0.285   6.120 -0.0711  0.5091  0.4603
 7483SOL    HW123305   4.359   0.360   6.093  0.5826  0.8363  2.4542
 7483SOL    HW223306   4.219   0.304   6.088 -0.1405  2.6580  1.7548
 7484SOL     OW23307   7.092   2.466   5.822  0.3916  0.2183  0.1389
 7484SOL    HW123308   7.150   2.535   5.787  0.9172 -1.0091 -1.5666
 7484SOL    HW223309   7.007   2.486   5.784  0.4590  0.1595 -0.0471
 7485SOL     OW23310   3.577   3.667   3.984  0.1652 -0.1043 -0.1035
 7485SOL    HW123311   3.580   3.718   3.903  3.5200 -0.2275 -0.1953
 7485SOL    HW223312   3.642   3.709   4.041 -1.1151 -0.8586  2.0287
 7486SOL     OW23313   7.167   2.808   2.303  0.5154 -0.3061 -0.3955
 7486SOL    HW123314   7.092   2.779   2.355  0.7211 -1.1965 -0.5638
 7486SOL    HW223315   7.219   2.860   2.364 -0.5503  0.8741 -0.4625
 7487SOL     OW23316   6.063   5.885   2.089 -0.3775 -0.7175 -0.1878
 7487SOL    HW123317   6.092   5.794   2.098 -1.4087 -1.1345 -0.7922
 7487SOL    HW223318   5.968   5.881   2.101 -0.8137 -0.1453 -2.7422
 7488SOL     OW23319   1.972   3.350   5.022  0.7120 -0.0967 -0.1498
 7488SOL    HW123320   1.958   3.372   4.930  1.2503 -0.8799 -0.4351
 7488SOL    HW223321   2.014   3.427   5.060 -0.4788  0.6430 -0.2945
 7489SOL     OW23322   2.149   0.920   5.447 -0.0971 -0.1521  0.0568
 7489SOL    HW123323   2.119   0.942   5.358  1.5360 -0.3715 -0.5857
 7489SOL    HW223324   2.068   0.913   5.498 -1.0123  1.4326 -1.0643
 7490SOL     OW23325   0.930   4.569   7.024  0.1637 -0.3329  0.2054
 7490SOL    HW123326   0.956   4.654   7.060  1.0151 -0.8117  0.7309
 7490SOL    HW223327   0.859   4.591   6.963 -0.5301  0.6236  1.2972
 7491SOL     OW23328   3.123   2.873   0.400  0.3764  0.3818 -0.2808
 7491SOL    HW123329   3.116   2.825   0.482  0.0500  0.0668 -0.4903
 7491SOL    HW223330   3.135   2.965   0.426  0.8688  0.2096  0.1171
 7492SOL     OW23331   7.324   1.699   2.278 -0.9600 -0.1909 -0.8366
 7492SOL    HW123332   7.243   1.739   2.312 -0.1625  0.6265  0.1609
 7492SOL    HW223333   7.315   1.704   2.183 -2.0452 -0.0319 -0.7409
 7493SOL     OW23334   6.611   6.415   4.941  0.5284  0.1217 -0.3416
 7493SOL    HW123335   6.658   6.360   5.003  1.1202 -0.1396 -1.0018
 7493SOL    HW223336   6.521   6.418   4.975  1.0026  0.6215  0.9274
 7494SOL     OW23337   4.849   4.381   4.773 -0.5633 -0.0200 -0.2739
 7494SOL    HW123338   4.900   4.353   4.698  0.5275 -4.1934  1.7230
 7494SOL    HW223339   4.758   4.363   4.749 -0.4255  0.4218 -1.1674
 7495SOL     OW23340   5.870   0.756   3.616  0.3600 -0.0690 -0.1455
 7495SOL    HW123341   5.897   0.745   3.707 -0.2961 -1.1999 -0.0572
 7495SOL    HW223342   5.951   0.758   3.566  0.6885 -0.9921  0.3326
 7496SOL     OW23343   4.591   3.344   3.854  0.1129 -0.7463 -0.1866
 7496SOL    HW123344   4.592   3.298   3.770  0.0738 -2.7240  0.8381
 7496SOL    HW223345   4.508   3.392   3.854  0.2839 -0.4020 -1.3993
 7497SOL     OW23346   0.772   7.565   1.568  0.0272 -0.0603  0.3418
 7497SOL    HW123347   0.677   7.576   1.559  0.0174 -1.0614 -0.9669
 7497SOL    HW223348   0.783   7.476   1.601  0.5553 -0.7360 -1.5114
 7498SOL     OW23349   3.153   7.419   2.130  0.0259 -0.2108  0.3712
 7498SOL    HW123350   3.098   7.401   2.053  0.4190 -0.9461  0.2499
 7498SOL    HW223351   3.189   7.333   2.153  1.9325  0.4064 -0.1807
 7499SOL     OW23352   4.864   3.632   2.644  0.6465 -0.9427  0.0604
 7499SOL    HW123353   4.859   3.659   2.552  1.7825 -0.9785 -0.0347
 7499SOL    HW223354   4.932   3.564   2.644  2.2185  0.5325  1.2412
 7500SOL     OW23355   4.449   6.044   2.172 -0.0287 -0.2687 -0.6775
 7500SOL    HW123356   4.360   6.008   2.180  0.5236 -1.4285  0.6561
 7500SOL    HW223357   4.505   5.967   2.163  1.0651  0.2981  0.9179
 7501SOL     OW23358   5.015   3.275   7.604 -0.0426  0.8840 -0.4221
 7501SOL    HW123359   5.077   3.243   7.670  1.0456  0.4989 -1.5843
 7501SOL    HW223360   4.991   3.363   7.635 -1.4174 -0.1411  1.6989
 7502SOL     OW23361   2.790   5.979   3.806  0.4300 -0.0487 -0.4621
 7502SOL    HW123362   2.820   5.930   3.730 -1.8090 -0.8309 -0.9186
 7502SOL    HW223363   2.868   6.025   3.837  1.4725  0.0839 -3.0370
 7503SOL     OW23364   4.666   5.190   7.883 -0.2284 -0.7400  0.1130
 7503SOL    HW123365   4.643   5.208   7.974 -0.8412  2.6270 -0.5485
 7503SOL    HW223366   4.758   5.165   7.885 -0.5714 -1.9941  1.7337
 7504SOL     OW23367   6.046   6.813   4.874  0.4313  0.2179  0.6444
 7504SOL    HW123368   6.078   6.846   4.790 -0.0061 -0.2197  0.2977
 7504SOL    HW223369   6.108   6.846   4.938  0.9296  0.3296  0.1139
 7505SOL     OW23370   6.537   5.155   1.437  0.6838 -0.9963  0.3564
 7505SOL    HW123371   6.459   5.101   1.427  0.6594 -1.5242  2.7594
 7505SOL    HW223372   6.505   5.245   1.435  0.8560 -0.7620 -4.8951
 7506SOL     OW23373   2.048   3.389   4.619  0.1012  0.0127  0.0686
 7506SOL    HW123374   1.971   3.415   4.669  0.3560  1.0823 -0.0748
 7506SOL    HW223375   2.085   3.316   4.668 -0.0876  0.5504  1.0386
 7507SOL     OW23376   3.994   4.978   1.728  0.5063  0.0204 -0.3496
 7507SOL    HW123377   3.998   5.047   1.662 -1.2173  0.9327  0.4358
 7507SOL    HW223378   3.901   4.958   1.738  0.6905 -0.0325  1.8216
 7508SOL     OW23379   6.797   2.398   7.107  0.1955 -0.4867 -0.0961
 7508SOL    HW123380   6.738   2.363   7.173  0.8967  0.7953  1.2791
 7508SOL    HW223381   6.778   2.347   7.028 -0.1192 -2.5897  1.2759
 7509SOL     OW23382   3.075   3.995   2.769 -0.4472  0.1021  0.2283
 7509SOL    HW123383   3.168   3.994   2.788 -0.8690 -1.6686  2.7936
 7509SOL    HW223384   3.041   4.071   2.817 -0.4099  0.3493 -0.1389
 7510SOL     OW23385   2.167   6.858   5.468 -0.0214  0.9601 -0.2196
 7510SOL    HW123386   2.234   6.806   5.422 -0.9082 -1.3338  0.9431
 7510SOL    HW223387   2.087   6.844   5.417 -0.6917 -0.4326  1.1648
 7511SOL     OW23388   3.562   4.187   5.788  0.0183 -0.2386  0.5253
 7511SOL    HW123389   3.654   4.187   5.760  0.0424 -2.3379  0.4630
 7511SOL    HW223390   3.515   4.230   5.716  0.8445  0.0840  0.1666
 7512SOL     OW23391   0.756   1.374   7.552 -0.4357  0.0744 -0.1691
 7512SOL    HW123392   0.735   1.285   7.581 -0.8076  0.7517  1.7465
 7512SOL    HW223393   0.851   1.378   7.553 -0.4405  0.1654  1.2861
 7513SOL     OW23394   4.723   3.414   6.825 -0.4957 -0.2613 -0.6122
 7513SOL    HW123395   4.633   3.434   6.800 -0.9323 -0.3393  0.8221
 7513SOL    HW223396   4.719   3.323   6.855 -0.0527 -0.0894 -0.0324
 7514SOL     OW23397   2.224   1.234   2.902 -0.2188  0.1010 -0.0183
 7514SOL    HW123398   2.168   1.185   2.964  0.4695 -1.4251 -0.5521
 7514SOL    HW223399   2.173   1.236   2.821 -0.9703  1.7960  0.4622
 7515SOL     OW23400   3.373   6.548   2.873  0.2137 -0.0155 -0.3915
 7515SOL    HW123401   3.422   6.480   2.919 -0.7365 -1.5621 -1.5640
 7515SOL    HW223402   3.336   6.504   2.797 -3.5168  0.8424  0.7078
 7516SOL     OW23403   2.484   1.751   6.864  0.3365  0.1473 -0.2855
 7516SOL    HW123404   2.415   1.749   6.931  0.2802 -1.4627 -0.3447
 7516SOL    HW223405   2.565   1.740   6.914  0.3839  0.0504 -0.3848
 7517SOL     OW23406   0.948   3.761   3.660 -0.8257  0.8291 -0.0140
 7517SOL    HW123407   0.958   3.756   3.755 -0.4259 -0.1194 -0.0954
 7517SOL    HW223408   0.922   3.673   3.634  0.0113  0.8236 -0.8935
 7518SOL     OW23409   1.802   7.001   6.304 -0.5500  0.3774 -0.4891
 7518SOL    HW123410   1.746   7.062   6.352 -0.3299  0.5406 -0.4381
 7518SOL    HW223411   1.745   6.927   6.285 -1.0021  0.8813 -1.1248
 7519SOL     OW23412   6.955   6.472   5.622 -0.1650  0.0911 -0.4202
 7519SOL    HW123413   6.987   6.458   5.533 -2.8901  0.7568 -1.6088
 7519SOL    HW223414   7.034   6.477   5.675  1.5381 -1.1803 -2.6484
 7520SOL     OW23415   0.292   4.584   6.398 -0.6145  0.0776 -0.1931
 7520SOL    HW123416   0.342   4.656   6.361 -2.2153  1.1086 -0.4665
 7520SOL    HW223417   0.260   4.617   6.482 -0.5146 -0.7044  0.1658
 7521SOL     OW23418   5.403   4.026   2.093 -0.8062  0.2533 -0.1212
 7521SOL    HW123419   5.413   4.010   2.187  2.2486  0.6371 -0.2856
 7521SOL    HW223420   5.492   4.040   2.061 -1.7857  0.5742 -3.0282
 7522SOL     OW23421   4.935   3.680   6.369  0.1013 -0.6737  0.4286
 7522SOL    HW123422   4.844   3.687   6.340  0.2683 -0.9873 -0.1690
 7522SOL    HW223423   4.941   3.741   6.443 -0.1559  0.6428 -0.6021
 7523SOL     OW23424   1.902   4.202   4.991  0.1975  0.6238  0.3436
 7523SOL    HW123425   1.815   4.168   5.012  0.8336 -0.9993  0.4312
 7523SOL    HW223426   1.887   4.295   4.973 -1.8045  0.0853 -1.1123
 7524SOL     OW23427   7.164   6.957   7.347 -0.4162 -0.2359 -0.2148
 7524SOL    HW123428   7.089   6.927   7.398 -0.8063 -2.0463 -1.7530
 7524SOL    HW223429   7.148   7.051   7.334 -2.5393 -0.6149 -0.6721
 7525SOL     OW23430   3.597   5.803   7.449 -0.0677  0.5199  0.1031
 7525SOL    HW123431   3.558   5.751   7.379  1.6018 -1.5069  0.5810
 7525SOL    HW223432   3.525   5.855   7.484 -1.2462  0.4640 -2.1070
 7526SOL     OW23433   0.940   1.720   6.901 -0.8457  0.0506  0.0223
 7526SOL    HW123434   0.968   1.724   6.809 -0.0319 -0.4089  0.2417
 7526SOL    HW223435   0.995   1.784   6.945 -1.3120  0.3492  0.1808
 7527SOL     OW23436   5.935   2.875   0.160  0.1875  0.5361  0.2109
 7527SOL    HW123437   5.915   2.806   0.097  0.5500 -0.2669  0.9569
 7527SOL    HW223438   5.936   2.955   0.107 -2.4843  0.3355 -0.2975
 7528SOL     OW23439   0.358   3.228   1.580  0.0435  0.6106  0.0679
 7528SOL    HW123440   0.264   3.225   1.594  0.2126 -3.4863  1.8938
 7528SOL    HW223441   0.390   3.289   1.647 -1.2162  1.6478 -0.2345
 7529SOL     OW23442   4.642   2.374   7.144  0.0011  0.0075  0.6249
 7529SOL    HW123443   4.577   2.419   7.199 -2.2405 -2.1670 -0.0453
 7529SOL    HW223444   4.669   2.298   7.196  0.0584 -0.4919 -0.1196
 7530SOL     OW23445   0.268   4.960   3.676 -0.4487 -0.1501 -0.7581
 7530SOL    HW123446   0.318   5.040   3.691 -0.2085 -0.4211 -0.0853
 7530SOL    HW223447   0.260   4.919   3.762 -1.1037 -0.5409 -0.9950
 7531SOL     OW23448   4.353   2.165   0.429 -0.2749 -0.1601 -0.0793
 7531SOL    HW123449   4.358   2.129   0.341 -1.4375  0.6111 -0.4958
 7531SOL    HW223450   4.435   2.214   0.440 -0.0514 -0.3915 -0.6764
 7532SOL     OW23451   3.828   1.306   4.775 -0.4212 -0.2725 -0.5710
 7532SOL    HW123452   3.865   1.385   4.735 -2.7373  2.1167  1.6855
 7532SOL    HW223453   3.876   1.296   4.857 -0.9493 -0.5228 -0.2938
 7533SOL     OW23454   3.491   2.810   4.855 -0.2593  0.7517  0.2431
 7533SOL    HW123455   3.402   2.814   4.821  0.1541  0.5528 -0.9321
 7533SOL    HW223456   3.542   2.771   4.783  0.7286  0.6591  0.9736
 7534SOL     OW23457   6.358   5.212   0.386 -0.1739  0.1867 -0.2297
 7534SOL    HW123458   6.450   5.214   0.414 -0.0981  0.3419 -0.4943
 7534SOL    HW223459   6.355   5.145   0.318 -0.1122  0.7022 -0.7423
 7535SOL     OW23460   4.819   0.721   4.167 -0.2009 -0.2380 -0.2933
 7535SOL    HW123461   4.735   0.758   4.195  0.1004 -0.1887  0.5925
 7535SOL    HW223462   4.862   0.697   4.249  0.4235 -0.7619 -0.7707
 7536SOL     OW23463   0.590   0.023   0.127 -0.4782  0.2182  0.0871
 7536SOL    HW123464   0.542  -0.037   0.069 -1.4619  2.1101 -1.1833
 7536SOL    HW223465   0.670   0.044   0.078 -0.6039  0.6647  0.0643
 7537SOL     OW23466   7.511   1.086   1.637 -0.0118  0.9172 -0.1371
 7537SOL    HW123467   7.490   1.120   1.724 -0.0153 -0.2321  0.3167
 7537SOL    HW223468   7.606   1.075   1.637 -0.0038  0.9747 -0.3094
 7538SOL     OW23469   5.516   1.772   4.559 -0.5533 -0.2672 -0.0819
 7538SOL    HW123470   5.507   1.713   4.485  0.8322  1.9604 -2.1604
 7538SOL    HW223471   5.441   1.752   4.615 -2.3798 -1.2174 -2.6905
 7539SOL     OW23472   6.887   0.337   1.462  0.6547 -0.0815 -0.6527
 7539SOL    HW123473   6.935   0.288   1.529 -1.9477 -3.7232 -1.1801
 7539SOL    HW223474   6.799   0.347   1.499  0.2892  1.5281 -1.8992
 7540SOL     OW23475   2.647   4.952   5.258 -0.1982 -0.3001 -0.5945
 7540SOL    HW123476   2.625   5.045   5.248 -0.4448 -0.0785  1.4762
 7540SOL    HW223477   2.740   4.953   5.282 -0.2239 -0.5708 -0.4844
 7541SOL     OW23478   4.193   0.711   3.564  0.0786  0.2346  0.3268
 7541SOL    HW123479   4.125   0.656   3.525 -0.3530  0.2551  1.0470
 7541SOL    HW223480   4.262   0.649   3.591 -0.0730  0.1212  0.4538
 7542SOL     OW23481   3.236   7.356   5.480  0.1706 -0.1000 -0.4907
 7542SOL    HW123482   3.203   7.268   5.499  0.5514  0.1058  1.4018
 7542SOL    HW223483   3.255   7.355   5.387 -1.3704 -1.4938 -0.8505
 7543SOL     OW23484   2.520   0.006   3.243 -0.5205 -0.1382  0.2522
 7543SOL    HW123485   2.566   0.088   3.223  0.3506 -0.2207  1.7601
 7543SOL    HW223486   2.506   0.009   3.337 -3.4296 -0.2547 -0.0825
 7544SOL     OW23487   1.191   0.556   3.414 -0.2156  0.4087 -0.0552
 7544SOL    HW123488   1.148   0.498   3.476  2.7130 -1.1549  0.6826
 7544SOL    HW223489   1.274   0.580   3.456  1.1257  0.6645 -2.6232
 7545SOL     OW23490   3.408   3.694   1.407  0.0008 -0.4471  0.1287
 7545SOL    HW123491   3.334   3.754   1.402 -0.4146 -1.0294 -2.2810
 7545SOL    HW223492   3.484   3.751   1.418 -0.6576  0.2578  1.1882
 7546SOL     OW23493   2.452   5.196   2.805  0.0310 -0.3776  0.4866
 7546SOL    HW123494   2.362   5.209   2.835  0.1797 -0.1090  0.8214
 7546SOL    HW223495   2.466   5.265   2.740 -0.1884 -0.7685  0.0161
 7547SOL     OW23496   3.681   1.584   2.877 -0.1913  0.4890 -0.1642
 7547SOL    HW123497   3.620   1.606   2.947  1.4585  0.3312  1.3859
 7547SOL    HW223498   3.662   1.646   2.807 -2.1778  0.3553  0.2165
 7548SOL     OW23499   1.981   1.137   0.245  0.2348  0.3146  0.3057
 7548SOL    HW123500   1.931   1.064   0.282 -0.0501 -0.5547 -1.6318
 7548SOL    HW223501   2.070   1.103   0.237 -0.2005 -0.4751 -2.0287
 7549SOL     OW23502   3.862   3.397   3.108 -0.5125  0.2449 -0.0084
 7549SOL    HW123503   3.890   3.428   3.022 -1.4510  0.9369 -0.0713
 7549SOL    HW223504   3.944   3.380   3.155  0.0237  1.6155 -0.4041
 7550SOL     OW23505   0.114   7.050   4.783  0.0215 -0.3418  0.0526
 7550SOL    HW123506   0.031   7.096   4.771  0.4313  0.1058 -1.2355
 7550SOL    HW223507   0.119   6.989   4.709  1.0221 -0.0661 -0.1264
 7551SOL     OW23508   2.560   3.807   2.212  0.0629 -0.1978  0.5976
 7551SOL    HW123509   2.520   3.838   2.293 -1.0384  0.3667 -0.1332
 7551SOL    HW223510   2.604   3.885   2.176 -0.6288 -0.0776 -0.0184
 7552SOL     OW23511   7.082   3.359   5.154 -0.0323 -0.1198 -0.9592
 7552SOL    HW123512   7.078   3.362   5.059  2.4446 -0.9842 -1.1582
 7552SOL    HW223513   7.066   3.267   5.176  0.5958 -0.1611 -0.6492
 7553SOL     OW23514   4.968   0.220   7.887 -0.2021 -0.8634  0.0855
 7553SOL    HW123515   4.879   0.233   7.854  0.3805  0.9319 -0.9699
 7553SOL    HW223516   4.975   0.280   7.962  1.0068  1.5220 -1.7725
 7554SOL     OW23517   4.314   3.227   3.242  0.2071 -0.4708 -0.2462
 7554SOL    HW123518   4.283   3.137   3.238  0.6894 -0.6336 -0.3290
 7554SOL    HW223519   4.393   3.228   3.188  0.3391 -0.0567 -0.0485
 7555SOL     OW23520   6.945   4.573   4.402 -0.0236  0.7224 -0.0136
 7555SOL    HW123521   7.015   4.630   4.432  0.5544  0.6100 -1.0847
 7555SOL    HW223522   6.873   4.633   4.381 -0.3253  0.8217  1.2672
 7556SOL     OW23523   3.603   7.729   3.658  0.0117 -0.0259 -0.1047
 7556SOL    HW123524   3.617   7.763   3.569 -1.7414  3.9354  0.8860
 7556SOL    HW223525   3.691   7.722   3.695  0.6116  1.9319 -1.0221
 7557SOL     OW23526   7.729   0.443   5.583 -0.0986  0.5038 -0.8664
 7557SOL    HW123527   7.800   0.492   5.542  1.2673 -1.0183 -0.4206
 7557SOL    HW223528   7.755   0.436   5.675 -2.6066  2.9762  0.1886
 7558SOL     OW23529   0.558   0.714   1.415 -0.1249 -0.2476  0.2342
 7558SOL    HW123530   0.618   0.735   1.344 -0.4848 -1.0502 -0.3341
 7558SOL    HW223531   0.581   0.773   1.486  2.7175 -1.8603  0.8030
 7559SOL     OW23532   1.320   6.950   0.036  0.1497  0.2707 -0.1764
 7559SOL    HW123533   1.347   6.968  -0.054 -0.4049  1.1368 -0.1746
 7559SOL    HW223534   1.350   6.860   0.052  0.2330  0.0959 -1.2296
 7560SOL     OW23535   3.915   5.705   6.284  0.3694 -0.0669  0.5976
 7560SOL    HW123536   3.906   5.638   6.352 -1.3970  2.0159  2.6155
 7560SOL    HW223537   3.829   5.748   6.282  0.8284  0.8839 -1.9979
 7561SOL     OW23538   0.608   7.827   7.384 -0.0928 -0.6048  0.1237
 7561SOL    HW123539   0.618   7.787   7.471  2.3516 -1.5597 -0.5126
 7561SOL    HW223540   0.547   7.770   7.338 -0.6451 -0.6471  0.8829
 7562SOL     OW23541   1.857   5.372   4.172  0.1853  0.1014 -0.2774
 7562SOL    HW123542   1.878   5.455   4.215  2.0101 -0.9421  1.0024
 7562SOL    HW223543   1.871   5.389   4.079  1.1751  1.0561  0.0296
 7563SOL     OW23544   6.279   3.079   1.887  0.2940 -0.0711 -0.6923
 7563SOL    HW123545   6.243   3.138   1.953  2.2915 -0.1706  0.5640
 7563SOL    HW223546   6.222   3.002   1.889 -0.2362  0.3380  0.2094
 7564SOL     OW23547   6.035   2.106   0.850  0.1103 -0.2675 -0.0781
 7564SOL    HW123548   5.947   2.075   0.874 -0.3209 -0.6312 -1.9250
 7564SOL    HW223549   6.032   2.112   0.754  2.3711 -1.1599 -0.2680
 7565SOL     OW23550   1.329   0.394   7.079 -0.2701 -0.8661  0.1362
 7565SOL    HW123551   1.260   0.449   7.115  0.4787  0.4300 -0.3659
 7565SOL    HW223552   1.289   0.354   7.001 -0.3883  0.0398 -0.2754
 7566SOL     OW23553   6.202   6.037   4.088  0.0410  0.1799  0.1912
 7566SOL    HW123554   6.198   5.980   4.165  1.5185  0.7912  0.7768
 7566SOL    HW223555   6.258   6.109   4.115 -0.0342  0.8078 -1.2261
 7567SOL     OW23556   0.781   3.307   2.313 -0.6863 -0.3196  1.0072
 7567SOL    HW123557   0.817   3.280   2.398 -2.6796  2.0139  2.7407
 7567SOL    HW223558   0.794   3.402   2.311 -1.1745 -0.2470 -1.1014
 7568SOL     OW23559   5.300   6.038   3.071  0.1435 -0.6194 -0.0039
 7568SOL    HW123560   5.311   6.085   3.154 -1.2586  3.7959 -2.0123
 7568SOL    HW223561   5.378   6.061   3.020 -0.7524 -0.1314 -1.1850
 7569SOL     OW23562   0.282   0.405   0.606 -0.2337 -0.3589  0.6630
 7569SOL    HW123563   0.349   0.342   0.579  1.3772  1.0068  1.2907
 7569SOL    HW223564   0.273   0.390   0.700 -1.6106 -1.2216  0.4205
 7570SOL     OW23565   7.391   7.163   4.145  0.0341  0.8369  0.3834
 7570SOL    HW123566   7.299   7.152   4.171  0.0007  2.7848  1.2783
 7570SOL    HW223567   7.429   7.076   4.156 -1.6138  0.0728  0.3641
 7571SOL     OW23568   3.549   1.543   1.369 -0.2903 -0.0807  0.2600
 7571SOL    HW123569   3.475   1.574   1.318 -1.3495 -2.5831  0.1308
 7571SOL    HW223570   3.625   1.587   1.331 -1.3751  0.2496 -1.6259
 7572SOL     OW23571   4.811   5.244   3.094 -0.3799  0.2729 -0.0196
 7572SOL    HW123572   4.835   5.167   3.145 -0.0007  0.1187 -0.4264
 7572SOL    HW223573   4.871   5.243   3.019 -0.5035  0.8512 -0.1311
 7573SOL     OW23574   7.149   0.630   3.578  0.5752  0.7176 -0.2437
 7573SOL    HW123575   7.080   0.669   3.631  0.0350 -1.2235  0.5528
 7573SOL    HW223576   7.109   0.550   3.541  1.4929  1.0679 -2.1439
 7574SOL     OW23577   0.287   1.008   7.528 -0.2079 -0.3225 -0.5316
 7574SOL    HW123578   0.363   1.061   7.551  0.1922 -1.7979  1.9669
 7574SOL    HW223579   0.319   0.947   7.462  0.1968  0.4256 -1.0335
 7575SOL     OW23580   7.131   7.626   1.071  0.0166 -0.0596  0.1167
 7575SOL    HW123581   7.073   7.569   1.020  0.0876 -0.6964  0.7266
 7575SOL    HW223582   7.133   7.708   1.022 -1.7316  0.1256  0.2846
 7576SOL     OW23583   1.383   0.896   0.537 -0.1230  0.5822 -0.0852
 7576SOL    HW123584   1.402   0.980   0.495  1.6564 -0.6414 -1.9256
 7576SOL    HW223585   1.340   0.844   0.470  0.4437 -0.5766  0.4121
 7577SOL     OW23586   0.307   7.138   5.879  0.0688  0.0167 -0.4258
 7577SOL    HW123587   0.247   7.073   5.844 -1.3380  0.3953  1.1134
 7577SOL    HW223588   0.368   7.157   5.808  1.0756 -3.5466 -0.6630
 7578SOL     OW23589   7.114   3.022   0.998 -0.0087  0.0152 -0.7028
 7578SOL    HW123590   7.099   2.976   0.915  1.4525  0.5181 -1.2725
 7578SOL    HW223591   7.209   3.025   1.007 -0.0883  1.7692 -0.0319
 7579SOL     OW23592   6.663   5.762   4.390  0.3173 -0.1622 -0.1290
 7579SOL    HW123593   6.651   5.800   4.303 -1.1994 -0.8400 -0.2478
 7579SOL    HW223594   6.575   5.741   4.419  0.8553 -0.5195  1.3312
 7580SOL     OW23595   6.327   6.204   7.230 -0.1247  0.4046  0.2081
 7580SOL    HW123596   6.390   6.137   7.257 -1.0652 -0.2474  0.8316
 7580SOL    HW223597   6.261   6.157   7.180 -1.5473  0.5806  1.8240
 7581SOL     OW23598   1.522   6.627   5.937  0.1774  0.4443 -0.2566
 7581SOL    HW123599   1.506   6.571   6.013 -2.4078  2.4727  0.8823
 7581SOL    HW223600   1.492   6.576   5.862  1.5678 -1.1099  0.1964
 7582SOL     OW23601   6.866   2.148   6.865  0.0542 -0.1792  0.4126
 7582SOL    HW123602   6.771   2.152   6.880  0.2259  1.2104  1.2480
 7582SOL    HW223603   6.883   2.221   6.805  0.5420 -0.7105 -0.1013
 7583SOL     OW23604   6.922   0.387   5.088  0.5436 -0.3506  0.1770
 7583SOL    HW123605   6.848   0.422   5.038  0.9741 -0.2136 -0.3796
 7583SOL    HW223606   6.985   0.361   5.021  1.1730 -0.0753  0.6565
 7584SOL     OW23607   0.224   6.521   4.231 -0.1576 -0.0086  0.1446
 7584SOL    HW123608   0.142   6.569   4.241 -0.3429 -0.3096  0.1003
 7584SOL    HW223609   0.286   6.568   4.286  0.4743  2.0874 -2.1730
 7585SOL     OW23610   5.821   5.631   6.833 -0.1467 -0.0267  0.3572
 7585SOL    HW123611   5.818   5.654   6.926  1.4062 -0.2078  0.4854
 7585SOL    HW223612   5.870   5.549   6.831  0.4739  0.3504 -0.6750
 7586SOL     OW23613   5.704   7.906   4.892  0.0302  0.6504  0.6821
 7586SOL    HW123614   5.791   7.875   4.868 -0.7752 -0.1641 -1.4373
 7586SOL    HW223615   5.679   7.852   4.968  0.1892 -1.3192 -0.5968
 7587SOL     OW23616   3.686   3.291   5.065  0.2377 -0.3470 -0.6476
 7587SOL    HW123617   3.644   3.296   4.979 -1.2802  0.7616  0.0983
 7587SOL    HW223618   3.613   3.280   5.126  1.3665 -2.1036  0.4447
 7588SOL     OW23619   3.273   6.475   7.123 -0.6866 -0.0397 -0.3431
 7588SOL    HW123620   3.276   6.506   7.032 -0.5049  0.8518 -0.0471
 7588SOL    HW223621   3.197   6.417   7.127 -1.3435  0.7786 -0.8004
 7589SOL     OW23622   0.460   0.037   2.306 -0.5291  0.0723  0.2053
 7589SOL    HW123623   0.454  -0.013   2.225 -1.4914  0.0204  0.3045
 7589SOL    HW223624   0.555   0.047   2.320 -0.3320 -0.9869 -0.2492
 7590SOL     OW23625   4.774   3.572   5.408  0.1400 -0.5156  0.0949
 7590SOL    HW123626   4.761   3.664   5.434 -0.4943 -0.5611 -0.0464
 7590SOL    HW223627   4.856   3.573   5.359 -0.4997  0.2043 -0.9924
 7591SOL     OW23628   4.519   7.803   2.490  0.7609 -0.0946  0.2215
 7591SOL    HW123629   4.443   7.809   2.547 -0.6261  0.5943 -1.6034
 7591SOL    HW223630   4.488   7.835   2.405  2.6621 -1.3051 -1.0035
 7592SOL     OW23631   3.885   1.281   0.874 -0.2087  0.0389  0.9508
 7592SOL    HW123632   3.877   1.365   0.919 -1.6133  0.9165 -0.7796
 7592SOL    HW223633   3.978   1.272   0.857  0.0664  0.8246  1.9448
 7593SOL     OW23634   1.391   5.180   4.624  0.2787  0.1706 -0.2451
 7593SOL    HW123635   1.394   5.226   4.708 -1.3428 -1.0688  0.5307
 7593SOL    HW223636   1.479   5.143   4.614  0.5454  0.4794  0.8196
 7594SOL     OW23637   1.540   5.880   5.506 -0.2801  0.2533  0.1868
 7594SOL    HW123638   1.635   5.865   5.503 -0.4112 -0.7427  0.5268
 7594SOL    HW223639   1.531   5.969   5.539  0.5492  0.6782 -0.6759
 7595SOL     OW23640   4.935   6.408   5.485  0.7071  0.2912 -0.4166
 7595SOL    HW123641   4.949   6.357   5.564 -0.6551 -2.1048 -1.6069
 7595SOL    HW223642   4.843   6.393   5.463  1.0560  0.8278 -2.4734
 7596SOL     OW23643   7.772   6.372   2.985  0.2031 -0.0614 -0.9473
 7596SOL    HW123644   7.783   6.320   2.905 -0.1568  0.3499 -1.2684
 7596SOL    HW223645   7.861   6.384   3.018  0.3443 -0.3335 -1.2216
 7597SOL     OW23646   1.041   4.130   3.747 -0.0706  0.3122 -0.0591
 7597SOL    HW123647   0.984   4.180   3.689 -0.8671 -0.6397 -0.1503
 7597SOL    HW223648   1.087   4.069   3.690 -0.8724 -0.6433  0.2815
 7598SOL     OW23649   1.869   2.107   7.518 -0.5229 -0.7827 -0.0641
 7598SOL    HW123650   1.921   2.153   7.584 -1.5256  1.2244 -0.5789
 7598SOL    HW223651   1.932   2.086   7.448 -0.0119 -0.1922  0.2032
 7599SOL     OW23652   5.863   5.547   1.159  0.1387  0.5773 -0.4811
 7599SOL    HW123653   5.883   5.621   1.102 -1.6336  1.0154 -0.5968
 7599SOL    HW223654   5.769   5.533   1.148  0.3506 -1.4250 -0.1290
 7600SOL     OW23655   6.678   4.216   1.626 -0.5270  0.0564  0.4902
 7600SOL    HW123656   6.689   4.184   1.716 -3.1567  0.2554  0.9422
 7600SOL    HW223657   6.596   4.178   1.596  0.2688  0.0092 -1.8789
 7601SOL     OW23658   0.647   1.210   5.182  0.6448  0.7604  0.4870
 7601SOL    HW123659   0.576   1.226   5.245  1.4015 -0.1059  1.5921
 7601SOL    HW223660   0.614   1.246   5.099 -0.7400  1.1234  1.1688
 7602SOL     OW23661   3.843   3.586   5.671  0.0801  0.4622  0.5706
 7602SOL    HW123662   3.775   3.645   5.704 -0.1476  0.3276  0.3402
 7602SOL    HW223663   3.869   3.625   5.587 -0.2431  0.0988  0.3018
 7603SOL     OW23664   3.630   4.167   0.264  0.4000  0.2824  0.0622
 7603SOL    HW123665   3.556   4.227   0.274 -0.8362 -0.8780 -1.6198
 7603SOL    HW223666   3.647   4.166   0.170  0.4329 -1.9165  0.0546
 7604SOL     OW23667   0.448   7.869   3.157 -0.4077 -0.1671 -0.3268
 7604SOL    HW123668   0.399   7.806   3.103 -0.6585 -0.5932  0.3913
 7604SOL    HW223669   0.427   7.954   3.118 -1.0501 -0.4167 -0.5560
 7605SOL     OW23670   0.031   1.186   7.515 -0.6040 -0.3616 -0.2233
 7605SOL    HW123671   0.119   1.152   7.502 -1.2463 -2.1192 -0.2627
 7605SOL    HW223672   0.040   1.280   7.507  0.8248 -0.6299 -2.9795
 7606SOL     OW23673   5.879   0.505   5.732  0.1898  0.6439  0.0531
 7606SOL    HW123674   5.867   0.503   5.637 -2.6676  1.6679  0.2972
 7606SOL    HW223675   5.895   0.598   5.752 -2.4335  1.0443  0.7610
 7607SOL     OW23676   7.005   4.043   3.561  0.3856  0.0493  0.2186
 7607SOL    HW123677   6.979   3.955   3.590 -1.8282  0.9728  1.2027
 7607SOL    HW223678   6.966   4.051   3.474  1.0278 -0.1170 -0.0883
 7608SOL     OW23679   2.908   6.786   3.508 -0.1361  0.9325 -0.4258
 7608SOL    HW123680   2.939   6.703   3.542  0.2875  1.6056  0.9035
 7608SOL    HW223681   2.816   6.791   3.535  0.3031  1.6395  1.0513
 7609SOL     OW23682   5.531   1.022   3.182  0.0036  0.4178 -0.2878
 7609SOL    HW123683   5.610   0.969   3.195  0.1106  0.6810  0.1652
 7609SOL    HW223684   5.546   1.066   3.098  0.4020  0.5726 -0.1405
 7610SOL     OW23685   6.529   4.805   2.177  0.5785  0.3790 -0.0726
 7610SOL    HW123686   6.467   4.785   2.107  0.8640  1.0274 -0.5235
 7610SOL    HW223687   6.519   4.900   2.192 -0.3568  0.0625  1.6218
 7611SOL     OW23688   5.736   7.457   1.259 -0.1318 -0.6617  0.4846
 7611SOL    HW123689   5.727   7.427   1.168  0.4534 -0.9827  0.5228
 7611SOL    HW223690   5.648   7.482   1.285 -0.0777  0.9095 -0.6806
 7612SOL     OW23691   2.729   0.423   4.605 -0.3847 -0.2574 -0.5041
 7612SOL    HW123692   2.706   0.428   4.512  1.1604  0.4693 -0.8841
 7612SOL    HW223693   2.666   0.481   4.648  2.0035  3.8276 -1.8431
 7613SOL     OW23694   7.616   6.987   2.482 -0.4289 -0.1690 -0.1983
 7613SOL    HW123695   7.639   6.972   2.574 -1.4089  2.4379  0.5713
 7613SOL    HW223696   7.525   6.957   2.474 -0.4272 -0.1670 -0.2264
 7614SOL     OW23697   7.080   1.892   7.475  0.5301 -0.2153  0.3485
 7614SOL    HW123698   7.000   1.923   7.434  0.3772 -1.8362 -0.6648
 7614SOL    HW223699   7.097   1.954   7.546 -0.2032  1.6055 -1.0185
 7615SOL     OW23700   3.168   4.562   4.774  0.4734 -0.0199  0.5881
 7615SOL    HW123701   3.170   4.496   4.844 -0.5928  0.4904  1.1268
 7615SOL    HW223702   3.249   4.611   4.786  1.9761 -2.0568 -0.6887
 7616SOL     OW23703   1.744   1.080   3.953 -0.6052 -0.2993 -0.0086
 7616SOL    HW123704   1.656   1.074   3.917 -0.7016  2.0800 -0.2904
 7616SOL    HW223705   1.796   1.018   3.901 -1.8301 -0.7716 -0.6993
 7617SOL     OW23706   4.014   4.022   1.041 -0.2566  0.0668 -0.0156
 7617SOL    HW123707   4.081   3.959   1.014  2.9021  1.8238  2.9432
 7617SOL    HW223708   3.974   3.983   1.119  0.5389  0.9105  0.8407
 7618SOL     OW23709   1.561   3.064   3.580  0.2294 -1.0305 -0.1166
 7618SOL    HW123710   1.654   3.061   3.558  0.3709 -0.8909  0.4551
 7618SOL    HW223711   1.523   2.989   3.534  0.8034 -1.7020  0.4784
 7619SOL     OW23712   0.646   0.030   3.843  0.4653  0.0704  0.0466
 7619SOL    HW123713   0.589   0.074   3.906 -0.1421 -1.1923  0.4128
 7619SOL    HW223714   0.735   0.040   3.879  0.1344 -0.5814  1.1026
 7620SOL     OW23715   4.651   1.971   0.450  0.1328 -0.6578 -0.0198
 7620SOL    HW123716   4.638   1.962   0.544  0.5896  2.4802  0.4392
 7620SOL    HW223717   4.582   1.917   0.411 -0.2881 -1.7335  2.0810
 7621SOL     OW23718   0.104   6.842   4.024 -0.1737 -0.7074  0.2692
 7621SOL    HW123719   0.194   6.873   4.033 -0.2011 -0.2636 -0.7769
 7621SOL    HW223720   0.064   6.903   3.962 -1.3760 -0.5362  1.1691
 7622SOL     OW23721   3.760   3.114   5.728 -0.1304 -0.0856  0.3682
 7622SOL    HW123722   3.717   3.196   5.702 -0.6754 -0.5346 -0.1788
 7622SOL    HW223723   3.712   3.086   5.806  0.5795  0.5215  1.0419
 7623SOL     OW23724   5.577   1.528   3.482 -0.4398 -0.7989  0.3264
 7623SOL    HW123725   5.672   1.539   3.488 -0.6065  0.8194  0.2755
 7623SOL    HW223726   5.565   1.446   3.434  0.9400 -0.2222 -1.0611
 7624SOL     OW23727   5.577   2.108   1.063  0.5172  0.1313 -0.3806
 7624SOL    HW123728   5.494   2.155   1.075 -0.4797 -2.0097  1.8992
 7624SOL    HW223729   5.644   2.173   1.081 -0.7213  1.3569  0.0039
 7625SOL     OW23730   6.943   0.207   2.746  0.1514 -0.2374 -0.4315
 7625SOL    HW123731   6.914   0.210   2.837  0.3985 -0.1908 -0.3547
 7625SOL    HW223732   6.879   0.150   2.702 -0.9402  1.0344 -0.5794
 7626SOL     OW23733   3.967   4.170   3.399 -0.2493 -0.2491  0.0312
 7626SOL    HW123734   3.951   4.231   3.328 -0.1655 -0.0238  0.2062
 7626SOL    HW223735   3.884   4.122   3.409  0.6449 -2.5642 -2.3716
 7627SOL     OW23736   7.025   0.547   7.904 -0.2298 -0.1613 -0.0132
 7627SOL    HW123737   6.948   0.569   7.956 -1.2612 -0.6402 -1.2664
 7627SOL    HW223738   6.989   0.516   7.820  1.2860 -1.5166 -0.2213
 7628SOL     OW23739   6.822   3.147   2.301 -0.3047  0.3564 -0.6311
 7628SOL    HW123740   6.831   3.123   2.209  0.2872  1.5215 -0.8953
 7628SOL    HW223741   6.874   3.083   2.348  1.2871  1.0987 -1.3233
 7629SOL     OW23742   5.166   3.221   4.559 -0.1191 -0.1236 -1.0753
 7629SOL    HW123743   5.113   3.299   4.578  0.7413  0.2472 -0.1598
 7629SOL    HW223744   5.202   3.237   4.472  0.3739  0.6894 -0.7266
 7630SOL     OW23745   2.696   7.215   0.177  0.3284 -0.0556  0.2865
 7630SOL    HW123746   2.740   7.297   0.194  1.7181  0.0847 -3.1773
 7630SOL    HW223747   2.757   7.148   0.208  0.4324  0.1810  0.5975
 7631SOL     OW23748   2.843   5.600   7.687 -0.4627 -0.3296  0.4268
 7631SOL    HW123749   2.762   5.646   7.665 -0.6069 -0.1199  1.3789
 7631SOL    HW223750   2.908   5.638   7.627 -1.0262 -0.3966 -0.2446
 7632SOL     OW23751   2.474   1.367   1.770  0.0058  0.3254 -0.2481
 7632SOL    HW123752   2.502   1.315   1.694 -0.7654  0.8810 -0.9466
 7632SOL    HW223753   2.462   1.455   1.734 -0.4539  0.5735  0.5057
 7633SOL     OW23754   1.758   5.886   1.673  0.0039  0.2463 -0.5133
 7633SOL    HW123755   1.772   5.853   1.584  4.1261 -3.1845  1.0458
 7633SOL    HW223756   1.796   5.974   1.672 -1.9423  1.1532 -2.4989
 7634SOL     OW23757   5.495   6.649   0.746 -0.0011 -0.2687 -0.3065
 7634SOL    HW123758   5.459   6.615   0.828  0.7458  0.0692  0.1801
 7634SOL    HW223759   5.556   6.582   0.717  0.7825  0.2103  0.1695
 7635SOL     OW23760   3.681   3.002   1.354  0.3628  0.6482 -0.6863
 7635SOL    HW123761   3.668   2.908   1.361  1.2617  0.5305 -0.4381
 7635SOL    HW223762   3.699   3.017   1.261 -1.4225  0.8217 -1.0492
 7636SOL     OW23763   1.789   1.864   2.037  0.1633 -0.4452 -1.1954
 7636SOL    HW123764   1.827   1.900   1.957 -2.7374 -0.8472 -2.9263
 7636SOL    HW223765   1.783   1.939   2.096 -0.0080  0.5133 -2.3754
 7637SOL     OW23766   3.440   5.181   5.954 -0.7592  0.6041  0.1480
 7637SOL    HW123767   3.427   5.184   6.049  0.1957 -0.7468  0.3520
 7637SOL    HW223768   3.455   5.272   5.929  0.4518  0.8223  1.5325
 7638SOL     OW23769   2.069   1.634   7.347  0.1673  0.4491 -0.4921
 7638SOL    HW123770   2.158   1.656   7.321  0.0058  0.2238 -1.2697
 7638SOL    HW223771   2.064   1.658   7.440  0.5324  2.0378 -0.8509
 7639SOL     OW23772   5.789   4.440   4.362  0.2922 -0.8248  0.3387
 7639SOL    HW123773   5.827   4.408   4.443  2.5497  1.1045  0.1675
 7639SOL    HW223774   5.854   4.502   4.328 -1.8943  0.7016 -1.3978
 7640SOL     OW23775   1.702   5.334   6.470 -0.5334 -0.4302 -0.2996
 7640SOL    HW123776   1.721   5.271   6.401 -0.3583 -0.9541  0.2107
 7640SOL    HW223777   1.786   5.377   6.487 -0.6943  0.0649 -0.7723
 7641SOL     OW23778   1.527   6.922   5.921 -0.5117  0.4419  0.4190
 7641SOL    HW123779   1.497   6.946   6.009 -0.7600  1.6245  0.0197
 7641SOL    HW223780   1.550   6.829   5.929 -0.7432  0.4701  1.6740
 7642SOL     OW23781   5.236   0.901   2.930  0.1864  0.0839  0.6276
 7642SOL    HW123782   5.194   0.911   2.845 -0.7803  0.7382  1.1594
 7642SOL    HW223783   5.193   0.825   2.970  1.6552 -1.1410 -0.0249
 7643SOL     OW23784   7.115   0.214   0.161 -0.6147 -0.1261  0.0121
 7643SOL    HW123785   7.125   0.307   0.141 -0.1970 -0.1655  0.0189
 7643SOL    HW223786   7.177   0.170   0.102 -0.9607 -0.4166 -0.1365
 7644SOL     OW23787   0.413   6.736   5.476  0.2153  0.5901  0.2304
 7644SOL    HW123788   0.483   6.749   5.412 -0.2842  0.5768 -0.3300
 7644SOL    HW223789   0.369   6.655   5.448 -0.4399  0.9558  0.1675
 7645SOL     OW23790   4.549   3.626   1.769 -0.0375 -0.2973  0.4176
 7645SOL    HW123791   4.474   3.628   1.828 -0.7407 -1.8122 -0.3743
 7645SOL    HW223792   4.540   3.704   1.715 -1.2601 -0.6397  0.0995
 7646SOL     OW23793   7.994   3.935   7.293  0.0486 -0.1904  0.8698
 7646SOL    HW123794   8.048   3.862   7.324  0.3829  0.7982  2.7128
 7646SOL    HW223795   8.054   3.989   7.242 -0.1181 -0.9950 -0.2108
 7647SOL     OW23796   7.211   4.931   2.189 -0.1314 -0.1074 -0.0553
 7647SOL    HW123797   7.121   4.902   2.176  0.1538 -1.0381 -0.0560
 7647SOL    HW223798   7.234   4.977   2.108 -1.1398  1.6133  0.6010
 7648SOL     OW23799   2.269   7.535   2.445 -0.1340 -0.6381 -0.7201
 7648SOL    HW123800   2.363   7.529   2.464 -0.2717 -0.5170  0.0278
 7648SOL    HW223801   2.255   7.626   2.419  0.3673 -1.1996 -3.2498
 7649SOL     OW23802   2.390   5.263   7.886  0.2090  0.4360  0.3871
 7649SOL    HW123803   2.340   5.191   7.848 -0.0420  0.6971  0.2207
 7649SOL    HW223804   2.477   5.227   7.901 -0.3588 -0.3921  1.8321
 7650SOL     OW23805   0.985   0.477   2.105  0.5956 -0.0186 -0.2803
 7650SOL    HW123806   0.898   0.513   2.088  1.0621  1.2958 -0.0239
 7650SOL    HW223807   1.042   0.554   2.111  1.7323 -0.8406 -0.1811
 7651SOL     OW23808   2.407   6.021   5.148 -0.0004  0.4489  0.3421
 7651SOL    HW123809   2.434   5.992   5.235  1.1913 -0.2606 -0.2318
 7651SOL    HW223810   2.425   6.116   5.147  2.0373  0.1128  0.1927
 7652SOL     OW23811   5.992   3.923   0.850  0.3500 -0.1064  0.1740
 7652SOL    HW123812   5.972   3.829   0.844 -0.6644  0.1450 -0.6245
 7652SOL    HW223813   5.990   3.953   0.760 -0.0415  0.8236  0.4841
 7653SOL     OW23814   3.506   2.848   7.896 -0.0096 -0.2854  0.1077
 7653SOL    HW123815   3.474   2.769   7.939 -1.8928 -0.3386 -1.2499
 7653SOL    HW223816   3.547   2.816   7.815  3.3642 -0.1830  1.6243
 7654SOL     OW23817   6.377   7.932   3.398 -0.1802  0.2256  0.6824
 7654SOL    HW123818   6.363   7.984   3.319  3.2710 -0.9559 -0.8957
 7654SOL    HW223819   6.385   7.997   3.468  0.8781  1.6418 -0.6800
 7655SOL     OW23820   7.702   5.491   1.311 -0.2489  0.3562  0.3809
 7655SOL    HW123821   7.710   5.581   1.279 -0.9795 -0.0501 -1.0514
 7655SOL    HW223822   7.703   5.437   1.232  0.7343 -0.9536  1.2509
 7656SOL     OW23823   0.839   2.735   5.277 -0.0010  0.1819 -0.5850
 7656SOL    HW123824   0.900   2.793   5.322 -0.5860 -0.1928  0.7379
 7656SOL    HW223825   0.754   2.758   5.313 -0.6088  0.4100 -2.1094
 7657SOL     OW23826   2.806   5.244   2.143  0.8544 -0.1834  0.3340
 7657SOL    HW123827   2.873   5.303   2.108  0.8590 -0.0325  0.5959
 7657SOL    HW223828   2.801   5.173   2.079  0.1048  0.6232 -0.5301
 7658SOL     OW23829   7.723   1.507   5.620 -0.3890 -0.7954 -0.3859
 7658SOL    HW123830   7.654   1.455   5.577 -0.7322  0.5084 -1.4987
 7658SOL    HW223831   7.750   1.570   5.553  0.3201  0.1682  0.7691
 7659SOL     OW23832   5.827   6.196   6.023  0.0155 -0.0719  0.3918
 7659SOL    HW123833   5.743   6.232   6.051 -0.4587 -1.3204  0.6027
 7659SOL    HW223834   5.887   6.271   6.026 -1.3593  1.1725 -1.0572
 7660SOL     OW23835   6.300   4.577   3.707 -0.1594 -0.3115  0.0587
 7660SOL    HW123836   6.366   4.528   3.657  1.3882 -1.4933  2.9874
 7660SOL    HW223837   6.255   4.510   3.758 -0.8823  0.9085  1.0681
 7661SOL     OW23838   1.157   4.440   2.631  0.9453  0.2615  0.3521
 7661SOL    HW123839   1.127   4.426   2.541 -0.1455 -1.4540  0.9159
 7661SOL    HW223840   1.249   4.464   2.622  1.6017 -2.3345 -1.1915
 7662SOL     OW23841   2.038   4.450   5.550  0.3092  0.0929  0.4099
 7662SOL    HW123842   2.035   4.397   5.471  0.6702  0.7730 -0.0599
 7662SOL    HW223843   1.946   4.468   5.570  0.0381 -2.3183  1.6868
 7663SOL     OW23844   1.868   5.637   4.065  0.4796 -0.2775  0.0557
 7663SOL    HW123845   1.929   5.630   4.139  1.0332 -1.6669 -0.5022
 7663SOL    HW223846   1.922   5.622   3.987 -0.2868  0.1079 -0.5717
 7664SOL     OW23847   6.826   0.675   5.126  0.2761 -1.0282  0.0584
 7664SOL    HW123848   6.877   0.657   5.205 -0.4500  1.1054  1.0673
 7664SOL    HW223849   6.836   0.769   5.111 -2.3251 -0.7616 -0.4214
 7665SOL     OW23850   0.094   5.557   0.658 -0.5178 -0.8313  0.3017
 7665SOL    HW123851   0.114   5.464   0.666 -1.2814 -0.9958  0.3977
 7665SOL    HW223852   0.064   5.583   0.745 -0.9921 -0.6744  0.0995
 7666SOL     OW23853   5.682   2.367   7.837  0.3664 -0.1194 -0.3324
 7666SOL    HW123854   5.748   2.329   7.895  0.1523  1.2635  0.8876
 7666SOL    HW223855   5.727   2.383   7.755  0.6209 -2.3605 -0.6966
 7667SOL     OW23856   3.075   0.398   4.215  0.0014  0.6576  0.1903
 7667SOL    HW123857   3.158   0.428   4.179  0.2873 -0.7348 -0.3691
 7667SOL    HW223858   3.091   0.388   4.309  0.5876  0.0820  0.0418
 7668SOL     OW23859   2.867   1.491   7.207  0.0769  0.1383  0.0727
 7668SOL    HW123860   2.835   1.433   7.276 -0.2187 -0.1398 -0.2891
 7668SOL    HW223861   2.890   1.572   7.252 -1.5258  0.5014  0.3233
 7669SOL     OW23862   0.764   2.760   2.791  0.7195  0.2821 -0.0021
 7669SOL    HW123863   0.839   2.701   2.803  0.4779 -0.1598 -0.6019
 7669SOL    HW223864   0.689   2.702   2.780 -0.0259  0.7210  2.2569
 7670SOL     OW23865   3.500   5.440   5.880  0.0972  0.3051 -0.1420
 7670SOL    HW123866   3.444   5.518   5.892 -0.2956 -0.1914  1.6334
 7670SOL    HW223867   3.579   5.474   5.837  0.0912  1.7790  0.9167
 7671SOL     OW23868   2.829   2.940   3.854 -0.7807  0.3548  0.3993
 7671SOL    HW123869   2.837   3.019   3.907  0.6070  1.4864 -1.3973
 7671SOL    HW223870   2.911   2.892   3.869  0.0950  1.1864 -1.3947
 7672SOL     OW23871   2.214   3.884   1.093  0.0584  0.0981 -0.0741
 7672SOL    HW123872   2.198   3.900   1.186  0.6693  2.4787 -0.3057
 7672SOL    HW223873   2.308   3.896   1.082  0.1009 -0.8677 -0.8879
 7673SOL     OW23874   0.001   7.244   1.912  0.2723  0.0796  0.2906
 7673SOL    HW123875  -0.015   7.313   1.975 -2.1230 -0.7585  0.7136
 7673SOL    HW223876   0.096   7.246   1.897  0.8007  0.8621  3.2154
 7674SOL     OW23877   6.775   7.967   4.355 -0.0065 -0.0364 -0.3905
 7674SOL    HW123878   6.765   8.032   4.424  1.1812 -2.9043  2.7844
 7674SOL    HW223879   6.686   7.940   4.335 -0.4279  1.5436 -0.7882
 7675SOL     OW23880   6.537   7.195   5.806 -0.5015 -0.2235 -0.2701
 7675SOL    HW123881   6.444   7.215   5.788 -0.9499 -2.1075 -0.2225
 7675SOL    HW223882   6.552   7.227   5.894 -0.8494  0.8937 -0.5995
 7676SOL     OW23883   2.752   5.547   3.952  0.2961 -0.3528 -0.2221
 7676SOL    HW123884   2.777   5.638   3.970  1.0507  0.1133 -3.0316
 7676SOL    HW223885   2.658   5.550   3.935 -0.3479 -0.7390  2.7517
 7677SOL     OW23886   2.378   7.634   2.789  0.9191 -0.1375  0.0431
 7677SOL    HW123887   2.436   7.622   2.713  1.8975  0.6200  0.6559
 7677SOL    HW223888   2.435   7.668   2.858 -0.5466  2.1904  0.1973
 7678SOL     OW23889   3.989   1.162   2.692  0.4159 -0.3181  0.1356
 7678SOL    HW123890   3.981   1.100   2.765  1.2304  0.3639  0.8349
 7678SOL    HW223891   3.927   1.232   2.714  2.9671  1.5846  2.0248
 7679SOL     OW23892   1.071   0.383   3.590  0.0203 -0.2281  0.2924
 7679SOL    HW123893   1.002   0.334   3.634  0.0351  0.1491  0.7415
 7679SOL    HW223894   1.140   0.392   3.656  0.6803 -0.9721 -0.2835
 7680SOL     OW23895   4.530   1.533   0.135  0.0431  0.1995  0.2007
 7680SOL    HW123896   4.479   1.470   0.184 -1.2597  1.3450  0.3813
 7680SOL    HW223897   4.514   1.511   0.043  0.5441 -0.4442  0.2601
 7681SOL     OW23898   5.409   6.417   4.260 -0.0443 -0.1417 -0.2961
 7681SOL    HW123899   5.487   6.463   4.290  1.4616 -2.6561 -0.0496
 7681SOL    HW223900   5.355   6.407   4.339  0.3193 -0.0736 -0.0373
 7682SOL     OW23901   3.818   3.609   3.473 -0.3721 -0.3935  0.2675
 7682SOL    HW123902   3.839   3.555   3.549  0.2502  1.3351  1.3802
 7682SOL    HW223903   3.754   3.672   3.505 -2.2677 -1.3748 -1.3942
 7683SOL     OW23904   0.433   4.901   3.446 -0.4050  0.5339  0.2536
 7683SOL    HW123905   0.415   4.991   3.418 -0.0626  0.4798 -0.1485
 7683SOL    HW223906   0.386   4.891   3.528 -0.7638  0.9585  0.0994
 7684SOL     OW23907   4.042   3.067   2.187  0.4244  0.0077  0.3731
 7684SOL    HW123908   4.018   3.032   2.273 -0.3497 -0.4360 -0.0167
 7684SOL    HW223909   3.964   3.114   2.157  0.8161  0.4780  0.0655
 7685SOL     OW23910   6.040   1.804   7.111  0.6799  0.1998 -0.0439
 7685SOL    HW123911   5.960   1.759   7.138 -0.9621  2.5203 -0.6883
 7685SOL    HW223912   6.087   1.820   7.193 -0.2016 -0.0094  0.5163
 7686SOL     OW23913   2.714   2.048   7.057 -0.1442  0.2126 -0.2407
 7686SOL    HW123914   2.795   2.097   7.071  1.0888 -1.3676 -1.4740
 7686SOL    HW223915   2.656   2.077   7.128  1.4822  1.4038  0.6719
 7687SOL     OW23916   7.897   1.850   7.084 -0.2666 -0.0782 -0.0809
 7687SOL    HW123917   7.871   1.758   7.075 -0.2492 -0.1474  0.4927
 7687SOL    HW223918   7.928   1.875   6.997 -1.6247 -0.1825 -0.6151
 7688SOL     OW23919   7.118   5.484   6.013  0.0410  0.1473  0.0751
 7688SOL    HW123920   7.207   5.513   6.031  0.1386 -1.0306  1.7431
 7688SOL    HW223921   7.069   5.508   6.091 -0.4638 -1.6469  0.3495
 7689SOL     OW23922   4.871   5.732   3.516  0.8908  0.0309 -0.0919
 7689SOL    HW123923   4.851   5.822   3.491 -0.5180 -0.3231 -0.3572
 7689SOL    HW223924   4.880   5.685   3.433  1.3313 -0.1373  0.0472
 7690SOL     OW23925   6.227   2.186   7.177 -0.0903  0.1024  0.2005
 7690SOL    HW123926   6.157   2.249   7.192 -0.0721  0.2289 -0.2362
 7690SOL    HW223927   6.300   2.218   7.230 -0.0927  0.4260  0.0106
 7691SOL     OW23928   7.119   6.338   1.505  0.0945 -0.7503 -0.2576
 7691SOL    HW123929   7.168   6.321   1.586 -1.0129 -0.6309  0.4584
 7691SOL    HW223930   7.144   6.265   1.447  1.5630 -0.3693 -0.1476
 7692SOL     OW23931   7.932   2.746   3.643 -0.2192  0.2087 -0.1906
 7692SOL    HW123932   7.958   2.669   3.593 -1.4058  0.4092 -1.1465
 7692SOL    HW223933   7.947   2.720   3.735  1.7277 -0.2458 -0.5903
 7693SOL     OW23934   7.826   7.495   6.109 -0.1322 -0.4168  0.0555
 7693SOL    HW123935   7.761   7.448   6.162 -0.2260  0.6255  0.9197
 7693SOL    HW223936   7.897   7.433   6.097 -0.2068 -0.7577  1.2533
 7694SOL     OW23937   2.429   2.862   4.591 -0.4389 -0.7666 -0.1073
 7694SOL    HW123938   2.500   2.890   4.533 -1.6470  0.9689 -0.8242
 7694SOL    HW223939   2.471   2.851   4.677  0.8326 -0.4900 -0.6757
 7695SOL     OW23940   4.951   2.473   5.447  0.1739 -0.0262  0.6242
 7695SOL    HW123941   5.044   2.473   5.471 -0.1624 -1.1906  2.0621
 7695SOL    HW223942   4.948   2.422   5.365  0.8427  0.4029  0.3195
 7696SOL     OW23943   0.463   6.755   2.916 -0.4484  0.3306 -0.0179
 7696SOL    HW123944   0.508   6.676   2.947 -2.9148 -1.1333  0.0943
 7696SOL    HW223945   0.505   6.827   2.965  0.0598 -1.2119  1.9494
 7697SOL     OW23946   7.924   3.866   2.390 -0.2283  0.1324 -0.0245
 7697SOL    HW123947   8.010   3.829   2.409  0.3938  1.5970  0.1062
 7697SOL    HW223948   7.916   3.861   2.295 -0.4145 -0.8552  0.0301
 7698SOL     OW23949   4.996   2.575   2.549 -0.2621  0.1432 -0.2120
 7698SOL    HW123950   5.016   2.492   2.505  0.7381 -0.2772  0.9760
 7698SOL    HW223951   5.047   2.640   2.500 -0.8578  0.0241 -0.9971
 7699SOL     OW23952   0.907   6.238   1.635 -0.3555  0.4168 -0.3068
 7699SOL    HW123953   0.926   6.174   1.703 -1.0748  2.8291  2.3492
 7699SOL    HW223954   0.990   6.248   1.588  0.4982 -0.5232  0.9263
 7700SOL     OW23955   5.413   5.925   2.631  0.2800 -0.1006  0.3190
 7700SOL    HW123956   5.420   5.836   2.665 -1.4636 -0.5011 -0.2615
 7700SOL    HW223957   5.325   5.953   2.655  0.3497  0.9942 -0.6260
 7701SOL     OW23958   0.732   1.902   4.629 -0.1555  0.0338 -0.3786
 7701SOL    HW123959   0.729   1.956   4.551 -0.8741  1.3214  0.4976
 7701SOL    HW223960   0.643   1.906   4.665  0.2941 -0.0300  0.8088
 7702SOL     OW23961   0.989   4.757   4.668  0.3286 -0.2880  0.1556
 7702SOL    HW123962   0.914   4.703   4.645 -0.9633  1.4977 -0.0644
 7702SOL    HW223963   1.007   4.737   4.759 -1.4326  0.3528  0.6850
 7703SOL     OW23964   7.348   6.859   1.297  0.1123  0.1316  0.2765
 7703SOL    HW123965   7.351   6.874   1.203 -0.5875  1.9856  0.5148
 7703SOL    HW223966   7.297   6.932   1.332  1.1935  0.0372  2.2121
 7704SOL     OW23967   7.423   3.842   4.612 -0.6484 -0.2658 -0.2010
 7704SOL    HW123968   7.473   3.801   4.541  1.2167  0.2256  0.7407
 7704SOL    HW223969   7.407   3.931   4.581  1.7483  0.5281  0.6291
 7705SOL     OW23970   3.292   6.612   5.345 -0.3921  0.0966  0.2730
 7705SOL    HW123971   3.340   6.531   5.334  0.5199  0.6692 -0.0145
 7705SOL    HW223972   3.287   6.650   5.257 -2.1752 -0.3796  0.1176
 7706SOL     OW23973   6.086   6.040   7.383  0.1809  0.7130 -0.5189
 7706SOL    HW123974   6.013   6.100   7.371 -1.1373 -0.5037  1.0809
 7706SOL    HW223975   6.153   6.092   7.427 -0.5204  1.3130 -0.1466
 7707SOL     OW23976   2.736   4.233   7.950 -0.2148  0.0244 -0.6443
 7707SOL    HW123977   2.806   4.254   8.011  0.0172 -0.1796 -0.8397
 7707SOL    HW223978   2.687   4.314   7.941 -0.0049  0.1666 -0.5101
 7708SOL     OW23979   7.611   0.019   7.526  0.2498  0.0506  0.0586
 7708SOL    HW123980   7.691  -0.025   7.552 -0.0832  0.8072  2.6086
 7708SOL    HW223981   7.543  -0.021   7.580 -0.5336  1.6363  0.3031
 7709SOL     OW23982   0.230   0.165   0.367  0.0220 -0.1656 -0.8433
 7709SOL    HW123983   0.224   0.071   0.386 -1.0867  0.0071 -0.2195
 7709SOL    HW223984   0.141   0.189   0.341 -0.2930  1.1616  1.2695
 7710SOL     OW23985   2.057   4.144   1.869 -0.6935 -0.4150 -0.1242
 7710SOL    HW123986   2.105   4.173   1.790 -1.0540 -0.6137 -0.4181
 7710SOL    HW223987   1.975   4.109   1.835 -0.1614 -2.0836  0.1767
 7711SOL     OW23988   0.678   5.502   0.800  0.3852  0.5232  0.0695
 7711SOL    HW123989   0.585   5.525   0.798  0.4505  0.7807 -0.0413
 7711SOL    HW223990   0.679   5.407   0.815  0.1401  0.8386  2.4796
 7712SOL     OW23991   6.354   7.889   1.896 -0.0808 -0.2272 -0.3001
 7712SOL    HW123992   6.377   7.805   1.936  1.1084 -0.0519 -0.5736
 7712SOL    HW223993   6.353   7.872   1.802 -1.2062 -0.2403 -0.3061
 7713SOL     OW23994   1.347   4.404   5.968  0.1414 -0.0604  0.6771
 7713SOL    HW123995   1.318   4.313   5.962  0.3663 -0.1368  0.7532
 7713SOL    HW223996   1.331   4.428   6.059  1.4904 -0.5014  1.0523
 7714SOL     OW23997   5.912   4.340   4.594 -0.2107  0.3184 -0.1035
 7714SOL    HW123998   5.978   4.348   4.525 -1.1411 -1.5942 -1.3159
 7714SOL    HW223999   5.963   4.332   4.675  1.0754 -0.7745 -0.9686
 7715SOL     OW24000   0.231   2.543   0.938 -0.1592  0.6215  0.3603
 7715SOL    HW124001   0.142   2.573   0.957 -0.0116  1.0162  0.4252
 7715SOL    HW224002   0.219   2.457   0.898 -0.5536  0.4840  0.7658
 7716SOL     OW24003   5.857   7.973   7.989  0.0364  0.5764 -0.0919
 7716SOL    HW124004   5.892   8.051   8.033 -0.2586  1.0518 -0.6736
 7716SOL    HW224005   5.929   7.911   7.989  0.1319  0.6626  0.8118
 7717SOL     OW24006   7.076   4.735   5.773  0.4787  0.1665 -0.3795
 7717SOL    HW124007   7.025   4.760   5.697 -0.1721 -1.2433 -0.4301
 7717SOL    HW224008   7.070   4.811   5.832 -0.6459  0.4996 -0.9005
 7718SOL     OW24009   4.345   2.864   0.937  0.5540 -0.0121  0.1654
 7718SOL    HW124010   4.338   2.959   0.928  2.3483 -0.0438 -2.4751
 7718SOL    HW224011   4.414   2.852   1.002  1.0907  0.4999 -0.3011
 7719SOL     OW24012   1.494   1.646   5.017 -0.1414  0.5470 -0.7742
 7719SOL    HW124013   1.431   1.585   5.055  0.5705  1.3970  1.9542
 7719SOL    HW224014   1.578   1.619   5.052  0.1309  3.3311  0.9759
 7720SOL     OW24015   3.368   6.974   4.134  0.5523  0.0086 -0.0227
 7720SOL    HW124016   3.450   6.960   4.182  1.1400 -4.3727 -1.7806
 7720SOL    HW224017   3.397   6.997   4.045 -0.1022 -1.0794 -0.5288
 7721SOL     OW24018   2.978   5.200   0.000  0.1456  0.5215 -0.6700
 7721SOL    HW124019   3.060   5.222   0.044  0.9295 -1.9008 -0.7649
 7721SOL    HW224020   2.912   5.254   0.043  1.1730 -0.3347  2.2528
 7722SOL     OW24021   6.980   2.999   2.473  0.7918 -0.1776  0.3470
 7722SOL    HW124022   6.978   3.016   2.567 -0.2936 -2.4989  0.8346
 7722SOL    HW224023   6.982   2.903   2.467  2.7248 -0.0655 -1.9964
 7723SOL     OW24024   3.597   1.245   0.833  0.0888  0.1007  0.1860
 7723SOL    HW124025   3.617   1.333   0.864 -0.1587  1.1911 -2.4763
 7723SOL    HW224026   3.535   1.210   0.897 -0.1554  2.0401  1.0667
 7724SOL     OW24027   6.764   3.428   6.516  0.4818 -0.1416 -0.3628
 7724SOL    HW124028   6.783   3.521   6.528  0.6814 -0.2574  0.2601
 7724SOL    HW224029   6.818   3.401   6.442 -0.1834  0.4232 -1.0593
 7725SOL     OW24030   7.582   4.614   5.405 -0.3632  0.1243  0.6404
 7725SOL    HW124031   7.596   4.593   5.498  0.2888 -0.3777  0.4320
 7725SOL    HW224032   7.488   4.602   5.392 -0.4397  0.0791  1.2080
 7726SOL     OW24033   5.977   5.070   0.455  0.6452  0.1822 -0.1044
 7726SOL    HW124034   5.902   5.066   0.514  0.4695 -0.1273 -0.3474
 7726SOL    HW224035   6.035   5.136   0.494  0.5798 -0.0917  0.4687
 7727SOL     OW24036   3.335   2.654   1.555 -0.2020  0.5055  0.2788
 7727SOL    HW124037   3.418   2.612   1.534 -0.8080 -1.8772  2.1661
 7727SOL    HW224038   3.355   2.747   1.560  1.5696  0.3888 -2.5684
 7728SOL     OW24039   3.645   5.400   0.197 -0.1136  0.4890 -0.7373
 7728SOL    HW124040   3.702   5.476   0.208  1.7899 -1.0520  0.8133
 7728SOL    HW224041   3.704   5.331   0.165 -0.8109 -1.4126  1.7530
 7729SOL     OW24042   4.768   5.680   3.155  0.0562  0.0766  0.3003
 7729SOL    HW124043   4.813   5.623   3.218 -0.4510  0.3710  0.9414
 7729SOL    HW224044   4.750   5.624   3.080  1.5645 -0.0347 -0.0196
 7730SOL     OW24045   4.211   0.907   7.482 -0.5573  0.0133 -0.7994
 7730SOL    HW124046   4.158   0.940   7.554 -2.2742  0.1354 -2.0547
 7730SOL    HW224047   4.174   0.948   7.404  1.9642  0.7883 -1.6910
 7731SOL     OW24048   7.147   7.913   6.477  0.0364  0.2103 -0.1410
 7731SOL    HW124049   7.111   7.995   6.510 -1.3768  0.2772 -1.7096
 7731SOL    HW224050   7.191   7.938   6.396 -0.0908 -0.5308 -0.4444
 7732SOL     OW24051   6.403   3.336   3.615 -0.8770 -0.1817  0.1529
 7732SOL    HW124052   6.367   3.404   3.672  0.8869  0.3295  0.7530
 7732SOL    HW224053   6.330   3.307   3.562 -2.2553  0.3812  1.6616
 7733SOL     OW24054   4.013   4.093   7.270  0.3676 -0.4661 -0.3266
 7733SOL    HW124055   3.965   4.172   7.295  0.0346 -0.8636  0.2945
 7733SOL    HW224056   4.018   4.098   7.174  1.9463  1.2378 -0.2258
 7734SOL     OW24057   1.660   2.373   4.957  0.8023 -0.6052 -0.0979
 7734SOL    HW124058   1.696   2.461   4.946  1.0286 -0.7553 -0.5801
 7734SOL    HW224059   1.620   2.352   4.872 -2.5355  0.4839  1.0326
 7735SOL     OW24060   0.329   4.883   7.220  0.1306  0.2268  0.0214
 7735SOL    HW124061   0.343   4.947   7.150  0.2124 -0.5530 -0.6979
 7735SOL    HW224062   0.324   4.798   7.174 -1.4207 -0.1451  0.7873
 7736SOL     OW24063   7.204   6.135   1.288 -0.4375  0.5791  0.2934
 7736SOL    HW124064   7.186   6.167   1.200 -1.0815 -1.2978 -0.3061
 7736SOL    HW224065   7.159   6.050   1.292  1.1929 -0.2699  1.7446
 7737SOL     OW24066   3.066   4.988   4.437  0.2692  0.5317 -0.2044
 7737SOL    HW124067   3.121   4.930   4.490  0.3862  1.1854  0.3906
 7737SOL    HW224068   2.976   4.969   4.465  0.1920 -0.3023 -0.9496
 7738SOL     OW24069   5.903   6.228   7.203  0.1668 -0.5994  0.9745
 7738SOL    HW124070   5.961   6.262   7.135  0.2887 -0.7775  0.9861
 7738SOL    HW224071   5.918   6.285   7.279 -1.6848  1.0543  0.1593
 7739SOL     OW24072   2.277   2.355   4.159 -0.0337  0.2208  0.4855
 7739SOL    HW124073   2.372   2.355   4.151 -0.0245  2.3264  0.0527
 7739SOL    HW224074   2.248   2.292   4.093  1.0117  0.6557 -0.4209
 7740SOL     OW24075   1.843   0.338   1.948 -0.3939  0.0783 -0.1524
 7740SOL    HW124076   1.756   0.330   1.988 -0.4822  0.2105 -0.3138
 7740SOL    HW224077   1.832   0.301   1.860  0.1209 -1.4096  0.3791
 7741SOL     OW24078   6.478   3.596   4.768  0.7657  0.0297  0.0923
 7741SOL    HW124079   6.529   3.526   4.810  0.1471  0.1768  1.1281
 7741SOL    HW224080   6.543   3.645   4.717  1.3993 -0.6445  0.2209
 7742SOL     OW24081   7.902   6.011   7.271 -0.3664  0.1024 -0.2445
 7742SOL    HW124082   7.825   6.067   7.277 -0.7139 -0.2639 -1.1003
 7742SOL    HW224083   7.892   5.949   7.344 -1.0263 -0.1047 -0.4999
 7743SOL     OW24084   3.562   0.054   0.056 -0.7236 -0.4125  0.2513
 7743SOL    HW124085   3.481   0.064   0.106 -0.1440  1.0326  0.9704
 7743SOL    HW224086   3.533   0.030  -0.032 -1.9878  0.8825  0.2764
 7744SOL     OW24087   0.144   6.302   6.606  0.4092  0.2382  0.1894
 7744SOL    HW124088   0.167   6.227   6.661  2.6163  1.3753  0.9415
 7744SOL    HW224089   0.184   6.282   6.521  1.2087  0.6499  0.4617
 7745SOL     OW24090   3.593   2.548   1.117 -0.0791  0.6545  0.4732
 7745SOL    HW124091   3.557   2.460   1.121 -0.0224  0.6589  1.3364
 7745SOL    HW224092   3.682   2.536   1.085 -0.3100  0.4801 -0.1179
 7746SOL     OW24093   2.195   3.336   0.314  0.1612 -0.2713 -0.5074
 7746SOL    HW124094   2.166   3.248   0.288  0.7857 -0.5606 -0.2344
 7746SOL    HW224095   2.282   3.345   0.274  1.1146 -0.6894  1.3490
 7747SOL     OW24096   5.428   1.881   3.679 -0.2494 -0.1053  0.0211
 7747SOL    HW124097   5.520   1.870   3.706  0.3242 -1.6010 -2.2755
 7747SOL    HW224098   5.391   1.792   3.685 -1.4866  0.4156  0.5549
 7748SOL     OW24099   2.281   1.885   0.721  0.2073 -0.1031 -0.1455
 7748SOL    HW124100   2.237   1.898   0.805  0.2035  1.9747 -0.4127
 7748SOL    HW224101   2.297   1.791   0.717  1.7973 -0.1332  3.0106
 7749SOL     OW24102   7.819   2.389   1.341 -0.1383  0.4654  0.2172
 7749SOL    HW124103   7.874   2.326   1.295 -0.0753  0.3470  0.4545
 7749SOL    HW224104   7.735   2.386   1.293  0.2254  1.0352 -0.4738
 7750SOL     OW24105   3.080   6.496   7.672  0.7477  0.5158  0.2244
 7750SOL    HW124106   3.131   6.416   7.680  0.8335  0.5233 -0.2447
 7750SOL    HW224107   3.144   6.564   7.655  0.4306  0.1259 -3.1915
 7751SOL     OW24108   1.556   0.392   5.636  0.1225  0.7400  0.4427
 7751SOL    HW124109   1.575   0.298   5.635  0.0848  0.6929  2.0123
 7751SOL    HW224110   1.532   0.412   5.545  2.0104 -0.3692 -0.3799
 7752SOL     OW24111   3.490   7.471   3.652 -0.2331  0.1340  0.6074
 7752SOL    HW124112   3.512   7.563   3.668 -1.7145  0.5997  0.1682
 7752SOL    HW224113   3.562   7.438   3.599  0.5584  0.9018  1.1770
 7753SOL     OW24114   5.253   4.611   0.688 -0.4447 -0.4410 -0.4534
 7753SOL    HW124115   5.202   4.542   0.645  0.1903 -1.2303  0.0424
 7753SOL    HW224116   5.211   4.623   0.773 -0.7732  0.0490 -0.6793
 7754SOL     OW24117   1.978   1.386   4.944  0.1460 -0.2610 -0.5331
 7754SOL    HW124118   2.026   1.382   5.026 -0.1221 -0.3737 -0.3802
 7754SOL    HW224119   1.889   1.413   4.969  0.4520  1.2036 -0.9551
 7755SOL     OW24120   5.159   0.096   1.141 -0.3642 -0.0150  0.3537
 7755SOL    HW124121   5.174   0.004   1.120  0.4181  0.0827  0.4494
 7755SOL    HW224122   5.159   0.098   1.237 -0.4618  0.0698  0.3512
 7756SOL     OW24123   3.346   1.977   0.338  0.2611  0.2116  0.2564
 7756SOL    HW124124   3.360   1.921   0.414  2.5191  0.5338  0.1360
 7756SOL    HW224125   3.256   2.008   0.347  1.1390  2.2766  4.2027
 7757SOL     OW24126   0.590   5.510   5.743 -0.0604  0.1670 -0.7853
 7757SOL    HW124127   0.635   5.438   5.788 -0.7550 -1.0498 -1.9699
 7757SOL    HW224128   0.502   5.510   5.780  0.2760  1.2058  0.0567
 7758SOL     OW24129   5.218   5.222   6.753 -0.1620  0.1004  0.1324
 7758SOL    HW124130   5.142   5.218   6.694 -0.1237 -2.2160  0.1795
 7758SOL    HW224131   5.251   5.312   6.742 -0.9547  0.1773 -2.3577
 7759SOL     OW24132   7.812   0.361   4.299 -0.8701  0.0635  0.1742
 7759SOL    HW124133   7.845   0.286   4.349 -0.3253  0.0441 -0.1998
 7759SOL    HW224134   7.864   0.435   4.330 -0.5615  0.0597 -0.3188
 7760SOL     OW24135   7.157   1.925   6.632  0.4994 -0.0412 -0.4163
 7760SOL    HW124136   7.074   1.892   6.598 -0.7388 -0.2112  2.5594
 7760SOL    HW224137   7.143   2.019   6.645  0.0876 -0.3637  1.7714
 7761SOL     OW24138   4.265   5.333   5.789 -0.0053 -0.1204 -0.3508
 7761SOL    HW124139   4.173   5.329   5.813 -0.0777  1.8851 -0.1281
 7761SOL    HW224140   4.269   5.289   5.704 -1.3330  0.4695 -0.7544
 7762SOL     OW24141   4.442   2.956   4.332 -0.8061  0.4196 -0.1051
 7762SOL    HW124142   4.513   3.006   4.291 -0.0937  0.3195  0.9715
 7762SOL    HW224143   4.363   2.986   4.288 -0.0541  0.1883 -1.6521
 7763SOL     OW24144   1.199   3.446   3.345 -0.3924 -0.6568 -0.0727
 7763SOL    HW124145   1.270   3.395   3.385 -0.3787 -0.6077 -0.0350
 7763SOL    HW224146   1.222   3.537   3.362  1.4294 -0.4333 -3.1592
 7764SOL     OW24147   1.018   6.215   7.804 -0.5412  0.3048  1.1125
 7764SOL    HW124148   1.036   6.248   7.892  1.2592  1.7560  0.2873
 7764SOL    HW224149   1.096   6.163   7.781 -1.5718 -1.1705  0.8511
 7765SOL     OW24150   1.264   7.330   1.579 -0.1729  0.8705  0.0951
 7765SOL    HW124151   1.242   7.321   1.672 -1.9962  2.0435 -0.1640
 7765SOL    HW224152   1.219   7.410   1.552 -1.8528 -0.7478 -2.3664
 7766SOL     OW24153   6.385   3.389   3.274 -0.1014  0.4263 -0.2523
 7766SOL    HW124154   6.292   3.372   3.259 -0.3837 -0.2978  1.9882
 7766SOL    HW224155   6.419   3.306   3.306  1.8557  0.0498 -2.9852
 7767SOL     OW24156   7.685   7.165   1.187  0.1065  0.2372 -0.5545
 7767SOL    HW124157   7.710   7.098   1.251  1.3258  1.7184  0.5888
 7767SOL    HW224158   7.593   7.183   1.205 -0.5837 -1.8685 -1.6202
 7768SOL     OW24159   2.535   0.224   0.241 -0.3577  0.0698  0.0027
 7768SOL    HW124160   2.565   0.165   0.172  0.5412  0.4535  0.0457
 7768SOL    HW224161   2.508   0.165   0.312 -2.4783 -0.3690 -1.0868
 7769SOL     OW24162   2.600   5.358   5.967 -0.1100  0.4884 -0.1868
 7769SOL    HW124163   2.579   5.451   5.962 -1.0597  0.2948 -0.0275
 7769SOL    HW224164   2.523   5.314   5.934 -0.3053 -0.2853  1.1952
 7770SOL     OW24165   5.383   0.655   2.485 -0.2405 -0.0819  0.4042
 7770SOL    HW124166   5.412   0.564   2.484 -0.6767 -0.2258  0.7382
 7770SOL    HW224167   5.425   0.694   2.409  1.6844 -0.0118  1.4423
 7771SOL     OW24168   7.106   3.589   7.364  0.1580  0.3742 -0.1187
 7771SOL    HW124169   7.025   3.539   7.362  0.7619 -0.6781  0.3884
 7771SOL    HW224170   7.138   3.586   7.274 -0.5965  1.2121 -0.4246
 7772SOL     OW24171   1.169   2.923   7.523 -0.3195  0.4420 -0.3944
 7772SOL    HW124172   1.076   2.927   7.547 -0.4037 -0.2334 -0.5700
 7772SOL    HW224173   1.215   2.929   7.607 -0.6159 -2.2832  0.0722
 7773SOL     OW24174   7.650   4.234   3.558 -0.2200  0.1049 -0.2776
 7773SOL    HW124175   7.637   4.144   3.527 -1.2888  0.1666 -0.0570
 7773SOL    HW224176   7.740   4.255   3.534 -0.1227 -0.8446 -0.7970
 7774SOL     OW24177   0.845   2.056   5.409 -0.4880  0.2332  0.1854
 7774SOL    HW124178   0.807   2.040   5.323 -1.3005  4.0457 -0.3470
 7774SOL    HW224179   0.773   2.041   5.470 -0.8941  0.7005 -0.1657
 7775SOL     OW24180   4.622   1.054   7.904  0.0698 -0.0281 -0.3459
 7775SOL    HW124181   4.559   0.990   7.937 -0.5081  0.6061 -0.1977
 7775SOL    HW224182   4.699   1.002   7.881 -1.1761 -1.1004 -2.3713
 7776SOL     OW24183   5.435   2.462   7.925  0.4551 -0.1689  0.0492
 7776SOL    HW124184   5.509   2.424   7.878  1.4915  1.2843  0.4164
 7776SOL    HW224185   5.377   2.494   7.856 -0.2396 -1.9757 -0.2516
 7777SOL     OW24186   1.905   0.364   5.917  0.1418 -0.5172 -0.1400
 7777SOL    HW124187   1.912   0.395   6.007  1.4935  1.0615 -0.7225
 7777SOL    HW224188   1.994   0.337   5.894 -0.2319 -1.1299 -0.9352
 7778SOL     OW24189   1.295   5.880   5.064 -0.7018  0.1898 -0.1790
 7778SOL    HW124190   1.321   5.821   5.135  0.0409 -1.1822 -1.5266
 7778SOL    HW224191   1.210   5.847   5.034 -0.3125 -0.1866 -0.8980
 7779SOL     OW24192   1.379   1.173   2.418 -0.2805 -0.1476 -0.1743
 7779SOL    HW124193   1.405   1.262   2.395 -0.9617 -0.3464 -1.8973
 7779SOL    HW224194   1.452   1.139   2.469  0.2385  1.2042  0.0217
 7780SOL     OW24195   5.010   2.175   6.560  0.8577 -0.1640  0.1272
 7780SOL    HW124196   4.927   2.222   6.557  0.9006 -0.1346 -0.8036
 7780SOL    HW224197   5.062   2.223   6.624  0.5913  0.5397 -0.1728
 7781SOL     OW24198   7.688   7.630   3.652  0.2372 -0.4361 -0.0398
 7781SOL    HW124199   7.784   7.623   3.645  0.2562 -1.1792  0.8909
 7781SOL    HW224200   7.661   7.550   3.695 -0.4896  1.1212  2.6175
 7782SOL     OW24201   6.770   4.124   5.189  0.0512 -0.2334 -0.5673
 7782SOL    HW124202   6.808   4.161   5.269  1.8825 -1.4920 -0.7929
 7782SOL    HW224203   6.840   4.073   5.151 -2.4980 -4.9921  0.3475
 7783SOL     OW24204   7.455   3.144   3.025  0.3757  0.3970 -0.0907
 7783SOL    HW124205   7.366   3.119   3.000  0.5561 -1.0149  0.5305
 7783SOL    HW224206   7.485   3.202   2.955 -0.8717  0.5179 -0.5427
 7784SOL     OW24207   0.997   7.061   4.549 -0.3544  0.4203  0.0145
 7784SOL    HW124208   0.997   7.143   4.500 -0.2830  1.4339  1.6354
 7784SOL    HW224209   1.017   7.087   4.639 -0.8668 -1.3182  0.6707
 7785SOL     OW24210   3.246   4.764   6.404  0.8590 -0.4128  0.1604
 7785SOL    HW124211   3.245   4.855   6.374 -0.3227 -0.7438 -0.8942
 7785SOL    HW224212   3.336   4.734   6.389  1.2531  0.5578  0.5073
 7786SOL     OW24213   5.892   5.395   4.871 -0.2422 -0.1400  0.1390
 7786SOL    HW124214   5.811   5.350   4.844  0.5289 -0.2397 -2.2743
 7786SOL    HW224215   5.862   5.480   4.904 -1.3948 -0.4427 -0.0830
 7787SOL     OW24216   3.535   2.309   3.648 -0.2236  0.2524  0.1524
 7787SOL    HW124217   3.524   2.286   3.556  1.1870  0.6687 -0.1347
 7787SOL    HW224218   3.604   2.375   3.649 -1.0521  1.1529  1.4038
 7788SOL     OW24219   7.399   3.409   7.476  0.1256 -0.2879  0.4157
 7788SOL    HW124220   7.304   3.410   7.491  0.1511 -1.0797  0.6492
 7788SOL    HW224221   7.420   3.499   7.454 -1.1683 -0.5935 -2.5531
 7789SOL     OW24222   5.151   4.131   0.404 -0.2272 -0.4707 -0.6488
 7789SOL    HW124223   5.123   4.143   0.494 -1.3613  0.0330 -1.0591
 7789SOL    HW224224   5.144   4.037   0.389 -0.1750 -0.5364 -0.2654
 7790SOL     OW24225   7.580   4.039   2.993  0.4572 -0.3835  0.7325
 7790SOL    HW124226   7.571   3.952   3.032  1.2447 -0.3064  1.1087
 7790SOL    HW224227   7.497   4.054   2.949  0.8420 -1.9954 -0.6914
 7791SOL     OW24228   1.433   7.237   5.978  0.0868  0.0657 -0.2155
 7791SOL    HW124229   1.373   7.245   6.052  0.4502  0.3712  0.0501
 7791SOL    HW224230   1.453   7.144   5.973  1.2678  0.2237  1.0516
 7792SOL     OW24231   5.145   0.770   0.042 -0.2793  0.4186  0.1863
 7792SOL    HW124232   5.171   0.796  -0.046 -0.8846  1.0947  0.1949
 7792SOL    HW224233   5.186   0.834   0.100  1.6180 -1.0678  0.5813
 7793SOL     OW24234   7.816   0.203   5.249  0.8811  0.2026  0.2818
 7793SOL    HW124235   7.818   0.109   5.268  0.1393 -0.4194 -2.2476
 7793SOL    HW224236   7.904   0.221   5.215 -0.0146 -0.5450 -2.7651
 7794SOL     OW24237   6.112   3.213   7.108  0.5778  0.8877 -0.3966
 7794SOL    HW124238   6.080   3.160   7.035 -0.6200 -1.3846  1.6143
 7794SOL    HW224239   6.128   3.149   7.178  2.8270  2.8100  0.9808
 7795SOL     OW24240   2.806   3.803   6.077  0.4080 -0.2830  0.2576
 7795SOL    HW124241   2.737   3.861   6.108  0.4770  0.3335 -0.7289
 7795SOL    HW224242   2.774   3.715   6.097  0.8167  0.0556  2.8776
 7796SOL     OW24243   4.205   4.396   0.499  0.1337 -0.4579  0.0033
 7796SOL    HW124244   4.205   4.346   0.417 -0.2218  0.9130 -0.8823
 7796SOL    HW224245   4.288   4.375   0.541 -0.3001 -2.2891  0.0082
 7797SOL     OW24246   3.784   5.886   5.762 -0.0456 -0.2070  0.2757
 7797SOL    HW124247   3.876   5.901   5.738 -0.4715  0.7466 -0.8194
 7797SOL    HW224248   3.786   5.874   5.857  1.4515 -2.1505  0.0642
 7798SOL     OW24249   7.482   4.188   3.251 -0.5463 -0.0717  0.3686
 7798SOL    HW124250   7.544   4.116   3.243  1.2552  1.6276 -2.6909
 7798SOL    HW224251   7.495   4.220   3.341  0.5147 -1.8314  0.9055
 7799SOL     OW24252   2.555   0.356   6.483 -0.1599  0.0231 -0.3297
 7799SOL    HW124253   2.521   0.446   6.486 -1.1513 -0.3516 -0.1426
 7799SOL    HW224254   2.512   0.311   6.555 -1.3468 -1.1655 -1.7014
 7800SOL     OW24255   2.087   2.573   1.655  0.2532  0.0764  0.0037
 7800SOL    HW124256   2.050   2.608   1.736  0.3638 -3.3623  1.7080
 7800SOL    HW224257   2.178   2.603   1.655 -0.0110  0.9356  0.5815
 7801SOL     OW24258   0.951   3.263   1.080 -0.2915 -0.3019 -0.1336
 7801SOL    HW124259   1.006   3.215   1.143  0.2296 -0.5793 -0.7938
 7801SOL    HW224260   0.896   3.196   1.041 -0.7327 -0.1020  0.1377
 7802SOL     OW24261   2.313   2.690   2.949 -0.7418 -0.0391  0.2565
 7802SOL    HW124262   2.280   2.690   2.859 -0.9423  0.4369  0.3278
 7802SOL    HW224263   2.236   2.672   3.003 -0.3980 -1.6681  0.2696
 7803SOL     OW24264   7.201   2.349   7.515  0.1187 -0.0696 -0.0456
 7803SOL    HW124265   7.138   2.404   7.561  0.1211 -0.2579  0.1795
 7803SOL    HW224266   7.255   2.411   7.465 -0.0438  0.1129  0.0069
 7804SOL     OW24267   4.389   7.299   4.594  0.1545  0.8238 -0.2774
 7804SOL    HW124268   4.403   7.228   4.656 -0.6968  1.3171  0.5012
 7804SOL    HW224269   4.463   7.359   4.608 -0.7077  1.5991  1.2323
 7805SOL     OW24270   7.877   6.085   6.344 -0.6602  0.0906 -0.0558
 7805SOL    HW124271   7.901   6.012   6.401  1.7933  0.4802 -0.4771
 7805SOL    HW224272   7.865   6.159   6.404 -0.4038 -0.0228  0.1358
 7806SOL     OW24273   2.718   3.878   3.968  0.8627 -0.0733  0.5920
 7806SOL    HW124274   2.791   3.913   4.020  1.5592  0.2036 -0.5349
 7806SOL    HW224275   2.713   3.786   3.993  0.0060  0.4309  2.4647
 7807SOL     OW24276   5.394   2.347   0.834  0.1740 -0.1057  0.2098
 7807SOL    HW124277   5.350   2.360   0.918 -1.7519  0.3562 -0.8298
 7807SOL    HW224278   5.383   2.430   0.788  1.2951 -0.3155 -0.4783
 7808SOL     OW24279   6.273   4.531   7.460  0.6566  0.1977 -0.2085
 7808SOL    HW124280   6.238   4.456   7.506  0.5260  0.3577 -0.0457
 7808SOL    HW224281   6.291   4.499   7.371  0.7710 -0.0689 -0.0881
 7809SOL     OW24282   7.094   0.715   4.254  0.2969 -0.4505 -0.0515
 7809SOL    HW124283   7.158   0.730   4.323  1.2538  1.3459 -1.2442
 7809SOL    HW224284   7.012   0.749   4.288  0.7586  0.4116  0.2087
 7810SOL     OW24285   6.637   7.715   0.163  0.3996  0.2508 -0.2641
 7810SOL    HW124286   6.617   7.680   0.076  0.7822 -0.8778  0.0860
 7810SOL    HW224287   6.651   7.637   0.218  1.7816  0.9456  0.4212
 7811SOL     OW24288   1.653   5.782   3.168 -0.2494  0.4784  0.0000
 7811SOL    HW124289   1.668   5.741   3.083  1.6315 -0.1184  0.5615
 7811SOL    HW224290   1.738   5.819   3.192 -0.8214  0.9046  1.4859
 7812SOL     OW24291   0.311   6.849   0.510  0.0692 -0.8444  0.2672
 7812SOL    HW124292   0.402   6.848   0.480 -0.3924  0.3361 -1.2930
 7812SOL    HW224293   0.303   6.932   0.558 -0.6346 -0.0097 -1.2289
 7813SOL     OW24294   6.038   2.521   2.480  0.4060 -0.3628  0.2852
 7813SOL    HW124295   5.963   2.567   2.519 -0.2980  0.0443 -1.4481
 7813SOL    HW224296   6.114   2.574   2.503 -0.1180  0.4174  0.2415
 7814SOL     OW24297   3.347   4.530   1.124 -0.2793  0.3458 -0.6513
 7814SOL    HW124298   3.401   4.452   1.135 -0.8482 -0.0603 -0.7161
 7814SOL    HW224299   3.361   4.556   1.033  0.3147  0.6321 -0.4870
 7815SOL     OW24300   4.302   5.054   5.994 -0.3657 -0.0649  0.0556
 7815SOL    HW124301   4.380   5.013   5.957 -1.7661 -1.6051 -1.3630
 7815SOL    HW224302   4.333   5.139   6.027  1.7363 -0.3133 -1.0938
 7816SOL     OW24303   0.904   2.856   7.153 -0.3988 -0.7714 -0.5445
 7816SOL    HW124304   0.916   2.768   7.189 -0.5209 -0.1763  1.0190
 7816SOL    HW224305   0.993   2.886   7.133 -0.2032 -0.6142  0.5259
 7817SOL     OW24306   6.085   1.423   3.638  0.1666 -0.2578 -0.3001
 7817SOL    HW124307   6.110   1.331   3.629 -0.1487 -0.2331 -1.8306
 7817SOL    HW224308   6.137   1.455   3.712  0.5773 -1.5629  0.0038
 7818SOL     OW24309   1.458   2.575   1.179  0.5878  0.4804  0.0611
 7818SOL    HW124310   1.529   2.542   1.124 -0.8633  0.1008 -1.6803
 7818SOL    HW224311   1.491   2.568   1.269  1.9880 -1.5681 -0.5506
 7819SOL     OW24312   6.489   1.407   6.633 -0.2646 -0.1541  1.0543
 7819SOL    HW124313   6.485   1.328   6.687 -1.3648 -1.9244 -1.4445
 7819SOL    HW224314   6.567   1.395   6.579  0.0427  0.9160  1.2432
 7820SOL     OW24315   2.705   2.077   4.384  0.2273 -0.0915 -0.1844
 7820SOL    HW124316   2.768   2.065   4.313  0.1205 -0.7876 -0.1663
 7820SOL    HW224317   2.620   2.062   4.343 -0.0954  2.2779 -0.5623
 7821SOL     OW24318   5.381   5.944   2.178  0.6438  0.7866 -0.0213
 7821SOL    HW124319   5.452   5.915   2.235 -0.2425 -3.0976 -0.5761
 7821SOL    HW224320   5.307   5.888   2.202 -2.1478  4.2357  0.1202
 7822SOL     OW24321   6.578   4.471   1.466 -0.2518  0.2063  0.5666
 7822SOL    HW124322   6.580   4.537   1.536  2.8745 -1.1281  1.9701
 7822SOL    HW224323   6.585   4.388   1.513 -0.6216 -0.9053 -1.2751
 7823SOL     OW24324   0.213   6.345   7.679 -0.1264  0.3757 -0.0977
 7823SOL    HW124325   0.272   6.419   7.694  0.7171 -0.1978 -0.5065
 7823SOL    HW224326   0.266   6.282   7.630 -0.4548 -0.9833  1.2197
 7824SOL     OW24327   4.552   5.593   5.696 -0.2993 -0.1877 -0.2699
 7824SOL    HW124328   4.524   5.561   5.782  0.7782  0.8239  0.4776
 7824SOL    HW224329   4.640   5.558   5.686  0.1125  0.8504 -0.3360
 7825SOL     OW24330   5.171   3.209   3.494 -0.1688  0.2690  0.6254
 7825SOL    HW124331   5.100   3.271   3.512 -0.4805 -0.0311  0.4410
 7825SOL    HW224332   5.242   3.263   3.460 -0.1896  0.6170  1.1315
 7826SOL     OW24333   7.137   3.315   1.232 -0.1357  0.3546  0.0025
 7826SOL    HW124334   7.051   3.275   1.250 -0.2204 -0.3666 -1.8270
 7826SOL    HW224335   7.190   3.294   1.309 -2.1368  2.6258  2.2102
 7827SOL     OW24336   2.065   4.936   3.493  0.6529  0.4514  0.4956
 7827SOL    HW124337   2.061   4.865   3.557  1.8314  1.1212  1.3628
 7827SOL    HW224338   2.154   4.931   3.457  0.9100  1.7321  0.8991
 7828SOL     OW24339   1.505   5.575   1.257 -0.4317  0.5177 -0.7801
 7828SOL    HW124340   1.540   5.525   1.331  1.0738  0.9097 -1.1826
 7828SOL    HW224341   1.420   5.535   1.239 -0.9326  0.5756  1.2896
 7829SOL     OW24342   4.109   5.862   7.150 -0.8495 -0.0554 -0.1456
 7829SOL    HW124343   4.025   5.849   7.105 -0.8728  1.1263 -0.4751
 7829SOL    HW224344   4.089   5.927   7.218 -0.6000 -1.1247  0.9951
 7830SOL     OW24345   7.235   7.071   5.583 -0.0719 -0.3897 -0.0363
 7830SOL    HW124346   7.219   7.042   5.673  1.5935 -1.2919  0.0017
 7830SOL    HW224347   7.155   7.117   5.559 -0.5536 -0.0884  1.9176
 7831SOL     OW24348   7.873   7.194   4.830  0.1200  0.8407 -0.0146
 7831SOL    HW124349   7.798   7.240   4.867  0.2115  1.7880 -0.9806
 7831SOL    HW224350   7.879   7.224   4.740 -0.5650 -2.0133 -1.1105
 7832SOL     OW24351   3.602   4.327   2.734 -0.2000 -0.0221  0.1385
 7832SOL    HW124352   3.533   4.262   2.720 -0.0916 -0.4254  1.3538
 7832SOL    HW224353   3.576   4.402   2.681 -1.0022 -0.5756 -0.2691
 7833SOL     OW24354   6.456   1.308   3.679 -0.2038 -0.1301 -0.1940
 7833SOL    HW124355   6.492   1.270   3.598 -0.9621  1.3885 -1.2979
 7833SOL    HW224356   6.399   1.240   3.714  0.1786 -0.8413 -0.9020
 7834SOL     OW24357   6.526   6.630   6.500 -0.4085 -0.0841  0.4213
 7834SOL    HW124358   6.585   6.626   6.575 -1.9623  0.9450  1.7732
 7834SOL    HW224359   6.438   6.634   6.539 -1.2136  1.4937 -1.4172
 7835SOL     OW24360   6.110   3.581   2.255  0.0593 -0.0155  0.2710
 7835SOL    HW124361   6.039   3.584   2.190 -0.7743  0.9622  1.1776
 7835SOL    HW224362   6.156   3.499   2.237 -0.7628 -0.2439 -0.9085
 7836SOL     OW24363   4.302   7.282   3.511 -0.5654  0.6635  0.4288
 7836SOL    HW124364   4.252   7.244   3.439  0.4126 -0.0658  0.1131
 7836SOL    HW224365   4.384   7.232   3.513  0.1834  1.8540  0.8901
 7837SOL     OW24366   5.428   5.564   2.423 -0.7103  0.1760  0.3249
 7837SOL    HW124367   5.430   5.595   2.513  0.8402  1.6392 -0.1786
 7837SOL    HW224368   5.495   5.495   2.420  0.3032  1.1467 -0.0252
 7838SOL     OW24369   6.939   7.262   3.825  0.3573  0.1294  0.8048
 7838SOL    HW124370   6.982   7.177   3.830  0.8198  0.3864  1.2317
 7838SOL    HW224371   6.875   7.261   3.895 -0.1613 -0.1490  0.3383
 7839SOL     OW24372   5.015   7.057   4.024  0.0636 -0.5727  0.5677
 7839SOL    HW124373   5.014   7.138   3.972 -0.6990 -2.0792 -1.9680
 7839SOL    HW224374   5.108   7.043   4.043  0.1158  1.3916  1.9626
 7840SOL     OW24375   5.089   3.576   0.610  0.2422  0.1783  0.3581
 7840SOL    HW124376   5.078   3.482   0.592 -1.0512  0.5702 -1.0732
 7840SOL    HW224377   5.183   3.585   0.627  0.8656 -1.0231 -1.9238
 7841SOL     OW24378   0.392   5.914   0.837 -0.3381  0.2174 -0.1620
 7841SOL    HW124379   0.400   5.854   0.911  1.6114 -1.4517 -1.5951
 7841SOL    HW224380   0.348   5.863   0.769 -1.8746  1.6399 -0.3157
 7842SOL     OW24381   0.781   5.797   4.834 -0.5348  0.0519 -0.5371
 7842SOL    HW124382   0.812   5.861   4.898  0.0997 -0.9869  0.2116
 7842SOL    HW224383   0.690   5.780   4.859  0.0155 -1.1430  0.7869
 7843SOL     OW24384   7.065   1.284   3.021 -0.2947  0.0282 -0.6399
 7843SOL    HW124385   7.105   1.277   2.935 -1.2495 -1.0353 -1.0237
 7843SOL    HW224386   7.025   1.198   3.036 -3.1314  1.2326 -0.6756
 7844SOL     OW24387   6.733   0.704   4.868  0.8746 -0.2139 -0.6206
 7844SOL    HW124388   6.761   0.653   4.945  0.0148 -1.4101 -1.0742
 7844SOL    HW224389   6.740   0.644   4.795  2.9028  1.2831 -1.7532
 7845SOL     OW24390   7.755   6.729   6.184 -0.4031  0.3840  0.4831
 7845SOL    HW124391   7.698   6.796   6.145 -0.2429  0.5165  0.4731
 7845SOL    HW224392   7.837   6.736   6.135 -0.1128  0.7258  1.0025
 7846SOL     OW24393   7.812   7.045   6.607  0.0440 -0.0383  0.4647
 7846SOL    HW124394   7.722   7.061   6.582  0.1839  0.0234 -0.0104
 7846SOL    HW224395   7.847   6.989   6.538  0.3752 -0.0407  0.6290
 7847SOL     OW24396   3.728   4.803   7.689  0.1949 -0.7092 -0.3506
 7847SOL    HW124397   3.719   4.824   7.782  0.4167  0.3285 -0.5517
 7847SOL    HW224398   3.822   4.790   7.677 -0.0201 -3.3902  0.0602
 7848SOL     OW24399   2.275   5.138   1.114  0.0632  0.2506  0.4634
 7848SOL    HW124400   2.358   5.119   1.071 -2.1837 -4.1225 -2.7129
 7848SOL    HW224401   2.266   5.071   1.181 -1.4219 -0.2574 -0.2012
 7849SOL     OW24402   7.339   6.099   1.665 -0.5463  0.3719 -0.2365
 7849SOL    HW124403   7.377   6.154   1.597  0.5273 -0.6447 -0.4831
 7849SOL    HW224404   7.388   6.120   1.745 -0.3287 -0.0006 -0.2673
 7850SOL     OW24405   5.091   0.881   3.701 -0.2435 -0.2259 -0.0826
 7850SOL    HW124406   5.109   0.837   3.785  1.3909 -2.5278 -1.5324
 7850SOL    HW224407   5.012   0.838   3.668 -1.1939  1.0441  0.4583
 7851SOL     OW24408   3.954   6.355   5.392  0.2962 -0.2771 -1.0394
 7851SOL    HW124409   4.017   6.321   5.456 -1.5213  0.6793  1.4022
 7851SOL    HW224410   3.972   6.449   5.389  0.1657 -0.2696 -1.7559
 7852SOL     OW24411   2.284   5.525   7.358  0.1110 -0.0641  0.2217
 7852SOL    HW124412   2.228   5.547   7.432 -1.2711  0.6246 -0.9874
 7852SOL    HW224413   2.372   5.517   7.396 -0.7614 -1.1041  2.1481
 7853SOL     OW24414   4.011   0.831   5.153 -0.1841  0.3620 -0.1435
 7853SOL    HW124415   4.067   0.908   5.152 -0.7318  0.7637 -0.9949
 7853SOL    HW224416   4.071   0.758   5.167  0.4119  0.8899  0.0834
 7854SOL     OW24417   4.258   3.617   7.674  0.3014 -0.3101 -0.0691
 7854SOL    HW124418   4.289   3.648   7.589  0.1908 -0.4270 -0.1515
 7854SOL    HW224419   4.235   3.696   7.722  1.1940 -0.1819  0.1734
 7855SOL     OW24420   6.663   5.287   5.484 -0.1980 -0.5665 -0.1200
 7855SOL    HW124421   6.697   5.210   5.437  1.7117 -0.6555  1.2615
 7855SOL    HW224422   6.733   5.352   5.475 -1.4689  0.7644 -0.6266
 7856SOL     OW24423   1.811   3.881   1.858  0.4311 -0.1238 -0.1697
 7856SOL    HW124424   1.877   3.830   1.904 -0.1095 -1.6209 -0.9687
 7856SOL    HW224425   1.769   3.819   1.798 -3.3342  0.0974  1.9072
 7857SOL     OW24426   4.728   5.414   4.202  0.7969  0.3840  0.5413
 7857SOL    HW124427   4.650   5.385   4.248  1.1596 -2.6524 -0.5219
 7857SOL    HW224428   4.699   5.489   4.150 -1.9122 -1.6151 -1.0623
 7858SOL     OW24429   5.575   4.929   3.480  0.0033 -0.4109  0.0532
 7858SOL    HW124430   5.489   4.891   3.462  0.6842 -1.2818 -1.5744
 7858SOL    HW224431   5.629   4.856   3.508  0.8523 -0.3696 -1.3787
 7859SOL     OW24432   3.493   7.326   6.734  0.6026  0.7063 -0.7914
 7859SOL    HW124433   3.567   7.380   6.707 -0.2187  2.0855 -0.3880
 7859SOL    HW224434   3.457   7.292   6.652  2.3987 -1.0216 -0.9248
 7860SOL     OW24435   4.543   2.765   0.309  0.0796 -0.5557 -0.1691
 7860SOL    HW124436   4.492   2.734   0.234  0.1324 -0.3677 -0.2844
 7860SOL    HW224437   4.623   2.800   0.271 -0.3865  0.6022 -0.1439
 7861SOL     OW24438   2.576   4.504   3.771  0.2300  0.0318 -0.9248
 7861SOL    HW124439   2.602   4.440   3.705  1.9436 -0.6481  0.3304
 7861SOL    HW224440   2.559   4.452   3.849 -0.1147  0.9683 -0.3602
 7862SOL     OW24441   6.119   3.724   4.357 -0.3691  0.2766  0.4162
 7862SOL    HW124442   6.133   3.631   4.375 -0.4725 -0.2436 -1.9021
 7862SOL    HW224443   6.134   3.733   4.263 -0.1240  2.6708  0.6168
 7863SOL     OW24444   3.273   7.322   7.510  0.2477  0.0517 -0.3177
 7863SOL    HW124445   3.298   7.247   7.457  0.9684 -0.7536  1.0824
 7863SOL    HW224446   3.323   7.311   7.591 -0.5372  1.4135  0.3890
 7864SOL     OW24447   7.544   1.279   1.448 -0.0083 -0.5310 -0.3167
 7864SOL    HW124448   7.620   1.332   1.471  0.5532 -0.6534 -1.7825
 7864SOL    HW224449   7.524   1.230   1.528  1.2513 -0.2489  0.1928
 7865SOL     OW24450   5.434   2.657   7.576 -0.3089  0.0164  0.1356
 7865SOL    HW124451   5.363   2.639   7.638 -1.5819  0.5566 -1.0882
 7865SOL    HW224452   5.492   2.718   7.622 -0.7772 -0.2365  1.0797
 7866SOL     OW24453   5.364   4.434   4.125  0.4356  0.4509  0.6117
 7866SOL    HW124454   5.426   4.420   4.054 -0.1727 -1.9824  0.4713
 7866SOL    HW224455   5.407   4.497   4.182  2.2461  0.2061 -0.4032
 7867SOL     OW24456   6.032   0.997   5.940  0.1088  0.5592 -0.0718
 7867SOL    HW124457   6.120   1.027   5.964  0.5722  0.6203 -1.7166
 7867SOL    HW224458   5.995   0.963   6.021  0.7059  2.7838  1.2338
 7868SOL     OW24459   5.436   3.441   7.541  0.1866  0.0651  0.1186
 7868SOL    HW124460   5.481   3.475   7.464  0.2334  0.2202  0.2135
 7868SOL    HW224461   5.376   3.512   7.566 -0.5255 -0.3594 -0.3511
 7869SOL     OW24462   7.334   0.266   4.041 -0.2852 -0.4858 -0.1659
 7869SOL    HW124463   7.245   0.294   4.059 -0.5831 -2.6281  2.2990
 7869SOL    HW224464   7.384   0.293   4.119  0.5509 -1.9145 -0.1804
 7870SOL     OW24465   0.688   7.009   2.392 -0.2891 -0.0616 -0.0101
 7870SOL    HW124466   0.682   6.942   2.324  0.8052 -1.1485  0.9260
 7870SOL    HW224467   0.599   7.045   2.397 -1.7219 -3.4025  1.3970
 7871SOL     OW24468   7.977   0.199   4.442  0.2437  0.2883  0.1132
 7871SOL    HW124469   8.066   0.197   4.408  0.7278  2.0200  1.1455
 7871SOL    HW224470   7.954   0.106   4.455  1.6421 -0.2055 -0.7472
 7872SOL     OW24471   5.466   5.154   1.477 -0.3135  0.2621 -0.1441
 7872SOL    HW124472   5.411   5.200   1.413 -0.6795  0.5683  0.3847
 7872SOL    HW224473   5.407   5.135   1.550 -0.1413 -0.9682 -0.3090
 7873SOL     OW24474   7.698   1.596   1.005  0.2940 -0.3144 -0.2715
 7873SOL    HW124475   7.721   1.674   0.954  0.2413  0.4848  0.8848
 7873SOL    HW224476   7.610   1.573   0.975  0.5774 -0.3253 -1.1003
 7874SOL     OW24477   0.564   2.875   5.709 -0.5733 -0.0607 -0.0264
 7874SOL    HW124478   0.552   2.821   5.787 -0.0947 -0.2279 -0.0664
 7874SOL    HW224479   0.651   2.915   5.720 -1.2798  1.4037  0.4336
 7875SOL     OW24480   6.570   3.632   7.611  0.5863 -0.2902 -0.0568
 7875SOL    HW124481   6.659   3.639   7.577  1.0350  1.8517  1.3910
 7875SOL    HW224482   6.580   3.585   7.694  0.3730  0.0274  0.1476
 7876SOL     OW24483   0.114   7.006   6.694 -0.0010  0.4585  0.4868
 7876SOL    HW124484   0.053   6.971   6.629  0.1922 -1.7791  1.4171
 7876SOL    HW224485   0.198   7.010   6.647 -0.4182  1.6521 -0.2083
 7877SOL     OW24486   5.665   1.888   3.847  0.2859  0.2220 -0.1008
 7877SOL    HW124487   5.714   1.963   3.814 -0.9460  1.1424  0.0706
 7877SOL    HW224488   5.729   1.816   3.851  1.9950  1.7163  1.5009
 7878SOL     OW24489   3.622   3.883   5.274 -0.5339 -0.2989  0.0402
 7878SOL    HW124490   3.703   3.837   5.297 -0.2343  0.3855  0.3939
 7878SOL    HW224491   3.582   3.905   5.358 -0.8422 -0.2090 -0.1290
 7879SOL     OW24492   7.331   0.944   1.883  0.7597 -0.4370 -0.1236
 7879SOL    HW124493   7.277   1.008   1.836  2.3864 -0.5605 -2.3391
 7879SOL    HW224494   7.322   0.863   1.832  1.8340 -0.8632  0.3319
 7880SOL     OW24495   2.807   0.885   4.835 -0.1757  0.2370  0.0397
 7880SOL    HW124496   2.866   0.960   4.838 -1.3453  1.2008 -0.4340
 7880SOL    HW224497   2.791   0.864   4.927  0.5058  0.2696  0.1747
 7881SOL     OW24498   3.072   3.288   7.101  0.0960  0.1797  0.4209
 7881SOL    HW124499   3.067   3.279   7.196 -0.7331 -2.5622  0.1900
 7881SOL    HW224500   3.109   3.206   7.070  1.2814  1.3814 -1.6150
 7882SOL     OW24501   2.795   5.906   6.137  0.5008  0.2577  0.1786
 7882SOL    HW124502   2.798   5.883   6.044 -0.0535 -0.3942  0.3132
 7882SOL    HW224503   2.849   5.840   6.180 -0.7799 -0.6058  0.5253
 7883SOL     OW24504   5.525   4.404   7.763 -0.2201 -0.1991 -0.0338
 7883SOL    HW124505   5.520   4.447   7.848 -0.0166 -1.0523  0.4120
 7883SOL    HW224506   5.514   4.311   7.781  0.1420 -0.4264 -0.9023
 7884SOL     OW24507   6.714   4.512   3.427 -0.7223 -0.6919  0.4517
 7884SOL    HW124508   6.631   4.546   3.396 -0.6639 -0.6524  0.3401
 7884SOL    HW224509   6.714   4.532   3.521 -0.2381  0.5734  0.2061
 7885SOL     OW24510   3.387   5.704   5.806 -0.4834  0.3719  0.3564
 7885SOL    HW124511   3.468   5.710   5.756 -1.1232 -1.1256 -0.9126
 7885SOL    HW224512   3.325   5.759   5.758 -0.5073  0.6944  0.7507
 7886SOL     OW24513   4.862   0.729   3.683 -0.4787  0.0230  0.0136
 7886SOL    HW124514   4.826   0.666   3.620 -1.3414  0.3212  0.1990
 7886SOL    HW224515   4.812   0.714   3.763  0.1393  0.1234  0.4189
 7887SOL     OW24516   4.032   3.342   4.846 -0.6444  0.4944 -0.4565
 7887SOL    HW124517   4.066   3.423   4.808  1.3978  0.2180  0.5940
 7887SOL    HW224518   4.034   3.357   4.941  3.3612 -1.8829  0.0756
 7888SOL     OW24519   2.155   5.736   4.130  0.1886 -0.2451 -0.1227
 7888SOL    HW124520   2.209   5.740   4.209 -1.5909  0.5372  1.0976
 7888SOL    HW224521   2.156   5.825   4.095 -0.1972 -0.2564 -0.1671
 7889SOL     OW24522   1.580   2.836   4.217  0.2167  0.2024 -0.3131
 7889SOL    HW124523   1.637   2.806   4.146  1.9063  0.5680  0.8330
 7889SOL    HW224524   1.537   2.914   4.181  0.5687  0.0289 -1.1450
 7890SOL     OW24525   7.934   7.275   4.587 -0.6244  0.0757  0.3123
 7890SOL    HW124526   7.905   7.341   4.524 -1.6978  0.5107  1.2302
 7890SOL    HW224527   7.942   7.195   4.535 -1.9960  0.3032 -0.2844
 7891SOL     OW24528   0.408   1.792   4.277  0.3057  0.6056 -0.4472
 7891SOL    HW124529   0.431   1.884   4.290  0.5386  0.7153 -1.5689
 7891SOL    HW224530   0.479   1.744   4.320  0.2570  0.9380  0.0188
 7892SOL     OW24531   5.323   4.814   4.322  0.1646  0.2235 -0.0126
 7892SOL    HW124532   5.410   4.775   4.320  0.0683 -0.0665 -2.8459
 7892SOL    HW224533   5.270   4.752   4.373  1.2475 -0.4843  0.2831
 7893SOL     OW24534   2.923   5.756   5.227  0.0874  0.0880 -0.3091
 7893SOL    HW124535   3.001   5.748   5.281  0.5888 -0.5788 -1.0983
 7893SOL    HW224536   2.867   5.819   5.273  0.7736  0.0212  0.6314
 7894SOL     OW24537   7.978   4.320   4.075 -0.1001  0.2241 -0.3265
 7894SOL    HW124538   7.966   4.283   4.163  1.8936  0.3484  0.0541
 7894SOL    HW224539   7.915   4.273   4.021  0.3624 -1.6982  0.6948
 7895SOL     OW24540   5.402   6.347   3.629  0.0093  1.0700  0.0402
 7895SOL    HW124541   5.424   6.392   3.548 -3.0608  1.1072 -0.8814
 7895SOL    HW224542   5.378   6.418   3.690  1.6477  1.0001  0.8177
 7896SOL     OW24543   3.634   1.948   7.020 -0.3442  0.6476  0.3157
 7896SOL    HW124544   3.668   1.932   7.108  0.7289  2.3708  0.2577
 7896SOL    HW224545   3.625   2.043   7.014 -1.4166  0.5008 -1.0885
 7897SOL     OW24546   3.221   4.160   7.157  0.4324  0.1235 -0.5217
 7897SOL    HW124547   3.176   4.241   7.132 -0.3708 -0.6621 -1.7699
 7897SOL    HW224548   3.153   4.108   7.200  0.5127 -0.4753 -1.0940
 7898SOL     OW24549   1.910   5.036   2.308 -0.5423  0.6428  0.1194
 7898SOL    HW124550   1.906   4.949   2.348 -1.7407  1.2817  1.5236
 7898SOL    HW224551   1.819   5.064   2.305 -0.0536  2.5520  1.3915
 7899SOL     OW24552   0.274   2.233   0.828  0.7196 -0.0184  0.0528
 7899SOL    HW124553   0.276   2.192   0.741  0.9461 -1.2081  0.5877
 7899SOL    HW224554   0.210   2.182   0.877 -0.1764  1.3082  0.2880
 7900SOL     OW24555   7.692   4.547   1.783  0.5946 -0.0634 -0.3250
 7900SOL    HW124556   7.780   4.522   1.753 -0.5515 -3.6240 -1.2110
 7900SOL    HW224557   7.693   4.528   1.877  1.2924  1.9337  0.1364
 7901SOL     OW24558   2.706   4.556   6.833 -0.2496 -0.0504 -0.0679
 7901SOL    HW124559   2.714   4.549   6.929  0.3804 -0.0365 -0.1128
 7901SOL    HW224560   2.613   4.544   6.816 -0.7632  2.1804  0.7436
 7902SOL     OW24561   4.514   6.709   0.038  0.6079 -0.4303  0.4198
 7902SOL    HW124562   4.443   6.652   0.067  0.8854 -1.2032 -0.3940
 7902SOL    HW224563   4.573   6.652  -0.011  0.8226  0.5733 -0.5304
 7903SOL     OW24564   1.604   0.116   3.353  0.3819  0.3263  0.3107
 7903SOL    HW124565   1.536   0.156   3.406 -0.4052  0.4439 -0.7557
 7903SOL    HW224566   1.630   0.184   3.291 -0.5350 -0.5719 -1.1197
 7904SOL     OW24567   0.353   0.134   7.535  0.6665  0.2024 -0.0299
 7904SOL    HW124568   0.419   0.106   7.598 -0.5734 -0.7923  0.8806
 7904SOL    HW224569   0.346   0.229   7.548 -0.0321 -0.0658  1.8276
 7905SOL     OW24570   0.467   1.406   3.810 -0.8490 -0.2364  0.0979
 7905SOL    HW124571   0.507   1.493   3.818  0.0760 -0.3590 -2.3407
 7905SOL    HW224572   0.375   1.420   3.832 -0.0832  0.5692  3.3606
 7906SOL     OW24573   4.430   7.676   3.512 -0.2115 -0.4936  0.1934
 7906SOL    HW124574   4.405   7.638   3.596 -3.1276 -0.0532 -0.3844
 7906SOL    HW224575   4.515   7.636   3.492  0.8709 -0.1949  3.5496
 7907SOL     OW24576   3.829   6.658   2.989 -0.1581  0.1870 -0.0517
 7907SOL    HW124577   3.857   6.698   2.906 -2.0307 -0.1171 -0.8886
 7907SOL    HW224578   3.850   6.565   2.979 -0.4273  0.1429 -0.1990
 7908SOL     OW24579   1.550   0.170   5.126 -0.2746  0.1561 -0.1193
 7908SOL    HW124580   1.476   0.226   5.150 -0.1038  0.8332 -1.1262
 7908SOL    HW224581   1.623   0.203   5.179 -0.6748 -0.5259  0.8909
 7909SOL     OW24582   4.548   5.199   6.952 -0.3642  0.0774  0.0656
 7909SOL    HW124583   4.482   5.263   6.926 -0.2976  0.7809  1.5117
 7909SOL    HW224584   4.565   5.218   7.044  0.5656 -1.2428  0.1995
 7910SOL     OW24585   0.498   5.416   7.844 -0.1830 -0.2499  0.3660
 7910SOL    HW124586   0.581   5.461   7.853 -0.4135  0.1475  0.5163
 7910SOL    HW224587   0.454   5.459   7.771  0.2485 -1.2518 -0.5101
 7911SOL     OW24588   2.507   0.179   6.242 -0.0450 -0.2335 -0.3926
 7911SOL    HW124589   2.477   0.133   6.321 -2.3146  2.0957  0.2024
 7911SOL    HW224590   2.547   0.259   6.275 -0.6577  0.5839 -1.5912
 7912SOL     OW24591   5.707   5.414   7.498 -0.1294  0.1371 -1.1531
 7912SOL    HW124592   5.619   5.381   7.481  0.4948 -1.6171 -1.1800
 7912SOL    HW224593   5.750   5.416   7.413  0.6169 -1.4171 -0.8442
 7913SOL     OW24594   6.729   2.651   5.602  0.3417 -0.1946 -0.2168
 7913SOL    HW124595   6.745   2.576   5.659 -0.2049  0.1332  0.3783
 7913SOL    HW224596   6.727   2.726   5.661  0.8464  0.2873 -0.8018
 7914SOL     OW24597   6.181   4.494   4.152 -0.2012 -0.3819 -0.3548
 7914SOL    HW124598   6.112   4.544   4.195  0.4271  0.1400  0.0787
 7914SOL    HW224599   6.216   4.555   4.087 -0.3236 -0.7333 -0.7470
 7915SOL     OW24600   1.189   2.542   2.147  0.3055  0.4791  0.1394
 7915SOL    HW124601   1.244   2.592   2.207 -0.1844  0.1152  0.9019
 7915SOL    HW224602   1.249   2.481   2.105  0.5897  0.4755  0.5432
 7916SOL     OW24603   2.483   2.305   6.381  0.4686 -0.1344  0.4054
 7916SOL    HW124604   2.516   2.394   6.367 -0.3223  0.1091 -0.0040
 7916SOL    HW224605   2.408   2.316   6.440  0.0420 -0.4600 -0.0674
 7917SOL     OW24606   2.638   1.610   4.271 -0.0910 -0.1028  0.4948
 7917SOL    HW124607   2.613   1.519   4.252 -0.8494  0.3000 -0.5374
 7917SOL    HW224608   2.589   1.662   4.207  2.0235  0.8948 -0.4030
 7918SOL     OW24609   6.062   6.997   1.793 -0.2483  0.0841 -0.6996
 7918SOL    HW124610   6.014   7.021   1.872  0.8065 -0.5024  0.1506
 7918SOL    HW224611   6.083   7.080   1.751 -1.7011  0.3647 -0.9336
 7919SOL     OW24612   6.923   5.558   5.774 -0.4667 -0.1702 -0.5394
 7919SOL    HW124613   6.980   5.523   5.843 -0.1856 -1.2112 -1.2670
 7919SOL    HW224614   6.979   5.562   5.697 -0.5001  1.9730 -0.4906
 7920SOL     OW24615   4.810   7.148   7.570 -0.6221 -0.1622 -0.1653
 7920SOL    HW124616   4.724   7.151   7.528 -0.1620 -1.1649 -1.2447
 7920SOL    HW224617   4.854   7.229   7.541 -1.2204  0.3983  0.4644
 7921SOL     OW24618   3.490   6.750   6.969  0.8281  0.0126 -0.3563
 7921SOL    HW124619   3.477   6.795   6.886 -0.7586  0.2332 -0.0225
 7921SOL    HW224620   3.492   6.657   6.947 -0.3248  0.0253 -0.5959
 7922SOL     OW24621   0.915   1.760   3.376  0.4253 -0.0855 -0.4090
 7922SOL    HW124622   0.862   1.778   3.453  2.2740  0.1199  0.8839
 7922SOL    HW224623   0.977   1.833   3.371  1.4461 -0.9549 -1.0584
 7923SOL     OW24624   2.679   3.603   4.475 -0.2006 -0.2533  0.2098
 7923SOL    HW124625   2.727   3.660   4.535  0.3363 -1.3142  0.8137
 7923SOL    HW224626   2.588   3.632   4.480 -0.0334  0.1508  0.9630
 7924SOL     OW24627   2.152   0.472   6.801 -0.2718  0.3212 -0.0149
 7924SOL    HW124628   2.102   0.394   6.779 -0.0319  0.3504 -0.6684
 7924SOL    HW224629   2.087   0.542   6.802 -0.5456  0.0732  0.8983
 7925SOL     OW24630   7.686   3.180   7.749 -0.3859 -0.0863  0.6227
 7925SOL    HW124631   7.640   3.188   7.833 -0.7192 -1.8612  0.6377
 7925SOL    HW224632   7.775   3.210   7.768 -1.1856  2.4686  0.8214
 7926SOL     OW24633   0.745   6.950   4.520  0.0601 -0.1415  0.0888
 7926SOL    HW124634   0.764   6.857   4.527  1.1068 -0.1291 -1.7640
 7926SOL    HW224635   0.831   6.992   4.522 -0.2883  0.6391 -0.5049
 7927SOL     OW24636   5.031   1.535   0.395 -0.0995 -0.2775  0.1326
 7927SOL    HW124637   4.951   1.527   0.343 -0.0240 -2.0866  0.2208
 7927SOL    HW224638   5.076   1.610   0.357 -0.5032 -0.9508 -1.8360
 7928SOL     OW24639   4.205   5.474   6.520  0.0718  0.4043 -0.1389
 7928SOL    HW124640   4.132   5.467   6.582 -0.5251 -1.8746 -0.9955
 7928SOL    HW224641   4.283   5.464   6.574 -0.3866 -0.3117  0.4058
 7929SOL     OW24642   5.067   3.963   5.048  0.1640 -0.3087  0.3579
 7929SOL    HW124643   5.142   3.967   4.989  1.8008 -3.5985  1.9478
 7929SOL    HW224644   5.099   3.997   5.131 -0.6908 -0.0525  0.5982
 7930SOL     OW24645   3.478   5.084   0.137  0.8394 -0.5365  0.4931
 7930SOL    HW124646   3.573   5.084   0.127  0.9737 -0.5001  1.7117
 7930SOL    HW224647   3.461   5.141   0.211 -0.2515  0.5405 -0.5489
 7931SOL     OW24648   6.206   0.096   0.477 -0.2072  0.0796  0.5471
 7931SOL    HW124649   6.113   0.074   0.485  0.0646 -0.9508  0.9443
 7931SOL    HW224650   6.249   0.013   0.454  0.5805  0.6054  0.0669
 7932SOL     OW24651   1.851   3.376   5.893  0.7700 -0.4569  0.1415
 7932SOL    HW124652   1.867   3.308   5.959 -0.2850  2.1662  3.3608
 7932SOL    HW224653   1.866   3.458   5.939 -2.4146  1.6437 -2.1571
 7933SOL     OW24654   7.972   4.948   0.046 -0.6970 -0.0933 -0.3931
 7933SOL    HW124655   8.010   4.868   0.083  0.6192 -0.2287 -1.8971
 7933SOL    HW224656   7.884   4.921   0.019 -0.4111 -0.9440 -0.5323
 7934SOL     OW24657   4.018   5.367   5.873 -0.0945  0.2905  0.4164
 7934SOL    HW124658   3.940   5.337   5.921  1.0002 -0.6210  1.7002
 7934SOL    HW224659   3.998   5.457   5.850 -0.8994  0.6037  2.1607
 7935SOL     OW24660   0.862   7.571   7.833  0.4345 -0.2540  0.0243
 7935SOL    HW124661   0.867   7.638   7.901  0.3515  1.4155 -1.5555
 7935SOL    HW224662   0.953   7.558   7.805  0.4138 -0.5723  0.0950
 7936SOL     OW24663   1.956   7.135   3.647 -0.5674 -0.9862  0.2775
 7936SOL    HW124664   1.969   7.098   3.734  0.7528  0.8711  0.9361
 7936SOL    HW224665   1.872   7.181   3.654 -0.6630 -1.1819  0.4338
 7937SOL     OW24666   5.063   7.210   2.586  0.3133 -0.0415  0.2815
 7937SOL    HW124667   4.996   7.274   2.613  0.3500  0.6140 -1.1045
 7937SOL    HW224668   5.041   7.189   2.496  0.8539 -1.3107  0.4342
 7938SOL     OW24669   0.924   6.055   3.760  0.2872  0.4849  0.2240
 7938SOL    HW124670   1.017   6.039   3.770  0.6965  3.4422  2.2610
 7938SOL    HW224671   0.885   6.029   3.843 -0.8391 -1.1141 -0.7442
 7939SOL     OW24672   0.143   1.409   0.014  0.7802 -0.0890  0.3053
 7939SOL    HW124673   0.058   1.380   0.047  0.9232  0.6860  1.3900
 7939SOL    HW224674   0.171   1.339  -0.045 -1.5214  0.5574 -1.6934
 7940SOL     OW24675   2.728   5.075   1.941  0.4436  0.1934 -0.0237
 7940SOL    HW124676   2.741   5.008   1.874  1.3785  0.5925 -0.2632
 7940SOL    HW224677   2.685   5.148   1.895 -0.9492 -0.3761  0.3286
 7941SOL     OW24678   6.699   2.334   4.197 -0.6522 -0.2514  0.5097
 7941SOL    HW124679   6.695   2.280   4.276 -1.6878 -1.3831 -0.3008
 7941SOL    HW224680   6.623   2.391   4.203 -0.5806 -0.1478  0.4441
 7942SOL     OW24681   4.699   6.847   1.110 -0.3417 -0.1250  0.0351
 7942SOL    HW124682   4.628   6.907   1.084 -1.7411  0.1301  3.7725
 7942SOL    HW224683   4.675   6.820   1.199  2.5498 -2.8135  0.1466
 7943SOL     OW24684   2.467   4.590   3.455  0.1827 -0.1052  0.1816
 7943SOL    HW124685   2.408   4.515   3.467  0.1693 -0.1935 -0.3993
 7943SOL    HW224686   2.473   4.630   3.542 -1.4059  0.3933  0.0933
 7944SOL     OW24687   2.678   4.224   6.529 -0.2939  0.0567 -0.2346
 7944SOL    HW124688   2.637   4.185   6.451 -0.1295  1.9965 -1.3582
 7944SOL    HW224689   2.689   4.317   6.506  3.0022  0.0359  0.6936
 7945SOL     OW24690   6.750   5.147   0.999  0.0490 -0.5568 -0.1153
 7945SOL    HW124691   6.782   5.126   0.911 -0.3559  0.2134 -0.4470
 7945SOL    HW224692   6.735   5.061   1.039 -2.1788 -0.9621 -1.6579
 7946SOL     OW24693   4.000   2.317   1.954 -0.0508  0.0848  0.3329
 7946SOL    HW124694   3.982   2.227   1.981 -1.5590  0.6767  1.4407
 7946SOL    HW224695   3.915   2.355   1.935  0.7518  0.2230 -4.0553
 7947SOL     OW24696   5.788   0.966   4.869  0.3359 -0.0993  0.1903
 7947SOL    HW124697   5.726   1.031   4.837  1.0765 -0.6064 -2.4725
 7947SOL    HW224698   5.873   1.010   4.865  0.5031 -0.2964  1.2228
 7948SOL     OW24699   0.225   5.957   4.895  0.0876 -1.0325  0.0031
 7948SOL    HW124700   0.240   5.980   4.804 -0.8728  1.2868  0.3551
 7948SOL    HW224701   0.139   5.916   4.897 -0.0091 -0.8372 -0.1205
 7949SOL     OW24702   4.866   3.480   3.200  0.0718  0.3441  0.1519
 7949SOL    HW124703   4.904   3.567   3.212 -1.9863  1.1430  1.5827
 7949SOL    HW224704   4.787   3.482   3.254 -1.3281 -1.6013 -1.6722
 7950SOL     OW24705   3.531   2.563   6.153  0.0241 -0.7596 -0.0838
 7950SOL    HW124706   3.552   2.474   6.124 -0.0971 -1.3429  1.5211
 7950SOL    HW224707   3.522   2.556   6.248 -1.0280  0.7694 -0.0324
 7951SOL     OW24708   2.600   0.993   2.233 -0.3082  0.0072  0.3074
 7951SOL    HW124709   2.651   0.982   2.312 -1.3410 -0.7821  0.8924
 7951SOL    HW224710   2.541   1.066   2.252 -2.2112 -1.6454  1.2393
 7952SOL     OW24711   1.439   5.264   6.388  0.5401  0.7399 -0.0143
 7952SOL    HW124712   1.508   5.200   6.404  0.7381  1.0678  0.4478
 7952SOL    HW224713   1.386   5.224   6.318  2.1068  1.2017 -1.5419
 7953SOL     OW24714   3.661   7.702   5.007  0.0743 -0.0671  0.0763
 7953SOL    HW124715   3.611   7.765   5.059 -0.3813 -0.8903  0.6508
 7953SOL    HW224716   3.606   7.685   4.930 -1.1805 -1.9378  1.3159
 7954SOL     OW24717   3.773   6.712   5.704 -0.4011  0.0775 -0.6578
 7954SOL    HW124718   3.851   6.698   5.758 -1.5438 -2.5609  0.4855
 7954SOL    HW224719   3.703   6.730   5.766 -0.8471  2.0573 -1.6515
 7955SOL     OW24720   6.263   5.498   5.515 -0.1437 -0.0182  0.1492
 7955SOL    HW124721   6.296   5.421   5.470 -1.1794 -0.5233  0.2163
 7955SOL    HW224722   6.236   5.467   5.601  0.8395  0.7354  0.7509
 7956SOL     OW24723   4.625   1.399   5.252 -0.0937 -0.5325  0.1444
 7956SOL    HW124724   4.545   1.370   5.208  0.2243 -1.8456  0.3918
 7956SOL    HW224725   4.695   1.349   5.210  0.7833  1.4398 -0.8747
 7957SOL     OW24726   3.691   0.161   2.850 -0.1507  0.3206 -0.2568
 7957SOL    HW124727   3.687   0.168   2.946  1.5248 -0.1426 -0.1207
 7957SOL    HW224728   3.677   0.067   2.833  0.6156  0.2218 -0.3750
 7958SOL     OW24729   3.549   6.040   1.623  0.0475  0.0030  0.2552
 7958SOL    HW124730   3.507   6.094   1.556 -0.5741 -0.2574  0.4283
 7958SOL    HW224731   3.560   5.954   1.583  0.4701  0.0846  0.1920
 7959SOL     OW24732   4.634   4.920   0.688 -0.0142  0.4520  0.0755
 7959SOL    HW124733   4.561   4.980   0.668  0.0277  1.0478  1.5167
 7959SOL    HW224734   4.596   4.833   0.682 -0.8680  0.7561  0.7826
 7960SOL     OW24735   3.414   4.422   0.332 -0.0422 -0.3203 -0.2743
 7960SOL    HW124736   3.387   4.356   0.396 -1.3816  0.1172 -0.3489
 7960SOL    HW224737   3.381   4.390   0.248 -0.8257  0.4735 -0.2927
 7961SOL     OW24738   4.860   0.996   5.645 -0.4395 -0.3710  0.5125
 7961SOL    HW124739   4.921   0.941   5.596  0.1724 -0.5996  1.4959
 7961SOL    HW224740   4.776   0.949   5.641 -0.7329  0.2131 -1.3103
 7962SOL     OW24741   0.539   1.590   3.407 -0.0285 -0.2912 -0.0866
 7962SOL    HW124742   0.448   1.609   3.430  0.7831 -0.7439  4.1614
 7962SOL    HW224743   0.546   1.495   3.411  0.7691 -0.2246  0.1992
 7963SOL     OW24744   1.908   1.289   0.923  0.0117 -0.3033  0.0752
 7963SOL    HW124745   1.878   1.339   0.848 -0.2797  0.4891  0.7100
 7963SOL    HW224746   1.928   1.354   0.990  1.9834 -0.8583  0.1082
 7964SOL     OW24747   5.571   6.878   1.282 -0.5850 -0.2656 -0.3050
 7964SOL    HW124748   5.580   6.804   1.342 -0.8696 -0.2037 -0.1820
 7964SOL    HW224749   5.493   6.924   1.313 -0.0344  0.4670  0.0295
 7965SOL     OW24750   1.850   3.548   0.115  0.6614 -0.5066  0.0574
 7965SOL    HW124751   1.771   3.596   0.090 -0.0583 -1.6668  0.0909
 7965SOL    HW224752   1.902   3.612   0.165 -0.1658  0.3053 -0.1006
 7966SOL     OW24753   1.985   2.170   1.220 -0.4198 -0.2368 -0.3489
 7966SOL    HW124754   2.015   2.184   1.310 -0.1412 -1.1986 -0.2839
 7966SOL    HW224755   2.065   2.155   1.170 -0.6626 -4.3743  0.0972
 7967SOL     OW24756   2.489   7.081   0.375  0.4964 -0.4034  0.0235
 7967SOL    HW124757   2.526   6.993   0.371 -0.6016 -0.8717 -0.0407
 7967SOL    HW224758   2.497   7.115   0.286  0.2222 -0.7331 -0.1279
 7968SOL     OW24759   3.443   5.276   0.338  0.0729  0.0182  0.5702
 7968SOL    HW124760   3.506   5.344   0.316  1.3075 -0.7202  1.6794
 7968SOL    HW224761   3.434   5.281   0.433 -0.6370 -0.6815  0.5576
 7969SOL     OW24762   4.220   3.606   6.358 -0.0973  0.3869 -0.3778
 7969SOL    HW124763   4.293   3.658   6.324 -0.6082  0.3726 -1.5542
 7969SOL    HW224764   4.152   3.671   6.378 -0.9779  0.1684 -2.4641
 7970SOL     OW24765   0.452   4.114   0.331  0.1414 -1.4730  0.1168
 7970SOL    HW124766   0.506   4.139   0.407 -1.0387 -0.7368  0.7423
 7970SOL    HW224767   0.403   4.038   0.360 -0.0369 -1.4193 -0.0421
 7971SOL     OW24768   6.631   0.733   7.671  0.5782 -0.0656  0.4542
 7971SOL    HW124769   6.563   0.705   7.733  0.2798 -0.1612  0.0866
 7971SOL    HW224770   6.648   0.656   7.618  0.7351  0.0590  0.3239
 7972SOL     OW24771   3.247   5.951   3.758 -0.1805  0.4518 -0.1081
 7972SOL    HW124772   3.273   5.864   3.788 -1.3036 -0.4231 -1.5286
 7972SOL    HW224773   3.204   5.935   3.674 -0.6950  2.3550 -0.2448
 7973SOL     OW24774   3.316   7.703   6.110 -0.0661  0.1392 -0.1816
 7973SOL    HW124775   3.354   7.697   6.022 -0.0705 -1.9163 -0.0917
 7973SOL    HW224776   3.356   7.781   6.148  0.2388  0.8441 -1.8527
 7974SOL     OW24777   6.071   5.648   6.116 -0.7042  0.4149  0.1797
 7974SOL    HW124778   5.985   5.631   6.078 -1.6721  1.6275  1.6723
 7974SOL    HW224779   6.078   5.744   6.118  0.9924  0.3409 -0.5295
 7975SOL     OW24780   4.178   4.869   5.836  0.0966 -0.2887 -0.0417
 7975SOL    HW124781   4.221   4.904   5.914 -1.1737 -0.0315  0.5763
 7975SOL    HW224782   4.140   4.945   5.793 -0.7322 -0.6172  0.0774
 7976SOL     OW24783   0.626   1.518   2.584  0.3206  0.2683 -0.0847
 7976SOL    HW124784   0.535   1.546   2.593  0.0215 -0.4003 -0.9688
 7976SOL    HW224785   0.662   1.573   2.514  0.5020  0.2765  0.0125
 7977SOL     OW24786   3.417   0.221   0.765  0.0898  0.0615 -0.4107
 7977SOL    HW124787   3.456   0.299   0.724  0.5037 -0.3324 -0.7914
 7977SOL    HW224788   3.350   0.255   0.823 -0.0198  0.6840 -0.8875
 7978SOL     OW24789   6.913   4.813   4.061 -0.0167  0.1738 -0.3600
 7978SOL    HW124790   6.866   4.895   4.047  0.2448  0.2249 -0.9804
 7978SOL    HW224791   6.932   4.812   4.154 -1.0219  0.2673 -0.1419
 7979SOL     OW24792   4.547   5.118   1.199 -0.2577 -0.4889 -0.6371
 7979SOL    HW124793   4.489   5.047   1.225  0.0175 -1.0485 -1.5291
 7979SOL    HW224794   4.612   5.122   1.269  0.3252 -1.8119 -1.0719
 7980SOL     OW24795   6.593   3.305   2.723 -0.7077  0.1209 -0.1680
 7980SOL    HW124796   6.558   3.241   2.785 -1.3102  1.2853  0.7282
 7980SOL    HW224797   6.520   3.322   2.663 -0.6748  0.2789 -0.1617
 7981SOL     OW24798   7.547   4.542   3.246 -0.1206  0.0473  0.2430
 7981SOL    HW124799   7.463   4.553   3.201  0.0917 -2.9187 -1.0850
 7981SOL    HW224800   7.524   4.506   3.332 -0.2836  1.9821  1.0743
 7982SOL     OW24801   2.278   3.724   7.866  0.0121  0.0506 -0.7425
 7982SOL    HW124802   2.372   3.743   7.862 -0.1572  0.7880 -1.6279
 7982SOL    HW224803   2.241   3.773   7.793 -1.0373 -0.4190 -0.5420
 7983SOL     OW24804   4.437   5.505   1.249  0.2525  0.0768 -0.4604
 7983SOL    HW124805   4.526   5.540   1.262  0.2707 -0.0711 -0.1713
 7983SOL    HW224806   4.436   5.425   1.301 -0.3099  0.4974  0.1879
 7984SOL     OW24807   3.603   6.472   3.095 -0.2571  0.0898 -0.2504
 7984SOL    HW124808   3.605   6.401   3.159 -1.1047  0.8684  0.6767
 7984SOL    HW224809   3.674   6.452   3.035  1.1350 -0.2122  1.4215
 7985SOL     OW24810   5.311   7.458   4.417  0.2341  0.4554 -0.0770
 7985SOL    HW124811   5.398   7.497   4.421  1.1713 -1.4004 -1.1961
 7985SOL    HW224812   5.291   7.433   4.507  0.9177  0.7535  0.1600
 7986SOL     OW24813   5.403   5.884   7.258 -0.5658  0.0505 -0.4089
 7986SOL    HW124814   5.341   5.939   7.305 -0.4434  0.1391 -0.3499
 7986SOL    HW224815   5.477   5.873   7.319 -0.5237 -0.0546 -0.4774
 7987SOL     OW24816   6.893   2.076   5.506 -0.1978  0.0175  0.3310
 7987SOL    HW124817   6.988   2.088   5.502  0.0336 -1.8937 -2.4218
 7987SOL    HW224818   6.878   2.025   5.586  1.0591  0.3840  0.8177
 7988SOL     OW24819   5.595   7.861   4.621  0.1521 -0.1255 -0.1914
 7988SOL    HW124820   5.636   7.885   4.704 -0.1916  0.6933 -0.2461
 7988SOL    HW224821   5.641   7.783   4.593  0.3184 -0.3676  0.7369
 7989SOL     OW24822   0.648   1.582   5.033 -0.0859  0.2270  0.4643
 7989SOL    HW124823   0.726   1.603   5.084 -0.1588 -0.5744  0.9263
 7989SOL    HW224824   0.626   1.663   4.988  1.4585  0.2652 -0.2803
 7990SOL     OW24825   3.441   0.033   7.167 -0.3258 -0.3572  0.1220
 7990SOL    HW124826   3.476  -0.056   7.169  0.9648  0.1283  1.3195
 7990SOL    HW224827   3.516   0.088   7.145 -0.4653  0.6555  1.9582
 7991SOL     OW24828   1.163   7.003   2.011  0.2430 -0.5700 -0.4612
 7991SOL    HW124829   1.122   6.982   2.095  4.2998 -0.8554  1.7058
 7991SOL    HW224830   1.143   6.929   1.954 -1.8620 -0.7799  0.4651
 7992SOL     OW24831   5.454   4.839   1.680  0.2151 -0.0005 -0.1271
 7992SOL    HW124832   5.384   4.877   1.733  0.3638  0.2317 -0.0959
 7992SOL    HW224833   5.535   4.871   1.720  0.3245  0.4010 -0.6581
 7993SOL     OW24834   4.958   1.070   1.078  0.0033  0.1862 -0.1590
 7993SOL    HW124835   4.870   1.088   1.045  0.1843  1.4184  0.0011
 7993SOL    HW224836   4.964   0.974   1.078 -0.8454  0.1098 -1.4493
 7994SOL     OW24837   0.097   4.059   0.835  0.7970  0.3550  0.3758
 7994SOL    HW124838   0.060   4.027   0.917  0.7082 -0.0572  0.1796
 7994SOL    HW224839   0.133   3.980   0.793  0.5481  0.5038 -0.1304
 7995SOL     OW24840   3.504   5.046   1.341 -0.2953  0.1928  0.1294
 7995SOL    HW124841   3.479   4.970   1.290 -2.9127 -0.7519  2.6093
 7995SOL    HW224842   3.587   5.021   1.383  0.1694 -0.2626 -1.0291
 7996SOL     OW24843   2.380   5.373   0.307 -0.3073 -0.3872 -0.6610
 7996SOL    HW124844   2.369   5.467   0.293  1.0266 -0.0902  0.0138
 7996SOL    HW224845   2.319   5.352   0.378  1.7706  0.7659  1.6491
 7997SOL     OW24846   6.280   4.979   2.850  0.3236  0.3022  0.9510
 7997SOL    HW124847   6.229   4.899   2.862  1.3477 -0.4993  0.1304
 7997SOL    HW224848   6.278   4.995   2.756 -0.2583  1.5279  1.1484
 7998SOL     OW24849   0.351   1.532   7.905 -0.0714  0.7156  0.1658
 7998SOL    HW124850   0.272   1.494   7.943 -1.1565  2.2623 -0.4471
 7998SOL    HW224851   0.420   1.514   7.970 -1.5403  2.0200  2.2010
 7999SOL     OW24852   3.631   4.183   2.120  0.2334 -0.1221  0.8358
 7999SOL    HW124853   3.698   4.186   2.052  2.8685 -2.1900  3.1100
 7999SOL    HW224854   3.622   4.274   2.150  2.4326  0.1711  0.7699
 8000SOL     OW24855   7.853   2.659   1.240  0.5440  0.1589  0.1010
 8000SOL    HW124856   7.897   2.722   1.298  0.6865 -0.8531  1.1403
 8000SOL    HW224857   7.806   2.601   1.300 -1.6933  0.7731 -0.9391
 8001SOL     OW24858   2.210   1.108   3.709  0.3376 -0.5718  0.0605
 8001SOL    HW124859   2.224   1.052   3.633  2.1703  0.1430 -0.1737
 8001SOL    HW224860   2.117   1.097   3.730 -0.5351  0.0910 -2.9776
 8002SOL     OW24861   2.495   7.335   6.946  0.3273 -0.4963 -0.2528
 8002SOL    HW124862   2.584   7.304   6.929  0.2558 -0.3728 -0.8436
 8002SOL    HW224863   2.446   7.256   6.969  0.7905 -0.4540  0.9466
 8003SOL     OW24864   2.605   6.085   0.654  0.2410  0.0427  0.2496
 8003SOL    HW124865   2.695   6.108   0.680  0.6458  0.4744 -1.4102
 8003SOL    HW224866   2.564   6.169   0.633 -0.6570 -0.1295  1.2676
 8004SOL     OW24867   5.059   3.509   7.760 -0.2431  0.2241 -0.0230
 8004SOL    HW124868   5.104   3.475   7.837 -0.7672  0.3053  0.3235
 8004SOL    HW224869   5.022   3.592   7.788  1.3205  1.3020 -0.9596
 8005SOL     OW24870   3.560   5.350   1.688  0.7837 -0.1360  0.7242
 8005SOL    HW124871   3.479   5.349   1.635  1.3154 -0.2490 -0.1083
 8005SOL    HW224872   3.630   5.362   1.624  1.3351  1.5214  1.5827
 8006SOL     OW24873   3.667   1.475   6.549  0.0494 -0.5888  0.5077
 8006SOL    HW124874   3.761   1.479   6.566  0.3610  0.4510 -1.1936
 8006SOL    HW224875   3.648   1.558   6.504 -1.6230 -0.9183  0.5657
 8007SOL     OW24876   4.223   3.408   2.985  0.0691 -0.0748  0.2107
 8007SOL    HW124877   4.183   3.371   2.907  2.2057  0.8296 -1.4291
 8007SOL    HW224878   4.296   3.349   3.005  0.5957  0.6480  0.4555
 8008SOL     OW24879   6.090   2.002   6.329  0.1774 -0.2268  0.0355
 8008SOL    HW124880   6.158   1.935   6.324 -0.7046 -1.1228 -0.4096
 8008SOL    HW224881   6.034   1.974   6.403  1.1116  1.3225  1.3925
 8009SOL     OW24882   7.139   0.481   0.166  0.1314  0.1070  0.1513
 8009SOL    HW124883   7.115   0.515   0.080 -1.5527  0.2882  0.6579
 8009SOL    HW224884   7.197   0.547   0.203  1.0927 -0.0973 -0.9240
 8010SOL     OW24885   4.687   5.518   0.296  0.0656 -0.5514  0.3179
 8010SOL    HW124886   4.699   5.478   0.382 -0.5701  0.6373  0.9798
 8010SOL    HW224887   4.775   5.522   0.260  0.6150  0.6492  1.7048
 8011SOL     OW24888   4.691   6.080   7.193 -0.2001 -0.9469  0.2722
 8011SOL    HW124889   4.633   6.131   7.249  0.8571  0.5338  0.0870
 8011SOL    HW224890   4.645   5.997   7.178 -2.0063 -0.0163  0.5277
 8012SOL     OW24891   4.979   0.040   3.742 -0.2500  0.2282 -0.1296
 8012SOL    HW124892   4.954   0.113   3.685 -2.3312  0.2036  0.6603
 8012SOL    HW224893   5.000  -0.031   3.681  3.0811  1.7406 -0.9589
 8013SOL     OW24894   4.101   7.808   1.493 -0.1983 -0.3746  0.0745
 8013SOL    HW124895   4.078   7.717   1.478 -1.8176  0.1728 -0.9877
 8013SOL    HW224896   4.085   7.823   1.586 -0.4444 -1.0326  0.1385
 8014SOL     OW24897   6.888   1.736   3.652  0.3586  0.2150  0.2006
 8014SOL    HW124898   6.800   1.756   3.686  0.2683  0.6805 -0.2983
 8014SOL    HW224899   6.928   1.682   3.721 -0.6840 -0.8780 -0.0173
 8015SOL     OW24900   6.377   2.319   0.003 -0.9092 -0.0573  0.3048
 8015SOL    HW124901   6.405   2.404  -0.030  1.2940 -1.1063 -0.7457
 8015SOL    HW224902   6.418   2.256  -0.056 -2.7155 -1.8731  0.8701
 8016SOL     OW24903   7.087   4.217   1.458 -0.0631  0.2886 -0.5869
 8016SOL    HW124904   7.097   4.198   1.365 -1.6555 -0.6017 -0.6099
 8016SOL    HW224905   7.008   4.271   1.464 -0.1973  0.0180  0.2660
 8017SOL     OW24906   6.514   4.192   4.044  0.0500 -0.1571 -0.2331
 8017SOL    HW124907   6.607   4.206   4.030  0.1026  1.2122  1.2378
 8017SOL    HW224908   6.503   4.097   4.041  1.4934 -0.3319 -0.3364
 8018SOL     OW24909   3.523   7.206   4.347  0.0489 -0.0861 -0.1264
 8018SOL    HW124910   3.561   7.146   4.412  0.2983 -0.0824 -0.2691
 8018SOL    HW224911   3.530   7.158   4.264 -0.2307 -0.0726 -0.1587
 8019SOL     OW24912   6.366   6.735   4.026  0.1141 -0.4114 -0.7451
 8019SOL    HW124913   6.274   6.752   4.007  0.4867  0.3136 -1.9735
 8019SOL    HW224914   6.383   6.785   4.106  0.0949  1.6610 -1.9656
 8020SOL     OW24915   1.319   1.578   4.252 -0.0610 -0.1480 -0.1309
 8020SOL    HW124916   1.393   1.517   4.259  2.1022  1.8647 -3.0705
 8020SOL    HW224917   1.298   1.601   4.343  2.5416 -1.2217  0.8378
 8021SOL     OW24918   5.987   5.765   1.771  0.0551  0.4755  0.5940
 8021SOL    HW124919   5.900   5.748   1.806 -0.2381 -0.0535 -0.3366
 8021SOL    HW224920   6.018   5.843   1.816 -1.0007  0.8031  0.7526
 8022SOL     OW24921   1.645   0.108   2.243  0.5717  0.5525 -0.0063
 8022SOL    HW124922   1.681   0.098   2.331 -1.2417  0.8582  0.7951
 8022SOL    HW224923   1.595   0.189   2.247 -0.9691 -0.3244 -0.8094
 8023SOL     OW24924   2.013   1.940   0.627 -0.0565 -0.3847 -0.6750
 8023SOL    HW124925   2.021   1.905   0.716 -1.0516 -0.5065 -0.6193
 8023SOL    HW224926   2.092   1.911   0.582  1.2626  1.0596  0.6155
 8024SOL     OW24927   6.808   5.562   2.190 -0.2326  0.0993 -0.0281
 8024SOL    HW124928   6.760   5.596   2.265  0.8043  1.3344  0.0926
 8024SOL    HW224929   6.807   5.633   2.126  1.4951  0.1973  0.0085
 8025SOL     OW24930   3.436   0.744   2.510 -0.1779 -0.5207 -0.3625
 8025SOL    HW124931   3.459   0.821   2.458 -1.6363 -1.0430 -1.8847
 8025SOL    HW224932   3.519   0.702   2.530  0.5145  0.4819 -1.0679
 8026SOL     OW24933   7.112   1.212   5.867 -0.3468 -0.7702  0.0996
 8026SOL    HW124934   7.058   1.273   5.818  1.5858 -0.2144 -1.4931
 8026SOL    HW224935   7.068   1.127   5.857 -2.2880  0.0662  1.1241
 8027SOL     OW24936   5.652   2.512   7.482 -0.1461  0.2859 -0.3321
 8027SOL    HW124937   5.581   2.571   7.508 -0.5428 -0.1303 -0.4541
 8027SOL    HW224938   5.731   2.567   7.485 -0.2817  0.4398  1.0436
 8028SOL     OW24939   0.547   6.547   4.574  0.3091 -0.4203  0.3055
 8028SOL    HW124940   0.489   6.618   4.547  1.5329  0.4599 -0.1124
 8028SOL    HW224941   0.489   6.474   4.592 -0.7830 -0.3572 -2.4894
 8029SOL     OW24942   2.039   2.727   6.612  0.1253 -0.0275  0.0221
 8029SOL    HW124943   2.079   2.767   6.534  0.3673 -0.2430  0.0360
 8029SOL    HW224944   1.974   2.792   6.641 -0.0698 -0.0116 -0.4435
 8030SOL     OW24945   7.667   2.912   1.283 -0.1505 -0.3984  0.0841
 8030SOL    HW124946   7.664   2.821   1.311 -2.3252 -0.9041 -1.5350
 8030SOL    HW224947   7.738   2.916   1.219  1.0462 -0.5072  1.3383
 8031SOL     OW24948   3.306   2.910   6.890 -0.3334  0.2930 -0.3886
 8031SOL    HW124949   3.236   2.845   6.895 -1.4110  1.4175  3.5833
 8031SOL    HW224950   3.381   2.868   6.933 -0.4371  0.9864  0.4960
 8032SOL     OW24951   4.054   6.173   6.267 -0.5819  0.1344  0.3261
 8032SOL    HW124952   3.972   6.216   6.294 -0.2446 -0.3554  2.1919
 8032SOL    HW224953   4.123   6.227   6.305 -0.1252 -1.3644  1.7333
 8033SOL     OW24954   6.934   7.749   1.667  0.1226 -0.3524 -0.5029
 8033SOL    HW124955   6.996   7.683   1.696 -0.3374 -1.4657 -1.9716
 8033SOL    HW224956   6.970   7.782   1.585 -0.8864 -0.5652 -1.0486
 8034SOL     OW24957   5.040   2.758   0.897  0.3187 -0.3036  0.2574
 8034SOL    HW124958   4.993   2.813   0.960  1.1478 -0.0083  0.6285
 8034SOL    HW224959   5.013   2.669   0.919 -0.3759 -0.1184  0.2003
 8035SOL     OW24960   6.547   6.154   4.347 -0.4376 -0.2480 -0.0893
 8035SOL    HW124961   6.564   6.151   4.441  0.7338 -1.9735 -0.3157
 8035SOL    HW224962   6.629   6.187   4.309 -1.2337  1.4077 -0.4770
 8036SOL     OW24963   6.445   5.755   4.152  0.6153 -0.9772 -0.1136
 8036SOL    HW124964   6.513   5.821   4.143  1.5400 -1.8575  0.2230
 8036SOL    HW224965   6.474   5.683   4.095 -0.7169 -0.8406 -1.0245
 8037SOL     OW24966   0.259   3.826   4.962 -0.1500 -0.1651  0.0566
 8037SOL    HW124967   0.232   3.887   5.031 -1.2344 -0.4738 -0.0803
 8037SOL    HW224968   0.183   3.769   4.950 -0.6290  0.8852 -2.5422
 8038SOL     OW24969   3.438   3.389   5.201 -0.7202  0.2290  0.2183
 8038SOL    HW124970   3.462   3.351   5.285 -0.5607 -0.2241 -0.0262
 8038SOL    HW224971   3.498   3.462   5.189  2.0669 -2.1277 -1.3464
 8039SOL     OW24972   2.812   2.670   6.440  0.1828  0.5074  0.1994
 8039SOL    HW124973   2.776   2.743   6.389 -0.2792 -0.2572 -0.5948
 8039SOL    HW224974   2.742   2.605   6.441  1.4380 -0.9504 -1.2350
 8040SOL     OW24975   4.418   6.350   0.402  0.1498  0.1923 -0.4625
 8040SOL    HW124976   4.349   6.304   0.354  0.5104 -1.5181  0.5976
 8040SOL    HW224977   4.486   6.285   0.416  0.1881  0.6850  2.0913
 8041SOL     OW24978   3.867   7.634   7.848  0.3207 -0.7492 -0.4179
 8041SOL    HW124979   3.939   7.667   7.794  0.5541 -0.5885 -0.0105
 8041SOL    HW224980   3.822   7.571   7.791  1.5055 -1.7622 -0.2916
 8042SOL     OW24981   3.818   1.390   2.746  0.1719 -0.1590 -0.2118
 8042SOL    HW124982   3.800   1.324   2.813 -2.1975  0.0697 -0.5350
 8042SOL    HW224983   3.751   1.457   2.760  1.5195  1.4117 -0.9089
 8043SOL     OW24984   1.368   4.739   5.069  0.0996 -0.1228  0.3585
 8043SOL    HW124985   1.399   4.691   5.146 -1.4397  0.6611  1.5077
 8043SOL    HW224986   1.342   4.824   5.102  0.8995  0.8233 -1.3285
 8044SOL     OW24987   5.975   6.551   6.184 -0.6384  0.0378  0.4626
 8044SOL    HW124988   5.922   6.629   6.203 -1.2121 -0.3363  0.4124
 8044SOL    HW224989   6.064   6.585   6.175 -1.0414  0.8721 -0.7016
 8045SOL     OW24990   1.254   5.496   2.900  0.1330  0.3495 -0.0537
 8045SOL    HW124991   1.324   5.460   2.847 -0.8291 -0.2204 -0.9817
 8045SOL    HW224992   1.174   5.477   2.851 -1.0198 -1.9160  2.4457
 8046SOL     OW24993   1.346   1.978   5.628 -0.0777  0.5248  0.0217
 8046SOL    HW124994   1.341   2.071   5.652  0.3718  0.5279  0.1013
 8046SOL    HW224995   1.284   1.970   5.555 -2.0189  0.3504  1.6213
 8047SOL     OW24996   3.433   0.824   4.921 -0.2311 -0.3612  0.0945
 8047SOL    HW124997   3.365   0.873   4.875  1.1637  0.6445 -0.9663
 8047SOL    HW224998   3.385   0.760   4.973 -2.0262  0.8819  0.0557
 8048SOL     OW24999   3.792   5.124   0.063  0.0712  0.3040  0.5654
 8048SOL    HW125000   3.877   5.162   0.041  0.4283  0.5165  2.1868
 8048SOL    HW225001   3.770   5.070  -0.013  0.6154  1.9359 -0.8233
 8049SOL     OW25002   6.485   5.323   2.599 -0.5078 -0.1195 -0.0555
 8049SOL    HW125003   6.453   5.366   2.679 -0.7079 -0.3560 -0.0079
 8049SOL    HW225004   6.562   5.274   2.627 -1.1876 -1.0620  0.2171
 8050SOL     OW25005   6.651   1.824   1.648  0.0089 -0.4909 -0.2400
 8050SOL    HW125006   6.608   1.786   1.572 -0.5368 -1.9934  0.7599
 8050SOL    HW225007   6.616   1.913   1.654  0.8055 -0.0041 -2.2738
 8051SOL     OW25008   0.327   0.447   6.150  0.3590  0.2541  0.5366
 8051SOL    HW125009   0.401   0.454   6.089  2.5581 -0.7939  2.8645
 8051SOL    HW225010   0.261   0.397   6.102  2.4242 -1.5191 -0.6439
 8052SOL     OW25011   1.530   5.388   2.879 -0.6527 -0.0903  0.4052
 8052SOL    HW125012   1.574   5.446   2.942  0.5455 -0.9931  0.4240
 8052SOL    HW225013   1.484   5.324   2.933  1.5387 -1.7433  0.4450
 8053SOL     OW25014   0.566   3.395   7.866  0.0106  0.2267 -0.1465
 8053SOL    HW125015   0.513   3.317   7.886 -1.1291  0.9997 -0.0650
 8053SOL    HW225016   0.507   3.469   7.882  0.3586  1.0485 -2.3607
 8054SOL     OW25017   3.050   5.156   2.526 -0.0994 -0.2608  0.3364
 8054SOL    HW125018   3.040   5.083   2.466  1.7467  1.1273 -1.8299
 8054SOL    HW225019   2.991   5.223   2.492  0.4312  0.2901  0.4760
 8055SOL     OW25020   7.508   5.873   5.542 -0.2203 -0.1266 -0.1176
 8055SOL    HW125021   7.415   5.865   5.522 -0.4416  0.8919  0.4456
 8055SOL    HW225022   7.528   5.966   5.530  0.3508 -0.0382  1.3025
 8056SOL     OW25023   3.880   5.388   7.908 -0.0197 -0.5581 -0.4632
 8056SOL    HW125024   3.931   5.409   7.830  1.3819 -2.9489 -0.2803
 8056SOL    HW225025   3.800   5.347   7.875 -0.1208 -0.2258 -0.6425
 8057SOL     OW25026   5.224   4.239   6.417 -0.4369  0.6773  0.7922
 8057SOL    HW125027   5.268   4.323   6.433  0.4155  0.4084 -0.0385
 8057SOL    HW225028   5.270   4.177   6.473  0.2121  0.4104 -0.0216
 8058SOL     OW25029   2.481   3.453   1.778  0.2128  0.0857 -0.6815
 8058SOL    HW125030   2.451   3.458   1.869  1.4021 -1.1510 -0.1920
 8058SOL    HW225031   2.420   3.510   1.730  1.1075  2.8827  1.2284
 8059SOL     OW25032   6.348   2.788   6.541 -0.0622 -0.2200 -0.0696
 8059SOL    HW125033   6.379   2.856   6.600  0.5226 -0.3394 -0.2363
 8059SOL    HW225034   6.253   2.790   6.551  0.0441 -0.6107  1.2852
 8060SOL     OW25035   4.745   4.031   3.705  0.3832  0.2257  0.2523
 8060SOL    HW125036   4.664   4.080   3.702  0.8413  1.0148  0.4009
 8060SOL    HW225037   4.725   3.947   3.663  0.2365  1.4665 -2.2950
 8061SOL     OW25038   2.355   3.043   1.389 -0.1219 -0.0667 -0.0962
 8061SOL    HW125039   2.332   3.100   1.316 -0.2519  0.9388  0.7047
 8061SOL    HW225040   2.390   3.102   1.456  0.2146 -0.9891  0.5702
 8062SOL     OW25041   7.024   3.674   1.385  0.1094  0.4230 -0.0418
 8062SOL    HW125042   7.062   3.760   1.404 -1.9114  1.2164  0.7330
 8062SOL    HW225043   6.941   3.694   1.340  0.0164 -1.1573 -0.6531
 8063SOL     OW25044   4.367   5.896   3.894 -0.3673  0.5569 -0.2454
 8063SOL    HW125045   4.426   5.898   3.970  0.5104  0.6651 -0.9055
 8063SOL    HW225046   4.350   5.803   3.879  1.7141  0.2984 -1.5525
 8064SOL     OW25047   7.768   7.400   1.522  0.4269 -0.1440  0.1941
 8064SOL    HW125048   7.676   7.420   1.503  0.6445 -0.7465 -1.6570
 8064SOL    HW225049   7.805   7.483   1.551 -0.7335  0.0641  1.1535
 8065SOL     OW25050   6.222   1.528   0.138 -0.1044  0.0106  0.3419
 8065SOL    HW125051   6.263   1.517   0.053 -0.4927  1.8381 -0.1436
 8065SOL    HW225052   6.131   1.503   0.124  0.3119 -1.9591  0.8660
 8066SOL     OW25053   3.624   6.117   7.852  0.2178  0.5327  0.2764
 8066SOL    HW125054   3.548   6.121   7.794  0.2319 -0.7920  0.1300
 8066SOL    HW225055   3.587   6.102   7.939  0.2273  1.9342  0.5458
 8067SOL     OW25056   6.954   6.990   3.133  0.1492 -0.2387 -0.9016
 8067SOL    HW125057   6.954   6.982   3.038  0.4234 -0.8312 -0.8550
 8067SOL    HW225058   7.042   7.022   3.155 -0.1633  0.6526 -0.8999
 8068SOL     OW25059   2.914   3.223   0.042 -0.0161 -0.4686 -0.4640
 8068SOL    HW125060   3.003   3.202   0.069 -0.1597  0.0508  0.4860
 8068SOL    HW225061   2.923   3.261  -0.045  0.9018  1.1251  0.2809
 8069SOL     OW25062   3.680   0.061   0.860  0.9966  0.4500  0.0754
 8069SOL    HW125063   3.615   0.129   0.841  0.9615  0.1987 -0.7711
 8069SOL    HW225064   3.762   0.108   0.872  0.9138  0.6707 -0.2095
 8070SOL     OW25065   0.970   5.003   4.144  0.0382  0.0090 -0.1707
 8070SOL    HW125066   0.945   5.041   4.060 -0.6321  0.6649  0.3219
 8070SOL    HW225067   1.018   5.073   4.188 -0.3720 -0.0444  0.3553
 8071SOL     OW25068   0.727   3.447   7.010 -0.1182  0.0670 -0.4505
 8071SOL    HW125069   0.694   3.435   7.099 -0.1999 -0.1134 -0.5046
 8071SOL    HW225070   0.677   3.385   6.958  0.3589 -0.2683 -0.5210
 8072SOL     OW25071   3.793   3.053   0.779 -0.2100  0.2013  0.2870
 8072SOL    HW125072   3.869   3.112   0.770 -0.6687  0.7941  0.2343
 8072SOL    HW225073   3.718   3.108   0.758 -0.5032 -0.9621 -1.9212
 8073SOL     OW25074   3.120   1.024   5.164 -0.6156 -0.0740  0.0401
 8073SOL    HW125075   3.093   1.112   5.138 -0.8779 -0.2734 -0.3615
 8073SOL    HW225076   3.043   0.988   5.209 -0.0570  0.3940  1.4177
 8074SOL     OW25077   0.801   3.681   0.941 -0.4574  0.1733  0.2428
 8074SOL    HW125078   0.715   3.722   0.949 -0.7024 -0.1845 -0.4975
 8074SOL    HW225079   0.861   3.744   0.982 -1.0326  0.5465  0.5248
 8075SOL     OW25080   1.679   6.924   0.309 -0.3598  0.3314 -0.5105
 8075SOL    HW125081   1.649   6.833   0.310 -0.2638  0.2896 -1.0173
 8075SOL    HW225082   1.704   6.940   0.217  0.2563  0.6562 -0.2931
 8076SOL     OW25083   0.407   7.910   2.054  0.1653 -0.6917  0.4459
 8076SOL    HW125084   0.475   7.912   1.987  0.2684 -0.3726  0.5608
 8076SOL    HW225085   0.327   7.888   2.006  0.2226 -0.3749  0.2048
 8077SOL     OW25086   5.622   1.213   5.486 -0.3286 -0.5194 -0.2008
 8077SOL    HW125087   5.608   1.135   5.539  2.1225  0.3787  2.0057
 8077SOL    HW225088   5.713   1.207   5.456  0.2075  1.7875  0.7065
 8078SOL     OW25089   7.563   5.772   3.952  0.2945  0.7219  0.0368
 8078SOL    HW125090   7.498   5.702   3.942 -0.7759  1.3714  1.8428
 8078SOL    HW225091   7.637   5.745   3.897 -1.7411  0.3086 -2.6991
 8079SOL     OW25092   7.873   7.496   1.997  0.2007  0.2070 -0.2680
 8079SOL    HW125093   7.777   7.494   2.007  0.2328 -1.0483  0.0287
 8079SOL    HW225094   7.906   7.494   2.087  0.4838 -2.0214 -0.3654
 8080SOL     OW25095   1.387   4.126   6.102 -0.6568 -0.1307  0.3131
 8080SOL    HW125096   1.383   4.032   6.117 -0.4995 -0.1201  0.4228
 8080SOL    HW225097   1.352   4.165   6.182 -0.3890 -0.0886  0.4131
 8081SOL     OW25098   2.457   1.859   6.609 -0.2756 -0.0235  0.1142
 8081SOL    HW125099   2.444   1.806   6.687 -2.8938  1.1787  0.5954
 8081SOL    HW225100   2.455   1.949   6.640 -0.6902  0.4635 -1.2537
 8082SOL     OW25101   0.007   7.240   0.929  0.5414  0.2668 -0.4086
 8082SOL    HW125102   0.067   7.228   1.002  0.4905 -1.0315 -0.5518
 8082SOL    HW225103  -0.038   7.156   0.921  0.5568  0.3741 -1.9377
 8083SOL     OW25104   6.165   7.806   5.575  0.2002 -0.1714 -0.0509
 8083SOL    HW125105   6.117   7.868   5.631  0.0406 -1.0844  0.8472
 8083SOL    HW225106   6.099   7.773   5.514 -0.4414 -1.6502  1.3732
 8084SOL     OW25107   2.484   2.390   1.964 -0.0388 -0.1771 -0.1643
 8084SOL    HW125108   2.440   2.457   1.912  0.0799 -1.1867 -1.6206
 8084SOL    HW225109   2.567   2.430   1.990 -1.2214  1.2851  1.5375
 8085SOL     OW25110   2.059   5.296   2.536 -0.1935 -0.0660  0.3209
 8085SOL    HW125111   2.127   5.363   2.531 -0.1521 -0.2059 -1.5051
 8085SOL    HW225112   1.978   5.345   2.550  0.1551  0.1519  1.7018
 8086SOL     OW25113   2.742   0.423   5.849  0.2661 -0.4762 -0.2957
 8086SOL    HW125114   2.751   0.497   5.789 -1.7511  0.5252  0.5151
 8086SOL    HW225115   2.799   0.445   5.923  0.3881 -0.1778 -0.4750
 8087SOL     OW25116   0.663   0.586   0.412 -0.2678  0.0780  0.6206
 8087SOL    HW125117   0.724   0.638   0.465  0.3082  0.6376 -0.5539
 8087SOL    HW225118   0.704   0.499   0.407  0.0157  0.2113  0.5558
 8088SOL     OW25119   4.398   0.813   1.736  0.0210  0.1263  0.0016
 8088SOL    HW125120   4.319   0.866   1.744 -0.1535 -0.2013  0.5495
 8088SOL    HW225121   4.371   0.726   1.768  0.5150 -0.0712 -0.1139
 8089SOL     OW25122   5.373   0.882   5.898  0.7298  0.4011 -0.0043
 8089SOL    HW125123   5.304   0.934   5.855 -0.0875 -0.7355 -0.0970
 8089SOL    HW225124   5.437   0.948   5.927  0.0676  1.4041 -0.7321
 8090SOL     OW25125   0.567   7.602   2.583 -0.5680  0.6695  0.0079
 8090SOL    HW125126   0.501   7.616   2.652  1.3823 -1.6708  2.6049
 8090SOL    HW225127   0.629   7.673   2.595 -1.6456  1.8708 -1.2774
 8091SOL     OW25128   4.593   5.325   5.161 -0.1787 -0.1405  0.0394
 8091SOL    HW125129   4.673   5.346   5.113  0.3429  0.0468  0.9559
 8091SOL    HW225130   4.526   5.379   5.120  0.3434  0.3512 -0.1810
 8092SOL     OW25131   4.567   7.480   4.586  0.6593 -0.1064 -0.6382
 8092SOL    HW125132   4.641   7.494   4.645  1.8156 -0.9155 -1.8385
 8092SOL    HW225133   4.520   7.563   4.586 -0.3686 -0.5274  2.6600
 8093SOL     OW25134   7.364   1.278   3.352 -0.1163  0.3286 -0.0804
 8093SOL    HW125135   7.319   1.193   3.345 -0.8968  0.5266  1.9385
 8093SOL    HW225136   7.293   1.342   3.347 -0.0002  0.6869  2.0445
 8094SOL     OW25137   2.994   5.336   7.162 -0.4235 -0.0892 -0.1288
 8094SOL    HW125138   2.964   5.391   7.234  0.6666  1.3760 -0.7346
 8094SOL    HW225139   3.063   5.281   7.200 -0.6694 -0.1753  0.1995
 8095SOL     OW25140   0.425   2.386   3.730 -0.2882  0.2038 -0.2648
 8095SOL    HW125141   0.370   2.348   3.661  0.3690  1.5449 -1.6010
 8095SOL    HW225142   0.451   2.472   3.695 -0.2709  1.1224  1.8510
 8096SOL     OW25143   2.974   7.991   3.804  0.0694 -0.0037  0.4956
 8096SOL    HW125144   3.038   8.020   3.869  0.7274  0.5838 -0.3943
 8096SOL    HW225145   3.025   7.974   3.725 -0.9268  1.1966 -0.4673
 8097SOL     OW25146   4.086   1.652   4.066  0.3658 -0.2872 -0.4515
 8097SOL    HW125147   4.056   1.561   4.059  0.1946 -0.1302 -2.0469
 8097SOL    HW225148   4.092   1.683   3.976  0.5168  1.2696  0.0557
 8098SOL     OW25149   1.113   2.420   3.751  0.1092  0.4078 -0.1562
 8098SOL    HW125150   1.173   2.472   3.698  3.0909 -1.3946  1.2136
 8098SOL    HW225151   1.144   2.431   3.840 -1.9884 -0.2399  0.7200
 8099SOL     OW25152   3.087   6.252   7.267 -0.4331 -0.8312  0.0774
 8099SOL    HW125153   3.104   6.218   7.180  0.9387 -1.7698  0.6626
 8099SOL    HW225154   3.097   6.176   7.325 -0.2070 -0.0207  1.1419
 8100SOL     OW25155   3.216   4.610   0.283 -0.3247 -0.0391  0.1845
 8100SOL    HW125156   3.299   4.569   0.306 -1.1988 -0.6052  2.6947
 8100SOL    HW225157   3.233   4.704   0.288  0.2604 -0.1495  0.3086
 8101SOL     OW25158   4.772   2.144   7.352  0.1505 -0.2561 -0.0786
 8101SOL    HW125159   4.867   2.157   7.354  0.0296  1.6676  3.7917
 8101SOL    HW225160   4.759   2.057   7.389  0.4126 -0.1023  0.3900
 8102SOL     OW25161   0.525   4.663   6.098  0.3781  0.3070  0.0139
 8102SOL    HW125162   0.529   4.727   6.027 -1.7837 -0.0486 -0.5179
 8102SOL    HW225163   0.522   4.715   6.178 -0.4468  0.8650 -0.3668
 8103SOL     OW25164   4.440   5.299   6.550  0.2184  0.1695  0.5324
 8103SOL    HW125165   4.369   5.237   6.532 -1.4723  2.5567 -2.0801
 8103SOL    HW225166   4.511   5.272   6.491 -0.2579  0.2897 -0.1133
 8104SOL     OW25167   4.607   3.147   4.245  0.4790 -0.8114 -0.2172
 8104SOL    HW125168   4.626   3.177   4.334 -1.0908  0.0006 -0.1211
 8104SOL    HW225169   4.641   3.216   4.188 -0.4632 -0.2545 -0.1273
 8105SOL     OW25170   6.742   2.499   3.393  0.5657  0.2148  0.8481
 8105SOL    HW125171   6.710   2.415   3.427 -0.9886 -0.4114 -1.8602
 8105SOL    HW225172   6.831   2.479   3.362  0.5773 -0.1863  1.1277
 8106SOL     OW25173   0.967   5.390   4.241  0.5254 -0.6824 -0.0453
 8106SOL    HW125174   1.013   5.309   4.266  0.6766 -0.3731  0.7198
 8106SOL    HW225175   0.992   5.453   4.309  0.8889  0.1850 -0.9500
 8107SOL     OW25176   7.979   2.595   1.013  0.3865  0.2733  0.4720
 8107SOL    HW125177   7.956   2.656   0.943  0.3937  0.1225  0.3356
 8107SOL    HW225178   7.925   2.622   1.087 -0.1677 -0.0112  0.1861
 8108SOL     OW25179   7.314   7.443   2.449 -0.4165 -0.2392 -0.1492
 8108SOL    HW125180   7.351   7.511   2.505  1.0904 -0.3772 -0.9390
 8108SOL    HW225181   7.387   7.413   2.396 -1.1002 -2.3074 -0.0148
 8109SOL     OW25182   3.652   0.727   1.461 -0.2307  0.1850 -0.0711
 8109SOL    HW125183   3.660   0.821   1.443  0.6498 -0.2076 -1.8800
 8109SOL    HW225184   3.725   0.708   1.520  0.0712  0.4658 -0.3577
 8110SOL     OW25185   2.773   7.045   2.185  0.0451 -0.3254 -0.7198
 8110SOL    HW125186   2.723   7.089   2.117  1.4909  0.7594 -1.1478
 8110SOL    HW225187   2.861   7.082   2.177  0.6722 -1.4332  0.6271
 8111SOL     OW25188   3.290   3.794   7.112  0.0440  0.0202 -0.5163
 8111SOL    HW125189   3.285   3.698   7.113 -0.0743  0.0268 -0.3319
 8111SOL    HW225190   3.225   3.821   7.176 -0.8301  0.2613 -1.4803
 8112SOL     OW25191   6.552   3.299   4.839 -0.1810  0.5214 -0.3770
 8112SOL    HW125192   6.489   3.262   4.902  0.1850 -1.8207 -1.2603
 8112SOL    HW225193   6.637   3.291   4.883 -0.0705  0.0399 -0.6709
 8113SOL     OW25194   1.509   3.862   0.761 -0.2783  0.3189  0.6771
 8113SOL    HW125195   1.548   3.778   0.736 -1.9710 -0.1603 -0.4528
 8113SOL    HW225196   1.418   3.856   0.735 -0.3047  2.7872 -0.0627
 8114SOL     OW25197   1.591   1.955   6.913  0.9252 -0.8302  0.2719
 8114SOL    HW125198   1.576   1.861   6.907 -1.9241 -0.5703  1.5404
 8114SOL    HW225199   1.534   1.992   6.845  0.3825  0.0562  1.1836
 8115SOL     OW25200   4.181   3.153   4.277  0.1101  0.5874  0.1060
 8115SOL    HW125201   4.136   3.237   4.263 -0.3243  0.5144  1.0267
 8115SOL    HW225202   4.210   3.156   4.368 -0.4806 -0.5311  0.3480
 8116SOL     OW25203   2.929   6.266   0.384 -0.1115 -0.0884  0.0204
 8116SOL    HW125204   2.932   6.189   0.440  0.8073  0.6115  0.9721
 8116SOL    HW225205   3.016   6.271   0.345  0.2111  1.0519  0.8166
 8117SOL     OW25206   4.385   2.937   3.387  0.6174 -0.1638  0.6445
 8117SOL    HW125207   4.296   2.902   3.391  0.1994  0.5948 -0.9542
 8117SOL    HW225208   4.442   2.862   3.407 -0.3798 -0.2966  3.2753
 8118SOL     OW25209   6.479   2.898   5.289 -0.5672 -0.0647  0.1719
 8118SOL    HW125210   6.391   2.863   5.294 -0.4684 -0.5375 -1.1376
 8118SOL    HW225211   6.489   2.949   5.370 -1.6980 -0.7500  0.7626
 8119SOL     OW25212   2.769   0.162   5.809 -0.2447 -0.1070  0.1354
 8119SOL    HW125213   2.806   0.137   5.893  1.3437 -0.7157 -0.7042
 8119SOL    HW225214   2.759   0.257   5.814 -2.4781 -0.3555  1.8630
 8120SOL     OW25215   4.617   6.189   5.013 -0.0069  0.0548 -0.5847
 8120SOL    HW125216   4.590   6.097   5.004  0.5069 -0.1062 -0.4729
 8120SOL    HW225217   4.581   6.217   5.097  3.7128 -1.4166  1.6949
 8121SOL     OW25218   1.742   1.892   5.024  0.0744  0.4709 -0.6736
 8121SOL    HW125219   1.667   1.900   4.964 -0.2594  1.3130 -0.1599
 8121SOL    HW225220   1.702   1.891   5.111  0.6430  0.5007 -0.4102
 8122SOL     OW25221   0.968   0.324   6.243 -0.3062  0.0973 -0.3188
 8122SOL    HW125222   0.926   0.238   6.239 -0.4824  0.2046 -0.9225
 8122SOL    HW225223   0.984   0.347   6.151 -1.8007  1.4617 -0.2688
 8123SOL     OW25224   7.073   5.527   0.565  0.0206  0.2161  0.1596
 8123SOL    HW125225   7.054   5.579   0.487 -1.0637  0.5256  0.6128
 8123SOL    HW225226   7.091   5.592   0.634 -2.0072  0.0577  0.8987
 8124SOL     OW25227   5.326   0.814   1.569 -0.2727  0.0981  0.4523
 8124SOL    HW125228   5.277   0.760   1.507 -3.0332  0.6390  2.0103
 8124SOL    HW225229   5.328   0.901   1.528 -1.8334  0.3876  0.9393
 8125SOL     OW25230   7.872   2.029   1.580  0.0450 -0.2834  0.1413
 8125SOL    HW125231   7.914   1.992   1.502 -1.0990 -2.4785  0.4886
 8125SOL    HW225232   7.826   2.106   1.547  0.0299 -0.8552 -1.2732
 8126SOL     OW25233   1.667   5.311   2.593  0.0512  0.7044  0.1948
 8126SOL    HW125234   1.633   5.344   2.677  1.4765  0.7888  0.7747
 8126SOL    HW225235   1.725   5.380   2.562  1.2873 -0.2703  0.2694
 8127SOL     OW25236   6.621   0.170   7.699  0.0184 -0.4315  0.5067
 8127SOL    HW125237   6.694   0.140   7.644  0.8939  0.9125  0.8692
 8127SOL    HW225238   6.546   0.121   7.668  0.7724 -0.7331 -0.9509
 8128SOL     OW25239   5.698   5.924   6.138  0.0147 -0.1680  0.5983
 8128SOL    HW125240   5.661   5.974   6.065 -2.2623 -0.3643  1.5316
 8128SOL    HW225241   5.685   5.979   6.215  1.8743 -0.2020  0.9995
 8129SOL     OW25242   7.698   3.535   1.118 -0.3545  0.2553  0.0138
 8129SOL    HW125243   7.618   3.587   1.125 -1.9001 -1.5184 -2.6219
 8129SOL    HW225244   7.723   3.542   1.026  0.2197 -2.3953 -0.1147
 8130SOL     OW25245   1.583   4.035   6.997 -0.1531  0.1150 -0.2330
 8130SOL    HW125246   1.572   4.076   7.082  0.6511 -0.7315  0.2875
 8130SOL    HW225247   1.526   3.958   6.999  0.1675 -0.1286 -0.3050
 8131SOL     OW25248   5.823   1.654   7.182  0.0717 -0.2605 -0.0606
 8131SOL    HW125249   5.777   1.614   7.108 -0.1170 -4.3933  2.0020
 8131SOL    HW225250   5.777   1.621   7.259  3.4454 -0.6390  1.9905
 8132SOL     OW25251   3.946   3.278   5.883  0.2861 -0.0692 -0.1043
 8132SOL    HW125252   4.028   3.235   5.855  0.4264 -0.4460  0.8332
 8132SOL    HW225253   3.883   3.256   5.814  0.8502 -0.1632 -0.6067
 8133SOL     OW25254   6.878   3.390   5.846  0.3744  0.5689  0.0260
 8133SOL    HW125255   6.791   3.378   5.807  1.0243  0.2680 -1.3814
 8133SOL    HW225256   6.868   3.356   5.935 -1.0649  0.9649  0.0453
 8134SOL     OW25257   0.227   7.426   1.606 -0.4170 -0.4838  0.1009
 8134SOL    HW125258   0.211   7.379   1.688  1.6309  0.2264  0.9685
 8134SOL    HW225259   0.224   7.518   1.630  1.8198 -0.2780 -0.2371
 8135SOL     OW25260   6.799   4.271   6.247 -0.0955 -0.3544 -0.2832
 8135SOL    HW125261   6.795   4.362   6.277 -0.2890  0.2148 -1.9514
 8135SOL    HW225262   6.813   4.277   6.153 -0.3800 -2.0562 -0.4669
 8136SOL     OW25263   1.059   0.246   7.588  0.1457 -0.7130  0.1175
 8136SOL    HW125264   0.986   0.303   7.612  0.6123  0.8390 -1.9191
 8136SOL    HW225265   1.030   0.158   7.612 -1.4362  0.1245  1.4411
 8137SOL     OW25266   7.632   6.284   4.173  0.3598  0.2111  0.5344
 8137SOL    HW125267   7.629   6.365   4.122 -0.0628 -0.2279 -0.1537
 8137SOL    HW225268   7.542   6.270   4.201  0.7785  1.1672  2.6109
 8138SOL     OW25269   4.390   1.409   7.925 -0.0889 -0.0232  0.3067
 8138SOL    HW125270   4.383   1.471   7.852 -1.1700 -1.0381 -0.4904
 8138SOL    HW225271   4.307   1.418   7.972  0.8262  1.0484  1.8248
 8139SOL     OW25272   4.669   5.631   5.300  0.3092  0.4278 -0.0836
 8139SOL    HW125273   4.603   5.658   5.364  1.3224 -0.2666  1.2965
 8139SOL    HW225274   4.629   5.555   5.256  0.2452 -0.1224  0.8855
 8140SOL     OW25275   5.695   5.507   4.022 -0.4042  0.2498  1.1141
 8140SOL    HW125276   5.762   5.500   3.955 -0.0687 -0.5688  1.5177
 8140SOL    HW225277   5.712   5.591   4.065 -0.8367  0.9473 -0.0256
 8141SOL     OW25278   2.294   7.841   3.805 -0.0000  0.2484  0.3992
 8141SOL    HW125279   2.205   7.873   3.792  0.2229  0.9465  0.5418
 8141SOL    HW225280   2.283   7.752   3.837 -0.6311 -1.0107 -2.8694
 8142SOL     OW25281   1.891   1.518   3.824  0.0899 -0.3779  0.0675
 8142SOL    HW125282   1.846   1.464   3.890  1.6859  0.7068  2.1987
 8142SOL    HW225283   1.953   1.458   3.783  1.3119 -0.4526  1.8696
 8143SOL     OW25284   6.273   2.866   0.638  0.2088  0.4542 -0.1100
 8143SOL    HW125285   6.364   2.838   0.635  0.6463  0.7371  4.5308
 8143SOL    HW225286   6.223   2.784   0.643  0.7444  0.1983  2.8523
 8144SOL     OW25287   7.795   7.952   3.616  0.1406 -0.5674  0.1500
 8144SOL    HW125288   7.704   7.942   3.643 -0.6209 -0.7813 -2.2751
 8144SOL    HW225289   7.815   8.044   3.632  0.2948 -0.9608  2.7550
 8145SOL     OW25290   2.702   3.138   4.510 -0.2542  1.1806 -0.0851
 8145SOL    HW125291   2.657   3.054   4.518  0.6124  0.7553  0.5272
 8145SOL    HW225292   2.632   3.203   4.507 -0.9202  0.6432  2.0201
 8146SOL     OW25293   1.911   0.780   1.592 -0.0671 -0.1145  0.2950
 8146SOL    HW125294   1.955   0.741   1.667  0.2221 -1.0748 -0.3482
 8146SOL    HW225295   1.982   0.800   1.530 -0.2219  1.3693  0.5703
 8147SOL     OW25296   5.836   1.224   2.336 -0.0575 -0.0141 -0.1833
 8147SOL    HW125297   5.916   1.276   2.332 -0.4348  0.5750 -0.1170
 8147SOL    HW225298   5.843   1.162   2.263  0.9491 -0.6800  0.4573
 8148SOL     OW25299   5.369   2.291   1.384  0.1106  0.1482 -0.2629
 8148SOL    HW125300   5.443   2.334   1.340  0.1716 -1.6249 -2.0743
 8148SOL    HW225301   5.361   2.336   1.467  1.6956  1.9951 -1.0216
 8149SOL     OW25302   7.695   0.764   1.371  0.3200 -0.0137 -0.3599
 8149SOL    HW125303   7.721   0.746   1.461 -0.4155 -2.6512 -0.5855
 8149SOL    HW225304   7.665   0.855   1.372  1.8202  0.5321  1.6627
 8150SOL     OW25305   0.234   0.338   1.795 -0.2364 -0.2199 -0.1410
 8150SOL    HW125306   0.311   0.281   1.783 -0.5190 -0.4529 -0.9219
 8150SOL    HW225307   0.240   0.402   1.725 -1.2597 -0.8223 -0.8057
 8151SOL     OW25308   2.098   4.366   0.314  0.0476 -0.5685  0.0427
 8151SOL    HW125309   2.080   4.435   0.378 -2.7247 -0.3804 -0.8055
 8151SOL    HW225310   2.114   4.412   0.232  1.1488 -0.8843  0.0614
 8152SOL     OW25311   7.333   3.168   2.632 -0.4619 -0.2695  0.6319
 8152SOL    HW125312   7.245   3.146   2.662 -0.5418 -1.8587 -0.6731
 8152SOL    HW225313   7.331   3.262   2.617 -1.3808  0.0278  2.3186
 8153SOL     OW25314   3.141   3.230   3.343 -0.3496 -0.5752  0.2929
 8153SOL    HW125315   3.113   3.161   3.283  0.8721 -1.4507  0.6765
 8153SOL    HW225316   3.227   3.258   3.310 -0.6315  0.4686  0.3966
 8154SOL     OW25317   5.532   6.740   6.157  0.1574 -0.6252  0.1695
 8154SOL    HW125318   5.445   6.780   6.157  0.5936  0.3475 -0.6407
 8154SOL    HW225319   5.515   6.646   6.172 -1.0036 -0.4195  0.2134
 8155SOL     OW25320   7.380   6.953   2.634 -0.1015 -0.6237  0.7610
 8155SOL    HW125321   7.341   6.871   2.604  0.6807 -0.9100  0.4930
 8155SOL    HW225322   7.407   6.936   2.724 -1.2458 -0.1913  1.1922
 8156SOL     OW25323   7.928   3.900   7.717  0.7142  0.0576  0.2995
 8156SOL    HW125324   7.876   3.886   7.638 -0.3777 -1.3085  1.2199
 8156SOL    HW225325   7.951   3.993   7.714  5.2134 -0.6957 -4.3144
 8157SOL     OW25326   7.876   3.480   4.790  0.1384  0.3624  0.9400
 8157SOL    HW125327   7.822   3.523   4.723 -0.4202 -0.6962  0.6863
 8157SOL    HW225328   7.957   3.457   4.744 -0.8765 -1.8535  0.0960
 8158SOL     OW25329   5.407   7.077   5.217 -0.0635 -0.4025  0.6483
 8158SOL    HW125330   5.417   6.981   5.217 -1.0203 -0.5140  0.6309
 8158SOL    HW225331   5.444   7.105   5.133  0.0433 -0.7808  0.5668
 8159SOL     OW25332   1.297   1.200   1.129  0.3546  0.3088  0.5228
 8159SOL    HW125333   1.380   1.156   1.147  0.7761  1.0984  0.5463
 8159SOL    HW225334   1.312   1.248   1.047  0.9556  2.9493  2.0711
 8160SOL     OW25335   7.011   0.175   6.497  0.1999  0.0932 -0.4384
 8160SOL    HW125336   6.962   0.244   6.452 -0.5214  0.2812  0.6122
 8160SOL    HW225337   7.051   0.219   6.573 -0.5094 -0.6935  0.4067
 8161SOL     OW25338   4.475   2.728   2.410 -0.3589 -0.1288 -0.5379
 8161SOL    HW125339   4.440   2.743   2.498  0.2252 -2.7416  0.2217
 8161SOL    HW225340   4.521   2.645   2.416  0.4267  0.0213 -3.1404
 8162SOL     OW25341   2.202   3.198   2.619  0.3237  0.0469 -0.0923
 8162SOL    HW125342   2.161   3.163   2.539 -0.1242  1.1546 -0.3720
 8162SOL    HW225343   2.185   3.292   2.615 -0.0731  0.0767  1.5272
 8163SOL     OW25344   5.552   5.172   0.911 -0.6013 -0.0615 -0.0226
 8163SOL    HW125345   5.471   5.140   0.872  1.4170 -1.5042 -3.5472
 8163SOL    HW225346   5.594   5.094   0.948  0.5921 -0.0277 -1.2028
 8164SOL     OW25347   6.566   6.817   0.807  0.4265 -0.2180  0.5183
 8164SOL    HW125348   6.483   6.863   0.815  0.8233  0.9090 -1.3083
 8164SOL    HW225349   6.573   6.795   0.715  1.8150 -0.9636  0.7739
 8165SOL     OW25350   1.651   3.545   4.588 -0.3329 -0.0940  0.0927
 8165SOL    HW125351   1.670   3.589   4.672 -1.6763  0.6992  0.0171
 8165SOL    HW225352   1.734   3.546   4.541  1.0104 -2.3421  2.1603
 8166SOL     OW25353   4.394   6.531   2.616 -0.2485  0.0095 -0.0127
 8166SOL    HW125354   4.370   6.519   2.524 -1.2441 -0.2955  0.2705
 8166SOL    HW225355   4.476   6.580   2.613 -0.6960  0.7388 -1.0481
 8167SOL     OW25356   0.137   7.136   1.434 -0.1336 -0.4316 -0.0861
 8167SOL    HW125357   0.075   7.134   1.507  1.8010  2.1128  1.7762
 8167SOL    HW225358   0.100   7.199   1.373 -0.1961 -0.1539  0.2363
 8168SOL     OW25359   0.633   6.408   4.802  0.0067  0.0265  0.4077
 8168SOL    HW125360   0.616   6.477   4.738 -0.2447 -1.2646 -0.9739
 8168SOL    HW225361   0.729   6.404   4.808  0.1210 -1.0787 -1.3630
 8169SOL     OW25362   5.572   1.304   3.801  0.4009  0.0756  0.0533
 8169SOL    HW125363   5.497   1.313   3.860 -0.0337  2.4138 -0.7197
 8169SOL    HW225364   5.558   1.372   3.735  0.8732 -2.3644 -2.7732
 8170SOL     OW25365   1.270   3.283   2.683 -0.4669 -0.0969 -0.1869
 8170SOL    HW125366   1.342   3.293   2.622 -0.5330  0.7325 -0.1494
 8170SOL    HW225367   1.195   3.325   2.639 -0.4893  0.5981  0.4850
 8171SOL     OW25368   6.746   0.965   7.567 -0.0900  0.2591  0.1280
 8171SOL    HW125369   6.730   0.880   7.609 -2.0691  0.6526  0.2764
 8171SOL    HW225370   6.670   1.018   7.592  0.6023  1.7424 -0.8197
 8172SOL     OW25371   7.542   5.102   3.168  0.1037 -0.4902 -0.0151
 8172SOL    HW125372   7.486   5.058   3.232  0.7660 -0.5373  0.5446
 8172SOL    HW225373   7.630   5.070   3.187  0.3994 -0.0010 -0.5242
 8173SOL     OW25374   0.744   3.517   0.722  0.1446 -0.2070  0.2814
 8173SOL    HW125375   0.692   3.564   0.656  0.7748  1.3563  0.8512
 8173SOL    HW225376   0.761   3.582   0.790  2.6740 -0.6979  0.2226
 8174SOL     OW25377   4.688   3.872   6.276  0.6052  0.0781 -0.0011
 8174SOL    HW125378   4.733   3.916   6.348  1.0166  0.2198 -0.3407
 8174SOL    HW225379   4.634   3.941   6.236 -0.4028 -0.2277  0.7783
 8175SOL     OW25380   6.826   7.413   2.449 -0.6373 -1.0074 -0.3732
 8175SOL    HW125381   6.804   7.351   2.518 -1.2210  0.2528  0.6040
 8175SOL    HW225382   6.907   7.454   2.477 -1.3600  0.1746  0.0539
 8176SOL     OW25383   3.146   1.922   7.614  0.1069  0.0142  0.6671
 8176SOL    HW125384   3.163   1.916   7.708  0.3440  1.6397  0.7554
 8176SOL    HW225385   3.224   1.964   7.579 -1.7881  3.7763  0.4729
 8177SOL     OW25386   3.705   7.151   0.129  0.1774  0.3354  0.9091
 8177SOL    HW125387   3.794   7.187   0.126 -0.0982  0.9925 -0.9869
 8177SOL    HW225388   3.713   7.063   0.092 -0.0540  0.6474  0.1041
 8178SOL     OW25389   6.602   6.853   5.156  0.7845  0.4405 -0.0892
 8178SOL    HW125390   6.687   6.883   5.187  1.3343 -0.8152 -0.3359
 8178SOL    HW225391   6.570   6.794   5.225 -0.8167  2.3808  0.9479
 8179SOL     OW25392   3.062   1.282   5.125  0.0752  0.0096  0.2520
 8179SOL    HW125393   2.998   1.287   5.197 -0.9442 -0.2186 -0.6161
 8179SOL    HW225394   3.016   1.318   5.050  0.6704 -0.9678 -0.6042
 8180SOL     OW25395   1.861   1.602   1.594  0.1823 -0.1830 -0.0380
 8180SOL    HW125396   1.923   1.594   1.522  1.5633 -0.9084  1.1741
 8180SOL    HW225397   1.857   1.696   1.612  0.4178 -0.0712 -0.5525
 8181SOL     OW25398   4.824   4.073   4.658  0.2677 -0.8685 -0.6602
 8181SOL    HW125399   4.817   4.093   4.751 -0.6228 -0.4810 -0.7985
 8181SOL    HW225400   4.917   4.057   4.643  0.4991 -0.3135  0.1668
 8182SOL     OW25401   5.759   0.471   1.489  0.1618  0.4233 -0.2465
 8182SOL    HW125402   5.686   0.529   1.471 -0.0706 -0.1249 -1.1716
 8182SOL    HW225403   5.732   0.386   1.452  0.5620 -0.2262  0.8996
 8183SOL     OW25404   7.504   4.964   2.601 -0.0794  0.3762  0.0918
 8183SOL    HW125405   7.485   4.954   2.507 -1.5554  0.2682  0.3809
 8183SOL    HW225406   7.476   4.881   2.639 -0.9063  0.9778  0.8257
 8184SOL     OW25407   2.730   2.090   6.782  0.4537 -0.1713  0.1361
 8184SOL    HW125408   2.676   2.168   6.766  0.5765 -0.0319  0.3955
 8184SOL    HW225409   2.710   2.065   6.873 -0.1433 -0.8836 -0.1759
 8185SOL     OW25410   4.080   5.014   4.896 -0.0277  0.5716 -0.2293
 8185SOL    HW125411   4.127   5.094   4.875  0.7432  0.0802 -0.4008
 8185SOL    HW225412   4.053   4.979   4.811  1.5026 -0.4598 -0.3172
 8186SOL     OW25413   7.168   6.574   5.154  0.6267  0.4949  0.1900
 8186SOL    HW125414   7.244   6.628   5.176  0.1497  2.2171 -2.1485
 8186SOL    HW225415   7.188   6.537   5.068 -0.5367 -0.2875  0.2303
 8187SOL     OW25416   0.764   3.542   3.322  0.0542  0.1649  0.0596
 8187SOL    HW125417   0.836   3.480   3.334 -1.0333 -0.8324  1.8320
 8187SOL    HW225418   0.731   3.558   3.410 -2.2826  0.1053 -0.7348
 8188SOL     OW25419   3.991   0.011   2.139 -0.0509  0.0659  0.2352
 8188SOL    HW125420   4.065   0.044   2.188  0.5060 -1.1584  0.2553
 8188SOL    HW225421   3.998   0.054   2.053  0.1573  0.6341  0.5332
 8189SOL     OW25422   3.421   6.242   0.489  0.5113 -0.5273  0.1184
 8189SOL    HW125423   3.427   6.275   0.579  1.0140 -2.4738  0.8574
 8189SOL    HW225424   3.503   6.270   0.448 -0.7399  2.4764 -0.5736
 8190SOL     OW25425   2.991   2.356   0.732 -0.1282 -0.0385 -0.1515
 8190SOL    HW125426   3.028   2.363   0.644  0.4020  0.6150  0.1126
 8190SOL    HW225427   2.956   2.443   0.750 -1.4009 -0.5268 -0.2166
 8191SOL     OW25428   7.713   1.106   2.181  0.5772  0.1020  0.1772
 8191SOL    HW125429   7.797   1.118   2.225 -0.0036 -2.1529  2.0778
 8191SOL    HW225430   7.650   1.092   2.252 -1.1540  0.2716 -1.2453
 8192SOL     OW25431   4.993   4.169   0.190 -0.8400 -0.0767 -0.6111
 8192SOL    HW125432   4.972   4.079   0.166  0.2748 -0.1274 -1.4674
 8192SOL    HW225433   5.038   4.160   0.275 -1.7968 -0.2011 -0.1021
 8193SOL     OW25434   0.870   6.583   7.330  0.4809  0.4705 -0.1954
 8193SOL    HW125435   0.914   6.516   7.381  0.5360  1.8555  1.6780
 8193SOL    HW225436   0.782   6.588   7.367  0.2112  0.8741 -0.8590
 8194SOL     OW25437   7.806   3.803   0.460 -0.7123  0.2870  0.0761
 8194SOL    HW125438   7.714   3.814   0.484 -1.0378  0.9878 -1.3455
 8194SOL    HW225439   7.839   3.892   0.450 -0.0132  0.0364  0.1078
 8195SOL     OW25440   4.597   5.180   2.832 -0.1144 -0.5508  0.2446
 8195SOL    HW125441   4.590   5.192   2.737 -0.7449 -0.2526  0.3224
 8195SOL    HW225442   4.657   5.106   2.842 -0.4545 -0.9298 -0.4060
 8196SOL     OW25443   5.243   4.875   0.150  0.0925  0.8901  0.0136
 8196SOL    HW125444   5.333   4.896   0.174 -0.3611  1.6122  1.2039
 8196SOL    HW225445   5.231   4.784   0.179  0.0361  1.2389  1.1234
 8197SOL     OW25446   6.278   2.270   4.218 -0.4815  0.2794 -0.5810
 8197SOL    HW125447   6.353   2.230   4.262 -0.1035 -0.4358 -1.8113
 8197SOL    HW225448   6.219   2.197   4.199 -1.2938  0.7777 -0.0200
 8198SOL     OW25449   0.242   4.846   5.795 -0.0845  0.1039  0.9542
 8198SOL    HW125450   0.311   4.879   5.739 -0.5569 -0.3415  0.0947
 8198SOL    HW225451   0.182   4.920   5.806 -0.3287  0.0059  0.3249
 8199SOL     OW25452   6.464   6.724   2.337 -0.3092 -0.0584 -0.0189
 8199SOL    HW125453   6.456   6.811   2.376  1.0750 -0.1517  0.5125
 8199SOL    HW225454   6.387   6.716   2.281 -0.6689  1.3442  0.2408
 8200SOL     OW25455   5.604   1.684   7.886 -0.8093 -0.0906  0.1122
 8200SOL    HW125456   5.617   1.775   7.914 -1.7253  0.3257 -0.7536
 8200SOL    HW225457   5.691   1.654   7.862 -0.5243  0.6296  0.2055
 8201SOL     OW25458   0.047   2.665   0.601  0.1780 -0.2530 -0.0548
 8201SOL    HW125459   0.108   2.644   0.530 -0.6722 -0.4193 -0.7544
 8201SOL    HW225460   0.101   2.709   0.667  1.0995 -0.6319 -0.5395
 8202SOL     OW25461   6.257   1.906   1.390 -0.1452 -0.0509 -0.5284
 8202SOL    HW125462   6.204   1.924   1.312 -1.7738 -3.4896 -0.4047
 8202SOL    HW225463   6.238   1.979   1.449 -1.0576  1.2071 -2.2849
 8203SOL     OW25464   0.424   3.533   3.420  0.2060  0.2214 -0.0826
 8203SOL    HW125465   0.448   3.596   3.488 -2.1827  1.2516 -0.0973
 8203SOL    HW225466   0.423   3.585   3.340 -0.8413 -0.0486 -0.2513
 8204SOL     OW25467   5.799   5.678   6.296 -0.5353 -0.0886  0.6434
 8204SOL    HW125468   5.889   5.677   6.330  0.6010 -0.0534 -2.1083
 8204SOL    HW225469   5.789   5.764   6.255 -1.6301 -0.3123  0.4055
 8205SOL     OW25470   3.976   7.152   5.476  0.0581 -0.7211  0.1306
 8205SOL    HW125471   3.984   7.149   5.380  0.7440  0.6690  0.1242
 8205SOL    HW225472   4.044   7.093   5.507  2.1373  1.3664 -0.2063
 8206SOL     OW25473   0.756   2.540   4.459  0.4384 -0.4316 -0.3641
 8206SOL    HW125474   0.676   2.533   4.408 -0.4750  2.4314  0.4668
 8206SOL    HW225475   0.750   2.471   4.524 -0.5448 -1.2836 -1.3192
 8207SOL     OW25476   3.522   4.904   5.948 -0.2531 -0.7619  0.5196
 8207SOL    HW125477   3.556   4.994   5.947 -2.0812  0.0218  2.0293
 8207SOL    HW225478   3.582   4.856   6.005  0.4488 -0.3769  0.1213
 8208SOL     OW25479   2.039   3.833   1.585 -0.0500 -0.0353  0.4797
 8208SOL    HW125480   2.033   3.765   1.652 -1.6376 -2.4108 -1.8682
 8208SOL    HW225481   1.948   3.853   1.564  0.3992  2.2628  0.4968
 8209SOL     OW25482   4.294   2.203   0.052 -0.0923 -0.0954 -0.1231
 8209SOL    HW125483   4.338   2.286   0.067  0.3653 -0.4299  0.4617
 8209SOL    HW225484   4.230   2.197   0.124  0.9681 -0.9564  0.7866
 8210SOL     OW25485   5.383   1.213   2.678  0.0798  1.1480 -0.0533
 8210SOL    HW125486   5.372   1.304   2.649 -0.8157  1.1241  0.1691
 8210SOL    HW225487   5.359   1.215   2.770 -0.5738  0.5752 -0.2019
 8211SOL     OW25488   4.429   4.476   6.951  0.4708  0.3163 -0.2224
 8211SOL    HW125489   4.487   4.442   6.884  0.4810 -0.1641  0.0311
 8211SOL    HW225490   4.395   4.558   6.914 -0.7409 -0.7146 -1.4721
 8212SOL     OW25491   1.954   5.489   6.488 -0.2087 -0.2147 -0.1613
 8212SOL    HW125492   1.970   5.560   6.427 -0.6376  0.3606  0.3795
 8212SOL    HW225493   2.014   5.506   6.561 -0.7371 -0.0539  0.2451
 8213SOL     OW25494   2.266   5.981   6.949  0.0099  0.4539 -0.8786
 8213SOL    HW125495   2.315   5.900   6.939  0.6105  0.9115 -1.7456
 8213SOL    HW225496   2.231   5.999   6.862  1.1219  1.8837 -1.0691
 8214SOL     OW25497   5.615   3.137   1.363 -0.2833  0.1085 -0.2962
 8214SOL    HW125498   5.662   3.138   1.446 -2.0243  0.0791  0.7402
 8214SOL    HW225499   5.630   3.224   1.326  1.6005 -0.3312 -0.6274
 8215SOL     OW25500   2.474   3.179   4.103  0.6026 -0.2584 -0.1233
 8215SOL    HW125501   2.381   3.184   4.081  0.5247  0.2211  0.2875
 8215SOL    HW225502   2.480   3.109   4.168  1.1019 -3.0093 -2.9386
 8216SOL     OW25503   1.752   6.121   6.117  0.2673 -0.1974  0.0214
 8216SOL    HW125504   1.737   6.154   6.206  0.7666 -1.3164  0.5292
 8216SOL    HW225505   1.751   6.200   6.062 -0.6226  0.4503  0.9317
 8217SOL     OW25506   0.577   7.854   4.889  0.5819  0.1280 -0.5548
 8217SOL    HW125507   0.558   7.761   4.876  1.4719  0.0376 -1.2430
 8217SOL    HW225508   0.671   7.863   4.874  0.3943  1.2586 -1.1889
 8218SOL     OW25509   4.442   3.580   7.336  0.1362 -0.4041 -0.5198
 8218SOL    HW125510   4.517   3.576   7.278 -0.0078 -1.7063 -0.6361
 8218SOL    HW225511   4.426   3.490   7.362 -1.5765 -0.2044 -0.7450
 8219SOL     OW25512   6.486   6.953   1.310  0.6679  0.6619  0.0131
 8219SOL    HW125513   6.506   7.044   1.288 -1.1910  0.6538 -2.0359
 8219SOL    HW225514   6.568   6.920   1.348  2.1154  2.5676 -1.2039
 8220SOL     OW25515   1.629   5.002   7.378 -0.1953  0.0523  0.2084
 8220SOL    HW125516   1.569   4.969   7.443 -0.6912  0.3369 -0.0994
 8220SOL    HW225517   1.573   5.032   7.306  0.2416  1.2589  0.3421
 8221SOL     OW25518   7.316   2.817   6.741 -0.2069  0.3370  0.4554
 8221SOL    HW125519   7.231   2.776   6.726 -0.6164  1.2990 -0.0106
 8221SOL    HW225520   7.380   2.747   6.728 -0.8710 -0.1371 -0.3492
 8222SOL     OW25521   1.217   6.830   4.286  0.4923  0.1160  0.0521
 8222SOL    HW125522   1.196   6.829   4.379 -0.4901  1.4287 -0.1278
 8222SOL    HW225523   1.220   6.923   4.263 -1.5574 -0.1545 -1.6814
 8223SOL     OW25524   3.417   3.403   2.947 -0.0025 -0.0767  0.8147
 8223SOL    HW125525   3.345   3.386   2.886  0.0907 -0.9709  0.9460
 8223SOL    HW225526   3.495   3.376   2.900  0.0050 -1.4424  1.5673
 8224SOL     OW25527   0.107   4.870   0.405 -0.5121  0.2795 -0.2129
 8224SOL    HW125528   0.089   4.776   0.408 -0.8228  0.3538  1.3340
 8224SOL    HW225529   0.189   4.877   0.357 -2.0691 -0.4791 -3.2230
 8225SOL     OW25530   2.552   2.828   1.334 -0.1817  0.4107 -0.2243
 8225SOL    HW125531   2.625   2.831   1.396 -1.1971 -0.9391  1.1076
 8225SOL    HW225532   2.516   2.917   1.334  2.4751  1.6428 -2.2928
 8226SOL     OW25533   6.339   1.924   2.664  0.0953  0.2606  0.0902
 8226SOL    HW125534   6.406   1.961   2.606 -0.7225  0.6159 -0.6516
 8226SOL    HW225535   6.296   1.857   2.612 -0.5913  0.5182  0.3075
 8227SOL     OW25536   1.110   4.848   4.918  0.3233  0.5030 -0.2538
 8227SOL    HW125537   1.149   4.765   4.946 -1.1676 -0.8323 -1.8365
 8227SOL    HW225538   1.055   4.875   4.991  1.8621  0.8534  0.8119
 8228SOL     OW25539   6.420   4.065   7.300  0.5667  0.5492  0.0868
 8228SOL    HW125540   6.460   3.999   7.355 -0.0745  0.6099  0.6489
 8228SOL    HW225541   6.340   4.024   7.267  0.4383  0.8566  0.0057
 8229SOL     OW25542   3.859   6.296   5.117  0.3438  0.4983 -0.2799
 8229SOL    HW125543   3.886   6.307   5.208 -0.5893 -0.0632  0.0758
 8229SOL    HW225544   3.764   6.283   5.121  0.4194 -0.5181 -1.2466
 8230SOL     OW25545   3.650   3.246   3.073 -0.0447 -0.1512 -0.3538
 8230SOL    HW125546   3.586   3.315   3.091  1.0391  0.4459  1.5316
 8230SOL    HW225547   3.729   3.292   3.047  0.1497 -0.8031 -0.9741
 8231SOL     OW25548   0.339   1.308   0.938 -0.1967  0.0805 -0.1341
 8231SOL    HW125549   0.309   1.349   0.856 -0.6456  1.3308  0.6250
 8231SOL    HW225550   0.434   1.301   0.928 -0.3761 -1.1946 -1.3617
 8232SOL     OW25551   3.319   2.905   4.438 -0.0269  0.2630  0.0697
 8232SOL    HW125552   3.287   2.820   4.408 -1.4777  0.8247 -0.0494
 8232SOL    HW225553   3.385   2.930   4.373  0.6355 -0.8894  0.2744
 8233SOL     OW25554   2.469   2.133   2.011 -0.6063  0.1028  0.2598
 8233SOL    HW125555   2.473   2.227   1.997 -1.0349 -0.0309 -0.9230
 8233SOL    HW225556   2.390   2.120   2.064 -0.9937  0.3514 -0.2450
 8234SOL     OW25557   7.813   7.510   7.667 -0.3501 -0.0018 -0.1891
 8234SOL    HW125558   7.721   7.496   7.689 -1.4081  3.1453 -1.8756
 8234SOL    HW225559   7.820   7.483   7.576 -0.2603  1.7361 -0.7461
 8235SOL     OW25560   1.724   4.438   0.195  0.2992  0.2576 -0.2114
 8235SOL    HW125561   1.743   4.359   0.247 -0.6317  0.7866  0.9804
 8235SOL    HW225562   1.741   4.510   0.255  0.7858  0.9704 -1.1836
 8236SOL     OW25563   5.468   5.924   4.361 -0.2958  0.2734 -0.4479
 8236SOL    HW125564   5.499   5.897   4.447  0.1524 -0.0991 -0.7234
 8236SOL    HW225565   5.431   6.011   4.375 -0.1442  0.2503  0.1035
 8237SOL     OW25566   6.291   7.307   1.088  0.0741  0.2927  0.1145
 8237SOL    HW125567   6.299   7.238   1.022 -0.9222 -0.1929  0.4786
 8237SOL    HW225568   6.336   7.272   1.164  0.4237  0.4622 -0.0145
 8238SOL     OW25569   3.461   0.354   5.973  0.1640  0.3033 -0.2381
 8238SOL    HW125570   3.386   0.297   5.953  0.9959 -0.6165 -0.8448
 8238SOL    HW225571   3.448   0.380   6.064 -0.2808 -0.8235  0.0394
 8239SOL     OW25572   0.565   3.035   2.516  0.0061 -0.0291  0.0942
 8239SOL    HW125573   0.571   3.117   2.467 -2.4234 -0.0874 -0.4334
 8239SOL    HW225574   0.651   2.995   2.507  0.0218  0.4568 -3.3166
 8240SOL     OW25575   3.909   6.623   4.198 -0.0747  0.4931  0.2279
 8240SOL    HW125576   3.855   6.560   4.245 -0.6110  0.0327 -0.9600
 8240SOL    HW225577   3.962   6.570   4.139  0.1795  1.0887 -0.0919
 8241SOL     OW25578   5.004   5.362   6.354  0.3017  0.3645 -0.0879
 8241SOL    HW125579   4.925   5.401   6.317  1.1341  1.3017 -0.9345
 8241SOL    HW225580   5.071   5.429   6.343  1.7938 -1.2707 -1.6140
 8242SOL     OW25581   6.989   5.665   1.390 -0.0755 -0.2614 -0.0103
 8242SOL    HW125582   7.050   5.622   1.330 -1.6911  0.3042 -2.1431
 8242SOL    HW225583   6.954   5.593   1.443  1.6949 -0.7055  0.6425
 8243SOL     OW25584   0.541   5.006   3.978 -0.5604 -0.0659 -0.1293
 8243SOL    HW125585   0.448   5.020   3.992 -0.8559 -0.6823 -1.3277
 8243SOL    HW225586   0.581   5.017   4.064 -1.5516  1.5847  0.1624
 8244SOL     OW25587   3.866   5.828   3.256  0.5940  0.1410 -0.3762
 8244SOL    HW125588   3.952   5.785   3.254  0.9999  0.9220 -0.0875
 8244SOL    HW225589   3.807   5.762   3.291  0.5858 -1.2355 -2.7241
 8245SOL     OW25590   7.852   7.961   7.641  0.4154 -0.0960 -0.0214
 8245SOL    HW125591   7.842   7.882   7.588 -0.7921 -0.1532  0.2558
 8245SOL    HW225592   7.938   7.951   7.682 -0.3508 -2.0818  1.2842
 8246SOL     OW25593   1.081   6.195   3.158 -0.5836  0.5099 -0.1496
 8246SOL    HW125594   1.058   6.242   3.239 -2.4965  0.2393 -0.5044
 8246SOL    HW225595   1.031   6.239   3.090  2.2242  1.8113 -1.5633
 8247SOL     OW25596   7.936   0.007   6.243 -0.4775 -0.7162  0.6840
 8247SOL    HW125597   7.932  -0.038   6.328  2.0365 -1.6284  0.4239
 8247SOL    HW225598   7.928  -0.064   6.178  2.2068 -0.7664  0.2639
 8248SOL     OW25599   2.919   7.707   5.239 -0.0236  0.4387 -0.1673
 8248SOL    HW125600   2.924   7.670   5.327 -2.3296 -0.3307 -0.2791
 8248SOL    HW225601   2.995   7.764   5.232  1.7106 -1.5499  1.3250
 8249SOL     OW25602   5.865   6.940   1.162  0.0294 -0.1995  0.0161
 8249SOL    HW125603   5.775   6.920   1.189  0.8349 -1.9704  1.6532
 8249SOL    HW225604   5.879   6.887   1.084 -0.4876  0.4660 -0.5392
 8250SOL     OW25605   0.363   4.213   5.432  0.3272 -0.4703 -0.3369
 8250SOL    HW125606   0.324   4.295   5.462 -0.6882 -0.7996 -0.6994
 8250SOL    HW225607   0.354   4.153   5.506 -2.8578 -1.5099 -1.3706
 8251SOL     OW25608   0.129   6.549   0.738  0.7734  0.1910 -0.2460
 8251SOL    HW125609   0.091   6.630   0.770  2.0603  1.1431 -1.0521
 8251SOL    HW225610   0.054   6.491   0.724  0.0556  0.0203  3.4225
 8252SOL     OW25611   1.275   7.932   6.419 -0.4222 -0.3652 -0.2470
 8252SOL    HW125612   1.261   7.839   6.403  0.7008 -0.6793  0.5224
 8252SOL    HW225613   1.249   7.975   6.337 -2.5060 -1.1772 -0.0919
 8253SOL     OW25614   3.570   2.104   3.834 -0.0697 -0.3649 -0.4460
 8253SOL    HW125615   3.510   2.114   3.908  0.3303 -0.4637 -0.1015
 8253SOL    HW225616   3.555   2.181   3.779  1.1599  0.8428  0.8485
 8254SOL     OW25617   5.841   2.024   3.480  0.1841 -0.7625 -0.3712
 8254SOL    HW125618   5.850   2.116   3.507 -0.1230 -1.1331  1.0604
 8254SOL    HW225619   5.747   2.009   3.477  0.2350 -1.3875  0.7179
 8255SOL     OW25620   1.893   0.399   6.649  0.1038  0.5049  0.1652
 8255SOL    HW125621   1.874   0.312   6.684 -1.9874  0.2660 -1.3554
 8255SOL    HW225622   1.968   0.386   6.591  2.0830  0.4732  2.5501
 8256SOL     OW25623   2.632   6.145   0.221  0.7370  0.1402 -0.2475
 8256SOL    HW125624   2.557   6.088   0.241 -0.0731  0.3810 -2.3106
 8256SOL    HW225625   2.596   6.234   0.227  1.7398  0.4663  1.9507
 8257SOL     OW25626   5.501   2.263   0.591 -0.6996  0.1686  0.4025
 8257SOL    HW125627   5.467   2.302   0.672  0.7682  0.9419  0.6686
 8257SOL    HW225628   5.477   2.325   0.523  0.2517  0.7834  0.6094
 8258SOL     OW25629   1.511   5.046   7.121 -0.1263  0.6009  0.6443
 8258SOL    HW125630   1.567   4.991   7.065  1.1011  1.2663  1.1928
 8258SOL    HW225631   1.507   5.130   7.076 -1.0680  0.4279  0.3873
 8259SOL     OW25632   2.322   4.182   7.720 -0.1934  0.0325  0.3283
 8259SOL    HW125633   2.339   4.220   7.806 -0.6859 -1.0297  0.9152
 8259SOL    HW225634   2.387   4.112   7.710 -0.2422  0.0419 -0.0939
 8260SOL     OW25635   7.803   6.092   4.919  0.6974 -0.0514  0.7944
 8260SOL    HW125636   7.855   6.169   4.897 -1.0755  1.2986  1.1425
 8260SOL    HW225637   7.714   6.114   4.893 -0.1400 -1.3694  2.3333
 8261SOL     OW25638   7.109   5.258   5.308  0.2565 -0.0754  0.6396
 8261SOL    HW125639   7.203   5.241   5.302 -0.1682 -2.6816  0.3471
 8261SOL    HW225640   7.099   5.346   5.272  2.1974 -1.0201 -2.6579
 8262SOL     OW25641   2.795   5.774   5.636  0.1908 -0.0378  0.0524
 8262SOL    HW125642   2.819   5.683   5.617 -0.9855 -0.3814  0.1136
 8262SOL    HW225643   2.821   5.787   5.727  0.8012 -0.1484 -0.0991
 8263SOL     OW25644   4.671   0.521   0.731 -0.1396  0.0657  0.4181
 8263SOL    HW125645   4.596   0.574   0.757 -0.8294 -0.1755 -1.0038
 8263SOL    HW225646   4.633   0.440   0.698  0.7340 -0.0730 -0.2967
 8264SOL     OW25647   3.195   1.533   4.349 -0.0654 -0.2531 -0.2464
 8264SOL    HW125648   3.176   1.479   4.272 -2.9593  0.6704 -0.2774
 8264SOL    HW225649   3.162   1.482   4.423 -1.5194  0.7958 -0.1343
 8265SOL     OW25650   1.653   6.389   6.589 -0.3432 -0.2567  0.0359
 8265SOL    HW125651   1.580   6.404   6.649 -0.8689 -0.3517 -0.5798
 8265SOL    HW225652   1.701   6.315   6.627 -1.1101 -0.8121 -0.0675
 8266SOL     OW25653   1.398   2.682   2.237 -0.1632 -0.0591 -0.7360
 8266SOL    HW125654   1.446   2.729   2.306 -1.0106 -1.5756  0.9678
 8266SOL    HW225655   1.466   2.633   2.190  0.2025 -0.9758  0.6756
 8267SOL     OW25656   0.240   5.869   3.212 -0.3818 -0.1705  0.1653
 8267SOL    HW125657   0.272   5.907   3.294  1.9573 -0.8334 -0.3609
 8267SOL    HW225658   0.279   5.923   3.143  0.4707 -1.5915 -0.5234
 8268SOL     OW25659   0.537   6.094   5.527 -0.0739 -0.1092  0.1988
 8268SOL    HW125660   0.546   6.188   5.510  0.5651  0.0258  1.1885
 8268SOL    HW225661   0.618   6.056   5.493  0.1107 -0.1579  0.6789
 8269SOL     OW25662   2.866   7.317   1.651  0.2066  0.2782 -0.1072
 8269SOL    HW125663   2.803   7.246   1.635  0.1969  0.4003 -0.6371
 8269SOL    HW225664   2.825   7.394   1.612  2.0487 -0.2253 -3.3404
 8270SOL     OW25665   4.307   3.321   1.100  0.0146 -0.6381  0.0950
 8270SOL    HW125666   4.338   3.293   1.014  0.4067  0.6357 -0.2151
 8270SOL    HW225667   4.387   3.334   1.151  0.1002  2.3032 -0.5906
 8271SOL     OW25668   0.589   5.796   7.866  0.7023  0.0801 -0.1541
 8271SOL    HW125669   0.666   5.853   7.869  1.1766 -0.4619 -1.3074
 8271SOL    HW225670   0.624   5.709   7.887  0.5625 -0.3066 -1.4683
 8272SOL     OW25671   1.371   5.428   2.035 -0.3611  0.5087  0.0523
 8272SOL    HW125672   1.331   5.431   2.122 -1.9169  2.4494 -0.6554
 8272SOL    HW225673   1.315   5.368   1.985  0.2816 -0.2702  0.2453
 8273SOL     OW25674   5.322   0.642   4.423  0.4877  0.4987  0.0001
 8273SOL    HW125675   5.231   0.612   4.429  0.0479  1.5974 -0.9870
 8273SOL    HW225676   5.350   0.617   4.335  1.4057 -0.4723  0.5376
 8274SOL     OW25677   0.008   3.627   1.138 -0.2255  0.0008  0.2422
 8274SOL    HW125678   0.049   3.550   1.177 -0.9648 -0.6060 -0.1521
 8274SOL    HW225679  -0.000   3.689   1.211 -0.3852 -0.6088  0.7545
 8275SOL     OW25680   0.417   6.414   1.727  0.3419  0.0384 -0.4236
 8275SOL    HW125681   0.499   6.401   1.775  1.1063 -1.5664 -2.0244
 8275SOL    HW225682   0.427   6.360   1.649 -1.6394  1.0140 -1.4239
 8276SOL     OW25683   7.153   2.665   4.022  0.2745  0.1601  0.5965
 8276SOL    HW125684   7.107   2.710   4.092  2.6526  1.3000  1.5552
 8276SOL    HW225685   7.107   2.581   4.012 -2.1699  1.3522  1.1332
 8277SOL     OW25686   6.207   1.616   4.874 -0.3802 -0.6679  0.1670
 8277SOL    HW125687   6.245   1.588   4.791  2.1065 -1.0804  1.3478
 8277SOL    HW225688   6.154   1.693   4.851  1.1681 -0.0635 -1.6597
 8278SOL     OW25689   2.308   4.355   1.745  0.2584 -0.1570 -0.0696
 8278SOL    HW125690   2.243   4.359   1.676  0.5142  0.3414 -0.2894
 8278SOL    HW225691   2.335   4.446   1.758  0.1284 -0.2257  0.7650
 8279SOL     OW25692   5.470   3.344   3.940 -0.1197 -0.1034 -0.2883
 8279SOL    HW125693   5.441   3.410   4.002  0.0115  0.2333 -0.5796
 8279SOL    HW225694   5.457   3.385   3.854 -1.7623 -1.1174 -0.5824
 8280SOL     OW25695   0.048   6.139   1.901  0.3472 -0.0194 -0.2446
 8280SOL    HW125696  -0.034   6.177   1.869  0.3660 -0.2130 -0.5268
 8280SOL    HW225697   0.111   6.152   1.830 -0.0514 -1.9717 -1.0344
 8281SOL     OW25698   0.410   3.932   6.684  0.3117  0.5750  0.3763
 8281SOL    HW125699   0.391   3.989   6.610 -0.1562  2.0864  1.6119
 8281SOL    HW225700   0.378   3.846   6.656  1.4607  0.7541 -1.7016
 8282SOL     OW25701   7.843   7.543   0.097 -0.2341  0.4134  0.1681
 8282SOL    HW125702   7.839   7.629   0.057  0.7421 -0.1558 -1.2221
 8282SOL    HW225703   7.770   7.542   0.160 -0.2434  2.2253  0.2122
 8283SOL     OW25704   4.287   2.000   7.677 -0.2092  0.2030 -0.1843
 8283SOL    HW125705   4.239   2.021   7.757  0.9285 -0.7764  0.7838
 8283SOL    HW225706   4.239   1.926   7.639 -1.2516  1.2044 -0.9112
 8284SOL     OW25707   2.280   1.144   6.063 -0.9860  0.0594  0.2321
 8284SOL    HW125708   2.338   1.112   6.131 -0.9313 -1.6199 -0.5479
 8284SOL    HW225709   2.250   1.229   6.095  1.1488  0.5644  1.0767
 8285SOL     OW25710   2.692   6.355   4.383 -0.6223  0.0112  0.1786
 8285SOL    HW125711   2.726   6.273   4.420 -1.5518  0.0664  1.2140
 8285SOL    HW225712   2.611   6.329   4.338  0.5645 -0.0795 -2.0477
 8286SOL     OW25713   3.807   0.944   0.431  0.1319  0.2110 -0.3645
 8286SOL    HW125714   3.759   0.865   0.405  0.5948 -0.3434  0.4103
 8286SOL    HW225715   3.757   0.980   0.504  0.3883  0.1411 -0.1512
 8287SOL     OW25716   0.749   0.143   4.214 -0.1219 -0.1565  0.1580
 8287SOL    HW125717   0.805   0.106   4.283 -0.7955 -3.7273 -0.9599
 8287SOL    HW225718   0.665   0.099   4.225 -1.3663  1.8485 -0.8371
 8288SOL     OW25719   7.999   7.073   3.373 -0.9014  0.1072  0.0243
 8288SOL    HW125720   8.004   7.053   3.279 -0.7648 -0.3582  0.1280
 8288SOL    HW225721   7.920   7.027   3.402 -1.3261  0.8108  0.0036
 8289SOL     OW25722   4.686   5.211   4.690 -0.0196  0.3076 -0.1359
 8289SOL    HW125723   4.734   5.272   4.632  0.7554 -0.4120 -0.2753
 8289SOL    HW225724   4.596   5.242   4.688 -0.2571 -0.3551 -2.6431
 8290SOL     OW25725   3.076   2.387   3.117  0.5567  0.0961  0.2044
 8290SOL    HW125726   3.123   2.441   3.181  1.0073  1.1215 -0.9519
 8290SOL    HW225727   2.986   2.422   3.118  1.0150  1.3734 -1.0445
 8291SOL     OW25728   3.032   3.498   3.043 -0.2299 -0.4633 -0.1253
 8291SOL    HW125729   2.975   3.486   3.119 -0.2497  0.3431  0.0049
 8291SOL    HW225730   3.118   3.468   3.071 -0.2826 -0.3546  0.1539
 8292SOL     OW25731   1.221   0.125   5.130 -0.6358 -0.4356  0.2877
 8292SOL    HW125732   1.146   0.082   5.089 -1.3326  1.9979 -1.2107
 8292SOL    HW225733   1.213   0.104   5.223 -3.2500 -0.1840  0.1958
 8293SOL     OW25734   0.566   6.918   3.108 -0.2341 -0.2526  0.1106
 8293SOL    HW125735   0.649   6.881   3.136 -0.7444  0.4236  2.8028
 8293SOL    HW225736   0.524   6.946   3.189 -1.3598  3.0628 -1.4345
 8294SOL     OW25737   6.068   5.479   6.628 -0.0567  0.2704 -0.1196
 8294SOL    HW125738   6.085   5.400   6.576 -1.1440 -0.4480  0.5906
 8294SOL    HW225739   6.079   5.451   6.719  0.7124  1.2395  0.1019
 8295SOL     OW25740   4.365   0.340   7.520  0.5288 -0.0400 -0.5261
 8295SOL    HW125741   4.407   0.261   7.555 -0.3518 -0.0883  0.4697
 8295SOL    HW225742   4.436   0.387   7.475  0.6706 -2.4281 -3.1197
 8296SOL     OW25743   2.228   1.892   2.663 -0.7201 -0.2866 -0.0787
 8296SOL    HW125744   2.169   1.858   2.596 -0.7765 -1.9971  0.7830
 8296SOL    HW225745   2.298   1.827   2.668  1.1927  1.5840 -0.9290
 8297SOL     OW25746   5.543   5.791   7.030  0.2693 -0.1580  0.8849
 8297SOL    HW125747   5.505   5.852   7.093 -1.5089  0.4924 -0.7082
 8297SOL    HW225748   5.475   5.724   7.017  2.0821 -2.5009  2.4361
 8298SOL     OW25749   5.128   2.322   2.748 -0.5399  0.0802 -0.4147
 8298SOL    HW125750   5.043   2.311   2.791  0.4669 -1.5925  1.2626
 8298SOL    HW225751   5.167   2.235   2.749  0.6589  0.5457 -2.3884
 8299SOL     OW25752   3.642   7.170   4.008  0.4049  0.1573 -0.1142
 8299SOL    HW125753   3.721   7.172   4.062  0.2833  0.7432  0.0439
 8299SOL    HW225754   3.649   7.087   3.960 -0.0164 -0.9161  1.5769
 8300SOL     OW25755   5.657   3.310   2.459  0.3653 -0.0849  0.3628
 8300SOL    HW125756   5.565   3.292   2.478  0.6561  0.4845  2.5440
 8300SOL    HW225757   5.690   3.353   2.538  2.2194  0.7840 -0.8198
 8301SOL     OW25758   2.617   3.406   4.768  0.2510 -0.1283  0.3482
 8301SOL    HW125759   2.602   3.410   4.673 -1.5589 -1.8961  0.4887
 8301SOL    HW225760   2.710   3.422   4.779  1.0206 -2.4197 -1.9760
 8302SOL     OW25761   2.973   3.978   1.299  0.0909 -0.0246 -0.2425
 8302SOL    HW125762   2.903   3.991   1.363  0.0002 -2.0469  0.1305
 8302SOL    HW225763   2.934   3.924   1.231  0.7428  0.5094 -1.0637
 8303SOL     OW25764   2.054   7.940   2.682 -0.1829 -0.1390 -0.0767
 8303SOL    HW125765   2.143   7.970   2.662  0.2703 -0.8031  0.8711
 8303SOL    HW225766   2.067   7.863   2.738 -1.3250 -1.2719 -1.2984
 8304SOL     OW25767   7.858   7.390   2.254  0.1662  0.3364 -0.1332
 8304SOL    HW125768   7.812   7.348   2.326 -2.9004  1.2057 -1.4100
 8304SOL    HW225769   7.870   7.481   2.282 -0.0603  0.4130 -0.2787
 8305SOL     OW25770   4.360   5.421   1.650  0.1502  0.6174  0.1804
 8305SOL    HW125771   4.354   5.365   1.573  2.7521  0.4340  0.0368
 8305SOL    HW225772   4.423   5.378   1.707 -1.9810  0.5221  2.6930
 8306SOL     OW25773   7.258   0.151   3.011  0.5607  0.0136  0.1337
 8306SOL    HW125774   7.349   0.139   3.036  0.3682 -1.1823  0.2955
 8306SOL    HW225775   7.210   0.082   3.057 -0.6265  1.3675  1.0659
 8307SOL     OW25776   2.510   6.327   6.541  0.0956 -0.0560 -0.1282
 8307SOL    HW125777   2.426   6.348   6.580 -0.1332 -0.0995 -0.5933
 8307SOL    HW225778   2.573   6.337   6.613 -0.3947 -0.7668  0.4078
 8308SOL     OW25779   2.967   2.318   3.816 -0.1339  0.3630  0.3881
 8308SOL    HW125780   2.962   2.231   3.776  1.0673  0.2093  0.5592
 8308SOL    HW225781   2.959   2.378   3.743 -1.8122  0.1583  0.3422
 8309SOL     OW25782   3.379   2.911   0.279  0.0853 -0.0167  0.7016
 8309SOL    HW125783   3.379   2.881   0.189  0.1197  1.6552  0.1009
 8309SOL    HW225784   3.305   2.867   0.320 -0.5802  0.0051 -0.4428
 8310SOL     OW25785   4.905   2.757   7.166  0.3599 -0.2353  0.0980
 8310SOL    HW125786   4.922   2.777   7.259  1.6905  0.5338 -0.2802
 8310SOL    HW225787   4.818   2.793   7.150  0.2328 -0.1098  0.9787
 8311SOL     OW25788   6.026   3.816   2.911 -0.0094 -0.0805  0.1856
 8311SOL    HW125789   6.121   3.825   2.901 -0.1989  0.3992 -1.5006
 8311SOL    HW225790   6.002   3.887   2.970  0.2501  2.4240 -2.4776
 8312SOL     OW25791   0.692   1.956   1.779 -0.4939  0.3648  0.2547
 8312SOL    HW125792   0.624   1.931   1.717 -1.2109  0.2929  1.0473
 8312SOL    HW225793   0.710   2.048   1.760 -0.2861  0.1839 -0.4356
 8313SOL     OW25794   6.935   2.938   4.400 -0.3967 -0.0008 -0.0950
 8313SOL    HW125795   6.917   2.947   4.494  1.2191 -0.1022  0.2411
 8313SOL    HW225796   6.983   3.017   4.376  0.3856 -0.5867 -0.5268
 8314SOL     OW25797   3.007   0.780   3.067  0.1400 -0.0638  0.7149
 8314SOL    HW125798   3.020   0.871   3.092 -1.3254  0.2742  0.3641
 8314SOL    HW225799   3.006   0.782   2.971 -2.0602 -0.0417  0.6733
 8315SOL     OW25800   3.411   0.802   3.139  0.1347  0.0553  0.1180
 8315SOL    HW125801   3.417   0.786   3.045 -0.8752 -0.3393  0.1009
 8315SOL    HW225802   3.501   0.796   3.171  0.3752 -0.7602 -0.6760
 8316SOL     OW25803   3.116   2.616   6.377 -0.6278  0.7384 -0.1351
 8316SOL    HW125804   3.095   2.564   6.299  0.3408  2.9248 -1.9637
 8316SOL    HW225805   3.038   2.671   6.391 -0.0780  1.6851 -0.7382
 8317SOL     OW25806   6.306   1.273   2.763  0.6630  0.0727  0.0027
 8317SOL    HW125807   6.374   1.236   2.820 -0.5300  0.2225  1.6037
 8317SOL    HW225808   6.324   1.367   2.763  0.1977  0.1812  0.8613
 8318SOL     OW25809   5.100   6.747   3.167 -0.2447  0.2997 -0.0820
 8318SOL    HW125810   5.044   6.681   3.209  0.4594 -0.1796  0.1240
 8318SOL    HW225811   5.039   6.816   3.140 -0.8627  0.0664  0.6660
 8319SOL     OW25812   6.151   6.353   1.486  0.2775 -0.0805  0.6436
 8319SOL    HW125813   6.170   6.434   1.534 -0.2005  0.7195 -0.4831
 8319SOL    HW225814   6.161   6.377   1.394  1.3505 -1.6281  0.3132
 8320SOL     OW25815   5.558   7.265   0.013  0.0735  0.4359 -0.2479
 8320SOL    HW125816   5.582   7.331  -0.053  0.4049  1.0323  0.4440
 8320SOL    HW225817   5.593   7.301   0.095 -0.4792 -0.2112  0.2769
 8321SOL     OW25818   4.275   7.183   0.821 -0.2860 -0.1666  0.0995
 8321SOL    HW125819   4.185   7.153   0.834 -0.2681  0.6237  2.5713
 8321SOL    HW225820   4.267   7.272   0.788 -0.3438 -0.9712 -2.2237
 8322SOL     OW25821   3.886   4.796   2.746 -0.3428 -0.0691 -0.0155
 8322SOL    HW125822   3.982   4.802   2.744 -0.1759 -0.8126  2.2333
 8322SOL    HW225823   3.867   4.707   2.716 -0.0855 -0.7780  1.7424
 8323SOL     OW25824   7.811   4.874   7.281 -0.2590  0.5778 -0.4644
 8323SOL    HW125825   7.717   4.860   7.265 -0.4883  2.2539 -0.6795
 8323SOL    HW225826   7.830   4.960   7.243  1.7370 -0.4047 -1.9060
 8324SOL     OW25827   0.886   7.615   6.896 -0.5771 -0.4633 -0.1379
 8324SOL    HW125828   0.822   7.596   6.827 -1.8944 -0.2207  0.9646
 8324SOL    HW225829   0.833   7.634   6.973  0.8170  0.9101  0.5401
 8325SOL     OW25830   6.300   7.719   7.441 -0.1241 -0.5489  0.5946
 8325SOL    HW125831   6.395   7.712   7.431 -0.3877 -2.5397 -1.1552
 8325SOL    HW225832   6.272   7.774   7.368 -0.5742 -2.6838 -0.9336
 8326SOL     OW25833   5.024   5.557   5.142 -0.2172  0.0182  0.2184
 8326SOL    HW125834   5.089   5.627   5.143  1.0937 -1.1311 -0.6434
 8326SOL    HW225835   5.029   5.519   5.230  0.2258 -0.0082  0.1840
 8327SOL     OW25836   0.792   7.085   7.007  0.0107  0.4725 -0.1433
 8327SOL    HW125837   0.753   7.087   6.920  1.5318  2.0698 -0.8408
 8327SOL    HW225838   0.741   7.019   7.055 -0.1449 -1.2667 -2.5473
 8328SOL     OW25839   2.555   0.725   7.837  0.3425  0.4536  0.6838
 8328SOL    HW125840   2.604   0.644   7.853 -0.2378  0.1262  0.8189
 8328SOL    HW225841   2.464   0.698   7.836  0.0011  1.3488  2.4109
 8329SOL     OW25842   0.047   0.460   0.050  0.4091  0.0140  0.2512
 8329SOL    HW125843   0.029   0.371   0.081  1.3321  0.1811  1.3201
 8329SOL    HW225844   0.117   0.449  -0.015  0.9110  0.0146  0.7906
 8330SOL     OW25845   2.702   3.890   7.358  0.7379  0.0994  0.0936
 8330SOL    HW125846   2.652   3.816   7.323 -1.2906  1.8322 -0.9111
 8330SOL    HW225847   2.780   3.850   7.396 -0.8472 -2.6665  0.7339
 8331SOL     OW25848   7.853   2.248   5.682 -0.9684  0.3320  0.0648
 8331SOL    HW125849   7.759   2.237   5.665 -1.5176  1.4176  2.0707
 8331SOL    HW225850   7.887   2.159   5.688 -2.3891 -0.1557  1.6974
 8332SOL     OW25851   1.260   6.983   7.007  0.0433  0.1768 -0.6889
 8332SOL    HW125852   1.180   7.033   7.025 -0.2852 -0.4325 -0.3928
 8332SOL    HW225853   1.331   7.047   7.013 -0.5169  1.0236 -2.2698
 8333SOL     OW25854   2.618   6.656   7.801 -0.1574  0.1987  0.1519
 8333SOL    HW125855   2.569   6.691   7.875  0.8414 -0.0233  0.9413
 8333SOL    HW225856   2.559   6.592   7.761 -1.0917  1.0543  0.1227
 8334SOL     OW25857   3.900   5.282   1.829 -0.3745  0.6815  0.0633
 8334SOL    HW125858   3.954   5.289   1.750 -0.0722  1.5880  0.3355
 8334SOL    HW225859   3.814   5.312   1.801  0.0609  2.3315  0.3760
 8335SOL     OW25860   1.324   0.014   0.182  0.6995 -0.3592 -0.3448
 8335SOL    HW125861   1.381   0.090   0.167 -1.3374  1.6680  1.4520
 8335SOL    HW225862   1.299  -0.015   0.095 -0.1030  2.4074 -1.1461
 8336SOL     OW25863   2.476   5.585   6.983 -0.2307  0.4818 -1.2879
 8336SOL    HW125864   2.391   5.544   6.968  0.7590 -1.5792 -1.6427
 8336SOL    HW225865   2.501   5.619   6.897  0.3077 -1.0198 -1.7605
 8337SOL     OW25866   5.509   5.661   4.260 -0.8909 -0.0466 -0.0867
 8337SOL    HW125867   5.544   5.677   4.172  2.3025 -0.5184  0.9711
 8337SOL    HW225868   5.463   5.743   4.283  0.6356  1.1692 -1.1596
 8338SOL     OW25869   2.648   5.628   6.017  0.4410  0.9602  0.3903
 8338SOL    HW125870   2.742   5.649   6.015  0.7907 -0.5490 -0.2649
 8338SOL    HW225871   2.609   5.692   5.958  1.3352  0.4916 -0.7683
 8339SOL     OW25872   3.882   6.394   2.936 -0.0538  0.3639 -0.0670
 8339SOL    HW125873   3.824   6.320   2.921  1.7430 -1.0459 -0.3358
 8339SOL    HW225874   3.936   6.399   2.858  0.6754  1.1836  0.4690
 8340SOL     OW25875   6.070   1.875   0.395  0.1952 -0.0581  0.4572
 8340SOL    HW125876   6.037   1.791   0.427  0.5664 -0.1687  0.5530
 8340SOL    HW225877   5.997   1.936   0.409  0.0729 -0.2738  0.7829
 8341SOL     OW25878   3.355   1.528   3.624 -0.0218 -0.1718  0.3551
 8341SOL    HW125879   3.401   1.527   3.540  2.6037 -3.4290  1.5832
 8341SOL    HW225880   3.415   1.574   3.684  0.3825 -1.8968  1.3495
 8342SOL     OW25881   3.925   0.141   3.356  0.2570  0.2734  0.7518
 8342SOL    HW125882   3.975   0.148   3.275  0.8161  0.9434  1.1453
 8342SOL    HW225883   3.988   0.109   3.420 -0.5955 -2.0498  0.5568
 8343SOL     OW25884   0.055   0.663   6.795  0.0969  0.4531 -0.0814
 8343SOL    HW125885   0.069   0.746   6.841  1.8089 -0.6323  1.4787
 8343SOL    HW225886   0.140   0.642   6.756 -0.0981 -0.8982  0.1664
 8344SOL     OW25887   5.209   0.158   0.098  0.3641  0.6592 -0.6181
 8344SOL    HW125888   5.158   0.231   0.065  1.6829  2.2276  0.6498
 8344SOL    HW225889   5.146   0.105   0.147 -0.5690  1.0266 -1.3940
 8345SOL     OW25890   3.695   7.428   1.179 -0.1051  0.1601  0.3022
 8345SOL    HW125891   3.632   7.492   1.146  0.3038 -0.2446 -1.3375
 8345SOL    HW225892   3.643   7.350   1.197 -0.2878  0.2759  0.2802
 8346SOL     OW25893   0.806   2.416   2.005  0.2084  0.2161 -0.0031
 8346SOL    HW125894   0.851   2.498   2.027 -0.1002 -0.0947  1.9158
 8346SOL    HW225895   0.749   2.399   2.080 -2.5845  0.1883 -1.9907
 8347SOL     OW25896   0.780   5.575   7.887 -0.6776  0.5742  0.6596
 8347SOL    HW125897   0.796   5.537   7.800  0.0739  1.0868  0.5643
 8347SOL    HW225898   0.847   5.536   7.943 -0.0180  1.5824  0.6033
 8348SOL     OW25899   0.695   4.113   7.311  0.1485  0.0069 -0.2180
 8348SOL    HW125900   0.774   4.106   7.365  0.4940  1.3855 -0.4832
 8348SOL    HW225901   0.722   4.080   7.225 -0.5210 -2.5892  0.4875
 8349SOL     OW25902   7.463   0.719   2.770  0.0920  0.8551  0.0559
 8349SOL    HW125903   7.557   0.700   2.770 -0.1588 -0.4442 -0.0765
 8349SOL    HW225904   7.421   0.634   2.780 -1.1230  1.2424 -1.3819
 8350SOL     OW25905   4.551   1.394   5.517 -0.3862  0.8729 -0.0098
 8350SOL    HW125906   4.554   1.489   5.525  2.3671  1.1341 -2.4695
 8350SOL    HW225907   4.551   1.378   5.422  1.9039 -1.5283  0.2764
 8351SOL     OW25908   5.466   1.469   3.176  0.0258  0.3133  0.0262
 8351SOL    HW125909   5.441   1.541   3.234 -1.6426 -0.1265 -0.1009
 8351SOL    HW225910   5.450   1.390   3.226 -0.7421 -0.0461 -0.7440
 8352SOL     OW25911   0.596   7.401   2.086  0.7705 -0.4998  0.5677
 8352SOL    HW125912   0.518   7.346   2.084 -0.5628  1.2541  1.4818
 8352SOL    HW225913   0.577   7.468   2.152  1.1738  2.6206 -2.2113
 8353SOL     OW25914   4.621   7.365   2.788  0.1615  0.2672 -0.0824
 8353SOL    HW125915   4.699   7.357   2.734  2.1014  2.1600  2.2168
 8353SOL    HW225916   4.585   7.451   2.765  0.3978  0.6227  0.8303
 8354SOL     OW25917   0.542   0.515   2.670 -0.0622 -0.6388 -0.3328
 8354SOL    HW125918   0.494   0.477   2.596  0.0211  1.6382 -1.6571
 8354SOL    HW225919   0.574   0.599   2.637  2.3321 -0.7512  1.4509
 8355SOL     OW25920   7.407   4.168   5.611 -0.4482  0.4976  0.4282
 8355SOL    HW125921   7.482   4.112   5.594 -0.0403  0.8903  0.9072
 8355SOL    HW225922   7.390   4.213   5.528 -0.6594 -0.1898  0.0967
 8356SOL     OW25923   4.522   7.243   7.364 -0.5957  0.2313  0.4315
 8356SOL    HW125924   4.604   7.233   7.316 -0.3439  0.4578  0.8098
 8356SOL    HW225925   4.484   7.155   7.366 -0.2354  0.0755  0.4814
 8357SOL     OW25926   5.295   7.148   5.435  0.0571  0.0299 -0.1867
 8357SOL    HW125927   5.319   7.119   5.347 -1.5118  0.6666 -0.8756
 8357SOL    HW225928   5.204   7.119   5.445 -1.3701  3.7695 -0.6022
 8358SOL     OW25929   0.671   0.551   7.427  0.0493 -0.0822  0.5154
 8358SOL    HW125930   0.606   0.576   7.492  0.0157  2.1008 -0.2796
 8358SOL    HW225931   0.629   0.481   7.377 -1.4687  0.8574  0.4051
 8359SOL     OW25932   5.602   2.938   0.116  0.0302  0.1165  0.4070
 8359SOL    HW125933   5.682   2.893   0.090 -1.1068 -1.2576 -0.8520
 8359SOL    HW225934   5.538   2.914   0.050 -1.2649  1.7338  1.0056
 8360SOL     OW25935   2.483   0.927   0.694  0.4925 -0.3954  0.1599
 8360SOL    HW125936   2.465   0.994   0.760 -0.6747  0.3659 -0.8891
 8360SOL    HW225937   2.403   0.875   0.690  0.1989  0.1364 -1.2839
 8361SOL     OW25938   2.841   2.308   4.070  0.2668 -0.0001 -0.1295
 8361SOL    HW125939   2.893   2.299   3.990  0.0075 -0.8952 -0.2160
 8361SOL    HW225940   2.819   2.218   4.094 -0.8192  0.3348  0.1882
 8362SOL     OW25941   3.421   3.087   7.952 -0.0946  0.0654 -0.3756
 8362SOL    HW125942   3.494   3.139   7.916 -0.8931 -0.0919 -2.3604
 8362SOL    HW225943   3.442   2.997   7.928  0.4674 -0.3869  1.6308
 8363SOL     OW25944   4.120   6.342   4.192  0.1685 -0.5915  0.0485
 8363SOL    HW125945   4.060   6.324   4.265 -1.5715  0.8302 -0.9707
 8363SOL    HW225946   4.068   6.325   4.114  0.0915  3.2832 -0.9178
 8364SOL     OW25947   7.404   5.005   0.668 -0.6952 -0.6837 -0.5211
 8364SOL    HW125948   7.423   5.078   0.610 -0.1848  0.8475  1.4677
 8364SOL    HW225949   7.489   4.964   0.684 -0.7803 -0.8795 -0.5617
 8365SOL     OW25950   6.996   6.629   1.514  0.1030  0.0819 -0.1782
 8365SOL    HW125951   7.083   6.590   1.521  0.4523  0.9829  0.9182
 8365SOL    HW225952   6.964   6.603   1.427  0.6457 -1.8728  0.1616
 8366SOL     OW25953   2.921   3.310   1.184  0.1591  0.3947 -0.5997
 8366SOL    HW125954   2.978   3.318   1.261  1.5784 -2.7652 -1.1936
 8366SOL    HW225955   2.837   3.279   1.219  0.8840 -1.3027 -0.3061
 8367SOL     OW25956   4.504   3.259   2.466 -0.2347 -0.2569  0.4332
 8367SOL    HW125957   4.589   3.291   2.495 -1.1532  0.1197  2.9543
 8367SOL    HW225958   4.523   3.178   2.419  1.6095  0.6912 -0.5993
 8368SOL     OW25959   2.623   7.666   0.623  0.5012  0.2985  0.1029
 8368SOL    HW125960   2.708   7.671   0.579  1.1206  1.7047  1.3633
 8368SOL    HW225961   2.598   7.757   0.636 -0.0078 -0.0629  1.9445
 8369SOL     OW25962   4.975   1.258   1.289 -0.3107  0.2255 -0.2896
 8369SOL    HW125963   4.956   1.196   1.218  1.2855  0.6373 -1.1377
 8369SOL    HW225964   4.980   1.343   1.245 -1.3765  0.8017  0.6781
 8370SOL     OW25965   2.934   5.667   6.214  0.5344  0.1755 -0.3510
 8370SOL    HW125966   2.915   5.573   6.206  0.4102  0.0890  0.7364
 8370SOL    HW225967   3.021   5.670   6.254  0.4184  0.5137 -0.1201
 8371SOL     OW25968   2.282   7.309   3.831  0.3869 -0.2037  0.5529
 8371SOL    HW125969   2.314   7.307   3.741 -0.5818 -1.0249  0.2128
 8371SOL    HW225970   2.243   7.222   3.845 -0.7995  0.4147  1.2774
 8372SOL     OW25971   7.586   1.771   0.514  0.7638  0.5420  0.3723
 8372SOL    HW125972   7.659   1.833   0.520  1.8831 -0.6929 -0.1941
 8372SOL    HW225973   7.614   1.706   0.450 -1.4315  0.8203 -0.9924
 8373SOL     OW25974   2.338   7.251   4.725  0.0006 -0.1683  0.6509
 8373SOL    HW125975   2.353   7.240   4.631 -1.2122  0.0731  0.4192
 8373SOL    HW225976   2.394   7.184   4.766 -0.2378 -0.9674 -0.2942
 8374SOL     OW25977   2.313   2.048   7.483  0.5462 -0.1518  0.1582
 8374SOL    HW125978   2.339   1.962   7.517 -0.7865 -0.6564 -0.0303
 8374SOL    HW225979   2.220   2.038   7.463  0.3727  1.3394  0.1249
 8375SOL     OW25980   3.410   7.966   0.754  0.4540 -0.1615 -0.1447
 8375SOL    HW125981   3.411   7.936   0.663  3.7350  0.6942 -0.5249
 8375SOL    HW225982   3.430   8.059   0.749  2.9245 -0.5025  1.4466
 8376SOL     OW25983   2.699   4.591   7.368 -0.3457 -0.3738 -0.0954
 8376SOL    HW125984   2.620   4.538   7.365 -0.0033 -1.0029  1.1900
 8376SOL    HW225985   2.732   4.580   7.457  1.2327 -0.2008 -0.6151
 8377SOL     OW25986   0.765   4.015   0.119 -0.0053  0.0431  0.0910
 8377SOL    HW125987   0.767   4.019   0.023 -0.1549 -0.0505  0.0838
 8377SOL    HW225988   0.740   3.925   0.138  0.0807  0.0462  0.2195
 8378SOL     OW25989   3.240   1.583   6.947  0.3825  0.2201  0.1161
 8378SOL    HW125990   3.319   1.622   6.985 -0.0768  0.5832  0.7106
 8378SOL    HW225991   3.169   1.638   6.979 -0.4317 -1.8161  2.0487
 8379SOL     OW25992   7.906   5.646   2.833 -0.4605  0.3371 -0.0221
 8379SOL    HW125993   7.912   5.555   2.803 -0.1588  0.3847 -0.1082
 8379SOL    HW225994   7.950   5.646   2.918  0.1256  0.5331 -0.3163
 8380SOL     OW25995   0.876   4.596   3.423  0.1042 -0.0486 -0.1276
 8380SOL    HW125996   0.801   4.583   3.481 -1.0392  2.2529 -0.9852
 8380SOL    HW225997   0.885   4.512   3.378  0.1771 -1.4470  2.2957
 8381SOL     OW25998   3.087   6.465   4.869 -0.1152 -0.9510  0.1896
 8381SOL    HW125999   3.139   6.409   4.926  2.1619 -0.2159 -1.0466
 8381SOL    HW226000   3.097   6.428   4.781  0.8604  0.9117 -0.5409
 8382SOL     OW26001   7.721   2.140   6.259  0.5945 -0.8216  0.2417
 8382SOL    HW126002   7.733   2.183   6.344  0.6017 -0.1151 -0.1133
 8382SOL    HW226003   7.702   2.049   6.282  0.9701 -0.7234  0.9910
 8383SOL     OW26004   2.004   4.296   7.907  0.5214 -0.1250 -0.1131
 8383SOL    HW126005   2.048   4.221   7.866  0.2088 -1.2560  1.5164
 8383SOL    HW226006   1.951   4.333   7.837  1.3927 -0.8433 -1.2075
 8384SOL     OW26007   5.170   0.836   4.238  0.5598  0.2935  0.0552
 8384SOL    HW126008   5.157   0.797   4.324  2.2057  0.6057  0.4857
 8384SOL    HW226009   5.092   0.811   4.188 -0.3791  0.0297  1.5862
 8385SOL     OW26010   3.964   1.434   6.165 -0.2823 -0.2736  0.5380
 8385SOL    HW126011   4.000   1.373   6.101 -0.9182  0.7971 -0.9168
 8385SOL    HW226012   4.036   1.453   6.224  0.3881 -1.1560  0.0202
 8386SOL     OW26013   7.296   4.676   0.315  0.4884 -0.7527  0.5779
 8386SOL    HW126014   7.312   4.764   0.351 -0.6880  0.0262 -0.6708
 8386SOL    HW226015   7.340   4.617   0.375  0.5713  0.6433  1.9608
 8387SOL     OW26016   0.448   2.780   0.738 -0.6695 -0.4049  0.4299
 8387SOL    HW126017   0.353   2.783   0.738 -0.6810 -0.3454 -0.9483
 8387SOL    HW226018   0.474   2.845   0.803 -1.5504  0.5903 -0.1896
 8388SOL     OW26019   7.950   3.017   6.562  0.1787  0.4114 -0.0620
 8388SOL    HW126020   7.917   2.956   6.495 -0.1246 -0.4947  0.8871
 8388SOL    HW226021   8.040   2.991   6.577  0.1095  0.3235  0.2059
 8389SOL     OW26022   5.888   4.779   0.188 -0.2257  0.8478 -0.6135
 8389SOL    HW126023   5.924   4.735   0.111  0.6103 -1.3802  0.9650
 8389SOL    HW226024   5.939   4.860   0.195  1.8982 -0.4313 -0.6109
 8390SOL     OW26025   3.310   2.224   7.052 -0.2483  0.4299 -0.3648
 8390SOL    HW126026   3.232   2.174   7.076 -0.4869  0.8478 -0.2521
 8390SOL    HW226027   3.287   2.268   6.971 -1.2804  2.9955  1.1854
 8391SOL     OW26028   4.032   2.986   7.529 -0.1425 -0.3726 -0.0858
 8391SOL    HW126029   4.009   3.005   7.438  1.0039 -1.1214 -0.5594
 8391SOL    HW226030   4.118   2.943   7.524  0.1445 -0.0486  1.3802
 8392SOL     OW26031   5.987   4.642   4.306 -0.1669  0.2504 -0.5839
 8392SOL    HW126032   6.056   4.676   4.362 -1.2549 -0.6741  1.4215
 8392SOL    HW226033   5.933   4.718   4.286 -0.0170  0.5181  0.0105
 8393SOL     OW26034   0.254   1.948   0.701  0.2067 -0.6363 -0.2301
 8393SOL    HW126035   0.306   1.869   0.694  0.7331 -0.3236  0.0917
 8393SOL    HW226036   0.272   1.996   0.620 -0.8324 -1.2610 -0.8568
 8394SOL     OW26037   5.356   4.002   2.358 -0.5334 -0.6989  0.0935
 8394SOL    HW126038   5.296   3.936   2.391  0.2087 -0.9109  1.0579
 8394SOL    HW226039   5.442   3.974   2.388 -0.1436  0.4564  0.1227
 8395SOL     OW26040   6.929   6.916   7.545 -0.0007  0.2286 -0.1942
 8395SOL    HW126041   6.887   6.981   7.488  0.5874 -0.8679 -1.9642
 8395SOL    HW226042   6.877   6.837   7.535  0.4210 -0.1329  0.3899
 8396SOL     OW26043   7.575   1.082   6.447 -0.0458  0.1879  0.1010
 8396SOL    HW126044   7.613   1.065   6.361  0.0507  0.9080 -0.0064
 8396SOL    HW226045   7.620   1.160   6.479  0.6793 -0.6817  1.2840
 8397SOL     OW26046   6.163   4.543   4.592  0.0605 -0.5207 -0.0385
 8397SOL    HW126047   6.089   4.598   4.621 -0.3336 -1.9554  1.9584
 8397SOL    HW226048   6.239   4.600   4.600 -0.6562  0.6019 -0.8639
 8398SOL     OW26049   0.858   0.797   6.569 -0.3092  0.0544 -0.1640
 8398SOL    HW126050   0.844   0.884   6.606 -3.2770 -0.2460 -0.2830
 8398SOL    HW226051   0.824   0.803   6.480  0.7649 -0.8812 -0.6579
 8399SOL     OW26052   6.906   5.624   4.338  0.8070  0.1153 -0.2520
 8399SOL    HW126053   6.870   5.592   4.255 -2.1508 -0.4784  1.1387
 8399SOL    HW226054   6.844   5.690   4.367  1.6965  0.2035  1.5680
 8400SOL     OW26055   7.739   7.016   0.125  0.8816  0.3198 -0.5129
 8400SOL    HW126056   7.655   7.056   0.148  1.0253  1.2013 -1.4353
 8400SOL    HW226057   7.780   6.996   0.209  0.7932  2.1471  0.0131
 8401SOL     OW26058   3.142   2.731   3.147 -0.8147 -0.5257  0.0020
 8401SOL    HW126059   3.205   2.713   3.217  0.6221  2.9370 -0.2064
 8401SOL    HW226060   3.062   2.758   3.192 -1.1636 -1.9289  0.2621
 8402SOL     OW26061   0.868   0.286   1.752  0.4048  0.4394  0.1074
 8402SOL    HW126062   0.879   0.258   1.661 -0.1039 -2.5992  0.8759
 8402SOL    HW226063   0.793   0.236   1.784  1.7039 -0.0381  2.7161
 8403SOL     OW26064   6.162   4.454   5.930  0.0610  0.0728 -0.0485
 8403SOL    HW126065   6.246   4.475   5.971  0.3207  0.4606 -0.7526
 8403SOL    HW226066   6.097   4.472   5.998  0.3427  2.4149 -0.3123
 8404SOL     OW26067   4.193   4.911   7.256  0.9078 -1.0881 -0.2536
 8404SOL    HW126068   4.248   4.969   7.309  0.5257 -1.5530  0.6698
 8404SOL    HW226069   4.144   4.860   7.320 -2.1942  0.7401 -0.9775
 8405SOL     OW26070   5.389   5.175   2.964 -0.0269 -0.0179 -0.4667
 8405SOL    HW126071   5.433   5.176   3.049 -0.5189  1.2727 -0.1991
 8405SOL    HW226072   5.397   5.085   2.933  0.2063 -0.4876  0.9201
 8406SOL     OW26073   2.297   4.097   3.951 -0.2025 -0.2266 -0.5183
 8406SOL    HW126074   2.334   4.101   3.863  2.0423 -0.1976  0.3711
 8406SOL    HW226075   2.362   4.139   4.007 -0.2573 -2.6360  1.5595
 8407SOL     OW26076   7.355   3.136   4.280  0.2807  0.3471  0.3691
 8407SOL    HW126077   7.417   3.102   4.216  0.4004  0.4261  0.4422
 8407SOL    HW226078   7.271   3.138   4.234 -0.0076 -1.3235  0.7689
 8408SOL     OW26079   3.115   6.981   6.882 -0.1655  0.3501  0.2076
 8408SOL    HW126080   3.081   7.041   6.948  0.1955  0.4504  0.3042
 8408SOL    HW226081   3.189   7.027   6.843  1.1412 -0.6463  1.3873
 8409SOL     OW26082   2.478   2.911   7.793 -0.0408  0.3956  0.1188
 8409SOL    HW126083   2.521   2.843   7.742  1.2960  1.2219  0.0926
 8409SOL    HW226084   2.385   2.885   7.795  0.5592 -1.9698  1.0008
 8410SOL     OW26085   1.677   1.052   4.909  0.2711  0.4199 -0.0574
 8410SOL    HW126086   1.607   1.033   4.971  1.5047 -2.7189  0.5581
 8410SOL    HW226087   1.697   0.968   4.869  2.6644  1.4954 -1.3078
 8411SOL     OW26088   4.582   2.906   1.086 -0.1831  0.0995 -0.1246
 8411SOL    HW126089   4.615   2.985   1.128  1.0786 -1.0713  1.1961
 8411SOL    HW226090   4.619   2.910   0.997 -1.4982  1.7593 -0.6561
 8412SOL     OW26091   2.427   2.945   2.102 -0.0572 -0.3797  0.0257
 8412SOL    HW126092   2.377   3.012   2.148  0.9707 -0.7810  1.8578
 8412SOL    HW226093   2.415   2.866   2.156  1.3954 -0.8161 -0.2448
 8413SOL     OW26094   7.130   3.227   2.337  0.1069  0.0923 -0.1074
 8413SOL    HW126095   7.113   3.146   2.384 -0.1068 -0.8940 -1.8132
 8413SOL    HW226096   7.047   3.248   2.294  0.3910  0.7560 -0.3538
 8414SOL     OW26097   6.626   3.777   6.099 -0.1412  0.2235 -0.1656
 8414SOL    HW126098   6.623   3.681   6.106  0.6592  0.1158 -1.1319
 8414SOL    HW226099   6.613   3.808   6.189  2.0054 -0.8487  0.5712
 8415SOL     OW26100   3.168   3.109   0.590  0.4023 -0.3843 -0.3557
 8415SOL    HW126101   3.082   3.116   0.632 -0.3450  1.4481 -2.0410
 8415SOL    HW226102   3.221   3.060   0.653 -1.7613 -1.3111  0.8760
 8416SOL     OW26103   3.590   1.744   6.486  0.4533  0.6331  0.3787
 8416SOL    HW126104   3.520   1.796   6.525 -3.0123 -1.3807 -2.5877
 8416SOL    HW226105   3.637   1.805   6.430  0.7827  1.8799  1.9339
 8417SOL     OW26106   0.001   3.354   0.190 -0.1333 -0.4294 -0.1954
 8417SOL    HW126107  -0.002   3.307   0.273  0.2799 -1.7895 -0.9350
 8417SOL    HW226108  -0.087   3.347   0.155  0.0574 -1.0909 -0.5436
 8418SOL     OW26109   7.448   3.820   2.386  0.2311  0.3560 -0.2185
 8418SOL    HW126110   7.519   3.884   2.393  0.0893  0.4145  0.9230
 8418SOL    HW226111   7.415   3.829   2.297  1.6891  0.2887 -0.7883
 8419SOL     OW26112   4.332   3.958   3.024 -0.1239 -0.2553  0.4550
 8419SOL    HW126113   4.340   3.903   3.102  1.6722  1.7904  1.8270
 8419SOL    HW226114   4.288   4.037   3.055  0.4408  0.5094 -0.6339
 8420SOL     OW26115   5.913   7.157   2.724  0.1003  0.5855  0.1039
 8420SOL    HW126116   5.896   7.123   2.812 -1.0754  0.1648 -0.2608
 8420SOL    HW226117   5.828   7.151   2.679  0.8945 -0.1410 -1.3776
 8421SOL     OW26118   2.668   3.694   4.969 -0.1367  0.1697  0.4043
 8421SOL    HW126119   2.736   3.644   4.924 -0.3308 -2.8618  3.1311
 8421SOL    HW226120   2.586   3.663   4.932 -0.2258 -1.0843  1.5850
 8422SOL     OW26121   7.998   7.800   2.838 -0.3288 -0.9205  0.0735
 8422SOL    HW126122   7.924   7.744   2.815 -0.5766 -0.8640  0.7098
 8422SOL    HW226123   7.984   7.820   2.931  0.9652 -1.6410  0.4417
 8423SOL     OW26124   2.640   5.152   7.911 -0.0516 -0.0899 -1.1202
 8423SOL    HW126125   2.701   5.144   7.985 -1.7891  1.4077  0.6063
 8423SOL    HW226126   2.667   5.084   7.850  1.9621 -0.8971  0.5450
 8424SOL     OW26127   0.809   5.649   4.605  0.5120  0.0594 -0.0292
 8424SOL    HW126128   0.818   5.694   4.689 -0.4666 -0.4758  0.3787
 8424SOL    HW226129   0.798   5.557   4.629  2.4674 -0.4332 -0.8458
 8425SOL     OW26130   3.216   6.828   7.141 -0.3723 -0.0569  0.1563
 8425SOL    HW126131   3.224   6.748   7.089  1.1207  0.5146 -0.5621
 8425SOL    HW226132   3.210   6.898   7.076 -2.8856  0.3683  0.7660
 8426SOL     OW26133   6.037   2.187   3.191 -0.0440 -0.4229 -0.2229
 8426SOL    HW126134   6.090   2.173   3.270 -0.2406 -1.9813 -0.3302
 8426SOL    HW226135   5.977   2.257   3.215  0.9608  0.2383  0.4564
 8427SOL     OW26136   5.677   6.101   6.332 -0.1334 -0.6462 -0.0358
 8427SOL    HW126137   5.726   6.178   6.304  0.4720 -1.3530 -1.0190
 8427SOL    HW226138   5.653   6.119   6.423  1.8046 -0.1776  0.4359
 8428SOL     OW26139   2.642   7.734   1.336 -0.3838  0.3677  0.1614
 8428SOL    HW126140   2.631   7.819   1.379 -0.4867  0.1472  0.5759
 8428SOL    HW226141   2.616   7.750   1.245  1.0942  1.1694 -0.1553
 8429SOL     OW26142   6.625   4.387   0.176 -0.2222  0.0424  0.3502
 8429SOL    HW126143   6.621   4.450   0.248  0.3640  0.4841  0.0044
 8429SOL    HW226144   6.541   4.340   0.180  0.2256 -0.7013  1.9931
 8430SOL     OW26145   0.228   5.665   5.507  0.4727 -0.5443  0.0954
 8430SOL    HW126146   0.178   5.699   5.581 -0.2936  0.2614 -0.7501
 8430SOL    HW226147   0.188   5.580   5.487  0.4042 -0.5699  0.3468
 8431SOL     OW26148   7.091   4.181   0.714 -0.1628  0.3179  0.3447
 8431SOL    HW126149   7.037   4.253   0.681 -0.1234  0.1232 -0.1456
 8431SOL    HW226150   7.087   4.114   0.646 -0.5235 -0.3132  0.9785
 8432SOL     OW26151   1.677   4.779   4.441  0.4886 -0.3235  0.0978
 8432SOL    HW126152   1.769   4.754   4.428  0.5983  1.2746 -3.2507
 8432SOL    HW226153   1.629   4.697   4.434  1.5457 -1.0160  0.6417
 8433SOL     OW26154   6.793   0.118   5.816 -0.1488 -0.1744 -0.0945
 8433SOL    HW126155   6.747   0.057   5.874  0.7057 -0.9902 -0.2580
 8433SOL    HW226156   6.757   0.100   5.729  0.2446 -0.5907 -0.1732
 8434SOL     OW26157   2.637   3.578   6.083  0.3451  0.1065  0.0577
 8434SOL    HW126158   2.566   3.613   6.029  0.1633 -0.3983 -0.0328
 8434SOL    HW226159   2.593   3.529   6.152  0.6109 -0.3378 -0.0895
 8435SOL     OW26160   5.973   3.363   4.584 -0.0835 -0.0623  0.2364
 8435SOL    HW126161   6.038   3.298   4.556  1.0619  1.6245 -1.1983
 8435SOL    HW226162   6.021   3.421   4.643 -0.5660  0.5672  0.0232
 8436SOL     OW26163   4.241   2.698   1.257 -0.5092 -0.0173  0.0961
 8436SOL    HW126164   4.233   2.784   1.298  0.6845 -0.4470  1.3157
 8436SOL    HW226165   4.186   2.641   1.311 -0.1725 -0.2927  0.1495
 8437SOL     OW26166   3.786   7.921   1.849 -0.1661 -0.0161  0.2555
 8437SOL    HW126167   3.779   8.003   1.899  0.7245  1.1619 -1.4699
 8437SOL    HW226168   3.702   7.912   1.805 -0.1847  0.0841  0.2712
 8438SOL     OW26169   5.525   7.163   4.120  0.0238  0.6970 -0.1169
 8438SOL    HW126170   5.532   7.258   4.131  0.2800  0.4909  1.9816
 8438SOL    HW226171   5.458   7.137   4.183  2.0850 -0.8196  1.6068
 8439SOL     OW26172   7.418   7.768   4.196 -0.4426  0.1626  0.3143
 8439SOL    HW126173   7.342   7.823   4.214 -0.3723  0.5861 -0.6174
 8439SOL    HW226174   7.382   7.691   4.151 -0.2052  0.9444 -1.2619
 8440SOL     OW26175   0.047   7.489   0.305 -0.7217 -0.0538 -0.3331
 8440SOL    HW126176   0.116   7.519   0.246 -0.1085 -1.1500 -0.2004
 8440SOL    HW226177  -0.033   7.492   0.253 -1.1967  3.9949  0.2987
 8441SOL     OW26178   2.967   7.639   0.853 -0.3004 -0.4230  0.7188
 8441SOL    HW126179   2.914   7.616   0.930  1.8130 -2.0822  1.7649
 8441SOL    HW226180   3.035   7.697   0.887  1.2825 -2.0051  0.3901
 8442SOL     OW26181   7.537   3.327   4.161 -0.1929  0.2421  0.0090
 8442SOL    HW126182   7.594   3.403   4.147  0.1728  0.2375  1.3458
 8442SOL    HW226183   7.458   3.364   4.202 -0.1051 -0.0790  0.4620
 8443SOL     OW26184   6.468   4.073   5.397 -0.4187 -0.3466 -0.7000
 8443SOL    HW126185   6.547   4.050   5.445 -1.8456 -1.1588  1.4227
 8443SOL    HW226186   6.497   4.134   5.330  1.9493 -0.4455  0.1528
 8444SOL     OW26187   3.011   2.828   0.651  0.4170  0.1746 -0.2853
 8444SOL    HW126188   3.004   2.918   0.683 -0.1481  0.1824 -0.4304
 8444SOL    HW226189   2.948   2.823   0.579 -0.8089 -0.8454  0.8329
 8445SOL     OW26190   1.946   7.290   4.115 -0.1716 -0.4441 -0.3460
 8445SOL    HW126191   1.912   7.365   4.066  1.4570  1.3199  1.0716
 8445SOL    HW226192   1.870   7.258   4.164 -0.9226  0.2700 -1.0113
 8446SOL     OW26193   1.942   7.978   4.475  1.2193  0.7857 -0.5318
 8446SOL    HW126194   1.864   7.959   4.423  0.3476  1.9789  0.2805
 8446SOL    HW226195   1.983   8.053   4.430  0.5108  1.7649  0.4171
 8447SOL     OW26196   0.014   1.626   7.848 -0.2412 -0.0626  1.2089
 8447SOL    HW126197  -0.073   1.588   7.859 -0.2061  0.2241  2.7343
 8447SOL    HW226198   0.069   1.577   7.908  0.9272 -0.9815 -0.5220
 8448SOL     OW26199   4.685   5.877   0.323 -0.6012 -0.5499  0.0656
 8448SOL    HW126200   4.726   5.815   0.383 -1.3556 -2.1527 -1.0209
 8448SOL    HW226201   4.724   5.857   0.237 -1.7634 -0.3610 -0.5225
 8449SOL     OW26202   4.368   7.344   7.555 -0.2638 -0.1186  0.0390
 8449SOL    HW126203   4.415   7.303   7.482 -0.1462 -0.8630  0.5139
 8449SOL    HW226204   4.377   7.281   7.627 -1.6217 -0.0859  0.2684
 8450SOL     OW26205   0.872   2.000   0.965  0.9086  0.0140  0.0402
 8450SOL    HW126206   0.848   1.947   0.889  0.3626 -3.6367  2.5325
 8450SOL    HW226207   0.968   1.996   0.968  0.8505 -2.9214  1.3660
 8451SOL     OW26208   5.903   7.140   4.309  0.3052  0.1623 -0.1353
 8451SOL    HW126209   5.912   7.204   4.380  1.9081  1.1030 -1.1327
 8451SOL    HW226210   5.861   7.188   4.238  1.9490  0.2871 -1.0609
 8452SOL     OW26211   4.956   1.094   4.979 -0.6839  0.3621  0.1098
 8452SOL    HW126212   4.937   1.023   4.917  1.0976 -0.1526  0.0866
 8452SOL    HW226213   5.049   1.083   4.999 -1.2350  0.3166  3.1270
 8453SOL     OW26214   5.809   0.968   5.381 -0.3585 -0.6269  0.0518
 8453SOL    HW126215   5.863   0.935   5.453  1.0398  0.1060 -0.6143
 8453SOL    HW226216   5.870   1.015   5.325 -1.6517 -0.0508 -0.9330
 8454SOL     OW26217   5.418   3.194   7.647  0.3342  0.0558  0.2600
 8454SOL    HW126218   5.410   3.284   7.616  0.8135 -0.5248 -1.6909
 8454SOL    HW226219   5.500   3.193   7.696  0.8902  0.4568 -0.6404
 8455SOL     OW26220   6.777   5.661   6.936 -0.0873  0.1909 -0.6022
 8455SOL    HW126221   6.717   5.595   6.901 -1.3101  0.8737  0.1850
 8455SOL    HW226222   6.787   5.725   6.865  2.0292 -1.3412 -1.8339
 8456SOL     OW26223   1.257   4.956   4.072  0.1520 -0.1542 -0.0435
 8456SOL    HW126224   1.239   4.944   4.165 -0.0139 -0.1699 -0.0778
 8456SOL    HW226225   1.248   5.050   4.058  3.1101  0.3387  0.5880
 8457SOL     OW26226   6.108   0.404   5.100  0.0292 -0.1910  0.0770
 8457SOL    HW126227   6.075   0.481   5.054  2.2048  0.2654 -0.8499
 8457SOL    HW226228   6.029   0.355   5.124 -1.3936  2.0434  0.2584
 8458SOL     OW26229   7.260   4.050   2.311 -0.3143  0.4076  0.3578
 8458SOL    HW126230   7.322   4.009   2.251 -0.5835  1.4154 -0.6522
 8458SOL    HW226231   7.310   4.121   2.352 -0.7606  1.2008 -0.4332
 8459SOL     OW26232   4.786   4.075   3.987 -0.1978  0.2623  0.0875
 8459SOL    HW126233   4.754   4.058   3.899  0.8383  1.7704 -0.6241
 8459SOL    HW226234   4.874   4.037   3.988 -0.8888 -1.4273  1.1287
 8460SOL     OW26235   5.871   7.498   7.100 -0.2993  0.2053  0.1004
 8460SOL    HW126236   5.854   7.538   7.185 -0.1764  0.2687  0.0960
 8460SOL    HW226237   5.963   7.472   7.104 -0.4544 -0.3532  0.2189
 8461SOL     OW26238   4.736   2.949   2.224 -0.2385 -0.0299  0.4636
 8461SOL    HW126239   4.765   3.037   2.246  0.0178 -0.4660  2.0082
 8461SOL    HW226240   4.654   2.962   2.176  0.7422  1.0915 -0.9537
 8462SOL     OW26241   0.793   6.360   2.942  0.0099 -0.2210  0.1091
 8462SOL    HW126242   0.758   6.287   2.992  0.9233 -1.0551 -0.4299
 8462SOL    HW226243   0.846   6.410   3.004 -2.5682  1.4526  1.1146
 8463SOL     OW26244   6.141   6.833   6.568  0.3242 -0.3825 -0.0007
 8463SOL    HW126245   6.126   6.741   6.544 -0.8120  0.4431 -2.7747
 8463SOL    HW226246   6.180   6.872   6.490  0.2645  1.6573  0.9314
 8464SOL     OW26247   2.073   0.813   1.390 -0.1303  0.7999  0.3021
 8464SOL    HW126248   2.083   0.768   1.306  0.8961  1.0254  0.2951
 8464SOL    HW226249   2.071   0.906   1.367 -0.2231  0.8478  0.4991
 8465SOL     OW26250   0.702   2.081   6.575  0.2085  0.2146  0.5390
 8465SOL    HW126251   0.758   2.116   6.644 -0.1724  2.6988 -0.3161
 8465SOL    HW226252   0.614   2.111   6.599 -0.4861 -1.8195  0.7317
 8466SOL     OW26253   2.547   2.773   1.740 -0.0182  0.6361 -0.2999
 8466SOL    HW126254   2.521   2.852   1.787 -1.1535  0.5582 -0.7595
 8466SOL    HW226255   2.471   2.753   1.684 -0.2984 -1.5091  0.7618
 8467SOL     OW26256   1.455   7.383   2.461 -0.2715 -0.2754 -0.4561
 8467SOL    HW126257   1.534   7.355   2.415 -0.5169  0.9208 -1.6735
 8467SOL    HW226258   1.383   7.344   2.413 -0.4820 -0.0646 -0.3159
 8468SOL     OW26259   7.584   5.391   3.384 -0.5753 -0.1168  0.8904
 8468SOL    HW126260   7.656   5.366   3.441  0.2263  0.3693  0.1150
 8468SOL    HW226261   7.614   5.370   3.296 -1.4491 -0.0680  0.5671
 8469SOL     OW26262   4.771   6.136   4.515  0.0487 -0.4583 -0.5527
 8469SOL    HW126263   4.833   6.089   4.458  1.1231  0.3107 -0.0573
 8469SOL    HW226264   4.801   6.116   4.603  1.0980  1.8034 -0.3190
 8470SOL     OW26265   4.415   5.718   1.701  0.0180 -0.1054  0.0339
 8470SOL    HW126266   4.333   5.713   1.652  0.2376 -2.8528 -0.2306
 8470SOL    HW226267   4.397   5.668   1.781  1.9312 -2.5694 -0.9390
 8471SOL     OW26268   4.289   3.235   4.028 -0.3022  0.4371  0.1630
 8471SOL    HW126269   4.258   3.196   4.110 -1.6617 -0.2152 -0.6296
 8471SOL    HW226270   4.358   3.295   4.056 -0.8263  0.3496  1.8120
 8472SOL     OW26271   0.836   3.280   5.855  0.2437  1.0758  0.4173
 8472SOL    HW126272   0.806   3.201   5.810 -0.8689  2.1027 -0.7401
 8472SOL    HW226273   0.862   3.340   5.785 -0.8255  2.4559  1.1344
 8473SOL     OW26274   4.477   2.969   3.134  0.0251 -0.3715 -0.0269
 8473SOL    HW126275   4.549   3.026   3.160  0.4121 -0.1507 -1.5336
 8473SOL    HW226276   4.424   2.960   3.214  0.0710  1.8811  0.3203
 8474SOL     OW26277   7.350   3.255   3.917 -0.4319 -0.3682  0.2388
 8474SOL    HW126278   7.301   3.216   3.990 -1.8655 -0.0486 -0.5236
 8474SOL    HW226279   7.440   3.225   3.930 -0.8626 -1.1613  1.5564
 8475SOL     OW26280   0.974   5.566   0.112  0.1315 -0.3006 -0.4449
 8475SOL    HW126281   1.041   5.524   0.058 -0.2020 -1.1805 -0.1837
 8475SOL    HW226282   0.991   5.533   0.200 -0.9059 -0.8598 -0.4474
 8476SOL     OW26283   2.911   7.039   7.776 -0.6233  0.2550 -0.2136
 8476SOL    HW126284   3.001   7.016   7.751 -0.6718  0.0292 -0.1812
 8476SOL    HW226285   2.914   7.134   7.788 -0.0095  0.0703  1.3112
 8477SOL     OW26286   4.838   2.009   5.361 -0.0707  0.3704  0.0738
 8477SOL    HW126287   4.801   2.049   5.441  1.4851  1.3926  0.3328
 8477SOL    HW226288   4.913   1.959   5.392 -0.5467 -0.7515 -0.5603
 8478SOL     OW26289   1.577   7.460   2.719 -0.5689 -0.4052  0.5558
 8478SOL    HW126290   1.542   7.455   2.629  1.5258  0.7585 -0.3855
 8478SOL    HW226291   1.625   7.542   2.722 -1.4810  0.1329  3.1516
 8479SOL     OW26292   7.133   5.986   0.125  0.5272  0.0776 -0.8980
 8479SOL    HW126293   7.064   5.936   0.083  0.8580  0.5330 -2.0305
 8479SOL    HW226294   7.178   6.030   0.053  0.7832  1.3153 -0.0267
 8480SOL     OW26295   7.421   4.175   0.192 -0.4677 -0.1119 -0.5442
 8480SOL    HW126296   7.435   4.249   0.133  0.1169  0.4750  0.2938
 8480SOL    HW226297   7.380   4.108   0.138 -1.9605  1.1761 -1.0936
 8481SOL     OW26298   6.569   3.333   1.831 -0.3979 -0.1362  0.2183
 8481SOL    HW126299   6.474   3.325   1.841 -0.6874 -0.4170 -2.0855
 8481SOL    HW226300   6.587   3.426   1.846 -1.4348  0.4090 -1.5984
 8482SOL     OW26301   6.450   6.648   1.384 -0.1589 -0.5410  0.8172
 8482SOL    HW126302   6.472   6.610   1.299  1.4046 -0.8033  1.3083
 8482SOL    HW226303   6.404   6.729   1.363 -3.8633 -2.7026 -0.2670
 8483SOL     OW26304   3.149   5.262   3.763 -0.3187  0.0118  0.1894
 8483SOL    HW126305   3.177   5.348   3.795 -0.4654  0.0851  0.1209
 8483SOL    HW226306   3.164   5.265   3.669 -0.8104  0.1505  0.1130
 8484SOL     OW26307   6.581   2.899   3.992  0.3990  0.2343 -0.6697
 8484SOL    HW126308   6.557   2.991   4.008 -0.0516 -0.1144  0.7525
 8484SOL    HW226309   6.624   2.871   4.072  0.2376 -0.9063 -0.9654
 8485SOL     OW26310   0.718   5.182   2.912 -0.9969 -0.1524  0.3205
 8485SOL    HW126311   0.729   5.217   2.824  0.5072 -1.0190  0.1415
 8485SOL    HW226312   0.713   5.087   2.900 -1.3530 -0.2457  1.1269
 8486SOL     OW26313   3.200   7.966   1.882 -0.1969 -0.3944 -0.0661
 8486SOL    HW126314   3.281   7.915   1.871 -0.2479 -0.3832 -0.5353
 8486SOL    HW226315   3.140   7.928   1.818 -0.3078  0.1088 -0.2645
 8487SOL     OW26316   7.437   4.420   4.338  0.8027  0.1838  0.1531
 8487SOL    HW126317   7.373   4.464   4.282  0.8991 -0.0549 -0.1488
 8487SOL    HW226318   7.426   4.326   4.318  0.8614  0.1013  0.5071
 8488SOL     OW26319   2.351   6.572   5.032  0.2559 -0.0764 -0.1323
 8488SOL    HW126320   2.271   6.567   5.086  0.0577 -0.5746 -0.4617
 8488SOL    HW226321   2.319   6.594   4.945  0.2988 -1.8771 -0.6424
 8489SOL     OW26322   0.703   6.575   1.163  0.2805 -0.3514 -0.2082
 8489SOL    HW126323   0.683   6.481   1.173  0.8223 -0.6202 -1.4856
 8489SOL    HW226324   0.677   6.595   1.074  0.2683  0.7130  0.0284
 8490SOL     OW26325   6.351   1.807   4.514 -0.3295  0.1265  0.0098
 8490SOL    HW126326   6.290   1.735   4.524  0.6845 -0.9805 -1.3710
 8490SOL    HW226327   6.394   1.815   4.599 -0.8983 -0.4628  0.3562
 8491SOL     OW26328   4.295   0.022   1.098 -0.2980  0.3040  0.2211
 8491SOL    HW126329   4.246   0.038   1.179  0.7074  0.1018  0.8812
 8491SOL    HW226330   4.295  -0.073   1.089 -2.8103  0.3520 -1.5563
 8492SOL     OW26331   6.324   0.626   5.048 -0.0803 -0.0629  0.1339
 8492SOL    HW126332   6.293   0.536   5.055 -0.5225  0.0286 -0.5484
 8492SOL    HW226333   6.417   0.622   5.072 -0.4919 -0.4114  1.8031
 8493SOL     OW26334   4.964   5.224   7.858  0.4506 -0.8833  0.1752
 8493SOL    HW126335   4.989   5.165   7.929  1.8787 -0.4909  0.0252
 8493SOL    HW226336   5.031   5.211   7.791 -0.3680 -0.5727 -0.7238
 8494SOL     OW26337   5.497   0.322   6.770 -0.1292  0.2782 -0.1312
 8494SOL    HW126338   5.501   0.286   6.682 -0.5560  0.7584 -0.3505
 8494SOL    HW226339   5.450   0.405   6.761  1.1018  1.0604  0.3099
 8495SOL     OW26340   4.153   6.325   0.030 -0.4106 -0.0179  0.3628
 8495SOL    HW126341   4.207   6.252   0.060  0.0607  0.7684  1.4884
 8495SOL    HW226342   4.069   6.285   0.008 -0.7920 -0.6546  2.7371
 8496SOL     OW26343   5.838   4.673   7.924 -0.0964 -0.4777  0.8770
 8496SOL    HW126344   5.763   4.633   7.969 -1.5971  1.1181 -0.0798
 8496SOL    HW226345   5.833   4.639   7.834 -0.4717  0.5979  0.4702
 8497SOL     OW26346   7.597   6.000   7.516  0.0943 -0.0905  0.3045
 8497SOL    HW126347   7.620   6.043   7.434 -0.3255  1.2726  0.8667
 8497SOL    HW226348   7.655   5.925   7.521 -0.4132 -0.6561 -1.6100
 8498SOL     OW26349   0.180   7.751   6.142  0.1111  0.4827 -0.2244
 8498SOL    HW126350   0.189   7.709   6.228  0.7736 -0.4634 -0.7307
 8498SOL    HW226351   0.233   7.830   6.148  0.3497  0.2984  0.1646
 8499SOL     OW26352   4.771   6.667   7.296 -0.6133  0.3705 -0.3604
 8499SOL    HW126353   4.765   6.609   7.220  1.5619  1.4959 -1.5152
 8499SOL    HW226354   4.863   6.661   7.323 -0.9157  1.3953  1.0324
 8500SOL     OW26355   3.207   5.477   3.922 -0.1612  0.4887  0.2029
 8500SOL    HW126356   3.124   5.481   3.969  0.5743 -1.8081  1.9107
 8500SOL    HW226357   3.256   5.553   3.955 -1.2984  1.5109 -0.3642
 8501SOL     OW26358   7.107   5.065   7.277 -0.2773 -0.4981  0.8044
 8501SOL    HW126359   7.053   4.989   7.257 -0.7119  0.2050 -0.8540
 8501SOL    HW226360   7.169   5.071   7.204 -0.1190  0.6144  1.0059
 8502SOL     OW26361   4.495   2.558   1.853  0.4989 -0.1534  0.4364
 8502SOL    HW126362   4.425   2.561   1.787 -0.3448 -0.5961  1.2757
 8502SOL    HW226363   4.459   2.502   1.922  0.7652  1.4726  1.9461
 8503SOL     OW26364   5.217   6.805   1.230 -0.7295  0.1005  0.1354
 8503SOL    HW126365   5.139   6.853   1.202 -1.4039 -0.4839  0.9827
 8503SOL    HW226366   5.279   6.817   1.157 -1.4102  0.9921 -0.3265
 8504SOL     OW26367   2.914   0.933   2.181  0.4268 -0.2744  0.1924
 8504SOL    HW126368   2.932   1.026   2.188 -0.1510 -0.2223  1.1294
 8504SOL    HW226369   2.844   0.926   2.117  0.3338 -0.0499  0.2702
 8505SOL     OW26370   3.581   5.503   5.373  0.4501  0.8954  0.0901
 8505SOL    HW126371   3.491   5.506   5.341 -0.0204 -0.3727  1.1965
 8505SOL    HW226372   3.578   5.441   5.446  2.0611  1.4595  0.6709
 8506SOL     OW26373   0.311   2.165   0.518  0.0782  0.2669  0.1502
 8506SOL    HW126374   0.250   2.134   0.450  0.7169  1.1365 -0.8625
 8506SOL    HW226375   0.318   2.259   0.502 -0.2373  0.6135  1.8564
 8507SOL     OW26376   7.176   4.093   1.724 -0.2190  0.3838  0.3564
 8507SOL    HW126377   7.265   4.101   1.759  0.6246 -1.0330 -1.2743
 8507SOL    HW226378   7.175   4.151   1.648  0.4532 -1.9163 -1.5347
 8508SOL     OW26379   2.666   5.414   3.398  0.0030 -0.1123  0.3813
 8508SOL    HW126380   2.599   5.350   3.425 -0.4672 -0.4033 -1.3709
 8508SOL    HW226381   2.616   5.489   3.368  0.5434  0.7284  1.5146
 8509SOL     OW26382   3.138   6.263   5.732 -0.1090 -0.5507  0.3594
 8509SOL    HW126383   3.162   6.184   5.682 -2.2907 -0.1041 -1.5578
 8509SOL    HW226384   3.189   6.256   5.812  0.7523 -3.2650 -0.2995
 8510SOL     OW26385   7.781   7.532   4.732  0.2481  0.2229  0.3773
 8510SOL    HW126386   7.798   7.469   4.662  1.9791 -0.8717  1.7027
 8510SOL    HW226387   7.708   7.494   4.780  1.7515 -1.2624  1.6135
 8511SOL     OW26388   1.823   5.594   3.667  0.9303 -0.0007  0.1019
 8511SOL    HW126389   1.743   5.636   3.699  0.8607 -0.1047  0.0640
 8511SOL    HW226390   1.792   5.516   3.621  0.8906  0.9884 -1.6420
 8512SOL     OW26391   5.062   6.244   3.262 -0.5692 -0.1016  0.3329
 8512SOL    HW126392   5.066   6.332   3.224 -2.1095  0.0835  0.5636
 8512SOL    HW226393   5.119   6.250   3.339  1.6979 -0.1792 -1.2406
 8513SOL     OW26394   3.078   5.279   6.639 -0.4787  0.1679  0.6242
 8513SOL    HW126395   3.035   5.264   6.723 -1.1296 -0.2570  0.2263
 8513SOL    HW226396   3.156   5.223   6.642 -0.1580  0.6354  1.1906
 8514SOL     OW26397   7.179   2.802   7.607 -0.7515 -0.3348  0.3347
 8514SOL    HW126398   7.108   2.805   7.543 -0.5134 -1.7894 -0.0160
 8514SOL    HW226399   7.252   2.760   7.562  0.4321  1.2714  0.6389
 8515SOL     OW26400   3.116   2.999   4.784 -0.0089  0.4374  0.6064
 8515SOL    HW126401   3.149   2.991   4.873  0.5103  0.8888  0.4579
 8515SOL    HW226402   3.024   2.974   4.790  0.5360 -1.7364  0.8806
 8516SOL     OW26403   1.433   6.654   1.179  0.0761 -0.2774  0.0500
 8516SOL    HW126404   1.373   6.721   1.147  0.3541  0.1173  0.3587
 8516SOL    HW226405   1.377   6.591   1.224 -0.6289 -1.8621 -2.7567
 8517SOL     OW26406   2.573   4.824   6.552 -1.2819 -0.1543 -0.5879
 8517SOL    HW126407   2.572   4.805   6.646  1.0357  1.1826 -0.2354
 8517SOL    HW226408   2.552   4.740   6.511  1.3752 -1.7578  1.0624
 8518SOL     OW26409   0.836   6.937   7.378  0.4397  0.3392 -0.2492
 8518SOL    HW126410   0.814   6.850   7.345  0.3698  0.3067 -0.1162
 8518SOL    HW226411   0.759   6.965   7.428  0.0786  0.8726 -1.0732
 8519SOL     OW26412   3.918   6.552   6.842  0.3557  0.1772  0.0591
 8519SOL    HW126413   3.870   6.633   6.860 -1.0110 -0.8098  1.0405
 8519SOL    HW226414   3.927   6.550   6.747  0.0481  1.2788  0.0005
 8520SOL     OW26415   6.141   0.338   0.892  0.7757 -0.0826  0.0157
 8520SOL    HW126416   6.193   0.266   0.928  1.3756  0.2436 -0.1835
 8520SOL    HW226417   6.206   0.402   0.862  0.2631  0.1950 -0.5194
 8521SOL     OW26418   2.717   4.050   1.415 -0.0850 -0.0245  0.4810
 8521SOL    HW126419   2.638   4.028   1.465 -0.7111 -3.2421 -1.6235
 8521SOL    HW226420   2.684   4.097   1.338  0.6397  2.8204  1.8008
 8522SOL     OW26421   2.739   4.952   3.377  0.2248 -0.0916  0.5622
 8522SOL    HW126422   2.796   5.028   3.387 -2.2181  1.6947  1.9583
 8522SOL    HW226423   2.764   4.894   3.449 -0.0244  0.9189  1.4895
 8523SOL     OW26424   0.105   2.094   0.976 -0.0822 -0.1838 -0.9353
 8523SOL    HW126425   0.081   2.014   1.023  1.0539 -0.4180 -0.7237
 8523SOL    HW226426   0.027   2.116   0.925 -0.6949 -0.9640 -0.3635
 8524SOL     OW26427   6.558   6.098   1.054 -0.0093  0.0442 -0.1601
 8524SOL    HW126428   6.522   6.027   1.001  1.5525 -0.5272 -0.4773
 8524SOL    HW226429   6.617   6.056   1.116  0.9599  1.0642 -0.3655
 8525SOL     OW26430   3.727   5.011   1.469  0.3145  0.0474  0.4466
 8525SOL    HW126431   3.707   5.031   1.560 -0.2700 -0.9727  0.5588
 8525SOL    HW226432   3.803   5.065   1.448 -0.4564  1.4013  1.0804
 8526SOL     OW26433   5.545   3.830   2.976 -0.0651  0.2330 -0.0925
 8526SOL    HW126434   5.569   3.828   2.883 -0.8750 -3.1868 -0.3546
 8526SOL    HW226435   5.602   3.896   3.014 -0.1608  2.2499 -3.0878
 8527SOL     OW26436   0.231   6.417   6.974 -0.6174 -0.5243  0.0004
 8527SOL    HW126437   0.307   6.393   7.028 -1.7416  1.5756  2.8016
 8527SOL    HW226438   0.165   6.350   6.994 -0.6290 -0.4199  0.3261
 8528SOL     OW26439   7.204   7.799   2.465  0.1006 -0.1942  0.4948
 8528SOL    HW126440   7.224   7.888   2.436 -0.8572  0.4509  1.6924
 8528SOL    HW226441   7.204   7.805   2.561  0.8408 -1.6822  0.6022
 8529SOL     OW26442   5.197   7.445   0.866  0.1064 -0.3029 -0.2409
 8529SOL    HW126443   5.265   7.498   0.906  0.8151 -0.6313 -0.9920
 8529SOL    HW226444   5.149   7.506   0.810  0.8979 -0.4431 -1.0753
 8530SOL     OW26445   0.210   4.592   5.267 -0.3633 -0.2226  0.1263
 8530SOL    HW126446   0.230   4.587   5.361  0.8508  1.2620 -0.0169
 8530SOL    HW226447   0.215   4.501   5.237 -1.0869 -0.7677  1.5448
 8531SOL     OW26448   5.487   7.396   6.405 -0.0266 -0.3697 -0.0010
 8531SOL    HW126449   5.554   7.464   6.397  1.3888 -1.4589  1.7879
 8531SOL    HW226450   5.524   7.333   6.468 -1.8783 -2.0621 -0.4957
 8532SOL     OW26451   6.101   3.370   3.194 -0.4289 -0.3230 -0.3319
 8532SOL    HW126452   6.093   3.283   3.233  0.3817 -0.4376 -0.4053
 8532SOL    HW226453   6.011   3.404   3.192 -0.5962 -0.6581  0.8373
 8533SOL     OW26454   6.609   4.396   1.882  0.1886 -0.8716  0.7200
 8533SOL    HW126455   6.549   4.399   1.957  1.7655  2.0130  2.0474
 8533SOL    HW226456   6.644   4.307   1.883 -1.3435 -1.5202  2.1023
 8534SOL     OW26457   3.939   0.398   2.507 -0.5200 -0.2116 -0.3824
 8534SOL    HW126458   3.914   0.308   2.488 -0.3740 -0.1053 -1.1449
 8534SOL    HW226459   4.023   0.391   2.552 -0.3049 -0.4495 -0.8117
 8535SOL     OW26460   1.011   0.930   3.522 -0.3877  0.0669  0.0498
 8535SOL    HW126461   0.928   0.887   3.541 -1.7170  2.3998 -0.1150
 8535SOL    HW226462   1.008   0.946   3.427  0.4891 -0.2777 -0.0438
 8536SOL     OW26463   3.583   0.322   4.140 -0.1401 -0.5351 -0.1070
 8536SOL    HW126464   3.510   0.382   4.125  0.3271 -0.2374 -1.3055
 8536SOL    HW226465   3.541   0.242   4.173 -1.0537 -0.5104 -1.1443
 8537SOL     OW26466   6.633   5.866   3.125  0.1835  0.0171  0.5362
 8537SOL    HW126467   6.563   5.803   3.110 -0.6908  0.7101  1.5962
 8537SOL    HW226468   6.591   5.940   3.168  1.2257  1.2537 -0.4721
 8538SOL     OW26469   2.905   2.942   2.463  0.2788 -0.4007  0.3350
 8538SOL    HW126470   2.962   2.946   2.386 -0.3981  0.6170 -0.1318
 8538SOL    HW226471   2.825   2.986   2.436 -0.5842 -1.4495  1.1248
 8539SOL     OW26472   0.679   2.336   5.019  0.2009  0.2188  0.1814
 8539SOL    HW126473   0.751   2.311   5.078 -0.1091  1.1184  0.9613
 8539SOL    HW226474   0.651   2.422   5.050  0.2422  0.8745 -1.4900
 8540SOL     OW26475   4.827   7.169   0.966 -0.0373  0.2469 -0.3815
 8540SOL    HW126476   4.905   7.215   0.937 -0.0138  0.1296 -0.5058
 8540SOL    HW226477   4.837   7.080   0.931 -1.8109  1.0722 -3.2803
 8541SOL     OW26478   3.458   2.474   1.846 -0.0165 -0.3576  0.0582
 8541SOL    HW126479   3.428   2.565   1.850  1.5407  0.2612 -1.0355
 8541SOL    HW226480   3.378   2.421   1.847 -0.9740  1.0476  0.1768
 8542SOL     OW26481   7.692   6.187   4.622 -0.0115  0.3200  0.0677
 8542SOL    HW126482   7.634   6.144   4.685 -1.9586  0.6229 -1.4177
 8542SOL    HW226483   7.743   6.248   4.674 -0.5930 -0.3760  1.5310
 8543SOL     OW26484   5.865   2.631   3.180 -0.1506  0.1034  0.2133
 8543SOL    HW126485   5.902   2.719   3.171  1.1279 -0.4120  0.1458
 8543SOL    HW226486   5.863   2.597   3.090 -0.2425 -0.0841  0.2865
 8544SOL     OW26487   6.313   4.930   4.567  0.1847 -0.0052 -0.1623
 8544SOL    HW126488   6.358   5.005   4.528 -0.2178  0.0255 -0.5721
 8544SOL    HW226489   6.240   4.969   4.615  1.0071  0.0131  1.1350
 8545SOL     OW26490   3.827   5.897   0.248 -0.5851  0.1499 -0.0311
 8545SOL    HW126491   3.792   5.855   0.170 -1.8907  1.2731 -0.0878
 8545SOL    HW226492   3.922   5.901   0.232 -0.5631 -1.6682 -0.5094
 8546SOL     OW26493   1.382   1.335   3.135 -0.2227  1.0082 -0.1352
 8546SOL    HW126494   1.337   1.408   3.093 -0.1731  2.6522  2.4113
 8546SOL    HW226495   1.335   1.323   3.218  1.0789 -0.4869  0.4332
 8547SOL     OW26496   2.430   1.316   3.225  0.0400 -0.0777 -0.2402
 8547SOL    HW126497   2.516   1.323   3.183  1.1414 -1.7212  1.5729
 8547SOL    HW226498   2.389   1.241   3.183 -0.8493  1.1104 -1.5772
 8548SOL     OW26499   4.900   0.707   6.608 -0.1307  0.5155 -0.4523
 8548SOL    HW126500   4.847   0.786   6.595 -0.5141  0.6994  1.8254
 8548SOL    HW226501   4.874   0.649   6.535 -0.3445  2.1852 -1.7643
 8549SOL     OW26502   3.615   2.020   4.504  0.5434 -0.9237 -0.4135
 8549SOL    HW126503   3.649   2.029   4.415  0.5132 -0.2149 -0.3619
 8549SOL    HW226504   3.690   1.993   4.556  0.7398 -0.5953 -0.5219
 8550SOL     OW26505   1.144   5.972   5.333 -0.0257  0.1174 -0.5718
 8550SOL    HW126506   1.064   5.926   5.356  1.6209 -1.6777  2.0012
 8550SOL    HW226507   1.211   5.904   5.326  2.3365  1.8223  2.5404
 8551SOL     OW26508   4.894   2.920   5.489  0.4046  0.4652  0.2376
 8551SOL    HW126509   4.973   2.933   5.436  0.7837 -0.9845  0.4024
 8551SOL    HW226510   4.843   3.000   5.476  0.1281 -0.1087 -2.8709
 8552SOL     OW26511   5.914   3.436   0.029  0.0383 -0.5072  0.0514
 8552SOL    HW126512   5.820   3.451   0.029  0.3053  1.3690 -0.2808
 8552SOL    HW226513   5.952   3.517   0.063  1.5869 -0.7707 -0.9355
 8553SOL     OW26514   6.608   4.848   2.547  0.0995  0.6073  0.0347
 8553SOL    HW126515   6.637   4.795   2.473 -1.7679 -1.5012  0.7016
 8553SOL    HW226516   6.515   4.864   2.530  0.4424  3.2203  0.1976
 8554SOL     OW26517   0.741   3.636   4.059 -0.3072 -0.4809 -0.0143
 8554SOL    HW126518   0.764   3.567   4.120  0.8353  1.6096  2.0484
 8554SOL    HW226519   0.787   3.714   4.090  1.8702  0.3962 -4.5522
 8555SOL     OW26520   2.363   2.985   2.453 -0.4828  0.2125  1.4132
 8555SOL    HW126521   2.356   3.080   2.440  0.2666  0.2114  0.9110
 8555SOL    HW226522   2.412   2.977   2.535 -2.8258  0.2295  2.8893
 8556SOL     OW26523   6.531   2.462   5.320  0.6874  0.1808  0.0263
 8556SOL    HW126524   6.562   2.546   5.285 -0.3442  1.1063  1.2441
 8556SOL    HW226525   6.579   2.451   5.402 -0.3883  0.4349  0.7101
 8557SOL     OW26526   0.350   2.542   3.242  0.6150  0.0967  0.1923
 8557SOL    HW126527   0.299   2.617   3.274  3.0618  2.2334 -0.5898
 8557SOL    HW226528   0.289   2.469   3.247 -1.3420  1.6962  2.8482
 8558SOL     OW26529   3.679   4.359   7.114 -0.0117  0.0206 -0.1897
 8558SOL    HW126530   3.614   4.294   7.087 -0.0523  0.4341 -1.1261
 8558SOL    HW226531   3.636   4.410   7.183 -0.4261 -0.1470 -0.3268
 8559SOL     OW26532   5.400   2.846   1.860 -0.6411  0.1371 -0.2161
 8559SOL    HW126533   5.474   2.796   1.826 -0.3339 -1.3347  2.3654
 8559SOL    HW226534   5.323   2.792   1.840 -0.5213 -0.4400  0.8081
 8560SOL     OW26535   0.393   2.338   2.341  0.2264 -0.1569  0.5963
 8560SOL    HW126536   0.363   2.429   2.339 -0.9162 -0.4708  1.9493
 8560SOL    HW226537   0.367   2.306   2.428  0.5327 -1.7964  0.1190
 8561SOL     OW26538   1.075   2.028   6.725 -0.0574  0.0362 -0.3009
 8561SOL    HW126539   1.057   1.964   6.657 -0.1013 -0.6967  0.3796
 8561SOL    HW226540   0.991   2.039   6.771  0.5601 -1.5007  1.2977
 8562SOL     OW26541   7.053   2.918   5.645 -0.6024 -0.1339  0.0245
 8562SOL    HW126542   7.135   2.873   5.624 -0.3505 -0.4980  1.6416
 8562SOL    HW226543   7.067   3.008   5.615  0.1309 -0.3554 -0.3196
 8563SOL     OW26544   4.032   0.201   0.230  0.6710 -0.5087 -0.3675
 8563SOL    HW126545   3.958   0.198   0.169  1.1493 -1.5415 -0.9318
 8563SOL    HW226546   4.037   0.112   0.265  1.7084 -0.4749 -0.4197
 8564SOL     OW26547   7.588   3.359   1.622 -0.3060  0.4889 -0.4424
 8564SOL    HW126548   7.515   3.297   1.618 -0.1274  0.2709 -0.3536
 8564SOL    HW226549   7.633   3.338   1.704 -0.0687  0.5361 -0.5603
 8565SOL     OW26550   3.492   5.216   1.917 -0.1345 -0.1584  0.0144
 8565SOL    HW126551   3.524   5.275   1.984 -0.1516 -1.0632  0.8402
 8565SOL    HW226552   3.527   5.251   1.835 -0.3321  1.1048  0.4526
 8566SOL     OW26553   1.721   6.297   6.349 -0.3804 -0.0742 -0.1417
 8566SOL    HW126554   1.685   6.316   6.436 -0.0579 -2.2645  0.5515
 8566SOL    HW226555   1.813   6.277   6.365 -0.7249 -2.3792 -0.6236
 8567SOL     OW26556   3.217   2.338   7.501 -0.1280 -0.7445 -0.1114
 8567SOL    HW126557   3.210   2.394   7.579 -3.0737 -1.5323  0.3201
 8567SOL    HW226558   3.271   2.388   7.440 -1.2440  1.8454  0.8730
 8568SOL     OW26559   1.712   5.917   2.034 -0.1430  0.3638 -0.4044
 8568SOL    HW126560   1.620   5.923   2.008 -0.4471  2.7084  0.8849
 8568SOL    HW226561   1.751   5.998   2.000  0.7055  0.8249  1.5401
 8569SOL     OW26562   1.386   1.186   0.545 -0.2931  0.3100 -0.3929
 8569SOL    HW126563   1.323   1.175   0.617 -1.5339  0.4217 -1.4296
 8569SOL    HW226564   1.463   1.224   0.587  0.1810 -2.3857  1.4207
 8570SOL     OW26565   4.960   6.682   5.597 -0.1380 -0.2833  0.2462
 8570SOL    HW126566   5.044   6.718   5.626  0.9886 -2.1447 -0.4887
 8570SOL    HW226567   4.968   6.588   5.615 -1.4333 -0.7292 -1.3336
 8571SOL     OW26568   1.020   1.181   5.439 -0.1561  0.2698 -0.1188
 8571SOL    HW126569   0.956   1.139   5.495  0.7164 -0.0962  0.6313
 8571SOL    HW226570   0.971   1.208   5.361 -0.9053 -1.4696 -0.2963
 8572SOL     OW26571   7.347   2.742   7.166  0.2660 -0.1218 -0.8441
 8572SOL    HW126572   7.393   2.700   7.093 -0.4863 -0.6367 -1.0389
 8572SOL    HW226573   7.303   2.817   7.126 -0.8838 -0.9217 -1.1164
 8573SOL     OW26574   0.246   2.367   6.790  0.0101  0.3241  0.7349
 8573SOL    HW126575   0.323   2.336   6.837 -0.0463  1.4233  1.6046
 8573SOL    HW226576   0.199   2.288   6.765 -0.0502 -0.3247  2.7097
 8574SOL     OW26577   7.689   5.536   7.805  0.1521 -0.1302  0.7854
 8574SOL    HW126578   7.725   5.525   7.717  0.8570  0.6316  0.9705
 8574SOL    HW226579   7.596   5.515   7.795  0.3198 -0.5576 -0.0272
 8575SOL     OW26580   1.613   2.710   1.816 -0.3436  0.4047  0.0431
 8575SOL    HW126581   1.605   2.757   1.899 -1.2455  0.1707  0.0966
 8575SOL    HW226582   1.705   2.719   1.792 -0.2740  1.2647  0.6007
 8576SOL     OW26583   5.033   5.575   2.877 -0.0626  0.3191 -0.5187
 8576SOL    HW126584   5.072   5.658   2.906 -1.6791  0.9464  0.0186
 8576SOL    HW226585   5.075   5.508   2.930  0.0104  1.0028  0.2984
 8577SOL     OW26586   5.250   3.934   6.112 -0.6005 -0.1000 -0.3954
 8577SOL    HW126587   5.184   3.998   6.135  1.1874  1.4196  0.8211
 8577SOL    HW226588   5.241   3.865   6.178 -0.3994  0.5620  0.3433
 8578SOL     OW26589   7.338   6.042   2.073 -0.0758  0.2927 -0.7639
 8578SOL    HW126590   7.277   5.974   2.103 -0.9468  1.2810 -0.1878
 8578SOL    HW226591   7.281   6.114   2.045  0.7919  1.6769  0.8061
 8579SOL     OW26592   4.874   5.325   1.324  0.0561 -0.0526  0.1243
 8579SOL    HW126593   4.836   5.411   1.307 -0.8220 -0.1636  1.4102
 8579SOL    HW226594   4.945   5.317   1.259 -0.8902  0.9348 -1.0851
 8580SOL     OW26595   2.176   5.652   6.616  0.1385 -0.2425 -0.2904
 8580SOL    HW126596   2.141   5.741   6.628  0.2032 -0.3547  0.8278
 8580SOL    HW226597   2.221   5.656   6.532 -0.7442  0.4954 -0.7590
 8581SOL     OW26598   4.469   3.074   7.014 -0.1986 -0.5014 -0.5877
 8581SOL    HW126599   4.438   2.984   7.005  0.7118 -0.8679 -0.1906
 8581SOL    HW226600   4.553   3.076   6.968 -0.3055  0.1970 -0.7662
 8582SOL     OW26601   0.845   4.018   5.737  0.0814  0.3381 -0.9482
 8582SOL    HW126602   0.758   4.056   5.751  0.2288  0.4397 -0.2613
 8582SOL    HW226603   0.892   4.084   5.687 -0.2960  0.1984 -1.4953
 8583SOL     OW26604   1.717   4.955   3.551  0.2383 -0.4312 -0.2756
 8583SOL    HW126605   1.625   4.931   3.552  0.5114 -1.5109 -0.1183
 8583SOL    HW226606   1.719   5.040   3.506 -1.0056  0.4080  1.1445
 8584SOL     OW26607   6.824   2.342   0.777 -0.1668 -0.1463 -0.1865
 8584SOL    HW126608   6.920   2.340   0.778 -0.0689  2.0357  0.0998
 8584SOL    HW226609   6.798   2.252   0.757  1.8940 -1.2634  1.7284
 8585SOL     OW26610   5.465   2.496   4.752  0.4946  0.3914 -0.7231
 8585SOL    HW126611   5.412   2.431   4.705 -0.6180 -0.1999  1.2637
 8585SOL    HW226612   5.434   2.580   4.718 -1.7284  0.0595  0.3106
 8586SOL     OW26613   3.555   0.757   6.609 -0.1819 -0.5307  0.4180
 8586SOL    HW126614   3.474   0.797   6.577  0.7509  0.1468 -1.2304
 8586SOL    HW226615   3.535   0.664   6.615 -0.7446 -0.5332 -1.1268
 8587SOL     OW26616   7.886   5.531   3.611 -0.3698 -0.3284 -0.5096
 8587SOL    HW126617   7.966   5.484   3.590 -2.0651 -3.2910 -0.9378
 8587SOL    HW226618   7.862   5.576   3.531  0.9289  0.7661 -0.3096
 8588SOL     OW26619   6.467   5.307   4.080  0.2749  0.0142  0.6313
 8588SOL    HW126620   6.475   5.277   3.989 -0.5536  0.2781  0.4575
 8588SOL    HW226621   6.557   5.325   4.107  0.4197  1.4166 -0.6533
 8589SOL     OW26622   1.191   7.735   1.950 -0.1966  0.3228 -0.3234
 8589SOL    HW126623   1.174   7.725   2.044  0.0539 -1.9803 -0.4495
 8589SOL    HW226624   1.280   7.700   1.939  0.0358  1.1885 -1.3485
 8590SOL     OW26625   6.941   0.259   7.863  0.1795 -0.1071 -1.2637
 8590SOL    HW126626   7.030   0.294   7.854  0.5628 -0.0010  1.7820
 8590SOL    HW226627   6.887   0.336   7.880  0.2266 -0.4718  0.7641
 8591SOL     OW26628   7.033   6.427   0.377 -0.2221  0.5270 -0.3155
 8591SOL    HW126629   6.941   6.432   0.403 -0.0889  1.0993  0.0778
 8591SOL    HW226630   7.059   6.337   0.395 -0.6996  0.3708 -0.4084
 8592SOL     OW26631   7.467   2.939   2.811  0.1501  0.4732 -0.2956
 8592SOL    HW126632   7.415   3.003   2.763  1.0942  2.3642  1.0490
 8592SOL    HW226633   7.412   2.916   2.886 -0.1566 -0.2612 -0.7381
 8593SOL     OW26634   4.362   6.465   5.487 -0.3873 -0.0753  0.0077
 8593SOL    HW126635   4.413   6.404   5.433 -0.3038 -0.0211  0.0242
 8593SOL    HW226636   4.290   6.412   5.522 -0.3128 -0.1654  0.0256
 8594SOL     OW26637   4.271   6.150   6.075 -0.0709 -0.4426 -0.4455
 8594SOL    HW126638   4.324   6.169   6.152  0.6060  1.6159 -1.3537
 8594SOL    HW226639   4.192   6.110   6.110 -0.6135  2.1029  1.5423
 8595SOL     OW26640   6.258   5.182   3.037  0.3783 -0.1648 -0.1027
 8595SOL    HW126641   6.269   5.119   2.965 -1.3225 -1.0996  0.3979
 8595SOL    HW226642   6.223   5.130   3.109 -2.5442  1.5634 -0.1200
 8596SOL     OW26643   0.945   5.312   6.135  0.5124 -0.0237 -0.3065
 8596SOL    HW126644   0.887   5.301   6.060 -2.5368  2.1302  1.5115
 8596SOL    HW226645   0.935   5.404   6.160  2.9049 -0.1841  1.6016
 8597SOL     OW26646   6.105   0.082   6.096 -0.0132  0.5239 -0.0920
 8597SOL    HW126647   6.193   0.088   6.058  0.5127  0.4662  1.0717
 8597SOL    HW226648   6.053   0.147   6.048  0.9133  1.2611 -0.1224
 8598SOL     OW26649   3.044   0.439   0.128 -0.0396 -0.5219 -0.0523
 8598SOL    HW126650   3.115   0.387   0.090  0.9509  1.3070 -0.8471
 8598SOL    HW226651   3.026   0.506   0.062 -1.7878 -0.3105  0.5998
 8599SOL     OW26652   5.273   7.696   4.629 -0.7561  0.3889  0.6595
 8599SOL    HW126653   5.314   7.721   4.712  0.1885 -1.1700  0.6970
 8599SOL    HW226654   5.192   7.652   4.654  0.8214 -2.5919  1.0018
 8600SOL     OW26655   5.698   3.874   4.377 -0.0947  0.2749  0.3961
 8600SOL    HW126656   5.687   3.786   4.341 -0.3722 -0.2567  1.7405
 8600SOL    HW226657   5.650   3.930   4.316  1.8303 -0.1717 -1.6568
 8601SOL     OW26658   3.403   4.820   3.319 -0.0207  0.1295 -0.1035
 8601SOL    HW126659   3.434   4.781   3.238  2.8497 -1.0550  1.4039
 8601SOL    HW226660   3.407   4.915   3.304  1.6544 -0.0503 -0.9852
 8602SOL     OW26661   4.216   3.533   5.902  0.0196 -0.1269 -0.1217
 8602SOL    HW126662   4.235   3.471   5.832 -0.0612 -0.7262  0.3755
 8602SOL    HW226663   4.161   3.484   5.963 -0.4996  0.6035  0.0159
 8603SOL     OW26664   0.526   7.206   4.926 -0.5259 -0.1964 -0.0035
 8603SOL    HW126665   0.594   7.193   4.993  1.2418 -0.3325 -1.7481
 8603SOL    HW226666   0.446   7.221   4.977  0.8027  0.1209  2.1437
 8604SOL     OW26667   5.880   6.143   6.732 -0.7981 -0.3072  0.3833
 8604SOL    HW126668   5.862   6.049   6.727  0.1516 -0.5340  0.8988
 8604SOL    HW226669   5.819   6.176   6.798 -1.3634 -0.4979 -0.0431
 8605SOL     OW26670   1.599   5.329   1.406 -0.3781  0.5126 -0.0441
 8605SOL    HW126671   1.683   5.291   1.431 -0.7068  0.3434  0.8077
 8605SOL    HW226672   1.538   5.255   1.404 -0.7256  0.7842  0.3244
 8606SOL     OW26673   5.663   7.487   5.244  0.0590 -0.8482  0.1353
 8606SOL    HW126674   5.737   7.427   5.233  0.5856 -0.8567  3.0594
 8606SOL    HW226675   5.602   7.439   5.301 -0.4616  0.5966  0.8264
 8607SOL     OW26676   4.538   0.563   7.438 -0.5571  0.5101  0.2134
 8607SOL    HW126677   4.538   0.622   7.362 -0.1477  1.9571  1.2865
 8607SOL    HW226678   4.484   0.609   7.502 -1.9378 -1.2727  0.3992
 8608SOL     OW26679   7.510   1.052   7.378  0.0780  0.3868 -0.0969
 8608SOL    HW126680   7.539   1.143   7.389 -0.0448  0.3112  1.0483
 8608SOL    HW226681   7.505   1.018   7.468 -1.7237 -0.1642 -0.3577
 8609SOL     OW26682   2.313   4.720   7.559 -0.3093 -0.5515 -0.1195
 8609SOL    HW126683   2.270   4.700   7.643  2.7842 -1.5895  1.3563
 8609SOL    HW226684   2.392   4.769   7.583  1.2127 -1.7603 -2.3261
 8610SOL     OW26685   7.810   2.366   4.446 -0.1102 -0.0418  0.4897
 8610SOL    HW126686   7.897   2.383   4.482  0.2246  0.0721 -0.3453
 8610SOL    HW226687   7.762   2.448   4.460  0.8144  0.9382 -1.5517
 8611SOL     OW26688   5.867   2.597   5.392  0.2686 -0.6295 -0.4482
 8611SOL    HW126689   5.829   2.630   5.311 -0.1107  1.1589  0.3864
 8611SOL    HW226690   5.924   2.668   5.422  0.5382 -1.3198  0.7591
 8612SOL     OW26691   2.791   1.208   1.605  0.3800  0.7495 -0.0266
 8612SOL    HW126692   2.703   1.243   1.591 -0.2248 -0.2484  1.1085
 8612SOL    HW226693   2.837   1.224   1.523 -1.6773 -1.0947 -1.6628
 8613SOL     OW26694   5.193   7.104   3.000 -0.1102  0.0909 -0.1187
 8613SOL    HW126695   5.129   7.175   3.001 -0.5351 -0.2621  1.4955
 8613SOL    HW226696   5.162   7.044   2.932 -2.8436 -1.1902  2.0641
 8614SOL     OW26697   6.805   7.066   7.340  0.1598  0.0591 -0.3162
 8614SOL    HW126698   6.754   7.031   7.266  0.6114 -0.0742 -0.5686
 8614SOL    HW226699   6.746   7.130   7.381 -1.3342 -2.1230  1.1609
 8615SOL     OW26700   5.129   2.736   6.328 -0.3905 -0.7391 -0.6420
 8615SOL    HW126701   5.143   2.793   6.404 -0.1191  0.2799 -1.4314
 8615SOL    HW226702   5.217   2.720   6.294 -0.5098 -1.1905 -0.7346
 8616SOL     OW26703   7.688   6.042   1.921 -0.9696  0.5981 -0.2515
 8616SOL    HW126704   7.708   6.086   1.838  0.7058 -1.1791 -0.8868
 8616SOL    HW226705   7.644   5.962   1.895  0.5463 -0.5120  0.4274
 8617SOL     OW26706   3.559   4.349   1.098  0.3233  0.0050  1.0289
 8617SOL    HW126707   3.566   4.267   1.049 -1.2872  0.5289 -0.1602
 8617SOL    HW226708   3.634   4.401   1.069  0.2331 -0.2795  0.2672
 8618SOL     OW26709   0.633   6.567   2.992 -0.0785  0.2913 -0.2589
 8618SOL    HW126710   0.696   6.638   2.999  2.3778 -1.4330 -2.6141
 8618SOL    HW226711   0.685   6.492   2.962 -2.9921 -1.7258 -0.7016
 8619SOL     OW26712   5.985   3.269   7.535 -0.1707  0.1708  0.1330
 8619SOL    HW126713   6.074   3.269   7.498 -1.1883 -1.0809 -2.5372
 8619SOL    HW226714   5.995   3.313   7.620  3.0741 -0.3462  0.1600
 8620SOL     OW26715   3.813   4.145   2.625 -0.4249 -0.1576  0.8389
 8620SOL    HW126716   3.866   4.126   2.702 -0.8994 -0.3566  1.1202
 8620SOL    HW226717   3.723   4.133   2.654 -0.6705  1.0414  0.6072
 8621SOL     OW26718   0.035   3.232   2.042  0.0450  0.1953 -1.0550
 8621SOL    HW126719   0.103   3.236   1.975  0.4697  1.3736 -0.5734
 8621SOL    HW226720   0.015   3.323   2.061 -2.0679 -0.1028 -1.5777
 8622SOL     OW26721   5.352   1.353   4.515 -0.4138  0.2274 -0.2112
 8622SOL    HW126722   5.317   1.385   4.598 -2.4756 -1.2370 -0.4462
 8622SOL    HW226723   5.385   1.265   4.535  1.1478  0.7134 -0.5018
 8623SOL     OW26724   4.767   1.275   7.835  0.2437 -0.6331 -0.4295
 8623SOL    HW126725   4.703   1.227   7.887  0.3102  1.8202  2.2432
 8623SOL    HW226726   4.848   1.269   7.886 -0.0116  3.0092  0.6950
 8624SOL     OW26727   4.862   0.002   2.045 -0.2027  0.1841  0.3691
 8624SOL    HW126728   4.912   0.023   1.966  1.1258  0.4614  1.2533
 8624SOL    HW226729   4.862  -0.094   2.048  1.6296  0.1748  1.1547
 8625SOL     OW26730   6.306   4.223   6.996 -0.5777  0.5045 -0.1126
 8625SOL    HW126731   6.254   4.176   7.061  0.1121  0.1368  0.1866
 8625SOL    HW226732   6.396   4.194   7.012 -0.2835  1.1048 -0.6395
 8626SOL     OW26733   0.623   3.942   4.321  0.4029  0.6294 -0.0368
 8626SOL    HW126734   0.619   3.856   4.363 -1.2156  1.0887  0.8381
 8626SOL    HW226735   0.685   3.931   4.249  0.3939 -1.2059  0.1944
 8627SOL     OW26736   5.822   2.803   4.773  0.2253 -0.0147 -0.4521
 8627SOL    HW126737   5.870   2.879   4.742 -1.8263  1.0796 -1.1024
 8627SOL    HW226738   5.812   2.818   4.867  1.6359 -0.5753 -0.1846
 8628SOL     OW26739   3.367   6.668   0.119 -0.2831 -0.3451 -0.0167
 8628SOL    HW126740   3.284   6.710   0.096 -1.5074 -1.4782  2.1047
 8628SOL    HW226741   3.345   6.607   0.189  2.5153  0.0634  1.3631
 8629SOL     OW26742   4.648   0.745   2.563  0.7186 -0.5069 -0.0977
 8629SOL    HW126743   4.679   0.689   2.634  1.6740 -1.0965 -0.9680
 8629SOL    HW226744   4.565   0.706   2.536  0.4458 -0.3937  0.5422
 8630SOL     OW26745   1.541   1.207   2.947  0.5881  0.4106 -0.3418
 8630SOL    HW126746   1.488   1.224   2.869  0.7844 -1.3792 -0.9019
 8630SOL    HW226747   1.495   1.254   3.017 -1.0000  0.0129 -1.0620
 8631SOL     OW26748   5.873   0.994   7.475 -0.1922  0.0819  0.3778
 8631SOL    HW126749   5.857   0.978   7.382 -0.1105 -1.8678  0.6498
 8631SOL    HW226750   5.968   1.004   7.481 -0.1034 -0.6447  0.3355
 8632SOL     OW26751   1.456   1.315   5.199  0.3973 -0.4552  0.0387
 8632SOL    HW126752   1.549   1.331   5.183  0.8714 -0.7218  2.2432
 8632SOL    HW226753   1.437   1.359   5.282 -1.0350 -1.7643  0.4717
 8633SOL     OW26754   4.781   0.522   4.648  0.2191 -0.1181 -0.4315
 8633SOL    HW126755   4.837   0.582   4.598  0.6424  0.3801  0.6238
 8633SOL    HW226756   4.803   0.539   4.739 -1.5996  0.0228  0.0072
 8634SOL     OW26757   3.571   7.003   2.794  0.6471  0.2856 -0.3400
 8634SOL    HW126758   3.626   6.990   2.717 -1.1291  2.6602 -2.1787
 8634SOL    HW226759   3.535   7.091   2.783 -1.7600 -0.3052  1.8515
 8635SOL     OW26760   4.772   4.466   5.439 -0.3898  0.2590  0.1564
 8635SOL    HW126761   4.758   4.385   5.391 -1.7296  1.1927 -1.1480
 8635SOL    HW226762   4.700   4.469   5.503  0.7843 -0.4744  1.5695
 8636SOL     OW26763   0.127   5.797   4.215 -0.4102  0.8662  0.3452
 8636SOL    HW126764   0.179   5.867   4.255  1.0001  0.3148 -0.4359
 8636SOL    HW226765   0.152   5.719   4.264  0.4929  0.3739 -0.8519
 8637SOL     OW26766   0.326   7.514   6.036 -0.0563  0.2822 -0.0897
 8637SOL    HW126767   0.245   7.562   6.054 -1.0400 -0.0643 -2.9828
 8637SOL    HW226768   0.384   7.578   5.995  0.7110  0.2149  0.8382
 8638SOL     OW26769   5.658   1.817   4.848  0.8918  0.7713  0.4775
 8638SOL    HW126770   5.666   1.908   4.876  0.0108  1.0865 -0.2199
 8638SOL    HW226771   5.614   1.822   4.762 -0.3920 -0.3669  1.0212
 8639SOL     OW26772   1.016   6.074   4.543 -0.0113 -0.2570 -0.0893
 8639SOL    HW126773   0.932   6.092   4.585  0.8826  3.7768  0.4435
 8639SOL    HW226774   1.076   6.056   4.616  0.1417 -0.2518 -0.2132
 8640SOL     OW26775   7.809   7.622   6.441  0.4686 -0.2423  0.4368
 8640SOL    HW126776   7.781   7.586   6.525 -1.2771 -0.2754 -0.1243
 8640SOL    HW226777   7.786   7.555   6.377  0.4787  0.3765 -0.2271
 8641SOL     OW26778   2.266   2.900   6.877  0.6436 -0.0555  0.4355
 8641SOL    HW126779   2.252   2.995   6.874  0.7355 -0.0576 -0.1493
 8641SOL    HW226780   2.178   2.864   6.881  0.5907  0.0370  0.1059
 8642SOL     OW26781   5.386   0.862   1.832  0.2770  0.3167  0.1049
 8642SOL    HW126782   5.398   0.949   1.794 -1.8071  0.8657  0.5553
 8642SOL    HW226783   5.371   0.805   1.756 -2.5161  1.1699 -0.1185
 8643SOL     OW26784   4.310   2.526   0.434  0.1336 -0.5769  0.1588
 8643SOL    HW126785   4.250   2.537   0.508  0.0767  3.0705 -0.2842
 8643SOL    HW226786   4.398   2.533   0.473  0.1451 -0.3243  0.0859
 8644SOL     OW26787   7.019   7.824   3.849 -0.3209  0.5703  0.3440
 8644SOL    HW126788   6.956   7.892   3.874 -0.9461  0.6147 -1.2653
 8644SOL    HW226789   6.980   7.743   3.881  1.0474  0.9825  3.4720
 8645SOL     OW26790   6.317   4.650   2.025 -0.1772  0.7186 -0.2787
 8645SOL    HW126791   6.346   4.558   2.020  3.4670  1.7481 -1.4264
 8645SOL    HW226792   6.263   4.654   2.104  0.8340 -2.1032  0.6818
 8646SOL     OW26793   1.917   1.981   1.810 -0.2608 -0.0878  0.0642
 8646SOL    HW126794   1.849   2.021   1.755 -0.2137  0.5863  0.4784
 8646SOL    HW226795   1.991   1.967   1.750 -0.3370  0.3111 -0.1290
 8647SOL     OW26796   4.425   5.598   0.208  0.3949 -0.3822  1.0208
 8647SOL    HW126797   4.497   5.539   0.185 -0.5236 -1.9967  2.0652
 8647SOL    HW226798   4.436   5.614   0.301  0.4880  0.9247  0.7916
 8648SOL     OW26799   3.507   2.055   6.516  0.1439  0.0911 -0.4494
 8648SOL    HW126800   3.423   2.028   6.553  0.6112  0.1550  0.6824
 8648SOL    HW226801   3.524   2.140   6.556  1.5747 -0.6904  0.6995
 8649SOL     OW26802   5.927   3.032   4.661  0.2421  0.1558 -0.5974
 8649SOL    HW126803   5.852   3.084   4.633  1.5752  1.8188 -1.2432
 8649SOL    HW226804   5.988   3.096   4.697  0.3166 -1.4265  2.4304
 8650SOL     OW26805   6.143   5.618   0.556  0.2448  0.0085  0.2655
 8650SOL    HW126806   6.069   5.598   0.498 -1.4334  0.3977  2.1583
 8650SOL    HW226807   6.215   5.567   0.521 -1.2312 -1.3446 -0.9724
 8651SOL     OW26808   4.687   7.604   2.483 -0.2782 -0.3848 -0.4148
 8651SOL    HW126809   4.608   7.657   2.491  0.1023 -0.0318  1.5857
 8651SOL    HW226810   4.758   7.666   2.467 -0.1119 -0.4943 -0.1135
 8652SOL     OW26811   2.641   2.881   4.401  0.0310  0.2197 -0.3660
 8652SOL    HW126812   2.717   2.868   4.344  0.9629  0.0972  0.8419
 8652SOL    HW226813   2.567   2.887   4.342  1.0563  0.9632 -1.6445
 8653SOL     OW26814   6.010   6.804   1.351 -0.2576  0.8937 -0.4126
 8653SOL    HW126815   5.953   6.842   1.284 -0.4376 -1.3917 -1.6401
 8653SOL    HW226816   6.087   6.773   1.303  0.3584  0.6585  0.6928
 8654SOL     OW26817   6.564   7.734   7.368  0.1534 -0.1122  0.0733
 8654SOL    HW126818   6.581   7.824   7.394  2.1082 -0.5400  0.4688
 8654SOL    HW226819   6.651   7.698   7.347 -0.6507 -1.6945 -0.7501
 8655SOL     OW26820   6.176   0.503   1.825 -0.4207  0.1104 -0.3054
 8655SOL    HW126821   6.127   0.496   1.743 -3.3451 -0.3828  1.3606
 8655SOL    HW226822   6.252   0.558   1.803 -2.0117  1.4556 -2.9270
 8656SOL     OW26823   0.233   1.563   3.515 -0.1015 -0.0870 -0.5499
 8656SOL    HW126824   0.180   1.485   3.530  0.9777 -0.9333 -1.0185
 8656SOL    HW226825   0.254   1.595   3.603  0.4916 -1.0543 -0.3308
 8657SOL     OW26826   7.653   2.705   1.917 -0.3488 -0.3866  0.0934
 8657SOL    HW126827   7.620   2.754   1.842 -0.9178 -2.4393 -1.0777
 8657SOL    HW226828   7.585   2.715   1.984 -1.1471 -0.7310 -0.6460
 8658SOL     OW26829   1.408   2.804   1.680  1.0507  0.5277  0.0248
 8658SOL    HW126830   1.450   2.821   1.595  1.8559  0.3685  0.3775
 8658SOL    HW226831   1.477   2.762   1.732  0.3745  0.0626  0.5564
 8659SOL     OW26832   5.538   3.395   0.887  0.3712  0.0842 -0.1934
 8659SOL    HW126833   5.491   3.366   0.809 -0.8292  0.1214  0.4953
 8659SOL    HW226834   5.625   3.417   0.855 -0.0141 -0.1587 -1.4760
 8660SOL     OW26835   7.342   5.961   6.919  0.6882 -0.7667 -0.0102
 8660SOL    HW126836   7.248   5.947   6.932  0.4102  0.0332 -0.9242
 8660SOL    HW226837   7.346   6.013   6.838  1.5972  3.3786  2.4133
 8661SOL     OW26838   3.202   4.538   2.890 -0.6346 -0.0306 -0.0371
 8661SOL    HW126839   3.164   4.582   2.965  1.8119  0.1645  1.1693
 8661SOL    HW226840   3.292   4.521   2.914  0.1488 -0.3520 -2.7849
 8662SOL     OW26841   7.670   2.089   4.153 -0.6167  0.2375 -0.0064
 8662SOL    HW126842   7.739   2.023   4.162 -0.6509 -0.5396 -3.7851
 8662SOL    HW226843   7.712   2.170   4.182  2.4012 -0.0136 -3.0092
 8663SOL     OW26844   2.614   1.781   3.416  0.0701  0.3070 -0.4528
 8663SOL    HW126845   2.663   1.825   3.486 -1.2298  2.9769 -1.0799
 8663SOL    HW226846   2.677   1.773   3.344  0.8610 -0.6644  0.3207
 8664SOL     OW26847   5.325   6.716   3.006  0.8548 -0.0364  0.2136
 8664SOL    HW126848   5.326   6.679   2.918  1.4335  1.3922 -0.4147
 8664SOL    HW226849   5.234   6.708   3.035 -0.9402  4.5904 -2.8613
 8665SOL     OW26850   7.992   5.856   0.191 -0.2850  0.1322 -0.8174
 8665SOL    HW126851   8.008   5.877   0.098  1.8507 -2.2326 -1.0942
 8665SOL    HW226852   8.049   5.781   0.209 -0.1248  0.9158  2.6277
 8666SOL     OW26853   3.381   0.573   7.364 -0.2061  0.4862 -0.3784
 8666SOL    HW126854   3.447   0.506   7.347 -1.5202 -0.6020 -1.4659
 8666SOL    HW226855   3.417   0.625   7.436  0.5043 -1.9091  1.1119
 8667SOL     OW26856   7.533   5.160   1.425 -0.0967  0.3217  0.3005
 8667SOL    HW126857   7.448   5.173   1.383 -0.1942  0.4473  0.5375
 8667SOL    HW226858   7.587   5.119   1.357  0.1120  1.6237 -0.3511
 8668SOL     OW26859   1.164   0.973   7.440  0.2855 -0.3655 -0.1536
 8668SOL    HW126860   1.143   1.047   7.497 -0.2025 -0.6761  0.0879
 8668SOL    HW226861   1.206   1.012   7.364  2.2379 -0.0630  1.0234
 8669SOL     OW26862   7.661   6.852   5.368 -0.4427 -0.4909  0.5596
 8669SOL    HW126863   7.569   6.877   5.364 -0.3129 -0.1462 -0.6145
 8669SOL    HW226864   7.684   6.862   5.460 -1.3880  0.1174  0.7447
 8670SOL     OW26865   5.082   6.086   1.251 -0.0020  0.0822 -0.2424
 8670SOL    HW126866   5.081   6.075   1.156 -0.0648 -0.3448 -0.1929
 8670SOL    HW226867   5.174   6.083   1.275 -0.0855 -3.4678  0.1173
 8671SOL     OW26868   4.738   5.112   1.647 -0.4549 -0.4852  0.4694
 8671SOL    HW126869   4.681   5.158   1.708  0.7306  0.7838  0.6483
 8671SOL    HW226870   4.811   5.172   1.631  0.8231 -2.0393  0.2027
 8672SOL     OW26871   1.405   3.387   1.037  0.3899  0.2214 -0.0771
 8672SOL    HW126872   1.350   3.432   1.101  0.2152  1.1346 -0.8374
 8672SOL    HW226873   1.345   3.356   0.969  0.6817  0.2198 -0.3416
 8673SOL     OW26874   0.872   4.310   3.297 -0.1137  0.4984  0.3665
 8673SOL    HW126875   0.781   4.339   3.295 -0.4918 -0.5403  1.2817
 8673SOL    HW226876   0.878   4.246   3.226  0.3347  1.6822 -0.7000
 8674SOL     OW26877   5.935   4.998   1.635 -0.4571  0.2291  0.0104
 8674SOL    HW126878   5.962   4.964   1.550 -0.5993  0.0277  0.0447
 8674SOL    HW226879   6.017   5.017   1.680 -0.3348 -1.1903  0.4393
 8675SOL     OW26880   5.965   1.436   5.302  0.6135 -0.3757 -0.1270
 8675SOL    HW126881   5.874   1.452   5.280  0.9445  1.8997 -0.0490
 8675SOL    HW226882   6.009   1.428   5.217  0.2159 -2.6717 -0.1775
 8676SOL     OW26883   6.398   5.250   5.415  0.3000  0.6728  0.2578
 8676SOL    HW126884   6.399   5.207   5.329  1.7598 -2.3194  1.6074
 8676SOL    HW226885   6.488   5.280   5.427 -0.0055  1.4769  0.5949
 8677SOL     OW26886   5.181   3.727   6.298  0.1341  0.1026  0.4609
 8677SOL    HW126887   5.244   3.666   6.334  0.4103 -0.1292 -0.3915
 8677SOL    HW226888   5.098   3.679   6.297  0.4844 -0.5274 -0.8335
 8678SOL     OW26889   6.959   6.091   7.128 -0.0065  0.0193  0.1084
 8678SOL    HW126890   6.926   6.161   7.071 -0.6876  0.2472  0.7740
 8678SOL    HW226891   6.896   6.086   7.200  0.7984 -0.3215  0.8067
 8679SOL     OW26892   1.313   4.788   6.504 -0.2600 -0.1022 -0.2932
 8679SOL    HW126893   1.241   4.764   6.561  1.0782  0.2042  1.6139
 8679SOL    HW226894   1.360   4.857   6.550  1.6777 -0.7940 -1.0797
 8680SOL     OW26895   3.770   7.848   5.456  0.2586  0.6144 -0.2139
 8680SOL    HW126896   3.697   7.791   5.431  0.7097 -0.1810  0.2503
 8680SOL    HW226897   3.829   7.791   5.505  0.0408  1.8032  1.5078
 8681SOL     OW26898   3.196   0.212   6.510  0.0586  0.0320  0.1570
 8681SOL    HW126899   3.158   0.267   6.578 -0.2415 -1.5385  1.3068
 8681SOL    HW226900   3.170   0.254   6.428 -0.9895  1.0376  0.9749
 8682SOL     OW26901   3.465   5.367   3.926  0.2406  0.3407 -0.3691
 8682SOL    HW126902   3.444   5.295   3.985 -0.2785  0.5645 -0.2761
 8682SOL    HW226903   3.381   5.410   3.910  0.5429  0.9097 -0.4438
 8683SOL     OW26904   5.670   7.969   1.710  0.1793 -0.2087 -0.1843
 8683SOL    HW126905   5.622   7.892   1.742 -0.1094  0.4097  0.9191
 8683SOL    HW226906   5.759   7.956   1.742  0.2949 -0.4227 -0.5935
 8684SOL     OW26907   6.876   3.088   1.834  0.3381  0.3652  0.1106
 8684SOL    HW126908   6.896   3.007   1.787 -1.7249 -0.2526  0.1928
 8684SOL    HW226909   6.811   3.132   1.779  0.6578  1.4794  0.5880
 8685SOL     OW26910   1.159   4.768   1.539  0.1284 -0.0671  0.0693
 8685SOL    HW126911   1.065   4.781   1.523 -0.0428 -0.3336  0.8346
 8685SOL    HW226912   1.170   4.782   1.633  0.8279 -0.2301  0.0210
 8686SOL     OW26913   1.666   2.043   5.286 -0.3740 -0.0432 -0.1978
 8686SOL    HW126914   1.585   2.033   5.236  0.2780 -0.2386 -1.2538
 8686SOL    HW226915   1.687   2.136   5.280 -1.5062  0.3956  1.7173
 8687SOL     OW26916   6.047   5.709   3.907  0.3069  0.0478 -0.3708
 8687SOL    HW126917   5.998   5.698   3.989  1.0555 -1.4534 -0.0895
 8687SOL    HW226918   6.136   5.681   3.929  0.7070  0.3636 -1.5137
 8688SOL     OW26919   6.229   1.208   7.997 -0.1362 -0.1710 -0.0657
 8688SOL    HW126920   6.321   1.229   8.011  0.0392 -1.4436  0.8755
 8688SOL    HW226921   6.195   1.188   8.084 -2.0217  2.8593  0.0273
 8689SOL     OW26922   0.312   0.291   2.081  0.0807  0.1426  0.1376
 8689SOL    HW126923   0.326   0.295   1.987 -0.1563  0.7399  0.1209
 8689SOL    HW226924   0.361   0.365   2.116 -0.3139  0.2787  0.4177
 8690SOL     OW26925   2.192   4.446   4.513  0.1657  1.0746 -0.2413
 8690SOL    HW126926   2.265   4.494   4.473  2.0458  0.2987  2.0060
 8690SOL    HW226927   2.199   4.358   4.477  0.9612  0.7606  0.6284
 8691SOL     OW26928   1.925   1.143   1.843  0.2756 -0.1340 -0.2715
 8691SOL    HW126929   1.937   1.213   1.779  0.8431 -0.5048 -0.5838
 8691SOL    HW226930   2.009   1.136   1.887  0.2848 -0.7515 -0.3797
 8692SOL     OW26931   7.428   2.121   5.914 -0.1371 -0.0258 -0.1903
 8692SOL    HW126932   7.449   2.175   5.837  1.9051  1.1234  1.0567
 8692SOL    HW226933   7.404   2.185   5.981  0.2906 -0.8225  0.7403
 8693SOL     OW26934   0.848   3.769   4.920  0.0248  0.3957 -0.1821
 8693SOL    HW126935   0.779   3.761   4.854  1.7345  0.7616 -2.0888
 8693SOL    HW226936   0.833   3.854   4.961  0.5220  1.3854 -1.9985
 8694SOL     OW26937   7.608   2.469   5.882  0.3208 -0.2754 -0.4184
 8694SOL    HW126938   7.552   2.530   5.930  1.7070  0.6125  0.1396
 8694SOL    HW226939   7.658   2.423   5.950  1.9924  0.6881 -0.9112
 8695SOL     OW26940   7.572   0.780   5.403 -0.2325  0.4801  0.0458
 8695SOL    HW126941   7.518   0.857   5.385  0.0508  1.0373  1.4071
 8695SOL    HW226942   7.510   0.713   5.433 -0.5268  0.0123 -1.5059
 8696SOL     OW26943   0.555   2.473   6.832  0.6090 -0.0511  0.1185
 8696SOL    HW126944   0.559   2.512   6.919  0.2089 -0.2408  0.2286
 8696SOL    HW226945   0.540   2.547   6.773 -0.6848 -0.0808  0.3825
 8697SOL     OW26946   4.983   6.113   0.387  0.2377 -0.0364 -0.1053
 8697SOL    HW126947   5.032   6.192   0.366  0.4689  0.8391  3.0792
 8697SOL    HW226948   4.987   6.060   0.308  1.1472  2.5720 -1.9601
 8698SOL     OW26949   3.142   6.973   4.305  0.3643  0.3127 -0.5416
 8698SOL    HW126950   3.057   6.996   4.269  0.3619  2.9887  0.9067
 8698SOL    HW226951   3.200   6.968   4.229 -1.3001 -3.5716 -1.8114
 8699SOL     OW26952   4.679   4.411   3.831  0.3584  0.4334  0.2543
 8699SOL    HW126953   4.619   4.483   3.810 -0.5905  0.0356  1.5331
 8699SOL    HW226954   4.630   4.332   3.812  0.5342  0.0993  1.1378
 8700SOL     OW26955   5.434   2.658   4.307  1.4598 -0.1284  0.0608
 8700SOL    HW126956   5.494   2.583   4.301  2.4734  0.6840 -0.4182
 8700SOL    HW226957   5.402   2.656   4.397  2.0358 -0.7272  0.2655
 8701SOL     OW26958   5.570   4.642   4.441 -0.2511 -0.1076  0.6656
 8701SOL    HW126959   5.591   4.727   4.479  0.6489 -1.2492  2.9088
 8701SOL    HW226960   5.650   4.591   4.452 -0.3275 -0.8953 -1.8410
 8702SOL     OW26961   6.395   7.911   6.995 -0.0115 -0.7113  0.2651
 8702SOL    HW126962   6.464   7.969   7.026  0.3998  0.0878 -1.9566
 8702SOL    HW226963   6.399   7.917   6.900 -1.3918 -2.7450  0.0004
 8703SOL     OW26964   3.738   1.881   4.073  0.1936  0.0076 -0.0182
 8703SOL    HW126965   3.735   1.876   3.977 -1.0752  0.6823 -0.0387
 8703SOL    HW226966   3.693   1.802   4.102  0.4574 -0.1284  0.0246
 8704SOL     OW26967   3.930   0.779   4.505  0.3899 -0.0559 -0.1417
 8704SOL    HW126968   3.928   0.709   4.571  0.5567 -0.0689 -0.1480
 8704SOL    HW226969   3.911   0.859   4.554 -0.2806 -0.1668 -0.2197
 8705SOL     OW26970   2.824   4.842   4.509  0.2561  0.4125  0.1417
 8705SOL    HW126971   2.747   4.792   4.484  2.1995 -2.3711 -0.6290
 8705SOL    HW226972   2.831   4.829   4.604  0.3693 -0.1908  0.0495
 8706SOL     OW26973   0.239   4.887   1.328 -0.2856 -0.3059  0.0901
 8706SOL    HW126974   0.266   4.856   1.242  1.7657 -0.1490  0.6400
 8706SOL    HW226975   0.221   4.807   1.378  0.2931 -0.4672  0.0494
 8707SOL     OW26976   5.466   0.657   7.251 -0.2320  0.0810 -0.3620
 8707SOL    HW126977   5.384   0.703   7.270  0.8195  2.6223 -1.4994
 8707SOL    HW226978   5.526   0.688   7.319  0.5477  0.6059 -1.2632
 8708SOL     OW26979   4.608   1.885   4.626  0.1091  0.3405 -0.3522
 8708SOL    HW126980   4.657   1.805   4.605 -0.1782 -0.3272  1.3812
 8708SOL    HW226981   4.633   1.906   4.716 -2.3496  0.2803  0.4058
 8709SOL     OW26982   0.254   3.350   2.510 -0.2675 -0.0257 -0.1894
 8709SOL    HW126983   0.248   3.432   2.460  1.3346 -0.2832 -0.8593
 8709SOL    HW226984   0.226   3.282   2.448  1.0904 -0.2714 -0.5690
 8710SOL     OW26985   5.476   1.762   3.374 -0.3495  0.5979  1.1996
 8710SOL    HW126986   5.391   1.778   3.417 -0.3878  0.3623  1.2138
 8710SOL    HW226987   5.505   1.678   3.410 -0.0527  0.7356  1.2840
 8711SOL     OW26988   6.174   5.779   4.281  0.3831 -1.0464  0.3829
 8711SOL    HW126989   6.243   5.750   4.222 -0.7005  0.6523 -1.8858
 8711SOL    HW226990   6.220   5.830   4.348  1.3709  2.3388 -2.4922
 8712SOL     OW26991   2.913   3.970   5.887  0.6449 -0.4421  0.0180
 8712SOL    HW126992   2.904   3.896   5.946  0.9649 -0.2797  0.2754
 8712SOL    HW226993   2.967   4.033   5.935 -1.1861  0.7804  0.6176
 8713SOL     OW26994   4.977   6.603   4.618  0.2982 -0.0190  0.1120
 8713SOL    HW126995   4.931   6.687   4.618 -1.6229 -1.0244  0.0157
 8713SOL    HW226996   4.942   6.557   4.694  3.1990  0.1908  1.6925
 8714SOL     OW26997   6.126   4.632   2.203 -0.2220  0.0315 -0.4383
 8714SOL    HW126998   6.095   4.679   2.280  1.6348  2.6859 -1.1745
 8714SOL    HW226999   6.070   4.662   2.132  0.3561  0.4217 -0.7403
 8715SOL     OW27000   0.640   5.276   5.202 -0.3037 -0.5421 -0.0690
 8715SOL    HW127001   0.610   5.308   5.117 -0.1665  0.1173  0.1238
 8715SOL    HW227002   0.561   5.275   5.256 -0.3691 -0.8536 -0.1640
 8716SOL     OW27003   1.437   5.326   1.008 -0.1841 -0.2161  0.6628
 8716SOL    HW127004   1.358   5.337   1.061 -0.6590 -0.9903  0.1336
 8716SOL    HW227005   1.409   5.345   0.918  0.0817 -1.0624  0.3913
 8717SOL     OW27006   5.117   1.023   6.328 -0.0833 -0.2061  0.7669
 8717SOL    HW127007   5.180   0.956   6.302 -2.2726 -1.5824 -1.3111
 8717SOL    HW227008   5.067   1.042   6.249 -1.2676  2.0366  1.9353
 8718SOL     OW27009   4.883   4.324   2.676  0.2161 -0.3035  0.1582
 8718SOL    HW127010   4.958   4.265   2.670  0.5823  0.2151 -0.5317
 8718SOL    HW227011   4.867   4.352   2.585  0.7758  1.5368  0.5766
 8719SOL     OW27012   4.108   3.035   3.214  0.2574  0.4709  0.2000
 8719SOL    HW127013   4.112   2.950   3.259  0.3789  0.8399  0.8974
 8719SOL    HW227014   4.067   3.094   3.277  0.4058  0.9921 -0.1841
 8720SOL     OW27015   6.578   3.765   0.686  0.3852 -0.1351 -0.8784
 8720SOL    HW127016   6.565   3.681   0.730  0.0960  0.5204  0.3457
 8720SOL    HW227017   6.510   3.822   0.722  1.2734  0.9391 -0.8151
 8721SOL     OW27018   5.945   5.333   2.321 -0.5368  0.6145 -0.4368
 8721SOL    HW127019   5.984   5.300   2.240  2.2126 -0.3116  1.1197
 8721SOL    HW227020   5.932   5.427   2.305 -0.9262  0.2926 -2.2185
 8722SOL     OW27021   6.438   2.263   1.998 -0.7115  0.4892 -0.4940
 8722SOL    HW127022   6.458   2.176   2.030 -1.6641  0.8071  1.0564
 8722SOL    HW227023   6.398   2.248   1.912  0.7458 -0.4587 -1.0452
 8723SOL     OW27024   4.522   6.337   3.717 -0.8767 -0.3001  0.3465
 8723SOL    HW127025   4.558   6.251   3.737  0.0468  0.2461  1.1027
 8723SOL    HW227026   4.431   6.332   3.746 -0.5365 -0.6871  1.3827
 8724SOL     OW27027   6.439   6.871   4.932  0.8212  0.4425  0.5184
 8724SOL    HW127028   6.516   6.870   4.990  0.8033 -1.1067  0.5491
 8724SOL    HW227029   6.424   6.779   4.910  1.3246  0.9796 -2.6064
 8725SOL     OW27030   6.994   5.291   4.942 -0.4266 -0.6426 -0.5867
 8725SOL    HW127031   6.992   5.282   4.846 -0.8854  1.0880 -0.7611
 8725SOL    HW227032   6.917   5.241   4.971  0.2464 -1.9894 -1.0142
 8726SOL     OW27033   2.375   6.075   0.248  0.2087  0.1301 -0.5147
 8726SOL    HW127034   2.289   6.081   0.289 -0.0996  0.1691 -1.1459
 8726SOL    HW227035   2.367   6.002   0.186  0.7703 -0.1585 -0.2524
 8727SOL     OW27036   0.069   1.137   3.296  0.2836  0.0842 -0.4108
 8727SOL    HW127037   0.095   1.149   3.205  0.8181 -1.1482 -0.4419
 8727SOL    HW227038  -0.018   1.176   3.302  1.0666  2.0406 -0.9258
 8728SOL     OW27039   1.244   4.064   1.579  0.1957 -0.1610  0.6462
 8728SOL    HW127040   1.269   4.103   1.662 -2.3874  2.5628  0.3272
 8728SOL    HW227041   1.288   4.117   1.513 -1.9540  1.2710  0.2506
 8729SOL     OW27042   5.655   2.610   5.799  0.0719 -0.1439 -0.0436
 8729SOL    HW127043   5.562   2.612   5.775  0.0822 -0.7768 -0.1402
 8729SOL    HW227044   5.672   2.698   5.835 -0.3073  0.3125 -0.9582
 8730SOL     OW27045   4.242   6.755   4.361  0.3113  0.2420 -0.3716
 8730SOL    HW127046   4.305   6.683   4.353 -1.2073 -1.0598 -1.2203
 8730SOL    HW227047   4.211   6.749   4.452 -2.2613 -2.4520 -1.2664
 8731SOL     OW27048   5.285   7.051   4.661 -0.1017 -0.5167  0.2654
 8731SOL    HW127049   5.250   6.999   4.589 -2.3802  3.1987 -1.6498
 8731SOL    HW227050   5.258   7.005   4.740 -2.8650 -1.7425 -1.2567
 8732SOL     OW27051   6.006   5.787   1.098 -0.2424  0.5124  0.5129
 8732SOL    HW127052   5.973   5.808   1.011 -0.4083 -0.7012  0.2729
 8732SOL    HW227053   6.097   5.763   1.084 -0.9192 -2.2137  0.2502
 8733SOL     OW27054   6.285   5.444   7.340  0.5788  0.3687 -0.0294
 8733SOL    HW127055   6.192   5.422   7.336  0.8620 -0.7549 -0.7034
 8733SOL    HW227056   6.326   5.368   7.382  1.1000  1.2125  1.0440
 8734SOL     OW27057   6.461   1.338   0.515 -0.1559 -0.4106 -0.2175
 8734SOL    HW127058   6.546   1.296   0.530 -0.1241 -0.0846  0.5753
 8734SOL    HW227059   6.480   1.407   0.451  0.5126  0.6259  1.0241
 8735SOL     OW27060   4.238   3.891   1.269 -0.0225  0.1273 -0.0353
 8735SOL    HW127061   4.189   3.809   1.275  0.0764  0.0676 -0.0374
 8735SOL    HW227062   4.255   3.916   1.360  2.0306 -1.1088 -0.0079
 8736SOL     OW27063   7.526   4.197   2.731  0.0734  0.5209 -0.0607
 8736SOL    HW127064   7.573   4.265   2.780 -3.1244  2.6790  0.3506
 8736SOL    HW227065   7.461   4.165   2.793 -0.1827 -1.0560 -1.1034
 8737SOL     OW27066   3.249   0.052   1.323 -0.0862 -0.4048  0.1300
 8737SOL    HW127067   3.283   0.137   1.296  0.9213 -1.0328 -0.6743
 8737SOL    HW227068   3.155   0.057   1.305 -0.2515  0.9498  1.2600
 8738SOL     OW27069   2.015   1.430   5.961  0.4392  0.8610 -0.5166
 8738SOL    HW127070   2.040   1.356   5.906 -4.0441 -1.0658 -0.4082
 8738SOL    HW227071   2.058   1.413   6.045  0.0241 -1.4140 -0.6942
 8739SOL     OW27072   1.123   1.522   7.867 -0.3514  0.1790 -0.2700
 8739SOL    HW127073   1.059   1.591   7.878 -0.7739 -0.1389 -0.7261
 8739SOL    HW227074   1.111   1.466   7.944 -0.0185  0.5913  0.0918
 8740SOL     OW27075   1.574   6.732   4.218  0.8068 -0.3191 -0.1501
 8740SOL    HW127076   1.591   6.745   4.124 -0.6897 -0.9485 -0.5428
 8740SOL    HW227077   1.629   6.797   4.262  1.7842 -0.2373 -1.4448
 8741SOL     OW27078   4.741   2.667   5.144 -0.5832 -0.4147 -0.8482
 8741SOL    HW127079   4.735   2.761   5.128  0.9836 -0.2621 -0.7041
 8741SOL    HW227080   4.802   2.634   5.078  0.4844 -0.9580  0.3476
 8742SOL     OW27081   0.922   2.584   2.961 -0.2714 -0.0293 -0.6417
 8742SOL    HW127082   0.861   2.550   3.026  0.1532 -0.0718 -0.2629
 8742SOL    HW227083   0.981   2.641   3.010 -1.0448  1.3778 -1.2971
 8743SOL     OW27084   7.648   1.409   1.900 -0.2838 -0.3534  0.0976
 8743SOL    HW127085   7.656   1.502   1.923  1.1871 -0.5257  0.3276
 8743SOL    HW227086   7.727   1.390   1.849 -0.5410 -1.5071  0.1117
 8744SOL     OW27087   0.212   1.672   7.647  0.1282 -0.0421  0.2019
 8744SOL    HW127088   0.154   1.682   7.723  1.2386  0.1303  1.0612
 8744SOL    HW227089   0.247   1.584   7.655  1.3334  0.4520  0.7200
 8745SOL     OW27090   2.175   3.456   2.579 -0.1065 -0.3302 -0.1952
 8745SOL    HW127091   2.257   3.499   2.606  0.6427 -2.5070  1.2932
 8745SOL    HW227092   2.116   3.529   2.556  1.8527  1.3492 -0.2374
 8746SOL     OW27093   1.267   4.365   4.711 -0.3024  0.1357  0.4551
 8746SOL    HW127094   1.278   4.444   4.764 -0.1127  0.3366  0.1165
 8746SOL    HW227095   1.172   4.351   4.709 -0.5618  1.7348 -1.4715
 8747SOL     OW27096   6.456   7.960   7.722 -0.1328  0.5418  0.6325
 8747SOL    HW127097   6.447   7.961   7.817 -1.4389 -1.0949  0.5657
 8747SOL    HW227098   6.369   7.937   7.690  0.6092 -0.3239 -0.8789
 8748SOL     OW27099   3.851   6.564   0.030 -0.4848  1.3750  0.3662
 8748SOL    HW127100   3.811   6.487  -0.009 -0.2589  0.4855  1.8350
 8748SOL    HW227101   3.887   6.613  -0.045 -1.6048  0.6484 -0.6781
 8749SOL     OW27102   2.567   4.646   5.543  0.1290 -0.1711  0.2390
 8749SOL    HW127103   2.607   4.595   5.614  0.5470 -0.3047 -0.0934
 8749SOL    HW227104   2.473   4.638   5.559  0.1753 -1.3655 -0.0236
 8750SOL     OW27105   7.492   4.769   5.855  0.3605  0.2953  0.1050
 8750SOL    HW127106   7.447   4.847   5.821 -0.8544 -0.2250  0.4591
 8750SOL    HW227107   7.423   4.718   5.896  1.1294 -1.0200 -0.1920
 8751SOL     OW27108   7.037   5.037   7.900 -0.7078  0.3417 -0.3547
 8751SOL    HW127109   7.043   4.962   7.959 -1.8666  0.9961  0.6398
 8751SOL    HW227110   7.026   4.998   7.813  1.7696 -0.6439 -0.2977
 8752SOL     OW27111   7.428   4.379   4.792  0.1405 -0.0301  0.2594
 8752SOL    HW127112   7.396   4.299   4.835 -1.6458  1.1240  1.2048
 8752SOL    HW227113   7.356   4.406   4.735  0.2231  1.5135  0.8360
 8753SOL     OW27114   7.994   6.138   2.575  0.2032  0.0676  0.2208
 8753SOL    HW127115   8.075   6.139   2.524 -0.0918  2.7849 -0.3181
 8753SOL    HW227116   7.929   6.178   2.518 -2.1148 -3.6298 -0.0899
 8754SOL     OW27117   0.432   7.357   3.307 -0.0011  0.1335 -0.2099
 8754SOL    HW127118   0.467   7.385   3.392  0.6853 -1.9105  0.2329
 8754SOL    HW227119   0.510   7.335   3.256 -0.2699  3.0423 -2.1040
 8755SOL     OW27120   5.347   7.161   2.226 -0.1402  0.2569  0.3182
 8755SOL    HW127121   5.274   7.221   2.208 -0.8804 -0.5311  0.6232
 8755SOL    HW227122   5.320   7.078   2.184  2.4415  1.0150 -3.3526
 8756SOL     OW27123   3.666   0.051   4.944 -0.0757  0.3871  0.0917
 8756SOL    HW127124   3.729   0.005   4.888  0.4850 -0.2557  1.2273
 8756SOL    HW227125   3.686   0.022   5.033 -1.7011  0.5034  0.5315
 8757SOL     OW27126   6.451   2.592   1.203 -0.2899  0.1905  0.2875
 8757SOL    HW127127   6.402   2.510   1.194  0.7918 -0.5909  1.0575
 8757SOL    HW227128   6.439   2.637   1.120  0.2859 -1.4583 -0.7469
 8758SOL     OW27129   0.472   2.882   4.026  0.0308  0.0152 -0.1106
 8758SOL    HW127130   0.447   2.942   3.956  0.9073  0.8031  0.2390
 8758SOL    HW227131   0.467   2.795   3.985 -1.8625  0.2364 -0.4390
 8759SOL     OW27132   1.660   0.252   7.459  0.2811 -0.2344  0.0353
 8759SOL    HW127133   1.592   0.319   7.449 -1.0613 -1.7125 -1.4838
 8759SOL    HW227134   1.628   0.196   7.530  0.2785 -0.4977 -0.1705
 8760SOL     OW27135   3.430   4.678   6.701  0.5109 -0.4145 -0.4931
 8760SOL    HW127136   3.438   4.649   6.610  2.8990 -0.0366 -0.4611
 8760SOL    HW227137   3.394   4.602   6.747 -2.5827 -0.0068 -1.9788
 8761SOL     OW27138   4.146   5.732   2.692 -0.1761  0.1768 -0.3528
 8761SOL    HW127139   4.062   5.728   2.646 -0.2019 -0.1691 -0.2775
 8761SOL    HW227140   4.171   5.825   2.689 -2.2247  0.9931  2.6162
 8762SOL     OW27141   7.432   6.102   2.962  0.1404  0.0921  0.2606
 8762SOL    HW127142   7.400   6.067   2.879  1.6224  0.1599 -0.3710
 8762SOL    HW227143   7.514   6.055   2.978  0.8227  1.3817  0.7383
 8763SOL     OW27144   4.557   1.629   2.521  0.2006 -0.8894 -0.0695
 8763SOL    HW127145   4.629   1.666   2.571 -0.9869  1.2588  0.1807
 8763SOL    HW227146   4.498   1.593   2.587 -0.4418  0.2216 -0.0076
 8764SOL     OW27147   7.716   0.970   1.061  0.3404 -0.7482  0.4467
 8764SOL    HW127148   7.678   1.026   1.128  1.1114  0.9017 -0.4283
 8764SOL    HW227149   7.797   0.937   1.100  1.5015  1.3205 -0.1078
 8765SOL     OW27150   4.250   1.473   7.386  0.0570  0.2225 -0.5313
 8765SOL    HW127151   4.164   1.511   7.370 -0.5679 -0.6548  0.5919
 8765SOL    HW227152   4.309   1.523   7.330 -1.1213  1.0745 -1.0585
 8766SOL     OW27153   0.959   6.395   4.584  0.3892 -0.3106  0.1477
 8766SOL    HW127154   0.906   6.316   4.598 -0.7522  0.3387 -0.3635
 8766SOL    HW227155   0.903   6.453   4.532  1.7379  0.2713 -0.7235
 8767SOL     OW27156   6.695   3.272   4.338  0.4099  0.4984  0.5055
 8767SOL    HW127157   6.624   3.208   4.331  3.1238 -2.6813 -0.6618
 8767SOL    HW227158   6.696   3.297   4.430 -2.1041  0.6385  0.5739
 8768SOL     OW27159   2.377   4.862   1.817 -0.5593  0.2770 -0.4516
 8768SOL    HW127160   2.364   4.904   1.903  0.1398 -2.0803  0.8753
 8768SOL    HW227161   2.471   4.868   1.801 -0.4029 -0.9878 -0.0990
 8769SOL     OW27162   2.117   5.766   1.643  0.1636  0.2885 -0.4580
 8769SOL    HW127163   2.196   5.751   1.592  0.0719  3.8306 -1.9205
 8769SOL    HW227164   2.045   5.752   1.581 -0.1052  1.5204 -0.4411
 8770SOL     OW27165   1.968   0.655   6.050  0.2660 -0.0585 -0.0477
 8770SOL    HW127166   1.887   0.678   6.004  0.5442  0.2598 -0.3813
 8770SOL    HW227167   2.032   0.639   5.981  0.2063 -1.4062  0.1886
 8771SOL     OW27168   1.588   4.371   3.060  0.3872 -0.0534  0.0621
 8771SOL    HW127169   1.549   4.417   2.986  1.3401  0.8385  0.0786
 8771SOL    HW227170   1.586   4.278   3.035 -1.6853 -0.0416  0.0785
 8772SOL     OW27171   7.510   2.610   4.873 -0.5007  0.0586  0.3536
 8772SOL    HW127172   7.584   2.549   4.875  0.5538  1.1786  3.6848
 8772SOL    HW227173   7.518   2.655   4.789  1.4586 -1.1732 -0.2035
 8773SOL     OW27174   2.446   6.223   7.544  0.0754  0.4145 -0.2102
 8773SOL    HW127175   2.527   6.217   7.493 -0.3164 -0.1225 -0.7950
 8773SOL    HW227176   2.377   6.227   7.478 -0.5198 -1.4119  0.2392
 8774SOL     OW27177   6.433   6.568   2.030  0.5672  0.5908  0.2404
 8774SOL    HW127178   6.481   6.550   1.948  0.2417 -0.3999  0.2551
 8774SOL    HW227179   6.362   6.626   2.003  0.8356  0.7862 -0.0641
 8775SOL     OW27180   3.767   4.731   5.265 -0.1094  0.1689  0.0899
 8775SOL    HW127181   3.845   4.737   5.320  0.0806  0.2475 -0.1859
 8775SOL    HW227182   3.792   4.775   5.184 -0.5498  0.4819  0.1227
 8776SOL     OW27183   6.899   5.628   4.621 -0.2051 -0.4478  0.0915
 8776SOL    HW127184   6.960   5.664   4.685 -3.0796  2.3115  1.5701
 8776SOL    HW227185   6.942   5.642   4.536  0.8814  2.2770  0.9817
 8777SOL     OW27186   0.168   3.697   4.150 -0.1789 -0.0748 -0.1652
 8777SOL    HW127187   0.222   3.619   4.159  1.2953  0.6550 -1.9981
 8777SOL    HW227188   0.204   3.758   4.214  0.8248  0.1902 -0.9486
 8778SOL     OW27189   6.546   4.321   2.939 -0.7671 -0.8172 -0.8542
 8778SOL    HW127190   6.464   4.299   2.983 -1.4664  0.7270 -1.2942
 8778SOL    HW227191   6.546   4.417   2.936  2.2750 -0.6212  1.3461
 8779SOL     OW27192   3.916   0.032   1.587  0.1653  0.3379 -0.0822
 8779SOL    HW127193   3.960  -0.025   1.650  0.8450 -0.1519 -0.9658
 8779SOL    HW227194   3.975   0.034   1.512 -1.4250 -0.5384 -1.4199
 8780SOL     OW27195   2.352   2.991   2.903 -0.0144  0.5231 -0.6185
 8780SOL    HW127196   2.341   2.902   2.939  2.0349  0.1835 -0.7403
 8780SOL    HW227197   2.363   3.046   2.980  1.6795  0.1983 -0.5987
 8781SOL     OW27198   3.852   5.937   1.526 -0.4045 -0.3700  0.2718
 8781SOL    HW127199   3.885   6.019   1.489 -1.1452 -0.0425  0.3188
 8781SOL    HW227200   3.769   5.961   1.568 -0.2080 -0.9810  1.0365
 8782SOL     OW27201   0.115   5.330   5.988 -0.1622 -0.1553  0.5626
 8782SOL    HW127202   0.081   5.347   5.900  0.3689  0.8535  0.5451
 8782SOL    HW227203   0.122   5.234   5.992 -1.3396 -0.2860 -0.0423
 8783SOL     OW27204   7.443   2.994   6.313 -0.1192 -0.0422 -0.3937
 8783SOL    HW127205   7.432   3.075   6.262 -1.2601  0.4405  0.5820
 8783SOL    HW227206   7.416   3.017   6.402  0.3411 -1.2892  0.0977
 8784SOL     OW27207   2.181   6.517   2.308 -0.4604 -0.0936  0.2388
 8784SOL    HW127208   2.227   6.469   2.377 -0.3029 -1.0730 -0.5266
 8784SOL    HW227209   2.238   6.591   2.289  0.5746 -0.9973 -0.3165
 8785SOL     OW27210   3.782   6.751   1.430 -0.3354 -0.5057 -0.3344
 8785SOL    HW127211   3.802   6.781   1.518 -0.6624 -1.2335 -0.0056
 8785SOL    HW227212   3.724   6.676   1.442 -0.9139 -0.2174 -1.1814
 8786SOL     OW27213   2.985   1.475   0.803  0.3634 -0.2691  0.1783
 8786SOL    HW127214   2.986   1.422   0.883  2.8774 -0.2548  0.2299
 8786SOL    HW227215   3.012   1.415   0.734  1.5519  0.4788 -0.0454
 8787SOL     OW27216   2.778   7.232   6.955 -0.1005  0.1000 -0.5815
 8787SOL    HW127217   2.788   7.295   7.026  0.0015 -1.1335  0.5643
 8787SOL    HW227218   2.859   7.238   6.905 -0.0021  0.7061 -0.3545
 8788SOL     OW27219   5.869   4.447   3.048  0.0498  0.2609 -0.3086
 8788SOL    HW127220   5.806   4.493   3.103  0.0970 -0.3860  0.3116
 8788SOL    HW227221   5.816   4.381   3.002  0.2735 -0.3888  0.3322
 8789SOL     OW27222   3.964   4.114   6.970  0.0466  0.6809 -0.0629
 8789SOL    HW127223   3.994   4.073   6.889 -1.4508  0.4614 -0.5336
 8789SOL    HW227224   3.877   4.146   6.950  0.2507  2.0001  1.0224
 8790SOL     OW27225   5.618   4.845   4.668 -0.0601 -0.1442 -0.2078
 8790SOL    HW127226   5.643   4.924   4.621  0.9846  0.2633  0.9646
 8790SOL    HW227227   5.684   4.836   4.737 -2.0124 -0.1815  1.7808
 8791SOL     OW27228   1.896   3.563   4.433 -0.1812 -0.0812  0.3283
 8791SOL    HW127229   1.947   3.487   4.462 -0.5776  0.0973  1.5708
 8791SOL    HW227230   1.958   3.635   4.434 -0.3584  0.0741  1.5327
 8792SOL     OW27231   4.283   7.193   5.319  0.8841  0.2095  0.1189
 8792SOL    HW127232   4.210   7.138   5.289  0.3719  0.4058  0.9617
 8792SOL    HW227233   4.295   7.257   5.248 -1.7114  2.0016  1.1447
 8793SOL     OW27234   3.288   1.560   6.337  0.3012  0.1599  0.2578
 8793SOL    HW127235   3.296   1.654   6.352  1.5028 -0.2492  2.5381
 8793SOL    HW227236   3.222   1.553   6.268  1.8334  2.7509 -1.6725
 8794SOL     OW27237   6.237   5.900   5.355 -0.1004  0.1108  0.1538
 8794SOL    HW127238   6.307   5.852   5.398 -0.1103  0.4431  0.5366
 8794SOL    HW227239   6.170   5.912   5.422 -1.4190 -1.9113 -0.6680
 8795SOL     OW27240   2.066   0.360   2.108  0.3638 -0.1838  0.3451
 8795SOL    HW127241   2.033   0.291   2.166  1.2172 -1.3709 -0.5348
 8795SOL    HW227242   2.007   0.358   2.032  1.2604 -1.0153 -0.3651
 8796SOL     OW27243   1.492   0.287   7.686  0.9015  0.5456  0.0624
 8796SOL    HW127244   1.575   0.327   7.713  1.3046  0.1307 -0.5458
 8796SOL    HW227245   1.429   0.359   7.689  1.0240  0.6360  1.6160
 8797SOL     OW27246   2.244   6.249   7.371  0.2087 -0.2437 -0.8606
 8797SOL    HW127247   2.201   6.184   7.317 -2.8650 -0.0935  1.1411
 8797SOL    HW227248   2.200   6.331   7.350  1.4708  0.4919 -0.7214
 8798SOL     OW27249   3.421   7.531   2.673 -0.2913 -0.7492  0.2077
 8798SOL    HW127250   3.382   7.594   2.732  2.1643  0.3992  0.7276
 8798SOL    HW227251   3.456   7.584   2.601  1.3666 -1.5148  0.3995
 8799SOL     OW27252   7.798   6.889   7.904  1.0159 -0.2062  0.3780
 8799SOL    HW127253   7.712   6.890   7.860  0.9594  1.3960  0.4764
 8799SOL    HW227254   7.786   6.944   7.981  1.8893 -0.7617  0.9336
 8800SOL     OW27255   7.022   2.427   3.391 -0.1275  0.3064  0.0225
 8800SOL    HW127256   7.106   2.437   3.435  0.3976 -0.9772 -0.6414
 8800SOL    HW227257   6.987   2.344   3.422 -0.7042  0.3689 -0.4318
 8801SOL     OW27258   4.105   1.827   4.679  0.0705  1.1174 -0.5064
 8801SOL    HW127259   4.122   1.921   4.673 -0.6912  1.2039 -1.9620
 8801SOL    HW227260   4.010   1.820   4.671  0.0218  0.2693  0.6284
 8802SOL     OW27261   3.221   0.703   3.473 -0.1846  0.0697  0.0508
 8802SOL    HW127262   3.224   0.675   3.382 -1.2962  0.9875 -0.2838
 8802SOL    HW227263   3.212   0.798   3.469 -2.2184 -0.0314  1.0695
 8803SOL     OW27264   2.484   3.289   3.366  0.6182  0.3513  0.1935
 8803SOL    HW127265   2.440   3.229   3.426 -1.1023  0.2450 -1.1149
 8803SOL    HW227266   2.456   3.376   3.394 -0.1126  0.3061 -0.3628
 8804SOL     OW27267   4.596   1.390   6.957 -0.0192  0.3062 -0.0627
 8804SOL    HW127268   4.561   1.445   7.027  2.1441 -0.2686  1.5553
 8804SOL    HW227269   4.678   1.433   6.932  0.3546 -0.7342 -0.6713
 8805SOL     OW27270   0.180   3.055   6.035 -0.0292 -0.2662 -0.8259
 8805SOL    HW127271   0.129   2.980   6.064 -1.2687  1.3885  1.5303
 8805SOL    HW227272   0.237   3.020   5.967 -1.6945 -2.9694 -0.9594
 8806SOL     OW27273   3.486   7.759   7.100 -0.5247 -0.4000 -0.3488
 8806SOL    HW127274   3.418   7.712   7.148 -1.6892  1.7367  0.1987
 8806SOL    HW227275   3.566   7.708   7.116 -0.9673 -0.2226  3.3771
 8807SOL     OW27276   2.531   2.837   0.896 -0.3197  0.2248 -0.0307
 8807SOL    HW127277   2.547   2.931   0.898 -0.2030  0.1970  1.1031
 8807SOL    HW227278   2.487   2.818   0.979  2.1331 -1.1332  1.0596
 8808SOL     OW27279   4.554   7.715   0.098 -0.2075 -0.8580 -0.1644
 8808SOL    HW127280   4.648   7.700   0.107 -0.0209 -0.0913 -0.7135
 8808SOL    HW227281   4.514   7.630   0.114  0.7162 -1.6674 -1.8998
 8809SOL     OW27282   1.601   2.223   2.047 -0.3690 -0.2086 -0.4369
 8809SOL    HW127283   1.512   2.191   2.033 -1.4579  1.4480  1.8828
 8809SOL    HW227284   1.635   2.168   2.118  0.1813 -0.3288 -0.7878
 8810SOL     OW27285   4.716   5.275   2.529 -0.6311  0.2663  0.2218
 8810SOL    HW127286   4.770   5.312   2.598 -0.5193 -1.4494  1.1275
 8810SOL    HW227287   4.715   5.341   2.460 -0.5659  1.9439  1.7554
 8811SOL     OW27288   6.149   1.544   0.631 -0.2055 -0.4137  0.3301
 8811SOL    HW127289   6.066   1.589   0.647  0.9514  1.8379  0.3842
 8811SOL    HW227290   6.139   1.504   0.545 -2.5853 -3.3339  1.7729
 8812SOL     OW27291   5.073   5.345   1.917 -0.8565  0.2935  0.3466
 8812SOL    HW127292   5.162   5.321   1.943 -1.0521 -1.7471 -0.6764
 8812SOL    HW227293   5.085   5.413   1.851 -0.0469  0.2296  0.4129
 8813SOL     OW27294   1.254   7.482   2.903  0.6340  0.2497 -0.2871
 8813SOL    HW127295   1.304   7.401   2.917  2.7984  1.3648 -1.0985
 8813SOL    HW227296   1.308   7.550   2.943 -0.7918  1.4168 -0.2800
 8814SOL     OW27297   5.462   6.922   5.880 -0.5931 -0.3241 -0.9039
 8814SOL    HW127298   5.524   6.853   5.904 -2.6619 -2.1551 -0.4826
 8814SOL    HW227299   5.460   6.921   5.785  0.8349  0.6002 -0.9868
 8815SOL     OW27300   3.215   7.336   1.182 -0.2837 -0.4465 -0.0746
 8815SOL    HW127301   3.182   7.272   1.118 -1.5493  0.4665 -0.3718
 8815SOL    HW227302   3.220   7.287   1.264  0.6782 -1.4442 -0.7008
 8816SOL     OW27303   4.336   6.705   3.565 -0.3023  0.0884  0.8262
 8816SOL    HW127304   4.349   6.611   3.550  0.0868  0.1817  0.5777
 8816SOL    HW227305   4.274   6.732   3.497 -0.8673 -0.1032  1.2556
 8817SOL     OW27306   7.548   3.551   6.398  0.7288 -0.2076  0.7251
 8817SOL    HW127307   7.578   3.460   6.397  0.6682 -0.2366 -0.6366
 8817SOL    HW227308   7.461   3.547   6.359  1.3387  0.6197 -0.7584
 8818SOL     OW27309   3.620   5.913   3.981  0.0645 -0.4097  0.0079
 8818SOL    HW127310   3.607   6.006   3.999  0.1479  0.0540 -2.0284
 8818SOL    HW227311   3.700   5.890   4.028  0.2426  0.6543  0.2538
 8819SOL     OW27312   5.557   1.721   0.504  0.5226  0.5847 -0.1559
 8819SOL    HW127313   5.507   1.667   0.443 -0.1330  0.4495  0.4910
 8819SOL    HW227314   5.535   1.811   0.480 -1.0491  0.5175  0.9373
 8820SOL     OW27315   5.032   4.207   5.221  0.3692  0.1543 -0.2085
 8820SOL    HW127316   5.062   4.297   5.207  2.9506 -1.0380 -3.7482
 8820SOL    HW227317   4.939   4.215   5.241  1.0206  3.6543  2.3438
 8821SOL     OW27318   5.133   0.747   1.144 -0.0686 -0.5388 -0.1152
 8821SOL    HW127319   5.114   0.695   1.222  2.0679 -1.0106  0.1474
 8821SOL    HW227320   5.228   0.746   1.136 -0.1261  0.8974 -1.7985
 8822SOL     OW27321   4.972   6.800   3.683  0.0485  0.2376 -0.0852
 8822SOL    HW127322   4.963   6.894   3.699  3.1532  0.3199  2.3245
 8822SOL    HW227323   5.043   6.793   3.619 -0.3432 -0.4853 -0.4603
 8823SOL     OW27324   2.138   3.453   3.068  0.2836 -0.2794 -0.0524
 8823SOL    HW127325   2.233   3.452   3.078  0.2788 -1.7083  0.1498
 8823SOL    HW227326   2.119   3.535   3.023  1.7067 -0.4222 -0.9778
 8824SOL     OW27327   7.452   1.424   7.816  0.4211  0.2233  0.1451
 8824SOL    HW127328   7.416   1.511   7.799 -0.8925 -0.5455 -1.2840
 8824SOL    HW227329   7.518   1.412   7.747 -1.5171 -1.0287 -1.5969
 8825SOL     OW27330   1.091   6.727   1.646  0.2166 -0.6149  0.0480
 8825SOL    HW127331   1.070   6.742   1.738 -2.1781  0.9353 -0.6588
 8825SOL    HW227332   1.023   6.667   1.615  0.9315 -1.0409 -0.7461
 8826SOL     OW27333   5.394   2.047   3.920 -0.1800 -0.2775 -0.1870
 8826SOL    HW127334   5.393   2.002   4.005 -2.4681 -0.9829 -0.4927
 8826SOL    HW227335   5.404   1.976   3.856  0.3706  0.1260 -0.5558
 8827SOL     OW27336   4.321   1.130   3.208  0.2590 -0.3274  0.2782
 8827SOL    HW127337   4.407   1.103   3.238  0.7026  0.6453 -0.0667
 8827SOL    HW227338   4.325   1.120   3.113  1.0411  2.4294 -0.0687
 8828SOL     OW27339   2.107   7.036   3.455 -0.0850  0.0274  0.4258
 8828SOL    HW127340   2.145   7.111   3.410 -0.3183 -0.7439 -1.1052
 8828SOL    HW227341   2.065   7.074   3.533  0.2321  1.4012 -0.0411
 8829SOL     OW27342   3.607   5.780   1.913  0.1390  0.2173 -0.5688
 8829SOL    HW127343   3.531   5.766   1.858  0.9838  0.0610 -1.7449
 8829SOL    HW227344   3.660   5.844   1.866  0.6982  0.3912  0.2656
 8830SOL     OW27345   6.835   5.897   6.375  0.3452  0.1086 -0.3966
 8830SOL    HW127346   6.796   5.844   6.305  1.1714  0.1456 -0.8984
 8830SOL    HW227347   6.800   5.859   6.455 -2.3372  1.4101 -0.8358
 8831SOL     OW27348   7.511   1.171   6.999  0.5612 -0.1435 -0.3554
 8831SOL    HW127349   7.442   1.234   7.021  0.5593 -0.3473  0.2412
 8831SOL    HW227350   7.477   1.125   6.922 -0.5139 -1.0609  0.6290
 8832SOL     OW27351   1.589   0.709   1.354  0.0770 -0.0437  0.0865
 8832SOL    HW127352   1.641   0.680   1.279  1.4715  0.5168  0.8006
 8832SOL    HW227353   1.549   0.792   1.325 -1.6233 -1.1668 -0.9542
 8833SOL     OW27354   3.299   6.810   2.831 -0.5601  0.5686 -0.1003
 8833SOL    HW127355   3.359   6.837   2.761 -2.1741  0.6325 -1.5436
 8833SOL    HW227356   3.322   6.719   2.849 -0.6865  0.2684 -1.3769
 8834SOL     OW27357   1.660   1.933   0.922 -0.2343  0.0907  0.3423
 8834SOL    HW127358   1.609   1.887   0.854  1.6824 -1.2512 -0.2861
 8834SOL    HW227359   1.657   2.025   0.896  1.9407 -0.5517 -2.7388
 8835SOL     OW27360   1.796   5.783   4.789  0.1158 -0.2262 -0.5888
 8835SOL    HW127361   1.702   5.766   4.797  0.0742  0.2560  0.1558
 8835SOL    HW227362   1.810   5.861   4.843  0.6301  0.8572 -2.2098
 8836SOL     OW27363   5.614   0.265   1.963  0.1813 -0.4179  0.0880
 8836SOL    HW127364   5.668   0.190   1.985  1.2952 -0.1251 -1.5340
 8836SOL    HW227365   5.555   0.274   2.038  1.6535 -1.3877  1.4285
 8837SOL     OW27366   5.944   2.875   2.831 -0.3742  0.7235  0.3028
 8837SOL    HW127367   5.992   2.922   2.762  1.3893 -0.8154  0.4109
 8837SOL    HW227368   5.983   2.908   2.913 -0.9292  0.9363  0.4847
 8838SOL     OW27369   4.333   0.926   6.720 -0.0621 -0.0697  0.6198
 8838SOL    HW127370   4.395   0.867   6.677 -0.1987 -0.2566  0.6797
 8838SOL    HW227371   4.340   1.008   6.671 -0.5597 -0.4221 -0.0576
 8839SOL     OW27372   1.751   4.011   7.433  0.4752 -0.6474 -1.0073
 8839SOL    HW127373   1.746   3.916   7.434  0.0808 -0.6571 -2.0991
 8839SOL    HW227374   1.844   4.030   7.418  0.5855 -0.8481 -0.5904
 8840SOL     OW27375   5.932   1.712   2.365  0.2406 -0.1945  0.6548
 8840SOL    HW127376   5.854   1.710   2.309  0.4842 -1.0620  0.3274
 8840SOL    HW227377   5.911   1.774   2.434 -0.9651 -0.8351  0.8873
 8841SOL     OW27378   2.433   2.261   3.346  0.2868  0.2549  0.3712
 8841SOL    HW127379   2.431   2.321   3.271  1.2122  2.2523  1.8370
 8841SOL    HW227380   2.458   2.177   3.309  1.1789  1.2813 -1.5074
 8842SOL     OW27381   5.718   3.179   3.814  0.5886  0.0822 -0.1098
 8842SOL    HW127382   5.747   3.270   3.820 -0.9718  0.5766  0.1321
 8842SOL    HW227383   5.624   3.182   3.827  0.4913 -1.5683 -0.2070
 8843SOL     OW27384   3.938   2.853   1.621 -0.0452 -0.5608 -0.1329
 8843SOL    HW127385   3.936   2.914   1.694 -1.7169 -0.4552 -0.2281
 8843SOL    HW227386   3.891   2.776   1.653  1.8140 -1.7266 -0.0976
 8844SOL     OW27387   3.306   5.251   5.170  0.0563 -0.4818 -0.4452
 8844SOL    HW127388   3.234   5.200   5.134 -0.0705  0.2896 -1.3017
 8844SOL    HW227389   3.380   5.234   5.112 -0.3295  1.3005 -1.5390
 8845SOL     OW27390   0.813   2.892   2.546 -0.2734  0.2395  0.2296
 8845SOL    HW127391   0.804   2.842   2.628 -0.7502  3.0700  2.0452
 8845SOL    HW227392   0.850   2.829   2.484  2.8680 -1.3811  3.3453
 8846SOL     OW27393   7.379   7.414   4.233 -0.1812  0.7043  0.3819
 8846SOL    HW127394   7.380   7.324   4.201 -0.5019 -0.0804  2.4454
 8846SOL    HW227395   7.310   7.457   4.182 -0.3527 -0.3440 -0.2871
 8847SOL     OW27396   3.479   2.821   5.540  0.6437  0.2730  0.1336
 8847SOL    HW127397   3.526   2.738   5.530 -1.1972 -0.6001 -2.6735
 8847SOL    HW227398   3.548   2.888   5.542  2.1193 -1.2208  1.1275
 8848SOL     OW27399   4.085   1.531   1.794  0.2598 -0.0286 -0.0280
 8848SOL    HW127400   4.079   1.479   1.714 -0.1104  1.1283 -0.7823
 8848SOL    HW227401   4.034   1.482   1.859 -0.6547 -0.2652 -0.9005
 8849SOL     OW27402   0.257   0.748   4.160 -0.5444 -0.0709 -0.1793
 8849SOL    HW127403   0.299   0.829   4.190 -0.9638 -0.4368  1.5016
 8849SOL    HW227404   0.305   0.724   4.081  0.7584  0.8678  0.2924
 8850SOL     OW27405   0.340   2.576   0.140 -0.2483 -0.3542  0.5736
 8850SOL    HW127406   0.393   2.501   0.167  2.2380  0.9492 -0.3319
 8850SOL    HW227407   0.306   2.552   0.054  1.1910 -0.1783 -0.0662
 8851SOL     OW27408   0.102   0.913   0.459 -0.5739 -0.3279 -0.0701
 8851SOL    HW127409   0.023   0.934   0.508  0.0458  0.4105  0.6380
 8851SOL    HW227410   0.132   0.830   0.496  1.1565  1.3083  2.5053
 8852SOL     OW27411   0.975   1.572   3.929  0.0348 -0.3017  0.7333
 8852SOL    HW127412   0.923   1.500   3.896 -0.8517  0.2051  0.9983
 8852SOL    HW227413   1.044   1.530   3.981 -1.1166 -0.9316  1.8105
 8853SOL     OW27414   2.906   0.932   5.347 -0.2809 -0.0767 -0.6585
 8853SOL    HW127415   2.819   0.895   5.339 -0.7908  0.7652  0.6561
 8853SOL    HW227416   2.896   1.005   5.408  1.6091 -0.8743  0.7178
 8854SOL     OW27417   2.853   2.266   1.003  0.2860  0.4258 -0.7333
 8854SOL    HW127418   2.880   2.181   0.970 -0.4632 -0.1226  0.0316
 8854SOL    HW227419   2.838   2.319   0.924 -2.0797 -1.0350 -1.3651
 8855SOL     OW27420   3.082   1.619   0.458 -0.8287 -0.1941  0.0116
 8855SOL    HW127421   3.063   1.546   0.516  0.3765  0.1234  0.8478
 8855SOL    HW227422   3.041   1.695   0.500  0.3649  0.1043  0.6802
 8856SOL     OW27423   3.600   1.583   0.702  1.0602  0.2126 -0.5904
 8856SOL    HW127424   3.536   1.513   0.715  0.5115  0.0435 -3.5929
 8856SOL    HW227425   3.668   1.544   0.647  2.6004  1.0770  0.6049
 8857SOL     OW27426   1.982   4.488   7.462 -0.7242  0.0073  0.6887
 8857SOL    HW127427   1.924   4.412   7.458 -0.4110 -0.2104  0.2022
 8857SOL    HW227428   2.018   4.486   7.551  1.1773 -1.8673 -0.0188
 8858SOL     OW27429   4.830   5.601   6.769  0.2665  0.0985 -0.4036
 8858SOL    HW127430   4.808   5.600   6.676 -0.8683 -0.1070 -0.1476
 8858SOL    HW227431   4.789   5.522   6.804  0.3564  0.3813  0.3485
 8859SOL     OW27432   1.876   1.126   5.069 -0.2783  0.2989  0.5198
 8859SOL    HW127433   1.797   1.094   5.025  0.7933  0.9495 -2.0247
 8859SOL    HW227434   1.852   1.213   5.100 -0.3704  0.8025 -0.9147
 8860SOL     OW27435   6.906   7.990   6.664 -0.1325  0.7379 -0.1418
 8860SOL    HW127436   6.993   7.969   6.696 -0.6134  0.1668  0.8387
 8860SOL    HW227437   6.919   8.015   6.573  1.0136  0.3784 -0.0868
 8861SOL     OW27438   4.929   0.845   3.212 -0.3617 -0.4411  0.4088
 8861SOL    HW127439   4.871   0.919   3.227 -0.1885  0.0585 -1.2441
 8861SOL    HW227440   4.884   0.770   3.252 -0.6835  0.4714  1.8104
 8862SOL     OW27441   5.002   3.453   4.614 -0.1175 -0.2924  0.0301
 8862SOL    HW127442   4.931   3.464   4.551  1.4715  0.4277 -1.7125
 8862SOL    HW227443   4.958   3.454   4.699 -2.2791 -0.7815 -0.9942
 8863SOL     OW27444   4.453   3.293   3.552 -0.4547  0.0234 -0.4315
 8863SOL    HW127445   4.419   3.250   3.474 -0.3222  0.7312 -0.8945
 8863SOL    HW227446   4.391   3.363   3.570 -1.4766 -1.2235  1.1817
 8864SOL     OW27447   1.751   1.046   7.679 -0.0742  0.2800 -0.0931
 8864SOL    HW127448   1.758   0.973   7.618 -2.9217  0.0174 -0.2320
 8864SOL    HW227449   1.841   1.072   7.695  0.9416 -2.0091 -1.5349
 8865SOL     OW27450   6.672   6.322   5.825  0.1495  0.0806  0.0354
 8865SOL    HW127451   6.699   6.310   5.733  0.5339 -0.7105  0.2448
 8865SOL    HW227452   6.705   6.409   5.847 -1.1416  0.8629 -0.9818
 8866SOL     OW27453   0.418   3.158   6.502  0.1578 -0.1353 -0.0667
 8866SOL    HW127454   0.332   3.175   6.540 -0.1079  0.0157 -0.7170
 8866SOL    HW227455   0.468   3.116   6.572 -0.3294  0.1038  0.4268
 8867SOL     OW27456   5.994   0.060   6.864  0.0291 -0.3456 -0.0030
 8867SOL    HW127457   5.971   0.143   6.904 -2.2511 -0.6509 -0.5588
 8867SOL    HW227458   6.066   0.081   6.804 -0.2275  1.1242  0.1881
 8868SOL     OW27459   7.948   1.433   0.490 -0.1123  0.3047 -0.0585
 8868SOL    HW127460   8.012   1.496   0.524 -0.0978 -0.6749  1.8708
 8868SOL    HW227461   7.868   1.450   0.540 -0.1535 -1.0832  0.3864
 8869SOL     OW27462   1.257   7.270   2.320  0.1108  0.8227  0.4270
 8869SOL    HW127463   1.295   7.281   2.233 -0.6019  0.3444  0.0421
 8869SOL    HW227464   1.169   7.234   2.303  0.7597 -1.4192  1.3945
 8870SOL     OW27465   0.186   0.674   6.224  0.2084 -0.0903  0.3954
 8870SOL    HW127466   0.134   0.619   6.282  0.1241 -0.0772  0.3319
 8870SOL    HW227467   0.258   0.619   6.196 -0.9157 -0.8134 -1.2187
 8871SOL     OW27468   2.963   2.529   1.403 -0.0025  0.0690 -0.2960
 8871SOL    HW127469   2.938   2.616   1.434 -0.7020  0.6632 -2.4126
 8871SOL    HW227470   2.976   2.478   1.484 -2.9452  1.1703  1.0190
 8872SOL     OW27471   0.758   1.509   1.919  0.1508  0.5341 -0.2023
 8872SOL    HW127472   0.819   1.454   1.869  1.0448 -0.4197  1.8482
 8872SOL    HW227473   0.778   1.598   1.890  1.1097  0.0783 -1.0288
 8873SOL     OW27474   6.804   7.221   4.082  0.0085  0.2473  0.4795
 8873SOL    HW127475   6.725   7.189   4.039 -0.6022 -0.9195  2.3595
 8873SOL    HW227476   6.843   7.142   4.121  2.3190  0.7254 -0.6987
 8874SOL     OW27477   7.409   2.108   5.401  0.0577  0.2809 -0.0063
 8874SOL    HW127478   7.357   2.066   5.333 -1.1188  1.4454  0.1413
 8874SOL    HW227479   7.346   2.132   5.469  0.8804  1.1387  0.4771
 8875SOL     OW27480   6.509   6.399   2.317  0.2908 -0.2318  0.2011
 8875SOL    HW127481   6.480   6.475   2.266 -0.1628  0.3700  1.3265
 8875SOL    HW227482   6.534   6.334   2.251  0.2818  0.7358 -0.7797
 8876SOL     OW27483   0.987   2.910   5.416  0.1011 -0.2750 -0.4513
 8876SOL    HW127484   1.037   2.928   5.337 -0.0773  0.5327 -0.3891
 8876SOL    HW227485   1.021   2.972   5.481  0.7762 -1.4352  0.3350
 8877SOL     OW27486   4.326   5.515   2.622  0.1992 -0.1634  0.1276
 8877SOL    HW127487   4.355   5.538   2.710  2.1715 -1.3194 -0.1724
 8877SOL    HW227488   4.262   5.583   2.600  0.8974  1.1207  1.7943
 8878SOL     OW27489   3.365   6.503   0.745 -0.4625 -0.2976 -0.2205
 8878SOL    HW127490   3.340   6.546   0.664  0.4082  0.2294 -0.2249
 8878SOL    HW227491   3.451   6.540   0.766 -1.5202  1.1307  2.0210
 8879SOL     OW27492   7.366   2.979   0.169 -0.3833 -0.4398  0.2728
 8879SOL    HW127493   7.379   2.941   0.082 -2.2461 -0.1528 -0.1800
 8879SOL    HW227494   7.328   2.908   0.221  2.1954 -1.1167  1.3961
 8880SOL     OW27495   2.161   5.959   4.828  0.3288  0.8505  0.0504
 8880SOL    HW127496   2.104   5.934   4.755 -1.3451  0.1168  1.5487
 8880SOL    HW227497   2.132   6.047   4.852 -0.6260  0.2514  1.1904
 8881SOL     OW27498   2.571   5.157   1.033  0.3414 -0.1016  0.7260
 8881SOL    HW127499   2.646   5.097   1.030  0.1486 -0.4339  2.0937
 8881SOL    HW227500   2.537   5.157   0.943  2.5505  0.8116 -0.1908
 8882SOL     OW27501   2.913   1.717   1.339 -0.4901 -0.4528  0.3002
 8882SOL    HW127502   2.900   1.623   1.350 -0.9291 -0.3052  1.1427
 8882SOL    HW227503   3.005   1.731   1.364 -0.3392 -0.6915 -0.1102
 8883SOL     OW27504   7.122   4.316   2.361 -0.1408 -0.0189 -0.9557
 8883SOL    HW127505   7.109   4.342   2.452  0.6387  0.7485 -1.0543
 8883SOL    HW227506   7.125   4.221   2.363 -3.2428 -0.2323 -0.5992
 8884SOL     OW27507   5.944   0.336   7.021  0.1835 -0.6410 -0.1309
 8884SOL    HW127508   5.871   0.379   6.976  0.7284 -0.8856 -1.2698
 8884SOL    HW227509   6.021   0.384   6.993  0.3024  1.5635  3.3445
 8885SOL     OW27510   3.357   7.255   3.230 -0.1110 -0.1431 -0.1881
 8885SOL    HW127511   3.449   7.232   3.244  0.0140  1.0873  1.2946
 8885SOL    HW227512   3.360   7.342   3.189 -0.6075 -0.4158 -0.8123
 8886SOL     OW27513   2.277   4.425   4.762  0.0995 -0.3384  0.5248
 8886SOL    HW127514   2.242   4.434   4.673  0.5299 -0.1650  0.3698
 8886SOL    HW227515   2.236   4.346   4.796  1.1409 -1.3250 -0.4137
 8887SOL     OW27516   5.129   5.977   3.410 -0.0566 -0.1063  0.0872
 8887SOL    HW127517   5.136   6.057   3.462  0.6421 -0.3271  0.3567
 8887SOL    HW227518   5.082   6.002   3.331 -1.7465  0.1012  1.1143
 8888SOL     OW27519   2.189   1.779   3.953 -0.0256 -0.3474  0.2697
 8888SOL    HW127520   2.225   1.838   3.887  1.0203  0.3285  1.3791
 8888SOL    HW227521   2.167   1.837   4.026 -0.3989 -1.1607  0.8134
 8889SOL     OW27522   7.893   6.584   6.506 -0.3287  0.0204  0.2454
 8889SOL    HW127523   7.852   6.647   6.566 -0.6731 -0.7378  0.8212
 8889SOL    HW227524   7.980   6.620   6.490 -0.4398  0.5338  0.7487
 8890SOL     OW27525   1.857   2.548   2.467  0.0892 -0.0661 -0.1402
 8890SOL    HW127526   1.927   2.549   2.532 -0.2738 -0.6907  0.2698
 8890SOL    HW227527   1.891   2.600   2.395  0.0354  1.6766  1.0211
 8891SOL     OW27528   0.847   2.291   5.228  0.5292  0.2058 -0.1941
 8891SOL    HW127529   0.849   2.210   5.279 -0.7121 -0.5883 -1.3352
 8891SOL    HW227530   0.797   2.352   5.282  2.2463  0.5658  1.0893
 8892SOL     OW27531   5.906   2.268   7.970 -0.7497  0.4927 -0.3565
 8892SOL    HW127532   5.975   2.257   7.904  1.1065  0.7013  1.4402
 8892SOL    HW227533   5.904   2.184   8.016 -0.7519  0.9247  0.4478
 8893SOL     OW27534   2.983   1.453   6.783 -0.1170  0.3760  0.3334
 8893SOL    HW127535   2.964   1.403   6.862  0.5325 -0.4027  0.0120
 8893SOL    HW227536   2.930   1.532   6.791  0.7652  0.8313  2.0634
 8894SOL     OW27537   3.156   4.051   3.952 -0.1855  0.1299 -0.3221
 8894SOL    HW127538   3.229   4.065   3.892  0.2923 -0.1259  0.1829
 8894SOL    HW227539   3.121   4.138   3.969 -0.2203  0.2173 -0.8467
 8895SOL     OW27540   1.091   3.638   4.512  0.1533 -0.2135  0.2457
 8895SOL    HW127541   1.185   3.630   4.525  0.6827 -1.1330 -3.2430
 8895SOL    HW227542   1.079   3.730   4.485  0.1276 -0.2140  0.2556
 8896SOL     OW27543   4.074   4.920   5.231 -0.2809  0.0836 -0.0835
 8896SOL    HW127544   4.076   4.868   5.312  0.4221  0.0277 -0.1269
 8896SOL    HW227545   4.043   5.006   5.259  0.5386  0.2495  0.3719
 8897SOL     OW27546   0.962   4.385   6.382 -0.1133  0.3995 -0.5477
 8897SOL    HW127547   1.055   4.408   6.381  0.3226 -0.9615  1.3795
 8897SOL    HW227548   0.950   4.327   6.308  0.1584  1.8446 -1.7739
 8898SOL     OW27549   4.424   0.416   4.580  0.6926  0.3960  0.0193
 8898SOL    HW127550   4.405   0.509   4.572 -0.1652  0.3867  1.5731
 8898SOL    HW227551   4.503   0.412   4.633  0.0329  0.2330  1.0166
 8899SOL     OW27552   2.838   2.789   0.444 -0.0502 -0.1170  0.5326
 8899SOL    HW127553   2.757   2.804   0.492 -0.2998 -0.4802  0.2315
 8899SOL    HW227554   2.843   2.861   0.381 -0.0204  0.0311  0.7022
 8900SOL     OW27555   2.664   3.531   1.088  0.0188 -0.2919  0.6868
 8900SOL    HW127556   2.650   3.545   1.182  0.0856  1.7360  0.4287
 8900SOL    HW227557   2.671   3.618   1.051  3.6097 -0.9949 -0.7010
 8901SOL     OW27558   4.543   2.694   5.489 -0.0594  0.3907 -0.1297
 8901SOL    HW127559   4.637   2.686   5.510  0.0704 -0.8787 -1.0886
 8901SOL    HW227560   4.532   2.642   5.410 -1.3194  1.7274 -0.8769
 8902SOL     OW27561   2.336   1.070   3.121 -0.0026 -0.0215  0.4832
 8902SOL    HW127562   2.280   1.009   3.170  2.1985 -0.8330  2.1454
 8902SOL    HW227563   2.366   1.019   3.046 -0.3145 -0.0927  0.4068
 8903SOL     OW27564   6.343   4.515   1.668  0.5279 -0.3630 -0.2959
 8903SOL    HW127565   6.269   4.575   1.660 -0.2281 -1.1590  0.4802
 8903SOL    HW227566   6.314   4.450   1.732  1.2824 -1.5981 -1.1612
 8904SOL     OW27567   1.797   2.557   5.687 -0.3468  0.1541 -0.1033
 8904SOL    HW127568   1.811   2.536   5.779  0.9306 -1.2065 -0.5788
 8904SOL    HW227569   1.882   2.587   5.656 -0.7996  0.7283 -0.8353
 8905SOL     OW27570   4.123   5.936   0.167  0.6092  0.0126  0.6368
 8905SOL    HW127571   4.150   6.018   0.207  1.7883  0.0192 -0.1269
 8905SOL    HW227572   4.201   5.904   0.121 -0.2608 -0.7374 -0.3914
 8906SOL     OW27573   6.746   2.485   5.120 -0.4079 -0.1394  0.1993
 8906SOL    HW127574   6.826   2.512   5.075 -1.8277  0.6320 -2.0755
 8906SOL    HW227575   6.733   2.551   5.188  0.1519  0.5252 -0.3265
 8907SOL     OW27576   2.650   3.621   5.225  0.5526 -0.0888  0.4291
 8907SOL    HW127577   2.697   3.699   5.252  0.3382  1.4518 -3.0599
 8907SOL    HW227578   2.652   3.624   5.129 -1.6276 -3.0738  0.1394
 8908SOL     OW27579   3.768   2.942   1.104  0.3382  0.2545  0.1593
 8908SOL    HW127580   3.708   2.964   1.032 -0.5459 -3.7122 -0.5306
 8908SOL    HW227581   3.845   2.905   1.061  0.7544 -0.1408  1.2173
 8909SOL     OW27582   1.856   3.663   0.821 -0.3066  0.5205 -0.1635
 8909SOL    HW127583   1.890   3.744   0.784 -0.2753  0.2387 -0.7662
 8909SOL    HW227584   1.764   3.660   0.793 -1.1792  1.7711  2.2797
 8910SOL     OW27585   6.125   5.314   0.223 -0.0988  0.2620 -0.2363
 8910SOL    HW127586   6.175   5.256   0.281 -1.7014 -0.7467  0.2001
 8910SOL    HW227587   6.059   5.257   0.183 -0.1012  1.2979 -1.7818
 8911SOL     OW27588   5.958   2.650   0.524 -0.6671  0.7068  0.3748
 8911SOL    HW127589   5.890   2.716   0.522 -0.3750  1.0912  1.9415
 8911SOL    HW227590   5.912   2.568   0.541 -0.8358  0.8023  0.3773
 8912SOL     OW27591   2.853   7.818   0.339  0.3951  0.1590 -0.0721
 8912SOL    HW127592   2.898   7.763   0.403  2.4690  2.0147  0.2033
 8912SOL    HW227593   2.875   7.908   0.365 -3.0856  1.2204 -0.2952
 8913SOL     OW27594   0.249   3.347   6.877  0.4518 -0.6786 -0.0055
 8913SOL    HW127595   0.167   3.299   6.883 -1.1952  1.9607  0.0132
 8913SOL    HW227596   0.237   3.407   6.804  2.5427 -0.4610 -0.2496
 8914SOL     OW27597   7.453   6.369   7.297 -0.7786  0.5790  0.0342
 8914SOL    HW127598   7.492   6.287   7.267 -0.5643  0.6100  0.2245
 8914SOL    HW227599   7.470   6.431   7.226  1.3039  1.1267  0.9302
 8915SOL     OW27600   3.265   3.982   0.873 -0.1383  0.6453  0.1898
 8915SOL    HW127601   3.256   3.890   0.851  3.5414 -0.0122  0.7908
 8915SOL    HW227602   3.176   4.012   0.889 -1.6067 -2.3552 -1.6016
 8916SOL     OW27603   2.350   0.223   2.213 -0.1048  1.2139  0.3358
 8916SOL    HW127604   2.419   0.250   2.273  1.5285  0.1174 -0.9691
 8916SOL    HW227605   2.279   0.193   2.270  0.7561  1.6906  1.7085
 8917SOL     OW27606   4.592   7.334   3.585  0.0376 -0.2950  0.0784
 8917SOL    HW127607   4.639   7.251   3.582 -2.2667 -1.6715 -0.5681
 8917SOL    HW227608   4.544   7.332   3.667 -0.7254 -0.0379 -0.3490
 8918SOL     OW27609   4.761   7.704   4.383  1.0448 -0.7560 -0.7895
 8918SOL    HW127610   4.784   7.617   4.351  0.5345 -1.0537 -0.3571
 8918SOL    HW227611   4.687   7.731   4.330  0.8531 -0.8184 -0.5565
 8919SOL     OW27612   7.208   6.093   7.386  0.2744 -0.4097  0.3896
 8919SOL    HW127613   7.182   6.180   7.415  1.2307  0.5513 -1.4728
 8919SOL    HW227614   7.236   6.105   7.295  2.2800 -2.2948  0.6777
 8920SOL     OW27615   2.790   0.170   2.905  0.5047 -0.2478 -0.5043
 8920SOL    HW127616   2.884   0.187   2.908  0.7062 -1.0952 -1.2551
 8920SOL    HW227617   2.782   0.094   2.847 -0.5332 -1.0001  0.5745
 8921SOL     OW27618   0.030   1.588   7.316 -0.1795  0.6261 -0.0743
 8921SOL    HW127619   0.042   1.683   7.316 -0.7519  0.7765  2.3158
 8921SOL    HW227620   0.116   1.553   7.295 -0.0742  1.6409 -1.4710
 8922SOL     OW27621   1.931   6.687   3.717  0.6840 -0.3389  0.5743
 8922SOL    HW127622   1.971   6.601   3.720  1.3237 -0.0279  2.2308
 8922SOL    HW227623   1.951   6.726   3.802  0.1541  1.3299 -0.0145
 8923SOL     OW27624   1.795   4.634   5.476  0.0049 -0.4271 -0.4651
 8923SOL    HW127625   1.705   4.666   5.477 -0.0994 -0.7083  0.1172
 8923SOL    HW227626   1.821   4.633   5.384  0.1426  1.6498 -0.4824
 8924SOL     OW27627   7.069   1.325   7.336 -0.0461  0.3083 -0.3245
 8924SOL    HW127628   7.125   1.278   7.274 -1.8037 -0.7268 -1.1987
 8924SOL    HW227629   7.013   1.257   7.374 -1.7755  1.4967 -0.6419
 8925SOL     OW27630   3.747   2.150   0.438 -0.3596 -0.9015  0.1464
 8925SOL    HW127631   3.719   2.241   0.429  0.9826 -0.5863 -1.4191
 8925SOL    HW227632   3.737   2.131   0.531 -3.4717 -0.1491  0.0816
 8926SOL     OW27633   6.014   0.920   2.539  0.4277 -0.5994  0.0514
 8926SOL    HW127634   6.090   0.864   2.551  0.4724 -0.6128 -0.2747
 8926SOL    HW227635   6.049   1.009   2.537  0.4745 -0.6218 -0.3764
 8927SOL     OW27636   1.596   5.340   4.253 -0.2286  0.2228 -0.0100
 8927SOL    HW127637   1.683   5.350   4.216 -0.2934 -1.6540 -0.8079
 8927SOL    HW227638   1.593   5.249   4.283 -1.3113  0.7618  1.6569
 8928SOL     OW27639   1.569   6.117   2.966  0.6968 -0.2367  0.5586
 8928SOL    HW127640   1.478   6.127   2.995  0.4307  0.5004 -0.4636
 8928SOL    HW227641   1.621   6.162   3.034  0.2359  0.0068  0.7546
 8929SOL     OW27642   2.440   7.966   3.564 -0.2454 -0.1617  0.1474
 8929SOL    HW127643   2.384   7.913   3.620  0.4933 -0.3515  0.7192
 8929SOL    HW227644   2.496   8.013   3.625 -0.0926  0.3754 -0.4037
 8930SOL     OW27645   7.182   6.497   7.290 -0.0792  0.3121 -0.1495
 8930SOL    HW127646   7.186   6.589   7.264 -1.9682  0.3624 -0.3889
 8930SOL    HW227647   7.256   6.456   7.246  1.7830  1.9917  1.2525
 8931SOL     OW27648   2.386   7.125   7.064  0.0798 -0.2432  0.2272
 8931SOL    HW127649   2.440   7.127   7.143 -0.4856  1.5490  0.6244
 8931SOL    HW227650   2.300   7.095   7.094  0.0105 -0.0721  0.2026
 8932SOL     OW27651   2.243   5.774   2.505 -0.2676  0.2357 -0.3018
 8932SOL    HW127652   2.252   5.768   2.600  1.8589  2.0852 -0.3046
 8932SOL    HW227653   2.159   5.819   2.492 -0.4854  0.1486  0.7084
 8933SOL     OW27654   2.998   3.746   3.490 -0.0749 -0.3767  0.5060
 8933SOL    HW127655   2.997   3.687   3.565  0.3031  0.0737  0.8644
 8933SOL    HW227656   3.067   3.712   3.433 -0.5333 -0.8700  0.2301
 8934SOL     OW27657   5.016   6.777   7.020  0.4320 -0.0438  0.4327
 8934SOL    HW127658   5.012   6.872   7.032 -1.9714 -0.0285  0.0475
 8934SOL    HW227659   5.012   6.764   6.926 -1.3862 -0.5250  0.5369
 8935SOL     OW27660   0.832   3.639   6.727 -0.2176 -0.7304  0.7782
 8935SOL    HW127661   0.872   3.553   6.739 -2.9341 -2.1046  0.9086
 8935SOL    HW227662   0.796   3.637   6.639 -0.6638  0.1076  0.9281
 8936SOL     OW27663   2.385   3.206   6.693  0.2078  0.5409 -0.2623
 8936SOL    HW127664   2.301   3.200   6.738 -0.1956  0.1033 -1.0596
 8936SOL    HW227665   2.390   3.297   6.662 -0.2536  0.4062 -0.7404
 8937SOL     OW27666   3.059   3.380   6.084 -0.5148 -0.3021 -0.0972
 8937SOL    HW127667   3.149   3.365   6.056 -0.0504  2.0160 -0.0800
 8937SOL    HW227668   3.048   3.328   6.163  1.0864 -0.0121  0.3378
 8938SOL     OW27669   4.799   6.903   3.425  0.5471  0.1333  0.1172
 8938SOL    HW127670   4.785   6.811   3.444  0.4316 -0.6507 -3.1317
 8938SOL    HW227671   4.863   6.904   3.354 -2.4288  2.1619 -2.8848
 8939SOL     OW27672   2.564   6.017   6.195 -0.4138  0.5961 -0.1346
 8939SOL    HW127673   2.650   5.979   6.178 -0.5708 -0.4169  1.2009
 8939SOL    HW227674   2.581   6.086   6.259 -0.7531 -0.6106  1.3015
 8940SOL     OW27675   6.777   2.959   0.764  0.9273 -0.0727  0.0335
 8940SOL    HW127676   6.853   2.913   0.729  0.5106 -0.9239  0.2272
 8940SOL    HW227677   6.813   3.021   0.828  1.3772 -1.3702  1.0731
 8941SOL     OW27678   1.656   7.107   2.591  0.3469  0.3241 -0.2823
 8941SOL    HW127679   1.634   7.020   2.625  2.3802 -0.2521 -0.2807
 8941SOL    HW227680   1.700   7.151   2.663  2.3556  0.0514 -1.2579
 8942SOL     OW27681   2.778   0.183   4.921  0.7391  0.6262 -0.3267
 8942SOL    HW127682   2.819   0.265   4.894  0.3293  0.6142 -1.0150
 8942SOL    HW227683   2.730   0.153   4.844 -0.8647  0.8365  0.5312
 8943SOL     OW27684   2.135   5.489   6.146 -0.2204  0.3726 -0.5567
 8943SOL    HW127685   2.197   5.521   6.212 -1.3082  2.0461 -0.2979
 8943SOL    HW227686   2.105   5.405   6.180  0.5337  0.3960  0.2070
 8944SOL     OW27687   5.287   0.007   0.445  0.3261  0.0378  0.1059
 8944SOL    HW127688   5.324   0.089   0.411  1.4435 -0.0809  0.9633
 8944SOL    HW227689   5.341  -0.013   0.522 -0.1507 -1.3293  0.1093
 8945SOL     OW27690   5.975   0.486   2.032  0.2658 -0.3031 -0.3077
 8945SOL    HW127691   6.026   0.458   1.956  0.0546 -0.1228 -0.5225
 8945SOL    HW227692   6.039   0.501   2.101  0.5265  0.0937 -0.6271
 8946SOL     OW27693   3.302   0.077   0.162  0.0051  0.4036  0.1166
 8946SOL    HW127694   3.266  -0.009   0.184  0.5480  0.1878  0.1640
 8946SOL    HW227695   3.337   0.110   0.244  0.3399  0.4065 -0.0251
 8947SOL     OW27696   1.605   3.045   2.654 -0.0462 -0.1482 -0.2006
 8947SOL    HW127697   1.531   3.052   2.714 -0.1326 -1.7696 -0.0859
 8947SOL    HW227698   1.643   2.959   2.671 -0.2139 -0.7856 -2.6030
 8948SOL     OW27699   4.347   1.845   2.268 -0.4266 -0.6018 -0.0262
 8948SOL    HW127700   4.326   1.872   2.357 -3.3626  0.4238 -0.9044
 8948SOL    HW227701   4.391   1.760   2.278  0.5450  0.1018  2.4071
 8949SOL     OW27702   7.817   4.433   1.440  0.5977  0.5337 -0.0044
 8949SOL    HW127703   7.813   4.487   1.519 -0.5847  1.2716 -0.5352
 8949SOL    HW227704   7.897   4.381   1.450 -0.0679 -0.1710  2.1616
 8950SOL     OW27705   7.824   7.106   7.413  0.0929  0.4495  0.1648
 8950SOL    HW127706   7.804   7.024   7.458  0.8257  0.2203  0.0830
 8950SOL    HW227707   7.887   7.082   7.346  0.3621  1.0919  0.1768
 8951SOL     OW27708   1.543   7.952   0.768  0.5056 -0.0859  0.3959
 8951SOL    HW127709   1.492   7.947   0.687  0.3550 -2.1805  0.5499
 8951SOL    HW227710   1.595   8.031   0.760 -0.9794  0.8076 -0.8536
 8952SOL     OW27711   6.349   0.481   0.285  0.1759  0.6555 -0.4322
 8952SOL    HW127712   6.397   0.398   0.280 -0.0176  0.5740 -1.0403
 8952SOL    HW227713   6.271   0.461   0.337  0.7718  0.7781  0.5286
 8953SOL     OW27714   6.622   0.705   4.055  0.4301  0.6524 -0.1571
 8953SOL    HW127715   6.659   0.695   3.968  0.5038 -0.3558 -0.0175
 8953SOL    HW227716   6.687   0.669   4.114 -0.5659 -0.7571  0.1234
 8954SOL     OW27717   2.686   2.438   3.485  0.4572 -0.5653 -0.1216
 8954SOL    HW127718   2.708   2.376   3.555 -0.0385 -0.4701  0.1243
 8954SOL    HW227719   2.592   2.452   3.495  0.0268 -1.8363 -1.8492
 8955SOL     OW27720   7.143   7.655   4.321  0.8070 -0.3765  0.6795
 8955SOL    HW127721   7.135   7.586   4.255  0.7998 -0.8566  1.1763
 8955SOL    HW227722   7.152   7.735   4.271 -0.8932 -0.5301  0.0695
 8956SOL     OW27723   6.660   2.756   7.496 -0.0601 -0.1738  0.7474
 8956SOL    HW127724   6.576   2.713   7.509 -0.4006  0.4300  0.5652
 8956SOL    HW227725   6.717   2.719   7.565 -0.6689 -0.0599  1.3187
 8957SOL     OW27726   2.070   5.542   2.739  0.4736 -0.8540  0.6701
 8957SOL    HW127727   2.077   5.616   2.800 -4.5098 -0.3908  1.0512
 8957SOL    HW227728   2.109   5.469   2.787  2.3486  0.7192  1.7144
 8958SOL     OW27729   5.307   7.932   3.636  0.4479 -0.2492  0.0205
 8958SOL    HW127730   5.335   8.022   3.621  0.7814  0.0623  2.1602
 8958SOL    HW227731   5.281   7.930   3.728 -0.7947 -2.0407 -0.3076
 8959SOL     OW27732   4.350   7.612   4.167 -0.1431 -0.2155  0.0584
 8959SOL    HW127733   4.332   7.538   4.225 -0.8450  0.4329  0.7015
 8959SOL    HW227734   4.265   7.632   4.127  0.4000 -0.8491 -1.4499
 8960SOL     OW27735   1.904   2.556   3.771 -0.8831 -0.0161  0.2477
 8960SOL    HW127736   1.840   2.598   3.714 -0.4214 -0.3889 -0.5635
 8960SOL    HW227737   1.929   2.476   3.725  0.2962  0.2088  0.4553
 8961SOL     OW27738   7.798   0.215   6.131 -1.2546 -0.3753  0.0851
 8961SOL    HW127739   7.854   0.292   6.139 -1.5748 -0.1971  0.6221
 8961SOL    HW227740   7.845   0.145   6.177 -0.7419 -0.6318 -0.8004
 8962SOL     OW27741   4.910   0.017   1.779  1.0007 -0.0661  0.3666
 8962SOL    HW127742   4.875  -0.011   1.694 -1.5638 -1.2664  1.6914
 8962SOL    HW227743   4.891   0.110   1.784 -1.2864 -0.5076  0.6473
 8963SOL     OW27744   4.250   6.291   2.661 -0.0487 -0.1073  0.1909
 8963SOL    HW127745   4.161   6.287   2.625  0.1832 -3.3125 -0.3208
 8963SOL    HW227746   4.280   6.380   2.641 -3.2237  1.2254  0.7368
 8964SOL     OW27747   7.580   7.898   3.984  0.0427  0.0447 -0.0732
 8964SOL    HW127748   7.668   7.867   4.006 -0.3635 -0.8232  0.3811
 8964SOL    HW227749   7.524   7.862   4.053 -1.3037 -2.7305 -2.3847
 8965SOL     OW27750   7.594   1.035   1.320 -0.2143 -0.0068 -0.0871
 8965SOL    HW127751   7.571   1.123   1.348 -1.3888 -0.3836  0.1895
 8965SOL    HW227752   7.525   0.979   1.355 -0.5296 -0.7987 -1.8476
 8966SOL     OW27753   4.588   4.156   5.582  0.0480  0.0692  0.1420
 8966SOL    HW127754   4.653   4.140   5.650 -0.4038  1.1370  0.8510
 8966SOL    HW227755   4.583   4.073   5.534  1.2395 -0.3222  0.6517
 8967SOL     OW27756   0.570   2.051   6.339 -0.1232  0.2985 -0.1843
 8967SOL    HW127757   0.624   2.058   6.419  0.2941  0.2446 -0.4574
 8967SOL    HW227758   0.633   2.060   6.268 -0.3705 -0.5408 -0.5155
 8968SOL     OW27759   1.511   7.855   7.500 -0.1465  0.0644 -0.2153
 8968SOL    HW127760   1.503   7.786   7.435 -1.6027  0.0318 -0.0471
 8968SOL    HW227761   1.534   7.809   7.581  0.3287 -0.0480 -0.4115
 8969SOL     OW27762   6.612   3.492   6.122 -0.6252 -0.5018 -0.0065
 8969SOL    HW127763   6.665   3.418   6.149 -1.3848 -0.7692  0.7918
 8969SOL    HW227764   6.529   3.482   6.170 -0.2507  1.6100  1.2247
 8970SOL     OW27765   3.522   1.568   3.396  0.3494  0.0946  0.4022
 8970SOL    HW127766   3.615   1.551   3.404  0.6203  0.6131 -1.1791
 8970SOL    HW227767   3.509   1.584   3.302 -1.3257  0.0219  0.5906
 8971SOL     OW27768   5.529   7.980   4.250  0.6218  0.2558 -0.0871
 8971SOL    HW127769   5.529   8.037   4.327 -0.8966 -0.2790  0.3383
 8971SOL    HW227770   5.554   8.037   4.177  1.7059  0.8536  0.7272
 8972SOL     OW27771   2.057   7.370   2.121 -0.7421  0.4681 -0.1630
 8972SOL    HW127772   2.062   7.332   2.209  0.6421  0.7099 -0.1129
 8972SOL    HW227773   2.084   7.300   2.063  0.3028  0.9001 -0.2100
 8973SOL     OW27774   3.053   4.870   5.694  0.0082  0.9204  0.0209
 8973SOL    HW127775   3.113   4.795   5.687  1.2620  1.8301  0.5756
 8973SOL    HW227776   2.966   4.831   5.693  0.5253 -0.3697 -2.1093
 8974SOL     OW27777   4.022   1.580   6.903 -0.5356  0.2684  0.6882
 8974SOL    HW127778   4.100   1.542   6.863 -1.3364  0.1284 -0.8215
 8974SOL    HW227779   3.977   1.506   6.944 -0.9279 -0.0359 -0.2645
 8975SOL     OW27780   4.086   7.608   5.216  0.1683 -0.3859 -0.0115
 8975SOL    HW127781   4.117   7.544   5.152  1.8855 -0.5922  0.9784
 8975SOL    HW227782   4.076   7.558   5.297  1.0933  0.4889  0.6621
 8976SOL     OW27783   7.060   7.248   7.641 -0.8499 -0.0526  0.1848
 8976SOL    HW127784   7.139   7.227   7.590 -0.9253 -2.0508  0.8367
 8976SOL    HW227785   7.058   7.183   7.710 -4.3082 -1.5646 -1.1508
 8977SOL     OW27786   6.481   2.734   6.963  0.5096  0.3981  0.3882
 8977SOL    HW127787   6.538   2.793   7.013  1.2911 -0.5957  0.7001
 8977SOL    HW227788   6.464   2.661   7.022 -0.8369  0.5186  0.1751
 8978SOL     OW27789   3.391   0.305   3.708 -0.7390 -0.6362  0.4014
 8978SOL    HW127790   3.393   0.395   3.675 -0.4705 -0.6225  0.4523
 8978SOL    HW227791   3.459   0.260   3.657 -0.5575 -0.6981  0.7001
 8979SOL     OW27792   6.133   4.150   1.131 -0.2354 -0.0338 -0.0941
 8979SOL    HW127793   6.103   4.104   1.210  0.9505 -1.1612 -0.2683
 8979SOL    HW227794   6.121   4.086   1.060  0.3979  0.3108 -0.5238
 8980SOL     OW27795   5.929   3.697   7.660 -0.0710 -0.5263  0.3132
 8980SOL    HW127796   5.905   3.752   7.735  1.3322 -0.9576  1.1229
 8980SOL    HW227797   5.886   3.613   7.678  2.1323 -1.4187  1.9520
 8981SOL     OW27798   2.827   6.280   5.294 -0.2813  0.1377  0.0737
 8981SOL    HW127799   2.890   6.219   5.255  0.3342  0.4367  0.5727
 8981SOL    HW227800   2.820   6.352   5.231 -0.1876  0.0601 -0.0241
 8982SOL     OW27801   4.745   1.259   3.489  0.4180 -0.3233  0.1980
 8982SOL    HW127802   4.674   1.270   3.552 -0.5989 -1.6320 -0.6730
 8982SOL    HW227803   4.705   1.271   3.403  1.2277 -1.0915 -0.3130
 8983SOL     OW27804   6.948   6.557   7.082  0.2882 -0.2806 -0.2633
 8983SOL    HW127805   7.024   6.575   7.138 -1.3272  2.9376  1.1591
 8983SOL    HW227806   6.879   6.615   7.116 -2.4081 -2.0383 -2.3535
 8984SOL     OW27807   4.082   3.294   1.818 -0.3700  0.1303  0.0092
 8984SOL    HW127808   4.038   3.366   1.863 -2.2252 -1.4081  0.7754
 8984SOL    HW227809   4.170   3.328   1.801 -1.7081  3.3004 -1.4753
 8985SOL     OW27810   5.105   6.002   2.458 -0.6101 -0.3042 -0.7386
 8985SOL    HW127811   5.116   6.017   2.552 -0.1816  0.1909 -0.8643
 8985SOL    HW227812   5.135   6.083   2.417 -0.8319 -0.5022 -1.3053
 8986SOL     OW27813   3.984   4.980   7.073  0.5257  0.8477  0.5156
 8986SOL    HW127814   4.053   4.961   7.137  1.4827 -0.3904 -0.8221
 8986SOL    HW227815   3.989   5.075   7.060  3.4234  0.5847 -1.0448
 8987SOL     OW27816   0.375   2.829   6.603  0.1864 -0.6017  0.1104
 8987SOL    HW127817   0.365   2.756   6.664 -1.1314 -0.6032 -0.0880
 8987SOL    HW227818   0.391   2.788   6.518  2.8348 -0.5957  0.5244
 8988SOL     OW27819   7.651   1.434   2.245 -0.1155 -0.4619  0.4722
 8988SOL    HW127820   7.587   1.382   2.294 -2.1622  1.0498 -0.4811
 8988SOL    HW227821   7.618   1.434   2.155  0.5125  1.4282  0.2061
 8989SOL     OW27822   6.591   5.503   3.028  0.1915 -0.0196  0.0090
 8989SOL    HW127823   6.524   5.569   3.044  0.6312  0.4605 -0.0817
 8989SOL    HW227824   6.667   5.553   2.999  1.1922 -0.3582  1.8810
 8990SOL     OW27825   3.951   5.526   7.659  0.5586 -0.6821  0.6628
 8990SOL    HW127826   4.046   5.519   7.674  0.5353 -1.6817  0.4095
 8990SOL    HW227827   3.943   5.539   7.565  0.5084  1.3718  0.8967
 8991SOL     OW27828   7.838   7.204   5.217 -0.1937  0.3384  0.3854
 8991SOL    HW127829   7.770   7.258   5.178 -0.8397 -0.1722  0.7840
 8991SOL    HW227830   7.843   7.126   5.161  0.0271  0.3524  0.3846
 8992SOL     OW27831   3.879   1.453   1.301  0.4030  0.2920 -0.0515
 8992SOL    HW127832   3.859   1.504   1.223 -1.0381 -0.1086  0.0270
 8992SOL    HW227833   3.876   1.361   1.272 -2.1352  0.0312  0.8297
 8993SOL     OW27834   7.538   7.969   4.976 -1.0549  0.3115 -0.7292
 8993SOL    HW127835   7.515   8.054   5.013 -0.8202 -0.0170  0.1937
 8993SOL    HW227836   7.627   7.981   4.942 -1.9248  1.1383 -2.9069
 8994SOL     OW27837   1.177   2.437   5.971 -0.2431  0.0951 -0.1997
 8994SOL    HW127838   1.270   2.442   5.948 -0.1189  0.2211  0.3068
 8994SOL    HW227839   1.132   2.479   5.898  0.0629 -0.3908 -0.6725
 8995SOL     OW27840   5.375   6.450   5.670  0.8596 -0.1858  0.1723
 8995SOL    HW127841   5.319   6.374   5.683  0.3069 -0.0119 -1.0428
 8995SOL    HW227842   5.350   6.511   5.739  0.5243 -0.6629  0.4715
 8996SOL     OW27843   4.850   1.623   2.394 -0.0052  0.2544  0.3248
 8996SOL    HW127844   4.844   1.600   2.487  1.7992  0.9402  0.6532
 8996SOL    HW227845   4.898   1.706   2.393 -0.7725  0.7072 -1.1833
 8997SOL     OW27846   6.920   3.512   1.791 -0.0922  0.2901  0.0089
 8997SOL    HW127847   6.896   3.430   1.747 -2.7064  0.7694  0.3426
 8997SOL    HW227848   6.876   3.580   1.740 -0.6881  1.1429  1.5946
 8998SOL     OW27849   5.851   2.090   3.012 -0.3427 -0.1779  0.0460
 8998SOL    HW127850   5.917   2.132   3.067  0.1564 -1.2584  0.2966
 8998SOL    HW227851   5.782   2.064   3.073 -0.1935 -0.5928  0.0425
 8999SOL     OW27852   0.628   4.718   6.692 -0.2369  0.6482  0.2203
 8999SOL    HW127853   0.626   4.808   6.725 -1.0485  0.6940  0.0432
 8999SOL    HW227854   0.721   4.702   6.674  0.1411  0.8796  1.8131
 9000SOL     OW27855   5.696   1.776   0.728  0.1265 -0.4036  0.1099
 9000SOL    HW127856   5.651   1.749   0.648  2.1630 -1.0064 -0.8983
 9000SOL    HW227857   5.684   1.871   0.731  1.3483 -0.1180 -1.8488
 9001SOL     OW27858   6.583   3.148   3.668 -0.4026  0.3497 -0.3865
 9001SOL    HW127859   6.552   3.062   3.638 -0.6740 -0.1280  1.1981
 9001SOL    HW227860   6.505   3.202   3.671 -0.2561  0.6274 -1.2303
 9002SOL     OW27861   0.013   6.037   3.335 -0.1383 -0.4924 -0.5195
 9002SOL    HW127862   0.042   5.953   3.301 -0.0101 -0.6308 -0.0746
 9002SOL    HW227863   0.057   6.102   3.280 -0.1170 -0.7173 -0.7641
 9003SOL     OW27864   2.145   3.279   3.580 -0.0216  0.1802 -0.0207
 9003SOL    HW127865   2.202   3.208   3.550 -0.3151 -0.7502  1.5316
 9003SOL    HW227866   2.056   3.246   3.568 -0.2522  1.1215 -1.2036
 9004SOL     OW27867   2.185   4.560   2.478 -0.0194 -0.2008 -0.0228
 9004SOL    HW127868   2.224   4.478   2.447  1.6894  0.1451  1.0898
 9004SOL    HW227869   2.207   4.564   2.571 -1.7312  0.6231  0.3966
 9005SOL     OW27870   1.487   2.731   6.649  0.0121  0.0666  0.3005
 9005SOL    HW127871   1.434   2.755   6.725 -0.2935 -0.8254  0.3800
 9005SOL    HW227872   1.535   2.653   6.677  2.2569  1.4749  0.6210
 9006SOL     OW27873   5.241   6.785   4.556  0.2558  0.6103  0.1068
 9006SOL    HW127874   5.258   6.706   4.607  0.4614  0.4066 -0.2703
 9006SOL    HW227875   5.258   6.759   4.466 -0.1030  0.9679 -0.0651
 9007SOL     OW27876   1.731   0.145   5.323  0.0299  0.0322 -0.6249
 9007SOL    HW127877   1.733   0.058   5.284 -2.1599 -0.0989 -0.5708
 9007SOL    HW227878   1.819   0.158   5.357  1.0749 -1.2011 -2.6532
 9008SOL     OW27879   3.563   7.193   4.901 -0.0278 -0.2519  0.0318
 9008SOL    HW127880   3.611   7.113   4.925 -0.1015 -0.0841  0.7559
 9008SOL    HW227881   3.487   7.161   4.852  0.3611 -0.5742 -0.3719
 9009SOL     OW27882   4.295   3.806   3.274  0.5543  0.2303  0.3942
 9009SOL    HW127883   4.314   3.713   3.267  1.1564  0.3678  0.1781
 9009SOL    HW227884   4.223   3.810   3.337  1.8329 -0.2511  1.9590
 9010SOL     OW27885   0.977   5.593   7.279  0.1044 -0.7147  0.4603
 9010SOL    HW127886   0.978   5.665   7.343 -0.3941  0.1681 -0.5089
 9010SOL    HW227887   0.885   5.582   7.257  0.3381 -0.4573 -0.7010
 9011SOL     OW27888   1.175   5.903   3.812  0.0457 -0.1040 -0.0425
 9011SOL    HW127889   1.201   5.968   3.747  0.5164  0.7209  0.9407
 9011SOL    HW227890   1.257   5.877   3.854 -0.4659  1.2323  1.9040
 9012SOL     OW27891   5.691   5.338   3.672  0.6056 -0.0875 -0.8274
 9012SOL    HW127892   5.636   5.337   3.750  0.7673  1.2808 -0.6598
 9012SOL    HW227893   5.779   5.360   3.704  0.8667 -0.4117 -1.2987
 9013SOL     OW27894   6.619   6.623   6.040  0.2279  0.2560 -0.0214
 9013SOL    HW127895   6.647   6.592   5.953 -0.1406 -0.2348  0.0310
 9013SOL    HW227896   6.578   6.707   6.023 -3.0789 -1.3673 -0.8533
 9014SOL     OW27897   2.983   1.776   0.239  0.3000 -0.3468 -0.6400
 9014SOL    HW127898   3.036   1.854   0.222 -0.1532 -0.3543 -2.3029
 9014SOL    HW227899   3.030   1.729   0.308 -0.1854  2.1013  1.5305
 9015SOL     OW27900   3.325   2.904   1.201  0.3367 -0.4952  0.2821
 9015SOL    HW127901   3.330   2.859   1.285  1.4421  0.8130  0.9684
 9015SOL    HW227902   3.294   2.992   1.223 -1.3497 -0.7270 -0.9567
 9016SOL     OW27903   6.757   7.369   7.015  0.2206 -0.0543  0.5527
 9016SOL    HW127904   6.685   7.422   6.982  1.6916  1.7693  0.1440
 9016SOL    HW227905   6.717   7.284   7.035 -1.6821  0.3357 -1.2921
 9017SOL     OW27906   6.711   1.231   4.256 -0.4727  0.4644  0.1989
 9017SOL    HW127907   6.745   1.319   4.271 -0.4012  0.2889  1.1023
 9017SOL    HW227908   6.761   1.175   4.315 -1.6752  0.0713  0.8821
 9018SOL     OW27909   0.396   6.961   7.031 -0.5563 -0.1746  0.1757
 9018SOL    HW127910   0.391   7.035   6.969  0.0349 -0.0604  0.2516
 9018SOL    HW227911   0.431   6.889   6.978 -0.3286 -0.1605  0.3081
 9019SOL     OW27912   0.765   0.842   3.154 -0.8996 -0.1988 -0.0999
 9019SOL    HW127913   0.787   0.864   3.064 -1.0665  1.2098  0.1749
 9019SOL    HW227914   0.698   0.774   3.147 -0.3085 -0.6960 -1.0169
 9020SOL     OW27915   7.295   2.652   5.702  0.2754 -0.5768 -0.9718
 9020SOL    HW127916   7.303   2.742   5.670  2.0597 -0.7241 -1.0762
 9020SOL    HW227917   7.321   2.598   5.628 -0.3415 -1.1633 -0.7700
 9021SOL     OW27918   7.299   5.761   2.707  0.5353  0.4306 -0.0414
 9021SOL    HW127919   7.303   5.691   2.772  2.6376  1.5039  1.0717
 9021SOL    HW227920   7.311   5.716   2.623 -2.0346 -0.9461  0.2178
 9022SOL     OW27921   3.019   1.591   2.967  0.3506 -0.3560 -0.6024
 9022SOL    HW127922   2.932   1.566   2.936 -0.7898  1.4310  0.9205
 9022SOL    HW227923   3.060   1.632   2.892 -0.7452  0.1984 -0.9227
 9023SOL     OW27924   7.534   0.603   5.930  0.1317  0.2789 -0.0431
 9023SOL    HW127925   7.455   0.580   5.979  1.0604  0.2744  1.5266
 9023SOL    HW227926   7.502   0.627   5.843 -1.5220 -0.3718  0.3405
 9024SOL     OW27927   0.743   6.399   6.322  0.5899 -0.2263 -0.1175
 9024SOL    HW127928   0.653   6.430   6.309  0.4837 -0.0242  1.0314
 9024SOL    HW227929   0.755   6.334   6.253 -0.6909 -0.7701  0.1329
 9025SOL     OW27930   2.075   0.137   3.343 -0.5774  0.4619  0.2760
 9025SOL    HW127931   2.009   0.150   3.411 -2.0696 -0.6822 -0.8839
 9025SOL    HW227932   2.148   0.193   3.370 -1.8119  1.4107  1.8545
 9026SOL     OW27933   4.941   6.816   5.347  0.4071 -0.6997  0.0818
 9026SOL    HW127934   4.965   6.908   5.358 -4.9258  1.1296 -0.4029
 9026SOL    HW227935   4.942   6.780   5.436  1.0054  0.3497  0.5129
 9027SOL     OW27936   7.299   7.440   0.440 -0.0978 -0.1920  0.0773
 9027SOL    HW127937   7.241   7.379   0.394  1.4054 -0.6816 -1.2614
 9027SOL    HW227938   7.289   7.417   0.532 -0.2095 -1.9334 -0.3199
 9028SOL     OW27939   0.772   1.714   5.479 -0.2720 -0.2314  0.3283
 9028SOL    HW127940   0.820   1.774   5.534 -0.0869  0.5125 -0.6235
 9028SOL    HW227941   0.737   1.648   5.540  2.3126 -1.0936  1.0007
 9029SOL     OW27942   7.111   5.281   6.609 -0.3032  0.0052 -0.8922
 9029SOL    HW127943   7.174   5.260   6.679 -1.2371  0.0295 -0.0134
 9029SOL    HW227944   7.165   5.297   6.532  0.9725  2.4906  0.3874
 9030SOL     OW27945   6.702   7.810   1.491 -0.0063 -0.0036 -0.8344
 9030SOL    HW127946   6.751   7.768   1.561 -0.8150  0.0862 -0.1987
 9030SOL    HW227947   6.716   7.904   1.505  1.0155 -0.0163 -1.6772
 9031SOL     OW27948   5.120   4.581   3.949 -0.0174  0.1174 -0.1147
 9031SOL    HW127949   5.046   4.639   3.930  0.2716  0.4685 -0.1723
 9031SOL    HW227950   5.128   4.583   4.044 -0.4276 -0.3546 -0.0661
 9032SOL     OW27951   5.591   0.808   6.162 -0.4914  0.2681 -0.0323
 9032SOL    HW127952   5.573   0.880   6.101 -1.4639 -1.1877 -1.5425
 9032SOL    HW227953   5.682   0.822   6.187 -0.6781  2.0837 -0.1840
 9033SOL     OW27954   6.524   0.011   1.138  0.3130  0.8254 -0.2401
 9033SOL    HW127955   6.577   0.069   1.193  1.0726 -2.2250  2.5870
 9033SOL    HW227956   6.587  -0.030   1.079  0.2349  0.8888 -0.3680
 9034SOL     OW27957   0.875   5.663   0.417  0.0906 -0.0106 -0.1474
 9034SOL    HW127958   0.888   5.569   0.426  1.5466 -0.1496 -2.6301
 9034SOL    HW227959   0.791   5.672   0.372 -0.4955 -0.0450  0.9164
 9035SOL     OW27960   1.930   2.834   2.528 -0.0985  0.0679  0.4290
 9035SOL    HW127961   2.000   2.790   2.479  1.0499  1.5099  0.7148
 9035SOL    HW227962   1.940   2.927   2.507 -0.8107  0.5000  1.8675
 9036SOL     OW27963   7.407   1.469   4.802  0.5607  0.1300 -0.5699
 9036SOL    HW127964   7.485   1.460   4.856 -0.1286  0.6076  0.5362
 9036SOL    HW227965   7.429   1.537   4.738  0.7886  0.8155  0.2227
 9037SOL     OW27966   5.915   4.652   1.589  0.2134  0.2118 -0.0715
 9037SOL    HW127967   5.845   4.594   1.559 -0.4880  1.2217 -0.4431
 9037SOL    HW227968   5.928   4.714   1.517  0.8977  0.5578  0.3350
 9038SOL     OW27969   2.131   4.726   5.366 -0.2353 -0.0471  0.5245
 9038SOL    HW127970   2.058   4.702   5.309  0.4577 -1.7409  0.2826
 9038SOL    HW227971   2.199   4.757   5.307 -0.3689  0.4965  0.6525
 9039SOL     OW27972   3.270   3.572   7.657 -0.3022 -0.5130  0.0047
 9039SOL    HW127973   3.241   3.622   7.733  1.6106 -0.8557  1.0269
 9039SOL    HW227974   3.207   3.500   7.650 -1.2324  0.2407  0.4833
 9040SOL     OW27975   7.716   6.307   6.725  0.3261  0.2446  0.1475
 9040SOL    HW127976   7.763   6.373   6.776 -1.0653  2.1868 -0.9036
 9040SOL    HW227977   7.773   6.289   6.651  0.4636  0.7866  0.1144
 9041SOL     OW27978   3.727   1.049   6.322  0.0716  0.2011  0.2470
 9041SOL    HW127979   3.647   1.009   6.287 -0.7387  1.4524  0.6061
 9041SOL    HW227980   3.778   1.072   6.244  0.5944 -1.5362  0.0301
 9042SOL     OW27981   1.616   1.363   1.216  0.3427  0.1193 -0.3578
 9042SOL    HW127982   1.569   1.325   1.291 -1.1867 -1.0670 -1.8261
 9042SOL    HW227983   1.547   1.401   1.162  1.3453  0.4017 -1.4666
 9043SOL     OW27984   7.080   3.105   5.253 -0.7350  0.0285 -0.3577
 9043SOL    HW127985   7.030   3.024   5.253 -1.2537  0.3463 -0.5946
 9043SOL    HW227986   7.163   3.082   5.295 -1.0386 -0.5209 -0.0516
 9044SOL     OW27987   5.201   1.596   3.292 -0.5767 -0.6557  0.0080
 9044SOL    HW127988   5.201   1.681   3.337 -0.3129 -0.9268  0.5165
 9044SOL    HW227989   5.143   1.541   3.344 -1.3011 -0.5980 -0.7055
 9045SOL     OW27990   1.810   4.278   1.738 -0.1749  0.0719  0.4133
 9045SOL    HW127991   1.855   4.359   1.763  1.2462 -0.9063  1.1804
 9045SOL    HW227992   1.763   4.251   1.816 -2.6410  1.3635 -0.5388
 9046SOL     OW27993   7.273   0.470   1.867 -0.4098  0.0723  0.2465
 9046SOL    HW127994   7.199   0.432   1.915  0.4940 -1.3351  0.5952
 9046SOL    HW227995   7.324   0.516   1.933 -1.3128  1.6920 -0.1172
 9047SOL     OW27996   0.951   4.629   2.989  0.1947  0.1457 -0.0481
 9047SOL    HW127997   1.031   4.578   3.002 -0.8812 -1.3899  0.7270
 9047SOL    HW227998   0.949   4.690   3.063  0.4045 -0.1113  0.1677
 9048SOL     OW27999   4.991   6.872   4.439 -0.1662  0.0253  0.4170
 9048SOL    HW128000   4.931   6.895   4.510  1.4999  1.4275  1.4666
 9048SOL    HW228001   5.064   6.829   4.482  1.2101  1.5315 -0.3032
 9049SOL     OW28002   5.064   4.605   1.323  0.2686 -0.2399 -0.0176
 9049SOL    HW128003   5.070   4.649   1.408  1.5934 -0.2199 -0.0991
 9049SOL    HW228004   5.118   4.658   1.264 -1.3325  0.2504 -1.1243
 9050SOL     OW28005   5.752   6.044   5.349 -0.4905  0.4637 -0.4856
 9050SOL    HW128006   5.847   6.051   5.336 -0.2540 -0.4214  0.6204
 9050SOL    HW228007   5.716   6.115   5.295  0.8132  1.0481 -0.6475
 9051SOL     OW28008   6.874   4.460   2.569  0.2583  0.1910 -0.1773
 9051SOL    HW128009   6.792   4.496   2.536 -0.0935 -1.3841 -1.1662
 9051SOL    HW228010   6.850   4.374   2.604  1.1344  0.6113  1.5921
 9052SOL     OW28011   3.899   3.241   0.475 -0.2370 -0.0970  0.1425
 9052SOL    HW128012   3.968   3.250   0.541  0.6632  0.4356 -0.8406
 9052SOL    HW228013   3.870   3.150   0.482  2.0528 -0.9831 -0.8180
 9053SOL     OW28014   4.802   6.411   3.756  0.1307  1.0613  0.1961
 9053SOL    HW128015   4.838   6.326   3.782  0.9128  1.1416 -0.5869
 9053SOL    HW228016   4.707   6.398   3.757  0.2219  0.3504  0.6338
 9054SOL     OW28017   6.744   1.874   4.428 -0.3809 -0.4157 -0.2625
 9054SOL    HW128018   6.810   1.856   4.362  1.8547 -0.3358  1.7944
 9054SOL    HW228019   6.761   1.809   4.497 -0.7376  1.1907  1.4427
 9055SOL     OW28020   4.411   5.857   5.105  0.3265  0.0564 -0.2408
 9055SOL    HW128021   4.432   5.764   5.095  0.2222  0.0728 -0.6362
 9055SOL    HW228022   4.446   5.898   5.026  1.9035  0.6255  0.7114
 9056SOL     OW28023   0.123   5.957   6.262  0.3910 -0.3566  0.0015
 9056SOL    HW128024   0.160   5.938   6.349  0.5073 -2.0518 -0.3896
 9056SOL    HW228025   0.041   6.004   6.281 -0.2004 -1.7445  1.0981
 9057SOL     OW28026   4.133   0.072   2.904 -0.3724 -0.2938 -0.0669
 9057SOL    HW128027   4.060   0.061   2.843 -0.8778  0.6587  0.3343
 9057SOL    HW228028   4.157  -0.017   2.929 -1.4953 -0.6299 -0.1033
 9058SOL     OW28029   1.926   3.635   7.724  0.5422  0.2513 -0.6845
 9058SOL    HW128030   1.981   3.573   7.772 -0.3769 -0.9595 -1.1669
 9058SOL    HW228031   1.976   3.655   7.645  0.0647 -1.3007 -1.4053
 9059SOL     OW28032   5.031   1.117   2.442  0.7031 -0.0110 -0.1924
 9059SOL    HW128033   4.976   1.069   2.380 -0.0130 -2.1251  1.8972
 9059SOL    HW228034   5.121   1.093   2.417  0.4988  0.0602 -1.0432
 9060SOL     OW28035   4.735   3.678   2.132  0.9891  0.5322  0.3153
 9060SOL    HW128036   4.721   3.771   2.114  0.8181  0.4303 -0.0976
 9060SOL    HW228037   4.776   3.644   2.052  1.3367  0.3191  0.5874
 9061SOL     OW28038   5.548   5.013   2.458  0.5750 -0.0485  0.0514
 9061SOL    HW128039   5.573   5.087   2.401  0.0282  0.6268  0.6667
 9061SOL    HW228040   5.595   5.029   2.540  0.3348 -0.3019  0.2379
 9062SOL     OW28041   5.851   6.855   0.202  0.2311 -0.0546  0.1126
 9062SOL    HW128042   5.885   6.939   0.173  1.2061 -0.7007 -0.7183
 9062SOL    HW228043   5.904   6.790   0.154 -2.1413 -1.1396 -1.2482
 9063SOL     OW28044   2.888   0.233   7.358  0.1870  0.0825  0.6036
 9063SOL    HW128045   2.852   0.310   7.402 -1.8077 -0.2284 -0.3492
 9063SOL    HW228046   2.983   0.243   7.365 -0.0306  2.1945  1.1976
 9064SOL     OW28047   5.527   4.023   5.145 -0.1921 -0.1667  0.2029
 9064SOL    HW128048   5.607   4.062   5.110 -0.1836 -0.1343  0.2594
 9064SOL    HW228049   5.557   3.941   5.186 -0.2587 -0.4168 -0.2360
 9065SOL     OW28050   4.990   4.659   5.442  0.0204 -0.2737  0.0743
 9065SOL    HW128051   4.960   4.570   5.426  0.1268 -0.5402  1.2946
 9065SOL    HW228052   5.041   4.653   5.523 -0.6650  1.0466  0.6244
 9066SOL     OW28053   3.697   5.042   1.727  0.2356  0.0948  0.0947
 9066SOL    HW128054   3.663   4.966   1.774  1.4017  0.5564  1.7572
 9066SOL    HW228055   3.707   5.109   1.794  0.5406  1.2746 -1.0978
 9067SOL     OW28056   1.645   5.139   2.243  0.4190  0.1731  0.2600
 9067SOL    HW128057   1.689   5.222   2.256  0.8935 -0.1608  0.8374
 9067SOL    HW228058   1.658   5.118   2.150 -0.3148  1.0750 -0.0599
 9068SOL     OW28059   5.998   5.739   3.391 -0.5561  0.4482 -0.7480
 9068SOL    HW128060   6.017   5.756   3.483  1.3423  0.1086 -1.0316
 9068SOL    HW228061   5.902   5.732   3.387 -0.6849  0.5566  1.1698
 9069SOL     OW28062   3.688   2.289   4.053  0.1389 -0.4354 -0.2850
 9069SOL    HW128063   3.671   2.384   4.050 -1.9968 -0.6775  1.5196
 9069SOL    HW228064   3.674   2.260   3.963  1.7224  1.0571 -1.0679
 9070SOL     OW28065   4.205   1.391   4.875 -0.1561 -0.5704  0.2520
 9070SOL    HW128066   4.132   1.365   4.930 -0.1026 -1.6368 -0.1761
 9070SOL    HW228067   4.259   1.313   4.866  0.7089  0.0264  0.0351
 9071SOL     OW28068   4.201   4.845   5.561  0.0480 -0.0317  0.2126
 9071SOL    HW128069   4.130   4.909   5.559 -0.5242 -0.6619 -0.8484
 9071SOL    HW228070   4.212   4.824   5.653 -0.4588  0.8125  0.4787
 9072SOL     OW28071   7.644   3.109   6.631  0.1816 -0.1759 -0.6694
 9072SOL    HW128072   7.553   3.108   6.659 -0.8560  2.9257 -3.3628
 9072SOL    HW228073   7.668   3.016   6.624 -1.8290 -1.0929  2.5279
 9073SOL     OW28074   4.523   3.495   5.428  0.7057  0.1184  0.2778
 9073SOL    HW128075   4.616   3.517   5.432  0.5677  0.7644  0.1170
 9073SOL    HW228076   4.482   3.572   5.387 -0.1366  0.6330  1.9652
 9074SOL     OW28077   0.527   1.496   6.044 -0.4273  0.2592 -0.4664
 9074SOL    HW128078   0.623   1.501   6.039 -0.1809  0.6732  2.7141
 9074SOL    HW228079   0.509   1.403   6.057 -0.2338  0.4119  1.0901
 9075SOL     OW28080   4.559   0.913   7.052  0.0047  0.3191  0.0355
 9075SOL    HW128081   4.623   0.981   7.031 -0.4652  0.7934  0.1140
 9075SOL    HW228082   4.566   0.850   6.981  0.0822  0.7113 -0.3063
 9076SOL     OW28083   5.925   6.786   0.913 -0.8125 -0.1964  0.4825
 9076SOL    HW128084   5.914   6.867   0.863 -1.1587 -1.2996 -1.3227
 9076SOL    HW228085   6.001   6.743   0.872 -0.8579 -0.9480  1.1696
 9077SOL     OW28086   2.998   5.630   2.373 -0.1107  0.2353  0.1004
 9077SOL    HW128087   3.081   5.651   2.331  0.3836 -1.1127  0.3640
 9077SOL    HW228088   2.986   5.698   2.439  0.6651  0.5653 -0.0874
 9078SOL     OW28089   6.614   1.236   2.202  0.7977  0.5304 -0.7068
 9078SOL    HW128090   6.566   1.164   2.161 -0.8929  1.9921 -1.4041
 9078SOL    HW228091   6.642   1.290   2.129  1.1862  1.1085 -0.1391
 9079SOL     OW28092   3.127   4.799   3.347 -0.1058  0.9371  0.0295
 9079SOL    HW128093   3.120   4.870   3.410  0.2393  0.7628  0.2702
 9079SOL    HW228094   3.222   4.787   3.335 -0.1287 -0.2807  0.9037
 9080SOL     OW28095   3.688   6.265   0.675  0.1149  0.1924 -0.0439
 9080SOL    HW128096   3.687   6.266   0.580  1.0858  0.0685 -0.0635
 9080SOL    HW228097   3.689   6.173   0.699 -4.3471 -0.0189  0.2134
 9081SOL     OW28098   4.652   2.795   4.414  0.5595  0.7857 -0.3901
 9081SOL    HW128099   4.572   2.804   4.362  0.3205 -1.5213 -0.5124
 9081SOL    HW228100   4.654   2.875   4.467 -2.0541  0.7582 -0.0860
 9082SOL     OW28101   4.965   4.865   7.161 -0.0683 -0.1618  0.4436
 9082SOL    HW128102   5.051   4.900   7.137  0.2253 -0.7192  0.6653
 9082SOL    HW228103   4.910   4.881   7.084  1.0411 -2.5635 -0.9760
 9083SOL     OW28104   7.240   7.587   3.610  0.0504  0.2154  0.1553
 9083SOL    HW128105   7.191   7.638   3.546  0.1932 -1.2919 -1.2114
 9083SOL    HW228106   7.276   7.653   3.670 -0.4584  1.6426 -1.0380
 9084SOL     OW28107   2.647   3.277   3.872 -0.3785  0.1024  0.3313
 9084SOL    HW128108   2.647   3.248   3.963  2.4910  1.6686  0.9490
 9084SOL    HW228109   2.587   3.351   3.870 -2.7140 -1.6824  0.1945
 9085SOL     OW28110   7.421   0.622   4.002 -0.2325  0.0068  1.1571
 9085SOL    HW128111   7.507   0.646   4.037 -0.0622  0.1205  0.6846
 9085SOL    HW228112   7.441   0.585   3.915 -0.7140  0.7076  0.7411
 9086SOL     OW28113   2.891   1.720   2.069  0.3023 -0.0246 -0.0271
 9086SOL    HW128114   2.908   1.696   1.978  1.0001 -0.2483  0.1574
 9086SOL    HW228115   2.796   1.713   2.078  0.3623 -1.5536 -0.2974
 9087SOL     OW28116   7.422   7.428   5.725  0.0325  0.1501  0.0922
 9087SOL    HW128117   7.460   7.464   5.805 -1.6629 -0.1541  1.0706
 9087SOL    HW228118   7.431   7.333   5.735  1.3806  0.1463 -0.9041
 9088SOL     OW28119   7.826   0.278   2.080 -0.3492  0.0121 -0.1642
 9088SOL    HW128120   7.900   0.301   2.137 -0.2449  0.9584 -0.6627
 9088SOL    HW228121   7.765   0.351   2.090 -0.2000  0.3309 -1.4657
 9089SOL     OW28122   2.334   4.322   3.130  0.2271 -0.2803  0.2617
 9089SOL    HW128123   2.276   4.390   3.164 -0.7878 -1.3173  0.6728
 9089SOL    HW228124   2.386   4.295   3.206  0.4641 -0.1347  0.1533
 9090SOL     OW28125   5.848   0.215   4.583  0.0255  0.3982 -0.4314
 9090SOL    HW128126   5.753   0.204   4.585  0.0114  0.4872 -0.5737
 9090SOL    HW228127   5.860   0.309   4.570  0.1121  0.1170 -2.7341
 9091SOL     OW28128   5.894   4.409   6.206 -0.1708  0.2334 -0.5977
 9091SOL    HW128129   5.959   4.474   6.181 -1.3014  1.7796  0.3163
 9091SOL    HW228130   5.829   4.458   6.256 -0.0772 -1.9386  1.8481
 9092SOL     OW28131   0.665   3.255   0.616  0.4546  0.2541  0.2604
 9092SOL    HW128132   0.663   3.331   0.674  0.5361 -0.5756  1.3870
 9092SOL    HW228133   0.575   3.223   0.614  0.3208  0.6709 -0.6187
 9093SOL     OW28134   4.807   2.966   3.008 -0.1076  0.1387 -0.4287
 9093SOL    HW128135   4.766   3.052   3.009  0.9369  0.6552  1.2039
 9093SOL    HW228136   4.901   2.984   3.014  0.2168 -1.0904 -1.4299
 9094SOL     OW28137   1.341   0.085   0.955 -0.0499 -0.0096 -0.2562
 9094SOL    HW128138   1.363  -0.007   0.970 -0.5630 -0.1961 -0.6363
 9094SOL    HW228139   1.371   0.129   1.035 -0.2941 -0.5858  0.1623
 9095SOL     OW28140   7.116   7.830   6.184 -0.4572 -0.3334  0.6738
 9095SOL    HW128141   7.062   7.753   6.166 -0.6258 -0.1667  0.4736
 9095SOL    HW228142   7.054   7.899   6.206 -0.2912 -0.3273  1.1302
 9096SOL     OW28143   0.916   7.198   2.402 -0.0772  0.4185 -0.3883
 9096SOL    HW128144   0.838   7.145   2.420  0.5607 -0.3610  0.1300
 9096SOL    HW228145   0.896   7.241   2.319 -1.0072  0.1263 -0.3358
 9097SOL     OW28146   1.941   7.458   3.754  0.6152 -0.6077  0.3567
 9097SOL    HW128147   1.867   7.431   3.700  0.9382  0.2552 -0.5444
 9097SOL    HW228148   2.018   7.440   3.699  1.0927 -1.5031  1.2820
 9098SOL     OW28149   6.047   0.143   2.189 -0.3244 -0.3503  0.1499
 9098SOL    HW128150   5.957   0.170   2.172 -0.3086 -1.4173 -1.9111
 9098SOL    HW228151   6.099   0.191   2.125  0.2985 -1.4057 -0.1511
 9099SOL     OW28152   1.738   1.873   3.686 -0.2239  0.6965 -0.1877
 9099SOL    HW128153   1.723   1.784   3.654  0.8169  0.1865  0.6713
 9099SOL    HW228154   1.832   1.876   3.704 -0.5229  1.4091  1.4142
 9100SOL     OW28155   3.420   3.124   6.983 -0.5377 -0.3707  0.5297
 9100SOL    HW128156   3.364   3.051   6.956  0.2546 -1.4602  1.7034
 9100SOL    HW228157   3.373   3.164   7.056 -0.6052 -0.1875  0.3868
 9101SOL     OW28158   2.985   4.594   4.247 -0.0931 -0.2411  0.2496
 9101SOL    HW128159   2.892   4.579   4.262 -0.1755 -1.1980 -1.0801
 9101SOL    HW228160   3.026   4.575   4.331 -1.0355 -0.3744  0.6914
 9102SOL     OW28161   2.030   7.179   6.103  0.5398  0.0872 -0.1764
 9102SOL    HW128162   2.029   7.134   6.188  1.5718 -0.0270 -0.2019
 9102SOL    HW228163   1.938   7.196   6.083  0.1707 -1.4098  0.1480
 9103SOL     OW28164   7.653   7.179   7.625 -0.0128  0.2084 -0.2051
 9103SOL    HW128165   7.620   7.262   7.658  2.5760  0.5446  1.8602
 9103SOL    HW228166   7.706   7.202   7.549 -0.9060  0.1565 -0.8654
 9104SOL     OW28167   7.228   7.451   4.515  0.6413 -0.0004  1.0062
 9104SOL    HW128168   7.298   7.388   4.503  1.1342  0.4206  1.6492
 9104SOL    HW228169   7.239   7.514   4.444  2.0376  1.0856  2.1391
 9105SOL     OW28170   4.694   5.939   5.535  0.4720 -0.5426  0.0907
 9105SOL    HW128171   4.624   5.976   5.481 -0.1167 -1.3328  0.2879
 9105SOL    HW228172   4.771   5.940   5.479 -0.2791 -1.9794 -1.0491
 9106SOL     OW28173   7.304   7.569   5.000 -0.2893  0.0306 -0.1709
 9106SOL    HW128174   7.348   7.484   5.008 -1.4090 -0.5274  0.2648
 9106SOL    HW228175   7.261   7.566   4.915  0.1665  0.4098 -0.4170
 9107SOL     OW28176   1.635   0.707   3.851 -0.4171  0.3427  0.5916
 9107SOL    HW128177   1.647   0.688   3.758 -2.4462  0.6612  0.2201
 9107SOL    HW228178   1.540   0.717   3.861 -0.1684  1.0729  2.5467
 9108SOL     OW28179   7.765   4.602   1.193 -0.0686  0.2214  0.0695
 9108SOL    HW128180   7.799   4.690   1.209  0.1612  0.3067 -0.8526
 9108SOL    HW228181   7.821   4.544   1.245  0.4323  0.5238 -0.1312
 9109SOL     OW28182   2.535   5.843   4.328 -0.0858  0.1869 -0.1995
 9109SOL    HW128183   2.489   5.880   4.403 -0.1270 -0.0306 -0.1192
 9109SOL    HW228184   2.529   5.748   4.339 -0.9611  0.1354 -1.0119
 9110SOL     OW28185   7.288   6.347   7.512 -0.1377  0.0202 -0.0939
 9110SOL    HW128186   7.298   6.441   7.526  0.8362 -0.1657  0.5023
 9110SOL    HW228187   7.341   6.329   7.434  0.2629 -0.1625  0.2238
 9111SOL     OW28188   2.675   5.498   0.632  0.1737  0.3003 -0.3772
 9111SOL    HW128189   2.747   5.524   0.690 -1.1418 -0.0848  1.5206
 9111SOL    HW228190   2.602   5.554   0.658 -0.8951 -0.9513 -0.5746
 9112SOL     OW28191   5.862   2.332   5.442  0.5301  0.1702  0.1146
 9112SOL    HW128192   5.808   2.335   5.521  2.5771  0.8782  1.5593
 9112SOL    HW228193   5.858   2.422   5.408 -0.6790 -0.2284 -0.8784
 9113SOL     OW28194   5.539   7.124   1.566 -0.0494 -0.7580 -0.8011
 9113SOL    HW128195   5.512   7.034   1.585 -0.9982 -0.4030 -0.4293
 9113SOL    HW228196   5.631   7.116   1.542  0.5264 -1.5767  1.4229
 9114SOL     OW28197   3.799   1.250   2.317  0.1794 -0.1445  0.1765
 9114SOL    HW128198   3.890   1.280   2.306 -0.1239  0.4820 -0.7328
 9114SOL    HW228199   3.766   1.242   2.228 -1.1362  1.1238  0.5102
 9115SOL     OW28200   0.563   5.744   3.323  0.0229  0.2419 -0.4823
 9115SOL    HW128201   0.481   5.730   3.371  0.1918  2.1970  0.4873
 9115SOL    HW228202   0.628   5.690   3.369 -0.5211 -0.6156 -0.7008
 9116SOL     OW28203   2.216   2.076   3.080 -0.2923  0.1669 -0.1829
 9116SOL    HW128204   2.137   2.079   3.134 -0.6756 -1.3034 -0.6097
 9116SOL    HW228205   2.239   1.983   3.077  0.5813  0.4025 -1.3207
 9117SOL     OW28206   6.350   0.116   3.164  0.1722  0.3705  0.5814
 9117SOL    HW128207   6.405   0.045   3.129 -0.6985 -0.7845  1.4959
 9117SOL    HW228208   6.404   0.195   3.153  1.8149 -0.6426  0.9607
 9118SOL     OW28209   0.522   0.991   0.603  0.6278  0.4855  0.3377
 9118SOL    HW128210   0.486   0.949   0.525  1.4965  0.9415 -0.3261
 9118SOL    HW228211   0.509   0.927   0.673  0.0978 -0.0427 -0.2370
 9119SOL     OW28212   1.900   1.729   4.882  0.4484  0.3649 -0.1456
 9119SOL    HW128213   1.856   1.809   4.913 -1.5053  0.0961 -1.9560
 9119SOL    HW228214   1.842   1.658   4.910  2.0387 -0.4594  1.2304
 9120SOL     OW28215   6.613   2.712   4.739 -0.0497 -0.1915 -0.5127
 9120SOL    HW128216   6.636   2.637   4.794  1.4150 -0.0665 -0.8864
 9120SOL    HW228217   6.527   2.740   4.769 -0.9593 -2.4421 -0.8034
 9121SOL     OW28218   7.651   1.731   5.027  0.1704  0.5708 -0.3208
 9121SOL    HW128219   7.744   1.747   5.042  0.0192  2.5444 -1.1687
 9121SOL    HW228220   7.610   1.817   5.041 -1.5036 -0.2257 -0.1117
 9122SOL     OW28221   0.382   5.844   5.693 -0.1806 -0.4802 -0.3616
 9122SOL    HW128222   0.355   5.928   5.655  0.1284 -0.3405 -0.2687
 9122SOL    HW228223   0.347   5.779   5.632  0.8608 -0.2457 -1.2459
 9123SOL     OW28224   5.617   3.958   2.453 -0.3227 -0.2992 -0.2292
 9123SOL    HW128225   5.653   3.889   2.398 -0.2197  1.5655 -2.6528
 9123SOL    HW228226   5.689   4.021   2.463 -1.1856  0.7385 -0.3609
 9124SOL     OW28227   7.034   4.994   4.536  0.0782 -0.6776  0.6169
 9124SOL    HW128228   7.110   4.994   4.477  1.1927 -0.8542  1.9980
 9124SOL    HW228229   6.959   4.978   4.479  0.5970  2.8141 -1.3622
 9125SOL     OW28230   5.528   0.566   3.398  0.2075  0.1848 -0.1543
 9125SOL    HW128231   5.507   0.643   3.451 -0.6675 -0.8042  0.9805
 9125SOL    HW228232   5.506   0.592   3.308  1.9402  1.9700 -0.1483
 9126SOL     OW28233   1.353   1.087   3.452  0.5423 -0.6746 -0.3575
 9126SOL    HW128234   1.273   1.123   3.414  0.1532 -0.2712  0.7751
 9126SOL    HW228235   1.322   1.031   3.523  1.2561  1.5242  1.8457
 9127SOL     OW28236   1.085   0.789   6.906 -0.3111  0.3468  0.2220
 9127SOL    HW128237   1.178   0.784   6.928 -0.4573 -0.4465  0.7192
 9127SOL    HW228238   1.066   0.883   6.904  0.3863  0.5069  0.6204
 9128SOL     OW28239   6.711   2.249   4.652 -0.2539 -0.0407  0.1045
 9128SOL    HW128240   6.716   2.195   4.573  0.8017 -0.1673  0.2437
 9128SOL    HW228241   6.788   2.225   4.702 -0.4192  0.7277  0.7403
 9129SOL     OW28242   1.115   4.005   6.044  0.3157  0.4208 -0.4606
 9129SOL    HW128243   1.040   3.947   6.059  1.1951 -0.5401  0.3995
 9129SOL    HW228244   1.153   4.017   6.131  2.6109 -1.1877 -1.1446
 9130SOL     OW28245   1.775   0.906   6.727 -0.6332  0.4768 -0.0545
 9130SOL    HW128246   1.840   0.946   6.784 -0.4584 -0.6324  0.5533
 9130SOL    HW228247   1.691   0.928   6.768 -0.4938 -0.6693  0.9103
 9131SOL     OW28248   4.121   2.593   2.726 -0.0983  0.2040 -0.2959
 9131SOL    HW128249   4.184   2.579   2.796  1.6734  0.9717 -1.6477
 9131SOL    HW228250   4.118   2.510   2.679  0.0171  0.2124 -0.3172
 9132SOL     OW28251   1.407   0.626   6.209 -0.4416 -0.1408 -0.4295
 9132SOL    HW128252   1.468   0.699   6.204  1.9787 -1.9147  0.9751
 9132SOL    HW228253   1.439   0.564   6.144  0.0854 -1.6106  1.1462
 9133SOL     OW28254   7.925   2.127   4.426 -0.0240  0.0511  0.1841
 9133SOL    HW128255   7.867   2.203   4.424  0.1609  0.1928  0.1231
 9133SOL    HW228256   7.923   2.098   4.518 -1.1721 -0.7186 -0.0600
 9134SOL     OW28257   0.107   5.811   6.031 -0.7471  0.7324 -0.3465
 9134SOL    HW128258   0.062   5.727   6.040 -0.7906  0.7976  0.0377
 9134SOL    HW228259   0.102   5.851   6.117  0.9539  0.2897 -0.0050
 9135SOL     OW28260   0.779   4.916   3.631 -0.3238  0.2008  0.2237
 9135SOL    HW128261   0.782   4.940   3.538  0.2145  0.8009  0.3842
 9135SOL    HW228262   0.751   4.996   3.675 -0.7643 -0.1372  0.5622
 9136SOL     OW28263   2.445   7.101   3.438 -0.6245 -0.0611  0.4052
 9136SOL    HW128264   2.535   7.096   3.405 -0.9107  1.3423 -0.6834
 9136SOL    HW228265   2.429   7.015   3.477  1.6322  0.0760  1.8110
 9137SOL     OW28266   7.302   2.245   6.126  0.3688 -0.1878  0.5557
 9137SOL    HW128267   7.303   2.297   6.206  0.9059 -0.7723  0.9456
 9137SOL    HW228268   7.214   2.256   6.090  0.3437  0.6342  0.8504
 9138SOL     OW28269   1.877   3.324   2.362  0.0269  0.5048 -0.3267
 9138SOL    HW128270   1.900   3.280   2.444  1.5131  1.2823 -0.2895
 9138SOL    HW228271   1.960   3.361   2.330 -1.0141  2.7222 -0.6828
 9139SOL     OW28272   0.106   2.804   1.568  0.6363 -0.5080 -0.0125
 9139SOL    HW128273   0.097   2.716   1.533  0.6353 -0.6142  0.2570
 9139SOL    HW228274   0.061   2.860   1.504 -1.8945 -0.9905  1.2021
 9140SOL     OW28275   5.083   0.923   4.570 -0.8145  0.3176 -0.7135
 9140SOL    HW128276   5.155   0.904   4.631 -1.4664  1.2332  0.3626
 9140SOL    HW228277   5.066   0.839   4.528 -0.5005 -0.4073  0.5329
 9141SOL     OW28278   3.253   3.317   5.016 -0.1196  0.0242 -0.2499
 9141SOL    HW128279   3.328   3.327   5.074  0.0188 -1.7596 -0.0616
 9141SOL    HW228280   3.186   3.275   5.070 -0.9756  0.8520 -0.6403
 9142SOL     OW28281   3.091   1.101   4.488 -0.6210  0.2759 -0.4715
 9142SOL    HW128282   3.180   1.104   4.454 -0.8830 -0.1883 -1.2258
 9142SOL    HW228283   3.048   1.033   4.436 -1.1188 -0.2434  0.5933
 9143SOL     OW28284   3.962   4.833   0.701  0.2788  1.3443  0.0656
 9143SOL    HW128285   4.039   4.786   0.731  0.3063  1.9202  0.9194
 9143SOL    HW228286   3.944   4.897   0.770 -1.6764  0.4346  0.4737
 9144SOL     OW28287   7.676   1.478   6.787 -0.2200  0.1246 -0.0031
 9144SOL    HW128288   7.668   1.566   6.751  1.1164  0.0783 -0.4719
 9144SOL    HW228289   7.643   1.420   6.718  3.0534 -0.0285 -1.6705
 9145SOL     OW28290   0.858   1.309   3.881  0.0387 -0.1757 -0.0673
 9145SOL    HW128291   0.908   1.278   3.805 -0.9040  1.1704 -1.3068
 9145SOL    HW228292   0.785   1.248   3.889  1.3596 -1.6514  1.2202
 9146SOL     OW28293   5.623   2.545   5.541 -0.0603 -0.6274 -0.4597
 9146SOL    HW128294   5.634   2.570   5.632 -2.3624 -0.3183 -0.2089
 9146SOL    HW228295   5.699   2.582   5.496  0.8632 -0.3982  1.2402
 9147SOL     OW28296   6.092   1.473   2.943 -0.1072 -0.3303 -0.2425
 9147SOL    HW128297   6.064   1.553   2.987 -0.9567 -1.0043  0.4720
 9147SOL    HW228298   6.165   1.501   2.886 -1.1769  1.1654 -0.9382
 9148SOL     OW28299   0.664   5.170   6.465 -0.0548  0.0591 -0.1251
 9148SOL    HW128300   0.588   5.114   6.448  0.0214  0.1851 -0.9548
 9148SOL    HW228301   0.628   5.259   6.461  0.3390  0.1782 -1.8169
 9149SOL     OW28302   3.212   7.713   7.982 -0.0004 -0.0265  0.0640
 9149SOL    HW128303   3.286   7.657   7.958  0.0969  0.3953 -0.6570
 9149SOL    HW228304   3.135   7.656   7.976  0.2790 -0.5090  0.9690
 9150SOL     OW28305   0.475   1.776   4.860 -0.3021 -0.6841 -0.0423
 9150SOL    HW128306   0.448   1.688   4.834 -0.0702 -0.0267 -2.7932
 9150SOL    HW228307   0.427   1.834   4.801  1.3485  0.9079  0.0883
 9151SOL     OW28308   4.045   2.932   4.529 -0.2883  0.0717  0.0254
 9151SOL    HW128309   4.021   2.939   4.621 -1.3936  1.2898 -0.3271
 9151SOL    HW228310   4.130   2.887   4.530 -1.1171 -1.5683  1.5098
 9152SOL     OW28311   4.298   6.166   2.879  0.3821 -0.5305 -0.1062
 9152SOL    HW128312   4.322   6.234   2.942 -1.6040 -0.1338  0.2947
 9152SOL    HW228313   4.273   6.214   2.800 -3.2906 -0.4858  0.9067
 9153SOL     OW28314   4.537   4.651   6.382 -0.2048  0.0695 -0.3698
 9153SOL    HW128315   4.632   4.651   6.366  0.4921  1.7299  2.9915
 9153SOL    HW228316   4.500   4.689   6.302  2.0767  0.7388 -1.1933
 9154SOL     OW28317   3.123   1.895   6.141  0.5548 -0.2141  0.4117
 9154SOL    HW128318   3.072   1.843   6.203  0.7240 -1.1765 -0.2333
 9154SOL    HW228319   3.140   1.977   6.187 -2.6936  0.7280  0.1844
 9155SOL     OW28320   3.515   4.747   7.151  0.3415  0.0459 -0.1295
 9155SOL    HW128321   3.598   4.731   7.105 -0.2544  1.0032 -1.6155
 9155SOL    HW228322   3.456   4.781   7.083 -1.3307 -0.7629  0.8538
 9156SOL     OW28323   1.340   1.296   7.977  0.1769  0.2786  0.5398
 9156SOL    HW128324   1.394   1.218   7.963  0.1864  0.3267  0.3090
 9156SOL    HW228325   1.369   1.358   7.910 -2.3478 -0.8117 -1.7672
 9157SOL     OW28326   5.152   3.992   3.094 -0.0878 -0.2624  0.5007
 9157SOL    HW128327   5.101   3.968   3.017 -0.8657 -0.4435  1.0541
 9157SOL    HW228328   5.197   3.911   3.120 -0.7869 -0.5181  0.9404
 9158SOL     OW28329   7.899   2.138   7.642  0.2078 -0.1195  0.3328
 9158SOL    HW128330   7.988   2.162   7.616  0.2286 -0.5275  0.0085
 9158SOL    HW228331   7.899   2.042   7.640 -0.1669 -0.1243  0.5778
 9159SOL     OW28332   7.487   4.925   4.967 -0.6831 -0.1074 -0.4340
 9159SOL    HW128333   7.425   4.853   4.962 -1.5800  0.4041  1.8504
 9159SOL    HW228334   7.541   4.906   5.044 -1.5828  2.0318  0.8431
 9160SOL     OW28335   3.182   3.675   6.073  0.5530 -0.0619  0.4729
 9160SOL    HW128336   3.212   3.734   6.142  0.4964  0.0161  0.4311
 9160SOL    HW228337   3.108   3.628   6.113 -1.4633  2.1119 -0.4822
 9161SOL     OW28338   2.392   6.622   4.543  0.4449 -0.2493 -0.1707
 9161SOL    HW128339   2.355   6.677   4.475  1.1871 -0.5459 -0.8306
 9161SOL    HW228340   2.480   6.601   4.512  0.3019 -1.5174  0.2335
 9162SOL     OW28341   3.739   4.385   1.895  0.5127 -0.3376  0.1333
 9162SOL    HW128342   3.795   4.343   1.829  0.1184  0.2684 -0.6010
 9162SOL    HW228343   3.651   4.384   1.856  0.5649  1.5518 -0.1033
 9163SOL     OW28344   1.290   3.421   0.575  0.0529  0.1190 -0.1147
 9163SOL    HW128345   1.223   3.354   0.582  1.2429 -1.1373 -0.3166
 9163SOL    HW228346   1.361   3.391   0.632  1.7685 -0.3046 -2.2799
 9164SOL     OW28347   1.728   7.233   1.814  0.0036 -0.0900  0.4290
 9164SOL    HW128348   1.702   7.189   1.896 -1.0427 -0.8260 -0.2757
 9164SOL    HW228349   1.737   7.162   1.751 -1.2143  0.6302 -0.6127
 9165SOL     OW28350   5.289   0.787   6.257 -0.4964  0.3545 -0.0780
 9165SOL    HW128351   5.365   0.744   6.219 -0.3310  0.8131 -0.2698
 9165SOL    HW228352   5.214   0.743   6.217 -0.3689 -0.7956  0.8660
 9166SOL     OW28353   4.761   2.080   6.907  0.5755 -0.0393  0.7041
 9166SOL    HW128354   4.686   2.068   6.966  1.3597 -1.8213  1.4264
 9166SOL    HW228355   4.837   2.080   6.966  1.3123 -0.9281 -0.2129
 9167SOL     OW28356   6.176   3.614   5.353 -0.5773 -0.2376  0.3868
 9167SOL    HW128357   6.224   3.697   5.359 -1.1137  0.1305 -0.3244
 9167SOL    HW228358   6.164   3.588   5.444  1.0171 -0.3783  0.5915
 9168SOL     OW28359   4.558   5.956   4.580 -0.0211  0.2068 -0.0224
 9168SOL    HW128360   4.519   5.901   4.512 -0.7591 -1.5107  1.6895
 9168SOL    HW228361   4.621   6.011   4.533  0.6465 -1.9912 -1.9245
 9169SOL     OW28362   6.922   1.694   7.691 -0.3483  0.1181 -0.4606
 9169SOL    HW128363   6.955   1.741   7.615  1.5429  1.2932  1.0025
 9169SOL    HW228364   6.925   1.601   7.665 -0.1885  0.5256 -1.9668
 9170SOL     OW28365   2.472   7.652   3.344  0.3919  0.0410  0.3608
 9170SOL    HW128366   2.417   7.656   3.422  1.1930  1.7601  0.8889
 9170SOL    HW228367   2.412   7.670   3.271  0.2086  1.9289  0.9292
 9171SOL     OW28368   6.721   0.565   4.638  0.0462 -0.0311  0.0919
 9171SOL    HW128369   6.770   0.485   4.621  0.2119  0.1046 -0.0713
 9171SOL    HW228370   6.630   0.536   4.645  0.2766 -0.4672  1.6684
 9172SOL     OW28371   4.274   6.818   0.827  0.5705 -0.3816  0.1827
 9172SOL    HW128372   4.199   6.760   0.822  0.2030 -0.0947  1.8131
 9172SOL    HW228373   4.262   6.880   0.755 -0.7445 -0.3546  0.4111
 9173SOL     OW28374   3.441   0.720   7.131  0.6311  0.4372  0.1977
 9173SOL    HW128375   3.419   0.694   7.220 -0.4564 -0.9519 -0.4551
 9173SOL    HW228376   3.365   0.769   7.101 -1.4146 -3.5047 -1.7059
 9174SOL     OW28377   0.570   7.177   1.002  0.2221 -0.0959 -0.5448
 9174SOL    HW128378   0.614   7.139   1.078  0.3880  1.8206  0.3716
 9174SOL    HW228379   0.635   7.235   0.962 -0.6944  0.9447 -0.5722
 9175SOL     OW28380   4.097   2.059   1.274 -0.7013 -0.0561 -0.2754
 9175SOL    HW128381   4.167   2.051   1.339 -1.6018 -0.2920  0.6799
 9175SOL    HW228382   4.030   2.112   1.317 -0.5216  1.4128 -1.7036
 9176SOL     OW28383   6.348   5.807   6.823 -0.1887 -0.4515  0.2727
 9176SOL    HW128384   6.285   5.860   6.774 -1.0970 -1.2356  0.5473
 9176SOL    HW228385   6.308   5.720   6.827  1.3229 -1.2083 -0.2820
 9177SOL     OW28386   4.695   3.341   5.912  0.1171 -0.5054  0.4117
 9177SOL    HW128387   4.763   3.310   5.971 -0.4363 -0.8253  0.8919
 9177SOL    HW228388   4.726   3.428   5.884  1.8386 -1.5650 -1.2088
 9178SOL     OW28389   7.201   4.330   6.171 -0.3219  0.5738 -0.2900
 9178SOL    HW128390   7.233   4.420   6.173 -1.3591  1.0936 -3.0715
 9178SOL    HW228391   7.109   4.338   6.145 -0.6087 -1.2694  0.0416
 9179SOL     OW28392   2.925   1.045   3.414  0.0753  0.7045  0.8128
 9179SOL    HW128393   2.888   1.085   3.493 -0.7070  2.1050 -0.2136
 9179SOL    HW228394   2.853   1.049   3.351  1.4812  2.0330 -0.7654
 9180SOL     OW28395   6.189   1.941   4.090 -0.5375 -0.1541  0.4105
 9180SOL    HW128396   6.151   1.912   4.172 -2.2596 -0.0456 -0.3124
 9180SOL    HW228397   6.251   1.872   4.066  1.2860  0.6022  2.5859
 9181SOL     OW28398   1.883   2.566   2.012 -0.5366 -0.0065  0.1348
 9181SOL    HW128399   1.859   2.633   1.947  0.1806  0.3261  0.2110
 9181SOL    HW228400   1.852   2.484   1.973 -1.2588  0.3379 -0.0421
 9182SOL     OW28401   4.514   2.427   4.151  0.0206  0.4400 -0.2641
 9182SOL    HW128402   4.525   2.521   4.136  1.3012  0.3509 -0.0343
 9182SOL    HW228403   4.602   2.391   4.140 -0.5865 -0.8520 -1.0859
 9183SOL     OW28404   1.924   3.265   4.001  0.1853  0.3070 -0.4180
 9183SOL    HW128405   2.017   3.245   3.987  0.3353  0.6844  0.0319
 9183SOL    HW228406   1.887   3.267   3.913  0.6862  0.5327 -0.6285
 9184SOL     OW28407   5.141   6.947   0.257 -0.0599 -0.2224 -0.6118
 9184SOL    HW128408   5.179   6.867   0.220 -0.7844 -1.2010  0.6747
 9184SOL    HW228409   5.059   6.959   0.210 -0.1608 -0.4852 -0.5039
 9185SOL     OW28410   0.443   0.548   0.990  0.1353 -0.1394  0.0450
 9185SOL    HW128411   0.425   0.596   1.071 -0.4717 -0.9463  0.4002
 9185SOL    HW228412   0.521   0.497   1.010  0.3584  0.1434 -0.0949
 9186SOL     OW28413   7.572   0.880   2.041 -0.1697 -0.1406 -0.1362
 9186SOL    HW128414   7.500   0.919   1.991 -0.5921  0.0100  0.5823
 9186SOL    HW228415   7.624   0.955   2.071  0.8536 -0.2712 -1.4346
 9187SOL     OW28416   4.147   6.952   5.558  0.2355  0.4390  0.2175
 9187SOL    HW128417   4.133   6.877   5.500  0.0369  1.5613 -1.2437
 9187SOL    HW228418   4.242   6.958   5.566  0.2664  0.2859 -0.0178
 9188SOL     OW28419   2.080   5.966   6.145  0.6779  0.4422  0.0420
 9188SOL    HW128420   2.167   6.005   6.142  0.7443  0.2298 -1.1905
 9188SOL    HW228421   2.034   6.001   6.069  0.3888 -1.0520 -0.5052
 9189SOL     OW28422   1.032   7.073   7.758 -0.2070 -0.4010  0.1504
 9189SOL    HW128423   0.998   7.109   7.676 -0.5951 -0.3334  0.3373
 9189SOL    HW228424   1.025   7.145   7.821 -0.7189 -0.7108  0.4537
 9190SOL     OW28425   1.985   1.921   2.460 -0.6527  0.3300  0.1039
 9190SOL    HW128426   1.891   1.904   2.470 -0.2497 -0.5351  3.4971
 9190SOL    HW228427   1.991   2.017   2.460 -1.5396  0.4004 -0.3332
 9191SOL     OW28428   6.422   5.783   1.303 -0.2308  0.0902 -0.8540
 9191SOL    HW128429   6.506   5.829   1.301  0.1574 -0.5865 -0.4894
 9191SOL    HW228430   6.404   5.762   1.212  0.0217  0.1979 -0.9300
 9192SOL     OW28431   1.572   5.014   1.676 -0.1032  0.5020 -0.2466
 9192SOL    HW128432   1.529   5.044   1.596  0.1751  1.1060 -0.1726
 9192SOL    HW228433   1.665   5.035   1.662  0.1808 -0.7649 -0.3999
 9193SOL     OW28434   7.370   6.916   3.192  0.1489 -0.4232  0.0168
 9193SOL    HW128435   7.349   6.828   3.223  1.1187 -0.2856  1.0907
 9193SOL    HW228436   7.297   6.970   3.221  0.2369 -0.6092  0.5810
 9194SOL     OW28437   3.485   6.202   1.375 -0.1473  0.4758  0.3131
 9194SOL    HW128438   3.561   6.259   1.362 -1.0391  1.1590 -2.4455
 9194SOL    HW228439   3.510   6.120   1.334  0.0975 -0.3037  1.9185
 9195SOL     OW28440   7.771   5.748   3.768 -0.0138 -0.0620 -0.0235
 9195SOL    HW128441   7.769   5.670   3.712 -1.2627  0.9727 -1.4751
 9195SOL    HW228442   7.800   5.819   3.711  0.3219  0.7216  1.0785
 9196SOL     OW28443   0.968   3.784   0.676 -0.4213 -0.0115  0.4932
 9196SOL    HW128444   0.882   3.825   0.670 -1.0520 -1.2757  0.6170
 9196SOL    HW228445   0.981   3.743   0.591  0.2427  0.5161  0.3356
 9197SOL     OW28446   6.737   0.359   6.141  0.3437  0.1495  0.1941
 9197SOL    HW128447   6.685   0.278   6.141  0.6167 -0.1185 -2.5122
 9197SOL    HW228448   6.673   0.429   6.152 -0.3011 -0.3161 -0.4374
 9198SOL     OW28449   1.008   5.401   2.794 -0.4959 -0.0781  0.0653
 9198SOL    HW128450   0.940   5.407   2.860  1.2970  0.3695  1.9613
 9198SOL    HW228451   1.030   5.308   2.790  0.4422  0.0715  1.2679
 9199SOL     OW28452   3.741   2.197   3.210 -0.1583  0.0390  0.2217
 9199SOL    HW128453   3.809   2.240   3.262  0.9327 -2.0669  0.6336
 9199SOL    HW228454   3.681   2.160   3.275  0.8986 -2.1112  0.0581
 9200SOL     OW28455   1.965   6.744   6.383  0.5282 -0.0050 -0.2197
 9200SOL    HW128456   1.973   6.676   6.450  0.8511  2.0646  1.9947
 9200SOL    HW228457   1.874   6.740   6.354 -0.3339  0.6091  2.1997
 9201SOL     OW28458   6.066   6.676   3.466 -0.8285 -0.3483  0.1542
 9201SOL    HW128459   6.027   6.762   3.481 -1.5465 -0.3814 -1.3665
 9201SOL    HW228460   5.992   6.620   3.441 -0.0597 -0.8065 -1.2184
 9202SOL     OW28461   3.996   1.497   0.528 -0.1579 -0.3149  0.0077
 9202SOL    HW128462   4.039   1.502   0.443 -0.5360  0.1161 -0.1600
 9202SOL    HW228463   4.067   1.493   0.591  0.1818  2.2666 -0.1299
 9203SOL     OW28464   4.593   1.109   2.782  0.1366 -0.3460  0.1687
 9203SOL    HW128465   4.606   1.092   2.689  0.6460  2.3164 -0.3223
 9203SOL    HW228466   4.677   1.090   2.822  0.5933  0.6139 -0.3015
 9204SOL     OW28467   6.473   3.228   7.298 -0.4305  0.1882 -0.5729
 9204SOL    HW128468   6.564   3.247   7.322 -0.5482 -1.0372  0.9690
 9204SOL    HW228469   6.454   3.290   7.228  1.6724  0.2990 -1.1170
 9205SOL     OW28470   4.618   1.280   4.224 -0.3993 -0.5540  0.5525
 9205SOL    HW128471   4.577   1.222   4.160 -1.6260  1.3754 -0.4890
 9205SOL    HW228472   4.578   1.256   4.308  0.8657 -2.7653  0.6229
 9206SOL     OW28473   2.281   4.610   5.580 -0.6395 -0.1995  0.1786
 9206SOL    HW128474   2.223   4.534   5.576  0.3269 -0.9106 -0.9648
 9206SOL    HW228475   2.247   4.669   5.513 -0.1901 -0.5116 -0.3264
 9207SOL     OW28476   0.289   2.754   4.383  0.2084 -0.0814  0.4057
 9207SOL    HW128477   0.294   2.659   4.379 -0.7168 -0.1285  0.1875
 9207SOL    HW228478   0.378   2.784   4.362  0.5566 -0.8948  0.6972
 9208SOL     OW28479   3.230   5.379   6.427 -0.0976  0.3492 -0.1908
 9208SOL    HW128480   3.309   5.381   6.481 -0.3627 -1.2313  0.2965
 9208SOL    HW228481   3.169   5.322   6.474 -1.0138  0.4017 -1.2602
 9209SOL     OW28482   4.606   1.734   1.816 -0.3139  0.3125  0.3716
 9209SOL    HW128483   4.663   1.805   1.845  2.3135 -1.6536  0.4136
 9209SOL    HW228484   4.601   1.675   1.891 -2.9089  0.6348  0.5315
 9210SOL     OW28485   7.459   0.261   7.773 -0.1555  0.0820 -0.7217
 9210SOL    HW128486   7.466   0.355   7.791  0.8729  0.1023 -1.1999
 9210SOL    HW228487   7.549   0.230   7.771 -0.3843 -0.5525 -2.4266
 9211SOL     OW28488   3.326   1.823   3.256 -0.5978  0.4668  0.0533
 9211SOL    HW128489   3.335   1.864   3.342  0.1784 -0.0983  0.2478
 9211SOL    HW228490   3.290   1.736   3.274  2.2816 -0.8093  0.1243
 9212SOL     OW28491   2.755   4.891   0.507  0.0667  0.2324 -0.3104
 9212SOL    HW128492   2.817   4.841   0.559  2.3283  2.2034 -0.9523
 9212SOL    HW228493   2.743   4.839   0.427  0.3284 -0.4854  0.1059
 9213SOL     OW28494   7.303   5.368   0.593  0.3291  0.9149 -0.2444
 9213SOL    HW128495   7.269   5.385   0.681 -2.0633 -2.5705 -0.3095
 9213SOL    HW228496   7.231   5.391   0.534 -0.0965 -1.5563 -0.8100
 9214SOL     OW28497   6.470   6.193   1.811  0.2200 -0.5749  0.1395
 9214SOL    HW128498   6.427   6.174   1.727 -1.9822 -0.5007  1.1860
 9214SOL    HW228499   6.450   6.117   1.866 -0.6988  0.5364  1.4153
 9215SOL     OW28500   5.326   4.229   1.838  0.3748  0.6007  0.3102
 9215SOL    HW128501   5.256   4.209   1.900  0.6094 -1.2562  0.0509
 9215SOL    HW228502   5.393   4.163   1.856  0.5109  0.0879 -1.7813
 9216SOL     OW28503   0.844   7.526   1.295 -0.2560 -0.0847 -0.1514
 9216SOL    HW128504   0.788   7.449   1.295 -0.9360  0.3942 -0.7981
 9216SOL    HW228505   0.838   7.560   1.384 -2.9596  1.3125 -0.7483
 9217SOL     OW28506   7.572   2.480   7.434 -0.6388 -0.0768 -0.4853
 9217SOL    HW128507   7.653   2.508   7.477 -0.9634  1.1703 -0.6368
 9217SOL    HW228508   7.556   2.391   7.467 -0.4948  0.5526  1.4315
 9218SOL     OW28509   5.319   0.271   4.012  0.2735 -0.0883  0.1947
 9218SOL    HW128510   5.334   0.361   3.986  1.0957 -0.6152 -1.2818
 9218SOL    HW228511   5.232   0.249   3.979 -0.0015  0.1957  0.7106
 9219SOL     OW28512   2.487   3.247   1.534 -0.0085 -0.0987 -0.1701
 9219SOL    HW128513   2.460   3.210   1.618 -0.0719  0.1756 -0.0657
 9219SOL    HW228514   2.492   3.341   1.551 -0.4479  0.0077 -0.5865
 9220SOL     OW28515   3.141   4.924   6.614 -0.3483  0.5977 -0.0709
 9220SOL    HW128516   3.051   4.953   6.625 -0.6781  0.2139 -1.4696
 9220SOL    HW228517   3.137   4.858   6.544  0.9301  0.1364  0.2514
 9221SOL     OW28518   1.961   2.323   6.892 -0.3525  0.8347  0.0531
 9221SOL    HW128519   2.019   2.347   6.820  1.1450 -2.3003  0.0364
 9221SOL    HW228520   1.877   2.303   6.851 -0.6060  2.5060 -0.3032
 9222SOL     OW28521   0.082   2.024   3.963 -0.1195 -0.1841 -0.5499
 9222SOL    HW128522  -0.011   2.019   3.941 -0.5419 -0.9150  1.2018
 9222SOL    HW228523   0.120   2.083   3.898 -2.0120  1.0002 -0.6407
 9223SOL     OW28524   0.649   7.906   0.630 -0.2312  0.7437 -0.1261
 9223SOL    HW128525   0.637   7.885   0.723 -0.7436  1.9449  0.1031
 9223SOL    HW228526   0.711   7.841   0.598 -1.1533 -0.5800  0.7093
 9224SOL     OW28527   4.357   5.250   3.614 -0.0518  0.3131 -0.1082
 9224SOL    HW128528   4.294   5.322   3.616  0.6856  1.0303 -1.2486
 9224SOL    HW228529   4.417   5.273   3.542  0.9335 -0.8238  0.3189
 9225SOL     OW28530   6.434   7.711   3.031 -0.0875  0.2059 -0.4166
 9225SOL    HW128531   6.507   7.652   3.050 -0.0033  0.6650  0.7644
 9225SOL    HW228532   6.389   7.671   2.957  0.5617 -0.7950 -0.2856
 9226SOL     OW28533   1.736   2.649   0.057  0.4398 -0.0436 -0.3956
 9226SOL    HW128534   1.677   2.707   0.105  0.7524  0.8103 -1.0377
 9226SOL    HW228535   1.808   2.633   0.118  0.1706 -0.0662 -0.0800
 9227SOL     OW28536   7.372   2.295   5.095 -0.1185 -0.1190 -0.5555
 9227SOL    HW128537   7.372   2.356   5.168  0.3608 -0.3382 -0.3619
 9227SOL    HW228538   7.313   2.225   5.122 -0.6675  0.2553 -0.7778
 9228SOL     OW28539   4.021   2.236   7.241 -0.2710 -0.4887 -0.1637
 9228SOL    HW128540   4.079   2.245   7.317 -0.2748  1.5669 -0.3432
 9228SOL    HW228541   4.011   2.142   7.229  0.8326 -0.8619  1.5430
 9229SOL     OW28542   5.692   4.577   5.044  0.0512 -0.4059  0.4127
 9229SOL    HW128543   5.601   4.606   5.057  0.4638  0.5564  1.2609
 9229SOL    HW228544   5.703   4.504   5.105  0.2668  0.4064  1.3631
 9230SOL     OW28545   6.879   4.664   1.408 -0.0948 -0.3090 -0.0526
 9230SOL    HW128546   6.840   4.716   1.479  1.2874  1.1534 -0.2846
 9230SOL    HW228547   6.969   4.649   1.437  0.3039 -0.2411 -1.1979
 9231SOL     OW28548   0.773   2.560   7.331  0.0537 -0.1273  0.2037
 9231SOL    HW128549   0.698   2.522   7.377 -0.1386 -0.6235 -0.5048
 9231SOL    HW228550   0.837   2.576   7.399  0.0059 -1.4134  0.5742
 9232SOL     OW28551   1.279   7.040   6.380 -0.3296 -0.3334  0.0914
 9232SOL    HW128552   1.239   7.100   6.443  0.0163  1.3141 -1.1972
 9232SOL    HW228553   1.223   6.963   6.381 -1.5378  0.5292  0.8521
 9233SOL     OW28554   6.483   5.803   3.463 -0.4854  0.4077 -0.1881
 9233SOL    HW128555   6.425   5.825   3.536 -1.1594 -1.6916 -0.0347
 9233SOL    HW228556   6.425   5.803   3.387 -0.9034 -2.2607  0.0439
 9234SOL     OW28557   7.011   6.413   3.012  0.9616  0.0662 -0.1671
 9234SOL    HW128558   7.031   6.497   3.055 -1.0601  0.3327  0.3415
 9234SOL    HW228559   7.005   6.350   3.084  2.5586 -0.5880 -0.5548
 9235SOL     OW28560   6.971   0.706   2.836 -0.2392  0.5960 -0.7832
 9235SOL    HW128561   7.014   0.792   2.831  0.6520  0.2273  0.1449
 9235SOL    HW228562   7.006   0.657   2.761  1.9554 -0.0994  0.5983
 9236SOL     OW28563   3.854   1.084   6.055 -0.7190 -0.0177  0.2636
 9236SOL    HW128564   3.917   1.154   6.070 -1.9243  1.3727 -0.9449
 9236SOL    HW228565   3.885   1.039   5.977 -0.3078 -0.4286  0.6582
 9237SOL     OW28566   2.467   3.858   5.054 -0.1730  0.2068 -0.2870
 9237SOL    HW128567   2.415   3.851   4.974 -1.4283  0.0521  0.5172
 9237SOL    HW228568   2.551   3.818   5.032  0.2508  1.9404 -2.1281
 9238SOL     OW28569   6.132   2.269   6.339  0.0122  0.1582  0.0428
 9238SOL    HW128570   6.105   2.179   6.321 -1.3623  0.7928 -1.3124
 9238SOL    HW228571   6.083   2.294   6.416  2.1964 -0.9626  1.9290
 9239SOL     OW28572   2.360   5.453   1.615 -0.4269  0.3971 -0.7039
 9239SOL    HW128573   2.369   5.540   1.575  0.6036  0.9483  0.6756
 9239SOL    HW228574   2.328   5.470   1.703 -0.1792 -0.6286 -0.4060
 9240SOL     OW28575   1.520   4.981   0.417  0.0751  0.2745  0.1088
 9240SOL    HW128576   1.503   5.055   0.475 -1.0515  0.1235 -0.0179
 9240SOL    HW228577   1.436   4.935   0.410  0.2199  0.2043 -1.5408
 9241SOL     OW28578   6.994   6.662   3.128  0.1489 -0.6167 -0.4161
 9241SOL    HW128579   6.922   6.664   3.066  0.2886  1.5090 -0.5681
 9241SOL    HW228580   6.953   6.677   3.213  0.3417  0.1350 -0.4485
 9242SOL     OW28581   5.515   0.477   0.318  0.0122  0.0106 -0.6784
 9242SOL    HW128582   5.523   0.521   0.234  1.3065 -0.8379 -1.0310
 9242SOL    HW228583   5.527   0.546   0.383  2.9365  0.1211 -1.2144
 9243SOL     OW28584   6.349   6.273   4.188 -0.1353 -1.1025 -0.5690
 9243SOL    HW128585   6.382   6.347   4.138  1.6267 -1.4007  0.0622
 9243SOL    HW228586   6.426   6.241   4.236 -1.3148 -2.0200  0.8031
 9244SOL     OW28587   5.705   2.007   6.318 -0.1765  0.5496  0.3125
 9244SOL    HW128588   5.697   2.054   6.400 -0.4392 -1.4291  1.4950
 9244SOL    HW228589   5.616   1.975   6.300 -0.6384  2.8127 -1.9875
 9245SOL     OW28590   3.286   5.012   2.334 -0.0415 -0.0392  0.0762
 9245SOL    HW128591   3.251   5.010   2.423 -1.9740 -1.1227 -0.6661
 9245SOL    HW228592   3.287   4.920   2.307 -0.0931  0.3397 -1.2625
 9246SOL     OW28593   1.633   5.560   5.309 -0.4866  0.7574 -0.0803
 9246SOL    HW128594   1.645   5.631   5.247  0.8742  0.8562  0.2757
 9246SOL    HW228595   1.676   5.484   5.268 -1.6432  0.2031 -0.3134
 9247SOL     OW28596   4.541   6.830   4.208  0.1336  0.3393 -0.4640
 9247SOL    HW128597   4.538   6.790   4.295  0.5606 -0.0617 -0.6329
 9247SOL    HW228598   4.573   6.919   4.223  1.0894 -0.0233 -0.3121
 9248SOL     OW28599   7.506   4.728   2.799  0.3626 -0.8937 -0.0016
 9248SOL    HW128600   7.553   4.767   2.872 -0.1822 -1.0850  0.4652
 9248SOL    HW228601   7.538   4.638   2.795 -0.4330 -1.2288  0.7545
 9249SOL     OW28602   2.405   6.474   7.698 -0.3681 -0.0814 -0.0939
 9249SOL    HW128603   2.340   6.522   7.646 -0.0981 -0.1005 -0.4560
 9249SOL    HW228604   2.420   6.393   7.648 -1.4272 -0.9441  0.9160
 9250SOL     OW28605   7.105   7.004   3.568 -0.4074  0.2394  0.2498
 9250SOL    HW128606   7.098   7.088   3.521  1.8896  0.7339  0.6967
 9250SOL    HW228607   7.076   7.024   3.657  0.4855  0.6598  0.4510
 9251SOL     OW28608   3.911   6.825   4.018 -0.2328 -0.1253  0.3320
 9251SOL    HW128609   3.884   6.752   4.072  1.6233 -1.2766 -0.2016
 9251SOL    HW228610   3.829   6.866   3.989 -1.2890 -1.6133  1.1184
 9252SOL     OW28611   1.014   0.950   3.259 -0.0188 -0.1848 -0.7952
 9252SOL    HW128612   1.032   1.024   3.200  0.0758  0.7351  0.3630
 9252SOL    HW228613   0.945   0.900   3.214  0.2843  0.3103 -1.8377
 9253SOL     OW28614   0.030   4.367   3.747 -0.0805  0.1522  0.2872
 9253SOL    HW128615  -0.037   4.325   3.801  0.5175 -0.8890  0.2514
 9253SOL    HW228616   0.012   4.461   3.754 -2.1255 -0.1282 -0.5066
 9254SOL     OW28617   6.368   6.417   6.861 -0.2495  0.5068  0.3575
 9254SOL    HW128618   6.373   6.391   6.770 -0.9457  0.4694  0.3251
 9254SOL    HW228619   6.340   6.338   6.908  2.0796 -0.0710  0.9124
 9255SOL     OW28620   2.288   4.012   2.019  0.0647 -0.0134  0.0310
 9255SOL    HW128621   2.207   4.036   1.974 -0.3415  1.2547  1.3423
 9255SOL    HW228622   2.266   3.933   2.068  0.1194 -0.6107 -0.8789
 9256SOL     OW28623   6.094   2.750   0.830 -0.5820  0.2069  1.4833
 9256SOL    HW128624   6.087   2.667   0.876  2.9813 -0.4280  1.1763
 9256SOL    HW228625   6.183   2.751   0.795 -1.5429  2.7293 -1.3891
 9257SOL     OW28626   2.208   7.083   3.934 -0.2407  0.1908  0.7688
 9257SOL    HW128627   2.239   7.008   3.883  0.5816  1.7966 -1.2049
 9257SOL    HW228628   2.228   7.059   4.025  2.6550 -0.8034 -0.0157
 9258SOL     OW28629   2.143   5.767   5.757 -0.8504 -0.0639 -0.0413
 9258SOL    HW128630   2.122   5.733   5.670  0.2553 -1.4417  0.2031
 9258SOL    HW228631   2.183   5.852   5.740 -4.2661  1.6213 -0.6322
 9259SOL     OW28632   2.719   5.309   2.703 -0.2731 -0.5231  0.4362
 9259SOL    HW128633   2.687   5.323   2.614 -0.6484  0.0795  0.6546
 9259SOL    HW228634   2.670   5.234   2.735  0.6507 -1.4402 -0.2319
 9260SOL     OW28635   6.899   2.190   7.648 -0.1288  0.7501 -0.4809
 9260SOL    HW128636   6.990   2.165   7.662  0.0003  0.2313 -2.0151
 9260SOL    HW228637   6.852   2.152   7.722  0.5561 -1.2757 -1.0047
 9261SOL     OW28638   5.697   4.948   5.885  0.1994  0.1885 -0.3823
 9261SOL    HW128639   5.717   4.975   5.974 -0.7217 -1.0897  0.2373
 9261SOL    HW228640   5.777   4.906   5.854  0.1823 -0.3070  0.2279
 9262SOL     OW28641   4.192   0.277   1.376 -0.2950  0.2581 -0.8330
 9262SOL    HW128642   4.101   0.257   1.353 -0.3433 -1.9668  0.9492
 9262SOL    HW228643   4.191   0.288   1.472  1.4169 -0.6184 -0.6720
 9263SOL     OW28644   5.561   1.948   2.564  0.1837  0.1594 -0.1908
 9263SOL    HW128645   5.480   1.904   2.538  0.9507 -0.2537 -1.9900
 9263SOL    HW228646   5.599   1.891   2.631 -0.8117  0.1770  0.4130
 9264SOL     OW28647   5.287   3.189   6.652 -0.0945 -0.1106  0.4679
 9264SOL    HW128648   5.259   3.114   6.705  2.4370 -1.0999  0.5498
 9264SOL    HW228649   5.246   3.264   6.694 -1.0587 -1.2473  1.6478
 9265SOL     OW28650   2.300   6.188   5.854  0.0485 -0.5204  0.2957
 9265SOL    HW128651   2.263   6.276   5.844 -1.9335 -1.2116  0.9185
 9265SOL    HW228652   2.266   6.139   5.779  0.7828 -0.8607  0.1814
 9266SOL     OW28653   1.801   5.422   5.755 -0.1585  0.0762  0.0258
 9266SOL    HW128654   1.796   5.488   5.686  1.0421  0.9335  0.7066
 9266SOL    HW228655   1.807   5.473   5.836  1.2936 -0.8324  0.5311
 9267SOL     OW28656   2.028   1.021   1.209 -0.5167 -0.5251  0.1482
 9267SOL    HW128657   1.972   0.944   1.199  0.4191 -1.2150  0.0794
 9267SOL    HW228658   1.971   1.087   1.248 -0.8551 -1.8376  2.0184
 9268SOL     OW28659   4.413   7.584   0.937  0.4898 -0.0266 -0.1138
 9268SOL    HW128660   4.483   7.636   0.897 -1.3632  1.2659 -1.8818
 9268SOL    HW228661   4.459   7.518   0.988  2.9934  0.9733 -0.9045
 9269SOL     OW28662   5.898   1.915   2.556  0.2487  0.5814 -0.1799
 9269SOL    HW128663   5.902   1.993   2.501  1.9812 -0.9865 -2.4606
 9269SOL    HW228664   5.960   1.933   2.627  0.6983  1.2411 -0.7246
 9270SOL     OW28665   3.762   0.843   2.441  0.2793 -0.2221 -0.4550
 9270SOL    HW128666   3.678   0.884   2.421  1.1053  1.0018 -1.5809
 9270SOL    HW228667   3.782   0.789   2.365  0.0764 -1.2960  0.2300
 9271SOL     OW28668   6.169   2.403   1.302 -0.2832  0.3038 -0.7034
 9271SOL    HW128669   6.175   2.382   1.209  2.9122  1.0032 -0.7764
 9271SOL    HW228670   6.159   2.498   1.305 -0.9910  0.2262 -0.3092
 9272SOL     OW28671   1.583   7.679   5.220 -0.6103  0.0479  0.6545
 9272SOL    HW128672   1.625   7.596   5.242 -1.3459 -0.9349 -1.3602
 9272SOL    HW228673   1.499   7.653   5.180 -0.2198  1.6568 -1.3694
 9273SOL     OW28674   4.585   5.950   6.016 -0.2528 -0.3302 -0.2994
 9273SOL    HW128675   4.633   5.943   5.934 -1.3515 -1.0814 -0.9195
 9273SOL    HW228676   4.503   5.901   6.000 -1.2772  0.9992  0.6440
 9274SOL     OW28677   5.220   6.457   4.463  0.3646  0.1159 -0.8735
 9274SOL    HW128678   5.203   6.499   4.547  2.8349  0.9364 -0.6881
 9274SOL    HW228679   5.141   6.472   4.412 -0.9411  0.1905  1.0427
 9275SOL     OW28680   0.812   5.673   1.310  0.3987  0.1199  0.6771
 9275SOL    HW128681   0.888   5.669   1.251 -1.3943  1.0439 -1.8558
 9275SOL    HW228682   0.777   5.584   1.309  1.9313 -0.6178  2.7498
 9276SOL     OW28683   2.973   0.068   6.022  0.3702 -0.3519  0.1081
 9276SOL    HW128684   2.967   0.128   6.096  1.4226 -0.5394  0.3619
 9276SOL    HW228685   3.063   0.075   5.992 -0.2065  0.2302 -1.6160
 9277SOL     OW28686   6.578   3.970   6.899 -0.2659  0.0165  0.4184
 9277SOL    HW128687   6.553   3.922   6.978 -1.0452 -0.3351 -0.0394
 9277SOL    HW228688   6.496   3.991   6.856  0.0895  1.3034  0.3269
 9278SOL     OW28689   6.276   3.043   0.414 -0.2201 -0.1837 -0.3269
 9278SOL    HW128690   6.360   3.070   0.379 -1.0049  2.1009 -0.6077
 9278SOL    HW228691   6.297   3.001   0.498  1.1985  0.0679 -0.5323
 9279SOL     OW28692   3.870   5.692   1.359 -0.3145  0.1353  0.2279
 9279SOL    HW128693   3.779   5.708   1.333 -0.6543  2.1461  2.3539
 9279SOL    HW228694   3.888   5.759   1.425  3.3908  1.1533 -1.5733
 9280SOL     OW28695   7.861   1.200   3.771  0.0018 -0.0401  0.2519
 9280SOL    HW128696   7.869   1.258   3.846 -0.9252 -0.5807  0.7776
 9280SOL    HW228697   7.767   1.188   3.759  0.0247  1.3685 -2.0423
 9281SOL     OW28698   3.719   1.258   5.695  0.1528  0.5316  0.3975
 9281SOL    HW128699   3.640   1.207   5.710 -0.2409  0.8223 -0.6419
 9281SOL    HW228700   3.790   1.201   5.726 -0.0854 -1.5064 -2.4465
 9282SOL     OW28701   4.484   4.912   6.190 -0.9923  0.1251 -0.2216
 9282SOL    HW128702   4.402   4.876   6.157 -0.9828  0.8378 -1.0565
 9282SOL    HW228703   4.521   4.960   6.116  0.7796 -1.1502 -0.2211
 9283SOL     OW28704   3.850   5.277   4.502 -0.7124  0.0912 -0.2471
 9283SOL    HW128705   3.809   5.357   4.469  0.3864  0.7766  0.0066
 9283SOL    HW228706   3.943   5.288   4.482 -0.5673 -1.2159 -0.3811
 9284SOL     OW28707   5.513   3.802   7.447  0.0029  0.4133  0.3238
 9284SOL    HW128708   5.587   3.831   7.499  1.8430 -1.4081 -1.1229
 9284SOL    HW228709   5.537   3.715   7.417 -2.3982  0.0736 -0.8558
 9285SOL     OW28710   0.153   2.009   5.535 -0.0654 -0.7482  0.1143
 9285SOL    HW128711   0.123   1.932   5.583 -0.6442  0.1430  1.2153
 9285SOL    HW228712   0.163   2.077   5.601  0.0297  0.2558 -0.8927
 9286SOL     OW28713   0.719   7.318   3.207 -0.1874 -0.0173  0.3522
 9286SOL    HW128714   0.744   7.367   3.285 -0.8457 -1.7760  1.7169
 9286SOL    HW228715   0.760   7.366   3.135 -1.0950  2.7574  1.5302
 9287SOL     OW28716   4.253   4.828   1.905  0.5390  0.0808 -0.0672
 9287SOL    HW128717   4.229   4.761   1.969 -0.0868 -0.1590 -0.5515
 9287SOL    HW228718   4.216   4.909   1.941  0.7247  0.0593  0.1803
 9288SOL     OW28719   6.276   0.136   0.156  0.4782  0.2586 -0.2561
 9288SOL    HW128720   6.338   0.143   0.228  2.7490  1.7029 -2.1779
 9288SOL    HW228721   6.194   0.107   0.196  1.0806  2.7154  3.1367
 9289SOL     OW28722   3.758   2.588   6.727  0.0363  0.2281  0.0548
 9289SOL    HW128723   3.806   2.618   6.804  1.7887 -0.1155 -0.8531
 9289SOL    HW228724   3.768   2.492   6.729 -1.7474  0.0081  0.5278
 9290SOL     OW28725   6.216   3.633   1.241 -0.6063  0.1029  0.3391
 9290SOL    HW128726   6.287   3.693   1.265 -0.4908  0.2260 -0.2745
 9290SOL    HW228727   6.237   3.608   1.151 -1.4886  0.3475  0.0585
 9291SOL     OW28728   0.675   4.726   0.674  0.2110  0.1828 -0.2826
 9291SOL    HW128729   0.741   4.658   0.663 -0.3722 -0.4883  0.2258
 9291SOL    HW228730   0.625   4.724   0.592  2.0132  2.0667 -1.5094
 9292SOL     OW28731   2.927   2.702   2.971 -0.1330 -0.3330  0.3499
 9292SOL    HW128732   2.864   2.769   2.995  0.0535  0.3818 -1.0593
 9292SOL    HW228733   3.012   2.737   2.999  0.0086  0.2036 -0.7293
 9293SOL     OW28734   0.283   5.042   4.049  0.5422 -0.1627  0.1799
 9293SOL    HW128735   0.266   5.048   4.143  0.4663  1.0079  0.1067
 9293SOL    HW228736   0.259   4.953   4.026  0.1658 -0.3386  1.1918
 9294SOL     OW28737   7.907   7.292   0.515 -0.0410  0.5757 -0.1675
 9294SOL    HW128738   7.877   7.201   0.523  0.8327  0.1979 -1.0325
 9294SOL    HW228739   7.931   7.317   0.604 -0.9723  0.2111  0.2011
 9295SOL     OW28740   0.363   3.325   6.258 -0.0061 -0.1625 -0.4116
 9295SOL    HW128741   0.397   3.308   6.346 -0.7118  0.3383 -0.0338
 9295SOL    HW228742   0.271   3.347   6.271 -0.5596 -1.7397 -1.4563
 9296SOL     OW28743   1.178   1.814   6.954  0.0209 -0.2737 -0.7610
 9296SOL    HW128744   1.254   1.765   6.924  0.9420 -0.3602  1.5499
 9296SOL    HW228745   1.214   1.898   6.983 -0.7670 -0.2348  0.1555
 9297SOL     OW28746   1.163   4.610   0.623  0.2230  0.5207 -0.9375
 9297SOL    HW128747   1.196   4.520   0.628  2.4323  1.2492  4.6111
 9297SOL    HW228748   1.236   4.661   0.590 -0.3171  0.5561 -2.1046
 9298SOL     OW28749   7.492   3.067   1.463  0.4574 -0.0304  0.3153
 9298SOL    HW128750   7.408   3.023   1.447  0.1694  0.7130 -0.3092
 9298SOL    HW228751   7.557   3.013   1.419  0.0031  0.5817 -1.1630
 9299SOL     OW28752   4.715   1.965   4.891 -0.2618  0.5325 -0.4728
 9299SOL    HW128753   4.724   1.870   4.891 -0.9689  0.4547 -0.1092
 9299SOL    HW228754   4.667   1.985   4.972  0.2844  1.2369 -0.3121
 9300SOL     OW28755   0.158   7.730   6.751 -0.5769 -0.2802  0.1879
 9300SOL    HW128756   0.090   7.677   6.792  0.9806 -1.0260  1.9989
 9300SOL    HW228757   0.210   7.668   6.700 -0.2246 -0.0580  0.2673
 9301SOL     OW28758   6.929   2.786   7.143  0.1550 -0.0233  0.5210
 9301SOL    HW128759   6.996   2.845   7.108  0.8541 -0.3294  1.3038
 9301SOL    HW228760   6.960   2.698   7.122 -1.2849 -0.1484 -1.3588
 9302SOL     OW28761   2.528   7.585   5.413 -0.1106  0.4244 -0.0133
 9302SOL    HW128762   2.497   7.657   5.468  0.2273 -1.7019  3.2346
 9302SOL    HW228763   2.477   7.593   5.332 -2.2781  2.5035  1.4259
 9303SOL     OW28764   1.925   6.491   3.232 -0.1632  0.0193  0.9390
 9303SOL    HW128765   1.920   6.526   3.142 -3.1497 -1.6077  0.3441
 9303SOL    HW228766   2.003   6.436   3.232 -0.4952 -0.5187 -0.9062
 9304SOL     OW28767   5.048   4.144   2.592 -0.2813  0.2394 -0.4856
 9304SOL    HW128768   5.007   4.063   2.621  0.2574  0.3668  0.7071
 9304SOL    HW228769   5.052   4.137   2.496 -3.1420  0.2951 -0.6805
 9305SOL     OW28770   7.004   5.907   7.433  0.5429  0.6161 -0.0674
 9305SOL    HW128771   7.008   5.833   7.373  1.4926 -1.8624  2.8190
 9305SOL    HW228772   7.082   5.959   7.412  0.2579  0.4293 -1.6512
 9306SOL     OW28773   6.316   5.733   3.852  0.7254 -0.1722 -0.4261
 9306SOL    HW128774   6.287   5.820   3.879  0.9958  0.1193 -1.0542
 9306SOL    HW228775   6.406   5.726   3.885 -0.0421 -1.1427  1.6719
 9307SOL     OW28776   7.920   3.559   5.196 -0.3151 -0.5051  0.6029
 9307SOL    HW128777   7.967   3.602   5.267 -0.9340  1.1042  0.0890
 9307SOL    HW228778   7.829   3.557   5.225 -0.3657 -1.0750  0.4185
 9308SOL     OW28779   7.280   1.470   3.029  0.5252 -0.0529  0.8134
 9308SOL    HW128780   7.260   1.558   3.060 -0.6457  0.5096 -1.2890
 9308SOL    HW228781   7.198   1.421   3.043 -0.3465  0.4447 -1.8773
 9309SOL     OW28782   3.850   5.788   4.090  0.4115  0.0964  0.0019
 9309SOL    HW128783   3.911   5.855   4.059  1.4479 -0.4145  0.8347
 9309SOL    HW228784   3.895   5.705   4.074 -0.8860 -0.4290 -1.0851
 9310SOL     OW28785   3.317   6.267   6.526  0.2012  0.1555 -0.4204
 9310SOL    HW128786   3.265   6.191   6.500  0.7890 -0.4561  0.1284
 9310SOL    HW228787   3.374   6.285   6.451  0.6530 -0.4882 -0.2409
 9311SOL     OW28788   4.635   2.838   1.432 -0.2133 -0.1450 -0.0884
 9311SOL    HW128789   4.571   2.887   1.484 -1.1058 -0.2492 -1.0632
 9311SOL    HW228790   4.591   2.821   1.349  0.8384 -0.8193 -0.5304
 9312SOL     OW28791   0.484   2.223   1.556 -0.0631  0.5789  0.0161
 9312SOL    HW128792   0.575   2.253   1.554  0.1651 -0.0870  0.2726
 9312SOL    HW228793   0.438   2.290   1.607  0.0713  1.4639 -0.9917
 9313SOL     OW28794   4.733   3.630   0.805  0.3787  0.0108  0.2196
 9313SOL    HW128795   4.658   3.576   0.780  0.3865  0.3381 -0.5402
 9313SOL    HW228796   4.764   3.591   0.887  0.0049 -0.7553  0.0075
 9314SOL     OW28797   1.238   4.895   7.731 -0.3686 -0.0348  0.1397
 9314SOL    HW128798   1.153   4.931   7.707  0.6527  1.5799 -1.3163
 9314SOL    HW228799   1.274   4.956   7.795  0.5477  0.5446 -0.8721
 9315SOL     OW28800   7.639   2.290   5.090 -0.2508  0.0373 -0.0831
 9315SOL    HW128801   7.546   2.275   5.077 -0.8261  1.3734  1.9891
 9315SOL    HW228802   7.650   2.385   5.080  0.5497  0.1155  1.2521
 9316SOL     OW28803   4.450   3.723   6.005 -0.1019  0.2411 -0.5636
 9316SOL    HW128804   4.382   3.678   5.953 -0.6749 -0.8478  1.0384
 9316SOL    HW228805   4.498   3.776   5.941  1.0825 -3.1683 -2.7782
 9317SOL     OW28806   6.035   3.372   0.687 -0.5575 -0.1894 -0.1069
 9317SOL    HW128807   6.076   3.362   0.773  1.8825 -1.4271 -1.3094
 9317SOL    HW228808   6.024   3.283   0.654  2.4635  0.1758 -2.6720
 9318SOL     OW28809   6.427   4.808   4.150  0.1303 -0.1376 -0.1688
 9318SOL    HW128810   6.496   4.773   4.093  0.7513  1.7406 -0.6466
 9318SOL    HW228811   6.398   4.888   4.106 -2.3919 -0.8509  0.0252
 9319SOL     OW28812   0.714   5.153   7.889  0.0622  0.7583 -0.4117
 9319SOL    HW128813   0.717   5.090   7.816  1.4672  0.3049  0.0125
 9319SOL    HW228814   0.624   5.187   7.887  0.1940  1.1364 -2.6722
 9320SOL     OW28815   1.157   7.626   2.704 -0.1094  0.3911  0.0505
 9320SOL    HW128816   1.083   7.572   2.677 -0.1930  1.2626 -1.6627
 9320SOL    HW228817   1.212   7.568   2.757 -0.5907 -1.1297 -1.0469
 9321SOL     OW28818   6.857   1.752   6.318  0.6311 -0.1773  0.8225
 9321SOL    HW128819   6.894   1.669   6.288 -0.8157  0.0901 -2.1356
 9321SOL    HW228820   6.830   1.796   6.237  0.4001  2.7343  2.3516
 9322SOL     OW28821   2.043   6.329   7.587 -0.1863 -0.1849 -0.4629
 9322SOL    HW128822   2.045   6.291   7.675 -1.0833 -0.7930 -0.6900
 9322SOL    HW228823   2.073   6.419   7.599  1.1019 -0.6735  0.2358
 9323SOL     OW28824   5.291   4.071   5.283  0.1205  0.2164  0.2224
 9323SOL    HW128825   5.319   4.099   5.370 -0.5970 -3.0080  1.6080
 9323SOL    HW228826   5.372   4.063   5.233  0.6675  0.7498  1.0067
 9324SOL     OW28827   7.626   7.754   2.546  0.3567  0.1649 -0.3706
 9324SOL    HW128828   7.546   7.715   2.581 -0.3173  1.7196 -0.0808
 9324SOL    HW228829   7.598   7.804   2.469  1.2485 -0.2579 -0.9931
 9325SOL     OW28830   2.991   2.486   3.577  0.3820 -0.9256 -0.0596
 9325SOL    HW128831   3.063   2.542   3.547 -0.2043 -0.9781 -1.6615
 9325SOL    HW228832   2.913   2.542   3.571  0.2475 -0.9102  1.5355
 9326SOL     OW28833   0.787   5.158   0.164  0.6706 -0.0675  0.3587
 9326SOL    HW128834   0.778   5.127   0.074  0.2228 -0.1798  0.4383
 9326SOL    HW228835   0.872   5.203   0.166  0.8037 -0.2963 -0.0475
 9327SOL     OW28836   5.626   6.853   4.742 -0.4655  0.3375 -0.1032
 9327SOL    HW128837   5.605   6.772   4.694  0.1129  0.0108  0.1879
 9327SOL    HW228838   5.704   6.887   4.699  0.1720 -0.0590  0.7177
 9328SOL     OW28839   0.143   3.542   2.351 -0.0547 -0.0693  0.2559
 9328SOL    HW128840   0.181   3.629   2.355 -0.7008  0.2690 -0.5154
 9328SOL    HW228841   0.096   3.540   2.267 -1.5773 -0.5166  1.0809
 9329SOL     OW28842   3.990   4.516   3.739 -0.5659  0.4771 -0.5378
 9329SOL    HW128843   4.005   4.573   3.664  1.2896  1.1206  0.2640
 9329SOL    HW228844   3.929   4.565   3.795  0.6653  1.4967 -0.0669
 9330SOL     OW28845   7.444   0.582   1.475 -0.1301 -0.1905 -0.3817
 9330SOL    HW128846   7.352   0.578   1.502  0.3719 -0.3802  1.3940
 9330SOL    HW228847   7.474   0.668   1.505  0.1835  0.0558 -1.3465
 9331SOL     OW28848   1.756   0.874   3.590  0.0689  0.2900 -0.0422
 9331SOL    HW128849   1.714   0.897   3.506  0.1136  0.9468  0.1111
 9331SOL    HW228850   1.685   0.880   3.654 -0.1313 -0.9125 -0.1259
 9332SOL     OW28851   6.794   4.250   4.018  0.6367  0.3222  0.4396
 9332SOL    HW128852   6.840   4.317   4.070 -1.1301  3.3650 -1.5654
 9332SOL    HW228853   6.846   4.243   3.938 -1.0638  2.2024 -0.9329
 9333SOL     OW28854   7.316   1.473   0.642  0.4687  0.0387 -0.4479
 9333SOL    HW128855   7.295   1.550   0.589 -1.0927  0.8035  1.1960
 9333SOL    HW228856   7.252   1.407   0.615  0.5860 -0.0582 -0.4931
 9334SOL     OW28857   7.856   3.282   7.099  0.0571 -0.6647 -0.4272
 9334SOL    HW128858   7.821   3.370   7.089 -0.0471 -0.0219  3.8565
 9334SOL    HW228859   7.780   3.228   7.122  0.6798 -0.8947  1.2238
 9335SOL     OW28860   0.598   1.184   1.779 -0.3332 -0.2711 -0.5556
 9335SOL    HW128861   0.529   1.169   1.714 -0.4593 -0.9667 -0.2689
 9335SOL    HW228862   0.592   1.109   1.838  1.4636 -1.0063 -1.2183
 9336SOL     OW28863   4.402   6.959   6.128  0.4614  0.0449  0.4504
 9336SOL    HW128864   4.336   6.931   6.065  0.5845 -1.1441  0.8176
 9336SOL    HW228865   4.479   6.905   6.108  0.9024  0.5139  0.8363
 9337SOL     OW28866   5.198   7.943   7.268  0.0428 -0.8445  0.2565
 9337SOL    HW128867   5.128   7.886   7.299  0.1470 -0.6858  0.7776
 9337SOL    HW228868   5.185   7.946   7.173 -0.5185 -1.0001  0.3231
 9338SOL     OW28869   1.054   3.403   2.565  0.1757 -1.2190 -0.3347
 9338SOL    HW128870   1.017   3.317   2.550 -1.1931 -0.5327 -1.0501
 9338SOL    HW228871   0.994   3.446   2.625  0.2284 -0.3776 -0.8551
 9339SOL     OW28872   7.862   4.642   4.290  0.0975 -0.3526  0.6904
 9339SOL    HW128873   7.810   4.576   4.245  0.5357  0.5867 -1.3192
 9339SOL    HW228874   7.914   4.593   4.353  0.5619 -1.9609 -0.8699
 9340SOL     OW28875   7.418   6.565   7.099 -0.0616  0.4872 -0.6224
 9340SOL    HW128876   7.409   6.531   7.010  0.2260 -0.3298 -0.3504
 9340SOL    HW228877   7.452   6.654   7.087 -2.1350  1.2334 -1.3951
 9341SOL     OW28878   1.187   5.621   2.584 -0.3693 -0.1774  0.7519
 9341SOL    HW128879   1.222   5.535   2.608  1.4134  0.5238  0.8264
 9341SOL    HW228880   1.256   5.683   2.610 -2.0522  1.3923  1.6759
 9342SOL     OW28881   1.432   0.966   6.365 -0.0235  0.6671 -0.3636
 9342SOL    HW128882   1.488   1.044   6.375  0.3384  0.2085  1.8452
 9342SOL    HW228883   1.452   0.913   6.443 -3.4500  0.4382  0.5072
 9343SOL     OW28884   6.125   2.659   1.295 -0.2879 -0.3360  0.0134
 9343SOL    HW128885   6.056   2.699   1.242 -0.5972 -0.5809  0.2301
 9343SOL    HW228886   6.197   2.722   1.293 -1.0593  0.6087  1.0276
 9344SOL     OW28887   1.527   2.283   7.181 -0.2278 -0.2160 -0.1070
 9344SOL    HW128888   1.588   2.276   7.254  0.7376 -0.1406 -0.8918
 9344SOL    HW228889   1.534   2.374   7.153  1.3762 -0.8312 -1.9307
 9345SOL     OW28890   6.035   6.675   4.253 -0.0960 -0.8380 -0.7191
 9345SOL    HW128891   5.961   6.734   4.242  0.4918 -0.2457 -1.6254
 9345SOL    HW228892   6.004   6.590   4.223 -0.9774 -1.0408  0.6811
 9346SOL     OW28893   3.010   1.104   6.875 -0.1476 -0.0513 -0.2510
 9346SOL    HW128894   2.990   1.186   6.919 -0.0930  0.6125 -1.4400
 9346SOL    HW228895   3.083   1.067   6.925 -0.4832  0.3753  0.5703
 9347SOL     OW28896   5.126   3.586   1.944  0.1961  0.5992  0.5380
 9347SOL    HW128897   5.034   3.585   1.919  0.3088 -0.2864  0.0929
 9347SOL    HW228898   5.168   3.642   1.879  0.8678 -3.4424 -2.9904
 9348SOL     OW28899   2.356   1.740   2.086 -0.0446  0.0482 -0.3448
 9348SOL    HW128900   2.297   1.776   2.152  0.1142  0.6144 -0.5000
 9348SOL    HW228901   2.351   1.802   2.013  0.2446 -0.2466 -0.6196
 9349SOL     OW28902   2.617   3.754   0.896 -0.3233 -0.4170 -0.1233
 9349SOL    HW128903   2.632   3.694   0.824  1.5511 -1.2291  0.8752
 9349SOL    HW228904   2.620   3.841   0.856 -2.1947 -0.8859 -1.4379
 9350SOL     OW28905   6.029   7.673   0.658  0.1430  0.1987 -0.6605
 9350SOL    HW128906   6.073   7.662   0.574 -0.1199 -1.0718 -0.6499
 9350SOL    HW228907   6.083   7.736   0.706  1.1383 -0.2268 -1.1973
 9351SOL     OW28908   4.554   2.571   0.528  0.3148 -0.4606  0.7247
 9351SOL    HW128909   4.571   2.631   0.455 -0.8307 -0.3035  0.5697
 9351SOL    HW228910   4.500   2.621   0.588  0.9057 -0.7302  1.5004
 9352SOL     OW28911   0.645   6.271   0.867 -0.1566  0.1909  0.6180
 9352SOL    HW128912   0.719   6.314   0.823 -0.2018 -0.6554 -0.3243
 9352SOL    HW228913   0.573   6.278   0.805 -1.4722  2.6312  2.2523
 9353SOL     OW28914   4.195   4.404   5.549 -0.0880 -0.1361  0.4569
 9353SOL    HW128915   4.147   4.447   5.620 -1.6641 -0.0198 -0.6310
 9353SOL    HW228916   4.145   4.425   5.470  0.2594 -2.2522 -0.3892
 9354SOL     OW28917   3.968   7.215   4.508  0.2899 -0.3637 -0.2084
 9354SOL    HW128918   3.928   7.138   4.467 -0.5883 -0.7495  1.2996
 9354SOL    HW228919   3.993   7.271   4.434 -3.1535 -0.0443 -1.3030
 9355SOL     OW28920   7.917   5.675   4.012 -0.0637  0.0505  0.3971
 9355SOL    HW128921   7.876   5.725   3.941 -1.4855 -0.0168  1.1285
 9355SOL    HW228922   8.010   5.673   3.989 -0.6228 -1.1072 -2.1826
 9356SOL     OW28923   3.150   6.439   6.654  0.4608 -0.1159  0.3285
 9356SOL    HW128924   3.200   6.377   6.602  0.3850  0.2373 -0.1685
 9356SOL    HW228925   3.085   6.385   6.700 -0.2805 -0.2919 -0.8859
 9357SOL     OW28926   3.792   2.520   3.668 -0.7855 -0.6253  0.6865
 9357SOL    HW128927   3.709   2.551   3.704 -0.6148 -1.4715  1.8620
 9357SOL    HW228928   3.853   2.523   3.742  0.2154 -0.1431 -0.1229
 9358SOL     OW28929   3.522   3.986   4.520  0.0805  0.1485 -0.5827
 9358SOL    HW128930   3.468   3.978   4.441  0.5369  0.8389 -0.9724
 9358SOL    HW228931   3.468   4.038   4.580 -0.5733 -0.9963 -0.1433
 9359SOL     OW28932   2.666   5.406   0.372 -0.1329  0.3550  0.9516
 9359SOL    HW128933   2.658   5.439   0.461 -0.1293  0.8822  0.7646
 9359SOL    HW228934   2.577   5.410   0.336  0.2725  2.9971 -0.0226
 9360SOL     OW28935   0.050   5.591   6.227  0.7563  0.1311 -0.5213
 9360SOL    HW128936   0.114   5.522   6.243 -1.0302 -1.4909 -0.0644
 9360SOL    HW228937   0.063   5.653   6.299  2.3480  0.3140 -0.9134
 9361SOL     OW28938   4.678   7.261   0.731 -0.4510 -0.3877 -0.2728
 9361SOL    HW128939   4.691   7.224   0.819 -1.3206 -2.0263 -0.7880
 9361SOL    HW228940   4.593   7.226   0.703 -0.3524  0.4008 -1.6248
 9362SOL     OW28941   5.905   3.341   6.858 -0.1775 -0.2042  0.9546
 9362SOL    HW128942   5.821   3.372   6.825 -0.4391 -0.3032  1.5143
 9362SOL    HW228943   5.892   3.333   6.953  0.4347 -0.3034  1.0356
 9363SOL     OW28944   6.849   0.331   4.564 -0.0593 -0.2395 -0.2751
 9363SOL    HW128945   6.923   0.287   4.522 -1.3270 -2.2703 -0.4977
 9363SOL    HW228946   6.772   0.286   4.530 -1.4453  1.8946 -0.1519
 9364SOL     OW28947   4.857   3.797   5.055 -0.7115 -0.3978  0.2928
 9364SOL    HW128948   4.809   3.788   4.973 -0.8536  2.8139 -0.1081
 9364SOL    HW228949   4.937   3.844   5.031  0.2303 -1.2240  1.7073
 9365SOL     OW28950   5.338   3.941   0.687 -0.0881  0.5360  0.0226
 9365SOL    HW128951   5.378   3.976   0.767  0.4514 -1.8972  0.9217
 9365SOL    HW228952   5.393   3.974   0.616 -0.2214  2.2623  0.6626
 9366SOL     OW28953   2.471   4.418   7.415 -0.2959 -0.3566 -0.4667
 9366SOL    HW128954   2.386   4.442   7.377  0.0256  0.2785 -0.8126
 9366SOL    HW228955   2.469   4.323   7.422 -1.0036 -0.3515 -0.5553
 9367SOL     OW28956   4.483   5.977   1.839 -0.2703  0.2219  0.3421
 9367SOL    HW128957   4.489   5.949   1.931  2.1175  0.2411  0.2518
 9367SOL    HW228958   4.481   5.896   1.789  1.1282  0.1718  0.3274
 9368SOL     OW28959   7.622   5.212   2.924 -1.0748  0.0470 -0.3941
 9368SOL    HW128960   7.577   5.218   2.840 -1.0126 -0.7430 -0.4876
 9368SOL    HW228961   7.565   5.159   2.979 -0.7467 -0.0871 -0.1818
 9369SOL     OW28962   0.391   5.579   6.373  0.1278 -0.0890 -0.1920
 9369SOL    HW128963   0.367   5.583   6.280  1.7181  1.4963 -0.5932
 9369SOL    HW228964   0.391   5.670   6.402 -0.5631 -0.5807  1.4537
 9370SOL     OW28965   4.625   7.157   4.938  0.0803  0.2093  0.4587
 9370SOL    HW128966   4.573   7.171   4.859  1.7827  1.9303 -0.4353
 9370SOL    HW228967   4.638   7.245   4.974  2.4104 -0.1084  0.5664
 9371SOL     OW28968   0.624   5.763   7.389  0.0835  0.0761  0.0610
 9371SOL    HW128969   0.610   5.841   7.336 -1.5496 -0.9546 -1.1186
 9371SOL    HW228970   0.556   5.767   7.456 -1.0699 -1.1106 -0.9961
 9372SOL     OW28971   4.274   3.350   7.726 -0.3121  0.0044  0.1538
 9372SOL    HW128972   4.339   3.338   7.795  0.0770  0.4420 -0.1303
 9372SOL    HW228973   4.261   3.445   7.722 -0.9035 -0.0766  0.1476
 9373SOL     OW28974   6.848   0.731   3.436  0.1087  0.1624 -0.0897
 9373SOL    HW128975   6.877   0.640   3.449 -0.7615 -0.1808 -0.5084
 9373SOL    HW228976   6.766   0.737   3.484 -0.3367  0.4415 -0.8749
 9374SOL     OW28977   4.286   3.205   2.192 -0.6402 -0.1771 -0.1319
 9374SOL    HW128978   4.345   3.146   2.239 -0.9826  0.4679  1.1331
 9374SOL    HW228979   4.205   3.154   2.182 -1.0707  0.1771  1.3051
 9375SOL     OW28980   7.907   6.656   3.152  0.0935  0.3271  0.0201
 9375SOL    HW128981   7.985   6.712   3.160  0.8895 -0.8866  1.2454
 9375SOL    HW228982   7.926   6.581   3.208 -1.9115 -0.0790  0.2322
 9376SOL     OW28983   1.181   5.002   6.863  0.1796 -0.3395 -0.1644
 9376SOL    HW128984   1.100   4.954   6.881 -1.7462  2.1965 -1.4982
 9376SOL    HW228985   1.188   5.003   6.768  2.1787 -0.9995 -0.0828
 9377SOL     OW28986   1.834   1.602   2.983 -0.0909  0.1078  0.2170
 9377SOL    HW128987   1.866   1.635   2.900  0.8333  0.5543  0.7350
 9377SOL    HW228988   1.752   1.649   2.998  1.6696  3.0694  1.4156
 9378SOL     OW28989   7.157   1.570   1.995  0.2207 -0.6196 -0.3218
 9378SOL    HW128990   7.236   1.624   1.991 -0.2714  0.0638 -1.2566
 9378SOL    HW228991   7.121   1.573   1.906 -0.3600 -1.6733 -0.1378
 9379SOL     OW28992   4.783   5.848   5.825  0.6514  0.0768 -0.4833
 9379SOL    HW128993   4.866   5.892   5.844  1.1810 -0.5223 -1.3127
 9379SOL    HW228994   4.762   5.874   5.736  0.2483 -0.2366 -0.4791
 9380SOL     OW28995   3.169   6.489   1.221 -0.3276  0.2846 -0.5245
 9380SOL    HW128996   3.200   6.576   1.244 -0.1975  0.0555  0.1781
 9380SOL    HW228997   3.076   6.488   1.246 -0.5906  0.5383 -1.4349
 9381SOL     OW28998   0.712   7.580   3.332  0.0413 -0.5567  0.7511
 9381SOL    HW128999   0.761   7.550   3.409 -1.6975 -0.0367  2.1396
 9381SOL    HW229000   0.712   7.675   3.339 -1.5731 -0.5508  1.1124
 9382SOL     OW29001   1.008   7.077   7.171 -0.2153  0.1992 -0.4456
 9382SOL    HW129002   0.943   7.072   7.102 -1.9293  1.5610  0.9907
 9382SOL    HW229003   0.958   7.083   7.252  1.7179 -0.8788  0.9339
 9383SOL     OW29004   1.025   5.891   4.777 -0.0276 -0.2258  0.4725
 9383SOL    HW129005   0.944   5.842   4.761  0.4346 -0.7663 -0.2433
 9383SOL    HW229006   1.050   5.867   4.866 -0.7525  0.0944  0.7716
 9384SOL     OW29007   0.427   2.911   3.554  0.1390  0.1910  0.5959
 9384SOL    HW129008   0.461   2.924   3.466  0.4940  1.8696  0.9470
 9384SOL    HW229009   0.488   2.849   3.595  0.7233  0.4202  0.0793
 9385SOL     OW29010   3.947   0.708   2.651  0.3232 -0.0023 -0.1520
 9385SOL    HW129011   4.026   0.658   2.628  1.0354  0.7929  0.4884
 9385SOL    HW229012   3.916   0.743   2.568 -0.7120 -2.1799 -0.7732
 9386SOL     OW29013   4.371   3.906   3.853 -0.1437  0.0910  0.0313
 9386SOL    HW129014   4.333   3.838   3.909  0.9555 -0.1794  0.4754
 9386SOL    HW229015   4.421   3.961   3.914 -0.8748  1.1987 -0.3520
 9387SOL     OW29016   4.799   5.444   5.008 -0.1030 -0.5122 -0.0188
 9387SOL    HW129017   4.871   5.488   5.054  1.0852 -1.4840 -0.8910
 9387SOL    HW229018   4.768   5.510   4.946  0.9203 -0.4987 -0.5461
 9388SOL     OW29019   3.458   6.648   1.265 -0.7519  0.0266 -0.3105
 9388SOL    HW129020   3.486   6.604   1.346 -0.4016 -0.5141 -0.7167
 9388SOL    HW229021   3.476   6.584   1.196 -1.0915  0.4678 -0.8118
 9389SOL     OW29022   6.986   6.241   1.109 -0.0693  0.1602  0.2384
 9389SOL    HW129023   6.980   6.330   1.074  1.4793  0.5583  0.9554
 9389SOL    HW229024   6.921   6.239   1.180 -0.8054  0.3903 -0.4053
 9390SOL     OW29025   1.415   6.976   2.103  0.3459 -0.6629  0.2660
 9390SOL    HW129026   1.465   7.054   2.080 -0.9529  0.2103  0.3538
 9390SOL    HW229027   1.334   6.983   2.054 -0.5149 -1.0731  1.5779
 9391SOL     OW29028   7.316   2.435   1.932  0.8182 -0.6955 -0.4760
 9391SOL    HW129029   7.238   2.382   1.915  1.6482 -2.1702  0.1507
 9391SOL    HW229030   7.382   2.400   1.873  1.0024  0.6473 -1.1117
 9392SOL     OW29031   0.197   5.900   2.467  1.3896 -0.1601  0.8548
 9392SOL    HW129032   0.231   5.812   2.452 -0.1600 -0.4243 -1.7985
 9392SOL    HW229033   0.131   5.889   2.536  0.2186 -1.4159 -0.3968
 9393SOL     OW29034   7.335   5.676   0.967  0.3563  0.1197  0.3662
 9393SOL    HW129035   7.358   5.694   0.876  1.1293  1.4918  0.8130
 9393SOL    HW229036   7.272   5.744   0.990  0.0771 -0.2878  0.8295
 9394SOL     OW29037   0.854   1.766   1.893  0.5293  0.2085  0.2988
 9394SOL    HW129038   0.939   1.793   1.857 -0.3601  0.5410 -1.6670
 9394SOL    HW229039   0.792   1.831   1.860 -0.1961  1.7621  4.0848
 9395SOL     OW29040   2.931   2.469   2.809 -0.4386  0.2097  0.3548
 9395SOL    HW129041   3.011   2.432   2.847 -0.5606 -0.2511  0.1579
 9395SOL    HW229042   2.926   2.557   2.848 -0.7327 -0.3631  1.6785
 9396SOL     OW29043   4.358   0.196   2.821  0.2312  0.2399 -0.1573
 9396SOL    HW129044   4.277   0.148   2.837 -0.3978  1.2749 -0.1913
 9396SOL    HW229045   4.385   0.226   2.908  0.0924  0.6601 -0.2575
 9397SOL     OW29046   5.886   1.226   0.015 -0.5669  0.0082 -0.1347
 9397SOL    HW129047   5.941   1.158  -0.022  0.6793  2.3083 -2.8791
 9397SOL    HW229048   5.810   1.230  -0.043 -0.5121  1.0694 -0.1530
 9398SOL     OW29049   3.292   5.725   1.021 -0.5087  0.3886 -0.3283
 9398SOL    HW129050   3.226   5.774   1.070  0.0121  0.2901  0.4977
 9398SOL    HW229051   3.241   5.667   0.964 -1.1453  0.1159  0.4877
 9399SOL     OW29052   3.882   3.858   0.332  0.2053 -0.0893  0.0438
 9399SOL    HW129053   3.889   3.819   0.419  1.8344  1.5835  0.7056
 9399SOL    HW229054   3.843   3.789   0.279 -0.1469 -1.4123  1.9137
 9400SOL     OW29055   4.940   5.743   7.271 -0.4306  0.4418 -0.2554
 9400SOL    HW129056   4.965   5.666   7.322 -0.0574 -0.5256 -1.8344
 9400SOL    HW229057   4.900   5.802   7.335  0.5619 -0.4529  1.2482
 9401SOL     OW29058   4.696   5.669   7.527  0.5965  0.1295 -0.0946
 9401SOL    HW129059   4.765   5.605   7.545  0.7905  0.3177 -0.1600
 9401SOL    HW229060   4.743   5.745   7.490  0.4174  0.4719  0.3720
 9402SOL     OW29061   2.292   7.861   1.375 -0.3286  0.1506 -0.3703
 9402SOL    HW129062   2.319   7.833   1.462 -0.4664 -0.8028 -0.6226
 9402SOL    HW229063   2.224   7.798   1.350 -1.1576  1.1317 -0.6779
 9403SOL     OW29064   3.164   3.436   5.375 -0.2943 -0.2378  0.0879
 9403SOL    HW129065   3.240   3.456   5.319 -1.0021 -2.0218 -1.6398
 9403SOL    HW229066   3.148   3.516   5.423  1.6342  0.7406 -0.7722
 9404SOL     OW29067   5.481   2.943   2.394 -0.5735 -0.2303  0.1350
 9404SOL    HW129068   5.498   2.913   2.483  2.3515  1.1133  0.1123
 9404SOL    HW229069   5.541   2.892   2.340 -1.9919 -0.6967 -1.0595
 9405SOL     OW29070   0.084   6.495   1.699 -0.2953  0.3176 -0.1394
 9405SOL    HW129071   0.124   6.551   1.766 -0.2427 -0.7049  0.6980
 9405SOL    HW229072   0.133   6.413   1.703 -1.9565 -0.7044  0.3985
 9406SOL     OW29073   5.702   1.373   1.262 -0.1076  0.1836 -0.3203
 9406SOL    HW129074   5.724   1.441   1.199 -1.1170  0.6103 -0.2254
 9406SOL    HW229075   5.686   1.295   1.209 -0.0593  0.3075 -0.5169
 9407SOL     OW29076   4.316   4.853   7.929 -0.0930 -0.1647  0.5710
 9407SOL    HW129077   4.371   4.909   7.873 -0.4173 -0.3378  0.0688
 9407SOL    HW229078   4.329   4.765   7.894 -1.1943 -0.1262  0.0056
 9408SOL     OW29079   2.981   6.288   1.514  0.6784 -0.0743 -0.2080
 9408SOL    HW129080   2.955   6.377   1.491 -1.2144 -0.4903  0.1901
 9408SOL    HW229081   3.073   6.282   1.488  0.5497  1.6678 -1.1626
 9409SOL     OW29082   3.606   0.245   1.506  0.4941 -0.3573  0.1965
 9409SOL    HW129083   3.572   0.192   1.579  1.9543 -0.1627  1.0560
 9409SOL    HW229084   3.584   0.335   1.530  0.1541 -0.3677 -0.0704
 9410SOL     OW29085   1.896   7.652   1.556  0.6965  0.3816 -0.1774
 9410SOL    HW129086   1.934   7.683   1.638 -1.7027  0.6770  0.9093
 9410SOL    HW229087   1.860   7.730   1.515 -0.6253 -0.1367 -0.0728
 9411SOL     OW29088   6.669   4.619   7.193  0.3268 -0.1665 -0.2743
 9411SOL    HW129089   6.599   4.681   7.215  1.9072  1.3113  0.7884
 9411SOL    HW229090   6.703   4.590   7.277 -0.0280 -2.1433 -0.7607
 9412SOL     OW29091   2.903   1.750   6.004  0.5877  0.3075  0.1842
 9412SOL    HW129092   2.953   1.692   5.946  0.4145  2.8531 -2.7953
 9412SOL    HW229093   2.967   1.813   6.037  0.3596 -0.0902  1.4591
 9413SOL     OW29094   1.225   6.306   2.364  0.2151 -0.1439 -0.2478
 9413SOL    HW129095   1.189   6.341   2.446  0.0892  0.3721 -0.5235
 9413SOL    HW229096   1.149   6.269   2.319 -0.0258  1.1727 -0.9463
 9414SOL     OW29097   2.978   7.059   0.075 -0.3774 -0.0502 -0.2448
 9414SOL    HW129098   2.892   7.035   0.040 -0.0271  2.2028 -3.0132
 9414SOL    HW229099   2.968   7.151   0.100  0.5284 -0.5374  2.0972
 9415SOL     OW29100   4.016   5.156   0.574 -0.4231 -0.0239 -0.2318
 9415SOL    HW129101   3.928   5.189   0.592 -0.4175  0.1563 -0.5295
 9415SOL    HW229102   4.057   5.149   0.660 -0.4976  0.5340 -0.1499
 9416SOL     OW29103   3.403   3.140   5.662 -0.3030 -0.0417  0.5462
 9416SOL    HW129104   3.374   3.067   5.607 -0.8645  0.3518  0.3142
 9416SOL    HW229105   3.393   3.108   5.751 -2.2740  0.3609  0.5080
 9417SOL     OW29106   2.929   3.157   3.123 -0.4190 -0.6536 -0.2268
 9417SOL    HW129107   2.911   3.064   3.108  0.5059 -0.5184 -2.5790
 9417SOL    HW229108   2.844   3.195   3.145 -0.8443 -1.9962  0.5451
 9418SOL     OW29109   0.634   6.393   5.716 -0.3231  0.2458 -0.1544
 9418SOL    HW129110   0.672   6.442   5.642  0.0806  2.7263  1.5836
 9418SOL    HW229111   0.550   6.435   5.732 -0.0424  0.3140  1.2852
 9419SOL     OW29112   7.581   4.308   1.257  0.1169  0.2311  0.7021
 9419SOL    HW129113   7.569   4.403   1.265 -0.5289  0.1466  0.7913
 9419SOL    HW229114   7.629   4.284   1.336  2.8659  0.8836 -0.6552
 9420SOL     OW29115   4.281   1.288   5.371 -0.3742  0.1859  0.0147
 9420SOL    HW129116   4.287   1.355   5.303 -0.8113 -0.0955 -0.3079
 9420SOL    HW229117   4.203   1.311   5.421 -0.5706 -0.1133 -0.1437
 9421SOL     OW29118   6.403   3.222   6.230 -0.5029  0.3135  0.1037
 9421SOL    HW129119   6.393   3.273   6.310 -2.4181 -0.2875  0.2875
 9421SOL    HW229120   6.456   3.146   6.256  0.9456  1.3242  0.2018
 9422SOL     OW29121   6.994   3.814   2.977  0.0818  0.7379 -0.4897
 9422SOL    HW129122   7.060   3.876   2.946  0.8396 -0.3613 -1.1459
 9422SOL    HW229123   7.031   3.778   3.057 -0.0014  0.5623 -0.5296
 9423SOL     OW29124   7.196   0.990   3.924 -0.2907  0.0116  0.8179
 9423SOL    HW129125   7.194   0.894   3.922  0.9068 -0.0166 -0.2019
 9423SOL    HW229126   7.144   1.013   4.001  1.9438 -1.5504  2.9884
 9424SOL     OW29127   7.208   7.967   7.524  1.0320 -1.0046  0.2941
 9424SOL    HW129128   7.233   7.961   7.432  1.9675  0.1251  0.4474
 9424SOL    HW229129   7.126   8.016   7.524  0.4172 -1.9994  0.0039
 9425SOL     OW29130   1.761   2.080   1.609  0.4470 -0.0383 -0.2738
 9425SOL    HW129131   1.798   2.137   1.542 -0.5410 -1.5141 -2.1668
 9425SOL    HW229132   1.682   2.125   1.639 -0.1508 -0.2092 -1.5208
 9426SOL     OW29133   3.223   0.878   7.050  0.3722  0.3418  0.1346
 9426SOL    HW129134   3.227   0.971   7.073 -0.6793  0.8377 -1.4891
 9426SOL    HW229135   3.130   0.855   7.059  0.5939 -0.5029  0.3510
 9427SOL     OW29136   1.581   7.074   6.483 -0.4091 -0.4332  0.1429
 9427SOL    HW129137   1.595   7.165   6.508  0.6589 -0.6406  0.3551
 9427SOL    HW229138   1.487   7.067   6.467 -0.5806  0.5575  0.6871
 9428SOL     OW29139   7.140   3.502   0.462 -0.0290  0.1842 -0.4206
 9428SOL    HW129140   7.189   3.544   0.532 -0.1952 -1.6536  0.8782
 9428SOL    HW229141   7.093   3.431   0.505 -0.1310 -1.0359 -2.4129
 9429SOL     OW29142   7.436   2.998   7.317  0.2182  0.4556  0.7349
 9429SOL    HW129143   7.491   2.980   7.394  1.1788 -1.6316 -0.3460
 9429SOL    HW229144   7.415   2.911   7.282  0.8027  1.3210 -2.0237
 9430SOL     OW29145   6.301   2.638   3.420 -0.4716  0.0898 -0.6537
 9430SOL    HW129146   6.248   2.563   3.449 -0.4511 -1.0475 -3.3032
 9430SOL    HW229147   6.299   2.698   3.494 -1.4968 -1.9921  1.1372
 9431SOL     OW29148   7.756   6.320   7.760  0.0762  0.0835  0.3816
 9431SOL    HW129149   7.763   6.288   7.850 -0.4984  0.0419  0.4167
 9431SOL    HW229150   7.683   6.271   7.722 -0.4020  0.8894  0.2415
 9432SOL     OW29151   4.958   5.895   3.769 -0.9746 -0.3040  0.6040
 9432SOL    HW129152   5.043   5.860   3.797 -1.3357 -2.5797 -0.8630
 9432SOL    HW229153   4.894   5.845   3.819 -1.4786 -0.3543 -0.0876
 9433SOL     OW29154   6.959   2.852   5.334 -0.2492  0.0092  0.0540
 9433SOL    HW129155   6.895   2.804   5.281 -1.0844 -0.1196  1.1346
 9433SOL    HW229156   7.016   2.785   5.370  0.6485  0.1400 -1.0630
 9434SOL     OW29157   3.139   3.868   4.788  0.2999  0.0425  0.6056
 9434SOL    HW129158   3.091   3.904   4.862  0.3318  1.0768  0.1367
 9434SOL    HW229159   3.075   3.813   4.742  0.0939 -0.0646  1.0221
 9435SOL     OW29160   4.968   6.648   3.932 -0.3041 -0.0984  0.1188
 9435SOL    HW129161   4.982   6.704   3.856  0.2412 -0.5835 -0.1401
 9435SOL    HW229162   4.886   6.680   3.970  0.0827  0.9884  0.0755
 9436SOL     OW29163   5.047   4.132   1.787 -0.2534 -0.2965  0.4256
 9436SOL    HW129164   5.088   4.079   1.856 -0.4515 -0.0406  0.7461
 9436SOL    HW229165   4.990   4.192   1.835 -1.8288 -1.3474 -0.0440
 9437SOL     OW29166   5.399   6.316   0.556 -0.0723  0.4561 -0.0837
 9437SOL    HW129167   5.485   6.355   0.572 -0.4504  1.1572  0.2973
 9437SOL    HW229168   5.390   6.316   0.461  0.0553  1.0409 -0.1013
 9438SOL     OW29169   7.494   1.198   0.059  0.1475  0.0755  0.1009
 9438SOL    HW129170   7.537   1.233   0.137 -0.5285  0.2509  0.4066
 9438SOL    HW229171   7.497   1.103   0.070  0.4019  0.0891  0.1511
 9439SOL     OW29172   1.109   1.823   4.234 -0.2299  0.4219  0.3402
 9439SOL    HW129173   1.015   1.842   4.235 -0.3810  0.0423 -1.8396
 9439SOL    HW229174   1.113   1.727   4.235  0.1816  0.4374  1.0183
 9440SOL     OW29175   4.707   5.546   2.951  0.3998  0.0088  0.6620
 9440SOL    HW129176   4.719   5.460   2.910 -1.3952 -0.5105  1.1333
 9440SOL    HW229177   4.620   5.574   2.923  1.0364  1.8099  0.3298
 9441SOL     OW29178   2.075   2.032   0.884  0.3161  0.3642  0.6451
 9441SOL    HW129179   2.095   2.082   0.964  1.3329  1.3250 -0.1754
 9441SOL    HW229180   1.991   2.067   0.855  1.4119  2.3224 -0.3959
 9442SOL     OW29181   7.196   3.304   0.944  0.5766 -0.6212  0.0221
 9442SOL    HW129182   7.121   3.249   0.921  0.1452  0.1607 -0.5015
 9442SOL    HW229183   7.176   3.337   1.032  0.5741 -0.8615  0.1114
 9443SOL     OW29184   6.755   1.632   1.901 -0.0618 -1.0016 -0.3231
 9443SOL    HW129185   6.742   1.537   1.895 -1.2897 -0.7615 -2.8248
 9443SOL    HW229186   6.675   1.670   1.864  1.0255  0.9654 -0.8235
 9444SOL     OW29187   0.880   4.243   0.036  0.5891  0.4662  0.0543
 9444SOL    HW129188   0.941   4.279   0.100  0.7711  1.8361 -0.8536
 9444SOL    HW229189   0.833   4.174   0.084  1.5591  0.6270  1.2895
 9445SOL     OW29190   6.110   7.208   2.356 -0.7094  0.5026  0.5892
 9445SOL    HW129191   6.202   7.231   2.343 -0.7923  0.6586  0.2562
 9445SOL    HW229192   6.100   7.201   2.450 -0.2636  0.1039  0.6099
 9446SOL     OW29193   6.633   1.573   3.596  0.5262 -0.0004 -0.0821
 9446SOL    HW129194   6.580   1.500   3.564  0.3246  0.4027 -0.6988
 9446SOL    HW229195   6.678   1.539   3.673  0.3897 -0.7536 -0.3280
 9447SOL     OW29196   0.145   1.645   6.985 -0.2828 -0.3372 -0.0729
 9447SOL    HW129197   0.134   1.651   6.890  2.0195  0.3299 -0.3740
 9447SOL    HW229198   0.067   1.599   7.016 -1.8072  0.7118 -2.1018
 9448SOL     OW29199   3.725   7.351   1.874 -0.1900 -0.0305 -0.2639
 9448SOL    HW129200   3.700   7.422   1.814 -0.2234  0.3831  0.2318
 9448SOL    HW229201   3.661   7.281   1.856 -0.5071  0.2806 -0.3601
 9449SOL     OW29202   1.167   5.287   7.596  0.2864 -0.6334 -0.3643
 9449SOL    HW129203   1.165   5.216   7.532  0.0009 -0.4618 -0.5511
 9449SOL    HW229204   1.088   5.273   7.649  0.5168 -0.7698 -0.0501
 9450SOL     OW29205   2.706   4.330   5.986 -0.3420 -0.0660 -0.0027
 9450SOL    HW129206   2.736   4.247   6.023  0.1118  0.2739  0.4031
 9450SOL    HW229207   2.709   4.391   6.059 -0.1684  0.4365 -0.4278
 9451SOL     OW29208   6.383   1.013   5.738 -0.2034 -0.2302  0.2564
 9451SOL    HW129209   6.357   1.097   5.700 -1.9883 -1.3434 -1.1382
 9451SOL    HW229210   6.319   0.998   5.808  0.2209 -0.3599  0.6211
 9452SOL     OW29211   6.393   5.188   7.431 -0.1358  0.1586 -0.6120
 9452SOL    HW129212   6.457   5.188   7.360  0.8639  0.2581  0.2737
 9452SOL    HW229213   6.368   5.096   7.442  1.1208 -0.1115  0.1423
 9453SOL     OW29214   7.714   1.822   5.739 -0.4319  0.4152 -0.4595
 9453SOL    HW129215   7.707   1.803   5.645  2.1644  0.4137 -0.7188
 9453SOL    HW229216   7.782   1.762   5.770 -2.0181 -0.3949  1.7236
 9454SOL     OW29217   5.369   5.202   3.693  0.7645 -0.4614  0.2653
 9454SOL    HW129218   5.400   5.270   3.752 -0.2250 -0.4548  0.8110
 9454SOL    HW229219   5.393   5.119   3.736  0.8471 -0.4505  0.2381
 9455SOL     OW29220   3.630   5.596   7.773 -0.2040  0.0199 -0.2723
 9455SOL    HW129221   3.694   5.666   7.787 -0.0644  0.0729 -1.0702
 9455SOL    HW229222   3.606   5.567   7.860 -0.9903  1.7002  0.1011
 9456SOL     OW29223   4.807   3.347   7.955 -1.0189 -0.6669 -0.1995
 9456SOL    HW129224   4.832   3.256   7.966  1.6830 -0.1488 -1.2574
 9456SOL    HW229225   4.831   3.388   8.039 -3.4373 -1.0772  0.7714
 9457SOL     OW29226   5.440   4.664   5.119  0.0941  0.1824 -0.1421
 9457SOL    HW129227   5.371   4.683   5.055 -0.7739 -0.0833  0.6818
 9457SOL    HW229228   5.396   4.612   5.186  1.1149 -0.0112  0.3973
 9458SOL     OW29229   1.575   3.219   5.963  0.0150 -0.2636 -0.5845
 9458SOL    HW129230   1.498   3.274   5.946  1.1106  0.8625 -2.1558
 9458SOL    HW229231   1.615   3.258   6.041 -0.0202  0.2768 -0.8309
 9459SOL     OW29232   2.717   7.937   1.832 -0.3721 -0.2925  0.4121
 9459SOL    HW129233   2.784   7.889   1.782 -0.0227 -0.2066  0.7953
 9459SOL    HW229234   2.679   7.997   1.768  0.4980  0.2455  0.3805
 9460SOL     OW29235   7.566   2.681   0.298  0.3177  0.3715 -1.0382
 9460SOL    HW129236   7.634   2.699   0.362  0.6394 -0.4903 -1.1222
 9460SOL    HW229237   7.485   2.705   0.341  0.6483  1.2330 -0.8694
 9461SOL     OW29238   5.265   2.506   2.608  0.0023 -0.7151  0.2615
 9461SOL    HW129239   5.208   2.459   2.669 -1.2195 -0.8915 -0.9641
 9461SOL    HW229240   5.239   2.598   2.617  0.0616 -0.6978  0.2572
 9462SOL     OW29241   3.154   1.144   1.134 -0.0312  0.0797  0.5692
 9462SOL    HW129242   3.186   1.124   1.221 -0.3452  0.4914  0.7862
 9462SOL    HW229243   3.157   1.061   1.086 -0.8532 -0.3838  1.2919
 9463SOL     OW29244   7.846   0.636   6.008 -0.3070 -0.1975  0.1533
 9463SOL    HW129245   7.800   0.579   5.947 -1.1291  0.6007  0.0027
 9463SOL    HW229246   7.848   0.588   6.091  1.0511 -1.4037 -0.5512
 9464SOL     OW29247   2.744   0.395   7.200 -0.3801  0.2214 -0.2761
 9464SOL    HW129248   2.818   0.337   7.218  1.3763  2.1811 -0.7263
 9464SOL    HW229249   2.668   0.349   7.235  0.8123 -2.5140 -1.0345
 9465SOL     OW29250   4.217   7.530   7.447 -0.8490 -0.1795  0.3573
 9465SOL    HW129251   4.148   7.487   7.396 -1.1956  0.5367  0.2058
 9465SOL    HW229252   4.260   7.459   7.494  0.1522 -1.0082 -1.7203
 9466SOL     OW29253   6.282   1.542   4.612  0.2070  0.6916 -0.2906
 9466SOL    HW129254   6.376   1.533   4.598 -0.1217  0.0959 -2.4554
 9466SOL    HW229255   6.250   1.452   4.615 -0.4125  0.8980 -0.5907
 9467SOL     OW29256   1.887   4.118   2.622  0.4688  0.1427 -0.2422
 9467SOL    HW129257   1.979   4.141   2.635  0.1509  1.6365 -0.4547
 9467SOL    HW229258   1.851   4.189   2.569 -0.3726 -1.3796 -1.8052
 9468SOL     OW29259   6.107   5.827   5.118 -0.1651 -0.4647  0.2759
 9468SOL    HW129260   6.169   5.849   5.188 -0.4207 -0.3301  0.4612
 9468SOL    HW229261   6.145   5.867   5.039 -0.6651  0.7489  0.6226
 9469SOL     OW29262   0.239   0.882   0.011  0.0471  0.6197 -0.2879
 9469SOL    HW129263   0.167   0.860   0.070 -1.1301  1.3740 -1.3905
 9469SOL    HW229264   0.198   0.890  -0.075  1.1663  2.4693 -0.7191
 9470SOL     OW29265   5.777   1.849   6.085 -0.2970 -0.7096  0.5734
 9470SOL    HW129266   5.826   1.767   6.093  0.2954 -0.2938  1.3917
 9470SOL    HW229267   5.768   1.880   6.175  0.2794  0.5746  0.2076
 9471SOL     OW29268   6.478   4.952   3.924 -0.2585  0.1815 -0.0151
 9471SOL    HW129269   6.450   5.022   3.865  0.8144  0.3361 -0.3688
 9471SOL    HW229270   6.574   4.953   3.919 -0.0173  1.2170  2.9235
 9472SOL     OW29271   4.002   2.670   3.830 -0.0223 -0.4175 -0.1682
 9472SOL    HW129272   3.917   2.699   3.862  0.0973 -1.3602  1.0824
 9472SOL    HW229273   4.066   2.711   3.888  0.1172 -3.6669  2.2610
 9473SOL     OW29274   7.881   0.324   2.488 -0.0099 -0.2363 -0.0242
 9473SOL    HW129275   7.894   0.389   2.558 -0.2553  0.6383 -0.7682
 9473SOL    HW229276   7.942   0.254   2.509  0.2886  0.2496  0.7910
 9474SOL     OW29277   0.702   4.118   0.999 -0.7671  0.0039  0.0658
 9474SOL    HW129278   0.763   4.164   1.057 -1.3948 -0.5489  1.1977
 9474SOL    HW229279   0.615   4.150   1.025 -1.3671 -2.7928  1.9061
 9475SOL     OW29280   2.535   5.790   0.947  0.0450  0.2269 -0.3073
 9475SOL    HW129281   2.488   5.835   0.877  1.4768 -0.3999 -1.7168
 9475SOL    HW229282   2.609   5.847   0.967 -0.3710  0.4196  0.7492
 9476SOL     OW29283   4.802   4.521   0.725 -0.0780  0.2473  0.4500
 9476SOL    HW129284   4.747   4.586   0.681 -0.5857  0.6245  1.6058
 9476SOL    HW229285   4.835   4.567   0.802 -0.4183 -0.8453  1.2662
 9477SOL     OW29286   2.110   7.489   7.970  0.8244  0.0857  0.5745
 9477SOL    HW129287   2.150   7.433   7.903 -1.5844 -0.2223 -0.7132
 9477SOL    HW229288   2.177   7.494   8.039  2.5276 -1.4312 -0.8284
 9478SOL     OW29289   1.205   2.344   7.891  0.3147 -0.6801 -0.5104
 9478SOL    HW129290   1.140   2.336   7.821  0.4473 -0.7959 -0.6200
 9478SOL    HW229291   1.172   2.289   7.961  0.2018 -0.5957 -0.4963
 9479SOL     OW29292   6.426   0.470   4.456  0.0036  0.5307  0.1335
 9479SOL    HW129293   6.423   0.477   4.551 -0.8967  1.0339  0.0827
 9479SOL    HW229294   6.334   0.474   4.429  0.1140 -1.1083 -0.6569
 9480SOL     OW29295   1.204   2.760   4.959 -0.2036  0.5868 -0.0784
 9480SOL    HW129296   1.204   2.714   4.875 -0.1962  0.2567  0.1028
 9480SOL    HW229297   1.171   2.696   5.022 -0.4155  0.8998  0.1351
 9481SOL     OW29298   0.913   4.131   0.469  0.1152 -0.3390  0.3027
 9481SOL    HW129299   0.835   4.076   0.465  0.5907 -1.1271  1.4020
 9481SOL    HW229300   0.945   4.121   0.558  1.0005  0.6433  0.1149
 9482SOL     OW29301   0.408   3.773   5.848  0.0636 -0.5697 -0.1982
 9482SOL    HW129302   0.453   3.770   5.932  0.3678 -0.5640 -0.3597
 9482SOL    HW229303   0.364   3.688   5.841 -0.5990 -0.2742  0.3108
 9483SOL     OW29304   7.692   3.678   4.683 -0.2608 -0.0199 -0.5916
 9483SOL    HW129305   7.720   3.745   4.745 -0.1398  0.2896 -0.9709
 9483SOL    HW229306   7.610   3.645   4.719 -0.5886  0.6966 -0.6600
 9484SOL     OW29307   5.233   7.601   3.834  0.3909 -0.1021  0.3254
 9484SOL    HW129308   5.197   7.598   3.923 -0.2801 -0.3668  0.0509
 9484SOL    HW229309   5.191   7.527   3.789  2.1742 -1.1745  0.3227
 9485SOL     OW29310   1.579   0.684   2.860 -0.8823  0.4862  0.0297
 9485SOL    HW129311   1.592   0.769   2.902 -0.5426  1.3672 -1.7614
 9485SOL    HW229312   1.538   0.705   2.776 -0.8351 -1.1259 -0.4294
 9486SOL     OW29313   4.046   3.165   7.738 -0.1170  0.1459  0.1361
 9486SOL    HW129314   4.024   3.099   7.671  0.1665  1.5408 -1.4047
 9486SOL    HW229315   4.125   3.206   7.704  0.3673  0.5045  1.6623
 9487SOL     OW29316   5.036   1.872   5.444  0.6363  0.1619  0.4401
 9487SOL    HW129317   5.039   1.803   5.510 -0.0055  0.6041  0.9435
 9487SOL    HW229318   5.125   1.907   5.442  0.8086 -0.2570  0.6315
 9488SOL     OW29319   0.824   1.061   5.608  0.2512  0.0949  0.1844
 9488SOL    HW129320   0.742   1.054   5.559  0.9778 -0.4090 -0.9949
 9488SOL    HW229321   0.799   1.104   5.690 -1.4740 -1.4368  0.5390
 9489SOL     OW29322   7.071   1.280   3.502 -0.1618 -0.5646  0.2191
 9489SOL    HW129323   7.027   1.320   3.427 -0.4696 -1.8610 -0.3221
 9489SOL    HW229324   7.006   1.218   3.538  0.8324 -1.7583  0.0296
 9490SOL     OW29325   6.292   3.537   5.104  0.4407  0.5744 -0.6840
 9490SOL    HW129326   6.300   3.564   5.196 -0.7948 -0.5360 -0.2110
 9490SOL    HW229327   6.308   3.616   5.054  3.4893  0.7331  0.3691
 9491SOL     OW29328   7.079   2.231   4.045  0.8793  0.1264  0.2678
 9491SOL    HW129329   7.085   2.318   4.005 -1.9148  0.4999  0.4449
 9491SOL    HW229330   7.051   2.174   3.974  0.9901 -0.2933  0.5560
 9492SOL     OW29331   3.602   6.906   4.264 -0.2648  0.4971  0.4261
 9492SOL    HW129332   3.684   6.946   4.294  1.4683 -1.8950 -0.7266
 9492SOL    HW229333   3.545   6.907   4.340  0.5632  2.8268  1.0958
 9493SOL     OW29334   3.163   0.570   3.816 -0.3255 -0.0696 -0.4915
 9493SOL    HW129335   3.237   0.551   3.760  0.4738 -1.3313  0.9096
 9493SOL    HW229336   3.200   0.619   3.890 -0.9186 -0.4235  0.0600
 9494SOL     OW29337   3.094   3.098   1.199 -0.6344 -0.3506  0.0818
 9494SOL    HW129338   3.160   3.157   1.163 -0.5991 -1.0456 -1.0306
 9494SOL    HW229339   3.010   3.139   1.177 -0.5922  0.0598  0.6736
 9495SOL     OW29340   6.092   4.045   7.488  0.3352 -0.0466 -0.1879
 9495SOL    HW129341   6.135   3.985   7.549 -0.5509  0.3035  0.8070
 9495SOL    HW229342   6.000   4.041   7.512  0.0735  0.6369 -1.0523
 9496SOL     OW29343   4.524   3.330   7.200  0.0320  0.1782 -0.6911
 9496SOL    HW129344   4.544   3.267   7.130  0.9288  0.7958 -0.9989
 9496SOL    HW229345   4.606   3.339   7.248 -0.7186 -0.6687  0.8191
 9497SOL     OW29346   2.953   6.076   5.937 -0.2873 -0.5823  0.4551
 9497SOL    HW129347   3.012   6.007   5.967 -1.0671 -0.6936  1.7768
 9497SOL    HW229348   2.976   6.152   5.992 -1.6349 -0.7454  1.2714
 9498SOL     OW29349   2.027   7.987   0.027 -0.6159 -0.6242 -0.2269
 9498SOL    HW129350   2.069   7.971   0.112 -2.6068  0.1667  0.9695
 9498SOL    HW229351   2.027   7.902  -0.016 -0.4498 -1.2495  0.9708
 9499SOL     OW29352   3.107   6.955   5.111 -0.1563  0.5094 -0.4633
 9499SOL    HW129353   3.129   7.009   5.036 -0.1086  0.6644 -0.3383
 9499SOL    HW229354   3.126   7.010   5.187  3.9473 -1.0492 -0.1051
 9500SOL     OW29355   1.498   0.345   0.899 -0.4275 -0.0704  0.1395
 9500SOL    HW129356   1.412   0.380   0.875 -1.7991 -0.5866  3.7681
 9500SOL    HW229357   1.481   0.253   0.920  0.8518 -0.0381  1.4461
 9501SOL     OW29358   1.231   6.422   7.657 -0.0343  0.4265 -0.4543
 9501SOL    HW129359   1.219   6.482   7.731 -2.8768  0.6180 -0.9332
 9501SOL    HW229360   1.220   6.335   7.694 -0.8539  0.4909 -0.5331
 9502SOL     OW29361   6.018   5.930   2.832 -0.3003 -0.4261  0.0516
 9502SOL    HW129362   6.084   5.942   2.763  1.1787 -1.0847  1.2869
 9502SOL    HW229363   5.939   5.971   2.797 -0.1204 -2.2061 -2.7325
 9503SOL     OW29364   6.331   2.188   5.781  0.0822 -0.5491 -0.1213
 9503SOL    HW129365   6.261   2.173   5.844  1.2589  0.4980  1.5282
 9503SOL    HW229366   6.297   2.254   5.722  0.5860  2.2790  2.4677
 9504SOL     OW29367   5.611   1.701   6.295  0.4328  0.4860 -0.2984
 9504SOL    HW129368   5.604   1.687   6.390  0.3352  1.5154 -0.1374
 9504SOL    HW229369   5.648   1.619   6.261 -0.1156 -0.1294  0.5437
 9505SOL     OW29370   1.631   5.172   5.200  0.9732  0.1214 -0.3894
 9505SOL    HW129371   1.573   5.219   5.261  1.4655  0.8410 -0.4553
 9505SOL    HW229372   1.575   5.147   5.127  0.3425 -0.8705  0.4083
 9506SOL     OW29373   4.491   4.238   7.217 -1.1702 -0.5066  0.6049
 9506SOL    HW129374   4.514   4.276   7.301 -0.7975 -0.7573  0.6169
 9506SOL    HW229375   4.413   4.287   7.189 -1.8028 -0.9806  1.4794
 9507SOL     OW29376   1.613   2.085   4.205 -0.1026  0.1061  0.0238
 9507SOL    HW129377   1.565   2.143   4.264  0.9174  2.9103 -1.6746
 9507SOL    HW229378   1.557   2.079   4.127 -1.0354 -2.8325  0.7823
 9508SOL     OW29379   4.577   2.047   1.386 -0.5602 -0.1757 -0.1861
 9508SOL    HW129380   4.504   2.105   1.406 -0.5391 -0.8011  1.9714
 9508SOL    HW229381   4.554   1.964   1.428  0.1429 -1.2439 -1.8179
 9509SOL     OW29382   5.384   6.674   1.786 -0.0640 -0.0478 -0.5844
 9509SOL    HW129383   5.361   6.621   1.863 -1.2798  1.0943 -0.1321
 9509SOL    HW229384   5.475   6.651   1.768 -0.2273 -1.4710  0.2597
 9510SOL     OW29385   7.118   4.057   5.586  0.6966 -0.3481  0.2496
 9510SOL    HW129386   7.073   4.016   5.660 -0.6731 -0.4162 -0.5860
 9510SOL    HW229387   7.203   4.084   5.621  0.9212 -2.2376  1.3005
 9511SOL     OW29388   4.161   4.175   3.074  0.1555  0.3428 -0.4359
 9511SOL    HW129389   4.165   4.260   3.118  1.5147 -0.6779  1.5830
 9511SOL    HW229390   4.090   4.129   3.119 -1.4648  0.7823 -2.3930
 9512SOL     OW29391   1.457   4.659   6.284 -0.3487 -0.4488 -0.2447
 9512SOL    HW129392   1.463   4.751   6.256  0.8274 -0.1715  0.8040
 9512SOL    HW229393   1.397   4.661   6.359  2.8013  0.2486  2.4903
 9513SOL     OW29394   0.576   2.034   5.562  0.3878 -0.0382  0.0706
 9513SOL    HW129395   0.530   1.974   5.503  0.5854  0.9218 -1.0868
 9513SOL    HW229396   0.508   2.095   5.591  0.7629  1.0673 -1.2389
 9514SOL     OW29397   1.211   5.466   6.331  0.3606  0.3279 -0.2982
 9514SOL    HW129398   1.222   5.380   6.289 -0.1084 -0.0279  0.3017
 9514SOL    HW229399   1.243   5.528   6.265 -1.0301 -0.1641 -1.4948
 9515SOL     OW29400   6.327   5.164   2.426 -0.0499 -0.3937 -0.4479
 9515SOL    HW129401   6.399   5.199   2.478 -0.7244  1.6307 -0.7545
 9515SOL    HW229402   6.369   5.130   2.347  0.5287  1.8666 -1.1844
 9516SOL     OW29403   4.367   2.541   7.840 -0.4765 -0.1436 -0.3264
 9516SOL    HW129404   4.362   2.586   7.756  0.4659  0.3834 -0.1127
 9516SOL    HW229405   4.289   2.486   7.843 -0.1127 -0.7783 -1.8962
 9517SOL     OW29406   6.285   3.420   4.653  0.4310 -0.3627 -0.5683
 9517SOL    HW129407   6.230   3.496   4.670  0.3120 -0.6784  0.5305
 9517SOL    HW229408   6.360   3.432   4.712  0.2724 -1.2339 -0.1833
 9518SOL     OW29409   3.024   5.161   5.991 -0.6624 -0.0682 -0.2806
 9518SOL    HW129410   3.075   5.197   6.064 -1.5104 -0.7002  0.6478
 9518SOL    HW229411   2.933   5.163   6.021 -0.9953 -0.6792 -1.1854
 9519SOL     OW29412   0.019   0.311   1.336  0.2556  0.3440 -0.3155
 9519SOL    HW129413  -0.018   0.350   1.257 -0.7436  0.5998  0.2562
 9519SOL    HW229414  -0.022   0.359   1.408  0.3701 -0.5630  0.3804
 9520SOL     OW29415   2.438   2.428   3.115  0.1380  0.3912 -0.5132
 9520SOL    HW129416   2.518   2.397   3.074  0.8416 -0.7489  1.5559
 9520SOL    HW229417   2.436   2.522   3.097  1.6932  0.3463 -1.0203
 9521SOL     OW29418   0.864   4.282   3.597  0.2778  0.1752 -0.1870
 9521SOL    HW129419   0.796   4.347   3.613 -0.6107 -0.8497  0.3219
 9521SOL    HW229420   0.894   4.301   3.508 -1.0866  0.2802 -0.6514
 9522SOL     OW29421   0.336   5.153   3.328 -0.0904 -0.3755  0.2348
 9522SOL    HW129422   0.402   5.188   3.268 -2.5792  0.6069 -2.1506
 9522SOL    HW229423   0.288   5.088   3.276 -3.6827  1.9789  0.2694
 9523SOL     OW29424   2.732   3.274   6.095 -0.3319  0.1661  0.0639
 9523SOL    HW129425   2.735   3.347   6.033  1.0493 -0.4726 -0.6667
 9523SOL    HW229426   2.730   3.315   6.181 -3.0621  1.0861 -0.3567
 9524SOL     OW29427   2.127   5.577   0.346 -0.4739 -0.2696  0.2378
 9524SOL    HW129428   2.069   5.533   0.284 -2.2556  2.0336  0.1280
 9524SOL    HW229429   2.189   5.625   0.290  2.0998 -3.1572  0.3446
 9525SOL     OW29430   5.648   4.886   4.137  0.1784  0.5861 -0.2674
 9525SOL    HW129431   5.727   4.883   4.083  0.4953  1.0250  0.1668
 9525SOL    HW229432   5.586   4.828   4.092  0.9788 -0.3167 -0.2488
 9526SOL     OW29433   3.523   1.819   6.802  0.0032 -0.3414 -0.5146
 9526SOL    HW129434   3.576   1.870   6.864 -1.0523 -0.0493  0.1830
 9526SOL    HW229435   3.582   1.751   6.770  1.2678  0.9329 -0.9848
 9527SOL     OW29436   0.910   3.200   5.191 -0.0522  0.0203  0.3140
 9527SOL    HW129437   0.984   3.140   5.194  0.6550  0.8895  1.6692
 9527SOL    HW229438   0.876   3.193   5.102  1.7060 -0.3482 -0.3612
 9528SOL     OW29439   0.600   5.739   3.009 -0.7663  0.1150 -0.0481
 9528SOL    HW129440   0.579   5.757   3.101  0.5969  2.2927 -0.0698
 9528SOL    HW229441   0.693   5.715   3.010  0.3078  3.5935 -1.0591
 9529SOL     OW29442   5.799   6.794   6.269  0.4600  0.2255 -0.2998
 9529SOL    HW129443   5.818   6.798   6.362 -0.0664  0.5581 -0.2027
 9529SOL    HW229444   5.712   6.755   6.263  1.8857 -3.3166 -0.8324
 9530SOL     OW29445   4.577   1.658   2.248 -0.3770  0.1384  1.0322
 9530SOL    HW129446   4.669   1.649   2.225 -0.5152  0.0917  0.4904
 9530SOL    HW229447   4.573   1.636   2.341 -0.1054 -1.5412  0.6655
 9531SOL     OW29448   6.334   5.982   4.448 -0.2314 -0.9522  0.7542
 9531SOL    HW129449   6.304   6.033   4.523  0.4424  0.1240  0.3147
 9531SOL    HW229450   6.386   6.043   4.396 -3.4227 -0.5934 -2.4066
 9532SOL     OW29451   7.909   5.609   2.462  0.1689  0.0864  0.0495
 9532SOL    HW129452   7.820   5.636   2.480 -0.0540 -1.0365  0.7696
 9532SOL    HW229453   7.901   5.517   2.434  0.9604  0.4159 -1.3551
 9533SOL     OW29454   4.894   5.469   3.677  0.1527 -0.0015  0.0444
 9533SOL    HW129455   4.989   5.456   3.672  0.5510  2.6495 -0.6814
 9533SOL    HW229456   4.879   5.554   3.636 -2.4793 -0.0363  0.7642
 9534SOL     OW29457   2.941   0.387   5.320 -0.1927 -0.0293 -0.1480
 9534SOL    HW129458   2.928   0.347   5.407  2.1729  0.2964  0.4326
 9534SOL    HW229459   2.979   0.473   5.339  0.7599 -0.1159 -1.4874
 9535SOL     OW29460   4.657   3.680   3.955  0.7516 -0.1141 -0.7549
 9535SOL    HW129461   4.656   3.750   3.890  0.4703  0.8984  0.3009
 9535SOL    HW229462   4.570   3.640   3.950  0.4981  0.3991 -0.5592
 9536SOL     OW29463   1.853   4.887   1.393 -0.1573  0.8188 -0.2268
 9536SOL    HW129464   1.789   4.849   1.334 -0.9413 -0.1526  1.1762
 9536SOL    HW229465   1.858   4.825   1.466  0.1260  2.3560  1.1241
 9537SOL     OW29466   4.478   6.142   0.978 -0.6453  0.1896 -0.1788
 9537SOL    HW129467   4.457   6.048   0.975  0.8484 -0.1731  0.0095
 9537SOL    HW229468   4.567   6.148   0.942  0.1247  1.2671  1.7447
 9538SOL     OW29469   7.749   6.994   1.646  0.0452 -0.5291  0.2961
 9538SOL    HW129470   7.788   6.943   1.717 -1.2438 -0.3614  1.1749
 9538SOL    HW229471   7.800   7.075   1.645  0.4550 -0.7729  0.6397
 9539SOL     OW29472   3.660   3.895   6.823 -0.4020 -0.5120 -0.2322
 9539SOL    HW129473   3.590   3.917   6.761  0.3224  1.0210 -0.5617
 9539SOL    HW229474   3.628   3.926   6.907  0.6139  2.0331 -0.6943
 9540SOL     OW29475   0.585   2.099   7.301 -0.0365  0.2127 -0.2571
 9540SOL    HW129476   0.614   2.162   7.235  1.2924  0.0230  0.1295
 9540SOL    HW229477   0.665   2.058   7.333 -0.7505 -0.5017  0.6804
 9541SOL     OW29478   7.330   1.800   1.179  0.0141 -0.0799 -0.3165
 9541SOL    HW129479   7.248   1.813   1.131 -0.3447 -1.1774 -0.0262
 9541SOL    HW229480   7.341   1.705   1.183 -0.3580 -0.0950  2.4211
 9542SOL     OW29481   4.768   5.449   7.073 -0.3536 -0.0534 -0.5016
 9542SOL    HW129482   4.704   5.400   7.124 -0.1385  0.0004 -0.1781
 9542SOL    HW229483   4.853   5.422   7.108 -0.2386  0.7284 -0.1418
 9543SOL     OW29484   5.440   4.754   7.165  0.1771  0.1147  0.2389
 9543SOL    HW129485   5.451   4.717   7.077  0.4556 -1.1429  0.7837
 9543SOL    HW229486   5.529   4.757   7.201  0.0193  0.2623  0.6176
 9544SOL     OW29487   0.748   3.197   4.975 -0.3541  0.5271  0.2320
 9544SOL    HW129488   0.667   3.247   4.986 -0.8795 -0.1307 -0.5070
 9544SOL    HW229489   0.731   3.141   4.899  0.4229 -0.3532  0.6867
 9545SOL     OW29490   5.728   7.082   0.909  0.0949 -0.1512  0.0434
 9545SOL    HW129491   5.674   7.017   0.864  0.1142 -0.0555 -0.1217
 9545SOL    HW229492   5.748   7.147   0.841  0.6693 -0.3411  0.0233
 9546SOL     OW29493   6.728   7.647   1.836  0.2857  0.0688 -0.3435
 9546SOL    HW129494   6.806   7.689   1.799  1.7256 -0.7900  1.5706
 9546SOL    HW229495   6.710   7.574   1.778  2.2679 -1.0281  0.3328
 9547SOL     OW29496   1.356   3.304   6.290 -0.4039 -0.4110  0.4805
 9547SOL    HW129497   1.392   3.220   6.262  1.7234  0.5640  0.0658
 9547SOL    HW229498   1.371   3.306   6.384  0.6591 -0.0232  0.3141
 9548SOL     OW29499   2.795   2.945   3.037  0.1761 -0.5616 -0.1828
 9548SOL    HW129500   2.773   2.993   2.957  0.8537  2.1572  1.1615
 9548SOL    HW229501   2.710   2.925   3.077 -0.1195 -0.0529 -0.5419
 9549SOL     OW29502   6.825   7.422   5.272 -0.1415  0.1657 -0.1060
 9549SOL    HW129503   6.802   7.410   5.180 -0.8804  1.1663 -0.0614
 9549SOL    HW229504   6.856   7.336   5.300  0.8418  0.0422 -1.4900
 9550SOL     OW29505   7.728   3.907   2.599 -0.3734 -0.5959  0.1917
 9550SOL    HW129506   7.704   3.998   2.578 -0.3714 -0.3709  1.1045
 9550SOL    HW229507   7.789   3.882   2.530  0.9541  0.6995  0.8411
 9551SOL     OW29508   6.476   3.919   5.758 -0.5837  0.1452  0.4650
 9551SOL    HW129509   6.466   3.868   5.838 -0.9274 -0.5821 -0.0265
 9551SOL    HW229510   6.387   3.933   5.727 -0.5143  1.3961  0.7990
 9552SOL     OW29511   6.443   0.147   1.854 -0.0831 -0.3635  0.4371
 9552SOL    HW129512   6.372   0.179   1.799  0.3476  1.2354  0.7612
 9552SOL    HW229513   6.416   0.059   1.879 -1.6943  0.0120  0.1346
 9553SOL     OW29514   3.705   2.866   2.833  0.0788 -0.0323 -0.1054
 9553SOL    HW129515   3.664   2.780   2.820  0.9142 -0.2659 -1.3370
 9553SOL    HW229516   3.640   2.916   2.883 -1.2020 -0.7746 -0.9646
 9554SOL     OW29517   6.001   6.995   0.731  0.1020 -0.0425 -0.1536
 9554SOL    HW129518   5.962   7.038   0.656 -1.1677 -1.2638 -0.2295
 9554SOL    HW229519   6.063   6.931   0.694  1.0959  0.8420 -0.0726
 9555SOL     OW29520   0.129   2.990   2.432  0.2245  0.7675 -0.2429
 9555SOL    HW129521   0.066   3.050   2.471 -0.0712  0.1226  0.2936
 9555SOL    HW229522   0.111   2.993   2.338 -1.7123 -0.6347  0.0437
 9556SOL     OW29523   6.985   2.888   7.393  0.0290 -0.5752 -0.1255
 9556SOL    HW129524   6.966   2.863   7.302  1.9054  1.6611 -1.2455
 9556SOL    HW229525   6.905   2.932   7.423  0.8371  2.9586 -2.4888
 9557SOL     OW29526   4.771   1.257   5.619 -0.0152  0.1294  0.3321
 9557SOL    HW129527   4.685   1.252   5.577  0.7396 -0.7425 -1.1887
 9557SOL    HW229528   4.808   1.170   5.608  1.5950  0.8463 -0.2030
 9558SOL     OW29529   3.310   7.411   0.186  0.0047 -0.3028 -0.6980
 9558SOL    HW129530   3.281   7.495   0.150  0.7249  0.7946  1.1497
 9558SOL    HW229531   3.306   7.350   0.112  1.2705  1.7771 -2.5927
 9559SOL     OW29532   6.870   4.569   6.235 -0.2483 -0.5926  0.0464
 9559SOL    HW129533   6.907   4.513   6.167  0.1774  0.6659 -0.7866
 9559SOL    HW229534   6.868   4.657   6.197  0.6301  0.2866  1.8788
 9560SOL     OW29535   2.947   7.754   4.131  0.0632 -0.2747 -0.0753
 9560SOL    HW129536   2.959   7.773   4.037  1.5016  0.6712  0.2633
 9560SOL    HW229537   2.959   7.660   4.138  0.4583 -0.2839 -0.7730
 9561SOL     OW29538   0.831   1.493   2.784  0.5313  0.1322  0.3401
 9561SOL    HW129539   0.757   1.479   2.724  0.8758  0.7347 -0.2299
 9561SOL    HW229540   0.812   1.435   2.858  0.4255 -1.1206 -0.6276
 9562SOL     OW29541   7.217   0.716   4.907  0.2033 -0.0821  0.0758
 9562SOL    HW129542   7.310   0.732   4.926 -0.4838  2.0547  2.0891
 9562SOL    HW229543   7.183   0.678   4.988 -0.5292 -1.8819 -1.0134
 9563SOL     OW29544   2.138   7.968   7.592 -0.0346  0.4357  0.2960
 9563SOL    HW129545   2.100   8.003   7.673  1.4672  2.4830  0.1705
 9563SOL    HW229546   2.111   7.876   7.592 -0.3460  0.4402  2.9512
 9564SOL     OW29547   5.359   4.985   7.280  0.3470  0.4518  0.4708
 9564SOL    HW129548   5.447   5.022   7.279  0.1670  0.9310 -1.2906
 9564SOL    HW229549   5.371   4.892   7.261  0.4395  0.6936 -0.7447
 9565SOL     OW29550   6.902   5.452   1.533 -0.6180 -0.1501  0.4334
 9565SOL    HW129551   6.904   5.505   1.613 -3.4126  0.8569 -0.0616
 9565SOL    HW229552   6.854   5.373   1.557 -0.8100 -0.1852 -0.0489
 9566SOL     OW29553   1.172   5.334   4.550  0.2392  0.3049  0.2239
 9566SOL    HW129554   1.204   5.424   4.548  0.3606  0.2532 -0.9394
 9566SOL    HW229555   1.247   5.282   4.577  0.0861  0.5776  1.1955
 9567SOL     OW29556   3.398   4.656   4.492  0.5574  0.4477 -0.0105
 9567SOL    HW129557   3.421   4.715   4.420  0.3058  0.5826  0.0190
 9567SOL    HW229558   3.388   4.571   4.450 -0.5752  0.7081 -0.3124
 9568SOL     OW29559   4.399   3.500   0.123  0.4393 -0.4935  0.0733
 9568SOL    HW129560   4.427   3.419   0.080  1.0139  0.3376 -1.1467
 9568SOL    HW229561   4.481   3.545   0.146  0.1159  0.0846  0.1024
 9569SOL     OW29562   2.798   1.976   2.352 -0.2101 -0.4910 -0.0884
 9569SOL    HW129563   2.757   1.953   2.436  0.4438 -2.3797 -0.2290
 9569SOL    HW229564   2.731   1.958   2.287 -0.0725 -0.9260 -0.1119
 9570SOL     OW29565   0.402   1.253   5.774 -0.3997  0.5992  0.3236
 9570SOL    HW129566   0.364   1.165   5.779 -1.0716  0.7422 -1.4243
 9570SOL    HW229567   0.350   1.298   5.708  0.7868  1.8799  0.2073
 9571SOL     OW29568   0.278   6.646   7.183 -0.6872 -0.2663  0.3301
 9571SOL    HW129569   0.221   6.612   7.113 -1.3067  0.3702  0.5166
 9571SOL    HW229570   0.335   6.709   7.139  0.5823 -1.6188 -0.0498
 9572SOL     OW29571   0.017   1.238   5.854  0.9051 -0.0920 -0.4794
 9572SOL    HW129572   0.090   1.216   5.797  0.6637  1.3206 -1.3616
 9572SOL    HW229573  -0.049   1.170   5.836  2.2763 -1.9094  0.9828
 9573SOL     OW29574   0.854   4.804   5.520 -0.1832 -0.4682 -0.0403
 9573SOL    HW129575   0.778   4.836   5.569  0.1526  2.4214 -1.1923
 9573SOL    HW229576   0.929   4.837   5.569  0.2085  0.1796 -1.0516
 9574SOL     OW29577   6.876   3.462   3.230 -0.0956  0.5952 -0.3653
 9574SOL    HW129578   6.916   3.451   3.316  0.2778  0.4853 -0.5497
 9574SOL    HW229579   6.850   3.554   3.227  0.2241  0.6907 -0.2730
 9575SOL     OW29580   7.128   6.890   4.999  0.1293 -0.2805 -0.4442
 9575SOL    HW129581   7.150   6.949   4.927  0.9004  0.5400  0.4557
 9575SOL    HW229582   7.122   6.803   4.957 -0.6359  0.3474 -1.7033
 9576SOL     OW29583   7.676   3.521   5.312  0.0751 -0.0245  0.3403
 9576SOL    HW129584   7.665   3.547   5.403 -1.7720 -0.3367  0.2513
 9576SOL    HW229585   7.621   3.582   5.262 -0.8265 -1.3032 -0.2996
 9577SOL     OW29586   0.391   7.166   3.715  0.5578 -0.3991  0.1166
 9577SOL    HW129587   0.465   7.113   3.686 -0.4984 -2.4983  1.0255
 9577SOL    HW229588   0.407   7.181   3.808  0.8414  0.9204 -0.1317
 9578SOL     OW29589   0.474   1.692   2.263 -0.4376 -0.4563 -0.9738
 9578SOL    HW129590   0.502   1.727   2.179 -0.6304 -0.3276 -0.9860
 9578SOL    HW229591   0.490   1.598   2.258 -0.9749 -0.5329 -1.3677
 9579SOL     OW29592   1.736   5.332   3.548 -0.2533  0.3538  0.1456
 9579SOL    HW129593   1.823   5.294   3.541  0.5137  1.7225  1.6697
 9579SOL    HW229594   1.678   5.258   3.566  0.9637 -0.3066  1.5250
 9580SOL     OW29595   6.874   4.001   4.481  0.0034 -0.3593  0.4655
 9580SOL    HW129596   6.784   4.028   4.497 -0.1390 -0.7359  0.3135
 9580SOL    HW229597   6.893   3.938   4.550  0.5407  0.5801  1.1875
 9581SOL     OW29598   1.657   5.713   4.247 -0.1974 -0.0577  0.0447
 9581SOL    HW129599   1.711   5.743   4.321 -0.7368 -0.6949  0.7134
 9581SOL    HW229600   1.720   5.671   4.188  0.1222 -0.3620  0.5819
 9582SOL     OW29601   3.088   3.466   0.588  0.5149  0.4730  0.1998
 9582SOL    HW129602   3.005   3.492   0.629 -0.2913  1.1784 -1.7172
 9582SOL    HW229603   3.118   3.546   0.544  0.6570 -0.4910 -1.5693
 9583SOL     OW29604   3.552   6.458   3.586  0.0967  0.1334  0.1124
 9583SOL    HW129605   3.564   6.514   3.510  1.5429  0.7320  0.7366
 9583SOL    HW229606   3.496   6.510   3.645 -0.1885  0.0932 -0.1217
 9584SOL     OW29607   2.873   4.163   3.637 -0.1144 -0.1621 -0.0285
 9584SOL    HW129608   2.962   4.164   3.673 -0.3094  1.6585  0.4833
 9584SOL    HW229609   2.836   4.080   3.667  1.1614 -0.6278  0.3370
 9585SOL     OW29610   7.973   0.321   3.080  0.1433  0.1739  0.1180
 9585SOL    HW129611   8.015   0.403   3.108  0.1428 -0.1462  1.1092
 9585SOL    HW229612   8.021   0.253   3.127 -1.6045 -0.1877  1.5033
 9586SOL     OW29613   4.700   5.135   3.851  0.7249 -0.2096  0.2563
 9586SOL    HW129614   4.789   5.156   3.821  0.8108  0.8798  1.2125
 9586SOL    HW229615   4.713   5.067   3.918  0.6264 -1.7194 -1.1791
 9587SOL     OW29616   3.912   7.810   3.593  0.2234 -0.1477 -0.5512
 9587SOL    HW129617   3.934   7.725   3.632  2.0921  0.3559 -0.4070
 9587SOL    HW229618   3.994   7.859   3.595 -0.9725  1.9323 -0.0091
 9588SOL     OW29619   0.757   7.185   5.091  0.3584  0.0138  0.1064
 9588SOL    HW129620   0.823   7.234   5.140 -0.9028 -0.3739  2.3389
 9588SOL    HW229621   0.744   7.105   5.141 -2.2433  0.3680  0.1328
 9589SOL     OW29622   6.334   6.356   6.322  0.8017  0.3746  0.4848
 9589SOL    HW129623   6.268   6.348   6.253 -0.3722  0.3599  1.5653
 9589SOL    HW229624   6.389   6.278   6.313 -1.5884 -1.6201  1.8059
 9590SOL     OW29625   7.326   6.482   0.476  0.2825  0.0154 -0.4749
 9590SOL    HW129626   7.296   6.432   0.400  0.7987  0.3793 -0.9224
 9590SOL    HW229627   7.246   6.506   0.522 -0.0875  0.5547 -1.3855
 9591SOL     OW29628   0.667   2.324   2.276  0.6110 -0.2335 -0.4775
 9591SOL    HW129629   0.683   2.349   2.367 -1.1042  0.1717 -0.2521
 9591SOL    HW229630   0.575   2.347   2.261  1.1645  0.7287 -2.6582
 9592SOL     OW29631   5.361   5.660   1.078 -0.0189  0.1779 -0.2681
 9592SOL    HW129632   5.452   5.666   1.108  0.1308  0.4494 -0.7643
 9592SOL    HW229633   5.316   5.609   1.146  0.6101 -0.3754 -0.2566
 9593SOL     OW29634   4.329   5.658   7.228 -0.2556 -0.5393  0.0551
 9593SOL    HW129635   4.236   5.642   7.212 -0.2639 -1.8387  1.1888
 9593SOL    HW229636   4.354   5.724   7.164 -1.7133 -0.9257 -0.9549
 9594SOL     OW29637   0.614   6.832   3.555  0.0627 -0.0028  0.0199
 9594SOL    HW129638   0.521   6.856   3.557 -0.1312 -0.6208 -0.8352
 9594SOL    HW229639   0.656   6.901   3.504  0.2899  0.8964  1.3700
 9595SOL     OW29640   3.777   3.787   2.714  0.0611  0.2625 -0.4099
 9595SOL    HW129641   3.861   3.763   2.675  0.4562 -0.5810  0.8924
 9595SOL    HW229642   3.800   3.844   2.787 -0.4003 -0.8022  0.5930
 9596SOL     OW29643   1.852   3.435   7.139  0.5276 -0.1736 -0.1273
 9596SOL    HW129644   1.769   3.473   7.166  0.9728 -0.2359  1.4269
 9596SOL    HW229645   1.886   3.495   7.073  0.2351  0.9974  0.7531
 9597SOL     OW29646   3.059   6.502   0.135  0.0959 -0.2870 -0.2330
 9597SOL    HW129647   3.095   6.440   0.072  0.3109 -0.5963  0.1858
 9597SOL    HW229648   3.092   6.587   0.106  0.3491 -0.4494 -0.4319
 9598SOL     OW29649   6.017   4.568   3.617  0.0309 -0.0881  0.3011
 9598SOL    HW129650   6.086   4.558   3.552 -1.9198 -0.9384 -1.7604
 9598SOL    HW229651   6.044   4.511   3.689  1.4296 -0.4441 -0.4697
 9599SOL     OW29652   0.996   0.513   1.677  0.7270 -0.1625 -0.0910
 9599SOL    HW129653   0.932   0.453   1.714  0.2320 -0.8705 -1.9730
 9599SOL    HW229654   0.983   0.506   1.582  0.6539  2.9279 -0.3986
 9600SOL     OW29655   0.697   1.040   4.814  0.1878 -0.7009 -0.0405
 9600SOL    HW129656   0.682   1.134   4.801 -1.2761 -0.9331 -0.1718
 9600SOL    HW229657   0.782   1.035   4.858 -0.3256  0.7644  1.2085
 9601SOL     OW29658   1.819   4.518   3.411 -0.0488 -0.0389 -0.0858
 9601SOL    HW129659   1.771   4.525   3.493 -2.0252  0.3669 -1.2271
 9601SOL    HW229660   1.838   4.608   3.386 -1.0862 -0.0494 -0.9710
 9602SOL     OW29661   0.961   7.950   5.149  0.3968 -0.3304  0.0043
 9602SOL    HW129662   0.940   7.955   5.242  0.5324  1.2663 -0.0282
 9602SOL    HW229663   0.902   8.013   5.108  1.4469  0.1872 -0.7678
 9603SOL     OW29664   0.666   3.327   6.267  0.7350 -0.1176  0.0422
 9603SOL    HW129665   0.689   3.419   6.250  0.8554 -0.5001 -2.1353
 9603SOL    HW229666   0.579   3.317   6.228  0.6470 -0.8804  0.4187
 9604SOL     OW29667   2.381   7.768   1.615  0.0071 -0.6870 -0.0614
 9604SOL    HW129668   2.345   7.749   1.702  0.8666 -2.3750 -0.0275
 9604SOL    HW229669   2.428   7.850   1.626 -1.1022 -0.1187  0.6818
 9605SOL     OW29670   1.087   2.892   0.767 -0.2036  0.4193  0.0021
 9605SOL    HW129671   1.025   2.882   0.696  0.1196 -1.8430 -0.0477
 9605SOL    HW229672   1.148   2.819   0.756  0.9216  1.0608  1.5483
 9606SOL     OW29673   1.954   4.006   0.027 -0.3565 -0.2160  0.0581
 9606SOL    HW129674   1.863   4.036   0.025  0.0265  0.9893  0.0138
 9606SOL    HW229675   1.982   4.010  -0.065 -0.7172 -2.1184 -0.1745
 9607SOL     OW29676   6.131   5.409   4.715 -0.4215  0.0304 -0.1298
 9607SOL    HW129677   6.041   5.413   4.747 -0.3172 -1.0515  0.3337
 9607SOL    HW229678   6.177   5.475   4.765 -0.9702  0.6546 -0.4317
 9608SOL     OW29679   5.812   1.470   6.445  0.0864  0.6716 -0.3097
 9608SOL    HW129680   5.767   1.535   6.499 -0.3611  1.7719 -1.9278
 9608SOL    HW229681   5.859   1.522   6.380 -1.5548 -0.6082 -2.6600
 9609SOL     OW29682   2.265   3.930   7.336  0.0111  0.0231  0.2888
 9609SOL    HW129683   2.268   3.919   7.241  0.3064 -0.9851  0.4031
 9609SOL    HW229684   2.328   3.867   7.370  0.2969  0.7467  1.1343
 9610SOL     OW29685   3.993   6.093   4.961 -0.7508 -0.2140  0.3102
 9610SOL    HW129686   3.930   6.156   4.996  0.2373  1.2394 -0.4439
 9610SOL    HW229687   4.012   6.035   5.035  0.4538  2.0952  1.9437
 9611SOL     OW29688   5.613   6.512   4.731 -0.5188 -1.0559 -0.1411
 9611SOL    HW129689   5.687   6.555   4.689 -1.3129  0.0213 -0.4606
 9611SOL    HW229690   5.598   6.433   4.678 -1.0503 -0.0927 -1.4666
 9612SOL     OW29691   2.495   3.546   3.585 -0.6247 -0.2845 -0.0299
 9612SOL    HW129692   2.400   3.533   3.582 -0.9529  1.2078  1.7316
 9612SOL    HW229693   2.508   3.609   3.656  1.7266 -0.7483  0.0407
 9613SOL     OW29694   0.692   0.875   7.729  0.4745 -0.3382 -0.1056
 9613SOL    HW129695   0.708   0.846   7.819 -1.2264 -1.0573 -0.0065
 9613SOL    HW229696   0.764   0.936   7.710  0.6034  0.1877  1.8989
 9614SOL     OW29697   6.692   2.106   3.617 -0.8963 -0.2329 -0.0919
 9614SOL    HW129698   6.720   2.020   3.647  0.5185  0.8419  1.9097
 9614SOL    HW229699   6.610   2.121   3.664 -0.2040  0.2312  0.9961
 9615SOL     OW29700   6.530   3.897   7.983 -0.0531  0.0471  0.3036
 9615SOL    HW129701   6.573   3.966   8.034  1.5925  0.1092 -1.0517
 9615SOL    HW229702   6.550   3.919   7.892 -2.0942 -0.5716 -0.3477
 9616SOL     OW29703   5.947   3.015   4.247  0.5573 -0.3861  0.1825
 9616SOL    HW129704   5.990   2.960   4.312  0.4772 -1.3349 -0.5491
 9616SOL    HW229705   5.968   2.974   4.163 -2.6945 -1.6137 -0.1723
 9617SOL     OW29706   4.923   6.954   7.769  0.2004 -0.1117 -0.4241
 9617SOL    HW129707   4.873   7.012   7.712 -0.8121  0.0609  0.5985
 9617SOL    HW229708   4.987   6.913   7.711 -0.7028  0.1409 -1.6503
 9618SOL     OW29709   6.348   2.551   6.744  0.6557  0.3990 -0.0995
 9618SOL    HW129710   6.323   2.610   6.673  0.7890 -0.4000 -0.8280
 9618SOL    HW229711   6.378   2.609   6.814  0.3571  1.2070 -0.6242
 9619SOL     OW29712   0.830   6.687   0.347  0.2333  0.6600  0.4771
 9619SOL    HW129713   0.823   6.695   0.442 -0.1458  1.5373  0.3883
 9619SOL    HW229714   0.744   6.713   0.314 -1.4491 -4.2860  0.0630
 9620SOL     OW29715   3.582   7.890   7.407  0.1987  0.0315  0.1890
 9620SOL    HW129716   3.648   7.843   7.458  0.6484  0.5247  0.0621
 9620SOL    HW229717   3.518   7.822   7.383  0.8633 -0.5303 -0.0284
 9621SOL     OW29718   6.721   2.977   7.374  0.0485 -0.1253  0.5397
 9621SOL    HW129719   6.710   2.896   7.422  1.2317 -0.1983  0.7307
 9621SOL    HW229720   6.642   2.985   7.320 -0.6983 -0.6954  1.5243
 9622SOL     OW29721   7.122   4.694   2.864 -0.0361  0.3810 -0.3356
 9622SOL    HW129722   7.073   4.693   2.782  0.6705  0.6879 -0.7666
 9622SOL    HW229723   7.214   4.694   2.838  0.2699  3.5011  0.3628
 9623SOL     OW29724   5.222   3.883   1.105  0.4376  0.5233  0.5420
 9623SOL    HW129725   5.139   3.926   1.085 -0.3085 -0.0954  2.1218
 9623SOL    HW229726   5.232   3.816   1.037  0.0722  1.1688 -0.1509
 9624SOL     OW29727   5.902   4.069   7.039 -0.0231  0.0743 -0.2411
 9624SOL    HW129728   5.913   3.974   7.040 -1.2867 -0.0878  0.6030
 9624SOL    HW229729   5.972   4.100   6.982  1.7619 -1.1560  1.1571
 9625SOL     OW29730   4.692   1.979   3.792 -0.5436 -0.6637 -0.0178
 9625SOL    HW129731   4.738   1.995   3.874 -1.7749 -1.4893  0.8844
 9625SOL    HW229732   4.623   1.916   3.816  1.0649 -3.5741 -2.3079
 9626SOL     OW29733   1.135   4.416   2.229  0.1215  1.0708 -0.1514
 9626SOL    HW129734   1.229   4.421   2.245 -0.0040  0.7541  0.7476
 9626SOL    HW229735   1.125   4.340   2.172  0.4846  1.6103 -0.9473
 9627SOL     OW29736   2.438   7.498   0.513 -0.4482 -0.3676  0.4071
 9627SOL    HW129737   2.436   7.593   0.500 -0.2037 -0.5465 -1.1566
 9627SOL    HW229738   2.519   7.481   0.562  1.0104  0.0037 -1.7547
 9628SOL     OW29739   1.971   7.890   3.836 -0.0268 -0.2822  0.0975
 9628SOL    HW129740   1.882   7.925   3.826  0.3687  0.6505 -0.3017
 9628SOL    HW229741   1.964   7.830   3.910 -1.1893 -0.9335 -0.5119
 9629SOL     OW29742   2.596   2.758   6.668 -0.0550 -0.1160 -0.0226
 9629SOL    HW129743   2.684   2.794   6.672  0.6912 -1.8215 -0.2685
 9629SOL    HW229744   2.542   2.828   6.632  0.7027  1.8118  2.2970
 9630SOL     OW29745   4.970   2.567   1.707 -0.4409 -0.7320  0.2066
 9630SOL    HW129746   5.009   2.521   1.633  0.5881 -0.0178  0.2858
 9630SOL    HW229747   4.960   2.499   1.774  1.9212 -0.7118  0.6554
 9631SOL     OW29748   0.224   0.880   5.326  0.4544 -0.1121  0.0839
 9631SOL    HW129749   0.234   0.910   5.235 -1.1059 -0.4674 -0.2353
 9631SOL    HW229750   0.190   0.791   5.318 -0.1602  0.0281  1.0099
 9632SOL     OW29751   1.162   2.216   3.494 -0.2728 -0.2975  0.2249
 9632SOL    HW129752   1.078   2.178   3.518  0.4739 -0.8957  1.9870
 9632SOL    HW229753   1.228   2.163   3.539  1.0393  0.4561 -0.7112
 9633SOL     OW29754   5.283   2.692   7.324  0.0371 -0.0497 -0.2089
 9633SOL    HW129755   5.193   2.668   7.348  0.1165  0.3499  0.5450
 9633SOL    HW229756   5.323   2.717   7.407  1.3636 -1.7928 -0.2804
 9634SOL     OW29757   1.989   3.723   7.452  0.0261 -0.2758  0.1251
 9634SOL    HW129758   2.048   3.714   7.378 -1.2447  1.4447 -1.1843
 9634SOL    HW229759   1.910   3.676   7.426 -0.6121  0.7596  0.1462
 9635SOL     OW29760   3.969   6.295   2.008 -0.0752  0.0439  0.4198
 9635SOL    HW129761   3.915   6.230   2.053  1.9292 -2.7138 -0.8825
 9635SOL    HW229762   4.055   6.288   2.050  0.3279  1.5609 -0.0766
 9636SOL     OW29763   2.135   4.299   1.343  0.3494 -0.5224  0.0649
 9636SOL    HW129764   2.094   4.285   1.258 -3.6530  0.5378  1.6032
 9636SOL    HW229765   2.069   4.272   1.407  1.2839  2.9650  2.8492
 9637SOL     OW29766   7.315   7.175   2.017  0.2717  0.0941  0.1493
 9637SOL    HW129767   7.248   7.215   2.073 -0.5166 -1.9767  0.7915
 9637SOL    HW229768   7.270   7.161   1.934  0.9253  1.6145 -0.4857
 9638SOL     OW29769   7.769   4.248   6.976  0.2653  0.0944 -0.0130
 9638SOL    HW129770   7.812   4.293   6.904  1.9151  1.3070  1.6405
 9638SOL    HW229771   7.819   4.167   6.987  0.1871  0.0415 -0.0421
 9639SOL     OW29772   0.148   2.819   7.059  0.5434  0.2232 -0.0098
 9639SOL    HW129773   0.138   2.786   7.149 -2.7799 -1.8733 -0.9756
 9639SOL    HW229774   0.109   2.907   7.062  2.6449  1.1841  1.0134
 9640SOL     OW29775   3.147   3.155   0.143 -0.2441 -0.2018 -0.6355
 9640SOL    HW129776   3.209   3.162   0.071 -0.5051 -0.0856 -0.8521
 9640SOL    HW229777   3.193   3.193   0.218 -0.6517  1.4337 -1.1746
 9641SOL     OW29778   2.254   5.550   5.898  0.7190  0.1455  0.0273
 9641SOL    HW129779   2.211   5.621   5.851  1.9903  1.1546  0.3072
 9641SOL    HW229780   2.217   5.553   5.986 -1.4208 -1.5307 -0.7212
 9642SOL     OW29781   5.656   6.203   1.491  0.1623 -0.2764  0.5287
 9642SOL    HW129782   5.745   6.167   1.485  0.5788  0.7940  0.0556
 9642SOL    HW229783   5.648   6.260   1.416 -1.4274 -1.3467 -0.1745
 9643SOL     OW29784   4.427   4.799   6.658 -0.4659 -0.5216  0.1921
 9643SOL    HW129785   4.491   4.781   6.726 -0.3080  0.3258  0.2742
 9643SOL    HW229786   4.479   4.831   6.584 -0.8105  0.3607  0.3287
 9644SOL     OW29787   7.961   7.936   5.124  0.1150  0.3940  0.1549
 9644SOL    HW129788   7.916   7.988   5.057 -0.7711 -1.3492 -0.6591
 9644SOL    HW229789   7.891   7.912   5.185  0.4784  0.0083  0.4180
 9645SOL     OW29790   5.090   3.424   6.080  0.6994  0.3543 -0.1741
 9645SOL    HW129791   5.090   3.490   6.149  0.8267 -0.5661  0.7413
 9645SOL    HW229792   5.089   3.474   5.999 -1.7119  1.4835  0.4573
 9646SOL     OW29793   3.866   3.736   6.761  0.7440  0.2239 -0.2506
 9646SOL    HW129794   3.788   3.783   6.791  0.9314 -0.7936  2.0213
 9646SOL    HW229795   3.917   3.802   6.715 -0.2370  1.5685  0.4952
 9647SOL     OW29796   6.319   3.834   5.415  0.2830 -0.4557 -0.0128
 9647SOL    HW129797   6.266   3.849   5.493  1.0457 -1.5925  0.7716
 9647SOL    HW229798   6.354   3.920   5.393  0.1054 -0.1156  0.9605
 9648SOL     OW29799   6.597   6.932   5.860 -0.2698  0.2503 -0.3603
 9648SOL    HW129800   6.580   6.895   5.773  1.4396  0.0912 -0.6523
 9648SOL    HW229801   6.567   7.023   5.854  0.6952  0.5174 -1.4253
 9649SOL     OW29802   4.185   7.085   2.410 -0.0632 -0.3950 -0.3790
 9649SOL    HW129803   4.218   7.099   2.321  1.5106  0.0290  0.2433
 9649SOL    HW229804   4.202   7.167   2.456 -1.6336 -0.3077  0.1171
 9650SOL     OW29805   2.159   1.418   3.707 -0.3843 -0.0568 -0.6303
 9650SOL    HW129806   2.111   1.357   3.652 -2.0920  2.4367 -2.1067
 9650SOL    HW229807   2.244   1.428   3.664  0.1142 -1.6475 -0.0971
 9651SOL     OW29808   7.203   6.351   1.814 -0.3275  0.1521  0.1372
 9651SOL    HW129809   7.137   6.335   1.882 -0.8306  1.4881 -0.0050
 9651SOL    HW229810   7.279   6.300   1.841 -1.9124 -2.8184 -0.5334
 9652SOL     OW29811   4.664   0.408   1.409  0.6452 -0.2291  0.0775
 9652SOL    HW129812   4.597   0.429   1.344  0.0342  0.9216  1.0441
 9652SOL    HW229813   4.642   0.462   1.484  0.6745 -2.3449  1.6825
 9653SOL     OW29814   3.178   4.979   0.824 -0.0352 -0.3147 -0.2011
 9653SOL    HW129815   3.174   4.912   0.755 -2.4454 -0.5314  0.0535
 9653SOL    HW229816   3.210   4.932   0.901 -0.3747 -0.8664 -0.3853
 9654SOL     OW29817   5.731   3.295   7.417  0.2889 -0.0838 -0.2578
 9654SOL    HW129818   5.820   3.274   7.445  0.2275 -0.5210 -0.3859
 9654SOL    HW229819   5.677   3.226   7.456 -0.2412  1.1517  1.3120
 9655SOL     OW29820   0.080   1.419   0.786 -0.1637 -0.3512 -0.0046
 9655SOL    HW129821   0.084   1.493   0.725 -2.0643 -0.4745 -0.3213
 9655SOL    HW229822  -0.013   1.409   0.807  0.4588  0.4774  3.9280
 9656SOL     OW29823   5.026   0.108   7.496  0.2871 -0.2804 -0.2402
 9656SOL    HW129824   4.952   0.137   7.442 -2.1121 -0.5536  2.5932
 9656SOL    HW229825   5.029   0.013   7.483 -0.0307 -0.2960 -0.2261
 9657SOL     OW29826   3.956   1.528   2.560  1.0340 -0.1240 -0.3402
 9657SOL    HW129827   3.908   1.473   2.622  1.1179  0.4270  0.2252
 9657SOL    HW229828   3.947   1.483   2.476  0.0415 -0.3550 -0.1270
 9658SOL     OW29829   4.684   6.429   7.445  0.1928  0.1751 -0.1409
 9658SOL    HW129830   4.753   6.367   7.423  1.3752  1.4556 -0.2234
 9658SOL    HW229831   4.665   6.473   7.362 -1.6175 -0.9788 -0.3861
 9659SOL     OW29832   5.235   2.645   3.076 -0.3832 -0.2266  0.1358
 9659SOL    HW129833   5.194   2.608   2.998 -0.2022 -0.5904  0.2132
 9659SOL    HW229834   5.329   2.630   3.065 -0.3020  0.2411  0.1518
 9660SOL     OW29835   0.054   2.581   7.613 -0.3077 -0.0068  0.4808
 9660SOL    HW129836   0.030   2.612   7.700 -0.4257  1.9255 -0.1910
 9660SOL    HW229837  -0.030   2.559   7.572 -0.2383 -1.0966  0.8935
 9661SOL     OW29838   5.873   2.963   3.423  0.1947  0.0772  0.3654
 9661SOL    HW129839   5.825   3.043   3.447 -0.9020 -0.4743  0.0978
 9661SOL    HW229840   5.813   2.892   3.448  0.1095 -0.5819 -1.6008
 9662SOL     OW29841   2.240   4.419   3.728  0.0234 -0.1043 -0.4585
 9662SOL    HW129842   2.168   4.378   3.776 -1.9896  3.0462 -0.5518
 9662SOL    HW229843   2.267   4.493   3.782  1.9522 -0.0883 -1.3488
 9663SOL     OW29844   0.133   7.060   4.420 -0.5307  0.2761 -0.5416
 9663SOL    HW129845   0.169   7.111   4.492 -0.2945  0.6485 -0.9151
 9663SOL    HW229846   0.139   7.118   4.344  0.8485 -0.7072 -1.2285
 9664SOL     OW29847   1.582   7.616   6.524  0.2819 -0.2584 -0.1929
 9664SOL    HW129848   1.569   7.699   6.480  0.2336 -0.0535  0.2000
 9664SOL    HW229849   1.505   7.607   6.581  1.1324  0.2919  1.1069
 9665SOL     OW29850   2.659   1.611   3.979  0.6926  0.2440 -0.5367
 9665SOL    HW129851   2.722   1.548   4.013  0.1532  0.6077  1.2542
 9665SOL    HW229852   2.703   1.652   3.905  1.9869 -0.5124 -0.2122
 9666SOL     OW29853   2.663   5.783   6.390 -0.4811 -0.4970  0.5281
 9666SOL    HW129854   2.595   5.823   6.445  0.4879  0.3833  1.1444
 9666SOL    HW229855   2.658   5.831   6.308 -0.8407 -0.6799  0.4420
 9667SOL     OW29856   5.892   5.871   6.701  0.2179  0.5337  0.0811
 9667SOL    HW129857   5.823   5.868   6.767  0.1067  0.7770 -0.0254
 9667SOL    HW229858   5.900   5.781   6.670  1.3161  0.0778  1.5170
 9668SOL     OW29859   2.806   4.792   2.253  0.0959 -0.8542 -0.3129
 9668SOL    HW129860   2.736   4.835   2.205  1.2417 -0.3569 -1.5891
 9668SOL    HW229861   2.801   4.700   2.225 -0.1372 -0.8600 -0.2589
 9669SOL     OW29862   2.673   3.513   5.664 -0.5088  0.3558 -0.3640
 9669SOL    HW129863   2.728   3.576   5.712 -0.7596  0.5844 -0.3759
 9669SOL    HW229864   2.702   3.428   5.696 -0.3033  0.4838 -0.1997
 9670SOL     OW29865   4.778   4.976   4.592 -0.4043  0.1178 -0.7439
 9670SOL    HW129866   4.799   4.928   4.672 -0.3442 -1.2960 -1.5841
 9670SOL    HW229867   4.738   5.057   4.623  0.7021  0.1300  0.7357
 9671SOL     OW29868   1.469   4.186   3.507 -0.1544  0.2119 -0.0101
 9671SOL    HW129869   1.411   4.242   3.558  2.3495  0.8813  2.3062
 9671SOL    HW229870   1.454   4.098   3.542 -2.2341 -0.2790 -1.8996
 9672SOL     OW29871   0.584   4.318   2.038  0.2409 -0.0615 -0.3461
 9672SOL    HW129872   0.672   4.286   2.021 -0.3625 -2.0575  0.0042
 9672SOL    HW229873   0.526   4.255   1.995 -1.0426  0.2412  0.8546
 9673SOL     OW29874   4.006   3.252   1.039  0.2378  0.0678  0.2594
 9673SOL    HW129875   4.100   3.239   1.039  0.0607 -1.6319 -1.3375
 9673SOL    HW229876   3.982   3.257   0.946 -1.3486 -0.4271  0.6063
 9674SOL     OW29877   2.924   0.062   7.723 -0.6304  0.4297  0.1219
 9674SOL    HW129878   2.979   0.135   7.752  2.4947 -1.1183 -1.3878
 9674SOL    HW229879   2.926  -0.000   7.796  0.2992  0.0896 -0.1707
 9675SOL     OW29880   4.253   4.491   1.636 -0.1291  0.1475 -0.1706
 9675SOL    HW129881   4.341   4.526   1.649 -1.1197  2.4855  0.7813
 9675SOL    HW229882   4.246   4.420   1.700  0.5846  0.9111  0.7850
 9676SOL     OW29883   7.085   3.157   5.522 -0.3217  0.3191  0.7339
 9676SOL    HW129884   7.066   3.250   5.508 -0.0834  0.5210  1.6580
 9676SOL    HW229885   7.044   3.113   5.448 -2.0843  0.9969  1.2431
 9677SOL     OW29886   0.756   7.945   1.166 -0.1792 -0.3435  0.0984
 9677SOL    HW129887   0.716   8.005   1.228 -2.5329 -1.0138 -0.6612
 9677SOL    HW229888   0.709   7.862   1.178  0.4540 -0.9642 -1.3866
 9678SOL     OW29889   5.464   4.542   7.548  0.3735 -0.1509  0.2011
 9678SOL    HW129890   5.376   4.513   7.525 -0.3549  2.0230 -0.0314
 9678SOL    HW229891   5.486   4.495   7.628 -1.2580 -0.2823  0.5998
 9679SOL     OW29892   1.131   4.274   1.316 -0.2160  0.0469 -0.0445
 9679SOL    HW129893   1.222   4.256   1.292 -0.0518 -0.6579  1.0652
 9679SOL    HW229894   1.136   4.320   1.400 -0.9002 -0.3238  0.2069
 9680SOL     OW29895   1.429   0.556   5.117  0.0388 -0.2191 -0.2099
 9680SOL    HW129896   1.372   0.633   5.112  1.1476  0.5732 -1.4386
 9680SOL    HW229897   1.408   0.506   5.038  1.2282  0.2714 -0.8815
 9681SOL     OW29898   6.911   1.448   4.290 -0.4779 -0.0855 -0.0279
 9681SOL    HW129899   6.943   1.528   4.330 -0.9706  0.0858  0.0289
 9681SOL    HW229900   6.905   1.469   4.197  1.4783 -0.7471 -0.3504
 9682SOL     OW29901   0.595   0.307   7.744 -0.1308  0.2839 -0.1379
 9682SOL    HW129902   0.592   0.211   7.751 -1.9185  0.3887  1.3756
 9682SOL    HW229903   0.510   0.331   7.708 -1.2560  1.4526  2.9787
 9683SOL     OW29904   0.414   1.741   7.482  0.7976  0.1690  0.1906
 9683SOL    HW129905   0.347   1.717   7.547  0.9996  0.1719  0.3999
 9683SOL    HW229906   0.465   1.661   7.470  0.2729 -0.0724 -0.5630
 9684SOL     OW29907   4.764   1.016   1.440  0.2639 -0.8626  0.9440
 9684SOL    HW129908   4.677   1.013   1.481  0.2871 -0.0362  1.0802
 9684SOL    HW229909   4.766   1.101   1.397  1.2594 -0.5939  1.5025
 9685SOL     OW29910   6.678   5.604   2.746 -0.5154  0.2681  0.1445
 9685SOL    HW129911   6.615   5.613   2.674  0.0380  0.3852 -0.3299
 9685SOL    HW229912   6.760   5.640   2.711 -0.1506  0.0027  0.7153
 9686SOL     OW29913   3.987   7.941   4.018  0.1570  0.4365 -0.8588
 9686SOL    HW129914   3.912   7.943   3.957  0.9350 -0.6204 -1.8913
 9686SOL    HW229915   4.064   7.935   3.961  0.8547 -1.8617  0.2195
 9687SOL     OW29916   4.539   0.506   7.731 -0.2333  0.2376 -0.2729
 9687SOL    HW129917   4.564   0.537   7.644  0.3462 -1.5916 -0.7985
 9687SOL    HW229918   4.606   0.541   7.789 -0.0229  0.5863 -0.7211
 9688SOL     OW29919   6.489   0.866   2.653 -0.0961 -0.4215  0.2886
 9688SOL    HW129920   6.493   0.947   2.603 -0.3675 -0.1263  0.7404
 9688SOL    HW229921   6.406   0.826   2.627  0.8185 -1.4354 -1.2569
 9689SOL     OW29922   3.226   7.105   1.676 -0.1793 -0.2124  0.1882
 9689SOL    HW129923   3.247   7.192   1.709  1.2828 -0.5380  0.1649
 9689SOL    HW229924   3.279   7.045   1.728 -0.3994 -1.0106 -0.4739
 9690SOL     OW29925   6.660   6.770   4.021 -0.0880  0.4587 -0.2611
 9690SOL    HW129926   6.571   6.763   4.054  0.1737 -0.3135  0.3067
 9690SOL    HW229927   6.715   6.729   4.088  0.5028 -0.7467 -1.4206
 9691SOL     OW29928   1.041   5.601   5.233  0.0918  0.0155  0.3783
 9691SOL    HW129929   1.019   5.592   5.140 -1.6713 -0.2786  0.7885
 9691SOL    HW229930   1.075   5.516   5.259  0.9236  0.2019 -0.0606
 9692SOL     OW29931   0.433   2.203   1.908 -0.0610 -0.0729  0.1104
 9692SOL    HW129932   0.527   2.219   1.898 -0.1178  0.8753  0.9015
 9692SOL    HW229933   0.427   2.110   1.930  0.4739 -0.8051 -2.4844
 9693SOL     OW29934   3.723   5.914   6.804 -0.3559  0.2507  0.9125
 9693SOL    HW129935   3.785   5.919   6.731  0.3898 -0.5219  1.4680
 9693SOL    HW229936   3.768   5.958   6.877 -0.6495  0.0810  1.1999
 9694SOL     OW29937   5.755   3.851   3.792 -0.2556 -0.7619  0.3509
 9694SOL    HW129938   5.691   3.890   3.733  0.6523 -0.5633 -0.5410
 9694SOL    HW229939   5.839   3.862   3.747  0.9083  1.8462  2.8526
 9695SOL     OW29940   1.079   6.647   3.879  0.0277  0.1144  0.4759
 9695SOL    HW129941   0.996   6.672   3.920  0.7516  1.8120  0.9759
 9695SOL    HW229942   1.108   6.570   3.928 -1.7661 -1.2555 -0.4539
 9696SOL     OW29943   6.620   3.102   7.759 -0.0483  0.3125  0.3426
 9696SOL    HW129944   6.682   3.109   7.832 -0.0787  1.0796  0.3003
 9696SOL    HW229945   6.584   3.014   7.767 -0.4785  0.5818  1.6020
 9697SOL     OW29946   1.035   3.758   3.919 -0.0844 -0.0905 -0.1605
 9697SOL    HW129947   1.108   3.743   3.980 -1.1290 -0.0020  1.1641
 9697SOL    HW229948   1.007   3.848   3.937 -1.2052 -0.4777  0.1503
 9698SOL     OW29949   7.641   3.385   6.673 -0.6896  0.0401 -0.0903
 9698SOL    HW129950   7.649   3.289   6.675 -0.5179  0.0599  0.1977
 9698SOL    HW229951   7.549   3.400   6.651 -0.9991 -0.1935  1.0217
 9699SOL     OW29952   3.418   6.987   5.924 -0.0662 -0.2428  0.4135
 9699SOL    HW129953   3.357   7.036   5.980 -0.0729 -0.8067  0.9112
 9699SOL    HW229954   3.362   6.950   5.855 -0.0160  0.6827 -0.1294
 9700SOL     OW29955   0.430   1.920   2.019 -0.2640  0.1789  0.2464
 9700SOL    HW129956   0.361   1.919   2.085 -0.9346  0.0897 -0.4292
 9700SOL    HW229957   0.399   1.860   1.951 -0.2189  1.2416 -0.7428
 9701SOL     OW29958   2.490   3.238   2.289  0.8352 -0.3903 -0.1420
 9701SOL    HW129959   2.401   3.203   2.291  0.2351  1.0046 -1.2434
 9701SOL    HW229960   2.481   3.328   2.319  2.1066 -0.6298  1.0679
 9702SOL     OW29961   1.007   1.773   6.000 -0.2292  0.0678  0.1415
 9702SOL    HW129962   1.074   1.756   5.935 -0.9133 -1.5062 -0.2010
 9702SOL    HW229963   0.950   1.840   5.960  1.0528  1.3644  0.4152
 9703SOL     OW29964   2.649   1.677   7.857  0.5970  0.0423 -0.1655
 9703SOL    HW129965   2.696   1.702   7.936 -0.5181 -1.3933  1.0061
 9703SOL    HW229966   2.656   1.754   7.800  2.2432  0.7527  0.9129
 9704SOL     OW29967   0.676   7.519   0.448 -0.1035 -0.4365  0.4921
 9704SOL    HW129968   0.678   7.538   0.542 -0.2289  0.1469  0.3852
 9704SOL    HW229969   0.600   7.462   0.436 -0.0917 -0.5044  0.7475
 9705SOL     OW29970   5.036   5.777   0.857  0.8623  0.3200  0.0425
 9705SOL    HW129971   4.995   5.746   0.776  1.3128 -0.5010  0.1210
 9705SOL    HW229972   5.095   5.847   0.828 -0.0476  1.0283 -0.1549
 9706SOL     OW29973   2.008   1.346   6.543  0.5314 -0.3108 -0.0625
 9706SOL    HW129974   1.996   1.378   6.453  0.2978 -1.2112 -0.3621
 9706SOL    HW229975   1.923   1.308   6.566  1.3409 -2.4358 -0.4377
 9707SOL     OW29976   2.964   7.460   6.457  0.0870  0.6488  0.0694
 9707SOL    HW129977   2.960   7.553   6.479  1.2372  1.0804 -1.4129
 9707SOL    HW229978   2.893   7.448   6.394 -0.2746  0.4266  0.5086
 9708SOL     OW29979   4.364   6.821   6.576  0.0540  0.0233 -0.2173
 9708SOL    HW129980   4.302   6.894   6.582 -0.2029 -0.3145  2.2189
 9708SOL    HW229981   4.310   6.743   6.591  0.3326 -0.7429 -2.7290
 9709SOL     OW29982   4.133   2.093   3.039 -0.3197 -0.1506 -0.1643
 9709SOL    HW129983   4.043   2.104   3.069 -0.3255  0.2326 -0.3135
 9709SOL    HW229984   4.181   2.069   3.119 -0.5626 -0.4053 -0.0952
 9710SOL     OW29985   7.487   7.875   5.621  0.0515  0.0678 -0.1002
 9710SOL    HW129986   7.504   7.800   5.564  1.4681  0.0306  0.3403
 9710SOL    HW229987   7.501   7.841   5.710  2.5033  1.2339  0.0495
 9711SOL     OW29988   5.761   6.892   3.416 -0.1876  0.7551  0.2922
 9711SOL    HW129989   5.669   6.918   3.416 -0.2512  0.6533  1.7891
 9711SOL    HW229990   5.759   6.796   3.417 -0.0469  0.7437 -0.2244
 9712SOL     OW29991   2.483   4.824   0.792  0.0945  0.8694  0.1033
 9712SOL    HW129992   2.545   4.784   0.731  0.5152  1.2905  0.2488
 9712SOL    HW229993   2.497   4.778   0.874  0.9216  1.6286  0.4004
 9713SOL     OW29994   0.576   6.943   4.290 -0.1198  0.4016 -0.1678
 9713SOL    HW129995   0.625   6.980   4.217 -1.4465  2.4136 -0.1174
 9713SOL    HW229996   0.639   6.940   4.362  1.4613 -2.4384 -1.4992
 9714SOL     OW29997   4.119   4.565   6.132  1.0175  0.4662 -0.5199
 9714SOL    HW129998   4.040   4.530   6.091 -0.1099  0.9448  1.1468
 9714SOL    HW229999   4.155   4.490   6.180  0.8934  0.5474 -0.2978
 9715SOL     OW30000   1.688   0.718   7.973 -0.3772 -0.2356 -0.2560
 9715SOL    HW130001   1.614   0.763   7.935  0.5811 -0.4135 -2.4890
 9715SOL    HW230002   1.761   0.779   7.963  0.5002 -1.4231 -1.4409
 9716SOL     OW30003   7.535   0.175   6.198 -0.3341 -0.5087 -0.6587
 9716SOL    HW130004   7.497   0.217   6.121  0.2304  0.5130 -0.3901
 9716SOL    HW230005   7.630   0.182   6.184 -0.2319 -0.6994 -0.0679
 9717SOL     OW30006   7.334   4.088   2.912  0.2866  0.0093  0.3246
 9717SOL    HW130007   7.247   4.083   2.872  0.1294  0.6361  0.5759
 9717SOL    HW230008   7.318   4.068   3.005  0.3859  0.2832  0.4005
 9718SOL     OW30009   5.242   2.916   3.681  0.2313  0.6312 -0.0657
 9718SOL    HW130010   5.202   3.002   3.693 -0.2296  0.6689 -1.6951
 9718SOL    HW230011   5.171   2.854   3.696  0.4856  0.5321  0.7808
 9719SOL     OW30012   4.820   7.013   5.048  0.6263 -0.1125  0.6623
 9719SOL    HW130013   4.747   7.071   5.025  0.2488 -0.7385  0.2462
 9719SOL    HW230014   4.896   7.052   5.007  0.5824  0.6855  1.3039
 9720SOL     OW30015   4.456   0.035   7.938 -0.0863  0.2559 -0.6546
 9720SOL    HW130016   4.454   0.086   8.019 -0.4642 -0.0693 -0.4585
 9720SOL    HW230017   4.548   0.037   7.912  0.3118 -0.7848  0.5289
 9721SOL     OW30018   2.574   5.617   7.447 -0.0899 -0.3379  0.1665
 9721SOL    HW130019   2.578   5.634   7.352 -1.9805  2.1002  0.4170
 9721SOL    HW230020   2.635   5.681   7.485 -0.6846 -0.0483  0.6615
 9722SOL     OW30021   1.610   7.553   1.619 -0.2862 -0.2609 -0.2032
 9722SOL    HW130022   1.595   7.624   1.682  0.5595  1.2596 -1.6255
 9722SOL    HW230023   1.694   7.575   1.578 -1.9134  0.2442 -3.5990
 9723SOL     OW30024   5.213   6.747   3.547 -0.1886  0.2058 -0.2743
 9723SOL    HW130025   5.275   6.804   3.594 -0.0511 -1.0108  1.1029
 9723SOL    HW230026   5.261   6.719   3.469  1.2266 -1.0500  0.9703
 9724SOL     OW30027   5.159   0.714   3.913 -0.4038 -0.1274 -0.4155
 9724SOL    HW130028   5.120   0.671   3.989  0.0357  1.5969  0.8537
 9724SOL    HW230029   5.196   0.642   3.862 -0.9452 -1.3691  0.8567
 9725SOL     OW30030   6.345   7.115   2.690 -0.0955  0.1689  0.1913
 9725SOL    HW130031   6.259   7.157   2.681 -1.1743 -1.9924 -0.2017
 9725SOL    HW230032   6.348   7.085   2.780  0.1236  0.0060  0.1300
 9726SOL     OW30033   6.731   4.696   2.327 -0.5628  0.0956 -1.1219
 9726SOL    HW130034   6.673   4.725   2.256 -2.4561 -2.1531 -0.6190
 9726SOL    HW230035   6.704   4.606   2.345  1.5114 -0.2264  0.8333
 9727SOL     OW30036   3.689   2.983   5.474 -0.3360  0.2112  0.4084
 9727SOL    HW130037   3.725   3.046   5.411  0.2485 -1.6813 -1.2543
 9727SOL    HW230038   3.707   3.022   5.559  2.1886  1.1877 -0.4660
 9728SOL     OW30039   0.829   5.936   7.904  0.2180  0.1742 -0.0932
 9728SOL    HW130040   0.846   5.955   7.812  1.0697  0.1769  0.0616
 9728SOL    HW230041   0.908   5.892   7.935  0.1979  0.7338  0.7947
 9729SOL     OW30042   7.397   2.681   0.609 -0.2613 -0.0423  0.6141
 9729SOL    HW130043   7.321   2.740   0.603 -1.7962 -1.8533  1.3711
 9729SOL    HW230044   7.362   2.601   0.648  1.8638 -1.2930  0.0781
 9730SOL     OW30045   2.979   3.630   1.476  0.0786 -0.8509  0.3199
 9730SOL    HW130046   2.908   3.684   1.510  0.8803  2.0292 -2.0988
 9730SOL    HW230047   3.035   3.613   1.552 -1.1532  0.2471  1.5173
 9731SOL     OW30048   5.869   2.292   2.740 -0.1905 -0.8457 -0.2657
 9731SOL    HW130049   5.807   2.359   2.710 -0.0199 -0.3120  0.5453
 9731SOL    HW230050   5.815   2.229   2.787 -0.4281 -1.5727 -1.4692
 9732SOL     OW30051   7.195   5.652   5.765  0.0408 -0.0899 -0.4791
 9732SOL    HW130052   7.177   5.572   5.717 -0.8428 -0.2895  0.1529
 9732SOL    HW230053   7.136   5.648   5.841 -1.9243  2.3569 -1.7311
 9733SOL     OW30054   4.908   6.945   3.140 -0.4487  0.5359 -0.0025
 9733SOL    HW130055   4.815   6.924   3.150 -0.7485  1.0897 -1.4362
 9733SOL    HW230056   4.909   7.030   3.096  0.6722 -0.7010 -2.5596
 9734SOL     OW30057   7.170   0.719   4.009 -0.5309 -0.6211 -0.3017
 9734SOL    HW130058   7.254   0.674   4.008  1.3140  2.3402  2.3325
 9734SOL    HW230059   7.147   0.724   4.102 -1.9598  1.4362 -0.7013
 9735SOL     OW30060   1.862   2.924   2.130  0.1823  0.5646 -0.7126
 9735SOL    HW130061   1.771   2.908   2.103  0.5082  0.4078 -1.7774
 9735SOL    HW230062   1.888   2.843   2.173 -0.0264  0.4205 -0.8506
 9736SOL     OW30063   1.571   1.672   7.121  0.3166 -0.3494 -0.5974
 9736SOL    HW130064   1.512   1.742   7.146  0.6459 -0.0384 -0.6750
 9736SOL    HW230065   1.650   1.688   7.174 -0.6688 -2.3946  1.6602
 9737SOL     OW30066   3.073   3.087   4.254  0.5428 -0.2932  0.1416
 9737SOL    HW130067   3.019   3.121   4.326  1.5129 -0.0491  0.7839
 9737SOL    HW230068   3.091   2.996   4.279  0.0822 -0.5015 -0.2817
 9738SOL     OW30069   2.645   6.236   7.317  1.0818 -0.0407  0.5632
 9738SOL    HW130070   2.604   6.186   7.246 -0.2674  0.0884  1.2269
 9738SOL    HW230071   2.708   6.176   7.356  1.5495 -0.2472 -0.4740
 9739SOL     OW30072   2.070   3.663   3.839 -0.0205 -0.0567 -0.0446
 9739SOL    HW130073   2.041   3.707   3.759  3.8147  2.9947 -0.0308
 9739SOL    HW230074   2.107   3.732   3.893  1.5744 -2.6276  2.4369
 9740SOL     OW30075   7.062   6.374   5.397  0.4614 -0.2611 -1.3361
 9740SOL    HW130076   7.034   6.407   5.312 -3.6429 -0.4872 -0.2894
 9740SOL    HW230077   7.000   6.304   5.418  1.5601 -0.5080  1.6500
 9741SOL     OW30078   2.908   1.556   4.280 -0.3562 -0.0951 -0.1291
 9741SOL    HW130079   2.813   1.569   4.285 -0.5912 -1.8654  1.3576
 9741SOL    HW230080   2.925   1.541   4.187 -0.9656  3.4202 -0.9477
 9742SOL     OW30081   2.699   2.703   6.157  0.0597 -0.1252  0.2267
 9742SOL    HW130082   2.650   2.716   6.076  0.3522 -0.6048 -0.0356
 9742SOL    HW230083   2.640   2.653   6.213  0.3022 -0.8644 -0.1588
 9743SOL     OW30084   5.930   3.749   0.388  0.1945  0.0437 -0.5886
 9743SOL    HW130085   5.980   3.795   0.456 -0.2118 -1.7604  1.0142
 9743SOL    HW230086   5.871   3.692   0.436 -0.2232 -1.2056 -2.4749
 9744SOL     OW30087   3.811   0.937   1.548 -0.3281 -0.7321  0.5681
 9744SOL    HW130088   3.777   0.955   1.636  1.1448 -1.1671  1.2438
 9744SOL    HW230089   3.748   0.980   1.489 -0.8793  0.2807  1.8573
 9745SOL     OW30090   6.789   5.544   4.132 -0.5014  0.0157  0.9689
 9745SOL    HW130091   6.766   5.568   4.042  1.8527  0.1464  0.3327
 9745SOL    HW230092   6.809   5.450   4.127  1.2601  0.3614  0.9423
 9746SOL     OW30093   0.287   0.964   5.099  0.1891  0.2218 -0.0491
 9746SOL    HW130094   0.227   0.985   5.027  0.2311 -0.3045 -0.2381
 9746SOL    HW230095   0.339   0.891   5.066  1.4782  1.1571 -0.1931
 9747SOL     OW30096   3.098   5.844   4.179  0.0372 -0.4664  0.3576
 9747SOL    HW130097   3.130   5.773   4.233 -0.0283 -0.6293  0.1830
 9747SOL    HW230098   3.122   5.924   4.227 -0.6976 -0.6218  1.0160
 9748SOL     OW30099   0.731   2.316   1.126 -0.0027  0.0359  0.1286
 9748SOL    HW130100   0.727   2.221   1.141  0.5021  0.0850  0.6096
 9748SOL    HW230101   0.648   2.337   1.084  0.1740 -0.7343 -0.6349
 9749SOL     OW30102   6.547   1.000   3.127 -0.3815 -0.4161 -0.1734
 9749SOL    HW130103   6.634   0.978   3.092  0.3642 -0.0993  1.4083
 9749SOL    HW230104   6.524   1.081   3.082  0.7950  0.2702  0.3927
 9750SOL     OW30105   6.863   2.004   2.850 -0.2408  0.0136  0.4206
 9750SOL    HW130106   6.909   2.039   2.927  1.7634  0.6732 -0.9919
 9750SOL    HW230107   6.897   1.915   2.841  0.8944  0.5409 -0.6982
 9751SOL     OW30108   4.892   2.910   7.788 -0.2636 -0.2548 -0.5295
 9751SOL    HW130109   4.977   2.876   7.815  0.8164  1.3577 -1.7218
 9751SOL    HW230110   4.901   2.929   7.695 -1.3735  1.4878 -0.3366
 9752SOL     OW30111   2.042   6.656   7.394 -0.2594  0.1533 -0.4308
 9752SOL    HW130112   2.098   6.658   7.316 -0.8471  0.8412 -0.8536
 9752SOL    HW230113   1.955   6.633   7.360 -0.1960 -1.2014  0.2555
 9753SOL     OW30114   3.286   1.570   4.943  0.2622 -0.1126  0.1095
 9753SOL    HW130115   3.199   1.529   4.936 -0.6741  1.3674  2.0060
 9753SOL    HW230116   3.281   1.646   4.886  0.9643 -0.9326 -1.0998
 9754SOL     OW30117   5.842   0.994   2.938 -0.4721  0.4107 -0.3116
 9754SOL    HW130118   5.755   1.016   2.906 -0.7391  2.5631  1.6132
 9754SOL    HW230119   5.899   1.059   2.897  0.2043 -0.7209 -1.2267
 9755SOL     OW30120   0.890   5.086   5.200  0.0434 -0.5739 -0.0117
 9755SOL    HW130121   0.800   5.116   5.188  0.7172  1.1674 -1.2077
 9755SOL    HW230122   0.882   5.004   5.248 -2.1211  0.0824  0.8823
 9756SOL     OW30123   2.569   6.892   1.066 -0.3410 -0.2032 -0.5721
 9756SOL    HW130124   2.509   6.947   1.115 -3.1602 -3.5600  0.1837
 9756SOL    HW230125   2.544   6.904   0.975  1.0780  1.8047 -0.7614
 9757SOL     OW30126   4.185   6.531   5.837  0.1203  0.3167 -0.2674
 9757SOL    HW130127   4.162   6.511   5.928  0.0043 -1.2987 -0.6197
 9757SOL    HW230128   4.280   6.525   5.835  0.0839 -0.3403 -0.3822
 9758SOL     OW30129   3.931   6.040   4.448 -0.4272 -0.5459 -0.0174
 9758SOL    HW130130   3.980   5.995   4.516  0.2194  0.5883  0.2886
 9758SOL    HW230131   3.930   5.979   4.374  0.4923 -1.0217  0.3573
 9759SOL     OW30132   4.254   4.277   4.732 -0.6021 -0.0982  0.4650
 9759SOL    HW130133   4.170   4.282   4.688 -0.2597  0.2534 -0.1614
 9759SOL    HW230134   4.262   4.186   4.760 -2.0030  0.2592  2.1601
 9760SOL     OW30135   0.949   6.241   2.280  0.5852 -0.1557  0.5838
 9760SOL    HW130136   0.921   6.249   2.189 -0.2463  0.0708  0.8516
 9760SOL    HW230137   0.925   6.152   2.305  1.0589 -0.3084  0.5050
 9761SOL     OW30138   4.610   1.005   2.488  0.3556 -0.7187  0.3731
 9761SOL    HW130139   4.612   0.911   2.508 -0.2621 -0.3872  2.1815
 9761SOL    HW230140   4.523   1.020   2.451  0.5825 -0.9056 -0.2484
 9762SOL     OW30141   3.329   6.982   2.530  0.3807 -0.6636  0.5440
 9762SOL    HW130142   3.260   7.049   2.538 -0.0913 -1.0562 -0.1170
 9762SOL    HW230143   3.411   7.031   2.531  0.0116  0.0267 -0.8547
 9763SOL     OW30144   7.264   1.247   7.936  0.5901 -0.5031  0.0665
 9763SOL    HW130145   7.335   1.212   7.989 -0.1288  0.6425  1.8917
 9763SOL    HW230146   7.298   1.329   7.900 -0.3394  1.0864  2.5587
 9764SOL     OW30147   5.283   7.513   1.977 -0.1231  0.7533  0.0386
 9764SOL    HW130148   5.260   7.535   1.887 -0.2773  0.7499  0.0768
 9764SOL    HW230149   5.295   7.597   2.021 -0.6993  0.7646  0.1810
 9765SOL     OW30150   3.235   0.329   0.957  0.2465  0.9990 -0.2206
 9765SOL    HW130151   3.235   0.413   0.910  1.0747  1.1768  0.0795
 9765SOL    HW230152   3.275   0.349   1.041  1.5014  0.0741 -0.5713
 9766SOL     OW30153   6.171   5.758   7.118 -0.4874  0.2621  0.1421
 9766SOL    HW130154   6.200   5.728   7.033  0.2836  0.8955  0.1648
 9766SOL    HW230155   6.247   5.803   7.155 -1.4130  1.7706  0.3082
 9767SOL     OW30156   3.151   1.831   4.827 -0.2931  0.2060 -0.1711
 9767SOL    HW130157   3.092   1.799   4.758 -1.2178 -1.0634  1.1524
 9767SOL    HW230158   3.100   1.898   4.872  0.1176  0.6733 -0.4013
 9768SOL     OW30159   7.476   4.470   0.405  0.3194 -0.3607  0.0793
 9768SOL    HW130160   7.548   4.520   0.445 -0.8071  0.1095  1.6100
 9768SOL    HW230161   7.434   4.425   0.478 -1.9156  0.6205 -0.5159
 9769SOL     OW30162   2.826   2.028   0.386 -0.2297 -0.0453 -0.4613
 9769SOL    HW130163   2.814   2.047   0.479  2.0784  0.0520 -0.1260
 9769SOL    HW230164   2.767   1.955   0.368 -1.6079  0.7228  0.7572
 9770SOL     OW30165   1.054   5.784   7.978 -0.0377  0.2752  0.1579
 9770SOL    HW130166   1.113   5.836   8.034  1.9820 -2.0101  0.2985
 9770SOL    HW230167   1.022   5.715   8.035  1.3256 -1.5641 -1.1937
 9771SOL     OW30168   1.711   6.571   7.442  0.2354  0.0568  0.2150
 9771SOL    HW130169   1.693   6.665   7.442 -4.3911 -0.6212 -0.1698
 9771SOL    HW230170   1.678   6.541   7.527 -1.5471 -1.6057 -0.9959
 9772SOL     OW30171   2.809   0.032   2.468  0.7344 -0.6523  0.6020
 9772SOL    HW130172   2.797  -0.027   2.394 -0.3685 -0.7444  0.8287
 9772SOL    HW230173   2.904   0.043   2.475  0.9444 -2.0206  0.2672
 9773SOL     OW30174   3.976   1.908   5.538 -0.0224  0.0675 -0.3902
 9773SOL    HW130175   4.009   1.819   5.538  0.4479  0.2033 -2.2554
 9773SOL    HW230176   3.882   1.899   5.557  0.1121 -0.7663 -0.0840
 9774SOL     OW30177   5.732   5.749   7.910  0.1119 -0.7400  0.0916
 9774SOL    HW130178   5.683   5.698   7.845  0.5554 -0.0347 -0.8145
 9774SOL    HW230179   5.778   5.683   7.962 -1.7984 -1.4294  1.0126
 9775SOL     OW30180   4.546   0.421   4.834 -0.0879 -0.1582 -0.4461
 9775SOL    HW130181   4.612   0.400   4.900 -0.0269 -0.2411 -0.5320
 9775SOL    HW230182   4.563   0.512   4.810  0.0060 -0.1849 -0.4809
 9776SOL     OW30183   7.397   3.001   6.931 -0.1242 -0.3268  0.1216
 9776SOL    HW130184   7.354   2.954   6.860 -2.2168  0.7407  0.5888
 9776SOL    HW230185   7.470   2.945   6.957 -1.3983 -2.4019 -0.5396
 9777SOL     OW30186   6.968   6.259   3.227  0.3259 -0.0721  0.2850
 9777SOL    HW130187   6.918   6.267   3.308 -0.3008 -1.0524  0.0130
 9777SOL    HW230188   6.941   6.174   3.190  1.6488 -0.2881 -0.2348
 9778SOL     OW30189   6.005   5.910   2.404  0.4013 -1.1082 -0.2146
 9778SOL    HW130190   6.067   5.883   2.337  1.6963 -1.7094  1.1520
 9778SOL    HW230191   6.027   5.854   2.480 -1.4128 -0.9103  0.5029
 9779SOL     OW30192   1.910   4.425   6.731 -0.3953  0.0869  0.0589
 9779SOL    HW130193   1.976   4.356   6.731  0.6347  0.9232 -3.0913
 9779SOL    HW230194   1.841   4.392   6.788  1.1628 -2.3849  0.6584
 9780SOL     OW30195   1.964   6.444   5.006 -0.3411 -0.1520  0.1862
 9780SOL    HW130196   1.924   6.488   4.932  0.4846  0.0718 -0.1337
 9780SOL    HW230197   2.031   6.504   5.038  1.5167 -1.5247 -0.8952
 9781SOL     OW30198   4.904   1.385   5.405 -0.1221  0.0815  0.0275
 9781SOL    HW130199   4.888   1.356   5.495  1.7012 -0.2317  0.2898
 9781SOL    HW230200   4.868   1.314   5.351  1.4774 -1.2380  0.6053
 9782SOL     OW30201   0.299   1.504   3.110 -0.2102  0.3786 -0.2552
 9782SOL    HW130202   0.294   1.583   3.057 -1.4294  0.4855 -0.0022
 9782SOL    HW230203   0.391   1.500   3.138  0.1640  0.9811 -1.3477
 9783SOL     OW30204   3.800   7.317   1.529  0.6525 -0.8374 -0.9103
 9783SOL    HW130205   3.731   7.369   1.569 -1.0536 -1.6988 -2.5733
 9783SOL    HW230206   3.841   7.377   1.466  0.3671 -0.7762 -1.0378
 9784SOL     OW30207   5.949   5.822   5.561  0.1711 -0.2252 -0.1661
 9784SOL    HW130208   5.874   5.771   5.530  0.1997 -0.1132 -0.4299
 9784SOL    HW230209   5.919   5.913   5.560  0.7615 -0.0072 -1.7309
 9785SOL     OW30210   6.294   1.365   3.266  0.3705  0.3320 -0.0626
 9785SOL    HW130211   6.244   1.283   3.259  0.3199  0.5243 -2.9458
 9785SOL    HW230212   6.379   1.338   3.301  0.0795 -0.8149 -0.2060
 9786SOL     OW30213   5.177   7.833   2.263 -0.1433  0.2516 -1.3503
 9786SOL    HW130214   5.199   7.760   2.321 -1.6088 -1.1739 -2.4874
 9786SOL    HW230215   5.082   7.845   2.274  0.1140  2.2529 -0.9314
 9787SOL     OW30216   3.813   5.497   6.451  0.2649 -0.0948 -0.0386
 9787SOL    HW130217   3.769   5.466   6.372 -0.7629 -1.1074  0.8890
 9787SOL    HW230218   3.777   5.443   6.521  3.2079 -1.2470  0.7710
 9788SOL     OW30219   7.512   6.517   7.966  0.2004 -0.2193  0.7042
 9788SOL    HW130220   7.550   6.587   8.018 -0.6272  0.8898 -0.1215
 9788SOL    HW230221   7.508   6.442   8.025 -1.7501  1.2726  2.6378
 9789SOL     OW30222   4.739   5.729   7.081  0.1458  0.3099 -0.4587
 9789SOL    HW130223   4.824   5.756   7.116 -0.8677  2.1586  0.7693
 9789SOL    HW230224   4.747   5.635   7.068  2.4573  0.4625 -0.6674
 9790SOL     OW30225   1.610   3.403   4.190  0.0824 -0.3133  0.0470
 9790SOL    HW130226   1.581   3.478   4.139 -0.7698  0.9600  2.2640
 9790SOL    HW230227   1.646   3.441   4.270  0.3186 -2.2454  0.9242
 9791SOL     OW30228   0.043   6.948   3.132  0.7039  0.0633  0.4403
 9791SOL    HW130229   0.016   6.906   3.051 -0.2849 -0.4497  1.0077
 9791SOL    HW230230   0.139   6.946   3.131  0.7166  0.6154 -0.9755
 9792SOL     OW30231   5.425   0.222   1.347  0.5603  0.0825  0.1665
 9792SOL    HW130232   5.367   0.244   1.420  1.5299  1.5362  0.5463
 9792SOL    HW230233   5.392   0.274   1.274  1.0839  0.5403  0.2518
 9793SOL     OW30234   2.414   3.809   3.905  0.0425  0.2729  0.5830
 9793SOL    HW130235   2.493   3.862   3.916 -0.5237  1.4365 -0.7363
 9793SOL    HW230236   2.394   3.814   3.812 -1.6876  0.1290  0.9187
 9794SOL     OW30237   3.231   1.682   2.498 -0.3513  0.5034 -0.2920
 9794SOL    HW130238   3.183   1.675   2.416 -0.5205 -0.7540 -0.1093
 9794SOL    HW230239   3.190   1.617   2.555 -0.7453  1.8860  1.0593
 9795SOL     OW30240   5.556   6.030   6.601 -0.5004 -0.5976  0.0070
 9795SOL    HW130241   5.596   5.992   6.679  1.0744  2.2507  0.7007
 9795SOL    HW230242   5.488   6.088   6.635 -1.1678 -0.8462 -0.8705
 9796SOL     OW30243   3.721   3.412   1.914 -0.0898 -0.1341  0.0671
 9796SOL    HW130244   3.703   3.359   1.836 -2.1092 -0.3101  0.6009
 9796SOL    HW230245   3.639   3.458   1.931  1.0671  1.8034  0.6790
 9797SOL     OW30246   5.778   1.612   1.109  0.7350  0.4791 -0.6329
 9797SOL    HW130247   5.729   1.695   1.111  0.9695  0.7206 -2.7115
 9797SOL    HW230248   5.740   1.564   1.036  0.2302 -1.5437  0.8709
 9798SOL     OW30249   5.523   6.265   4.618  0.5553 -0.1561  0.1549
 9798SOL    HW130250   5.556   6.292   4.533 -0.6936 -0.5613 -0.4772
 9798SOL    HW230251   5.582   6.195   4.646  1.1581  0.1974 -0.2217
 9799SOL     OW30252   4.035   2.370   7.023 -0.2028  0.1885 -0.0555
 9799SOL    HW130253   4.116   2.332   6.991  1.2573  2.2044  0.9762
 9799SOL    HW230254   4.024   2.332   7.110 -0.7946 -0.6328 -0.4766
 9800SOL     OW30255   2.082   4.465   1.602  0.1670  0.0807 -0.0837
 9800SOL    HW130256   2.139   4.525   1.650  0.6918 -0.2738 -0.2571
 9800SOL    HW230257   2.132   4.440   1.525  0.1811 -1.0043  0.2597
 9801SOL     OW30258   0.022   6.664   4.577  0.0475  0.5483  0.3824
 9801SOL    HW130259  -0.056   6.609   4.585 -0.5081  1.0231 -1.1873
 9801SOL    HW230260   0.020   6.721   4.654 -1.7843  1.2668 -0.1399
 9802SOL     OW30261   0.632   2.978   1.336  0.2795  0.7411  0.0174
 9802SOL    HW130262   0.630   3.073   1.348  0.4257  0.7136  0.2781
 9802SOL    HW230263   0.664   2.944   1.420  1.6467  0.5533 -0.5550
 9803SOL     OW30264   1.212   7.112   4.269 -0.5466  0.3212 -0.3022
 9803SOL    HW130265   1.230   7.142   4.358  0.1486  1.4499 -0.8043
 9803SOL    HW230266   1.123   7.139   4.251 -0.0983  1.6808 -0.5619
 9804SOL     OW30267   1.330   4.492   5.560  0.5153 -0.5710  0.1131
 9804SOL    HW130268   1.364   4.534   5.480  1.4949  0.3584  0.9916
 9804SOL    HW230269   1.327   4.399   5.538  0.7198 -0.3284 -1.0317
 9805SOL     OW30270   4.957   3.023   4.970  0.2416  0.3572  0.3602
 9805SOL    HW130271   5.009   3.055   4.896  0.7579 -1.4683 -0.1215
 9805SOL    HW230272   5.010   3.044   5.047 -0.2108  2.1036  0.2405
 9806SOL     OW30273   6.415   0.694   7.465  0.5005 -0.1492  0.2830
 9806SOL    HW130274   6.441   0.751   7.392 -2.0615  1.4815  0.5142
 9806SOL    HW230275   6.370   0.752   7.526  0.6386 -1.8930  2.1526
 9807SOL     OW30276   2.187   6.429   3.164 -0.1032  0.2358 -0.1757
 9807SOL    HW130277   2.271   6.414   3.123 -0.6463 -1.6518 -0.6647
 9807SOL    HW230278   2.146   6.497   3.111  1.0232  1.0787 -0.0051
 9808SOL     OW30279   7.545   0.406   3.150  0.3987 -0.3344 -0.4422
 9808SOL    HW130280   7.582   0.334   3.099 -1.1289 -1.6234  0.1755
 9808SOL    HW230281   7.494   0.457   3.087 -1.1339 -1.6769 -0.3722
 9809SOL     OW30282   7.307   1.485   1.201 -0.2361 -0.4835 -0.4216
 9809SOL    HW130283   7.308   1.417   1.133 -1.0312 -2.1564  1.1400
 9809SOL    HW230284   7.215   1.513   1.205  0.1171  0.8930 -1.1871
 9810SOL     OW30285   3.741   4.815   6.068  0.6219  0.3785 -0.1839
 9810SOL    HW130286   3.781   4.803   5.982 -0.4780 -2.1101 -0.4112
 9810SOL    HW230287   3.813   4.802   6.130  0.5785 -2.6226 -0.6396
 9811SOL     OW30288   6.835   4.450   0.562  0.5194 -0.4748  0.3431
 9811SOL    HW130289   6.865   4.374   0.512  0.1054 -1.3098  1.3302
 9811SOL    HW230290   6.882   4.444   0.645 -0.8996 -0.7021  1.1515
 9812SOL     OW30291   2.092   4.347   5.799 -0.4357  0.7590 -0.0951
 9812SOL    HW130292   2.031   4.399   5.851 -3.2156 -1.8887 -0.3651
 9812SOL    HW230293   2.067   4.364   5.708 -0.5894 -0.0867 -0.2217
 9813SOL     OW30294   3.338   3.887   3.088  0.2195  0.0010 -0.0908
 9813SOL    HW130295   3.373   3.953   3.029  0.5809 -0.6624 -0.6409
 9813SOL    HW230296   3.407   3.820   3.092  0.1206 -0.0615  0.9315
 9814SOL     OW30297   1.127   2.615   2.470 -0.3282 -0.4359 -0.4524
 9814SOL    HW130298   1.110   2.603   2.563  0.4419 -0.4204 -0.3076
 9814SOL    HW230299   1.044   2.592   2.427 -0.1313 -2.2457  0.0880
 9815SOL     OW30300   0.897   8.003   3.915  0.1304 -0.0504  0.1726
 9815SOL    HW130301   0.982   8.048   3.910  0.1601 -0.1855 -0.6123
 9815SOL    HW230302   0.907   7.941   3.988  0.1670  1.0322  1.1162
 9816SOL     OW30303   5.776   3.800   1.914  0.4266 -0.4082 -0.2168
 9816SOL    HW130304   5.849   3.856   1.939 -0.0781  0.7002 -1.1261
 9816SOL    HW230305   5.698   3.851   1.935 -0.1944 -2.1524  2.1103
 9817SOL     OW30306   1.122   6.827   6.364  0.0110 -0.4119  0.2985
 9817SOL    HW130307   1.088   6.738   6.354  2.2352 -1.1774 -1.0855
 9817SOL    HW230308   1.076   6.877   6.296  1.6837 -1.4929 -1.7474
 9818SOL     OW30309   2.844   5.750   4.871  0.4739  0.0162 -0.3913
 9818SOL    HW130310   2.799   5.771   4.953 -0.0350 -0.9627 -0.4068
 9818SOL    HW230311   2.785   5.782   4.802  0.2839 -0.3337 -0.3933
 9819SOL     OW30312   0.009   2.913   4.340  0.2891 -0.0147 -0.1182
 9819SOL    HW130313   0.074   2.913   4.270 -0.0455  1.5392 -0.4677
 9819SOL    HW230314   0.000   3.006   4.364 -0.8716 -0.3380  0.7852
 9820SOL     OW30315   6.228   4.376   1.457 -0.5165 -0.0106 -0.1182
 9820SOL    HW130316   6.279   4.423   1.523 -0.1296 -0.5034 -0.0594
 9820SOL    HW230317   6.194   4.445   1.400  0.4849  0.3202 -0.3472
 9821SOL     OW30318   1.866   7.061   4.760  0.1818  0.3939  0.1562
 9821SOL    HW130319   1.952   7.062   4.803  0.7244 -1.2228 -0.7966
 9821SOL    HW230320   1.815   6.998   4.810 -0.6752  1.7199  1.0309
 9822SOL     OW30321   3.185   6.375   2.655  0.1195 -0.2597 -0.2728
 9822SOL    HW130322   3.200   6.384   2.561  2.2146  0.2151  0.0517
 9822SOL    HW230323   3.090   6.383   2.666 -0.2659 -1.3471 -2.4325
 9823SOL     OW30324   4.850   7.552   6.363 -0.3694 -0.4977 -0.1778
 9823SOL    HW130325   4.838   7.502   6.444  0.3872 -1.8992 -0.8998
 9823SOL    HW230326   4.935   7.595   6.374 -0.8860  0.4258  0.3198
 9824SOL     OW30327   7.703   3.057   4.629  0.0391  0.0755  0.0299
 9824SOL    HW130328   7.612   3.033   4.645 -1.0651  2.2500 -2.2542
 9824SOL    HW230329   7.754   2.982   4.660 -2.7498 -3.0607 -2.2759
 9825SOL     OW30330   2.659   7.574   6.308  0.6531 -0.1279  0.0996
 9825SOL    HW130331   2.691   7.652   6.353 -0.7048  0.8312 -0.5243
 9825SOL    HW230332   2.701   7.577   6.222 -2.2579  2.1454 -1.4334
 9826SOL     OW30333   3.106   6.443   3.413  0.1696  0.0250 -0.7282
 9826SOL    HW130334   3.016   6.469   3.394 -0.4592 -2.3526 -1.3077
 9826SOL    HW230335   3.156   6.525   3.409 -2.0192  1.4905  0.1789
 9827SOL     OW30336   3.723   7.218   2.243  0.5173 -0.5790  0.4958
 9827SOL    HW130337   3.634   7.237   2.213 -0.7385 -3.3825  2.1270
 9827SOL    HW230338   3.776   7.288   2.204 -2.0285  0.0366 -2.2394
 9828SOL     OW30339   0.226   5.309   2.534  0.0595 -0.4015  0.3330
 9828SOL    HW130340   0.317   5.280   2.524 -0.2011 -0.6872 -1.6260
 9828SOL    HW230341   0.183   5.278   2.454 -1.9260 -0.8346  1.5212
 9829SOL     OW30342   3.352   6.624   5.611  0.5794 -0.2276 -0.1820
 9829SOL    HW130343   3.442   6.598   5.589  0.8201  1.2319 -1.0743
 9829SOL    HW230344   3.315   6.655   5.528  1.2003  4.6143  1.0587
 9830SOL     OW30345   3.044   4.310   0.897 -0.3464  0.1029 -0.7155
 9830SOL    HW130346   3.101   4.250   0.946 -0.4236 -0.0953 -0.8648
 9830SOL    HW230347   3.076   4.305   0.807  0.1933  0.9460 -0.5757
 9831SOL     OW30348   7.689   4.498   0.960  0.0763 -0.0868 -0.4583
 9831SOL    HW130349   7.623   4.431   0.976  0.9914 -0.7179  0.8128
 9831SOL    HW230350   7.698   4.545   1.043  0.0567  1.0748 -1.0840
 9832SOL     OW30351   4.948   6.502   4.354  0.1795 -0.4879  0.5413
 9832SOL    HW130352   4.898   6.566   4.302 -0.1375  0.0027  1.4232
 9832SOL    HW230353   4.951   6.540   4.442  1.9169 -0.6163  0.5734
 9833SOL     OW30354   6.523   3.949   4.165  0.1472 -0.4640  0.4225
 9833SOL    HW130355   6.465   3.925   4.237  0.3186 -1.8170  0.1365
 9833SOL    HW230356   6.606   3.906   4.186  0.2531 -0.7209 -0.4670
 9834SOL     OW30357   7.755   2.854   7.902 -0.0133  0.2070 -0.2612
 9834SOL    HW130358   7.750   2.910   7.825  0.0529  1.7622  0.8044
 9834SOL    HW230359   7.693   2.893   7.964  2.1883  0.9724  1.6301
 9835SOL     OW30360   4.475   7.861   6.840 -0.0271 -0.0121  0.1285
 9835SOL    HW130361   4.529   7.917   6.896 -0.5544  1.2242 -0.5732
 9835SOL    HW230362   4.400   7.837   6.896  1.1737 -1.7321  1.1022
 9836SOL     OW30363   2.102   6.480   4.626  0.0807  0.0697  0.3191
 9836SOL    HW130364   2.171   6.533   4.666 -0.4985  0.5307  0.7235
 9836SOL    HW230365   2.026   6.491   4.684 -0.9315  1.1357 -1.1308
 9837SOL     OW30366   3.155   7.951   2.333  0.1311 -0.5939 -0.4818
 9837SOL    HW130367   3.180   7.889   2.401  1.0214  0.2185 -0.0520
 9837SOL    HW230368   3.080   7.910   2.290  0.6914 -1.9700 -0.2077
 9838SOL     OW30369   7.374   7.725   1.165  0.3058 -1.1995 -0.1642
 9838SOL    HW130370   7.412   7.742   1.079  0.3402  1.0739  0.2139
 9838SOL    HW230371   7.289   7.684   1.147  0.3872 -0.9139 -1.2713
 9839SOL     OW30372   7.413   0.429   0.831 -0.7734  0.1405  0.2127
 9839SOL    HW130373   7.399   0.517   0.796 -0.1854  0.3005  0.3666
 9839SOL    HW230374   7.478   0.441   0.901  2.3124 -0.8603 -2.2191
 9840SOL     OW30375   1.583   4.830   1.288 -0.2683 -0.3728 -0.4072
 9840SOL    HW130376   1.536   4.773   1.349 -1.5711  0.1530 -0.8805
 9840SOL    HW230377   1.530   4.830   1.209 -0.2085  1.3336 -0.4943
 9841SOL     OW30378   3.091   1.120   1.962  0.4588 -0.1803  0.2638
 9841SOL    HW130379   3.098   1.109   1.867  0.3476 -1.1240  0.3551
 9841SOL    HW230380   3.132   1.042   1.998  1.8754  0.8713  1.0375
 9842SOL     OW30381   5.591   5.639   3.739  0.0988  0.2247 -0.4574
 9842SOL    HW130382   5.681   5.610   3.749 -0.2243 -0.5167  0.4241
 9842SOL    HW230383   5.539   5.559   3.747 -0.6346  0.6466 -0.9406
 9843SOL     OW30384   4.534   7.806   4.261 -0.4178  0.3699 -0.0020
 9843SOL    HW130385   4.562   7.862   4.189  0.4993  0.7706  0.6428
 9843SOL    HW230386   4.460   7.757   4.226  1.0651 -0.7272 -1.7897
 9844SOL     OW30387   6.435   4.059   1.623  0.8438  0.3510  0.2136
 9844SOL    HW130388   6.392   4.008   1.692  1.0771  0.9745  0.8331
 9844SOL    HW230389   6.364   4.095   1.571  0.6359 -2.2663 -1.5554
 9845SOL     OW30390   6.069   1.567   7.291 -0.4453  0.1800 -0.1229
 9845SOL    HW130391   5.981   1.586   7.260 -0.5055  0.5373  0.2643
 9845SOL    HW230392   6.059   1.488   7.344 -0.8047  1.0751  1.1862
 9846SOL     OW30393   1.777   6.767   0.578 -0.4369  0.4182 -0.1652
 9846SOL    HW130394   1.718   6.743   0.507 -2.3858 -1.3400  1.8879
 9846SOL    HW230395   1.748   6.855   0.604 -0.4730  0.5875 -0.7698
 9847SOL     OW30396   1.971   2.713   2.238 -0.0930  0.4888 -0.1461
 9847SOL    HW130397   2.065   2.727   2.250  0.0414 -0.6307  0.2618
 9847SOL    HW230398   1.965   2.644   2.172 -0.6133  0.4305 -0.0439
 9848SOL     OW30399   4.731   3.525   7.484 -0.0739  0.1146 -1.0109
 9848SOL    HW130400   4.714   3.615   7.512  0.7854  0.0005 -0.0824
 9848SOL    HW230401   4.710   3.472   7.561  1.4824 -0.2846 -0.8339
 9849SOL     OW30402   0.827   1.027   6.748  0.0803 -0.4067 -0.2851
 9849SOL    HW130403   0.810   1.018   6.842 -0.3823 -0.3717 -0.3642
 9849SOL    HW230404   0.741   1.039   6.709  0.3493  0.6643 -0.5913
 9850SOL     OW30405   6.681   7.991   5.575  0.1698 -0.3104  0.0625
 9850SOL    HW130406   6.729   7.923   5.622  1.6124  0.2657 -0.5044
 9850SOL    HW230407   6.591   7.981   5.603  0.9397  0.0956  3.0691
 9851SOL     OW30408   5.029   2.689   7.420 -0.3941  0.0674 -0.2482
 9851SOL    HW130409   4.953   2.642   7.454  1.0579 -1.6600  0.8371
 9851SOL    HW230410   5.066   2.734   7.496 -1.6259  2.9781 -1.2256
 9852SOL     OW30411   2.003   0.184   3.078 -0.3130  0.2285  0.0365
 9852SOL    HW130412   1.985   0.274   3.103  0.8917  0.6935 -0.6726
 9852SOL    HW230413   2.031   0.141   3.159 -1.9771  0.1678  0.6074
 9853SOL     OW30414   6.443   6.908   3.511  0.1274 -0.4060 -0.2949
 9853SOL    HW130415   6.498   6.884   3.585  0.4982  1.1311 -0.0492
 9853SOL    HW230416   6.354   6.885   3.538  0.5090 -2.0395 -0.3327
 9854SOL     OW30417   1.380   2.146   4.893 -0.1625  0.2742  0.1353
 9854SOL    HW130418   1.395   2.230   4.937  0.7369  0.1069  0.1720
 9854SOL    HW230419   1.287   2.129   4.905 -0.7283  2.0603 -1.2851
 9855SOL     OW30420   3.514   2.492   0.811 -0.8277  0.2737  0.0104
 9855SOL    HW130421   3.461   2.490   0.890 -0.2943 -0.0845  0.3648
 9855SOL    HW230422   3.550   2.581   0.807  0.2893 -0.1077  0.9499
 9856SOL     OW30423   2.668   7.329   3.234  0.5555 -0.9057 -0.1916
 9856SOL    HW130424   2.692   7.305   3.323  1.6389 -1.2116 -0.5530
 9856SOL    HW230425   2.695   7.255   3.180  0.2461 -0.5726 -0.8225
 9857SOL     OW30426   1.349   6.148   7.234  0.0832 -0.1918  0.3348
 9857SOL    HW130427   1.414   6.199   7.282 -0.8312 -0.9833  2.5474
 9857SOL    HW230428   1.355   6.179   7.143  2.1033  1.1602  0.8792
 9858SOL     OW30429   5.028   7.560   7.019 -0.8411  0.1977 -0.3946
 9858SOL    HW130430   5.053   7.589   6.931 -1.8599 -2.4502 -1.6799
 9858SOL    HW230431   5.097   7.499   7.045 -1.1917 -0.0048  0.0780
 9859SOL     OW30432   4.031   3.391   4.329  0.1773 -0.3269 -0.2494
 9859SOL    HW130433   4.042   3.417   4.420  0.0962 -1.2839  0.0393
 9859SOL    HW230434   3.941   3.360   4.322  0.4373 -1.0847 -0.4295
 9860SOL     OW30435   4.593   5.287   0.136 -0.2930 -0.0923 -0.0320
 9860SOL    HW130436   4.513   5.273   0.187 -0.3086 -0.1593 -0.0744
 9860SOL    HW230437   4.631   5.367   0.172 -0.5850  0.1607 -0.2738
 9861SOL     OW30438   2.187   1.618   2.814  0.6910 -0.3848  0.0215
 9861SOL    HW130439   2.134   1.541   2.798 -0.2433  0.0957  0.7280
 9861SOL    HW230440   2.128   1.692   2.796  0.9320  0.1566  1.3477
 9862SOL     OW30441   3.960   5.727   3.663  0.3547  0.6194 -0.1328
 9862SOL    HW130442   4.029   5.793   3.662  0.1421  0.8408 -0.3965
 9862SOL    HW230443   4.004   5.646   3.689  0.3902  1.1003  1.3871
 9863SOL     OW30444   3.375   5.058   3.175  0.0480 -0.2007  0.1595
 9863SOL    HW130445   3.314   5.056   3.101 -0.2426 -0.8639  0.4122
 9863SOL    HW230446   3.406   5.149   3.177 -0.5156  0.0132 -0.3124
 9864SOL     OW30447   4.922   6.922   0.069 -0.3943 -0.2417  0.0455
 9864SOL    HW130448   4.889   6.941  -0.019 -1.8616  3.0478  1.1399
 9864SOL    HW230449   4.847   6.886   0.115 -0.8268  1.6186  0.9021
 9865SOL     OW30450   1.626   3.221   4.534 -0.5251 -0.1835  0.4172
 9865SOL    HW130451   1.653   3.167   4.459 -0.0041 -0.5580  0.8662
 9865SOL    HW230452   1.707   3.261   4.566 -0.7612  0.0729  0.7037
 9866SOL     OW30453   0.388   5.804   0.056  0.0478  0.2042  0.0725
 9866SOL    HW130454   0.479   5.795   0.028  0.3966  1.9985  0.5141
 9866SOL    HW230455   0.393   5.824   0.150 -0.8563 -0.5661  0.3048
 9867SOL     OW30456   0.825   3.029   1.705 -0.8291  0.2909  0.1085
 9867SOL    HW130457   0.822   2.971   1.629 -1.5799 -0.0183  0.3689
 9867SOL    HW230458   0.793   3.113   1.673  1.0885  0.8501 -0.4913
 9868SOL     OW30459   2.538   1.268   1.520 -0.0765  0.1623 -0.4007
 9868SOL    HW130460   2.466   1.316   1.479  0.2726  1.0806  0.0341
 9868SOL    HW230461   2.568   1.206   1.453 -0.5525  0.5360 -0.9584
 9869SOL     OW30462   3.290   2.481   4.840  0.3480  0.9344 -0.5980
 9869SOL    HW130463   3.261   2.557   4.890  1.6987  0.0514  1.6603
 9869SOL    HW230464   3.332   2.519   4.762  0.9954  2.5335  0.4769
 9870SOL     OW30465   1.274   3.146   7.896  0.5090 -0.3885  0.8724
 9870SOL    HW130466   1.310   3.143   7.985  0.1076 -1.9645  0.9972
 9870SOL    HW230467   1.205   3.212   7.901 -0.3081 -1.3037  2.0562
 9871SOL     OW30468   5.819   4.218   0.173  0.8445 -0.3851 -0.7579
 9871SOL    HW130469   5.808   4.285   0.240 -0.1510 -1.6057  0.3853
 9871SOL    HW230470   5.879   4.256   0.109  0.9629  1.2430  0.2670
 9872SOL     OW30471   5.472   2.310   7.411 -0.4558  0.1788 -0.1305
 9872SOL    HW130472   5.534   2.243   7.381 -2.4817 -1.1047 -1.7319
 9872SOL    HW230473   5.527   2.377   7.451  1.7665 -1.9935  0.7535
 9873SOL     OW30474   6.706   3.740   5.519 -0.2095  0.3367 -0.3887
 9873SOL    HW130475   6.668   3.828   5.514  0.7685  0.8551  0.6907
 9873SOL    HW230476   6.704   3.708   5.429 -1.0478  1.2532 -0.7259
 9874SOL     OW30477   7.455   7.833   2.968 -0.2793 -0.7374  0.2323
 9874SOL    HW130478   7.360   7.820   2.964 -0.5863  0.8626  1.4190
 9874SOL    HW230479   7.481   7.791   3.051 -0.0275 -0.7085  0.1693
 9875SOL     OW30480   3.072   0.683   2.214 -0.2765  0.0441  0.0034
 9875SOL    HW130481   3.143   0.745   2.199  0.2939 -0.8269 -1.0916
 9875SOL    HW230482   2.992   0.733   2.197  0.1304  0.6770 -0.0878
 9876SOL     OW30483   2.724   5.982   1.007 -0.2126 -0.4142  0.0684
 9876SOL    HW130484   2.812   6.014   0.988  0.1754 -0.6511  1.3602
 9876SOL    HW230485   2.685   6.050   1.061 -0.8049 -0.3560 -0.4185
 9877SOL     OW30486   0.888   5.199   2.258 -0.7946 -0.1232  0.2825
 9877SOL    HW130487   0.978   5.224   2.237  0.2150 -2.1370  1.7942
 9877SOL    HW230488   0.860   5.261   2.326  0.4208 -0.9587  1.6005
 9878SOL     OW30489   6.067   4.277   4.817  0.0031 -0.2132  0.6845
 9878SOL    HW130490   6.131   4.348   4.827  0.5995 -0.5587 -0.4850
 9878SOL    HW230491   6.119   4.202   4.788 -1.0451 -0.1715 -1.5518
 9879SOL     OW30492   2.833   6.200   0.734 -0.0088  0.5031  0.3272
 9879SOL    HW130493   2.924   6.230   0.739  0.3586 -0.6883  1.2385
 9879SOL    HW230494   2.787   6.255   0.797  0.0483  1.1689 -0.1965
 9880SOL     OW30495   1.803   5.254   0.261  0.3857 -0.6047 -0.4713
 9880SOL    HW130496   1.787   5.188   0.194 -1.5573 -3.5439  2.5922
 9880SOL    HW230497   1.719   5.300   0.270  1.0425  0.7544 -0.9162
 9881SOL     OW30498   0.160   2.722   2.835  0.4570 -0.3199 -0.1953
 9881SOL    HW130499   0.162   2.703   2.928  0.0434 -0.7596 -0.2774
 9881SOL    HW230500   0.104   2.799   2.827 -0.7639 -1.1878 -0.2338
 9882SOL     OW30501   1.372   1.028   0.784 -0.0855  0.1426 -0.0555
 9882SOL    HW130502   1.404   0.988   0.703  0.9960  1.7259 -0.4649
 9882SOL    HW230503   1.305   1.090   0.754  0.5902  1.0146  0.1925
 9883SOL     OW30504   0.774   2.392   4.104  0.4074  0.9303 -0.5983
 9883SOL    HW130505   0.704   2.398   4.169  0.8981 -0.1803  0.0520
 9883SOL    HW230506   0.740   2.441   4.029 -2.3089 -1.7181 -1.3373
 9884SOL     OW30507   2.244   7.155   2.335 -0.0271 -0.7641  0.2905
 9884SOL    HW130508   2.301   7.105   2.393  0.0437  0.4152  1.2896
 9884SOL    HW230509   2.156   7.122   2.352  0.1444 -1.3315  0.0878
 9885SOL     OW30510   0.222   5.123   2.794  0.2948 -0.2230 -0.3284
 9885SOL    HW130511   0.197   5.214   2.775  0.5425  0.4138  1.9961
 9885SOL    HW230512   0.315   5.119   2.773  0.2798  0.0590 -0.4617
 9886SOL     OW30513   4.524   7.079   0.893 -0.1500  0.0221 -0.0702
 9886SOL    HW130514   4.446   7.123   0.857 -0.6165 -1.3957 -0.8780
 9886SOL    HW230515   4.548   7.015   0.826  0.4194 -1.0489  1.1223
 9887SOL     OW30516   6.283   7.715   7.761  0.3084  0.0239  0.1700
 9887SOL    HW130517   6.211   7.767   7.724  1.4175  1.4248 -0.1408
 9887SOL    HW230518   6.243   7.662   7.830 -0.9336  1.1325  0.3317
 9888SOL     OW30519   4.081   1.710   4.997  0.1258  0.3833  0.2106
 9888SOL    HW130520   4.137   1.786   5.007  0.4267  0.0616  1.1016
 9888SOL    HW230521   4.116   1.663   4.921 -0.1025  1.1591 -0.3789
 9889SOL     OW30522   6.547   0.685   6.583  0.3606 -0.0798 -0.2300
 9889SOL    HW130523   6.524   0.603   6.539 -1.8353  0.8894 -1.0046
 9889SOL    HW230524   6.534   0.753   6.517  1.2383  1.0171  0.6777
 9890SOL     OW30525   7.758   1.168   1.644 -0.2330  0.2088  0.3601
 9890SOL    HW130526   7.745   1.260   1.624  0.8095 -0.1764 -2.5234
 9890SOL    HW230527   7.829   1.140   1.586 -1.2809 -2.6606  0.2725
 9891SOL     OW30528   3.584   1.367   1.744  0.0860 -0.1442 -0.5880
 9891SOL    HW130529   3.550   1.401   1.826  2.0414 -0.3988  0.3925
 9891SOL    HW230530   3.640   1.437   1.710 -0.1939 -0.2897 -1.3724
 9892SOL     OW30531   5.571   0.927   0.192  0.2339  0.2040 -0.2904
 9892SOL    HW130532   5.585   1.018   0.165 -0.3558  0.6969  1.0068
 9892SOL    HW230533   5.659   0.889   0.195  0.5780  1.0149  0.0926
 9893SOL     OW30534   3.531   0.854   3.833  0.8073  0.3578  0.1812
 9893SOL    HW130535   3.588   0.892   3.767 -0.1380 -0.2998 -1.0534
 9893SOL    HW230536   3.520   0.763   3.807  1.1424 -0.1627  1.7714
 9894SOL     OW30537   0.680   2.249   1.809  0.2184 -0.1163 -0.1941
 9894SOL    HW130538   0.726   2.314   1.862  2.2589 -0.4561 -1.3999
 9894SOL    HW230539   0.688   2.282   1.719 -0.5084 -1.0163 -0.6070
 9895SOL     OW30540   6.724   6.084   7.283 -0.2173  0.1627  0.6363
 9895SOL    HW130541   6.633   6.059   7.297 -0.1963  1.2623  3.3101
 9895SOL    HW230542   6.723   6.180   7.289  1.0544  0.2205  0.2213
 9896SOL     OW30543   4.415   5.868   6.714 -0.4260  0.4191 -0.0024
 9896SOL    HW130544   4.456   5.870   6.801 -0.4810 -1.3868  0.1111
 9896SOL    HW230545   4.483   5.832   6.657 -1.0822 -0.3949 -0.2791
 9897SOL     OW30546   2.434   0.248   5.929 -0.1769 -0.3309  0.6863
 9897SOL    HW130547   2.514   0.297   5.946  0.3968 -1.3826  1.1270
 9897SOL    HW230548   2.414   0.206   6.013 -0.5209 -1.0329  0.2631
 9898SOL     OW30549   6.592   4.496   2.585 -0.3543  0.0370  0.1240
 9898SOL    HW130550   6.592   4.534   2.673  2.5504  0.2354  0.1201
 9898SOL    HW230551   6.551   4.563   2.531  0.7481  1.3449  0.8429
 9899SOL     OW30552   0.297   6.619   1.325 -0.4858 -0.5451  0.1581
 9899SOL    HW130553   0.340   6.537   1.300  0.3615 -0.3441  0.8862
 9899SOL    HW230554   0.342   6.686   1.274 -0.0256 -0.3517  0.8015
 9900SOL     OW30555   3.924   5.652   4.602 -0.3184 -0.3777  1.0266
 9900SOL    HW130556   3.915   5.583   4.669  1.3053  0.1118  1.8054
 9900SOL    HW230557   3.920   5.734   4.652  1.0511 -0.0076  0.5665
 9901SOL     OW30558   0.357   7.430   7.714  0.2195 -0.2728  0.4062
 9901SOL    HW130559   0.262   7.435   7.723  0.1736 -0.0378 -0.1410
 9901SOL    HW230560   0.375   7.474   7.631  0.6697 -1.6900 -0.2617
 9902SOL     OW30561   1.410   5.174   0.566 -0.2922 -0.7944 -0.5647
 9902SOL    HW130562   1.325   5.148   0.531 -0.4438 -1.2359  0.1065
 9902SOL    HW230563   1.390   5.227   0.643  0.0327 -0.9935 -0.3363
 9903SOL     OW30564   4.195   7.828   2.985 -0.2117  0.4314 -0.0986
 9903SOL    HW130565   4.233   7.761   3.042  0.0484 -0.1736 -0.9689
 9903SOL    HW230566   4.108   7.794   2.962  0.0471  0.2396 -0.7984
 9904SOL     OW30567   6.010   0.342   3.537 -0.1749 -0.0651 -0.2297
 9904SOL    HW130568   5.993   0.249   3.528 -0.4012 -0.0206 -0.2569
 9904SOL    HW230569   5.975   0.382   3.458  2.2380 -0.2466 -1.4786
 9905SOL     OW30570   6.256   3.819   2.172 -0.0623 -0.4542 -0.0323
 9905SOL    HW130571   6.325   3.796   2.234  0.1759 -1.9010 -0.8084
 9905SOL    HW230572   6.190   3.750   2.182 -0.3233 -0.3515 -0.9422
 9906SOL     OW30573   0.649   5.174   3.208 -0.7307 -0.2358  0.4402
 9906SOL    HW130574   0.661   5.265   3.237  1.0155  0.1778 -1.3246
 9906SOL    HW230575   0.654   5.179   3.113  2.1928 -2.4534  0.3381
 9907SOL     OW30576   1.224   7.711   2.229  0.3351  0.3044  0.1011
 9907SOL    HW130577   1.252   7.790   2.275  0.6851  0.6147 -0.6263
 9907SOL    HW230578   1.306   7.667   2.204  0.1531  0.2688 -0.4411
 9908SOL     OW30579   1.650   3.391   7.746  0.2970  0.1269 -0.6668
 9908SOL    HW130580   1.722   3.344   7.788  0.1317  0.6568  0.2598
 9908SOL    HW230581   1.676   3.483   7.750 -1.0007  0.4725  0.9220
 9909SOL     OW30582   2.584   0.585   2.933  0.1135 -0.0387  0.1381
 9909SOL    HW130583   2.654   0.609   2.872 -0.1915  0.7871  0.0970
 9909SOL    HW230584   2.505   0.621   2.893 -0.2907 -0.6571  0.3614
 9910SOL     OW30585   7.425   6.018   4.229  0.3786  0.2817 -0.1054
 9910SOL    HW130586   7.492   5.977   4.285 -1.6483 -2.3958  0.5454
 9910SOL    HW230587   7.462   6.012   4.141  1.2766 -0.5584  0.2974
 9911SOL     OW30588   7.589   7.679   5.093 -0.1921 -0.5349 -0.1187
 9911SOL    HW130589   7.517   7.669   5.155  0.3235 -0.3951  0.5049
 9911SOL    HW230590   7.584   7.770   5.063 -0.6493 -0.6976 -0.5509
 9912SOL     OW30591   2.568   3.948   6.677  0.8741 -0.5200 -0.3020
 9912SOL    HW130592   2.596   4.039   6.669 -0.7123  0.3441  2.6294
 9912SOL    HW230593   2.603   3.905   6.599  2.0104  2.4874 -1.5838
 9913SOL     OW30594   1.499   3.889   3.648  0.1058  0.3417  0.2957
 9913SOL    HW130595   1.493   3.798   3.676 -0.4902  0.4023  0.3887
 9913SOL    HW230596   1.567   3.927   3.704 -0.2165  0.1553  0.8231
 9914SOL     OW30597   4.431   3.339   5.769  0.1831  0.0082  0.0838
 9914SOL    HW130598   4.449   3.394   5.693  0.4807 -1.5088 -0.9767
 9914SOL    HW230599   4.512   3.341   5.820  0.7636 -0.7427 -0.7903
 9915SOL     OW30600   7.095   0.375   6.796  0.6695 -0.1115 -0.7705
 9915SOL    HW130601   7.133   0.446   6.744  0.7780  1.8951  1.8317
 9915SOL    HW230602   7.161   0.306   6.794  1.9646  1.0817 -0.9342
 9916SOL     OW30603   5.646   4.547   3.442  0.1931 -0.4444 -0.1660
 9916SOL    HW130604   5.553   4.559   3.459  0.2721 -0.3726  0.2352
 9916SOL    HW230605   5.677   4.494   3.516  0.4825 -0.4101 -0.2599
 9917SOL     OW30606   3.034   6.011   1.432 -0.0259 -0.3856 -0.0557
 9917SOL    HW130607   3.037   5.965   1.516  0.5373 -0.7309 -0.2662
 9917SOL    HW230608   3.022   6.103   1.457  0.8014 -0.4010  0.4234
 9918SOL     OW30609   5.932   6.545   6.470  0.2042 -0.2481  0.6408
 9918SOL    HW130610   5.896   6.632   6.487  0.7791 -0.1060  1.1703
 9918SOL    HW230611   5.858   6.494   6.437 -0.5108 -0.0010  1.8184
 9919SOL     OW30612   3.108   6.071   7.462  0.6140  0.6060  0.1779
 9919SOL    HW130613   3.182   6.011   7.467  0.6897  0.5868 -1.0778
 9919SOL    HW230614   3.074   6.073   7.552  0.6621 -1.2462  0.2812
 9920SOL     OW30615   4.564   4.957   2.178  0.5766  0.6731 -0.5347
 9920SOL    HW130616   4.594   5.001   2.257  1.1759  0.7377 -0.7985
 9920SOL    HW230617   4.480   4.917   2.204  0.1861  1.6773 -0.2101
 9921SOL     OW30618   1.197   6.645   7.830  0.2290 -0.1880 -0.5274
 9921SOL    HW130619   1.196   6.716   7.766 -1.7343 -0.8051 -1.2506
 9921SOL    HW230620   1.147   6.678   7.904  2.5772  0.5615  0.8208
 9922SOL     OW30621   0.830   2.781   4.660 -0.0794  0.6050 -0.1901
 9922SOL    HW130622   0.851   2.691   4.636  0.7972  0.5737  0.6451
 9922SOL    HW230623   0.748   2.800   4.614 -1.1498 -1.1522  0.8856
 9923SOL     OW30624   1.821   4.228   0.302  0.0341  0.2424  0.4050
 9923SOL    HW130625   1.909   4.245   0.336  0.3268  0.2953 -0.3686
 9923SOL    HW230626   1.800   4.140   0.332  0.7127 -0.1189 -0.1590
 9924SOL     OW30627   5.725   0.547   6.511 -0.3778  0.2982 -0.7541
 9924SOL    HW130628   5.668   0.586   6.577 -0.9375 -0.1144 -0.9855
 9924SOL    HW230629   5.669   0.537   6.434  0.5457  1.7967 -1.6742
 9925SOL     OW30630   0.690   1.160   7.329 -0.4164 -0.1267 -0.8869
 9925SOL    HW130631   0.677   1.077   7.374 -0.5839  1.1126  1.5155
 9925SOL    HW230632   0.624   1.218   7.366  1.5032  1.8576 -0.3279
 9926SOL     OW30633   5.376   5.209   3.408  0.2871 -0.0304  0.3213
 9926SOL    HW130634   5.379   5.207   3.503  0.2039  1.1025  0.3615
 9926SOL    HW230635   5.466   5.194   3.381  0.3530 -0.1178  0.5862
 9927SOL     OW30636   2.243   6.019   6.693 -0.1644 -0.1019  0.0814
 9927SOL    HW130637   2.183   5.972   6.635 -0.3704  0.2937 -0.0342
 9927SOL    HW230638   2.210   6.109   6.694 -1.7563 -0.5924  2.8782
 9928SOL     OW30639   0.865   3.830   4.188 -0.0564  0.4187  0.2206
 9928SOL    HW130640   0.912   3.849   4.269  1.5056 -1.8715 -0.0308
 9928SOL    HW230641   0.880   3.907   4.133  1.9449  0.5288  0.8276
 9929SOL     OW30642   4.847   4.533   3.615  0.4957  0.0521 -0.1595
 9929SOL    HW130643   4.778   4.515   3.550  1.8924  0.2339 -1.7544
 9929SOL    HW230644   4.819   4.485   3.693 -1.7751  0.6597 -0.5124
 9930SOL     OW30645   7.245   7.845   2.728 -0.5670  0.0081 -0.5178
 9930SOL    HW130646   7.153   7.840   2.756 -1.4614  1.0581 -3.0618
 9930SOL    HW230647   7.274   7.932   2.754 -0.6541  0.1126 -0.7735
 9931SOL     OW30648   6.006   3.146   1.189  0.1518  0.0124 -0.2954
 9931SOL    HW130649   6.031   3.182   1.274  0.4064  0.9264 -0.7431
 9931SOL    HW230650   5.910   3.147   1.190  0.0770  2.6687 -1.0417
 9932SOL     OW30651   2.019   7.817   6.674  0.3526 -0.1534 -0.6138
 9932SOL    HW130652   2.042   7.895   6.724 -0.7503 -0.3058  0.1703
 9932SOL    HW230653   2.102   7.771   6.661  0.7711  0.3080  0.3507
 9933SOL     OW30654   1.522   3.850   4.735 -0.2061 -0.1163  0.2556
 9933SOL    HW130655   1.475   3.933   4.727  0.6492  0.2494 -1.4526
 9933SOL    HW230656   1.515   3.811   4.648  1.5486 -0.6460  0.3234
 9934SOL     OW30657   1.012   1.776   0.489  0.6150  0.0428 -0.5548
 9934SOL    HW130658   1.031   1.714   0.419  1.4643 -0.4774  0.1104
 9934SOL    HW230659   1.094   1.824   0.501  0.5511 -0.0304  0.2231
 9935SOL     OW30660   5.270   0.192   0.910 -0.2354  0.4747  0.0718
 9935SOL    HW130661   5.220   0.190   0.992 -1.0153  2.4977 -0.2871
 9935SOL    HW230662   5.351   0.237   0.933  0.2300 -0.3447  0.0534
 9936SOL     OW30663   7.164   3.483   6.737 -0.2959  0.3562 -0.5720
 9936SOL    HW130664   7.159   3.421   6.664 -2.0297  0.6806 -0.7622
 9936SOL    HW230665   7.258   3.504   6.745 -0.1721  1.2252 -3.4512
 9937SOL     OW30666   4.894   7.202   3.352 -0.1698  0.1760  0.0495
 9937SOL    HW130667   4.846   7.188   3.270  0.0547  0.3442 -0.1114
 9937SOL    HW230668   4.955   7.128   3.356  0.2802  0.5310 -0.2681
 9938SOL     OW30669   7.687   1.828   5.330 -0.2820 -0.1601  0.4629
 9938SOL    HW130670   7.604   1.794   5.365 -1.2890  1.5627 -0.1558
 9938SOL    HW230671   7.671   1.921   5.317  0.8691 -0.2425 -2.1637
 9939SOL     OW30672   0.626   5.404   4.623 -0.1388 -0.0865  0.4991
 9939SOL    HW130673   0.630   5.418   4.528 -0.7272 -0.5041  0.4072
 9939SOL    HW230674   0.535   5.423   4.646 -0.0524 -0.2006  0.9448
 9940SOL     OW30675   5.261   5.919   0.988 -0.0395  0.5480  0.3202
 9940SOL    HW130676   5.270   5.824   0.990  0.3474  0.5820  0.1767
 9940SOL    HW230677   5.297   5.948   1.072 -0.0196  0.5819  0.2996
 9941SOL     OW30678   3.095   0.387   3.322 -0.3749  0.6687  0.1186
 9941SOL    HW130679   3.186   0.410   3.340 -0.0936  1.3186 -1.8537
 9941SOL    HW230680   3.053   0.385   3.408  1.0162  2.5230  0.9115
 9942SOL     OW30681   5.460   3.301   0.664  0.3174  0.2432 -0.2197
 9942SOL    HW130682   5.459   3.209   0.638 -1.8081  0.2077 -0.1563
 9942SOL    HW230683   5.480   3.348   0.583  0.3592 -0.2058 -0.4775
 9943SOL     OW30684   7.395   3.818   4.092 -0.7657 -0.6976  0.1179
 9943SOL    HW130685   7.404   3.897   4.145 -0.2820 -0.5545 -0.1712
 9943SOL    HW230686   7.338   3.761   4.144 -0.1446 -0.6385  0.8762
 9944SOL     OW30687   4.178   6.875   3.185  0.3125 -0.1445 -0.4845
 9944SOL    HW130688   4.173   6.794   3.237  1.9176 -0.8461 -1.3325
 9944SOL    HW230689   4.223   6.849   3.104 -1.6622  1.0146 -2.0531
 9945SOL     OW30690   7.108   3.729   0.046  0.0456 -0.0197  0.0507
 9945SOL    HW130691   7.151   3.813   0.031 -0.0062  0.2922  1.4317
 9945SOL    HW230692   7.180   3.665   0.050  0.3251  0.3361  1.2920
 9946SOL     OW30693   6.688   7.434   3.005 -0.5430  0.0377 -0.4475
 9946SOL    HW130694   6.691   7.338   3.006  0.5328  0.0407 -1.2374
 9946SOL    HW230695   6.663   7.459   3.094  0.5650 -0.9483  0.1748
 9947SOL     OW30696   3.519   6.380   2.315 -0.3876 -0.7290 -0.2284
 9947SOL    HW130697   3.459   6.332   2.257 -1.3696  1.4787 -1.1423
 9947SOL    HW230698   3.588   6.411   2.257  1.1396 -2.2997  0.6349
 9948SOL     OW30699   2.232   5.845   4.372 -0.5049 -0.1778  0.6678
 9948SOL    HW130700   2.151   5.896   4.366 -0.8151 -0.6916  0.3637
 9948SOL    HW230701   2.284   5.890   4.438 -1.1442  0.0227  1.0469
 9949SOL     OW30702   2.527   5.922   3.879  0.0314  0.0651 -0.1586
 9949SOL    HW130703   2.503   5.841   3.834 -2.0865  0.5983 -0.1128
 9949SOL    HW230704   2.610   5.948   3.840  1.0899 -2.4029  0.2358
 9950SOL     OW30705   2.211   0.114   5.493  0.0125 -0.3889  0.5307
 9950SOL    HW130706   2.202   0.092   5.586  1.5099  1.4624  1.1808
 9950SOL    HW230707   2.222   0.029   5.450  0.5955 -1.2264  2.2176
 9951SOL     OW30708   4.742   6.630   6.852  0.2199  0.0538  0.6795
 9951SOL    HW130709   4.700   6.635   6.765  0.8028  0.6359  0.4241
 9951SOL    HW230710   4.763   6.721   6.873  0.8666 -0.1771  1.0488
 9952SOL     OW30711   5.460   7.071   0.466 -0.1223 -0.5674 -0.4480
 9952SOL    HW130712   5.381   7.122   0.448 -1.6479 -1.3773  3.0847
 9952SOL    HW230713   5.449   6.990   0.417 -2.6204 -1.5293  1.4882
 9953SOL     OW30714   5.203   0.196   3.677  0.8204  0.4224 -0.0428
 9953SOL    HW130715   5.158   0.278   3.695 -1.1633  0.0338 -2.6509
 9953SOL    HW230716   5.138   0.128   3.694  2.0210 -0.5569  0.8207
 9954SOL     OW30717   7.640   1.204   4.901  0.1489 -0.4452  0.2997
 9954SOL    HW130718   7.600   1.162   4.976 -2.2861 -0.7754 -1.0816
 9954SOL    HW230719   7.646   1.296   4.926 -0.3048 -0.6021  1.0277
 9955SOL     OW30720   4.025   6.600   0.231 -0.8276  0.2307 -0.5411
 9955SOL    HW130721   4.098   6.607   0.169  0.7359 -0.0348  1.1596
 9955SOL    HW230722   3.951   6.572   0.178  0.4715 -0.1966 -2.2430
 9956SOL     OW30723   5.052   2.357   7.713  0.3357 -0.1653 -0.4867
 9956SOL    HW130724   5.048   2.289   7.645 -0.6787 -1.7567  1.0797
 9956SOL    HW230725   4.962   2.390   7.717  0.0748 -0.9484  0.8566
 9957SOL     OW30726   5.650   7.068   6.798 -0.3663  0.1037 -0.0999
 9957SOL    HW130727   5.565   7.106   6.775  0.1867  0.0909 -2.4957
 9957SOL    HW230728   5.705   7.143   6.818  0.0721  0.5095 -2.4778
 9958SOL     OW30729   2.681   0.721   6.293  0.1286  0.5025  0.0282
 9958SOL    HW130730   2.620   0.693   6.361 -0.0959 -0.5441 -0.5721
 9958SOL    HW230731   2.764   0.736   6.338 -0.3085  0.9418  0.6952
 9959SOL     OW30732   3.013   4.472   1.619  0.4919 -1.0304  0.4934
 9959SOL    HW130733   3.056   4.471   1.705  1.0833  0.1823  0.2366
 9959SOL    HW230734   3.084   4.456   1.557  0.7756  1.6332  0.0181
 9960SOL     OW30735   6.650   3.725   4.584 -0.0324 -0.1741 -0.0940
 9960SOL    HW130736   6.599   3.799   4.550  0.4248  0.3113  0.2510
 9960SOL    HW230737   6.713   3.765   4.644 -0.4361 -0.9485  0.8793
 9961SOL     OW30738   5.736   5.021   6.154 -0.3287  0.1069 -0.0903
 9961SOL    HW130739   5.794   5.096   6.166 -1.9775  1.4658 -0.3321
 9961SOL    HW230740   5.669   5.030   6.222 -0.8673 -0.8424 -0.4699
 9962SOL     OW30741   1.404   2.997   5.392 -0.0494 -0.5487 -0.2746
 9962SOL    HW130742   1.378   3.040   5.311  1.1903 -1.9790 -1.4929
 9962SOL    HW230743   1.347   3.035   5.459 -3.2386 -1.4501 -2.2702
 9963SOL     OW30744   2.588   0.764   1.159  0.3156  0.9312 -0.2481
 9963SOL    HW130745   2.651   0.742   1.090 -1.2662 -0.5887 -1.3053
 9963SOL    HW230746   2.601   0.697   1.226 -0.5074  0.2561 -0.7357
 9964SOL     OW30747   4.601   0.766   3.070  0.0613 -0.4297 -0.2235
 9964SOL    HW130748   4.579   0.726   2.987 -2.2140  1.5335 -0.6752
 9964SOL    HW230749   4.573   0.703   3.136 -0.6858 -0.8402 -0.9229
 9965SOL     OW30750   0.907   2.498   7.796 -0.0416 -0.1688  0.2790
 9965SOL    HW130751   0.944   2.522   7.881  1.1754 -0.2393 -0.2048
 9965SOL    HW230752   0.816   2.476   7.814 -0.8014  3.0440  1.0701
 9966SOL     OW30753   7.641   1.474   5.940  0.2980 -0.0259 -0.2033
 9966SOL    HW130754   7.555   1.436   5.922  0.5451 -0.7670  0.1209
 9966SOL    HW230755   7.661   1.528   5.864 -0.6479  0.5138 -0.0759
 9967SOL     OW30756   7.394   2.202   1.792 -0.6796 -0.2383  0.3748
 9967SOL    HW130757   7.425   2.174   1.879  0.0165  0.4927  0.3775
 9967SOL    HW230758   7.438   2.143   1.731 -1.4843 -1.0193  0.5266
 9968SOL     OW30759   4.860   7.859   2.916  0.4939  0.3566  0.1048
 9968SOL    HW130760   4.812   7.937   2.886 -0.3458  0.4653  1.6296
 9968SOL    HW230761   4.951   7.878   2.893  0.0843  1.0239 -1.0801
 9969SOL     OW30762   7.032   0.342   3.710 -0.2264 -0.4083 -0.5191
 9969SOL    HW130763   7.091   0.268   3.721  1.0576  0.8514  1.9943
 9969SOL    HW230764   6.995   0.357   3.797 -3.2076 -0.2138 -1.6948
 9970SOL     OW30765   5.288   1.044   2.331  0.1468  0.1703  0.2582
 9970SOL    HW130766   5.361   1.018   2.388  0.5605 -0.5021 -0.5596
 9970SOL    HW230767   5.325   1.044   2.243 -0.1533  2.4623  0.0906
 9971SOL     OW30768   0.231   7.573   3.693 -0.6969 -0.3432 -0.3199
 9971SOL    HW130769   0.137   7.586   3.694 -0.8892 -1.6930  0.5807
 9971SOL    HW230770   0.266   7.637   3.755 -1.1900 -1.0453  0.6865
 9972SOL     OW30771   0.679   3.960   7.837  0.0597 -0.0669 -0.0681
 9972SOL    HW130772   0.589   3.931   7.854  0.0373  1.0207  1.9531
 9972SOL    HW230773   0.727   3.879   7.822 -1.2451 -0.6678 -1.3720
 9973SOL     OW30774   2.673   4.790   4.222 -0.1940 -0.2546 -0.3546
 9973SOL    HW130775   2.762   4.823   4.234 -0.3650  0.6184 -1.3485
 9973SOL    HW230776   2.680   4.696   4.243  0.9482 -0.1957 -0.3723
 9974SOL     OW30777   5.883   5.954   5.890 -0.1116 -0.0423 -0.0732
 9974SOL    HW130778   5.871   6.044   5.919 -0.1183 -0.5875  1.7281
 9974SOL    HW230779   5.836   5.949   5.807  0.7171  1.8582 -0.7201
 9975SOL     OW30780   5.062   1.371   2.455  0.1056  0.1712  0.1649
 9975SOL    HW130781   5.063   1.276   2.464 -0.1153  0.1909  0.4173
 9975SOL    HW230782   5.065   1.386   2.361 -1.7556 -0.1283  0.0110
 9976SOL     OW30783   1.165   0.842   7.945 -0.5696  0.2651 -0.1838
 9976SOL    HW130784   1.196   0.922   7.903 -1.0044  1.4685  1.6928
 9976SOL    HW230785   1.144   0.868   8.035 -1.6806 -1.7337  0.1969
 9977SOL     OW30786   1.356   5.799   5.325 -0.4599 -0.4654 -0.5766
 9977SOL    HW130787   1.382   5.709   5.307 -0.2647 -0.3315 -0.9661
 9977SOL    HW230788   1.419   5.829   5.390 -2.6036 -1.7423  2.3364
 9978SOL     OW30789   4.429   1.075   5.478  0.2433  0.1126 -0.0928
 9978SOL    HW130790   4.379   1.156   5.483 -1.5152 -0.8955 -0.4295
 9978SOL    HW230791   4.497   1.092   5.413 -2.2091  0.3001 -2.8344
 9979SOL     OW30792   1.240   3.248   1.822  0.5907 -0.4604  0.4209
 9979SOL    HW130793   1.316   3.193   1.807 -0.3468 -1.1955 -2.0314
 9979SOL    HW230794   1.166   3.187   1.828 -0.3653  0.4049 -1.6388
 9980SOL     OW30795   6.037   1.796   4.282  0.0396  0.3501 -0.2666
 9980SOL    HW130796   6.039   1.768   4.374  0.9779 -0.3746 -0.5019
 9980SOL    HW230797   6.005   1.720   4.234 -0.9162  0.8868 -0.4947
 9981SOL     OW30798   7.322   0.646   6.901  0.1751  0.2313  0.7528
 9981SOL    HW130799   7.371   0.715   6.856  0.1028  0.5895  1.2160
 9981SOL    HW230800   7.292   0.588   6.831  0.3268  0.6131  0.3676
 9982SOL     OW30801   5.218   5.826   5.826  0.4337  0.4747 -0.6036
 9982SOL    HW130802   5.168   5.905   5.807 -0.6051  0.3448  1.4131
 9982SOL    HW230803   5.169   5.756   5.782 -0.5858  0.4982  0.4647
 9983SOL     OW30804   4.558   2.500   5.280  0.7328  0.0178 -0.3682
 9983SOL    HW130805   4.632   2.531   5.227 -0.0021  0.3384 -1.2378
 9983SOL    HW230806   4.587   2.416   5.316  1.9179  0.6525  0.1934
 9984SOL     OW30807   4.849   2.021   2.478 -0.1547  0.3617  0.1086
 9984SOL    HW130808   4.754   2.030   2.466 -0.3477 -0.1869  1.1101
 9984SOL    HW230809   4.860   2.013   2.573  1.0169  1.7044  0.1111
 9985SOL     OW30810   0.835   1.847   4.309  0.6061  0.3479  0.1149
 9985SOL    HW130811   0.875   1.806   4.386 -0.9641  1.4255  1.5879
 9985SOL    HW230812   0.815   1.936   4.338 -2.0175  0.1341 -0.8014
 9986SOL     OW30813   6.756   3.781   2.413  0.1212 -0.0454 -0.0248
 9986SOL    HW130814   6.719   3.714   2.356  0.7289  0.4948 -1.0728
 9986SOL    HW230815   6.849   3.759   2.418  0.6578  1.6071 -1.6963
 9987SOL     OW30816   0.309   1.017   5.824  0.2923  0.0509  0.0416
 9987SOL    HW130817   0.253   0.943   5.846 -1.7001  1.5118  0.2275
 9987SOL    HW230818   0.387   1.006   5.878 -0.8762 -0.8020  1.6497
 9988SOL     OW30819   1.191   3.825   5.812 -0.2001  0.3232  0.6837
 9988SOL    HW130820   1.165   3.891   5.876 -2.5994 -0.2006  0.3349
 9988SOL    HW230821   1.118   3.821   5.750  0.0071 -2.4162  0.4818
 9989SOL     OW30822   6.311   1.621   0.951 -0.4742  0.5433  0.3194
 9989SOL    HW130823   6.274   1.694   0.900 -0.7525 -0.7930 -1.5087
 9989SOL    HW230824   6.340   1.559   0.885 -1.4929 -1.6265  1.8041
 9990SOL     OW30825   4.222   4.810   2.834  0.2222 -0.0058  0.3995
 9990SOL    HW130826   4.220   4.897   2.872 -1.8970  0.7643 -1.2927
 9990SOL    HW230827   4.280   4.819   2.758  1.8262 -0.7210  1.4676
 9991SOL     OW30828   3.684   1.808   4.844 -0.4244  0.0293 -0.0064
 9991SOL    HW130829   3.663   1.717   4.824  2.0782 -0.4387 -0.8058
 9991SOL    HW230830   3.599   1.849   4.862 -1.7187 -2.1433 -0.8468
 9992SOL     OW30831   6.482   4.771   5.474 -0.6663 -0.3896  0.0127
 9992SOL    HW130832   6.425   4.786   5.399  0.9376 -0.2662 -1.2399
 9992SOL    HW230833   6.571   4.774   5.438  0.3548  2.3633  2.2895
 9993SOL     OW30834   6.317   0.860   7.651  0.2890 -0.2621  0.0576
 9993SOL    HW130835   6.385   0.895   7.710 -0.2319 -0.2352  0.6477
 9993SOL    HW230836   6.265   0.936   7.627 -0.1330 -0.4398  0.4012
 9994SOL     OW30837   2.809   2.934   6.711 -0.6408  0.4972 -0.4440
 9994SOL    HW130838   2.849   2.924   6.625 -0.5434  1.4324 -0.5202
 9994SOL    HW230839   2.750   3.008   6.702  1.3436  2.3880  0.9528
 9995SOL     OW30840   0.430   7.822   1.683 -0.5974  0.2238 -0.0479
 9995SOL    HW130841   0.362   7.791   1.743 -0.8782 -1.4115 -1.1512
 9995SOL    HW230842   0.505   7.839   1.740 -1.1837 -0.2458  0.9036
 9996SOL     OW30843   7.493   1.693   6.629  0.3836 -0.1948  0.0042
 9996SOL    HW130844   7.445   1.759   6.580  1.5513  1.3507  0.8559
 9996SOL    HW230845   7.543   1.646   6.563 -0.1551  0.0260 -0.5719
 9997SOL     OW30846   3.323   0.516   1.374 -0.0438  0.4450 -0.4218
 9997SOL    HW130847   3.275   0.590   1.338 -0.1483  0.4663 -0.2424
 9997SOL    HW230848   3.255   0.456   1.405  0.0407  0.2794 -0.5551
 9998SOL     OW30849   5.666   2.123   7.001  0.3308  0.1729  0.3204
 9998SOL    HW130850   5.583   2.170   6.988  0.2036 -0.1137  0.0939
 9998SOL    HW230851   5.672   2.113   7.096 -0.7852 -1.3766  0.2651
 9999SOL     OW30852   2.531   6.940   3.840 -0.1077  0.3824 -0.1078
 9999SOL    HW130853   2.601   6.995   3.876  1.3168 -0.9900 -0.6318
 9999SOL    HW230854   2.548   6.938   3.746  0.0328 -1.1218 -0.0759
10000SOL     OW30855   4.058   7.737   0.523 -0.0731  0.4039  0.9407
10000SOL    HW130856   4.022   7.797   0.457 -1.8711 -0.4295  1.1019
10000SOL    HW230857   3.999   7.746   0.597  1.0993  0.2619  1.9099
10001SOL     OW30858   4.840   6.558   1.741  0.1167 -0.3050  0.3509
10001SOL    HW130859   4.922   6.510   1.734  0.1565 -0.2205  0.2317
10001SOL    HW230860   4.858   6.628   1.804 -0.1172 -0.8066  0.9936
10002SOL     OW30861   4.248   6.735   6.268  0.0547  0.3599 -0.6435
10002SOL    HW130862   4.307   6.785   6.212  1.2277  1.0452  1.1022
10002SOL    HW230863   4.161   6.767   6.246  0.6126  1.7317 -0.9758
10003SOL     OW30864   0.314   2.929   1.966 -0.1617  0.0972 -0.4835
10003SOL    HW130865   0.312   2.910   1.873  0.0520  0.6687 -0.6055
10003SOL    HW230866   0.395   2.889   1.998  0.0788  0.4401 -0.6615
10004SOL     OW30867   4.735   3.818   4.388  0.6922 -0.3444 -0.1364
10004SOL    HW130868   4.808   3.789   4.443  0.6217  0.4271  0.3728
10004SOL    HW230869   4.753   3.910   4.370 -1.3324  0.5439  1.9814
10005SOL     OW30870   2.779   6.131   6.994  0.4602 -0.0496  0.1892
10005SOL    HW130871   2.873   6.145   6.987  0.6244 -0.6127  1.1106
10005SOL    HW230872   2.753   6.100   6.907  1.2133 -0.3754  0.0716
10006SOL     OW30873   1.472   7.593   2.150 -0.1511  0.0768  0.8743
10006SOL    HW130874   1.534   7.597   2.076 -1.0599  0.3524  0.1120
10006SOL    HW230875   1.528   7.580   2.226  0.7996 -0.5342  0.1087
10007SOL     OW30876   6.258   3.284   7.461 -0.2582 -0.3219 -0.0855
10007SOL    HW130877   6.335   3.257   7.411  0.7789  0.5948  0.9557
10007SOL    HW230878   6.269   3.378   7.475 -0.6018 -0.5030  1.6674
10008SOL     OW30879   0.608   4.691   2.534  0.1940  0.3374  0.1661
10008SOL    HW130880   0.531   4.658   2.487  0.2229  0.3532  0.1060
10008SOL    HW230881   0.579   4.774   2.572  0.6940  1.3084 -1.4214
10009SOL     OW30882   7.259   0.182   6.667 -0.0808  0.1175 -0.1936
10009SOL    HW130883   7.304   0.098   6.675  0.2851  0.3177 -0.1382
10009SOL    HW230884   7.250   0.196   6.573 -1.3718 -0.6334 -0.1974
10010SOL     OW30885   5.181   7.350   7.486 -0.0419 -0.2031 -0.3841
10010SOL    HW130886   5.141   7.360   7.400  0.5177  1.5725 -0.4841
10010SOL    HW230887   5.145   7.422   7.538 -2.0086 -2.4471  1.6006
10011SOL     OW30888   7.879   5.712   5.880  0.2803  0.9418  0.4084
10011SOL    HW130889   7.816   5.742   5.814 -0.6632 -0.6692  0.5145
10011SOL    HW230890   7.838   5.735   5.963  0.7251  1.5481  0.4680
10012SOL     OW30891   4.803   1.004   0.218 -0.3242 -0.1612 -0.2943
10012SOL    HW130892   4.861   0.938   0.255 -1.2550  0.3217  2.2343
10012SOL    HW230893   4.834   1.017   0.128  1.8469 -1.7108  0.1741
10013SOL     OW30894   7.613   4.001   5.544  0.9582 -0.3402 -0.0644
10013SOL    HW130895   7.633   3.977   5.453 -0.6444 -0.3310 -0.4455
10013SOL    HW230896   7.669   4.077   5.562  0.2095  0.6169 -1.5674
10014SOL     OW30897   7.596   2.808   5.593  0.5146  0.3428 -0.2188
10014SOL    HW130898   7.643   2.733   5.631  0.1199 -0.4350 -1.2068
10014SOL    HW230899   7.664   2.857   5.546  0.4543 -0.5201 -1.2479
10015SOL     OW30900   7.473   6.836   5.653  0.1515 -0.1491  0.3492
10015SOL    HW130901   7.501   6.852   5.743  2.9796  0.5847 -0.5622
10015SOL    HW230902   7.405   6.769   5.660  2.3237 -2.2951  2.8601
10016SOL     OW30903   6.532   3.081   0.669  0.6409 -0.0111 -0.4741
10016SOL    HW130904   6.605   3.042   0.717  0.8697  2.3236  1.1942
10016SOL    HW230905   6.456   3.069   0.726  0.7949  2.2455  0.2792
10017SOL     OW30906   6.397   6.425   5.482  0.2681  0.2048  0.0963
10017SOL    HW130907   6.387   6.444   5.388  2.0612  0.5245 -0.0680
10017SOL    HW230908   6.391   6.330   5.488 -1.6921  0.2740 -0.0554
10018SOL     OW30909   7.974   7.538   4.165 -0.4469  0.5574 -0.0949
10018SOL    HW130910   7.925   7.549   4.083  0.4044  0.5328 -0.6156
10018SOL    HW230911   8.064   7.560   4.143 -0.1358  0.1931  0.7535
10019SOL     OW30912   6.941   1.516   5.281 -0.2744  0.3709 -0.5063
10019SOL    HW130913   7.016   1.497   5.224  0.0094  1.8394 -0.6437
10019SOL    HW230914   6.912   1.603   5.255 -0.9595  0.5250  0.7092
10020SOL     OW30915   3.452   4.215   6.799  0.2402 -0.2886 -0.4066
10020SOL    HW130916   3.464   4.193   6.891 -0.2298  1.2255  0.0422
10020SOL    HW230917   3.357   4.215   6.786  0.1828  1.7581 -0.2679
10021SOL     OW30918   3.544   3.084   1.009 -0.6495 -0.6127  0.3740
10021SOL    HW130919   3.582   3.148   1.069 -2.2084 -0.6606  1.4802
10021SOL    HW230920   3.476   3.040   1.061 -2.3539 -0.3805 -1.5264
10022SOL     OW30921   2.054   3.850   4.848 -0.5306  0.1272 -0.2344
10022SOL    HW130922   2.001   3.866   4.926 -0.9390 -1.0829 -0.2328
10022SOL    HW230923   1.990   3.841   4.777 -0.3600 -1.3980 -0.2237
10023SOL     OW30924   4.730   6.566   2.126  0.3095  0.2067 -0.0436
10023SOL    HW130925   4.815   6.603   2.103 -0.3786  0.0977 -3.1168
10023SOL    HW230926   4.742   6.472   2.119 -0.4874  0.2341 -2.4589
10024SOL     OW30927   7.376   5.022   4.674  0.0527 -0.1841  0.5297
10024SOL    HW130928   7.445   5.080   4.706  0.1282 -0.6681  1.2659
10024SOL    HW230929   7.321   5.078   4.619  0.2094  0.5475  1.1045
10025SOL     OW30930   6.044   7.368   1.534 -0.1694  0.0524  0.1189
10025SOL    HW130931   5.995   7.447   1.514  1.1599  0.8494 -0.1050
10025SOL    HW230932   6.077   7.338   1.449 -1.4123 -1.2969  0.0583
10026SOL     OW30933   3.427   5.000   3.580 -0.0956 -0.2763 -0.4030
10026SOL    HW130934   3.483   4.927   3.555  1.3480  0.2848  1.0144
10026SOL    HW230935   3.466   5.077   3.537 -2.3538 -0.4118 -2.9760
10027SOL     OW30936   4.983   4.204   4.339 -0.6933 -0.1145 -0.3415
10027SOL    HW130937   4.988   4.229   4.246 -0.8217 -1.0328 -0.6099
10027SOL    HW230938   4.899   4.160   4.348 -0.1594 -1.1287 -0.0868
10028SOL     OW30939   7.750   5.300   5.455 -0.4131  0.2227 -0.1715
10028SOL    HW130940   7.790   5.214   5.468 -1.6890 -0.3737  0.0480
10028SOL    HW230941   7.806   5.361   5.504  0.1154 -0.5924  0.2573
10029SOL     OW30942   0.949   7.087   3.622  0.0548 -0.5412  0.2151
10029SOL    HW130943   0.925   7.135   3.701 -0.2493  0.2274 -0.3404
10029SOL    HW230944   0.867   7.079   3.573  0.1186 -1.5358  0.2386
10030SOL     OW30945   6.150   4.163   7.784  0.5061 -0.2019 -0.5404
10030SOL    HW130946   6.143   4.071   7.811  0.5003 -0.0613 -0.0498
10030SOL    HW230947   6.073   4.178   7.729  1.5158 -1.0266 -2.2596
10031SOL     OW30948   3.913   0.268   7.864 -0.7653 -0.0612  0.0401
10031SOL    HW130949   3.848   0.222   7.811 -0.4684  1.5086 -1.8167
10031SOL    HW230950   3.971   0.199   7.896 -0.8483 -1.1019 -1.8945
10032SOL     OW30951   4.114   0.220   3.912 -0.4299 -0.2196  0.1999
10032SOL    HW130952   4.089   0.134   3.948  1.2092  0.1363  2.3647
10032SOL    HW230953   4.209   0.219   3.911 -0.2229  2.4183  2.7222
10033SOL     OW30954   0.623   7.243   4.417 -0.2080 -0.6255 -0.0062
10033SOL    HW130955   0.614   7.161   4.466 -0.0342  0.0559  1.2123
10033SOL    HW230956   0.657   7.217   4.332  0.7295 -1.7421  0.6807
10034SOL     OW30957   0.523   2.325   4.788  0.2912  0.1481  0.5101
10034SOL    HW130958   0.592   2.339   4.723 -1.3430  0.0760 -1.3397
10034SOL    HW230959   0.561   2.355   4.871  2.3715  0.4752 -0.5017
10035SOL     OW30960   1.840   1.522   0.813 -0.3473  0.0774  0.4313
10035SOL    HW130961   1.791   1.544   0.734  0.2345 -1.7347 -0.4719
10035SOL    HW230962   1.788   1.559   0.884 -2.6403 -1.1219 -0.5390
10036SOL     OW30963   5.467   5.426   3.867 -0.1612 -0.3771 -0.2438
10036SOL    HW130964   5.395   5.475   3.906 -0.4524 -1.4079  0.5270
10036SOL    HW230965   5.543   5.450   3.920 -0.5759 -1.8653  1.0943
10037SOL     OW30966   5.010   1.566   4.304 -0.0149  0.1916  0.5750
10037SOL    HW130967   5.060   1.486   4.282  1.9726  1.8941 -1.6553
10037SOL    HW230968   4.949   1.576   4.231 -1.0259  0.1475  1.4081
10038SOL     OW30969   2.841   6.908   0.404  0.2973 -0.0807 -0.0486
10038SOL    HW130970   2.872   6.853   0.476  0.1048 -0.6515 -0.3947
10038SOL    HW230971   2.836   6.849   0.329  3.2035  1.0587 -1.2775
10039SOL     OW30972   3.230   4.853   4.860  0.0485 -0.6308 -0.1284
10039SOL    HW130973   3.229   4.789   4.931 -1.2676 -1.2882 -0.6991
10039SOL    HW230974   3.176   4.925   4.893 -0.0094 -0.6413 -0.1997
10040SOL     OW30975   4.340   5.349   6.907  0.7704  0.4025  0.0765
10040SOL    HW130976   4.290   5.399   6.970  0.9832 -0.1108  0.6621
10040SOL    HW230977   4.277   5.290   6.866  0.5599  0.9916 -0.4697
10041SOL     OW30978   6.873   2.525   4.321 -0.0064 -0.3825  0.2651
10041SOL    HW130979   6.821   2.459   4.275 -0.7769  0.2291  0.2403
10041SOL    HW230980   6.850   2.516   4.413 -1.7634  1.2411  0.0436
10042SOL     OW30981   3.244   7.336   6.377 -0.4191  0.0053  0.2532
10042SOL    HW130982   3.239   7.269   6.308 -0.9674  1.8338 -1.5832
10042SOL    HW230983   3.155   7.341   6.412 -0.6593  0.5667 -0.4227
10043SOL     OW30984   7.832   3.167   5.502  0.1966 -0.1577 -0.6523
10043SOL    HW130985   7.890   3.224   5.553  0.3128 -0.4070 -0.5063
10043SOL    HW230986   7.809   3.219   5.425  2.0139 -0.6869 -1.5995
10044SOL     OW30987   3.823   3.198   3.462  0.1236  0.0917  0.4392
10044SOL    HW130988   3.740   3.208   3.509 -0.2088  1.5929 -0.4163
10044SOL    HW230989   3.797   3.179   3.371  0.7024  0.9167  0.0946
10045SOL     OW30990   3.175   0.429   2.135  0.2263 -0.1789 -0.6088
10045SOL    HW130991   3.137   0.344   2.160 -0.9591  0.5785  0.2502
10045SOL    HW230992   3.123   0.493   2.182  2.5462  0.9459  0.6270
10046SOL     OW30993   6.997   5.957   1.445 -0.4686  0.0829 -0.0541
10046SOL    HW130994   6.947   5.876   1.437  0.0793 -0.3256  0.5621
10046SOL    HW230995   7.070   5.934   1.502  0.0139  0.8640 -0.3479
10047SOL     OW30996   2.603   0.056   7.737 -0.1367 -0.3921 -0.0244
10047SOL    HW130997   2.610   0.144   7.700 -0.5952 -0.7307 -0.9689
10047SOL    HW230998   2.511   0.048   7.763 -0.2440 -0.7758 -0.4834
10048SOL     OW30999   1.529   5.790   2.717  0.2402  0.0725 -0.0309
10048SOL    HW131000   1.483   5.865   2.680  0.1438 -1.0739 -2.5021
10048SOL    HW231001   1.525   5.724   2.647 -0.8468 -2.7202  2.4490
10049SOL     OW31002   6.160   3.783   3.214  0.3011 -0.1341 -0.0327
10049SOL    HW131003   6.143   3.706   3.267 -1.7978  1.4657  1.8071
10049SOL    HW231004   6.123   3.762   3.128  1.8752 -1.9826 -0.3261
10050SOL     OW31005   4.549   4.798   7.581  0.4629  0.1646  0.2379
10050SOL    HW131006   4.560   4.848   7.500  0.8661 -0.5353 -0.1527
10050SOL    HW231007   4.516   4.713   7.552 -1.5627  0.6193  0.9891
10051SOL     OW31008   0.017   4.145   6.932  0.2241 -0.0354  0.1069
10051SOL    HW131009   0.060   4.070   6.890  1.5854  0.1483  1.1092
10051SOL    HW231010   0.060   4.222   6.895  0.1375  0.1852  0.4569
10052SOL     OW31011   6.383   5.473   0.786  0.9097 -0.4960 -0.1510
10052SOL    HW131012   6.425   5.407   0.839  0.8970 -0.5967 -0.2657
10052SOL    HW231013   6.289   5.454   0.794  0.9814 -1.8525 -1.9234
10053SOL     OW31014   3.352   3.730   2.715  0.6172  0.6720  0.1407
10053SOL    HW131015   3.432   3.694   2.752  0.2269  0.3666  0.6972
10053SOL    HW231016   3.333   3.808   2.767  1.3823  1.6265 -0.9728
10054SOL     OW31017   7.651   5.843   0.386  0.0978  0.2358 -0.1350
10054SOL    HW131018   7.687   5.920   0.430  0.7633 -0.0002 -0.2647
10054SOL    HW231019   7.612   5.876   0.306  2.2700  0.1814 -1.2684
10055SOL     OW31020   7.156   4.685   1.104  0.1191  0.2959 -0.5280
10055SOL    HW131021   7.089   4.743   1.141  0.3240  0.5321 -0.5183
10055SOL    HW231022   7.218   4.745   1.062  1.1751  0.1959  0.8412
10056SOL     OW31023   5.963   5.164   2.871  0.0476  0.3940 -0.1229
10056SOL    HW131024   5.979   5.209   2.953  1.8914 -1.7178  0.7828
10056SOL    HW231025   6.036   5.189   2.815  0.7270 -0.8640  0.1613
10057SOL     OW31026   0.292   4.249   2.622 -0.6902  0.0216  1.0511
10057SOL    HW131027   0.295   4.343   2.606  0.6050 -0.0323  0.9272
10057SOL    HW231028   0.375   4.228   2.665 -0.8949 -1.0911  0.9501
10058SOL     OW31029   4.321   0.577   0.185  0.3791 -0.6253 -0.2774
10058SOL    HW131030   4.249   0.537   0.135 -0.1432  0.6479 -0.5916
10058SOL    HW231031   4.277   0.637   0.245  1.1802  0.2872 -0.5849
10059SOL     OW31032   1.049   0.017   1.199 -0.5066  0.0844  0.3012
10059SOL    HW131033   0.957   0.000   1.181  0.0469 -0.7858 -2.0707
10059SOL    HW231034   1.069   0.098   1.153 -0.3403  0.9467  1.8318
10060SOL     OW31035   2.400   7.962   6.658  0.5922  0.0281 -0.3331
10060SOL    HW131036   2.314   7.972   6.699  0.4527  2.9518 -1.0819
10060SOL    HW231037   2.459   8.016   6.711  1.3890  0.1461 -1.2893
10061SOL     OW31038   3.960   7.254   7.591 -0.5873 -0.1112  0.4342
10061SOL    HW131039   3.926   7.232   7.505  0.5821 -0.1456 -0.0421
10061SOL    HW231040   4.012   7.178   7.617  1.4939  1.0154 -0.1588
10062SOL     OW31041   1.121   3.587   7.294  0.5926 -0.2877 -0.2675
10062SOL    HW131042   1.086   3.498   7.299 -0.7867  0.2771  0.8597
10062SOL    HW231043   1.204   3.583   7.341 -0.3580 -0.6053  1.4725
10063SOL     OW31044   2.817   0.412   1.716  0.5071  0.0098  1.1085
10063SOL    HW131045   2.760   0.479   1.677 -0.4636 -0.6121  1.4304
10063SOL    HW231046   2.861   0.458   1.788  1.0839  0.7265  0.3230
10064SOL     OW31047   4.804   4.471   4.073 -0.1004 -0.2201  0.0537
10064SOL    HW131048   4.768   4.550   4.033  1.6719  0.4959 -0.2425
10064SOL    HW231049   4.795   4.403   4.006  1.8768  0.7127 -1.2496
10065SOL     OW31050   7.487   2.926   4.067 -0.2319  0.0713  0.2748
10065SOL    HW131051   7.553   2.933   3.998 -1.9185  0.3872 -1.3991
10065SOL    HW231052   7.536   2.903   4.145  2.1674  2.6045 -0.3409
10066SOL     OW31053   3.350   3.782   2.400 -0.2252 -0.2682 -0.0260
10066SOL    HW131054   3.341   3.795   2.495  0.8027  0.2160  0.0200
10066SOL    HW231055   3.436   3.743   2.389  0.1826  0.8060 -0.8429
10067SOL     OW31056   4.303   1.926   2.519 -1.4592  0.4832 -0.5612
10067SOL    HW131057   4.254   1.863   2.571 -1.3098 -0.8923 -2.0088
10067SOL    HW231058   4.283   2.011   2.558 -2.8114 -0.3167  0.5560
10068SOL     OW31059   6.554   0.632   5.157 -0.2163  0.2387  0.2489
10068SOL    HW131060   6.564   0.542   5.189  0.4636  0.4637  0.7130
10068SOL    HW231061   6.643   0.657   5.131 -0.6379  0.3043 -1.2129
10069SOL     OW31062   2.725   6.561   4.199  0.0286  0.5546 -0.4897
10069SOL    HW131063   2.738   6.482   4.252  2.1733  0.1945 -1.4288
10069SOL    HW231064   2.803   6.613   4.215 -1.2116  2.3880 -0.1330
10070SOL     OW31065   7.878   1.508   3.860 -0.0089 -0.3742 -0.2838
10070SOL    HW131066   7.931   1.582   3.829  0.3282 -0.4318  0.1496
10070SOL    HW231067   7.805   1.503   3.798 -0.4689  0.8135  0.1371
10071SOL     OW31068   1.341   6.878   2.349  0.0613  0.2787  0.2572
10071SOL    HW131069   1.380   6.920   2.272 -1.0253  1.2113  0.1890
10071SOL    HW231070   1.416   6.839   2.395  0.8598  0.6125 -0.7136
10072SOL     OW31071   2.713   0.724   3.513  0.2323 -0.3346  0.1149
10072SOL    HW131072   2.791   0.727   3.568  0.9639 -2.6406 -0.6862
10072SOL    HW231073   2.746   0.713   3.424 -0.9908 -0.6371 -0.3233
10073SOL     OW31074   1.554   4.859   4.856 -0.1845  0.8901 -0.0820
10073SOL    HW131075   1.643   4.828   4.870  0.7924  2.7052 -1.6602
10073SOL    HW231076   1.499   4.799   4.906  1.8470 -0.7228  0.3583
10074SOL     OW31077   1.350   7.384   5.065  0.1755  0.4146  0.2910
10074SOL    HW131078   1.332   7.477   5.049  0.8136  0.5494  0.3575
10074SOL    HW231079   1.445   7.376   5.058  0.2657  0.0436  1.7080
10075SOL     OW31080   7.763   1.730   4.684  0.1662 -0.2797  0.9067
10075SOL    HW131081   7.801   1.648   4.716  0.6697 -0.7270 -0.7558
10075SOL    HW231082   7.772   1.725   4.589 -2.3741  0.4421  0.5576
10076SOL     OW31083   2.137   3.879   3.979  0.0906 -0.0576  0.4140
10076SOL    HW131084   2.205   3.814   3.997 -0.2998 -0.7035 -0.4040
10076SOL    HW231085   2.186   3.960   3.964  0.7587 -0.6794 -0.9371
10077SOL     OW31086   5.860   2.749   7.556 -0.5181 -0.3490 -0.0027
10077SOL    HW131087   5.859   2.837   7.517 -1.6231  0.1612  1.1030
10077SOL    HW231088   5.921   2.755   7.629 -0.3309 -0.6101 -0.1348
10078SOL     OW31089   1.583   3.657   0.414  0.1439  0.6030  0.0926
10078SOL    HW131090   1.657   3.704   0.453  0.8373  0.0108 -0.4708
10078SOL    HW231091   1.505   3.704   0.445  0.7866  1.7901 -0.0254
10079SOL     OW31092   2.041   0.557   4.237 -0.9751  0.3141 -0.0552
10079SOL    HW131093   1.977   0.551   4.166 -0.8271  0.7630 -0.2313
10079SOL    HW231094   2.126   0.545   4.195 -0.8730  0.7638  0.0118
10080SOL     OW31095   0.664   1.124   1.237 -0.2441  0.1852 -0.5821
10080SOL    HW131096   0.601   1.078   1.182  1.2172 -1.9246 -0.6087
10080SOL    HW231097   0.727   1.162   1.175 -0.4731  0.6939 -0.4989
10081SOL     OW31098   0.048   5.280   1.425 -1.2154 -0.1660 -0.5428
10081SOL    HW131099   0.073   5.345   1.359 -0.1981 -0.2665 -0.2723
10081SOL    HW231100   0.126   5.226   1.435 -2.6046 -2.6408 -2.1468
10082SOL     OW31101   0.232   4.771   3.970 -0.0481  0.4161  0.0823
10082SOL    HW131102   0.290   4.705   3.932  1.0691  0.2066  2.0020
10082SOL    HW231103   0.156   4.721   4.001 -0.0743  0.3160 -0.1411
10083SOL     OW31104   2.762   0.761   5.084  0.6091  0.0406 -0.1720
10083SOL    HW131105   2.717   0.812   5.152  0.6530 -0.9281  0.6077
10083SOL    HW231106   2.761   0.671   5.117  1.0760 -0.3711 -1.2326
10084SOL     OW31107   0.907   5.788   6.910 -0.5464  0.0243  0.0683
10084SOL    HW131108   0.852   5.790   6.988  0.5112  0.8337  0.8225
10084SOL    HW231109   0.886   5.869   6.863 -2.4078 -1.2400 -1.4070
10085SOL     OW31110   3.793   2.099   3.559 -0.2341 -0.7516  0.2496
10085SOL    HW131111   3.830   2.023   3.515  0.4987 -0.3033  0.0746
10085SOL    HW231112   3.864   2.164   3.560 -1.5624  0.8943 -1.9251
10086SOL     OW31113   0.181   4.651   4.505  0.1420 -0.2055  0.6573
10086SOL    HW131114   0.127   4.725   4.479 -0.1001 -0.6692 -0.1843
10086SOL    HW231115   0.131   4.574   4.479  0.7482 -0.6560  0.8023
10087SOL     OW31116   2.274   3.492   4.697  0.0865  0.1679 -0.4283
10087SOL    HW131117   2.330   3.413   4.694 -1.5843 -1.0751 -0.3215
10087SOL    HW231118   2.197   3.468   4.646 -0.8555  1.4373  0.3478
10088SOL     OW31119   1.284   1.969   4.557 -0.7817 -0.0075 -0.6326
10088SOL    HW131120   1.341   1.945   4.484  2.3930 -1.9025  2.2265
10088SOL    HW231121   1.326   2.045   4.596  1.0937 -2.4833  2.5951
10089SOL     OW31122   7.628   3.326   4.739  0.0135 -0.0583  0.3338
10089SOL    HW131123   7.710   3.352   4.781  0.3972 -1.4142  0.4403
10089SOL    HW231124   7.647   3.243   4.697 -0.2978  1.3213 -2.7902
10090SOL     OW31125   2.831   4.893   7.945  0.3066  0.0419  0.0405
10090SOL    HW131126   2.807   4.881   7.853  0.3169  0.5295 -0.0269
10090SOL    HW231127   2.810   4.809   7.986 -0.1642 -0.0163 -0.3072
10091SOL     OW31128   0.200   2.566   3.880 -0.1379 -0.0955  0.1841
10091SOL    HW131129   0.288   2.532   3.864 -0.2168 -0.0516 -0.3776
10091SOL    HW231130   0.142   2.491   3.866 -0.3736  0.4097 -1.8141
10092SOL     OW31131   5.324   6.715   4.319 -0.0461 -0.1881 -0.4207
10092SOL    HW131132   5.416   6.690   4.313 -0.0715 -0.2304 -0.6454
10092SOL    HW231133   5.286   6.687   4.236  0.0910  1.2759 -1.0079
10093SOL     OW31134   1.160   1.869   2.296  0.1676 -0.2315 -0.2960
10093SOL    HW131135   1.125   1.935   2.356  1.3064  0.2746 -0.1642
10093SOL    HW231136   1.108   1.791   2.314  0.0205  0.1095  0.8473
10094SOL     OW31137   5.836   5.768   3.012  0.6304  0.6574  0.3476
10094SOL    HW131138   5.829   5.674   3.029 -2.1693  0.9962  1.5922
10094SOL    HW231139   5.902   5.774   2.943  1.5049 -2.1278  0.7868
10095SOL     OW31140   6.476   1.383   2.441  0.3369  0.1769 -0.0252
10095SOL    HW131141   6.477   1.364   2.347  0.1848  1.5135 -0.3174
10095SOL    HW231142   6.385   1.407   2.459  0.1591 -0.9669  0.6665
10096SOL     OW31143   7.134   1.987   3.388 -0.5370 -0.1602  0.3617
10096SOL    HW131144   7.217   1.944   3.371 -1.4252 -1.0676 -2.1171
10096SOL    HW231145   7.132   2.062   3.328 -1.4362 -0.0454  0.5125
10097SOL     OW31146   4.542   6.839   3.674 -0.3422 -0.2285 -0.3273
10097SOL    HW131147   4.473   6.787   3.632  1.6829 -1.2996 -2.5661
10097SOL    HW231148   4.586   6.777   3.732 -1.7910  0.7202  1.9335
10098SOL     OW31149   5.446   2.077   4.723 -0.2801 -0.1500  0.1002
10098SOL    HW131150   5.394   2.062   4.801 -0.1695 -1.6205 -0.0901
10098SOL    HW231151   5.384   2.070   4.650  0.1160 -1.7288 -0.1158
10099SOL     OW31152   1.459   6.545   5.102 -0.1886  0.0960 -0.1158
10099SOL    HW131153   1.427   6.455   5.115  1.4136 -0.4923 -0.0125
10099SOL    HW231154   1.410   6.576   5.026 -0.2781 -1.1290 -0.5904
10100SOL     OW31155   1.513   6.714   2.522  0.3350  0.1096  0.5824
10100SOL    HW131156   1.550   6.793   2.561 -0.4528  0.9108 -0.2238
10100SOL    HW231157   1.586   6.675   2.474  0.4318  1.0641 -0.0773
10101SOL     OW31158   4.224   0.619   1.825 -0.2258 -0.4801  0.4022
10101SOL    HW131159   4.184   0.598   1.909  0.6504  1.2873  1.3264
10101SOL    HW231160   4.151   0.643   1.769 -0.7292 -0.5502  1.0162
10102SOL     OW31161   6.059   5.895   1.529 -0.3995  0.2469  0.3765
10102SOL    HW131162   6.023   5.854   1.608  2.7002 -0.8592  1.3756
10102SOL    HW231163   6.089   5.821   1.476  1.4262  1.0682  0.1944
10103SOL     OW31164   4.790   7.521   3.775 -0.2236  0.8655 -0.5682
10103SOL    HW131165   4.815   7.468   3.700 -0.3731 -1.3320  0.8471
10103SOL    HW231166   4.700   7.493   3.795 -0.3613  1.7688  0.1387
10104SOL     OW31167   4.221   4.083   0.612 -0.2456 -0.4751 -0.3997
10104SOL    HW131168   4.259   4.001   0.583 -0.7132 -0.3429 -1.4298
10104SOL    HW231169   4.295   4.134   0.645 -0.0385 -1.5406  0.8665
10105SOL     OW31170   7.598   5.486   5.058 -0.0274  0.4251 -0.3599
10105SOL    HW131171   7.624   5.396   5.038  1.2146  0.9327 -1.1835
10105SOL    HW231172   7.672   5.521   5.108 -0.2996  1.1141 -0.4324
10106SOL     OW31173   0.813   1.520   1.513 -0.0792  0.0459 -0.1342
10106SOL    HW131174   0.762   1.464   1.456 -1.0008 -0.1345  0.8431
10106SOL    HW231175   0.795   1.609   1.483  1.3792 -0.1346 -1.6823
10107SOL     OW31176   2.910   4.799   0.762 -0.4564 -0.3631 -0.2964
10107SOL    HW131177   2.924   4.881   0.810 -0.8905  0.1403 -1.0179
10107SOL    HW231178   2.984   4.743   0.788 -0.3950  0.0949  0.5366
10108SOL     OW31179   6.270   3.452   4.399  0.1326  0.1905 -0.9890
10108SOL    HW131180   6.306   3.435   4.486  0.3039  1.3144 -0.8148
10108SOL    HW231181   6.244   3.366   4.366 -1.9990 -0.0664  1.0640
10109SOL     OW31182   2.086   7.703   6.037  0.1996 -0.4462  0.4433
10109SOL    HW131183   2.100   7.796   6.055 -1.7556  0.1200 -0.6537
10109SOL    HW231184   2.076   7.663   6.123 -3.3937  1.2112  0.9668
10110SOL     OW31185   4.323   7.333   5.070  0.3114 -0.2434 -0.2454
10110SOL    HW131186   4.417   7.353   5.065  0.1585  0.3923 -0.7146
10110SOL    HW231187   4.280   7.417   5.055 -0.3373 -0.6290 -0.5704
10111SOL     OW31188   0.839   5.823   5.200  0.5259 -0.2386  0.7362
10111SOL    HW131189   0.864   5.742   5.244 -1.1081 -0.4059  1.4058
10111SOL    HW231190   0.745   5.815   5.186  0.7471  0.4474 -1.5303
10112SOL     OW31191   1.418   4.945   2.902  0.4840 -0.0875  0.5767
10112SOL    HW131192   1.326   4.945   2.927  1.0205  0.4074  2.8075
10112SOL    HW231193   1.423   4.884   2.828 -1.9248  1.4229 -0.9757
10113SOL     OW31194   7.409   3.767   0.127 -0.2354 -0.3874  0.0074
10113SOL    HW131195   7.446   3.830   0.065 -0.2388 -0.0719  0.3225
10113SOL    HW231196   7.433   3.681   0.091  0.4339 -0.1939 -0.0227
10114SOL     OW31197   4.414   6.400   7.495  0.3450  0.3353  0.5334
10114SOL    HW131198   4.391   6.310   7.515  0.3453 -0.0369 -0.9699
10114SOL    HW231199   4.501   6.394   7.455 -0.0767  0.8571 -0.5117
10115SOL     OW31200   2.557   5.698   6.739 -0.1482  0.4104 -0.2190
10115SOL    HW131201   2.515   5.768   6.689 -0.4416  1.2917  1.1820
10115SOL    HW231202   2.538   5.618   6.690 -0.1026  1.2671 -1.6703
10116SOL     OW31203   3.765   4.224   6.835 -0.1016 -0.1051 -0.0120
10116SOL    HW131204   3.788   4.309   6.799 -1.4319  0.0191 -0.6021
10116SOL    HW231205   3.673   4.232   6.860 -0.0545 -1.1551  0.5767
10117SOL     OW31206   1.716   2.338   7.372  0.0398 -0.4537 -0.2329
10117SOL    HW131207   1.770   2.295   7.438 -0.2899 -0.4289  0.0584
10117SOL    HW231208   1.733   2.432   7.384 -0.8691 -0.3768  0.5810
10118SOL     OW31209   2.057   3.218   1.311 -0.4527 -0.2985  0.1314
10118SOL    HW131210   2.120   3.228   1.240  0.4480  1.5913  1.1069
10118SOL    HW231211   1.976   3.192   1.268  0.0728  0.7273 -1.5958
10119SOL     OW31212   2.657   3.400   5.378 -0.0855 -0.1327  0.3670
10119SOL    HW131213   2.643   3.438   5.465 -0.1173 -0.0709  0.3347
10119SOL    HW231214   2.646   3.473   5.317 -0.7331 -0.3133  0.2604
10120SOL     OW31215   3.565   2.520   1.525  0.6500  0.6630 -0.5725
10120SOL    HW131216   3.652   2.490   1.552  0.3333  0.7991  0.6440
10120SOL    HW231217   3.583   2.587   1.458  1.4665  0.4980 -0.5342
10121SOL     OW31218   0.941   5.982   1.351  0.2812 -0.4583 -0.0789
10121SOL    HW131219   1.035   5.996   1.339  0.2493 -0.8516 -0.8886
10121SOL    HW231220   0.932   5.961   1.444  0.9254  0.0851  0.1169
10122SOL     OW31221   0.959   2.746   6.549  0.3730 -0.0518  0.3995
10122SOL    HW131222   0.896   2.745   6.477  0.1083  0.3876  0.6181
10122SOL    HW231223   0.991   2.656   6.555 -0.5079 -0.3663  0.5240
10123SOL     OW31224   7.883   4.171   3.849  0.1695 -0.3161  0.3325
10123SOL    HW131225   7.914   4.118   3.775 -0.7032 -0.2262 -0.1196
10123SOL    HW231226   7.844   4.107   3.909  0.0879 -0.3004  0.2967
10124SOL     OW31227   5.790   7.068   1.764 -0.1057  0.3340  0.1073
10124SOL    HW131228   5.716   7.126   1.783  0.0562  1.5114 -2.4828
10124SOL    HW231229   5.824   7.099   1.681  1.1892 -2.3512 -0.4618
10125SOL     OW31230   7.780   2.007   3.261  0.1246 -0.1877 -0.0966
10125SOL    HW131231   7.723   1.942   3.303  1.0190 -1.1922 -0.3823
10125SOL    HW231232   7.869   1.975   3.279  0.5539  0.1823 -1.4585
10126SOL     OW31233   2.947   5.102   1.408 -0.1967 -0.1386  0.2139
10126SOL    HW131234   2.889   5.028   1.393  0.6403 -0.4917 -1.6718
10126SOL    HW231235   2.904   5.175   1.363  1.2159 -0.6472 -2.1555
10127SOL     OW31236   3.946   5.662   2.468 -0.0868  0.8014 -0.3167
10127SOL    HW131237   3.897   5.742   2.453 -2.2106 -0.3492  0.0872
10127SOL    HW231238   4.020   5.667   2.408  0.6372  3.6497  0.6761
10128SOL     OW31239   0.916   0.590   6.325 -0.0135  0.1036  0.2426
10128SOL    HW131240   1.005   0.622   6.337  0.0923  0.5158 -1.4030
10128SOL    HW231241   0.927   0.498   6.302  0.0671  0.3815 -0.8813
10129SOL     OW31242   7.182   3.776   1.022 -0.5415  0.0407 -0.2401
10129SOL    HW131243   7.118   3.821   1.077 -0.2907  1.1553 -0.8359
10129SOL    HW231244   7.179   3.685   1.052  0.1625  0.7262  2.1356
10130SOL     OW31245   3.977   1.417   3.529  0.1796  0.3555  0.3349
10130SOL    HW131246   3.918   1.346   3.504 -0.4812  0.1872  2.1843
10130SOL    HW231247   4.062   1.390   3.496 -0.2472 -0.8234  0.1403
10131SOL     OW31248   5.785   1.196   2.605  0.3250  0.2938  0.6444
10131SOL    HW131249   5.795   1.186   2.511 -0.1299  0.6168  0.5589
10131SOL    HW231250   5.861   1.249   2.632  0.1642  0.6656  0.3746
10132SOL     OW31251   6.218   4.687   3.972 -0.1242  0.6975 -0.8617
10132SOL    HW131252   6.256   4.684   3.884 -1.8466  1.9334 -1.6904
10132SOL    HW231253   6.139   4.740   3.963 -1.5135 -0.8882  0.9944
10133SOL     OW31254   4.430   6.022   1.444  0.1427 -0.2514 -0.6279
10133SOL    HW131255   4.517   6.010   1.481 -0.2316 -0.0301  0.3488
10133SOL    HW231256   4.407   5.937   1.407  0.3422 -0.6147  0.0647
10134SOL     OW31257   1.298   5.835   0.720  0.4804  0.4605  0.5335
10134SOL    HW131258   1.260   5.817   0.634  1.7120  0.2668  0.0234
10134SOL    HW231259   1.221   5.848   0.777 -0.3437  0.6643 -0.5921
10135SOL     OW31260   6.428   5.600   7.660 -0.6238  0.4034 -0.3797
10135SOL    HW131261   6.339   5.564   7.659 -0.8453  0.9465 -0.8878
10135SOL    HW231262   6.480   5.533   7.705 -1.3733  0.2786  0.3406
10136SOL     OW31263   7.248   3.639   4.622 -0.2190  0.3640 -0.2466
10136SOL    HW131264   7.304   3.568   4.652  0.4698  0.6343 -0.8768
10136SOL    HW231265   7.307   3.713   4.609 -0.8098  0.8303 -0.3329
10137SOL     OW31266   5.034   4.230   6.874  0.1745 -0.2780  0.2911
10137SOL    HW131267   5.073   4.278   6.948 -0.2680  0.4915  0.0367
10137SOL    HW231268   4.946   4.208   6.904  0.3347 -0.8481  0.3609
10138SOL     OW31269   6.309   0.290   6.989 -0.5104  0.2743 -0.1805
10138SOL    HW131270   6.378   0.253   6.934 -2.3980 -1.5451 -1.4732
10138SOL    HW231271   6.269   0.214   7.032 -1.8047  1.2518  0.4125
10139SOL     OW31272   4.269   3.776   6.613 -0.1358  0.0168 -0.1511
10139SOL    HW131273   4.229   3.718   6.548 -1.0165  1.5171 -0.9950
10139SOL    HW231274   4.214   3.766   6.690 -1.3754  1.0155 -0.8626
10140SOL     OW31275   3.479   1.825   1.857  0.1984  0.0988  0.2644
10140SOL    HW131276   3.410   1.775   1.815  0.4645  0.5069 -0.6944
10140SOL    HW231277   3.487   1.787   1.944  0.5721 -1.7153 -0.4992
10141SOL     OW31278   2.438   0.173   7.151 -0.1928  0.1003  0.4725
10141SOL    HW131279   2.410   0.083   7.165 -3.1989  0.9089  0.3440
10141SOL    HW231280   2.496   0.192   7.226 -0.3031 -1.6166  1.0267
10142SOL     OW31281   4.777   2.983   6.196  0.0938  0.8030  0.2059
10142SOL    HW131282   4.817   2.899   6.174  0.0207  0.9373 -0.4500
10142SOL    HW231283   4.845   3.029   6.246 -0.2183 -0.0227  1.4586
10143SOL     OW31284   5.715   7.560   6.348  0.0251 -0.2041 -0.3077
10143SOL    HW131285   5.737   7.500   6.418  0.5426  1.5287  1.0868
10143SOL    HW231286   5.798   7.580   6.305 -0.1732 -0.6202 -0.9032
10144SOL     OW31287   7.373   6.612   4.284 -0.4389  0.0004  0.3609
10144SOL    HW131288   7.330   6.688   4.324 -0.6541 -0.6245  1.3496
10144SOL    HW231289   7.301   6.556   4.256 -0.2813 -0.1555  0.2668
10145SOL     OW31290   7.524   2.327   6.725  0.5192  0.2567  0.3887
10145SOL    HW131291   7.453   2.280   6.768  1.6239  0.2046  2.2954
10145SOL    HW231292   7.586   2.258   6.699  0.4218  0.3892 -0.2072
10146SOL     OW31293   7.531   0.864   4.358  0.6275  0.1783  0.4831
10146SOL    HW131294   7.492   0.921   4.424 -2.2089 -1.3073  0.2532
10146SOL    HW231295   7.501   0.899   4.275 -0.7721 -1.2917  0.3230
10147SOL     OW31296   1.097   7.516   7.643 -0.3692 -0.3956 -0.3320
10147SOL    HW131297   1.051   7.432   7.641  0.1131 -0.9446  3.4349
10147SOL    HW231298   1.164   7.508   7.576 -0.8278 -2.7351 -0.6054
10148SOL     OW31299   0.456   6.469   0.022 -0.2011 -0.5295  0.2272
10148SOL    HW131300   0.547   6.440   0.034  0.3406  1.2777  0.9651
10148SOL    HW231301   0.430   6.500   0.109 -1.4883 -0.8652 -0.0231
10149SOL     OW31302   7.810   1.195   3.073 -0.4037 -0.0619 -0.0747
10149SOL    HW131303   7.718   1.220   3.063  0.1219  2.0368 -0.1670
10149SOL    HW231304   7.824   1.127   3.007 -2.1005 -1.1440  0.6101
10150SOL     OW31305   2.254   0.630   6.384 -0.1414  0.4251  0.6090
10150SOL    HW131306   2.186   0.580   6.429 -1.7288  0.7958 -1.2576
10150SOL    HW231307   2.207   0.696   6.334  1.6532  1.2190 -0.1137
10151SOL     OW31308   4.626   4.819   4.296 -0.5539  0.3091 -0.1339
10151SOL    HW131309   4.541   4.776   4.286  0.0374 -1.5028  1.8181
10151SOL    HW231310   4.675   4.762   4.355  2.1543  1.1564 -1.3911
10152SOL     OW31311   2.349   0.203   3.444  0.2757  0.2439  0.5759
10152SOL    HW131312   2.347   0.107   3.449  1.3544  0.1513 -0.2953
10152SOL    HW231313   2.373   0.231   3.532  1.6347 -0.3929  0.4413
10153SOL     OW31314   5.372   5.166   0.642 -0.3780 -0.3637  0.6868
10153SOL    HW131315   5.456   5.153   0.600 -1.1497 -1.6454 -0.5307
10153SOL    HW231316   5.349   5.080   0.678 -2.2301 -0.7017 -1.1121
10154SOL     OW31317   5.341   5.521   6.291 -0.2911  0.1264 -0.1791
10154SOL    HW131318   5.349   5.559   6.379  0.3363 -0.9651  0.2535
10154SOL    HW231319   5.376   5.588   6.233  0.0693  0.5317  0.4935
10155SOL     OW31320   3.397   2.042   7.819 -0.3169 -0.2211 -0.1859
10155SOL    HW131321   3.360   2.129   7.808 -0.7727 -0.5886 -1.8945
10155SOL    HW231322   3.385   2.022   7.912  0.8346  1.9548  0.5136
10156SOL     OW31323   7.854   5.414   6.660 -0.2665 -0.1017  0.5525
10156SOL    HW131324   7.765   5.439   6.634 -1.2311 -1.6160  2.1850
10156SOL    HW231325   7.853   5.319   6.659  1.3645 -0.1381  0.5995
10157SOL     OW31326   2.143   5.993   0.355  0.0238 -0.2048 -0.7656
10157SOL    HW131327   2.086   6.042   0.296  0.4322 -1.8595 -2.6690
10157SOL    HW231328   2.083   5.955   0.420 -0.3917  1.9771  0.2126
10158SOL     OW31329   7.507   7.421   1.535 -0.0169 -0.0341  0.0814
10158SOL    HW131330   7.483   7.495   1.480  0.1213 -0.4912 -0.6040
10158SOL    HW231331   7.453   7.431   1.613  0.1196  0.8773  0.0700
10159SOL     OW31332   2.189   1.239   5.428  0.3839  0.0385  0.1230
10159SOL    HW131333   2.278   1.268   5.445  1.0814 -0.3706 -2.4882
10159SOL    HW231334   2.193   1.144   5.431  0.3870 -0.0281 -1.4081
10160SOL     OW31335   1.450   7.355   4.075 -0.0813  0.3785 -0.4502
10160SOL    HW131336   1.433   7.261   4.075 -0.4802  0.4478 -1.0219
10160SOL    HW231337   1.379   7.392   4.022 -0.0256  1.0175 -0.0906
10161SOL     OW31338   1.300   1.640   7.314 -0.4225  0.2584  0.0409
10161SOL    HW131339   1.310   1.642   7.409 -0.8675  2.2443  0.0891
10161SOL    HW231340   1.342   1.721   7.284  1.0813 -1.0644 -1.6283
10162SOL     OW31341   2.011   1.494   3.172 -0.1702  0.1991  0.0145
10162SOL    HW131342   2.100   1.519   3.149 -0.6105  1.8107 -0.0388
10162SOL    HW231343   1.955   1.541   3.110 -1.1133  0.2081  0.8335
10163SOL     OW31344   5.552   3.997   4.168 -0.0259 -0.9629  0.0550
10163SOL    HW131345   5.469   4.043   4.157 -0.0027 -0.7399  0.7523
10163SOL    HW231346   5.544   3.920   4.112 -1.2184 -1.6162  1.0708
10164SOL     OW31347   2.602   1.595   5.573  0.1919  0.3153 -0.0949
10164SOL    HW131348   2.642   1.632   5.652  0.5502  0.1685 -0.2021
10164SOL    HW231349   2.617   1.501   5.581 -0.0088  0.2739 -0.2070
10165SOL     OW31350   4.508   3.294   6.162  0.1960  0.6918  0.3894
10165SOL    HW131351   4.503   3.336   6.248  0.1756  0.2964  0.5813
10165SOL    HW231352   4.576   3.343   6.115 -0.7152  1.7585  0.1569
10166SOL     OW31353   2.920   1.226   2.291  0.2742  0.7647  0.2239
10166SOL    HW131354   2.992   1.287   2.300 -0.5383  1.6355  1.0757
10166SOL    HW231355   2.938   1.157   2.355 -0.2745  1.6594  1.3986
10167SOL     OW31356   7.248   4.565   0.817 -0.1110  0.1781 -0.0915
10167SOL    HW131357   7.195   4.564   0.897 -0.6415  0.1672 -0.4471
10167SOL    HW231358   7.225   4.646   0.774 -1.7331 -0.9719 -1.5160
10168SOL     OW31359   1.973   2.147   7.092  0.5733 -0.5811 -0.3992
10168SOL    HW131360   1.882   2.121   7.106 -0.1628  1.9106 -0.1729
10168SOL    HW231361   1.970   2.208   7.019  1.8848  0.4324  0.3507
10169SOL     OW31362   4.284   5.546   4.281  0.5445  0.4357  0.0437
10169SOL    HW131363   4.290   5.562   4.186  0.2141  0.4355  0.0204
10169SOL    HW231364   4.194   5.572   4.303  0.2713 -0.5926  0.1634
10170SOL     OW31365   0.521   6.887   0.051 -0.1809 -0.0614  0.4702
10170SOL    HW131366   0.561   6.921  -0.029 -1.6932  1.0001  0.1252
10170SOL    HW231367   0.429   6.871   0.027  0.0638 -2.9886  1.0624
10171SOL     OW31368   5.257   1.509   6.464  0.2566 -0.9878  0.1057
10171SOL    HW131369   5.314   1.512   6.541  0.8703 -1.5631 -0.3188
10171SOL    HW231370   5.221   1.420   6.465  0.4217 -1.0588 -0.3846
10172SOL     OW31371   1.745   7.283   6.108  0.0325 -0.5401 -0.0821
10172SOL    HW131372   1.718   7.364   6.065  0.8934  0.1524  0.6514
10172SOL    HW231373   1.712   7.213   6.051 -2.1214  0.2657  0.0761
10173SOL     OW31374   2.619   3.584   2.059 -0.2694 -0.4878  0.1002
10173SOL    HW131375   2.607   3.669   2.100  0.8234 -0.4799  0.4553
10173SOL    HW231376   2.543   3.533   2.086  0.4095 -0.4910  2.1988
10174SOL     OW31377   1.836   7.753   4.938 -0.5720 -0.3004 -0.2101
10174SOL    HW131378   1.767   7.763   4.872 -2.4908 -2.6371  1.3049
10174SOL    HW231379   1.867   7.663   4.927 -0.2934 -0.4342  1.4400
10175SOL     OW31380   0.005   2.582   5.144 -0.1935  0.0920 -0.1253
10175SOL    HW131381   0.047   2.517   5.200 -0.1238 -0.9321 -1.3245
10175SOL    HW231382   0.029   2.666   5.183  1.7420 -0.4990  0.0884
10176SOL     OW31383   3.667   6.484   1.409  0.4275  0.0706 -0.6937
10176SOL    HW131384   3.716   6.438   1.478  1.2706  1.4071 -0.3719
10176SOL    HW231385   3.690   6.437   1.329 -1.4769 -2.2577 -0.0075
10177SOL     OW31386   6.438   1.952   2.959  0.7685 -0.1922  0.1216
10177SOL    HW131387   6.417   1.954   2.865 -1.1433  1.8027  0.4991
10177SOL    HW231388   6.474   2.038   2.977 -0.6899  0.1658  1.5439
10178SOL     OW31389   0.628   6.346   1.574  0.7057  0.1340 -0.4294
10178SOL    HW131390   0.712   6.302   1.569  0.2766 -0.6376 -0.9749
10178SOL    HW231391   0.645   6.434   1.540  1.8581  0.8889  1.8772
10179SOL     OW31392   6.794   1.981   3.292 -0.5260  0.5231 -0.6945
10179SOL    HW131393   6.771   2.044   3.223 -2.5072 -0.1961 -0.7663
10179SOL    HW231394   6.847   1.915   3.247 -1.6704  0.1458 -1.5395
10180SOL     OW31395   6.243   4.355   1.866  0.1051 -0.2289  0.4348
10180SOL    HW131396   6.242   4.261   1.848  0.7110 -0.0635 -0.5784
10180SOL    HW231397   6.251   4.362   1.961 -2.2179 -1.1830  0.7649
10181SOL     OW31398   2.963   3.782   3.056 -0.3013 -0.3352 -0.0901
10181SOL    HW131399   2.991   3.691   3.045 -0.8696 -0.4123 -0.9922
10181SOL    HW231400   3.043   3.828   3.080  0.3959 -0.7509 -1.5034
10182SOL     OW31401   7.178   5.547   2.110  0.1745  0.1976 -0.1055
10182SOL    HW131402   7.124   5.468   2.112 -2.1288  1.6910  0.4373
10182SOL    HW231403   7.148   5.595   2.033  2.0773  0.2466 -0.8627
10183SOL     OW31404   5.415   4.987   1.204  0.4216  0.1480 -0.1598
10183SOL    HW131405   5.505   5.001   1.177  1.6670  0.2102  3.4882
10183SOL    HW231406   5.394   5.062   1.260 -2.7223  1.2200 -2.4660
10184SOL     OW31407   4.308   2.897   0.347 -0.3223  0.6114  0.0941
10184SOL    HW131408   4.393   2.854   0.341 -0.0234  1.1392  0.4268
10184SOL    HW231409   4.301   2.923   0.439 -1.4303 -0.5878  0.3872
10185SOL     OW31410   0.316   3.546   7.137  0.2675  0.0428 -0.0048
10185SOL    HW131411   0.262   3.507   7.206  1.3200  0.1907  0.9473
10185SOL    HW231412   0.285   3.506   7.056  1.1139 -2.6139  0.8728
10186SOL     OW31413   7.737   0.664   2.899 -0.3233  0.0315  0.6537
10186SOL    HW131414   7.762   0.678   2.991 -1.4986 -0.4806  1.0767
10186SOL    HW231415   7.767   0.575   2.880  0.1220  0.2193  0.4590
10187SOL     OW31416   1.496   2.388   1.716  0.1746  0.1499 -0.4971
10187SOL    HW131417   1.437   2.401   1.789  0.8426  2.8584 -0.3325
10187SOL    HW231418   1.502   2.293   1.706 -1.2273 -0.2509  1.8603
10188SOL     OW31419   3.992   7.907   4.492 -0.4702 -0.3596  0.3626
10188SOL    HW131420   3.921   7.919   4.429 -0.3821 -2.1378 -0.1338
10188SOL    HW231421   4.068   7.946   4.451 -0.8200  0.1910  0.2247
10189SOL     OW31422   7.217   2.749   3.463 -0.7216  0.1123 -0.4645
10189SOL    HW131423   7.188   2.756   3.554 -0.6596 -2.6294 -0.1477
10189SOL    HW231424   7.306   2.784   3.463 -0.8959  0.5889  0.4055
10190SOL     OW31425   4.447   3.729   6.296  0.1650  0.2611 -0.0068
10190SOL    HW131426   4.526   3.778   6.317 -0.4518  0.7232  1.3411
10190SOL    HW231427   4.431   3.748   6.204  1.5726  0.1954 -0.2976
10191SOL     OW31428   6.881   4.914   4.308  0.3143 -0.1622 -0.4536
10191SOL    HW131429   6.798   4.896   4.351  0.8297 -0.6858  0.3508
10191SOL    HW231430   6.874   5.004   4.278 -0.5750 -0.2344 -0.4741
10192SOL     OW31431   6.106   7.589   2.687  0.4590  0.4951 -0.0767
10192SOL    HW131432   6.020   7.579   2.726 -0.1777  2.0709 -0.9772
10192SOL    HW231433   6.094   7.654   2.618  2.3052  0.5339 -0.4250
10193SOL     OW31434   6.315   6.577   3.431 -0.8928  0.1248 -0.2366
10193SOL    HW131435   6.317   6.482   3.438 -0.1906 -0.0130 -1.7642
10193SOL    HW231436   6.223   6.601   3.442 -0.9376 -0.6072  1.1965
10194SOL     OW31437   3.168   0.218   6.197  0.1560  0.2179 -0.1566
10194SOL    HW131438   3.243   0.203   6.139  0.4285 -0.3682  0.3343
10194SOL    HW231439   3.160   0.314   6.201  1.4135  0.3203  0.4497
10195SOL     OW31440   6.654   6.752   6.997  0.0039 -0.6476  0.2266
10195SOL    HW131441   6.694   6.785   7.077 -1.5082 -0.1120  0.7920
10195SOL    HW231442   6.658   6.656   7.007  1.8039 -0.6223 -0.0934
10196SOL     OW31443   6.923   7.514   7.742 -0.5370 -0.1694 -0.6776
10196SOL    HW131444   6.961   7.587   7.694 -1.3437 -1.1702 -3.0028
10196SOL    HW231445   6.983   7.441   7.725 -1.2046 -0.7110 -0.7646
10197SOL     OW31446   7.184   6.034   4.719  0.2555  0.8735  0.3198
10197SOL    HW131447   7.259   6.012   4.774 -1.5252 -0.3195  2.4337
10197SOL    HW231448   7.112   5.984   4.756 -1.4402  1.3283 -2.1368
10198SOL     OW31449   0.328   4.592   0.105  0.0292  0.0668 -0.1183
10198SOL    HW131450   0.356   4.604   0.014 -1.3181  1.9383 -0.3508
10198SOL    HW231451   0.403   4.552   0.148  1.2198  0.4334 -1.7583
10199SOL     OW31452   5.031   4.910   0.834 -0.2900 -0.1132 -0.1969
10199SOL    HW131453   4.984   4.992   0.815  1.1750  0.6290 -0.7446
10199SOL    HW231454   4.964   4.842   0.823 -0.9796  0.8014 -2.1910
10200SOL     OW31455   1.393   3.547   2.043 -0.4450  0.7111 -0.3111
10200SOL    HW131456   1.306   3.569   2.079 -1.1072 -0.8961 -0.8161
10200SOL    HW231457   1.416   3.465   2.088  1.0607  1.3673  0.1727
10201SOL     OW31458   6.188   6.855   5.101  0.4293 -0.0042  0.2443
10201SOL    HW131459   6.196   6.815   5.188  0.3996 -4.3928 -1.5168
10201SOL    HW231460   6.264   6.913   5.094  1.6371 -1.1867  2.4623
10202SOL     OW31461   0.689   4.642   7.473  0.1059 -0.1708 -0.2123
10202SOL    HW131462   0.651   4.570   7.423 -0.2778  0.9884 -1.6895
10202SOL    HW231463   0.749   4.601   7.534  0.2998 -1.7061 -1.3876
10203SOL     OW31464   0.251   5.699   4.676  0.0678  0.4246 -0.0948
10203SOL    HW131465   0.287   5.769   4.622 -0.2188  1.2363  0.7418
10203SOL    HW231466   0.160   5.725   4.692 -0.5687 -1.0009 -1.1955
10204SOL     OW31467   2.778   6.764   4.503 -0.4027 -0.8246  0.3727
10204SOL    HW131468   2.708   6.785   4.441  0.8303 -1.1508 -1.1935
10204SOL    HW231469   2.746   6.687   4.550 -2.1695  0.5489  1.5303
10205SOL     OW31470   0.971   6.268   2.639  0.1294  0.2759  0.3162
10205SOL    HW131471   0.890   6.252   2.590  0.2306 -0.5946  0.4121
10205SOL    HW231472   0.994   6.182   2.676  1.8225  0.1825 -0.8299
10206SOL     OW31473   1.733   2.074   2.234  0.3588  0.6803  0.1348
10206SOL    HW131474   1.657   2.074   2.292 -0.2801 -1.3123 -0.6073
10206SOL    HW231475   1.808   2.086   2.292 -0.2701 -1.0701  1.3998
10207SOL     OW31476   0.584   4.151   0.575  0.5199 -0.3782  0.3779
10207SOL    HW131477   0.561   4.244   0.582  0.2260 -0.4230  0.0226
10207SOL    HW231478   0.591   4.122   0.666  0.0692 -0.1405  0.4933
10208SOL     OW31479   6.436   4.474   0.389  0.6529  0.5827 -0.6507
10208SOL    HW131480   6.418   4.387   0.354 -1.0973 -0.1901  1.9226
10208SOL    HW231481   6.368   4.530   0.352  1.8409  0.9810 -2.3907
10209SOL     OW31482   4.976   7.720   1.784 -0.0589 -0.0627  0.0224
10209SOL    HW131483   4.965   7.760   1.870  1.5206  0.3323  0.0542
10209SOL    HW231484   4.888   7.721   1.746 -0.7733 -0.2295  1.6149
10210SOL     OW31485   6.480   5.270   6.947 -0.2962 -0.5375  0.2275
10210SOL    HW131486   6.535   5.298   6.874  2.9267 -1.8551  1.9103
10210SOL    HW231487   6.485   5.342   7.010  0.6807 -1.1669  0.9103
10211SOL     OW31488   3.939   0.211   1.309 -0.4797  0.2275  0.2530
10211SOL    HW131489   3.864   0.268   1.328  0.1363  1.2874 -0.4036
10211SOL    HW231490   3.900   0.129   1.280 -1.4052  1.1276 -1.1533
10212SOL     OW31491   6.384   0.067   0.688 -0.1460  0.8966 -0.1488
10212SOL    HW131492   6.308   0.086   0.633 -0.6627 -4.4656 -1.8419
10212SOL    HW231493   6.352   0.004   0.753  2.5070 -0.4713 -0.0295
10213SOL     OW31494   6.831   0.030   7.577 -0.1132  0.2833  0.2159
10213SOL    HW131495   6.903   0.035   7.640 -1.1588  3.0194  1.3457
10213SOL    HW231496   6.872   0.050   7.493  0.6762  0.4505  0.6275
10214SOL     OW31497   1.210   1.204   0.180  0.5444  0.6050  0.2400
10214SOL    HW131498   1.240   1.113   0.171 -0.7772  0.2315 -0.8175
10214SOL    HW231499   1.241   1.247   0.100 -0.9302  0.4184 -0.4741
10215SOL     OW31500   0.731   4.785   7.029  0.0580  0.5346  0.4121
10215SOL    HW131501   0.638   4.767   7.040 -0.1006  0.2381 -1.1455
10215SOL    HW231502   0.754   4.840   7.104 -1.5996  1.4329  0.3130
10216SOL     OW31503   0.448   3.807   7.649  0.2261 -0.4364  0.0458
10216SOL    HW131504   0.455   3.855   7.566 -0.4596 -0.9353 -0.3115
10216SOL    HW231505   0.359   3.825   7.679  0.6002  0.0647  0.8857
10217SOL     OW31506   1.947   7.914   7.263  0.2270  0.1472  0.6170
10217SOL    HW131507   2.013   7.982   7.258 -1.5698  2.0437  1.2232
10217SOL    HW231508   1.892   7.938   7.337 -2.6476  0.1434 -1.3122
10218SOL     OW31509   5.308   2.242   6.528  0.0042 -0.3663  0.2543
10218SOL    HW131510   5.328   2.334   6.513 -0.4278 -0.2736  0.2311
10218SOL    HW231511   5.275   2.238   6.617 -0.6798 -0.3803  0.0033
10219SOL     OW31512   0.893   4.955   2.137  0.1902 -0.0426 -0.8607
10219SOL    HW131513   0.877   5.037   2.184 -0.3328  0.9569 -2.6564
10219SOL    HW231514   0.820   4.898   2.162  0.2382  0.2434 -0.0373
10220SOL     OW31515   1.969   4.614   6.486 -0.3612  0.2272  0.2378
10220SOL    HW131516   1.951   4.624   6.580 -1.2349 -0.2798  0.1418
10220SOL    HW231517   1.936   4.526   6.466 -1.7001  0.9602 -0.8845
10221SOL     OW31518   0.665   4.977   4.232  0.1715  0.0019 -0.0182
10221SOL    HW131519   0.727   5.020   4.291 -0.4037  0.4932  0.2352
10221SOL    HW231520   0.683   4.883   4.243  1.3435  0.1506 -0.4785
10222SOL     OW31521   3.420   5.001   2.831 -0.0180  0.3655  0.2562
10222SOL    HW131522   3.401   4.922   2.780 -0.1242  0.8528 -0.4710
10222SOL    HW231523   3.345   5.058   2.817 -0.7148 -0.0290  2.0944
10223SOL     OW31524   2.174   0.769   2.135  0.3108  0.3616 -0.0499
10223SOL    HW131525   2.226   0.690   2.127  0.3602  0.4660 -0.7544
10223SOL    HW231526   2.233   0.834   2.174 -0.0380 -0.2376  1.5906
10224SOL     OW31527   4.137   3.601   4.763  0.2673 -0.0072  0.4450
10224SOL    HW131528   4.132   3.697   4.762 -0.2106  0.0542 -2.9811
10224SOL    HW231529   4.229   3.583   4.743  0.4194 -0.2897  1.3778
10225SOL     OW31530   5.405   5.426   1.839 -0.0331 -0.2145  0.3180
10225SOL    HW131531   5.441   5.485   1.772  1.2279 -2.4120 -1.0514
10225SOL    HW231532   5.335   5.477   1.881 -1.1811  1.1635 -2.9518
10226SOL     OW31533   3.416   1.211   1.085 -0.0139 -0.6362 -0.1403
10226SOL    HW131534   3.328   1.229   1.051  0.6133  2.2624 -0.5030
10226SOL    HW231535   3.401   1.168   1.169 -1.7851 -0.4141 -0.3009
10227SOL     OW31536   1.563   4.918   5.847  0.3482  0.7388 -0.7673
10227SOL    HW131537   1.507   4.854   5.805  1.7699 -0.8139 -0.4045
10227SOL    HW231538   1.614   4.957   5.775 -1.1124  2.1380 -1.0931
10228SOL     OW31539   3.792   0.046   3.848 -0.1574  0.3071  0.2656
10228SOL    HW131540   3.697   0.052   3.844 -0.2336 -0.9376 -0.0712
10228SOL    HW231541   3.819   0.026   3.759  0.0747 -3.1269  0.9653
10229SOL     OW31542   5.626   7.583   1.920 -0.2447  0.6130 -0.5568
10229SOL    HW131543   5.579   7.666   1.908 -0.3590  0.7303  0.5682
10229SOL    HW231544   5.634   7.574   2.015 -1.0036 -1.1116 -0.6220
10230SOL     OW31545   0.718   2.247   5.683  0.3152  0.5116 -0.3803
10230SOL    HW131546   0.686   2.165   5.645 -0.3453  1.2641 -1.5132
10230SOL    HW231547   0.788   2.220   5.743 -0.7480 -0.9764  0.2616
10231SOL     OW31548   1.050   5.154   4.385 -0.2681 -0.1199  0.0053
10231SOL    HW131549   1.011   5.090   4.445 -1.4217  0.5926  0.0474
10231SOL    HW231550   1.112   5.203   4.440 -0.9144  0.1636  0.5035
10232SOL     OW31551   6.611   4.706   0.921  0.2573 -0.1488 -0.4545
10232SOL    HW131552   6.523   4.737   0.902  0.0242  0.3476  1.2904
10232SOL    HW231553   6.611   4.689   1.015  1.5990 -1.5479 -0.6529
10233SOL     OW31554   3.728   3.715   6.356  0.2682 -1.1677 -0.5855
10233SOL    HW131555   3.727   3.810   6.347  1.9252 -0.9001  1.2610
10233SOL    HW231556   3.637   3.692   6.379 -0.8368 -0.4564 -3.7898
10234SOL     OW31557   2.876   3.561   6.669 -0.3702  0.5208  0.2423
10234SOL    HW131558   2.917   3.633   6.717 -0.4488 -0.2349  1.4939
10234SOL    HW231559   2.912   3.482   6.710  0.8100 -0.1921 -2.0364
10235SOL     OW31560   7.227   5.400   0.109 -0.5111 -0.6566  0.0552
10235SOL    HW131561   7.188   5.353   0.035  0.8750 -0.2241 -0.9902
10235SOL    HW231562   7.301   5.345   0.135  0.7110  0.5761 -0.7389
10236SOL     OW31563   0.409   1.235   6.038 -0.2018 -0.1655 -0.7617
10236SOL    HW131564   0.415   1.268   5.948  1.9963  1.9004  0.0535
10236SOL    HW231565   0.315   1.230   6.056 -0.6576  1.5714 -2.4120
10237SOL     OW31566   7.128   0.245   5.626 -0.2003 -0.1121 -0.7095
10237SOL    HW131567   7.046   0.244   5.576 -0.7958 -1.7780  0.2269
10237SOL    HW231568   7.166   0.159   5.611  2.4591  1.2746 -2.7188
10238SOL     OW31569   6.182   6.385   2.514  0.2223  0.5188  0.0798
10238SOL    HW131570   6.158   6.394   2.606  0.5058 -2.9286  0.6172
10238SOL    HW231571   6.276   6.404   2.512  0.1782  0.7902  0.4427
10239SOL     OW31572   3.064   0.207   1.671  0.4470 -0.3036 -0.1280
10239SOL    HW131573   3.090   0.174   1.757  1.5461  2.0061  0.4913
10239SOL    HW231574   2.988   0.262   1.688 -0.5084 -1.3105 -0.9498
10240SOL     OW31575   0.653   1.413   0.472  0.3448  0.3045 -0.5253
10240SOL    HW131576   0.698   1.360   0.538  0.8858 -0.4830 -1.4964
10240SOL    HW231577   0.680   1.502   0.491  1.5532 -0.0516 -0.4760
10241SOL     OW31578   7.445   2.849   2.037  0.5536  0.4847  0.0643
10241SOL    HW131579   7.354   2.856   2.063  0.9959  0.0204  1.8635
10241SOL    HW231580   7.479   2.938   2.041  0.5469  0.4547  0.8662
10242SOL     OW31581   6.830   4.651   3.192 -0.3077  0.1925  0.4659
10242SOL    HW131582   6.835   4.568   3.144  1.3599  1.3761 -1.6040
10242SOL    HW231583   6.818   4.625   3.283  1.1459 -2.3931  0.0341
10243SOL     OW31584   7.065   3.447   3.915  0.1113  0.0401 -0.3609
10243SOL    HW131585   7.142   3.394   3.936 -1.0781 -1.6176 -0.0172
10243SOL    HW231586   7.009   3.389   3.863 -2.0403  0.3125  1.5074
10244SOL     OW31587   1.391   5.784   3.283  0.1867  0.0575 -0.1402
10244SOL    HW131588   1.477   5.757   3.249 -0.1391 -1.3008  0.0477
10244SOL    HW231589   1.332   5.772   3.209  0.1285  0.8643 -0.2293
10245SOL     OW31590   3.366   6.070   4.969  0.1507  0.3140 -0.5891
10245SOL    HW131591   3.398   6.077   4.879  1.0112  0.5657 -0.2756
10245SOL    HW231592   3.285   6.020   4.962  0.6766 -0.4468 -1.4019
10246SOL     OW31593   6.504   3.701   2.867 -0.3064  0.1434  0.6504
10246SOL    HW131594   6.476   3.627   2.920 -1.2053 -0.4709 -0.6201
10246SOL    HW231595   6.596   3.684   2.847 -0.9363 -1.6060 -1.0907
10247SOL     OW31596   0.026   6.379   6.169  0.1402  0.5239  0.0109
10247SOL    HW131597   0.046   6.331   6.089  0.2106  0.1074  0.2780
10247SOL    HW231598   0.072   6.332   6.239  0.7868  1.3730  0.1837
10248SOL     OW31599   7.817   3.740   6.856 -0.6477  0.5497  0.1198
10248SOL    HW131600   7.773   3.814   6.897 -1.0978  0.3210  0.0600
10248SOL    HW231601   7.867   3.778   6.784  0.0185  0.9324  0.7691
10249SOL     OW31602   6.445   4.998   7.006  0.2159 -0.5290  0.3407
10249SOL    HW131603   6.516   4.955   6.957 -0.2772 -0.2693 -0.6307
10249SOL    HW231604   6.462   5.092   6.993 -1.5149 -0.4415 -1.7651
10250SOL     OW31605   6.012   4.292   4.072  0.8274  0.0987 -0.0365
10250SOL    HW131606   5.963   4.236   4.133  2.4447 -0.6028  0.6734
10250SOL    HW231607   6.080   4.332   4.126  0.2409  2.1259 -0.7270
10251SOL     OW31608   6.146   4.770   2.944 -0.1041  0.2170  0.3073
10251SOL    HW131609   6.081   4.829   2.984  0.4247  2.4122 -1.7766
10251SOL    HW231610   6.096   4.693   2.919 -1.1715  0.3878  1.8007
10252SOL     OW31611   7.720   1.495   0.605 -0.0015  0.2581  0.0708
10252SOL    HW131612   7.649   1.497   0.540  1.8988  0.8451 -2.1298
10252SOL    HW231613   7.713   1.409   0.646 -0.7325 -0.5170 -1.5864
10253SOL     OW31614   4.233   7.299   0.095  0.4247 -0.0275  0.1228
10253SOL    HW131615   4.146   7.292   0.056 -0.0746  0.3460  1.1357
10253SOL    HW231616   4.277   7.368   0.044  0.0994 -0.1625 -0.3423
10254SOL     OW31617   1.354   0.723   7.211 -0.2427  0.2532 -0.8158
10254SOL    HW131618   1.279   0.672   7.243 -0.4793  0.6616 -0.7041
10254SOL    HW231619   1.315   0.785   7.150  0.0626  0.2037 -1.0575
10255SOL     OW31620   5.613   4.865   0.260 -0.3648 -1.0485  0.1748
10255SOL    HW131621   5.628   4.950   0.219 -2.2722 -1.2938 -1.2056
10255SOL    HW231622   5.678   4.859   0.329  0.0583  1.3648  0.0621
10256SOL     OW31623   1.440   4.707   2.776  0.2484 -0.0279 -0.1997
10256SOL    HW131624   1.474   4.693   2.688 -0.8181  0.2516 -0.6735
10256SOL    HW231625   1.393   4.626   2.797 -1.7459  0.8744 -0.9737
10257SOL     OW31626   6.445   3.160   1.225  0.2114 -0.8629  0.2726
10257SOL    HW131627   6.380   3.113   1.172 -0.6032  1.0693 -0.5578
10257SOL    HW231628   6.397   3.235   1.260  0.8704 -1.8100  3.4325
10258SOL     OW31629   1.854   3.564   3.951  0.0425 -0.3728 -0.2173
10258SOL    HW131630   1.944   3.583   3.924  0.6401 -0.7295  1.4003
10258SOL    HW231631   1.853   3.470   3.967  0.4674  0.0468  3.1978
10259SOL     OW31632   0.865   7.336   7.306  0.6288 -0.1582 -0.1155
10259SOL    HW131633   0.781   7.379   7.324  0.0647 -1.3052  0.1403
10259SOL    HW231634   0.859   7.312   7.214  0.5667 -0.4520 -0.0366
10260SOL     OW31635   6.721   3.634   7.909  0.2358 -0.3024 -0.3018
10260SOL    HW131636   6.782   3.696   7.869 -0.3811  0.2255 -0.4329
10260SOL    HW231637   6.764   3.609   7.991 -0.1588  1.4320  0.4836
10261SOL     OW31638   6.977   2.051   6.185 -0.0076 -0.3868 -0.1609
10261SOL    HW131639   6.924   2.088   6.115  1.3057  1.6353 -0.1595
10261SOL    HW231640   6.975   2.116   6.255  0.4305 -1.4004  0.8259
10262SOL     OW31641   4.965   0.386   6.994  0.6398 -0.1154 -0.1937
10262SOL    HW131642   5.002   0.444   6.927 -0.7097  0.4355 -0.4857
10262SOL    HW231643   4.894   0.436   7.032  0.2145 -1.1372  0.3877
10263SOL     OW31644   1.128   2.320   6.194  0.4210 -0.3674  0.0472
10263SOL    HW131645   1.146   2.357   6.108 -0.2046 -0.2590 -0.0444
10263SOL    HW231646   1.051   2.368   6.225  1.4170  0.5295  1.2346
10264SOL     OW31647   0.568   1.213   3.124  1.0892 -0.1885 -0.1767
10264SOL    HW131648   0.536   1.123   3.123 -0.4601  0.2745  1.4204
10264SOL    HW231649   0.522   1.256   3.052 -0.2832 -0.0723  0.7267
10265SOL     OW31650   8.001   6.929   6.426 -0.1554  0.0902  0.6360
10265SOL    HW131651   8.052   6.965   6.353  1.1802 -1.6292  0.6323
10265SOL    HW231652   8.015   6.834   6.420 -2.3728 -0.3523  1.4269
10266SOL     OW31653   0.316   1.779   4.007  0.5136 -0.9083 -0.4654
10266SOL    HW131654   0.347   1.771   4.097 -2.3213 -0.1509  0.6888
10266SOL    HW231655   0.252   1.850   4.010 -0.2026 -1.3623 -2.9274
10267SOL     OW31656   0.263   4.118   7.526  0.1908  0.4638 -0.2930
10267SOL    HW131657   0.176   4.082   7.508  0.2756 -0.6944  1.3678
10267SOL    HW231658   0.323   4.055   7.487  0.3148 -0.6062  1.5271
10268SOL     OW31659   6.397   5.391   2.852  0.0050 -0.2474 -0.2243
10268SOL    HW131660   6.475   5.438   2.881  1.7322 -1.7301 -2.1576
10268SOL    HW231661   6.373   5.336   2.926  0.7765  0.2374  0.4016
10269SOL     OW31662   4.472   7.188   0.573 -0.0086 -0.1728 -0.8356
10269SOL    HW131663   4.422   7.112   0.603  1.4353 -1.4586 -1.5294
10269SOL    HW231664   4.407   7.245   0.531 -0.7409 -2.4358 -3.0221
10270SOL     OW31665   0.009   5.138   7.522 -0.3035  0.2042  0.1004
10270SOL    HW131666   0.011   5.133   7.618 -2.8319 -0.1791  0.2036
10270SOL    HW231667   0.026   5.048   7.493  0.8954  0.4042  0.1549
10271SOL     OW31668   5.100   1.490   7.364 -0.3120  0.6304 -0.1831
10271SOL    HW131669   5.019   1.542   7.370 -0.2802  0.6810 -0.1916
10271SOL    HW231670   5.160   1.533   7.424 -0.5121  0.1901  0.3414
10272SOL     OW31671   4.667   3.056   1.734  0.6127 -0.1381 -0.2072
10272SOL    HW131672   4.623   3.119   1.791  0.4842 -0.0721 -0.3779
10272SOL    HW231673   4.620   2.974   1.749  1.7227 -0.5542  1.1254
10273SOL     OW31674   6.281   1.821   7.263 -0.2786  0.1731  0.2224
10273SOL    HW131675   6.330   1.764   7.322  1.1271  1.3296  0.2268
10273SOL    HW231676   6.345   1.850   7.198 -1.2300  0.8341 -0.4577
10274SOL     OW31677   2.798   2.536   4.802 -0.3912  0.2638  0.1682
10274SOL    HW131678   2.703   2.546   4.801 -0.5541 -0.9898  1.3082
10274SOL    HW231679   2.827   2.582   4.723 -1.9053  0.9034 -0.0581
10275SOL     OW31680   3.466   0.132   6.420 -0.8233 -0.1071  0.1203
10275SOL    HW131681   3.384   0.141   6.469 -0.0318  2.2526  1.1548
10275SOL    HW231682   3.507   0.218   6.426  2.0189 -1.3473  0.1472
10276SOL     OW31683   5.732   3.397   4.697 -0.3615 -0.1171  0.3902
10276SOL    HW131684   5.731   3.490   4.722 -1.3324  0.0408 -0.1962
10276SOL    HW231685   5.815   3.386   4.651  0.8968 -0.1259  2.5186
10277SOL     OW31686   4.330   3.616   2.813  0.0160  0.5156 -0.5174
10277SOL    HW131687   4.424   3.605   2.824  0.2499  1.5974 -1.3542
10277SOL    HW231688   4.292   3.544   2.863  1.2625  0.4825  0.4306
10278SOL     OW31689   7.968   6.469   2.727 -0.2877 -0.1837 -0.3912
10278SOL    HW131690   7.938   6.470   2.818  0.1922 -0.1227 -0.2301
10278SOL    HW231691   7.892   6.496   2.676 -0.4172  0.2711  0.0383
10279SOL     OW31692   4.137   3.666   3.834 -0.2308  0.4729 -0.0979
10279SOL    HW131693   4.147   3.752   3.876 -0.0269  0.8376 -0.8750
10279SOL    HW231694   4.095   3.685   3.750 -0.1766 -0.1903 -0.2830
10280SOL     OW31695   5.932   0.883   1.528 -0.0368  0.0890 -0.1806
10280SOL    HW131696   6.006   0.936   1.498 -0.5604  0.5010 -0.7558
10280SOL    HW231697   5.911   0.826   1.454  0.2129 -0.5966  0.2642
10281SOL     OW31698   3.435   5.889   4.445  0.1175 -0.0765  0.4580
10281SOL    HW131699   3.417   5.821   4.380 -0.1601 -0.1523  0.6112
10281SOL    HW231700   3.529   5.906   4.437  0.2295 -0.6335  0.5726
10282SOL     OW31701   7.833   2.479   7.496  0.2476  0.1950 -0.1975
10282SOL    HW131702   7.857   2.448   7.408  0.8813 -2.2075  0.7632
10282SOL    HW231703   7.784   2.407   7.534 -1.1782  1.7229  1.0066
10283SOL     OW31704   3.949   0.723   0.577  0.7833 -0.4015  0.6113
10283SOL    HW131705   3.990   0.702   0.493  2.1937 -0.3919  1.2518
10283SOL    HW231706   3.899   0.802   0.561  0.8810 -0.5101 -0.2693
10284SOL     OW31707   2.239   6.263   4.817 -0.0676  0.2183 -0.3371
10284SOL    HW131708   2.284   6.251   4.734  0.6166  0.6944 -0.0498
10284SOL    HW231709   2.146   6.262   4.794  0.1197  1.4102 -1.2749
10285SOL     OW31710   5.234   5.391   4.795  0.3824  0.0019 -0.1942
10285SOL    HW131711   5.154   5.386   4.743  0.6446 -0.4573 -0.5531
10285SOL    HW231712   5.296   5.438   4.739 -0.0131  1.5265  0.5753
10286SOL     OW31713   0.727   0.441   0.015  0.0539 -0.3301  0.3606
10286SOL    HW131714   0.683   0.439  -0.070  0.1689  1.5304  0.2251
10286SOL    HW231715   0.669   0.493   0.070  0.5175 -0.5943  1.1060
10287SOL     OW31716   5.337   1.474   5.966 -0.2618 -0.4129 -0.2951
10287SOL    HW131717   5.304   1.535   6.032  1.4124 -0.6108  0.7917
10287SOL    HW231718   5.279   1.398   5.973 -0.4634 -0.1941  0.5356
10288SOL     OW31719   0.834   5.160   5.871 -0.4577 -0.1119  0.2876
10288SOL    HW131720   0.775   5.232   5.894 -1.0545 -0.2917 -0.6211
10288SOL    HW231721   0.905   5.202   5.821  0.5745  0.2040  1.9575
10289SOL     OW31722   7.969   4.475   0.980 -0.3438  0.6993  0.5412
10289SOL    HW131723   7.993   4.468   0.888 -0.0595  0.3283  0.6400
10289SOL    HW231724   7.873   4.478   0.980 -0.3288  1.2695  0.2019
10290SOL     OW31725   3.262   7.062   5.346 -0.4419  0.1467 -0.0449
10290SOL    HW131726   3.339   7.049   5.401 -0.9307  1.4954  0.9929
10290SOL    HW231727   3.188   7.041   5.403 -0.8912 -0.4634 -0.8258
10291SOL     OW31728   4.534   1.589   3.132 -0.5182  0.5982  0.1120
10291SOL    HW131729   4.507   1.540   3.209  0.7361  0.7870  0.7025
10291SOL    HW231730   4.551   1.523   3.065  1.1077  0.1826  0.8814
10292SOL     OW31731   2.470   4.197   5.756 -0.1350 -0.3927 -0.3018
10292SOL    HW131732   2.529   4.200   5.680  0.6569  0.3372  0.3309
10292SOL    HW231733   2.525   4.165   5.828 -0.7205 -0.4774  0.1129
10293SOL     OW31734   4.501   1.765   1.203 -0.0353 -0.9770  0.0592
10293SOL    HW131735   4.448   1.731   1.276 -0.3906 -1.5966 -0.4720
10293SOL    HW231736   4.591   1.749   1.229 -0.0550  0.5172  1.1906
10294SOL     OW31737   6.527   7.501   0.991 -0.4498  0.1946 -0.3043
10294SOL    HW131738   6.478   7.447   1.052 -2.6932 -1.2379 -3.1571
10294SOL    HW231739   6.476   7.582   0.984  0.1100  0.5953  0.0536
10295SOL     OW31740   2.177   5.346   7.075 -0.0851 -0.3568 -0.3120
10295SOL    HW131741   2.259   5.297   7.085  0.8239  0.7117 -2.0458
10295SOL    HW231742   2.197   5.413   7.010 -2.1963  0.3128 -0.3447
10296SOL     OW31743   4.621   0.306   2.521  0.1780  0.0170  0.3875
10296SOL    HW131744   4.548   0.336   2.575 -0.4111  0.2967 -0.5463
10296SOL    HW231745   4.611   0.211   2.518 -1.2670  0.1758 -1.2482
10297SOL     OW31746   0.871   6.720   6.524  0.5918  0.2965  0.3013
10297SOL    HW131747   0.925   6.799   6.516  1.1780 -0.0740  0.5753
10297SOL    HW231748   0.877   6.695   6.616  0.8494 -0.3727  0.1117
10298SOL     OW31749   1.459   4.101   4.691  0.0631 -0.1594  0.2722
10298SOL    HW131750   1.507   4.140   4.618  0.5778 -1.4607 -0.1250
10298SOL    HW231751   1.391   4.164   4.712 -0.3911  0.0469 -1.6407
10299SOL     OW31752   7.512   1.014   4.759  0.3322 -0.4830  0.2469
10299SOL    HW131753   7.589   0.959   4.744  0.0668 -1.8461  3.1975
10299SOL    HW231754   7.545   1.090   4.808 -0.0649 -0.8155  1.0632
10300SOL     OW31755   5.461   7.794   1.855  0.0956  0.0173 -0.1410
10300SOL    HW131756   5.427   7.775   1.767 -0.4134 -2.8382  0.5492
10300SOL    HW231757   5.384   7.816   1.906 -0.1785 -1.8425  0.3381
10301SOL     OW31758   2.277   4.627   1.725 -0.1897 -0.0417 -0.3620
10301SOL    HW131759   2.343   4.623   1.656  0.7080 -0.8194  0.4994
10301SOL    HW231760   2.307   4.698   1.782  0.0417 -0.5526  0.1585
10302SOL     OW31761   1.417   1.519   7.793 -0.2078 -0.0697 -0.3017
10302SOL    HW131762   1.342   1.552   7.843 -0.7794  0.1281 -1.2676
10302SOL    HW231763   1.490   1.573   7.822 -0.6802  0.5431 -0.2163
10303SOL     OW31764   3.645   3.227   7.876  0.0301 -0.0420  0.2707
10303SOL    HW131765   3.706   3.287   7.919 -0.1223 -0.0157  0.4498
10303SOL    HW231766   3.700   3.155   7.845  0.5041  1.0742 -1.6031
10304SOL     OW31767   2.967   5.505   4.330  0.3357  0.0451 -0.5932
10304SOL    HW131768   2.887   5.455   4.344 -0.6495  0.6770 -3.3369
10304SOL    HW231769   2.954   5.586   4.380  1.0243 -1.4242  2.1195
10305SOL     OW31770   2.529   4.465   2.112 -0.2611 -0.3592  0.9682
10305SOL    HW131771   2.475   4.524   2.165 -0.6901 -1.3831  1.7105
10305SOL    HW231772   2.497   4.377   2.134 -0.1360 -0.8402 -0.6667
10306SOL     OW31773   7.746   3.261   5.249 -0.2431 -0.3937  0.3728
10306SOL    HW131774   7.656   3.264   5.215 -0.4379  0.1828  0.9206
10306SOL    HW231775   7.766   3.351   5.271  0.4027 -0.5548  0.4587
10307SOL     OW31776   7.684   4.097   6.006 -0.0498 -0.1738 -0.2632
10307SOL    HW131777   7.748   4.148   5.955 -0.7259  0.0827 -0.8747
10307SOL    HW231778   7.629   4.163   6.048  0.5591 -0.3834  0.9056
10308SOL     OW31779   0.565   1.764   5.709 -0.0636 -0.6704  0.4004
10308SOL    HW131780   0.518   1.705   5.650 -2.1245  0.3568  0.9123
10308SOL    HW231781   0.587   1.839   5.655 -0.1965 -0.5816  0.4688
10309SOL     OW31782   6.759   0.521   3.179 -0.1869  0.3500 -0.1286
10309SOL    HW131783   6.780   0.428   3.191  0.2752  0.3588 -0.7898
10309SOL    HW231784   6.702   0.543   3.252  1.9307  0.2688  1.6590
10310SOL     OW31785   4.569   2.311   0.473 -0.1719 -0.3969 -0.6215
10310SOL    HW131786   4.630   2.326   0.401 -1.6591 -1.0602 -2.1108
10310SOL    HW231787   4.545   2.399   0.503 -0.6666 -0.0318 -1.9987
10311SOL     OW31788   5.618   1.635   6.570  0.6744 -0.3417 -0.2308
10311SOL    HW131789   5.621   1.718   6.618 -0.3199  0.4477 -1.4530
10311SOL    HW231790   5.563   1.578   6.624  0.3480  0.2114  0.0256
10312SOL     OW31791   3.249   5.626   3.091 -0.7479  0.1316 -0.5446
10312SOL    HW131792   3.165   5.596   3.057 -0.6021  0.1647 -0.9440
10312SOL    HW231793   3.307   5.627   3.014  0.3791 -2.5354  0.1153
10313SOL     OW31794   7.255   0.757   7.319  0.0108 -0.0257  0.3713
10313SOL    HW131795   7.349   0.739   7.312  0.2473  1.1728  0.3326
10313SOL    HW231796   7.225   0.758   7.228  0.2912  1.1768  0.2686
10314SOL     OW31797   6.228   5.003   5.351 -0.0552 -0.1171 -0.3419
10314SOL    HW131798   6.160   4.936   5.360 -0.0737 -0.1050 -0.3938
10314SOL    HW231799   6.256   5.020   5.441  1.1300 -1.4263 -0.4167
10315SOL     OW31800   3.205   4.293   0.686 -0.2773  0.4134 -0.2450
10315SOL    HW131801   3.295   4.314   0.708 -0.9383  2.8438  0.5408
10315SOL    HW231802   3.188   4.339   0.604 -0.6123 -0.6396 -0.7877
10316SOL     OW31803   5.591   6.377   1.016  0.2003  0.1777 -0.2441
10316SOL    HW131804   5.510   6.417   0.987  0.2501 -0.0887 -0.7607
10316SOL    HW231805   5.657   6.446   1.005  0.0495  0.3966  0.1847
10317SOL     OW31806   4.480   5.982   5.363 -0.3100  0.1569  0.0022
10317SOL    HW131807   4.488   5.929   5.283 -1.4520 -0.4442  0.2595
10317SOL    HW231808   4.477   6.072   5.331  0.2512 -0.0072 -0.5500
10318SOL     OW31809   4.680   4.790   3.682  0.3120  0.2874  0.2193
10318SOL    HW131810   4.636   4.706   3.667  2.9482 -0.9105 -1.4493
10318SOL    HW231811   4.608   4.854   3.685 -1.5755 -1.5000 -2.5074
10319SOL     OW31812   7.795   3.490   0.837 -0.1072 -0.3952 -0.2750
10319SOL    HW131813   7.743   3.455   0.765 -1.7077  0.5596  0.3596
10319SOL    HW231814   7.874   3.523   0.796 -0.9498  0.0467 -1.5937
10320SOL     OW31815   6.021   2.379   3.552  0.0122 -0.3330 -0.0353
10320SOL    HW131816   6.091   2.328   3.511  1.4396  0.7868  0.8948
10320SOL    HW231817   5.961   2.399   3.480  2.6245  1.9136 -1.7806
10321SOL     OW31818   6.044   6.238   6.542 -0.6837 -0.0298  0.1192
10321SOL    HW131819   6.101   6.263   6.614  0.3363 -3.2382  0.5976
10321SOL    HW231820   5.973   6.188   6.584 -1.2396 -0.1144 -0.8928
10322SOL     OW31821   5.156   3.686   0.119 -0.1134  0.1176 -0.3347
10322SOL    HW131822   5.166   3.592   0.135 -2.2845 -0.0951 -0.0440
10322SOL    HW231823   5.151   3.693   0.023 -2.0045 -0.3231 -0.2884
10323SOL     OW31824   5.835   4.755   6.195 -0.2145  0.4540 -0.0732
10323SOL    HW131825   5.750   4.710   6.192  0.4436 -0.8149 -2.4987
10323SOL    HW231826   5.813   4.848   6.190 -1.4930  0.1099 -2.1407
10324SOL     OW31827   7.928   6.681   0.039  0.1336  0.3849 -0.1937
10324SOL    HW131828   7.873   6.754   0.010 -0.5160  0.4885  1.2402
10324SOL    HW231829   7.949   6.635  -0.042 -1.2899  0.8794 -0.8959
10325SOL     OW31830   6.479   1.757   6.161 -0.0043 -0.0565 -0.0632
10325SOL    HW131831   6.532   1.800   6.094  0.2080 -0.1361  0.0523
10325SOL    HW231832   6.514   1.790   6.244 -1.2713  1.2356 -0.0102
10326SOL     OW31833   0.390   4.574   3.874  0.4951 -0.1703 -0.7930
10326SOL    HW131834   0.398   4.505   3.809 -0.3208  0.9235 -2.0909
10326SOL    HW231835   0.450   4.643   3.845 -1.2131  1.1060 -1.4616
10327SOL     OW31836   1.864   4.925   5.451 -0.0775  0.2438 -0.5216
10327SOL    HW131837   1.959   4.927   5.448 -0.0537 -0.7134 -0.7129
10327SOL    HW231838   1.838   4.891   5.365 -0.5809  0.3855 -0.4290
10328SOL     OW31839   0.609   4.350   5.358 -0.4605 -0.3003  0.3740
10328SOL    HW131840   0.528   4.302   5.342 -0.8827  0.8727 -1.3054
10328SOL    HW231841   0.676   4.305   5.307 -0.6904  0.3864 -0.5624
10329SOL     OW31842   2.510   2.776   5.433  0.3105 -0.1754 -0.0971
10329SOL    HW131843   2.463   2.774   5.517  1.6694  1.2306  0.7435
10329SOL    HW231844   2.440   2.769   5.367 -0.7610 -1.6147  1.1136
10330SOL     OW31845   4.673   6.298   5.520 -0.9406 -0.3343 -0.3508
10330SOL    HW131846   4.627   6.277   5.439 -0.8863 -0.1314 -0.4333
10330SOL    HW231847   4.631   6.243   5.587 -1.4697  0.0300 -0.3761
10331SOL     OW31848   3.999   2.801   1.002  0.2973  0.3210 -0.9354
10331SOL    HW131849   4.040   2.721   1.036  0.1837  0.3724 -0.6737
10331SOL    HW231850   4.062   2.871   1.021  0.2101  0.3582 -0.7803
10332SOL     OW31851   5.335   4.507   1.859  0.0248  0.5360 -0.0379
10332SOL    HW131852   5.330   4.412   1.854  0.8002  0.5065 -0.3876
10332SOL    HW231853   5.317   4.537   1.770  0.4579  0.6841 -0.0767
10333SOL     OW31854   1.326   0.928   4.902  0.6646 -0.1678  0.2857
10333SOL    HW131855   1.305   0.871   4.828  1.2857 -0.2912  0.1960
10333SOL    HW231856   1.349   0.867   4.972 -1.8544 -0.1477  1.2487
10334SOL     OW31857   2.071   5.327   0.709 -0.3132 -0.3597  0.5592
10334SOL    HW131858   2.148   5.346   0.656  0.0779 -0.5689  1.0379
10334SOL    HW231859   2.004   5.301   0.646  0.4530 -1.6181  0.2292
10335SOL     OW31860   3.583   1.269   7.534 -0.0568  0.1637 -0.2527
10335SOL    HW131861   3.658   1.328   7.519  0.7858 -0.5770  0.8250
10335SOL    HW231862   3.520   1.323   7.582 -0.0393  0.6698 -0.7827
10336SOL     OW31863   2.541   6.779   4.331  0.4105 -0.1172  0.7968
10336SOL    HW131864   2.588   6.722   4.269 -0.6651  2.3580 -2.5480
10336SOL    HW231865   2.449   6.771   4.305  0.1731  2.6082  0.5853
10337SOL     OW31866   2.920   2.616   0.782  0.7032 -0.5185 -0.7994
10337SOL    HW131867   2.959   2.686   0.729  0.8579 -0.1713 -0.2383
10337SOL    HW231868   2.936   2.643   0.873 -0.5085 -0.5549 -0.5578
10338SOL     OW31869   6.629   1.750   2.758 -0.3037  0.1758 -0.0759
10338SOL    HW131870   6.624   1.655   2.743  2.0651 -0.0296  0.0888
10338SOL    HW231871   6.659   1.759   2.848  3.6174  0.8258 -1.2181
10339SOL     OW31872   1.119   7.885   2.582  0.1230  0.1587  0.1360
10339SOL    HW131873   1.186   7.912   2.518 -0.2202 -0.3031 -0.4251
10339SOL    HW231874   1.143   7.795   2.604 -0.7052 -0.2590 -0.6035
10340SOL     OW31875   7.986   1.491   5.703  0.4969 -0.0944 -0.2850
10340SOL    HW131876   7.901   1.521   5.674  0.4466 -0.0863 -0.1337
10340SOL    HW231877   7.968   1.411   5.753  0.5661 -0.0386 -0.1684
10341SOL     OW31878   7.897   6.503   1.019  0.3015 -0.3656 -0.0769
10341SOL    HW131879   7.924   6.434   0.959  0.8719 -0.6468  0.4868
10341SOL    HW231880   7.854   6.458   1.091 -0.5060 -0.0188 -0.3281
10342SOL     OW31881   5.024   2.532   2.951  0.6749 -0.2485 -0.1766
10342SOL    HW131882   4.982   2.538   2.865  2.4317 -0.2156 -1.0652
10342SOL    HW231883   4.989   2.452   2.989  0.7375 -0.8774 -1.4117
10343SOL     OW31884   6.771   1.145   0.248  0.2228 -0.1975 -0.4429
10343SOL    HW131885   6.702   1.086   0.217  2.4733 -3.2671  0.0264
10343SOL    HW231886   6.802   1.189   0.168 -0.9677 -0.1852 -0.9255
10344SOL     OW31887   3.663   0.136   7.319 -0.2172 -0.2690 -0.2012
10344SOL    HW131888   3.615   0.063   7.357 -0.5556  0.1946  0.2805
10344SOL    HW231889   3.752   0.128   7.353  0.1017 -1.2088 -1.2042
10345SOL     OW31890   1.873   7.096   0.435  0.1135  0.3717 -0.0534
10345SOL    HW131891   1.836   7.037   0.501 -0.2507 -1.0058 -1.4075
10345SOL    HW231892   1.832   7.068   0.353  2.6517  0.0948 -1.3230
10346SOL     OW31893   7.022   2.189   7.212 -0.0445 -0.2127 -0.4019
10346SOL    HW131894   6.985   2.210   7.298 -2.1198  0.5766 -1.4280
10346SOL    HW231895   6.948   2.159   7.160  0.7435  1.3703 -2.5752
10347SOL     OW31896   2.254   3.650   0.940 -0.0110 -0.1711  0.5681
10347SOL    HW131897   2.261   3.726   0.999  1.1287 -0.1896  0.4759
10347SOL    HW231898   2.278   3.685   0.854 -0.1231 -0.4939  0.4071
10348SOL     OW31899   2.789   4.526   1.385 -0.6930  0.5175 -0.4417
10348SOL    HW131900   2.871   4.563   1.420 -0.9185  0.0001  0.6940
10348SOL    HW231901   2.816   4.477   1.307  0.2921 -0.6544  0.5873
10349SOL     OW31902   0.295   4.452   5.535 -0.6124 -0.1644  0.3130
10349SOL    HW131903   0.323   4.542   5.556 -2.8212  1.0613 -1.5547
10349SOL    HW231904   0.265   4.417   5.619  1.7108  0.1990  1.3906
10350SOL     OW31905   1.531   6.506   0.603  0.0551  0.0996 -0.1362
10350SOL    HW131906   1.492   6.584   0.563  0.4172  0.5793  0.4423
10350SOL    HW231907   1.598   6.540   0.662  1.5404 -0.7187 -1.2951
10351SOL     OW31908   2.468   1.191   0.028 -0.2750  0.0138  0.4175
10351SOL    HW131909   2.495   1.192   0.120  2.2662  0.1920 -0.2348
10351SOL    HW231910   2.488   1.279  -0.003  0.5713 -0.5395 -0.6901
10352SOL     OW31911   0.901   2.714   3.749 -0.6930 -0.0435  0.3582
10352SOL    HW131912   0.951   2.733   3.828 -0.6079  0.7901  0.1133
10352SOL    HW231913   0.963   2.727   3.677 -1.1205  0.5168  0.0799
10353SOL     OW31914   1.789   0.617   4.472  0.0809  0.3293 -0.3463
10353SOL    HW131915   1.858   0.562   4.435  0.9435  1.4763 -0.4847
10353SOL    HW231916   1.741   0.650   4.396 -0.2851 -0.0204 -0.2731
10354SOL     OW31917   6.714   4.960   4.911  0.1537 -0.2445  0.6374
10354SOL    HW131918   6.710   4.935   4.819  1.7480  1.9267 -0.1105
10354SOL    HW231919   6.623   4.959   4.940 -0.6052  0.7840 -1.4787
10355SOL     OW31920   2.442   1.742   4.115 -0.0693  0.6287 -0.2323
10355SOL    HW131921   2.362   1.706   4.076 -0.8457  2.1375 -0.1162
10355SOL    HW231922   2.512   1.710   4.058 -0.8825  0.3370 -1.1050
10356SOL     OW31923   3.067   0.366   1.419  0.7299 -0.0849  0.1782
10356SOL    HW131924   3.070   0.288   1.475  1.2127 -0.5016 -0.4103
10356SOL    HW231925   3.041   0.437   1.478  2.7451 -0.1990  1.2959
10357SOL     OW31926   6.336   5.161   0.762  0.0640 -0.2281  0.4517
10357SOL    HW131927   6.408   5.206   0.807  0.4283 -2.0781  1.8583
10357SOL    HW231928   6.378   5.090   0.714 -0.5267  0.6772 -1.4669
10358SOL     OW31929   3.514   6.439   6.854 -0.0120 -0.7370 -0.2033
10358SOL    HW131930   3.466   6.363   6.820 -0.2490 -0.7802  0.2278
10358SOL    HW231931   3.549   6.482   6.776  0.4514 -1.5060 -0.4274
10359SOL     OW31932   6.425   5.766   4.577 -0.6715 -0.2940  0.6750
10359SOL    HW131933   6.379   5.839   4.536  0.3454  1.1164  1.9364
10359SOL    HW231934   6.356   5.706   4.603 -1.5023 -0.0535 -0.8458
10360SOL     OW31935   6.038   4.351   0.992 -0.2787 -0.0732 -0.3411
10360SOL    HW131936   5.981   4.315   0.925  0.8410 -2.4652 -0.1135
10360SOL    HW231937   6.067   4.275   1.043  0.8035  1.3841  1.3631
10361SOL     OW31938   1.862   3.459   4.804 -0.9693  0.3117  0.1708
10361SOL    HW131939   1.783   3.432   4.849 -0.8588  1.1862  0.9138
10361SOL    HW231940   1.861   3.555   4.807  0.0890  0.3421  0.1478
10362SOL     OW31941   4.841   6.128   4.819 -0.0624  0.1012 -0.2446
10362SOL    HW131942   4.791   6.168   4.890 -0.6955  0.5379 -0.9147
10362SOL    HW231943   4.908   6.077   4.862 -0.6294  0.1128  0.6747
10363SOL     OW31944   5.160   7.280   6.578 -0.1117  0.2320  0.3214
10363SOL    HW131945   5.129   7.279   6.669 -0.9699  0.3877  0.0396
10363SOL    HW231946   5.176   7.188   6.558  0.7413  0.2586  0.8451
10364SOL     OW31947   0.117   6.466   5.873  0.5069 -0.1045  0.6592
10364SOL    HW131948   0.079   6.389   5.915 -1.3982  0.1379 -0.5284
10364SOL    HW231949   0.106   6.537   5.936  0.3038 -0.3419  0.8898
10365SOL     OW31950   3.600   0.477   0.082 -0.1535 -0.9944  0.6276
10365SOL    HW131951   3.509   0.496   0.058 -0.4096 -2.3707  0.3957
10365SOL    HW231952   3.620   0.539   0.151 -1.2210 -0.5478  0.5613
10366SOL     OW31953   2.893   3.512   2.812  0.2966  0.2499 -0.7778
10366SOL    HW131954   2.943   3.533   2.891  1.3383 -1.4268 -0.9438
10366SOL    HW231955   2.953   3.531   2.740 -0.6477  1.7674 -1.2146
10367SOL     OW31956   1.802   4.396   7.741  0.3289 -0.6253  0.0931
10367SOL    HW131957   1.741   4.354   7.802 -0.2108  0.1760  0.1095
10367SOL    HW231958   1.799   4.340   7.663 -1.1193 -0.1030 -0.2480
10368SOL     OW31959   4.811   2.655   2.712  0.2726 -0.4811 -0.0667
10368SOL    HW131960   4.728   2.647   2.664  0.1397 -1.0613  0.2488
10368SOL    HW231961   4.878   2.637   2.646  0.1543  0.0285 -0.3329
10369SOL     OW31962   3.623   2.958   0.379  0.0328  0.2578  0.2502
10369SOL    HW131963   3.532   2.960   0.349 -0.3608  2.4404  1.3892
10369SOL    HW231964   3.676   2.967   0.300 -0.6171 -2.4968 -0.6003
10370SOL     OW31965   3.321   7.178   4.781 -0.2576 -0.2677 -0.7627
10370SOL    HW131966   3.310   7.171   4.686 -2.5539 -1.3912 -0.4926
10370SOL    HW231967   3.278   7.100   4.816 -1.3911  1.1553  1.2592
10371SOL     OW31968   2.581   4.894   6.838  0.7585  0.2231  0.3241
10371SOL    HW131969   2.539   4.871   6.921 -2.1149 -0.9820 -1.3014
10371SOL    HW231970   2.617   4.982   6.853 -1.9680  1.1688  2.1421
10372SOL     OW31971   6.462   4.425   4.702 -0.2857  0.3224  0.1499
10372SOL    HW131972   6.549   4.438   4.738 -0.2615  0.6136 -0.0061
10372SOL    HW231973   6.433   4.513   4.678 -0.1363  0.0908 -0.9112
10373SOL     OW31974   6.900   4.354   3.740 -0.0997 -0.0941  0.2997
10373SOL    HW131975   6.940   4.375   3.655  1.8820 -0.6539  1.0478
10373SOL    HW231976   6.901   4.437   3.788  0.4615 -0.1687  0.4222
10374SOL     OW31977   6.261   5.988   3.562 -0.1526  0.4525  0.3049
10374SOL    HW131978   6.235   6.052   3.629 -1.6916 -1.2223  1.4227
10374SOL    HW231979   6.202   5.914   3.577 -0.1602 -0.2153 -2.5951
10375SOL     OW31980   7.539   4.068   0.410 -0.3961  0.1973 -0.1409
10375SOL    HW131981   7.519   4.120   0.332  0.7368 -0.1589 -0.6823
10375SOL    HW231982   7.605   4.119   0.457  1.6032 -1.2438 -1.2706
10376SOL     OW31983   2.055   3.852   5.228 -0.7337  0.0241  0.1966
10376SOL    HW131984   2.091   3.806   5.304  3.5297 -2.3676 -2.8738
10376SOL    HW231985   2.095   3.939   5.232  0.5437 -0.5347  0.0816
10377SOL     OW31986   2.749   7.525   1.493  0.7864  0.6202 -0.1309
10377SOL    HW131987   2.703   7.599   1.453  0.2368 -0.0515 -0.7624
10377SOL    HW231988   2.703   7.510   1.576  0.7826  0.8532 -0.0888
10378SOL     OW31989   0.255   2.175   4.719  0.4076 -0.3533  0.2006
10378SOL    HW131990   0.248   2.161   4.624  0.9983  0.4490  0.0257
10378SOL    HW231991   0.341   2.215   4.731 -0.3716  1.1943  0.8671
10379SOL     OW31992   0.095   0.128   4.062 -0.1843  0.2500  0.0268
10379SOL    HW131993   0.133   0.208   4.025  0.5911  0.0120  0.2879
10379SOL    HW231994   0.001   0.141   4.056 -0.0643  0.9878 -0.3582
10380SOL     OW31995   0.200   0.883   0.866 -0.0457  0.1506  0.0297
10380SOL    HW131996   0.155   0.928   0.794  0.5344  1.0083  0.1850
10380SOL    HW231997   0.292   0.885   0.842  0.0802 -0.1941  0.4640
10381SOL     OW31998   2.146   3.883   6.104  0.3440  0.1372 -0.0503
10381SOL    HW131999   2.132   3.967   6.059 -0.7914  0.4076  0.7730
10381SOL    HW232000   2.168   3.822   6.033  0.6188  0.9967 -0.7285
10382SOL     OW32001   3.821   7.079   1.102 -0.3421  0.5705  0.1987
10382SOL    HW132002   3.736   7.050   1.135  0.5032 -1.7993  0.4699
10382SOL    HW232003   3.868   7.107   1.180 -1.9251  5.3069 -0.2519
10383SOL     OW32004   6.298   1.872   7.761 -0.0445 -0.0892 -0.0047
10383SOL    HW132005   6.292   1.931   7.686  0.7667  0.5185  0.4035
10383SOL    HW232006   6.256   1.791   7.731 -0.5954  0.4738 -0.7802
10384SOL     OW32007   7.318   1.138   4.301 -0.0839  0.5870  0.4422
10384SOL    HW132008   7.354   1.103   4.383 -1.4428  0.8776  1.1942
10384SOL    HW232009   7.388   1.126   4.237  1.0535  0.4454  1.6667
10385SOL     OW32010   7.645   1.839   3.894  0.1369 -0.1422  0.4121
10385SOL    HW132011   7.552   1.813   3.887  0.8860 -2.7962 -1.7703
10385SOL    HW232012   7.667   1.822   3.985 -1.1628 -0.9690  0.6124
10386SOL     OW32013   2.081   1.009   0.559  0.3328 -0.2406  0.6371
10386SOL    HW132014   2.002   1.021   0.506  2.0974  1.9960 -1.6792
10386SOL    HW232015   2.066   1.064   0.636 -0.6243 -0.4246  0.6040
10387SOL     OW32016   0.262   1.197   4.009 -0.0913 -0.2478 -0.6533
10387SOL    HW132017   0.272   1.290   3.986 -1.7583  0.3512  0.8665
10387SOL    HW232018   0.201   1.163   3.944  0.1095 -0.1687 -0.8887
10388SOL     OW32019   7.576   4.925   2.050 -0.2769 -0.7321 -0.2094
10388SOL    HW132020   7.623   4.978   1.986 -2.1625  0.3132 -0.7982
10388SOL    HW232021   7.516   4.871   1.998 -0.8389 -0.9093  0.5979
10389SOL     OW32022   7.831   0.261   7.623 -0.0695  0.6010 -1.3007
10389SOL    HW132023   7.830   0.195   7.553 -1.4679 -0.1393 -0.6247
10389SOL    HW232024   7.781   0.334   7.587 -0.5205  0.3459 -1.2012
10390SOL     OW32025   1.181   0.591   5.685  0.5098  0.3045  0.2838
10390SOL    HW132026   1.086   0.608   5.686  0.1077 -1.6836  1.5920
10390SOL    HW232027   1.201   0.578   5.592 -0.3487  1.3793 -0.0811
10391SOL     OW32028   3.163   7.221   5.848 -0.2057 -0.0781  0.1801
10391SOL    HW132029   3.258   7.228   5.839 -0.2757 -0.9053 -1.9506
10391SOL    HW232030   3.149   7.196   5.939  1.7943 -1.9457  0.0700
10392SOL     OW32031   1.737   6.254   6.823 -0.2308 -0.0456  0.1300
10392SOL    HW132032   1.754   6.208   6.905 -1.5283 -1.1195 -0.1622
10392SOL    HW232033   1.697   6.337   6.849 -1.5302 -0.7810  0.6103
10393SOL     OW32034   7.630   6.519   5.028 -0.2093 -0.0014 -0.3792
10393SOL    HW132035   7.638   6.442   5.085 -0.8297 -0.6337 -1.1279
10393SOL    HW232036   7.721   6.541   5.006  0.1849  1.4059  2.3165
10394SOL     OW32037   1.399   1.300   2.735  0.3478 -0.2107  0.0622
10394SOL    HW132038   1.441   1.383   2.713 -1.5488  0.9315  0.5938
10394SOL    HW232039   1.306   1.319   2.737 -0.2068 -2.5404 -0.5219
10395SOL     OW32040   3.931   1.448   6.596 -0.0959  0.3698 -0.0815
10395SOL    HW132041   3.977   1.532   6.589 -1.5399  1.5048  2.4506
10395SOL    HW232042   4.000   1.384   6.614  0.9379  1.1530 -1.1566
10396SOL     OW32043   0.562   7.588   0.039  0.2153 -0.0539  0.0432
10396SOL    HW132044   0.632   7.638  -0.003 -1.0841  0.0982 -2.1215
10396SOL    HW232045   0.527   7.647   0.106  0.4295  0.9003 -0.6650
10397SOL     OW32046   3.768   4.486   0.127 -0.1831  0.2520 -0.0210
10397SOL    HW132047   3.846   4.513   0.078 -0.9618  2.1391 -0.2971
10397SOL    HW232048   3.767   4.542   0.205 -2.0812  1.4313 -0.8177
10398SOL     OW32049   7.070   3.231   2.682 -0.1662 -0.4658 -0.1860
10398SOL    HW132050   6.997   3.272   2.636 -1.9202 -0.8370  2.0964
10398SOL    HW232051   7.098   3.296   2.745  1.8031 -0.1949 -1.2690
10399SOL     OW32052   1.117   7.810   7.285  0.2507  0.3884 -0.2538
10399SOL    HW132053   1.189   7.798   7.223  1.3499 -2.6506  1.3564
10399SOL    HW232054   1.051   7.746   7.258 -1.0327  1.7694 -0.5239
10400SOL     OW32055   4.751   1.899   6.368  0.1871 -0.0803 -0.6065
10400SOL    HW132056   4.844   1.880   6.380 -0.0025 -0.4118  0.4233
10400SOL    HW232057   4.738   1.986   6.407 -0.2472 -0.7536  0.8197
10401SOL     OW32058   7.499   3.732   6.598  0.1624  0.1744 -0.2754
10401SOL    HW132059   7.531   3.651   6.558 -0.2181 -1.4185  2.3886
10401SOL    HW232060   7.437   3.768   6.533  2.3668 -0.1020 -2.6968
10402SOL     OW32061   3.999   7.287   5.793  0.0326 -0.2222  0.0546
10402SOL    HW132062   3.962   7.284   5.705  1.5827 -0.0641 -0.6319
10402SOL    HW232063   4.083   7.332   5.782 -0.4869  1.3509  1.8925
10403SOL     OW32064   3.447   5.948   2.865  0.1163 -0.9469  0.5208
10403SOL    HW132065   3.379   5.945   2.931 -0.3546 -1.9630 -0.0026
10403SOL    HW232066   3.428   6.027   2.814  0.3900 -0.2494  1.4719
10404SOL     OW32067   2.281   6.981   5.136 -0.3645  0.2530 -0.1077
10404SOL    HW132068   2.367   7.011   5.108  0.4228 -0.5501  1.3531
10404SOL    HW232069   2.244   7.054   5.185 -0.4465  0.5273 -0.5719
10405SOL     OW32070   5.287   3.688   1.284  0.4128 -0.0511  0.1911
10405SOL    HW132071   5.285   3.770   1.234 -3.4871  0.1064  0.3421
10405SOL    HW232072   5.339   3.628   1.229 -0.1970  1.3233 -2.0205
10406SOL     OW32073   1.936   0.118   2.166 -0.2419  0.1757 -0.4686
10406SOL    HW132074   1.938   0.098   2.072 -0.4370 -1.8811 -0.0680
10406SOL    HW232075   1.843   0.123   2.188 -0.2495 -1.5496  0.0150
10407SOL     OW32076   2.593   3.264   5.137  0.4145  0.5040  0.3137
10407SOL    HW132077   2.602   3.315   5.218 -2.1144  0.4946  0.6661
10407SOL    HW232078   2.583   3.173   5.166 -0.4552  0.4934  0.0035
10408SOL     OW32079   0.255   5.358   6.788 -0.3529  0.0203  0.3739
10408SOL    HW132080   0.346   5.333   6.774 -0.1082 -1.4359  3.6300
10408SOL    HW232081   0.205   5.302   6.729  0.7990  2.5688 -3.3447
10409SOL     OW32082   0.038   4.328   0.459  0.4972 -0.6976 -0.4985
10409SOL    HW132083   0.107   4.310   0.396 -0.5480 -0.9208 -1.6142
10409SOL    HW232084  -0.029   4.374   0.410 -0.8494 -1.8820  0.1320
10410SOL     OW32085   5.665   5.184   4.769 -0.1240 -0.0653  0.7822
10410SOL    HW132086   5.629   5.180   4.680  2.6294 -0.6704 -0.4008
10410SOL    HW232087   5.596   5.148   4.824 -1.9421  0.3714 -1.0869
10411SOL     OW32088   6.852   4.739   4.732  0.0607 -0.5492 -0.4180
10411SOL    HW132089   6.921   4.798   4.761 -0.2521 -1.0629  1.5071
10411SOL    HW232090   6.792   4.795   4.683  1.9145 -0.1401 -2.3953
10412SOL     OW32091   5.452   5.043   6.101 -0.2933 -0.1131 -0.5519
10412SOL    HW132092   5.478   5.103   6.031  0.1368 -0.6222 -0.8336
10412SOL    HW232093   5.426   5.100   6.173  0.1327  0.4107 -0.8097
10413SOL     OW32094   5.245   2.616   2.116 -0.4449 -0.5410  0.0073
10413SOL    HW132095   5.236   2.710   2.099  1.0855 -0.2703  0.5439
10413SOL    HW232096   5.261   2.578   2.029 -0.9128 -0.2851 -0.1922
10414SOL     OW32097   6.783   0.667   3.802 -0.8067 -0.0047 -0.0675
10414SOL    HW132098   6.846   0.635   3.867 -1.4465  0.8513  0.9988
10414SOL    HW232099   6.805   0.619   3.722 -0.7064 -1.8854  1.0386
10415SOL     OW32100   0.919   4.696   0.438 -0.5431  0.0135 -0.3175
10415SOL    HW132101   0.878   4.610   0.441 -2.1777  0.7828  0.4665
10415SOL    HW232102   1.010   4.680   0.466 -0.3167 -1.6870 -1.8453
10416SOL     OW32103   3.315   3.891   3.579 -0.4936  0.0781  0.3894
10416SOL    HW132104   3.246   3.885   3.646 -1.8900  1.1041 -0.8925
10416SOL    HW232105   3.332   3.800   3.554 -3.0089 -0.1278 -0.8330
10417SOL     OW32106   2.811   2.279   4.862 -0.8732 -0.3204  0.5196
10417SOL    HW132107   2.720   2.254   4.843 -0.8098 -1.3190  1.4822
10417SOL    HW232108   2.817   2.370   4.833 -1.9812 -0.4625 -0.2084
10418SOL     OW32109   6.472   7.465   6.460 -0.1943 -0.3708 -0.1974
10418SOL    HW132110   6.478   7.512   6.543 -0.7219 -1.1164  0.2703
10418SOL    HW232111   6.399   7.404   6.472  1.6481 -2.7042 -0.0502
10419SOL     OW32112   0.307   2.627   6.804 -0.3220 -0.7050  0.2406
10419SOL    HW132113   0.254   2.657   6.878 -1.6608  0.9229 -1.3003
10419SOL    HW232114   0.282   2.536   6.792 -1.5937 -0.4216  0.5729
10420SOL     OW32115   7.547   1.465   3.881 -0.1147 -0.1173 -0.5613
10420SOL    HW132116   7.628   1.469   3.930 -0.8624  1.1395  0.6262
10420SOL    HW232117   7.574   1.480   3.790  0.9281  0.9655 -0.1105
10421SOL     OW32118   7.039   5.817   2.985  0.6035 -0.0353 -0.2403
10421SOL    HW132119   7.082   5.811   2.899 -0.0145  2.6697 -0.8294
10421SOL    HW232120   7.058   5.906   3.015  0.5007 -0.7965  2.3215
10422SOL     OW32121   6.892   1.419   6.961  0.5020 -0.1392  0.4699
10422SOL    HW132122   6.896   1.342   7.018 -1.4774 -0.3786  0.3375
10422SOL    HW232123   6.799   1.439   6.953  0.4701 -1.0432 -3.9104
10423SOL     OW32124   0.132   6.688   6.436 -0.0572 -0.4748  0.1002
10423SOL    HW132125   0.170   6.709   6.351 -0.9597 -0.0297 -0.2002
10423SOL    HW232126   0.204   6.648   6.485 -0.0673 -2.8734 -1.6258
10424SOL     OW32127   0.434   6.800   4.528  0.1399 -0.1948  0.0974
10424SOL    HW132128   0.477   6.850   4.459 -1.7331  0.3597 -0.7219
10424SOL    HW232129   0.421   6.864   4.598  2.0991 -0.7709  1.0795
10425SOL     OW32130   3.609   5.510   4.729  0.2389  0.4345 -0.8068
10425SOL    HW132131   3.602   5.428   4.679 -1.7471  0.3922 -0.5550
10425SOL    HW232132   3.577   5.577   4.669 -0.5953  0.6244 -0.1696
10426SOL     OW32133   3.728   6.004   0.728  0.6233 -0.0372 -0.2820
10426SOL    HW132134   3.751   6.007   0.821  2.9143 -0.4493 -0.7778
10426SOL    HW232135   3.703   5.913   0.713  2.2710 -0.4908 -0.4619
10427SOL     OW32136   6.519   6.936   6.187 -0.1810  0.1809  0.1363
10427SOL    HW132137   6.583   6.902   6.250 -1.5596 -1.2261  0.8539
10427SOL    HW232138   6.547   7.026   6.170  2.1473 -0.4931  0.1516
10428SOL     OW32139   6.118   4.348   2.124  0.0430  0.4718  0.4482
10428SOL    HW132140   6.111   4.440   2.148  0.8941  0.4330  0.9052
10428SOL    HW232141   6.179   4.311   2.189 -0.1853 -0.3790  0.1929
10429SOL     OW32142   1.525   2.174   4.588 -0.4956 -0.4896  0.3861
10429SOL    HW132143   1.492   2.211   4.506  0.2614  0.2917  0.4170
10429SOL    HW232144   1.578   2.244   4.626  0.9387 -1.5701  0.4771
10430SOL     OW32145   3.988   5.705   5.503  0.1175  0.2205 -0.1229
10430SOL    HW132146   3.921   5.692   5.436  1.4373  2.2912 -1.9703
10430SOL    HW232147   4.046   5.629   5.493 -1.5122 -1.2637  1.0796
10431SOL     OW32148   1.483   2.491   0.858 -0.6340 -0.1585  0.2474
10431SOL    HW132149   1.577   2.492   0.874 -0.7786 -2.8318  1.7733
10431SOL    HW232150   1.470   2.559   0.791  2.2253  0.8301  0.5377
10432SOL     OW32151   7.101   6.264   6.368  0.3005 -0.1653  0.0846
10432SOL    HW132152   7.087   6.290   6.460  1.9386  0.3509  0.2146
10432SOL    HW232153   7.015   6.234   6.339 -0.2208 -0.5093  1.8444
10433SOL     OW32154   7.361   1.946   1.404  0.3380 -0.1639 -0.3569
10433SOL    HW132155   7.341   1.912   1.317 -1.3102 -0.1766 -0.0071
10433SOL    HW232156   7.360   1.869   1.460  2.3356 -0.2909 -0.4408
10434SOL     OW32157   3.424   0.433   6.957 -0.6301  0.8812 -0.8548
10434SOL    HW132158   3.413   0.517   7.002 -0.7252  0.3139  0.2171
10434SOL    HW232159   3.482   0.383   7.015  0.2349  0.5527 -1.9654
10435SOL     OW32160   0.561   5.897   4.618 -0.5729 -0.1976  0.3266
10435SOL    HW132161   0.609   5.815   4.612 -0.9127 -0.4366  0.7676
10435SOL    HW232162   0.623   5.959   4.656 -0.8040 -0.6883  1.5821
10436SOL     OW32163   0.628   4.804   5.909 -0.1231  0.2794  0.0012
10436SOL    HW132164   0.722   4.820   5.902 -0.1493  0.2224 -0.4663
10436SOL    HW232165   0.602   4.775   5.822 -0.6389  0.6282  0.0382
10437SOL     OW32166   4.264   4.784   4.626 -0.2115 -0.0360 -0.3910
10437SOL    HW132167   4.228   4.872   4.610  1.1805  0.4713 -0.8736
10437SOL    HW232168   4.322   4.795   4.701 -2.3557 -1.2339  1.5912
10438SOL     OW32169   7.040   7.056   6.837  0.4654  0.0310  0.8409
10438SOL    HW132170   6.974   6.988   6.850 -0.6845  0.5032 -1.7870
10438SOL    HW232171   7.023   7.120   6.905 -0.4853 -0.8196  1.4221
10439SOL     OW32172   4.699   2.813   6.546  0.2941  0.0751  0.7890
10439SOL    HW132173   4.630   2.837   6.608 -0.6284 -1.5336  0.4386
10439SOL    HW232174   4.709   2.889   6.490 -1.0233  0.4322  1.0128
10440SOL     OW32175   3.493   7.451   1.419  0.0358 -0.0135 -0.0355
10440SOL    HW132176   3.451   7.518   1.363  0.5233 -0.8517 -1.4536
10440SOL    HW232177   3.495   7.491   1.506  0.6628  1.9938 -0.9088
10441SOL     OW32178   4.413   5.689   2.288  0.6154  0.4168  0.5891
10441SOL    HW132179   4.428   5.598   2.312  0.8791  0.9431  2.5871
10441SOL    HW232180   4.472   5.705   2.214 -1.9539 -1.9589 -2.2547
10442SOL     OW32181   4.653   2.826   5.858  0.1319  0.3576 -0.9060
10442SOL    HW132182   4.597   2.904   5.855  1.7930  1.6837  0.3790
10442SOL    HW232183   4.739   2.858   5.833  0.8805 -1.0342 -0.1894
10443SOL     OW32184   7.767   6.062   0.539  0.3252 -0.7680  0.1189
10443SOL    HW132185   7.750   6.063   0.633 -3.4580 -1.0563 -0.4023
10443SOL    HW232186   7.769   6.154   0.514  0.6121 -0.7050  0.3719
10444SOL     OW32187   5.718   4.049   7.266 -0.9430 -0.3048  0.0727
10444SOL    HW132188   5.766   4.075   7.188  0.6071 -0.2921  0.9890
10444SOL    HW232189   5.733   4.120   7.328 -0.0434 -1.4431  1.2230
10445SOL     OW32190   1.307   0.471   7.618  0.2284  0.3268 -0.1590
10445SOL    HW132191   1.297   0.439   7.528  0.0503  0.3450 -0.1461
10445SOL    HW232192   1.226   0.519   7.635 -0.2646 -0.6876  0.4308
10446SOL     OW32193   2.700   5.849   7.601  0.1160 -0.1531  0.3386
10446SOL    HW132194   2.722   5.942   7.592 -1.5772  0.0826 -2.1693
10446SOL    HW232195   2.615   5.848   7.645 -0.4681 -0.4295 -0.7749
10447SOL     OW32196   2.336   4.359   3.496  0.0934  1.0831  0.1600
10447SOL    HW132197   2.244   4.354   3.471 -0.1774 -0.1848  1.3173
10447SOL    HW232198   2.335   4.363   3.591  1.2500  0.2457  0.2234
10448SOL     OW32199   2.996   5.206   7.738 -0.2279  0.3608 -0.0722
10448SOL    HW132200   3.071   5.262   7.718  1.6480 -2.0166 -0.2261
10448SOL    HW232201   2.986   5.212   7.833  1.7069 -0.9886  0.2842
10449SOL     OW32202   3.395   1.038   3.576  0.4044  0.0788  0.4784
10449SOL    HW132203   3.328   1.028   3.509 -1.4146 -1.7677  2.4283
10449SOL    HW232204   3.474   1.000   3.537  0.0534  1.1854 -1.4164
10450SOL     OW32205   7.545   2.889   7.541  0.6125  0.2441  0.0456
10450SOL    HW132206   7.505   2.828   7.603 -1.3694  0.6414 -0.7514
10450SOL    HW232207   7.524   2.976   7.575 -1.2085  0.4803 -1.4999
10451SOL     OW32208   1.183   7.686   6.396  0.5620 -0.1327  0.2734
10451SOL    HW132209   1.219   7.631   6.465  0.2991  0.3986  0.8372
10451SOL    HW232210   1.168   7.626   6.323  1.0815 -0.6495  0.5799
10452SOL     OW32211   6.361   2.858   2.672 -0.4252  0.0581 -0.3191
10452SOL    HW132212   6.455   2.874   2.682 -0.2147 -0.3613 -1.4300
10452SOL    HW232213   6.321   2.944   2.680 -0.5832 -0.1624  5.4197
10453SOL     OW32214   3.911   3.437   7.798  0.3144  0.8872  0.3217
10453SOL    HW132215   3.843   3.429   7.730  0.3632  0.8302  0.2799
10453SOL    HW232216   3.979   3.375   7.771  0.6715  1.3970  0.0197
10454SOL     OW32217   1.542   7.743   4.578 -0.7593 -0.0193  0.4905
10454SOL    HW132218   1.507   7.677   4.519  2.6081  0.1602 -2.0831
10454SOL    HW232219   1.600   7.695   4.637 -0.9525  0.2533  0.9072
10455SOL     OW32220   0.086   6.175   7.386  0.0323  0.1690 -0.4844
10455SOL    HW132221   0.065   6.141   7.473 -1.2138  0.2510 -0.7364
10455SOL    HW232222   0.059   6.106   7.326  2.8288 -0.8222 -0.7727
10456SOL     OW32223   2.476   3.198   4.847  0.0553 -0.3512 -0.4472
10456SOL    HW132224   2.547   3.256   4.818  0.8954 -0.5407  1.1329
10456SOL    HW232225   2.470   3.212   4.941  1.0518 -3.5837  0.2195
10457SOL     OW32226   1.106   1.379   2.697 -0.0457  0.1930 -0.4278
10457SOL    HW132227   1.064   1.442   2.755  1.8663  3.4412 -2.2406
10457SOL    HW232228   1.039   1.357   2.632 -0.1734  2.2088 -1.0346
10458SOL     OW32229   2.650   6.859   3.576  0.4772  0.0448  0.1191
10458SOL    HW132230   2.589   6.838   3.505  0.4401  0.3438  0.0609
10458SOL    HW232231   2.691   6.941   3.548  1.4866 -0.5565 -0.2129
10459SOL     OW32232   6.819   5.137   5.077  0.2036 -0.6614 -0.5734
10459SOL    HW132233   6.805   5.057   5.026 -1.4071 -0.3705 -0.6326
10459SOL    HW232234   6.753   5.198   5.045  0.6480  0.2969  0.2882
10460SOL     OW32235   0.576   2.593   5.583  0.0243  0.2347 -0.0268
10460SOL    HW132236   0.547   2.646   5.657 -1.0141 -2.5207  1.6645
10460SOL    HW232237   0.588   2.657   5.512  0.8115  2.9506  2.3725
10461SOL     OW32238   0.697   0.134   6.554 -0.3840 -0.6366  0.1669
10461SOL    HW132239   0.723   0.070   6.620  0.9665  0.7717  1.0642
10461SOL    HW232240   0.720   0.219   6.592 -0.3891  0.2821 -1.7451
10462SOL     OW32241   4.970   3.466   2.412 -0.6242  0.0833  0.1707
10462SOL    HW132242   5.048   3.440   2.460 -1.7387 -1.3417  1.3339
10462SOL    HW232243   5.003   3.510   2.334  1.2875  0.8171  1.3176
10463SOL     OW32244   7.182   2.014   7.984 -0.3882 -0.0656  0.3768
10463SOL    HW132245   7.142   2.100   7.972 -1.1868 -0.6043 -1.0246
10463SOL    HW232246   7.132   1.975   8.055  0.6607  0.9923  1.7544
10464SOL     OW32247   5.854   0.947   1.133 -0.4777 -0.1106  0.1610
10464SOL    HW132248   5.948   0.958   1.141 -0.5543  1.1411 -0.4745
10464SOL    HW232249   5.842   0.901   1.050 -0.3521 -2.0194  1.1476
10465SOL     OW32250   7.454   2.704   7.706  0.4001  0.4723 -0.3658
10465SOL    HW132251   7.493   2.624   7.741  0.4581  0.6735  0.0306
10465SOL    HW232252   7.362   2.681   7.689 -0.4210  1.1669  2.6373
10466SOL     OW32253   0.619   0.038   6.111 -0.4887 -0.6487  0.1106
10466SOL    HW132254   0.576  -0.044   6.135 -0.9211 -1.0189 -1.7511
10466SOL    HW232255   0.583   0.059   6.024  1.8883 -0.1283 -0.8225
10467SOL     OW32256   3.037   5.474   1.542 -0.2068  0.1568  0.0945
10467SOL    HW132257   2.944   5.461   1.561 -0.1271 -1.5342 -0.5310
10467SOL    HW232258   3.077   5.388   1.557  1.0278  0.5327 -0.9007
10468SOL     OW32259   1.662   4.881   3.900 -0.2326 -0.5315 -0.1214
10468SOL    HW132260   1.715   4.841   3.830 -2.2011 -0.0957 -1.9608
10468SOL    HW232261   1.651   4.811   3.964  3.3775 -0.3396  0.9301
10469SOL     OW32262   5.642   1.176   2.928  0.2213 -0.7050 -0.0307
10469SOL    HW132263   5.548   1.161   2.920  0.0399 -0.7214  1.8153
10469SOL    HW232264   5.659   1.250   2.869 -0.7514 -1.3013 -1.1011
10470SOL     OW32265   0.439   3.468   1.725 -0.0423 -0.4326 -0.1427
10470SOL    HW132266   0.370   3.508   1.673 -0.4168  1.5780  1.7500
10470SOL    HW232267   0.519   3.484   1.675 -0.6307 -0.6093 -1.1715
10471SOL     OW32268   5.344   1.770   2.530  0.3383 -0.0383 -0.2066
10471SOL    HW132269   5.363   1.677   2.517 -3.1997 -0.9147 -0.2671
10471SOL    HW232270   5.271   1.771   2.592 -2.3359  2.3971 -3.0637
10472SOL     OW32271   0.937   7.479   0.710 -0.2373 -0.2275  0.3073
10472SOL    HW132272   0.925   7.392   0.670 -0.4396 -1.4060  2.7702
10472SOL    HW232273   1.032   7.488   0.720 -0.2819 -0.8307  1.3761
10473SOL     OW32274   1.755   5.505   7.011 -0.6618  0.1839 -0.0470
10473SOL    HW132275   1.799   5.586   7.036  2.6008 -1.6644  0.7881
10473SOL    HW232276   1.744   5.457   7.094 -2.1063 -0.4303 -0.5696
10474SOL     OW32277   1.476   2.152   2.347  0.1833  0.3609  0.0053
10474SOL    HW132278   1.421   2.229   2.342  1.5884  1.5274  1.4705
10474SOL    HW232279   1.492   2.139   2.441 -0.4574 -2.0585 -0.1516
10475SOL     OW32280   7.693   3.646   6.043 -0.4436 -0.5405 -0.2980
10475SOL    HW132281   7.656   3.584   5.980  0.2959 -1.8855  0.5569
10475SOL    HW232282   7.731   3.592   6.112  0.2101  0.8662  0.5026
10476SOL     OW32283   7.468   4.602   1.276  0.6037 -0.2181 -0.1666
10476SOL    HW132284   7.560   4.619   1.259  1.4181 -1.9202  2.0110
10476SOL    HW232285   7.423   4.683   1.254  2.7139  0.8787 -0.5949
10477SOL     OW32286   1.883   2.793   0.435 -0.0919  0.4751 -0.1855
10477SOL    HW132287   1.832   2.713   0.442 -0.6025  0.5821 -2.0719
10477SOL    HW232288   1.974   2.766   0.451 -0.4956 -0.0483  1.3675
10478SOL     OW32289   7.060   2.183   2.072  0.3206 -0.2436 -0.4750
10478SOL    HW132290   7.145   2.201   2.113 -0.9233 -0.6890  2.5795
10478SOL    HW232291   7.072   2.098   2.028  1.2104 -0.7764  0.7481
10479SOL     OW32292   7.162   6.750   6.901  0.6289  0.3244 -0.7439
10479SOL    HW132293   7.232   6.763   6.838  0.2565 -2.0762 -1.7567
10479SOL    HW232294   7.086   6.793   6.861  0.3181 -1.4316 -2.1595
10480SOL     OW32295   2.589   5.162   5.728  0.0455  0.4394  0.0752
10480SOL    HW132296   2.501   5.178   5.761 -0.6159 -1.3132 -0.7290
10480SOL    HW232297   2.594   5.211   5.646 -0.9474 -1.0266 -0.9160
10481SOL     OW32298   5.744   3.366   5.650  0.5849 -0.4842  0.0099
10481SOL    HW132299   5.805   3.406   5.588 -0.4504  2.0381  0.4937
10481SOL    HW232300   5.689   3.438   5.680  0.1788 -1.8358  2.8802
10482SOL     OW32301   6.892   4.682   7.410  0.0450  0.0599 -0.0384
10482SOL    HW132302   6.825   4.735   7.453  1.7528  1.0945  1.4884
10482SOL    HW232303   6.910   4.729   7.328 -2.8150 -1.6118 -1.7840
10483SOL     OW32304   4.804   3.611   7.945  0.1031 -0.0307  0.3451
10483SOL    HW132305   4.718   3.634   7.910 -0.3498 -0.2265  1.2823
10483SOL    HW232306   4.807   3.515   7.943  0.3916 -0.0192  0.1106
10484SOL     OW32307   2.116   0.599   0.926 -0.0167  0.0316 -0.1725
10484SOL    HW132308   2.200   0.593   0.880 -0.1964  2.6301 -0.9958
10484SOL    HW232309   2.051   0.616   0.857 -0.7396  0.9912  0.7023
10485SOL     OW32310   6.323   3.583   3.723  0.3260  0.2614 -0.4534
10485SOL    HW132311   6.347   3.651   3.660  1.1923  0.4457  0.0573
10485SOL    HW232312   6.376   3.602   3.800 -1.1734  0.4059  0.5752
10486SOL     OW32313   6.579   1.684   7.553 -0.1832  0.2174 -0.2186
10486SOL    HW132314   6.663   1.646   7.527 -1.3018 -0.6719 -2.9392
10486SOL    HW232315   6.567   1.758   7.494 -1.4574  0.1200 -0.1116
10487SOL     OW32316   4.070   3.311   3.548  0.0635  0.1550  0.0769
10487SOL    HW132317   3.982   3.286   3.522 -0.4197  0.9423  0.8851
10487SOL    HW232318   4.091   3.253   3.621 -0.5277  1.1542  1.0748
10488SOL     OW32319   0.255   7.467   4.859 -0.3290 -0.0839  0.1467
10488SOL    HW132320   0.197   7.543   4.858 -0.8356 -0.4379 -2.0728
10488SOL    HW232321   0.214   7.406   4.919 -0.3731  1.0121  1.2904
10489SOL     OW32322   3.690   5.781   0.042 -0.0096  0.2398 -0.3360
10489SOL    HW132323   3.750   5.773  -0.033  2.2689 -1.5147  1.5064
10489SOL    HW232324   3.627   5.710   0.029  0.1932  0.1295 -0.7422
10490SOL     OW32325   7.621   4.622   6.732  0.1256 -0.3538  0.3385
10490SOL    HW132326   7.683   4.651   6.665  0.5314 -0.0862  0.8149
10490SOL    HW232327   7.635   4.527   6.738  0.5308 -0.2890  0.4749
10491SOL     OW32328   6.640   3.071   5.801  0.5549 -0.5723 -0.3794
10491SOL    HW132329   6.671   3.161   5.804 -0.1876 -0.3360  0.8046
10491SOL    HW232330   6.567   3.068   5.864  1.3250 -2.2718  0.5177
10492SOL     OW32331   2.718   0.106   1.340 -0.7759  0.3256 -0.3509
10492SOL    HW132332   2.764   0.029   1.374 -1.4126  0.0119 -0.1845
10492SOL    HW232333   2.658   0.070   1.274 -0.0569  0.8468 -1.3135
10493SOL     OW32334   5.301   5.447   5.087  0.4282  0.4629 -0.3722
10493SOL    HW132335   5.213   5.484   5.077 -0.3290 -1.0134  0.4428
10493SOL    HW232336   5.327   5.424   4.997  1.0225  3.0312 -0.9413
10494SOL     OW32337   7.370   1.092   5.603  0.1117 -0.0455  0.1712
10494SOL    HW132338   7.353   1.065   5.513 -2.2164  2.7810 -0.3982
10494SOL    HW232339   7.322   1.029   5.657  0.3674 -0.9367 -0.6119
10495SOL     OW32340   0.076   2.231   4.225 -0.6384 -0.1773  0.3350
10495SOL    HW132341   0.018   2.253   4.153 -0.0915  0.0952 -0.0326
10495SOL    HW232342   0.019   2.225   4.302 -1.1539  0.0094 -0.0346
10496SOL     OW32343   2.342   5.761   0.597  0.7401 -0.3332  0.5415
10496SOL    HW132344   2.409   5.786   0.534 -0.9195  2.5807 -0.2589
10496SOL    HW232345   2.355   5.821   0.671 -1.2026  0.6499  0.1579
10497SOL     OW32346   4.326   5.290   3.934 -0.7285 -0.6972 -0.8341
10497SOL    HW132347   4.372   5.294   3.850  0.0723  0.3303 -0.3696
10497SOL    HW232348   4.309   5.382   3.957 -1.1285 -0.9688  0.0183
10498SOL     OW32349   6.116   2.165   5.922 -0.3178  0.0239 -0.1327
10498SOL    HW132350   6.066   2.121   5.991 -0.8282 -0.9933 -1.1192
10498SOL    HW232351   6.108   2.258   5.942  0.2133 -0.2768  1.6166
10499SOL     OW32352   3.395   3.485   2.533  0.4200 -0.2121 -0.1020
10499SOL    HW132353   3.485   3.515   2.524  0.7886 -0.8197  1.2736
10499SOL    HW232354   3.346   3.563   2.558  1.1529 -0.4017  2.2297
10500SOL     OW32355   5.376   3.669   3.747  0.0644 -0.3868 -0.2415
10500SOL    HW132356   5.303   3.729   3.761  0.7978  0.8265 -1.3493
10500SOL    HW232357   5.452   3.726   3.736  1.1248 -1.6008  0.5028
10501SOL     OW32358   6.786   3.708   6.554  0.3176 -0.6908  0.5233
10501SOL    HW132359   6.691   3.708   6.544  0.4252 -0.0744 -0.7387
10501SOL    HW232360   6.801   3.744   6.641 -0.6087 -0.7491  0.7154
10502SOL     OW32361   3.956   6.286   5.938 -0.0353  0.3770  0.1409
10502SOL    HW132362   3.979   6.354   6.001 -1.5365  0.4469  0.6608
10502SOL    HW232363   3.906   6.332   5.871  1.1591  0.2201 -0.9037
10503SOL     OW32364   4.141   1.580   3.165  0.8305 -0.0176  0.1764
10503SOL    HW132365   4.079   1.652   3.153  0.1905 -0.4640  0.7031
10503SOL    HW232366   4.145   1.538   3.079 -1.7219 -1.6293  0.7278
10504SOL     OW32367   0.658   5.993   0.885 -0.3835  0.1681 -0.0545
10504SOL    HW132368   0.674   6.086   0.895 -0.2422  0.1982 -0.5525
10504SOL    HW232369   0.651   5.979   0.791 -1.3986 -0.1614  0.0559
10505SOL     OW32370   7.132   4.055   6.291 -0.1461  0.6666  0.5832
10505SOL    HW132371   7.108   4.120   6.358 -2.3798  1.3791 -0.8095
10505SOL    HW232372   7.053   4.002   6.280  0.5565 -0.1637 -0.6758
10506SOL     OW32373   2.963   5.159   6.293 -0.4515 -0.4985 -0.1160
10506SOL    HW132374   2.870   5.138   6.287 -0.5326 -0.7140  1.5220
10506SOL    HW232375   2.968   5.251   6.266 -0.9368 -0.8223 -1.4160
10507SOL     OW32376   4.667   7.751   7.828 -0.0345 -0.0126 -0.0044
10507SOL    HW132377   4.741   7.809   7.845  0.7730 -0.8593 -0.5077
10507SOL    HW232378   4.602   7.773   7.895 -0.6766  2.9593 -1.4576
10508SOL     OW32379   1.029   2.155   3.963  0.1812 -0.5870 -0.2923
10508SOL    HW132380   1.054   2.245   3.942 -0.3329 -0.7358 -1.6032
10508SOL    HW232381   1.088   2.131   4.035 -1.2131  1.5855  1.7402
10509SOL     OW32382   6.564   5.764   5.731 -0.5286 -0.3365 -0.2479
10509SOL    HW132383   6.642   5.744   5.782 -1.5197 -1.9571  0.7318
10509SOL    HW232384   6.583   5.848   5.689  1.7647 -0.7416 -0.1456
10510SOL     OW32385   4.369   7.054   4.729 -0.5433  0.2654  0.7543
10510SOL    HW132386   4.435   6.994   4.766  1.1451 -0.6228 -3.1920
10510SOL    HW232387   4.290   7.000   4.722  0.2181 -0.7666 -0.3414
10511SOL     OW32388   5.731   5.170   0.151  0.3166 -0.0295 -0.4541
10511SOL    HW132389   5.809   5.116   0.162 -0.7722 -1.4037  1.1608
10511SOL    HW232390   5.738   5.237   0.218  0.6198  0.5241 -1.0305
10512SOL     OW32391   1.574   0.247   0.317  0.1596  0.4839 -0.2993
10512SOL    HW132392   1.545   0.281   0.232  1.2623 -1.7012 -1.6279
10512SOL    HW232393   1.669   0.240   0.309  0.0861 -1.9141  0.1995
10513SOL     OW32394   7.586   7.697   5.402 -0.2246 -0.5034 -0.0821
10513SOL    HW132395   7.676   7.674   5.424 -0.8014 -1.6878  1.1367
10513SOL    HW232396   7.542   7.614   5.388 -1.3110  0.0256  0.0743
10514SOL     OW32397   6.887   3.501   2.310 -0.5081  0.0582 -0.6820
10514SOL    HW132398   6.949   3.553   2.362 -1.6255  0.9953 -0.2355
10514SOL    HW232399   6.931   3.488   2.226  1.3740 -1.5434  0.4664
10515SOL     OW32400   3.801   1.548   3.678 -0.0768 -0.1450  0.0685
10515SOL    HW132401   3.876   1.526   3.623 -1.3191 -0.7409 -1.4408
10515SOL    HW232402   3.757   1.465   3.693 -0.4108  0.1865  1.0146
10516SOL     OW32403   1.017   7.932   5.626  0.3099 -0.1898  0.6331
10516SOL    HW132404   0.942   7.971   5.581  1.3569  2.2204  0.8534
10516SOL    HW232405   1.010   7.964   5.716  1.1504 -0.6137  0.8545
10517SOL     OW32406   4.040   0.420   5.005  0.3354  0.4357 -0.6261
10517SOL    HW132407   4.124   0.416   4.960 -0.0096 -1.7649 -1.1976
10517SOL    HW232408   3.981   0.460   4.942  0.4759 -0.0309 -1.0568
10518SOL     OW32409   0.923   1.839   5.660  0.6696  0.8468  0.0493
10518SOL    HW132410   0.860   1.847   5.731  1.2890  0.0301  0.7127
10518SOL    HW232411   0.994   1.899   5.683 -0.0474  2.1201 -0.9333
10519SOL     OW32412   3.731   7.607   0.141 -0.4339  0.0577 -0.2120
10519SOL    HW132413   3.694   7.563   0.217  2.7522 -0.7811  0.9997
10519SOL    HW232414   3.757   7.537   0.082  0.6087  0.4826 -0.2894
10520SOL     OW32415   2.596   5.660   7.202  0.2998  0.9689  0.2204
10520SOL    HW132416   2.551   5.642   7.120 -1.6398  1.7134  1.0590
10520SOL    HW232417   2.653   5.734   7.182  0.4201  0.6536 -0.6373
10521SOL     OW32418   0.786   5.418   3.273 -0.1675 -0.1362  0.0295
10521SOL    HW132419   0.835   5.393   3.351 -1.1015 -1.4773  0.2102
10521SOL    HW232420   0.764   5.510   3.287 -0.9074 -0.5372  1.6859
10522SOL     OW32421   5.269   6.456   2.003  0.5065  0.3322 -0.4076
10522SOL    HW132422   5.301   6.405   2.078 -1.8756  0.3197  0.7032
10522SOL    HW232423   5.225   6.391   1.948 -1.8731  0.9508  0.6331
10523SOL     OW32424   7.189   3.105   2.948 -0.1863 -0.1214  0.4763
10523SOL    HW132425   7.126   3.037   2.923 -0.0387 -0.3936  0.8330
10523SOL    HW232426   7.138   3.169   2.997 -0.3168  0.0022  0.1821
10524SOL     OW32427   6.233   7.083   4.868  0.2578  0.3917  0.0141
10524SOL    HW132428   6.306   7.144   4.857  0.3277  0.3927  0.4632
10524SOL    HW232429   6.273   7.005   4.907  0.6927 -1.0501 -2.9787
10525SOL     OW32430   5.711   1.859   2.786  0.1865  0.8310  0.3043
10525SOL    HW132431   5.767   1.886   2.714 -0.6243  2.4735  0.2260
10525SOL    HW232432   5.758   1.886   2.865  0.7059 -0.2459  0.3874
10526SOL     OW32433   2.089   1.646   0.073 -0.5556 -0.0514 -0.1274
10526SOL    HW132434   2.009   1.605   0.041  0.2116 -1.7973  0.0908
10526SOL    HW232435   2.158   1.615   0.014  0.2294  0.0623  0.7034
10527SOL     OW32436   0.270   7.276   0.125  1.0874  0.2347  0.4960
10527SOL    HW132437   0.353   7.297   0.082  1.7288 -0.8967  1.1174
10527SOL    HW232438   0.204   7.316   0.070  2.1156  2.8023  0.9960
10528SOL     OW32439   0.193   1.617   6.542  0.3725  0.0187  0.4214
10528SOL    HW132440   0.238   1.700   6.558 -0.5083  0.9502 -1.6419
10528SOL    HW232441   0.130   1.610   6.614  2.2809 -0.2797  2.1558
10529SOL     OW32442   7.565   7.511   4.424  0.3940 -0.3260  0.2469
10529SOL    HW132443   7.519   7.593   4.442  0.8068 -0.4573  2.1466
10529SOL    HW232444   7.496   7.446   4.413  0.0393 -0.2929  1.9045
10530SOL     OW32445   4.840   0.209   7.306 -0.0086  0.0360 -0.4145
10530SOL    HW132446   4.857   0.303   7.301 -1.6513  0.2948 -2.0981
10530SOL    HW232447   4.888   0.171   7.232 -1.1297 -0.1193 -1.0874
10531SOL     OW32448   0.499   3.820   6.093  0.0948  0.2746 -0.3660
10531SOL    HW132449   0.432   3.840   6.158 -0.1995 -1.4972 -0.0621
10531SOL    HW232450   0.523   3.905   6.056 -1.2605  1.0997  0.5484
10532SOL     OW32451   7.542   7.864   5.947 -0.4808  0.2143 -0.1194
10532SOL    HW132452   7.524   7.833   6.036  1.2433  0.1129  0.2267
10532SOL    HW232453   7.620   7.817   5.920 -1.5847 -0.5902 -2.1675
10533SOL     OW32454   5.493   2.043   7.948 -0.4689 -0.2007 -0.0611
10533SOL    HW132455   5.538   1.972   7.994  0.7784  0.3013 -0.4533
10533SOL    HW232456   5.554   2.117   7.952 -1.4933  0.6806 -0.1687
10534SOL     OW32457   5.721   2.757   7.232 -0.0900 -0.3161  0.0296
10534SOL    HW132458   5.794   2.787   7.178 -1.2986  0.8631 -1.0241
10534SOL    HW232459   5.652   2.735   7.170 -1.2699  0.3702  1.0433
10535SOL     OW32460   2.380   2.563   2.499 -0.1870  0.2422 -0.6274
10535SOL    HW132461   2.328   2.483   2.505  0.8342 -0.3750  0.4559
10535SOL    HW232462   2.459   2.536   2.452  0.6578  0.3153  0.7035
10536SOL     OW32463   6.099   5.844   0.371 -0.0763  0.5175 -0.2483
10536SOL    HW132464   6.097   5.750   0.353 -1.1345  0.3768  0.4997
10536SOL    HW232465   6.125   5.849   0.463 -3.1725  0.7492  0.7205
10537SOL     OW32466   7.951   3.207   7.805 -0.0592  0.0165  0.0441
10537SOL    HW132467   7.996   3.178   7.884  1.4611  2.1223  0.0062
10537SOL    HW232468   8.013   3.189   7.734 -0.0172  1.2516 -0.2404
10538SOL     OW32469   3.770   1.660   1.053 -0.3143  0.6090 -0.3743
10538SOL    HW132470   3.805   1.679   0.966  2.6783 -2.0137  0.0872
10538SOL    HW232471   3.693   1.606   1.037 -1.2681  2.2041 -1.3700
10539SOL     OW32472   2.211   4.812   3.049  0.6166  0.1084 -0.1438
10539SOL    HW132473   2.140   4.870   3.021  1.3617  0.9248 -0.3670
10539SOL    HW232474   2.271   4.808   2.975  1.2042  0.0524  0.3247
10540SOL     OW32475   1.045   6.585   6.859  0.3144  0.5890  0.2161
10540SOL    HW132476   1.058   6.501   6.814 -1.7753  1.2793 -1.8408
10540SOL    HW232477   1.115   6.641   6.824  1.1105  0.0305  0.8577
10541SOL     OW32478   7.703   0.653   4.618  0.2040  0.1211  0.0839
10541SOL    HW132479   7.690   0.623   4.528  0.8148 -0.6100  0.2267
10541SOL    HW232480   7.643   0.600   4.670 -0.1272  0.5229  0.1176
10542SOL     OW32481   4.888   2.914   5.777  0.6848  0.2714 -0.6196
10542SOL    HW132482   4.907   2.918   5.684 -0.8846 -1.5966 -1.0837
10542SOL    HW232483   4.957   2.858   5.813  0.7993  0.3005 -0.7904
10543SOL     OW32484   3.186   0.744   5.058 -0.4860  0.3996  0.0372
10543SOL    HW132485   3.144   0.830   5.049 -1.7203 -0.1508  0.2445
10543SOL    HW232486   3.146   0.691   4.989  1.2495  0.3350 -0.9574
10544SOL     OW32487   1.965   5.704   1.894  0.8578 -0.2772  0.2050
10544SOL    HW132488   1.914   5.625   1.908  0.2230  0.0814 -0.0541
10544SOL    HW232489   1.901   5.775   1.891  0.8580 -0.1880 -3.6693
10545SOL     OW32490   1.949   5.579   4.319  0.0255 -0.0653  0.2964
10545SOL    HW132491   1.933   5.603   4.411  1.0453 -0.8283  0.7018
10545SOL    HW232492   2.044   5.566   4.315  0.1387  1.0478 -1.1524
10546SOL     OW32493   0.201   2.748   3.411 -0.4340 -0.6984  1.1180
10546SOL    HW132494   0.167   2.832   3.380  1.1652 -0.6196 -0.6257
10546SOL    HW232495   0.247   2.770   3.493 -0.2822  0.0969  0.8300
10547SOL     OW32496   7.423   0.810   3.043  0.0671 -0.0142 -0.4062
10547SOL    HW132497   7.453   0.809   2.953 -0.2030 -0.8626 -0.4884
10547SOL    HW232498   7.392   0.721   3.060 -2.8949  0.8872 -0.4949
10548SOL     OW32499   3.826   4.347   2.441 -0.1841 -0.1547 -0.0695
10548SOL    HW132500   3.749   4.358   2.385 -0.3656  1.0784  0.3940
10548SOL    HW232501   3.810   4.264   2.487 -1.5084  0.3368  0.4117
10549SOL     OW32502   3.342   0.248   3.954  0.6159 -0.1252  0.6027
10549SOL    HW132503   3.352   0.324   4.012 -0.4887  1.1159 -0.7650
10549SOL    HW232504   3.359   0.282   3.867  1.1628 -1.7212  0.0668
10550SOL     OW32505   5.434   6.813   3.905 -0.1671  0.5348 -0.3655
10550SOL    HW132506   5.432   6.843   3.814  0.8041 -0.8123 -0.8595
10550SOL    HW232507   5.511   6.855   3.943 -2.3757  3.8562  0.9255
10551SOL     OW32508   0.910   7.199   3.878  0.1771  0.6727 -0.4472
10551SOL    HW132509   0.861   7.267   3.923  1.1501  0.0341  1.7142
10551SOL    HW232510   0.872   7.117   3.909  0.8748  0.2085 -0.7804
10552SOL     OW32511   4.827   4.555   5.687  0.2692  0.1392 -0.1156
10552SOL    HW132512   4.847   4.461   5.681 -1.2902 -0.2228 -0.0141
10552SOL    HW232513   4.839   4.587   5.597 -1.3720 -0.6480 -0.6513
10553SOL     OW32514   7.665   0.294   0.291 -0.4740  0.3472  0.1380
10553SOL    HW132515   7.638   0.336   0.373  0.5188 -0.1413  0.7384
10553SOL    HW232516   7.586   0.292   0.238 -0.8482  1.8029  0.5931
10554SOL     OW32517   5.089   4.037   1.530 -0.2303  0.2437 -0.7732
10554SOL    HW132518   5.175   4.003   1.554  0.6162  1.4675 -1.9969
10554SOL    HW232519   5.056   4.077   1.610  1.3723  1.8429 -0.8516
10555SOL     OW32520   7.672   6.172   2.144  0.3380  0.0899 -0.3250
10555SOL    HW132521   7.690   6.138   2.056 -0.2065 -0.5764 -0.1879
10555SOL    HW232522   7.755   6.162   2.191  0.4510 -0.1420 -0.5746
10556SOL     OW32523   4.856   1.170   5.220  0.2352 -0.4289  0.0290
10556SOL    HW132524   4.881   1.142   5.132  1.1661 -0.1806  0.2032
10556SOL    HW232525   4.937   1.168   5.270  0.1308  1.3824  0.3622
10557SOL     OW32526   3.039   1.456   6.244 -0.1865  0.2880 -0.0133
10557SOL    HW132527   3.071   1.393   6.180 -0.1518 -0.0386  0.3229
10557SOL    HW232528   2.944   1.448   6.240 -0.3147  1.8951 -1.6584
10558SOL     OW32529   7.372   2.236   3.925  0.6747  0.3993  0.1514
10558SOL    HW132530   7.324   2.173   3.978 -1.8758  0.0988 -2.2553
10558SOL    HW232531   7.442   2.186   3.884  0.0858 -0.3311  0.0246
10559SOL     OW32532   6.207   6.382   6.073 -0.0259 -0.2795 -0.2458
10559SOL    HW132533   6.221   6.467   6.115  0.2507 -0.6319  0.3967
10559SOL    HW232534   6.284   6.370   6.017 -0.8391  0.6110 -1.6040
10560SOL     OW32535   5.956   7.791   4.256 -0.4365  0.4908  0.1129
10560SOL    HW132536   5.947   7.858   4.324  1.1049  1.5000 -0.6062
10560SOL    HW232537   6.013   7.725   4.295  1.0312  1.4117 -0.3666
10561SOL     OW32538   5.327   1.649   7.938 -0.2128 -0.2763  0.2547
10561SOL    HW132539   5.412   1.687   7.915 -0.4187 -0.0834 -0.1964
10561SOL    HW232540   5.263   1.700   7.888 -0.4842 -1.3022 -0.4573
10562SOL     OW32541   6.982   4.013   5.809  0.6688 -0.0296 -0.5226
10562SOL    HW132542   6.945   4.084   5.861  1.0021 -1.1932  1.4050
10562SOL    HW232543   6.910   3.952   5.797  1.3978 -1.4371  1.6865
10563SOL     OW32544   0.491   7.154   6.578 -0.6201 -0.3953 -0.3866
10563SOL    HW132545   0.428   7.082   6.577  0.7793 -1.6725 -0.6642
10563SOL    HW232546   0.528   7.152   6.666 -1.0868  0.4882 -0.1561
10564SOL     OW32547   3.726   1.363   4.220  0.0085  0.2179 -0.3527
10564SOL    HW132548   3.659   1.298   4.242 -0.0710  0.2791 -0.4148
10564SOL    HW232549   3.690   1.410   4.145 -0.6601  1.3891  0.6436
10565SOL     OW32550   5.664   0.736   7.414 -0.2794 -0.3378  1.0773
10565SOL    HW132551   5.683   0.705   7.502 -0.0114 -0.5212  0.9572
10565SOL    HW232552   5.741   0.713   7.363  0.5210  1.7310  1.2634
10566SOL     OW32553   1.266   4.635   6.873  0.1678  0.4565 -0.4646
10566SOL    HW132554   1.212   4.673   6.803 -0.4124 -1.1817 -0.9349
10566SOL    HW232555   1.207   4.630   6.948 -0.3235 -1.1594 -0.9253
10567SOL     OW32556   6.760   1.367   2.908  0.2569 -0.6244 -0.0826
10567SOL    HW132557   6.813   1.446   2.922 -0.7598  0.0742 -0.1223
10567SOL    HW232558   6.818   1.309   2.859  1.2816 -0.2075  0.5777
10568SOL     OW32559   2.962   0.058   0.400  0.1789  0.4179  0.1042
10568SOL    HW132560   2.939   0.121   0.331 -1.3748  0.1954  0.3770
10568SOL    HW232561   3.026   0.105   0.454  0.6213  0.9830 -0.8765
10569SOL     OW32562   3.983   2.373   5.444  0.3025  0.1591  0.1985
10569SOL    HW132563   4.034   2.292   5.445  1.3410  0.7985  0.9462
10569SOL    HW232564   3.943   2.375   5.357  0.5153 -0.9897  0.0578
10570SOL     OW32565   5.421   0.196   3.500  0.3737 -0.1545  0.6798
10570SOL    HW132566   5.355   0.199   3.570  0.7666  2.6398  1.0698
10570SOL    HW232567   5.505   0.205   3.546  0.6371  1.7936 -0.0638
10571SOL     OW32568   4.592   4.048   2.888 -0.5127 -0.2640  0.1922
10571SOL    HW132569   4.509   4.021   2.928 -0.1682 -0.9900  0.4193
10571SOL    HW232570   4.631   3.967   2.855 -1.0011  0.3587 -2.0683
10572SOL     OW32571   7.008   2.385   0.271 -0.0461 -0.0027 -0.0541
10572SOL    HW132572   6.964   2.450   0.326 -0.3584 -0.5881  0.4132
10572SOL    HW232573   6.984   2.301   0.311  1.4947 -0.3536  0.2083
10573SOL     OW32574   3.494   7.565   2.222  0.1660  0.0823 -0.2467
10573SOL    HW132575   3.535   7.595   2.141 -1.1976  0.8939 -0.6824
10573SOL    HW232576   3.468   7.475   2.204 -0.1127  0.2520 -0.7276
10574SOL     OW32577   1.178   3.532   5.735  0.1634 -0.4526 -0.0058
10574SOL    HW132578   1.252   3.552   5.678  1.4437 -0.4760  1.5697
10574SOL    HW232579   1.143   3.617   5.761  0.0126 -0.4325 -0.2702
10575SOL     OW32580   5.872   5.163   6.765 -0.5046  0.3054 -0.1294
10575SOL    HW132581   5.860   5.101   6.838 -0.6924 -1.0567 -1.2695
10575SOL    HW232582   5.854   5.249   6.803  1.2914 -0.1406  1.9047
10576SOL     OW32583   7.556   1.857   0.822 -0.3130 -0.4229  0.1250
10576SOL    HW132584   7.651   1.854   0.820 -0.1909  1.8805  0.3417
10576SOL    HW232585   7.530   1.844   0.731  0.2166 -0.8173  0.0249
10577SOL     OW32586   1.864   0.890   0.322  0.2002 -0.8524  0.1098
10577SOL    HW132587   1.954   0.857   0.331  0.7365  0.7560  0.8996
10577SOL    HW232588   1.815   0.814   0.291  1.9325 -1.6311 -0.9252
10578SOL     OW32589   5.608   0.083   2.491 -0.3143 -0.0923  0.0329
10578SOL    HW132590   5.701   0.069   2.505 -0.0220  0.1713 -1.5363
10578SOL    HW232591   5.567   0.050   2.571  0.8887 -3.0040 -0.4462
10579SOL     OW32592   1.133   3.469   6.440  0.3798 -0.2775 -0.5778
10579SOL    HW132593   1.227   3.484   6.449  0.2393  0.6612 -0.6723
10579SOL    HW232594   1.092   3.550   6.470 -0.4639 -1.1465  0.7620
10580SOL     OW32595   3.879   4.246   7.981  0.1380  0.2642  0.2111
10580SOL    HW132596   3.853   4.156   8.000  2.1447 -0.4491 -0.1784
10580SOL    HW232597   3.859   4.294   8.061  0.0858 -0.7678  0.8449
10581SOL     OW32598   6.556   1.327   3.413  0.1225  0.3865  0.0222
10581SOL    HW132599   6.621   1.390   3.383  0.6844  0.4743  1.3297
10581SOL    HW232600   6.600   1.242   3.406 -0.1408  0.2924 -0.4590
10582SOL     OW32601   6.033   6.098   1.269 -0.3783  0.5581  0.7564
10582SOL    HW132602   6.121   6.063   1.258  0.4119  2.2745  1.1540
10582SOL    HW232603   6.026   6.166   1.201 -0.7849  1.4998  1.7143
10583SOL     OW32604   7.219   3.805   3.148 -0.6064  0.3682  0.1273
10583SOL    HW132605   7.199   3.898   3.136  0.4141  0.7727  1.4144
10583SOL    HW232606   7.193   3.786   3.239  0.0673 -0.3735  0.1740
10584SOL     OW32607   3.889   0.240   7.488  0.5964  0.0966  0.2986
10584SOL    HW132608   3.932   0.201   7.565  1.4908  0.8038  0.1705
10584SOL    HW232609   3.958   0.290   7.445 -0.4601  1.6136  0.3076
10585SOL     OW32610   1.710   7.587   4.744 -0.6265 -0.4415  0.1387
10585SOL    HW132611   1.652   7.556   4.814 -1.5518 -0.9040 -0.8192
10585SOL    HW232612   1.737   7.508   4.698  0.7545 -0.2309  0.5294
10586SOL     OW32613   4.487   4.555   3.703  0.5440  0.2968  0.0698
10586SOL    HW132614   4.429   4.613   3.653  0.4425 -0.7375 -1.0665
10586SOL    HW232615   4.432   4.522   3.774  0.5661  1.4576  0.6589
10587SOL     OW32616   3.556   1.871   1.609 -0.0454 -0.1590  0.0402
10587SOL    HW132617   3.512   1.874   1.694  0.0810  1.6420  0.0844
10587SOL    HW232618   3.485   1.877   1.545 -0.1463 -1.5914 -0.0092
10588SOL     OW32619   6.795   3.926   4.185  0.6287 -0.1293 -0.6104
10588SOL    HW132620   6.753   4.011   4.174  1.9756  0.6769  0.2518
10588SOL    HW232621   6.834   3.929   4.272  0.9117 -1.5479 -0.6601
10589SOL     OW32622   6.901   7.859   5.287 -0.3170  0.2367  0.4034
10589SOL    HW132623   6.884   7.774   5.327 -2.7267  0.1547 -0.5819
10589SOL    HW232624   6.974   7.843   5.227 -0.7244 -1.1739  0.2276
10590SOL     OW32625   0.605   5.589   1.082 -0.0859  0.4231 -0.1379
10590SOL    HW132626   0.625   5.548   0.997  0.4759  1.0194 -0.3047
10590SOL    HW232627   0.641   5.528   1.146 -2.6170 -1.2417 -0.1789
10591SOL     OW32628   7.955   6.590   5.553  0.3055  0.2725  0.6550
10591SOL    HW132629   8.014   6.520   5.582  0.8399  0.4049 -0.0643
10591SOL    HW232630   7.936   6.569   5.462  0.8024  1.2650  0.3046
10592SOL     OW32631   5.158   5.987   2.721  0.0557  0.2948 -0.3336
10592SOL    HW132632   5.170   5.892   2.713  0.3684  0.2790  0.2995
10592SOL    HW232633   5.119   5.999   2.807 -0.4086  0.7115 -0.5953
10593SOL     OW32634   7.262   4.534   4.588 -0.1522 -0.7951  0.2770
10593SOL    HW132635   7.352   4.517   4.560 -0.3884 -1.8064  0.0913
10593SOL    HW232636   7.241   4.619   4.549  0.6937 -0.5904  0.2533
10594SOL     OW32637   5.675   0.410   4.098  0.5882 -0.3556  0.4446
10594SOL    HW132638   5.767   0.392   4.117  0.3071 -0.5133  1.7152
10594SOL    HW232639   5.675   0.438   4.006  2.0070  0.4463  0.6622
10595SOL     OW32640   0.116   0.751   3.778  0.2825 -0.4966 -0.1022
10595SOL    HW132641   0.104   0.809   3.853 -0.2531 -2.5726  1.4930
10595SOL    HW232642   0.037   0.697   3.776  1.1241 -1.7451 -1.0302
10596SOL     OW32643   7.372   2.015   6.271  0.1800  0.7312  0.8308
10596SOL    HW132644   7.454   1.980   6.235  1.1529  1.8257  1.8678
10596SOL    HW232645   7.362   2.100   6.229  0.5647  1.3915  2.0284
10597SOL     OW32646   1.884   3.117   4.556 -0.1478  0.6494  0.6934
10597SOL    HW132647   1.808   3.063   4.532  0.4894 -0.0405  0.1725
10597SOL    HW232648   1.950   3.095   4.491 -0.0020  2.3942  0.1938
10598SOL     OW32649   2.793   1.952   6.366 -0.3439 -0.0059 -0.3918
10598SOL    HW132650   2.851   1.883   6.333 -1.3404 -0.4524 -1.2699
10598SOL    HW232651   2.768   1.923   6.453  0.8280  0.2469  0.0384
10599SOL     OW32652   6.847   6.160   6.334 -0.5203 -0.1355  0.2328
10599SOL    HW132653   6.833   6.197   6.421  1.8807 -1.2067  1.1526
10599SOL    HW232654   6.864   6.067   6.349  0.4258 -0.2580 -1.3118
10600SOL     OW32655   4.963   7.684   4.591 -0.4032  0.1646 -0.1967
10600SOL    HW132656   4.882   7.683   4.539 -0.1712  0.9622 -0.5905
10600SOL    HW232657   4.966   7.597   4.632 -1.1745 -0.0718 -0.6136
10601SOL     OW32658   0.231   5.079   1.061 -0.0672  0.3906  0.2446
10601SOL    HW132659   0.155   5.027   1.088 -0.0960  0.5218  0.4194
10601SOL    HW232660   0.212   5.105   0.971 -0.1622  0.3021  0.2387
10602SOL     OW32661   7.799   2.796   0.927  0.0692 -0.9849  0.9174
10602SOL    HW132662   7.779   2.806   0.834  0.5988 -2.3087  0.6343
10602SOL    HW232663   7.716   2.775   0.968  0.0442 -1.6282  0.5406
10603SOL     OW32664   0.130   7.564   7.199  0.3756 -0.1065  0.0537
10603SOL    HW132665   0.079   7.547   7.120  1.8129 -1.5125 -0.6352
10603SOL    HW232666   0.162   7.653   7.188  1.3734 -0.6050 -1.4994
10604SOL     OW32667   6.044   1.110   5.317  0.0042 -0.0689  0.1712
10604SOL    HW132668   6.056   1.086   5.409  0.1033  0.3049  0.2615
10604SOL    HW232669   6.121   1.165   5.298  0.7425 -1.3234 -0.5526
10605SOL     OW32670   2.797   4.537   7.111 -0.4305  0.0237 -0.3307
10605SOL    HW132671   2.761   4.596   7.177  1.2108 -0.1877  0.8144
10605SOL    HW232672   2.887   4.520   7.140  0.0500 -0.7989 -2.1513
10606SOL     OW32673   2.603   0.018   2.646 -0.0216  0.0276  0.1924
10606SOL    HW132674   2.654  -0.036   2.705  0.7975  0.5552 -0.0249
10606SOL    HW232675   2.661   0.035   2.572 -0.6736  0.2365 -0.2808
10607SOL     OW32676   4.213   3.287   5.431  0.7872 -0.0364 -0.4552
10607SOL    HW132677   4.275   3.287   5.358  0.1123  0.5336 -1.0522
10607SOL    HW232678   4.203   3.195   5.455  0.5251 -0.2922 -1.5178
10608SOL     OW32679   3.526   5.236   4.981  0.8505  0.4548 -0.5934
10608SOL    HW132680   3.607   5.190   4.959  0.7736  1.0792 -2.3686
10608SOL    HW232681   3.464   5.210   4.912 -1.2050 -1.6856  1.8351
10609SOL     OW32682   6.998   3.209   3.206 -0.5879  0.4385  0.3835
10609SOL    HW132683   6.981   3.303   3.197  1.5416  0.8910  0.6760
10609SOL    HW232684   7.066   3.203   3.273 -0.9288 -1.3591  0.6115
10610SOL     OW32685   6.864   5.914   5.035 -0.2698 -0.7307 -0.6905
10610SOL    HW132686   6.791   5.957   4.990  1.3540  0.5573 -2.2926
10610SOL    HW232687   6.847   5.929   5.128 -1.1243  1.1680 -1.0960
10611SOL     OW32688   7.638   6.252   6.035 -0.2365  0.6617  0.4998
10611SOL    HW132689   7.666   6.294   5.953  0.0119 -0.2690  0.0962
10611SOL    HW232690   7.579   6.183   6.007 -1.1709  1.1535  1.2043
10612SOL     OW32691   4.369   6.042   0.700  0.6064  0.0327 -0.4907
10612SOL    HW132692   4.362   5.996   0.617 -0.7003  3.3174 -2.3642
10612SOL    HW232693   4.281   6.037   0.738  0.3963  1.0568 -0.8091
10613SOL     OW32694   0.089   5.372   3.153 -0.0446 -0.4498 -0.5753
10613SOL    HW132695   0.112   5.421   3.074  0.8379 -0.9584 -0.6480
10613SOL    HW232696   0.033   5.301   3.122  0.2945 -0.6444 -0.7570
10614SOL     OW32697   7.273   0.426   7.081  0.2256 -0.1477 -0.3216
10614SOL    HW132698   7.281   0.506   7.028  0.2984  0.4672  0.5862
10614SOL    HW232699   7.200   0.445   7.141  1.3354 -0.0820  1.0496
10615SOL     OW32700   3.158   3.325   7.673  0.6944  0.0062  0.0715
10615SOL    HW132701   3.128   3.299   7.586  0.0295  0.0215  0.2929
10615SOL    HW232702   3.160   3.244   7.723 -1.3000  0.3102  0.7382
10616SOL     OW32703   6.937   5.324   6.219  0.5586 -0.1297  0.2412
10616SOL    HW132704   6.873   5.340   6.150  0.8866 -2.8102 -0.8017
10616SOL    HW232705   6.888   5.335   6.300 -0.4723  0.6988 -0.4692
10617SOL     OW32706   1.952   6.579   2.165 -0.2723  0.1178 -0.2809
10617SOL    HW132707   1.942   6.515   2.094  1.0886 -0.8939  0.3845
10617SOL    HW232708   2.018   6.540   2.222 -0.0082  1.7672  0.5827
10618SOL     OW32709   1.706   5.702   2.913 -0.3143  0.3917  0.1850
10618SOL    HW132710   1.648   5.725   2.841 -1.2219 -0.1120  0.7324
10618SOL    HW232711   1.762   5.778   2.924 -1.6322  1.3667  0.3796
10619SOL     OW32712   7.940   4.596   2.719 -0.1029 -0.1917 -0.2048
10619SOL    HW132713   7.969   4.567   2.806 -2.8952 -0.8719  0.6118
10619SOL    HW232714   7.875   4.664   2.737 -1.3131 -0.8923 -1.6931
10620SOL     OW32715   2.773   1.088   7.029 -0.1428  0.1605 -0.3118
10620SOL    HW132716   2.852   1.065   6.980  0.3362 -0.7030  0.8381
10620SOL    HW232717   2.764   1.020   7.095 -1.1601  0.9296  0.3789
10621SOL     OW32718   7.891   5.488   5.568  0.4012  0.0790 -0.6565
10621SOL    HW132719   7.888   5.583   5.554 -1.0645  0.2604  0.6441
10621SOL    HW232720   7.976   5.462   5.533  0.4619  1.7225 -1.8826
10622SOL     OW32721   3.117   1.573   5.264 -0.0475 -0.1410 -0.0835
10622SOL    HW132722   3.185   1.506   5.269  0.5707  0.5371  0.7288
10622SOL    HW232723   3.057   1.540   5.196 -0.4444 -2.1278  1.1406
10623SOL     OW32724   4.496   3.598   1.473  0.5837  0.0425  0.8456
10623SOL    HW132725   4.405   3.568   1.471  0.8068 -0.8501  2.5796
10623SOL    HW232726   4.539   3.540   1.536  2.3189  0.5711  0.1987
10624SOL     OW32727   1.315   3.957   2.435 -0.1634  0.0602  0.5126
10624SOL    HW132728   1.372   3.982   2.508 -1.6386  0.6130  1.5196
10624SOL    HW232729   1.244   4.022   2.436 -1.1758 -0.9906 -0.2821
10625SOL     OW32730   0.270   7.941   1.486 -0.3661 -0.1839  0.2353
10625SOL    HW132731   0.327   7.916   1.558 -1.5744 -0.5542  1.0844
10625SOL    HW232732   0.327   7.937   1.408  1.0422  0.5645  1.1757
10626SOL     OW32733   1.116   7.456   6.577 -0.5002  0.1161  0.5797
10626SOL    HW132734   1.135   7.384   6.516  0.6231  0.2326  0.7688
10626SOL    HW232735   1.032   7.434   6.615 -1.1038 -0.1016 -0.8249
10627SOL     OW32736   0.421   0.765   6.458  0.5018 -0.4463  0.2133
10627SOL    HW132737   0.433   0.670   6.451 -1.1304 -0.6608 -0.2148
10627SOL    HW232738   0.407   0.781   6.552 -0.3568 -0.8153  0.1612
10628SOL     OW32739   3.668   7.379   6.176 -0.3318  0.8538  0.6420
10628SOL    HW132740   3.704   7.311   6.234  0.5455  2.5807  2.2649
10628SOL    HW232741   3.707   7.360   6.091  1.8473  0.6898  1.5965
10629SOL     OW32742   6.668   4.014   4.873  0.1410 -0.2056 -0.3585
10629SOL    HW132743   6.574   4.008   4.888  0.2391 -3.2336 -0.3639
10629SOL    HW232744   6.701   4.066   4.946 -1.4118  0.2457  0.0640
10630SOL     OW32745   2.952   7.746   3.855 -0.8456 -0.0978  0.4917
10630SOL    HW132746   2.928   7.701   3.773  1.6177  0.9081 -0.8833
10630SOL    HW232747   2.940   7.839   3.835 -0.8379  0.1313  1.5247
10631SOL     OW32748   3.087   2.904   1.391  0.1329  0.1225  0.1293
10631SOL    HW132749   3.001   2.882   1.426 -0.1881 -1.3629 -1.4393
10631SOL    HW232750   3.068   2.949   1.308  0.7344 -3.1199 -1.9340
10632SOL     OW32751   5.215   5.405   0.386 -0.6533  0.1225  0.3789
10632SOL    HW132752   5.174   5.332   0.432  0.1207 -0.7497 -0.2545
10632SOL    HW232753   5.265   5.363   0.316  0.8884  1.1681  0.8042
10633SOL     OW32754   2.949   5.980   3.185 -0.2412  0.1896 -0.2411
10633SOL    HW132755   2.931   5.993   3.092  0.4908  2.4021 -0.1323
10633SOL    HW232756   2.923   6.062   3.227 -3.0345 -1.6485  1.9653
10634SOL     OW32757   3.729   1.883   3.809  0.6541  0.2502  0.2627
10634SOL    HW132758   3.665   1.954   3.807 -0.8317 -0.9987  1.0642
10634SOL    HW232759   3.755   1.871   3.718  1.3765  2.1658  0.1763
10635SOL     OW32760   0.197   6.475   0.362 -0.2429 -0.2107 -0.1059
10635SOL    HW132761   0.189   6.564   0.326 -0.6236 -0.2959 -0.2321
10635SOL    HW232762   0.107   6.445   0.371 -0.1206 -0.4823  0.1967
10636SOL     OW32763   0.973   3.632   5.196  0.1786 -0.0131  0.0120
10636SOL    HW132764   0.939   3.632   5.106  0.6727 -1.4935 -0.2110
10636SOL    HW232765   1.035   3.704   5.198 -1.1688  1.2048 -0.2757
10637SOL     OW32766   1.091   2.530   4.622 -0.2260  0.0987 -0.3021
10637SOL    HW132767   1.048   2.584   4.689  1.4081  0.1529  0.7545
10637SOL    HW232768   1.115   2.450   4.667 -2.3967 -1.5149 -1.7989
10638SOL     OW32769   0.384   2.310   6.287 -0.1312  1.0920 -0.0054
10638SOL    HW132770   0.419   2.322   6.375 -2.8900 -3.7898  2.1189
10638SOL    HW232771   0.441   2.244   6.247 -0.0989  1.7995 -1.1855
10639SOL     OW32772   5.002   4.755   2.865  0.2541  0.6589 -0.9972
10639SOL    HW132773   5.026   4.664   2.849  1.0375  0.4019  1.2723
10639SOL    HW232774   4.924   4.751   2.920  0.2929  1.3422 -0.8742
10640SOL     OW32775   0.938   0.622   3.653  0.6154 -0.7185 -0.2786
10640SOL    HW132776   0.971   0.644   3.740  1.6964 -0.4648 -0.7312
10640SOL    HW232777   0.982   0.539   3.631 -2.0401 -2.5143  0.6761
10641SOL     OW32778   7.495   2.431   7.744  0.2967  0.4440  0.7245
10641SOL    HW132779   7.567   2.395   7.794  1.1127 -0.7738 -1.2225
10641SOL    HW232780   7.416   2.405   7.793  1.0782  0.6842  2.1724
10642SOL     OW32781   6.196   5.803   0.743  0.5730  0.7980 -0.1511
10642SOL    HW132782   6.291   5.807   0.732  0.5817 -0.1930 -0.6677
10642SOL    HW232783   6.167   5.746   0.671 -0.2625  0.0331  0.7635
10643SOL     OW32784   7.752   4.915   4.847  0.5018 -0.1940  0.1715
10643SOL    HW132785   7.657   4.909   4.841  0.4309 -0.3525  1.2035
10643SOL    HW232786   7.769   5.001   4.885  0.8281  0.2472 -0.9462
10644SOL     OW32787   1.149   5.549   4.058  0.0026 -0.3874 -0.0147
10644SOL    HW132788   1.098   5.556   4.138  0.3541  2.4515  0.0901
10644SOL    HW232789   1.236   5.523   4.087  0.4844  1.8717  0.8016
10645SOL     OW32790   6.769   5.739   7.233  0.3278 -0.1181  0.0785
10645SOL    HW132791   6.687   5.789   7.240 -0.3675 -1.3784  1.3122
10645SOL    HW232792   6.783   5.731   7.138 -1.4309 -0.5634 -0.1859
10646SOL     OW32793   3.933   1.792   7.593 -0.2043  0.8586  0.3037
10646SOL    HW132794   3.917   1.886   7.582 -2.3120  0.6527  1.2636
10646SOL    HW232795   3.852   1.750   7.566  0.4611 -0.6696  0.5796
10647SOL     OW32796   0.983   5.552   0.809 -0.3780 -0.2800 -0.7452
10647SOL    HW132797   1.011   5.643   0.803 -0.2530 -0.0757  2.0166
10647SOL    HW232798   0.887   5.556   0.813 -0.3239 -0.1379  0.7407
10648SOL     OW32799   1.614   1.700   7.921 -0.6091 -0.1889  0.0942
10648SOL    HW132800   1.585   1.723   8.009 -1.7242 -0.7200 -0.1170
10648SOL    HW232801   1.646   1.782   7.884  0.9738 -0.1755  1.3841
10649SOL     OW32802   6.391   6.308   6.601 -0.6105  0.0975  0.1169
10649SOL    HW132803   6.368   6.327   6.510  0.1565 -1.4589 -0.4508
10649SOL    HW232804   6.432   6.222   6.597 -0.3932  0.0825  1.9287
10650SOL     OW32805   7.076   3.681   2.420  0.0562  0.6981 -0.3779
10650SOL    HW132806   7.122   3.716   2.497  1.3862  0.0555 -0.8331
10650SOL    HW232807   7.133   3.704   2.346 -0.8371  0.6706 -1.0935
10651SOL     OW32808   3.603   1.526   4.749  0.1526  0.0085 -0.6399
10651SOL    HW132809   3.671   1.507   4.684  1.2829 -0.6449  0.6591
10651SOL    HW232810   3.527   1.476   4.720  1.7214 -3.2540  0.3592
10652SOL     OW32811   0.548   6.722   5.191 -0.2902 -0.0273  0.4421
10652SOL    HW132812   0.473   6.682   5.148 -0.3119 -0.5190  0.9139
10652SOL    HW232813   0.612   6.651   5.198  1.6178  1.1064 -2.9288
10653SOL     OW32814   5.261   3.207   2.221  0.1923 -0.1096  0.0454
10653SOL    HW132815   5.196   3.137   2.232  0.8152 -0.5027  1.5045
10653SOL    HW232816   5.211   3.282   2.192 -0.9731 -0.3669  1.2845
10654SOL     OW32817   7.939   0.789   2.393 -0.0316  0.1661  0.5230
10654SOL    HW132818   7.863   0.811   2.340 -0.5330  0.5322  1.3818
10654SOL    HW232819   7.910   0.717   2.449  0.7199 -0.7352 -0.2015
10655SOL     OW32820   4.214   4.195   7.064  0.0934 -0.5044 -0.1657
10655SOL    HW132821   4.271   4.204   6.987  1.0861  0.0220  0.5939
10655SOL    HW232822   4.129   4.171   7.029  0.1999  0.9771 -1.5374
10656SOL     OW32823   1.403   1.381   4.461  0.2849 -0.8258 -0.2447
10656SOL    HW132824   1.469   1.406   4.397  0.3090  0.3261  0.2143
10656SOL    HW232825   1.392   1.286   4.448  0.0270 -0.5701 -2.1734
10657SOL     OW32826   1.536   4.711   5.329  0.5807 -0.2963  0.7140
10657SOL    HW132827   1.598   4.762   5.277  1.8887 -1.6562  0.8871
10657SOL    HW232828   1.512   4.769   5.401  0.2957  0.8672 -0.2689
10658SOL     OW32829   1.407   2.339   4.000 -0.0410 -0.0194  0.4774
10658SOL    HW132830   1.436   2.373   3.916 -4.9490  0.7859 -1.2262
10658SOL    HW232831   1.420   2.244   3.994 -0.3288  0.0263 -1.2215
10659SOL     OW32832   7.113   1.781   1.024  0.3929  0.1298  0.7110
10659SOL    HW132833   7.035   1.819   0.985  0.2200 -0.9580 -0.0506
10659SOL    HW232834   7.183   1.799   0.960  0.0581 -1.8818 -0.2944
10660SOL     OW32835   0.616   1.656   0.682  0.1655 -0.0822  0.4566
10660SOL    HW132836   0.642   1.746   0.661  0.4814  0.2211  2.0055
10660SOL    HW232837   0.683   1.627   0.745  0.1932 -1.4867 -0.1992
10661SOL     OW32838   3.611   2.711   0.538  0.6655  0.7052 -0.2441
10661SOL    HW132839   3.637   2.769   0.610 -0.6038  1.2047 -0.1649
10661SOL    HW232840   3.606   2.769   0.462  0.4487  0.4912 -0.3924
10662SOL     OW32841   3.941   1.109   5.769  0.3437 -0.9348  0.2206
10662SOL    HW132842   4.027   1.135   5.800  0.0892  0.1420  0.0420
10662SOL    HW232843   3.959   1.051   5.694  0.9192  1.0266 -1.2245
10663SOL     OW32844   6.914   1.678   2.666 -0.3487 -0.3049  0.0629
10663SOL    HW132845   6.928   1.649   2.576  0.1576  0.8415 -0.2521
10663SOL    HW232846   6.820   1.696   2.672 -0.4434 -0.7448 -0.1222
10664SOL     OW32847   6.554   3.329   5.850 -0.4259 -0.1804  0.0038
10664SOL    HW132848   6.522   3.345   5.939 -0.9905  1.5655 -0.4780
10664SOL    HW232849   6.475   3.316   5.798 -0.0796 -1.8223 -0.1813
10665SOL     OW32850   0.147   6.903   3.589 -0.4020  0.4701  0.2950
10665SOL    HW132851   0.069   6.848   3.577 -0.3555  0.7013 -1.4072
10665SOL    HW232852   0.118   6.991   3.565 -0.2486  1.0720  2.1663
10666SOL     OW32853   6.671   4.656   4.079 -0.4183 -0.2187 -0.0126
10666SOL    HW132854   6.679   4.654   4.175  0.0704  1.0209 -0.0052
10666SOL    HW232855   6.752   4.697   4.049 -0.8395 -0.0169 -0.9133
10667SOL     OW32856   0.298   6.554   7.834 -0.7717 -0.4052  0.4698
10667SOL    HW132857   0.348   6.504   7.898 -1.6033 -0.3639  1.1650
10667SOL    HW232858   0.291   6.642   7.871 -1.1963 -0.3603  0.2953
10668SOL     OW32859   6.651   3.039   6.235  0.3169  0.2803 -0.2022
10668SOL    HW132860   6.635   2.950   6.203 -2.2076  1.0415 -1.3211
10668SOL    HW232861   6.669   3.029   6.328 -1.0686 -1.3323 -0.0645
10669SOL     OW32862   3.623   3.836   1.210 -0.4271  0.0953 -0.1987
10669SOL    HW132863   3.579   3.911   1.250  1.8602  0.6358  1.5066
10669SOL    HW232864   3.677   3.873   1.141 -1.5450 -0.3971 -1.3737
10670SOL     OW32865   7.347   3.947   0.857  0.4244  0.2758 -0.6554
10670SOL    HW132866   7.324   4.018   0.917 -0.2692 -0.0212 -0.5682
10670SOL    HW232867   7.295   3.872   0.886  1.4943 -0.4144 -0.4482
10671SOL     OW32868   6.809   4.786   6.062 -1.0653 -0.4628  0.8137
10671SOL    HW132869   6.758   4.867   6.062  0.0264  0.2450 -0.1563
10671SOL    HW232870   6.798   4.751   5.974  2.2504  1.1484 -0.4199
10672SOL     OW32871   3.228   1.994   1.735 -0.4647 -0.1146 -0.9765
10672SOL    HW132872   3.225   2.026   1.645  0.4248  0.7723 -0.7033
10672SOL    HW232873   3.265   1.906   1.728  0.1290  0.1607 -1.4410
10673SOL     OW32874   3.463   6.847   6.289  0.3081  0.3471 -0.1664
10673SOL    HW132875   3.510   6.925   6.260  1.1575 -0.1055 -0.0428
10673SOL    HW232876   3.370   6.870   6.279  0.4805  0.1118 -3.6289
10674SOL     OW32877   6.947   1.354   3.270  0.1299  0.0217 -0.4455
10674SOL    HW132878   6.859   1.390   3.282 -0.3487 -0.6136 -1.8495
10674SOL    HW232879   6.960   1.356   3.176  1.6317  0.0799 -0.2531
10675SOL     OW32880   7.425   1.942   2.982 -0.0609  0.7147  0.6472
10675SOL    HW132881   7.496   2.007   2.979 -0.7428  1.4577  0.4674
10675SOL    HW232882   7.357   1.978   2.925 -1.0585  0.5697  1.7102
10676SOL     OW32883   7.821   7.334   5.476 -0.2359  0.0038  0.7022
10676SOL    HW132884   7.842   7.306   5.387  0.7446  2.2848  0.1362
10676SOL    HW232885   7.796   7.254   5.521  0.0751 -1.3497 -1.3844
10677SOL     OW32886   1.237   4.406   4.230  0.2165 -0.5548 -0.0269
10677SOL    HW132887   1.175   4.456   4.178  0.1289  0.6313  1.1589
10677SOL    HW232888   1.219   4.315   4.207 -0.8500 -0.1463 -0.9156
10678SOL     OW32889   7.613   7.435   3.062 -0.0867 -0.1065  0.5333
10678SOL    HW132890   7.690   7.464   3.110  0.2763 -1.1014  0.5668
10678SOL    HW232891   7.541   7.487   3.098  0.2950 -0.3121  1.6314
10679SOL     OW32892   5.549   4.099   1.414 -0.1843  0.2852 -0.2478
10679SOL    HW132893   5.623   4.118   1.356 -1.0713 -0.7317 -1.7890
10679SOL    HW232894   5.472   4.105   1.357 -1.0431 -1.3591  0.6667
10680SOL     OW32895   6.659   2.369   7.912 -0.6804 -0.3337 -0.5062
10680SOL    HW132896   6.654   2.274   7.902 -0.7807 -0.3772 -0.0814
10680SOL    HW232897   6.610   2.387   7.993 -1.2391  0.1500 -0.9418
10681SOL     OW32898   6.254   6.469   7.188  0.2205  0.5730 -0.6203
10681SOL    HW132899   6.306   6.397   7.223  0.9900  1.9354  1.1721
10681SOL    HW232900   6.215   6.433   7.108  2.3265 -1.1282 -0.9845
10682SOL     OW32901   6.233   4.479   4.849 -0.1878 -0.2147  0.1806
10682SOL    HW132902   6.313   4.447   4.808 -1.1611 -1.1200 -1.0805
10682SOL    HW232903   6.224   4.569   4.817  0.6983  0.1832  0.9603
10683SOL     OW32904   4.691   5.834   0.663  0.4893 -0.4246  0.4117
10683SOL    HW132905   4.761   5.773   0.639  0.8950  0.7921 -1.7504
10683SOL    HW232906   4.731   5.921   0.656 -0.5890  0.2034  1.5633
10684SOL     OW32907   0.806   0.484   5.790  0.5610 -0.6051 -0.8292
10684SOL    HW132908   0.715   0.469   5.762  0.7080  0.5912 -2.0429
10684SOL    HW232909   0.809   0.577   5.813  1.5675 -0.5294 -1.2191
10685SOL     OW32910   4.070   4.884   0.068  0.4786 -0.2053 -0.1868
10685SOL    HW132911   4.003   4.827   0.103  0.3433 -0.1285 -0.3212
10685SOL    HW232912   4.147   4.828   0.058  0.6331 -0.1400  0.5920
10686SOL     OW32913   0.572   6.842   0.475 -0.9507  0.0179  0.4593
10686SOL    HW132914   0.609   6.919   0.431  1.1809 -1.8820 -1.3219
10686SOL    HW232915   0.612   6.842   0.562  0.2384  0.1182 -0.0712
10687SOL     OW32916   6.964   6.768   5.396  0.2537  0.1137 -0.1923
10687SOL    HW132917   6.949   6.854   5.437 -0.3274 -1.2625  2.7644
10687SOL    HW232918   7.041   6.733   5.442  0.8472 -0.7235 -1.7683
10688SOL     OW32919   1.869   2.239   6.479  0.2219  0.1761  0.0606
10688SOL    HW132920   1.930   2.262   6.549 -0.1089 -0.5136  0.5920
10688SOL    HW232921   1.865   2.143   6.481  2.2706 -0.0818 -2.6999
10689SOL     OW32922   1.116   4.452   3.319  0.5252 -0.2059 -0.4511
10689SOL    HW132923   1.185   4.425   3.258  0.0712 -0.8768 -0.6827
10689SOL    HW232924   1.038   4.404   3.290 -0.7287  2.3853 -1.7688
10690SOL     OW32925   2.627   0.903   2.832  0.3921  0.3000 -0.1666
10690SOL    HW132926   2.642   0.841   2.761  0.7521  2.7068 -2.3034
10690SOL    HW232927   2.701   0.889   2.892 -0.5801 -2.6283  0.5041
10691SOL     OW32928   6.076   7.854   7.661  0.1520 -0.1891 -0.1974
10691SOL    HW132929   6.041   7.788   7.602 -0.3460 -0.3469  0.2681
10691SOL    HW232930   6.136   7.906   7.607  0.3256 -0.8381 -0.6354
10692SOL     OW32931   1.285   7.948   1.310 -0.2155  0.2910 -0.1174
10692SOL    HW132932   1.349   7.989   1.251 -0.9906  1.4356 -0.1857
10692SOL    HW232933   1.200   7.962   1.268 -0.7020  0.4183  0.8837
10693SOL     OW32934   5.656   4.344   5.173  0.5555  0.0546 -0.4919
10693SOL    HW132935   5.563   4.330   5.157  0.0632  0.5383  1.5785
10693SOL    HW232936   5.691   4.256   5.188  0.1233 -0.0240  0.0941
10694SOL     OW32937   0.823   6.384   6.607 -0.4483 -0.1198  0.1451
10694SOL    HW132938   0.811   6.343   6.521  0.8587 -1.7204  0.6796
10694SOL    HW232939   0.774   6.328   6.668 -0.2720  0.2400  0.6235
10695SOL     OW32940   0.581   2.726   1.212 -0.2049  0.5840 -0.2411
10695SOL    HW132941   0.490   2.717   1.186 -0.8331 -0.8792  2.1660
10695SOL    HW232942   0.586   2.813   1.252 -0.8868  0.2164  0.6891
10696SOL     OW32943   2.426   3.767   1.490  0.6188  0.6611 -0.5679
10696SOL    HW132944   2.389   3.722   1.566  0.6125 -1.2203 -1.6029
10696SOL    HW232945   2.350   3.795   1.439  0.6170  0.9236 -0.4185
10697SOL     OW32946   7.529   2.176   0.884 -0.2762  0.4930  0.0597
10697SOL    HW132947   7.605   2.235   0.887 -1.6252  2.5187 -1.8544
10697SOL    HW232948   7.534   2.135   0.798  0.5414 -2.1965  1.3035
10698SOL     OW32949   1.657   6.091   7.167 -0.4161  0.4068  0.1106
10698SOL    HW132950   1.629   6.161   7.226  0.5255 -1.2687  2.6942
10698SOL    HW232951   1.751   6.103   7.159 -0.4529  0.2494 -0.5935
10699SOL     OW32952   0.710   6.612   1.850  0.0370  0.5509 -0.0283
10699SOL    HW132953   0.797   6.576   1.834 -0.1377  0.0769  0.0668
10699SOL    HW232954   0.726   6.690   1.902  0.4345  0.7148 -0.3882
10700SOL     OW32955   7.826   4.431   3.165  0.0110  0.3113 -0.1568
10700SOL    HW132956   7.788   4.473   3.243 -1.4197  0.7359 -1.0525
10700SOL    HW232957   7.751   4.391   3.120  1.1294 -2.0700 -0.0764
10701SOL     OW32958   3.198   0.660   3.209  0.1490 -0.3464  0.5294
10701SOL    HW132959   3.124   0.688   3.156  0.1559 -0.1409  0.6257
10701SOL    HW232960   3.264   0.729   3.197  0.8705 -1.2088 -0.6651
10702SOL     OW32961   6.154   2.807   1.936  0.0740  0.2361  0.3015
10702SOL    HW132962   6.085   2.755   1.895 -0.8716  1.9052 -0.3735
10702SOL    HW232963   6.128   2.815   2.027 -0.4666  0.5747  0.1229
10703SOL     OW32964   3.608   3.919   7.348  0.0230  0.3632 -0.1585
10703SOL    HW132965   3.535   3.945   7.404  0.9548  0.4397  1.0589
10703SOL    HW232966   3.685   3.957   7.389  0.9184 -0.8372 -0.6547
10704SOL     OW32967   3.353   0.715   4.545  0.0168 -0.3074  0.7879
10704SOL    HW132968   3.425   0.769   4.577 -0.3036  0.3997  0.3395
10704SOL    HW232969   3.360   0.633   4.594  0.7836 -0.0297  1.1476
10705SOL     OW32970   3.423   3.386   3.363  0.4960  0.1526 -0.0143
10705SOL    HW132971   3.450   3.310   3.414  1.0393  0.2650 -0.1199
10705SOL    HW232972   3.503   3.413   3.316 -0.0699 -0.1401 -1.1824
10706SOL     OW32973   3.863   7.876   0.094  0.1553 -0.0344 -0.2085
10706SOL    HW132974   3.808   7.921   0.030  0.0709 -0.1759 -0.2366
10706SOL    HW232975   3.829   7.787   0.096 -1.3724  0.5295  1.7508
10707SOL     OW32976   2.734   0.854   4.086  0.6470  0.0015  0.6819
10707SOL    HW132977   2.779   0.812   4.159  0.7148 -0.1301  0.5651
10707SOL    HW232978   2.717   0.782   4.025  0.0404 -0.0019  0.8461
10708SOL     OW32979   4.112   2.248   0.240  0.0414  0.2073 -0.3615
10708SOL    HW132980   4.145   2.257   0.329  2.0517  1.5089 -1.1466
10708SOL    HW232981   4.057   2.170   0.242  0.2796  0.0339  1.9275
10709SOL     OW32982   6.216   4.433   6.487 -0.1215 -0.3379  0.4397
10709SOL    HW132983   6.230   4.426   6.581 -0.8197  2.0424  0.7877
10709SOL    HW232984   6.304   4.430   6.449  0.1994 -0.7497  1.1963
10710SOL     OW32985   1.836   1.156   2.990 -0.4272 -0.1166 -0.0404
10710SOL    HW132986   1.755   1.197   3.022 -0.2672  0.1198  0.0625
10710SOL    HW232987   1.827   1.157   2.895 -0.2570  0.5055 -0.0534
10711SOL     OW32988   0.889   4.700   1.481 -0.6493  0.3361  0.0779
10711SOL    HW132989   0.885   4.645   1.559  1.2234  0.5267  0.3563
10711SOL    HW232990   0.811   4.676   1.430 -1.4657 -0.3605  1.6138
10712SOL     OW32991   7.765   4.977   3.259 -0.0086 -0.1952  0.1713
10712SOL    HW132992   7.760   4.900   3.201 -0.4961 -0.5436  0.6582
10712SOL    HW232993   7.789   4.941   3.344 -0.1774  0.2065  0.3902
10713SOL     OW32994   2.720   1.050   3.257 -0.0248  0.0475 -0.0424
10713SOL    HW132995   2.697   1.142   3.247  0.5754  0.1203 -0.8708
10713SOL    HW232996   2.763   1.027   3.175 -0.7740 -1.1545 -0.1300
10714SOL     OW32997   7.665   4.592   4.672 -0.1188  0.0754  0.3243
10714SOL    HW132998   7.744   4.645   4.672  0.0418 -0.1576 -0.5150
10714SOL    HW232999   7.596   4.653   4.646  0.2115 -0.3124 -1.5722
10715SOL     OW33000   0.405   6.069   6.139  0.1163  0.4931 -0.1799
10715SOL    HW133001   0.489   6.090   6.097  0.9042 -0.0840  1.0544
10715SOL    HW233002   0.340   6.086   6.071  1.4023 -1.2156 -1.9714
10716SOL     OW33003   0.025   6.924   1.202  0.0388  0.3092  0.5152
10716SOL    HW133004  -0.018   6.964   1.278  0.0289  0.4943  0.4127
10716SOL    HW233005   0.090   6.989   1.175  1.8345 -0.8242  1.9375
10717SOL     OW33006   4.097   5.228   3.402 -0.3284  0.2834  0.3013
10717SOL    HW133007   4.127   5.319   3.392 -0.9641  0.3416 -1.3848
10717SOL    HW233008   4.003   5.236   3.415 -0.8355 -0.1916 -2.5613
10718SOL     OW33009   0.332   4.455   4.616 -0.2200  0.0215 -0.3787
10718SOL    HW133010   0.324   4.496   4.702  0.5355 -0.7604  0.0786
10718SOL    HW233011   0.290   4.517   4.556  1.1918  1.6391  0.2278
10719SOL     OW33012   1.159   7.433   7.264  0.3285  0.4929 -0.6673
10719SOL    HW133013   1.077   7.423   7.312  0.7456  1.6639  0.3474
10719SOL    HW233014   1.132   7.465   7.178 -0.3593 -0.6188 -0.8899
10720SOL     OW33015   6.748   3.253   6.118  0.5361  0.1295  0.2253
10720SOL    HW133016   6.710   3.178   6.164  0.1349 -1.1232 -2.0071
10720SOL    HW233017   6.824   3.216   6.073  1.0546  1.3653  0.0615
10721SOL     OW33018   2.960   0.949   1.492 -0.3683  0.0771 -0.1075
10721SOL    HW133019   3.034   1.001   1.524 -0.4195  0.2787 -0.3176
10721SOL    HW233020   2.908   0.931   1.571  0.0118 -0.2389  0.0715
10722SOL     OW33021   2.869   2.659   7.859  0.1168  0.1109 -0.1228
10722SOL    HW133022   2.812   2.723   7.902 -1.1094 -0.7856 -0.3664
10722SOL    HW233023   2.912   2.614   7.931  1.4844  1.5927  0.0508
10723SOL     OW33024   2.518   1.798   4.905  0.9543  0.8643  0.0719
10723SOL    HW133025   2.613   1.792   4.911  0.8715 -1.7635 -0.2233
10723SOL    HW233026   2.495   1.743   4.830 -0.8685  0.4554  0.8747
10724SOL     OW33027   1.626   0.942   2.303  0.4605 -0.1511  0.2596
10724SOL    HW133028   1.636   0.966   2.395  0.0083  1.2916 -0.0385
10724SOL    HW233029   1.578   0.859   2.306  0.6940 -0.2689  1.3313
10725SOL     OW33030   0.837   1.311   1.114  0.5521 -0.1220 -0.4937
10725SOL    HW133031   0.759   1.363   1.094  0.8829 -0.1046 -1.8847
10725SOL    HW233032   0.891   1.369   1.168 -0.7580 -0.4671  1.2827
10726SOL     OW33033   2.816   0.318   0.937  0.6076 -0.1640  0.0071
10726SOL    HW133034   2.863   0.360   1.009  1.5768 -1.4136  0.1460
10726SOL    HW233035   2.732   0.293   0.975  0.8983 -0.3309  0.5521
10727SOL     OW33036   3.609   1.879   7.735 -0.4350  0.1455  0.1249
10727SOL    HW133037   3.692   1.905   7.776  0.2318  0.9204 -1.5957
10727SOL    HW233038   3.547   1.947   7.761  0.2889  1.3193 -1.0678
10728SOL     OW33039   2.026   1.468   7.730  0.0417  0.2637  0.1845
10728SOL    HW133040   1.976   1.468   7.812  1.1410 -0.7701  0.8924
10728SOL    HW233041   2.116   1.452   7.757  0.7161  1.6453 -1.1010
10729SOL     OW33042   7.596   6.080   2.598 -0.3294  0.2675  0.2926
10729SOL    HW133043   7.579   6.072   2.504  0.5236  1.6359 -0.0108
10729SOL    HW233044   7.554   6.004   2.637 -2.2834  0.6253 -0.9944
10730SOL     OW33045   5.653   0.389   4.960  0.1037  0.2843 -0.4371
10730SOL    HW133046   5.643   0.404   5.054 -0.9288  0.8996 -0.6262
10730SOL    HW233047   5.683   0.474   4.926 -1.1383  0.5678 -0.8747
10731SOL     OW33048   1.958   2.489   4.469  0.5282  0.1367 -0.1403
10731SOL    HW133049   1.993   2.569   4.506 -0.4121  0.0025  1.1247
10731SOL    HW233050   1.865   2.508   4.455  0.0604 -1.0271  1.1583
10732SOL     OW33051   4.392   2.024   4.513  0.2647  0.1089 -0.0715
10732SOL    HW133052   4.463   1.979   4.559  3.6797  5.2698  0.5037
10732SOL    HW233053   4.405   2.001   4.420  1.7793 -0.1893  0.1875
10733SOL     OW33054   2.966   1.354   1.062  0.0973  0.3861  0.1576
10733SOL    HW133055   3.012   1.273   1.084 -0.6420 -0.5584 -1.5626
10733SOL    HW233056   2.873   1.333   1.071 -0.1422  0.6974 -1.2261
10734SOL     OW33057   1.699   4.209   6.241 -0.1372  0.1150 -0.0235
10734SOL    HW133058   1.714   4.238   6.151  1.2289  0.6283  0.3486
10734SOL    HW233059   1.738   4.122   6.245  1.1270  0.6832  0.4431
10735SOL     OW33060   3.377   0.133   0.419 -0.1323 -0.2207 -0.0263
10735SOL    HW133061   3.313   0.159   0.485 -0.2444  0.3021 -0.3452
10735SOL    HW233062   3.383   0.038   0.429 -0.3485 -0.1778  0.5560
10736SOL     OW33063   0.465   1.301   3.536 -0.3528  0.0897  0.3847
10736SOL    HW133064   0.473   1.327   3.628 -1.4325 -1.1918  0.8621
10736SOL    HW233065   0.388   1.245   3.533  0.3001 -0.7895 -1.1001
10737SOL     OW33066   3.074   6.691   3.059  0.1441 -0.7429  0.2087
10737SOL    HW133067   3.169   6.695   3.073 -0.3263  1.1144  4.2345
10737SOL    HW233068   3.058   6.749   2.984  2.1451 -1.6724 -1.0335
10738SOL     OW33069   0.434   6.484   6.267 -0.5745 -0.6521  0.3978
10738SOL    HW133070   0.368   6.532   6.218 -0.0115 -0.7777 -0.4945
10738SOL    HW233071   0.429   6.520   6.356 -0.1749  1.0224 -0.2382
10739SOL     OW33072   4.365   1.823   6.415 -0.6175  0.4351  0.4249
10739SOL    HW133073   4.315   1.766   6.473 -0.0432 -0.0088  0.4890
10739SOL    HW233074   4.449   1.834   6.458 -0.5258  0.8869  0.1420
10740SOL     OW33075   0.997   5.431   6.505 -0.0022  0.3580 -0.3667
10740SOL    HW133076   0.959   5.350   6.470  1.1028  0.1539 -1.1427
10740SOL    HW233077   1.081   5.439   6.461  0.4509  1.2871  0.6224
10741SOL     OW33078   6.205   0.800   6.749 -0.2986  0.2767 -0.7358
10741SOL    HW133079   6.117   0.765   6.761  0.0404  0.3263  3.0663
10741SOL    HW233080   6.263   0.724   6.752  0.0252  0.5664  1.1350
10742SOL     OW33081   3.712   5.633   2.135 -0.6320 -0.3173  0.2825
10742SOL    HW133082   3.642   5.646   2.198  0.4034  2.1713  1.0547
10742SOL    HW233083   3.681   5.678   2.056 -0.9457 -1.4476 -0.2673
10743SOL     OW33084   0.774   3.593   6.446 -0.4139 -0.4763  0.1862
10743SOL    HW133085   0.713   3.576   6.375  0.4665  0.7758 -0.9110
10743SOL    HW233086   0.787   3.507   6.487 -2.7310 -0.8157  0.3534
10744SOL     OW33087   3.150   0.370   4.452 -0.1677  0.3263  0.4954
10744SOL    HW133088   3.239   0.347   4.481 -0.7296 -2.6011  0.2106
10744SOL    HW233089   3.093   0.313   4.503 -1.7067  0.3278 -1.1248
10745SOL     OW33090   0.181   4.288   7.994  0.3249 -0.5909 -0.6205
10745SOL    HW133091   0.091   4.316   8.010  0.5613 -0.2613  0.2201
10745SOL    HW233092   0.181   4.194   8.013  0.2981 -0.4642  0.0317
10746SOL     OW33093   3.590   5.595   6.264 -0.4986  0.1579 -0.5570
10746SOL    HW133094   3.606   5.518   6.208  0.9890  0.2489 -0.3136
10746SOL    HW233095   3.575   5.667   6.203 -0.5902 -0.0804 -0.8158
10747SOL     OW33096   5.317   3.380   1.859 -0.0880 -0.0430 -0.3293
10747SOL    HW133097   5.385   3.347   1.917 -2.3485 -1.1891  1.8962
10747SOL    HW233098   5.281   3.456   1.904  0.3024  1.1407 -1.9313
10748SOL     OW33099   5.680   0.197   7.462 -0.2118  0.2288  0.0259
10748SOL    HW133100   5.761   0.156   7.491 -0.4924  0.3556  1.0228
10748SOL    HW233101   5.708   0.269   7.406  0.4029  0.8376  1.0947
10749SOL     OW33102   2.889   7.648   3.623 -0.5681 -0.7748 -0.1493
10749SOL    HW133103   2.973   7.614   3.592  2.9296  6.5146 -0.5360
10749SOL    HW233104   2.844   7.677   3.544  0.3114  2.1760  0.3231
10750SOL     OW33105   4.774   2.817   3.665 -0.1314 -0.0795 -0.0688
10750SOL    HW133106   4.810   2.872   3.596 -1.7058  0.4647 -0.4765
10750SOL    HW233107   4.851   2.776   3.705  0.8884  0.5674 -1.3087
10751SOL     OW33108   4.714   2.905   5.021 -0.1742 -0.1967  0.2562
10751SOL    HW133109   4.710   2.838   4.953  1.2801 -1.5541  1.4296
10751SOL    HW233110   4.799   2.947   5.008  0.1664 -0.5419  1.2747
10752SOL     OW33111   3.676   1.824   1.263  0.2479  0.1351  0.3221
10752SOL    HW133112   3.677   1.911   1.223  0.9361  0.2970  0.6733
10752SOL    HW233113   3.727   1.770   1.202 -0.1732 -0.0194  0.1079
10753SOL     OW33114   1.199   4.610   5.820 -0.1143  0.3339  0.5719
10753SOL    HW133115   1.189   4.655   5.904 -1.1192  0.5956  0.3249
10753SOL    HW233116   1.281   4.562   5.829 -0.9985 -0.9855  2.3380
10754SOL     OW33117   1.357   5.455   4.205  0.0696  0.0497  0.1427
10754SOL    HW133118   1.349   5.525   4.269  2.7654  2.2353 -1.6519
10754SOL    HW233119   1.435   5.406   4.232  1.5201  1.2823 -1.5391
10755SOL     OW33120   7.370   3.045   5.828 -0.1131 -0.1191  0.0612
10755SOL    HW133121   7.394   2.996   5.749  0.1295 -0.8795  0.5906
10755SOL    HW233122   7.291   3.092   5.804  1.1002  1.3414 -1.3018
10756SOL     OW33123   6.656   1.668   0.196  0.1592 -0.4450 -0.0474
10756SOL    HW133124   6.730   1.626   0.152 -0.4706 -0.4586 -1.1342
10756SOL    HW233125   6.590   1.599   0.204  0.2705 -0.4522  0.9781
10757SOL     OW33126   2.403   3.416   2.064 -0.3380  0.4584  0.1568
10757SOL    HW133127   2.311   3.437   2.049 -0.7231 -1.6546 -0.8936
10757SOL    HW233128   2.401   3.339   2.121  0.7318 -0.0558 -0.4657
10758SOL     OW33129   4.764   7.057   2.886 -0.1069  0.2903  0.0518
10758SOL    HW133130   4.685   7.017   2.850  0.6227 -1.1150 -0.0537
10758SOL    HW233131   4.821   7.071   2.811  0.8634 -1.3671  0.4217
10759SOL     OW33132   7.392   7.956   0.285  0.1688 -0.5142 -0.2697
10759SOL    HW133133   7.321   7.944   0.222 -0.6429 -1.2951  0.7547
10759SOL    HW233134   7.357   8.016   0.351  0.7511 -0.2638 -0.1780
10760SOL     OW33135   3.571   5.725   0.954 -0.8333 -0.2738 -0.6815
10760SOL    HW133136   3.596   5.663   0.886 -0.5061  0.1470 -0.9442
10760SOL    HW233137   3.478   5.707   0.969 -1.1101  0.1418 -1.7897
10761SOL     OW33138   3.983   2.343   2.360 -0.4313 -0.5824  0.5521
10761SOL    HW133139   3.908   2.291   2.333 -2.2208  1.6501  0.9152
10761SOL    HW233140   3.988   2.332   2.455 -0.0871 -0.9942  0.4865
10762SOL     OW33141   6.425   7.202   7.693  0.3336  0.5455 -0.6199
10762SOL    HW133142   6.406   7.280   7.745 -0.3977  0.9711 -1.5059
10762SOL    HW233143   6.340   7.172   7.663  0.6114 -0.5922 -0.3059
10763SOL     OW33144   2.780   7.448   7.724  0.1597 -0.0236 -0.2303
10763SOL    HW133145   2.744   7.509   7.660  0.8566  1.0043  0.3168
10763SOL    HW233146   2.875   7.453   7.711  0.2815 -0.1899  0.5271
10764SOL     OW33147   6.969   0.949   0.034  0.4171  0.2610  0.0246
10764SOL    HW133148   7.022   0.951   0.114  1.6633  1.4417 -0.7750
10764SOL    HW233149   6.937   0.860   0.029  1.3301 -0.1664  1.2145
10765SOL     OW33150   4.261   1.059   4.061  0.0932  0.3319 -0.0695
10765SOL    HW133151   4.185   1.013   4.027 -0.2016  1.2759 -0.7375
10765SOL    HW233152   4.240   1.152   4.049  0.5716  0.6558  1.4538
10766SOL     OW33153   5.856   6.306   3.036  0.2301 -0.2235 -0.1964
10766SOL    HW133154   5.914   6.377   3.063  0.3413 -0.0343 -0.8960
10766SOL    HW233155   5.806   6.284   3.114 -0.1648  0.9651 -0.0998
10767SOL     OW33156   0.168   2.194   3.036 -0.1836  0.2351 -0.5623
10767SOL    HW133157   0.092   2.243   3.003  0.5609  1.7552 -0.1192
10767SOL    HW233158   0.200   2.144   2.961 -1.6667 -0.5148 -0.7302
10768SOL     OW33159   3.181   3.383   3.943 -0.0792 -0.2032 -0.7935
10768SOL    HW133160   3.102   3.387   3.890 -0.8177  0.2637  0.3112
10768SOL    HW233161   3.248   3.425   3.889 -1.0850  1.3465 -0.8889
10769SOL     OW33162   6.284   2.646   2.545  0.4920 -0.5727  0.9241
10769SOL    HW133163   6.354   2.652   2.480  1.5024 -0.2065  1.9984
10769SOL    HW233164   6.296   2.723   2.600 -1.7191  0.3069  0.2435
10770SOL     OW33165   1.575   6.058   4.456 -0.7426  0.4142 -0.2750
10770SOL    HW133166   1.522   5.988   4.418 -0.3568  1.0942 -2.1417
10770SOL    HW233167   1.513   6.106   4.511 -1.0470 -1.2600  0.9389
10771SOL     OW33168   6.046   4.856   2.343  0.4754  0.6369  0.1138
10771SOL    HW133169   6.003   4.903   2.272 -1.9637  1.5289  2.0366
10771SOL    HW233170   6.110   4.918   2.378  1.4987  0.2850 -1.0799
10772SOL     OW33171   3.422   1.228   3.774  0.4069  0.6787  0.1188
10772SOL    HW133172   3.425   1.179   3.692  2.1165  2.1520 -0.7821
10772SOL    HW233173   3.429   1.161   3.843  3.6336 -0.3816 -1.0678
10773SOL     OW33174   6.454   7.863   5.635 -0.0265  0.2383  0.5798
10773SOL    HW133175   6.445   7.823   5.721 -1.7675  2.0913  1.3566
10773SOL    HW233176   6.364   7.874   5.604  0.4887  1.2680 -0.6544
10774SOL     OW33177   4.533   1.362   2.913 -0.6367  0.2177  0.0662
10774SOL    HW133178   4.493   1.432   2.862  0.5821  1.0409  0.1993
10774SOL    HW233179   4.543   1.290   2.852 -2.0041  0.1078 -0.0487
10775SOL     OW33180   5.522   6.441   3.384 -0.8113  0.3339  0.0497
10775SOL    HW133181   5.455   6.497   3.346  1.0847  1.0566 -2.5423
10775SOL    HW233182   5.599   6.497   3.391 -0.1049 -0.7701  1.7683
10776SOL     OW33183   4.685   1.121   4.550  0.9247  0.2443 -0.8837
10776SOL    HW133184   4.617   1.155   4.493 -0.9024 -2.5137 -0.5412
10776SOL    HW233185   4.766   1.131   4.500 -0.1532  0.9215 -2.5622
10777SOL     OW33186   0.807   6.027   6.818  0.1011 -0.2099 -0.5715
10777SOL    HW133187   0.874   6.090   6.844  0.8158 -1.1955  0.0335
10777SOL    HW233188   0.725   6.074   6.829  0.4432 -0.1204  2.1684
10778SOL     OW33189   1.351   4.100   7.459  0.3511 -0.2281  0.0438
10778SOL    HW133190   1.262   4.073   7.435  0.7401 -1.3551 -0.1896
10778SOL    HW233191   1.400   4.093   7.377  0.6770  0.3064  0.1943
10779SOL     OW33192   7.175   2.511   2.483  0.1332  0.3516  0.3761
10779SOL    HW133193   7.253   2.566   2.485  0.0123  0.7284 -2.2952
10779SOL    HW233194   7.103   2.571   2.465 -0.1376 -0.4779 -1.5732
10780SOL     OW33195   4.290   1.570   3.752 -0.2847  0.9821  0.8202
10780SOL    HW133196   4.235   1.622   3.811  2.9040  1.9079  3.2852
10780SOL    HW233197   4.327   1.635   3.692  1.4898  1.1711  2.0635
10781SOL     OW33198   5.707   6.877   2.787  0.5397  0.7634 -0.2424
10781SOL    HW133199   5.674   6.937   2.720 -0.9799 -1.0096 -1.1939
10781SOL    HW233200   5.675   6.913   2.870 -1.8944  0.4396 -0.9383
10782SOL     OW33201   7.803   7.054   0.630 -0.1597 -0.5727  0.2692
10782SOL    HW133202   7.768   6.984   0.575  2.1500 -1.4955 -0.1452
10782SOL    HW233203   7.834   7.010   0.709 -1.0956  0.3937  1.2125
10783SOL     OW33204   0.506   6.244   7.128  0.5583 -0.0583 -0.3313
10783SOL    HW133205   0.532   6.320   7.076 -1.0129  1.4609  1.0046
10783SOL    HW233206   0.559   6.250   7.208 -0.1061  0.0757  0.1071
10784SOL     OW33207   6.069   0.738   3.444 -0.1154 -0.7937 -0.1352
10784SOL    HW133208   6.160   0.736   3.473  0.2787  0.2976 -1.1868
10784SOL    HW233209   6.058   0.658   3.392  0.3980 -0.6855 -0.4174
10785SOL     OW33210   1.457   7.795   1.059  0.1050 -0.4020  0.1094
10785SOL    HW133211   1.526   7.822   0.999 -0.9675 -1.1635 -1.5558
10785SOL    HW233212   1.500   7.788   1.144  1.8369  0.1067 -0.6814
10786SOL     OW33213   4.823   1.434   0.898 -0.4362 -0.0102  0.3553
10786SOL    HW133214   4.816   1.515   0.846 -0.8122 -0.0366  0.3588
10786SOL    HW233215   4.751   1.380   0.866 -0.4398 -0.1763  0.6475
10787SOL     OW33216   0.455   2.845   2.983 -0.2663 -0.3184 -0.1191
10787SOL    HW133217   0.408   2.915   2.938 -1.4419  0.6387  2.3899
10787SOL    HW233218   0.547   2.873   2.983 -0.6984  1.2192  0.7130
10788SOL     OW33219   1.437   4.941   3.358  0.7233  0.5095  0.2881
10788SOL    HW133220   1.386   4.984   3.289  1.3111  1.9668  0.7255
10788SOL    HW233221   1.508   4.897   3.312  0.2243  0.1440 -0.1514
10789SOL     OW33222   2.496   2.075   3.961 -0.5438  0.1870  0.2735
10789SOL    HW133223   2.497   2.050   4.053 -0.0170  1.0136  0.5023
10789SOL    HW233224   2.426   2.140   3.954 -1.4312 -0.7971 -0.1721
10790SOL     OW33225   1.878   3.112   7.610 -0.3054  0.1518 -0.3355
10790SOL    HW133226   1.964   3.115   7.569  1.0500  1.2716  2.3412
10790SOL    HW233227   1.835   3.036   7.570  2.5777 -1.4829 -0.5935
10791SOL     OW33228   6.736   3.659   4.088 -0.3224  0.0669  0.3304
10791SOL    HW133229   6.758   3.642   4.180 -1.8023 -0.9164  0.5364
10791SOL    HW233230   6.728   3.755   4.083  0.9682  0.2277  0.9103
10792SOL     OW33231   1.075   7.678   5.679 -0.1179 -0.3083  0.2160
10792SOL    HW133232   1.081   7.766   5.641  0.2073 -0.5515 -0.3004
10792SOL    HW233233   0.984   7.651   5.665  0.0047 -0.4073 -0.4209
10793SOL     OW33234   1.121   5.430   1.001  0.2816 -0.6809 -0.2049
10793SOL    HW133235   1.104   5.467   0.915 -3.2130 -0.1795  0.5521
10793SOL    HW233236   1.093   5.339   0.995  0.6306 -0.8259  0.2424
10794SOL     OW33237   6.027   0.027   4.791 -0.2486  0.0938 -0.5011
10794SOL    HW133238   5.965   0.081   4.742  0.1400 -0.7177 -1.9615
10794SOL    HW233239   6.087   0.089   4.831  0.3179  0.7803 -2.3113
10795SOL     OW33240   5.783   5.906   3.967 -0.4468 -0.3868  0.3526
10795SOL    HW133241   5.707   5.850   3.982 -0.8017 -0.0572 -0.2009
10795SOL    HW233242   5.842   5.886   4.040 -1.5809  0.2604  1.4883
10796SOL     OW33243   1.362   5.684   7.907  0.1151 -0.2830 -0.2240
10796SOL    HW133244   1.411   5.736   7.971 -1.9300  1.0873  0.3216
10796SOL    HW233245   1.275   5.722   7.906 -0.1844 -0.7643 -3.2925
10797SOL     OW33246   2.835   3.860   3.295  0.6044  0.0408 -0.0173
10797SOL    HW133247   2.883   3.815   3.365  0.3146 -0.5463 -0.1950
10797SOL    HW233248   2.865   3.818   3.214 -0.5469 -0.6538 -0.0995
10798SOL     OW33249   6.140   2.709   4.157 -0.2199 -0.2187  0.9596
10798SOL    HW133250   6.168   2.786   4.108 -0.3919  0.1793  1.4678
10798SOL    HW233251   6.166   2.635   4.103  0.4738  0.1791  0.7346
10799SOL     OW33252   1.662   6.264   4.242  0.1193 -0.0984 -0.0028
10799SOL    HW133253   1.599   6.207   4.287  0.3814  0.1113  0.6368
10799SOL    HW233254   1.609   6.338   4.212  0.0490  0.0520  0.4872
10800SOL     OW33255   6.920   6.956   4.243  0.2318 -0.3678  0.3333
10800SOL    HW133256   6.914   6.866   4.211 -2.7707  0.8072 -3.0847
10800SOL    HW233257   6.848   6.964   4.306 -0.0624 -0.1423 -0.0297
10801SOL     OW33258   3.989   5.160   2.541 -0.3200 -0.0448  0.3653
10801SOL    HW133259   4.067   5.186   2.590  0.0108 -0.1518 -0.0913
10801SOL    HW233260   3.973   5.232   2.480  0.9705 -1.1054 -1.3397
10802SOL     OW33261   1.607   2.414   4.673 -0.4718  0.4313 -0.1356
10802SOL    HW133262   1.612   2.433   4.579  0.4341  0.5338 -0.0796
10802SOL    HW233263   1.681   2.462   4.711  2.5490 -3.7002 -0.0881
10803SOL     OW33264   0.128   5.467   7.753  0.0314  0.1467 -0.1066
10803SOL    HW133265   0.075   5.492   7.829  1.6331  1.4282  0.6661
10803SOL    HW233266   0.209   5.517   7.764  1.2610 -1.4655 -1.4160
10804SOL     OW33267   0.645   3.882   6.832 -0.2810 -0.1150 -0.2226
10804SOL    HW133268   0.678   3.815   6.772 -0.3053  0.1372 -0.5131
10804SOL    HW233269   0.559   3.905   6.798 -1.2302 -1.4964  1.0866
10805SOL     OW33270   1.634   5.971   6.304  0.0685 -0.1170  0.6004
10805SOL    HW133271   1.677   5.978   6.219 -0.1775 -1.5962  0.3207
10805SOL    HW233272   1.682   5.901   6.349  0.9709  1.4182  2.1832
10806SOL     OW33273   2.336   2.559   4.351  0.1985 -0.1293 -0.2836
10806SOL    HW133274   2.344   2.503   4.428  1.2555  1.1997  0.6373
10806SOL    HW233275   2.299   2.503   4.283  0.9768 -1.8424  0.6551
10807SOL     OW33276   2.154   6.526   5.877 -0.5432 -0.2986 -0.1784
10807SOL    HW133277   2.109   6.441   5.870 -0.9586 -0.0466 -0.5676
10807SOL    HW233278   2.123   6.576   5.802  0.4134 -0.1282 -0.4701
10808SOL     OW33279   6.827   4.624   0.105  0.6042 -0.2612 -0.2821
10808SOL    HW133280   6.778   4.554   0.063 -0.4199  0.1797  0.1435
10808SOL    HW233281   6.899   4.580   0.150 -0.8929 -1.2258  1.2539
10809SOL     OW33282   4.249   0.455   1.194  0.0033 -0.4334 -0.2570
10809SOL    HW133283   4.221   0.540   1.229 -0.6357 -0.8732  0.3064
10809SOL    HW233284   4.231   0.393   1.264  0.5655 -1.0267 -0.6317
10810SOL     OW33285   2.394   5.961   0.800  0.4170  0.4905  0.5708
10810SOL    HW133286   2.476   6.009   0.786  0.2926  0.6269  0.3026
10810SOL    HW233287   2.327   6.013   0.755  0.4746 -0.5741 -0.8197
10811SOL     OW33288   5.575   1.995   3.459 -0.8054 -0.2844 -0.4700
10811SOL    HW133289   5.528   2.015   3.541 -0.3620 -2.2959  0.3424
10811SOL    HW233290   5.538   1.911   3.431 -0.6574  0.1784 -2.1494
10812SOL     OW33291   5.368   5.253   6.286 -0.6468  0.4782  0.5904
10812SOL    HW133292   5.419   5.262   6.367 -1.5386  1.0606  1.1056
10812SOL    HW233293   5.331   5.340   6.271 -0.5037  0.3630 -0.4403
10813SOL     OW33294   1.545   0.991   7.110 -0.2357  0.0523 -0.0521
10813SOL    HW133295   1.600   1.068   7.099  0.1797 -0.0841  0.9811
10813SOL    HW233296   1.606   0.918   7.117 -0.5395 -0.1408  0.7764
10814SOL     OW33297   4.365   0.168   3.951  0.5209  0.1642  0.2417
10814SOL    HW133298   4.413   0.240   3.911  1.0476  0.2348  0.9741
10814SOL    HW233299   4.412   0.151   4.033 -1.0559  0.6222  1.2815
10815SOL     OW33300   3.038   6.003   3.921 -0.0474  0.2141  0.3350
10815SOL    HW133301   3.103   5.987   3.852  1.1838  0.3508  1.4250
10815SOL    HW233302   3.083   5.981   4.002 -1.0195  1.3189  1.2192
10816SOL     OW33303   4.624   1.032   5.283 -0.6068 -0.1933  0.2071
10816SOL    HW133304   4.581   1.005   5.202  0.8597  0.2735 -0.7616
10816SOL    HW233305   4.685   1.101   5.257 -0.4484  0.3241  1.7932
10817SOL     OW33306   6.050   0.983   5.066  0.5269  0.0024 -0.7925
10817SOL    HW133307   6.023   1.025   5.148  1.4979 -1.9630  0.6268
10817SOL    HW233308   6.124   1.036   5.035  0.1794  0.7431 -0.3754
10818SOL     OW33309   2.855   6.065   2.957  0.4483 -0.1116  0.2611
10818SOL    HW133310   2.776   6.119   2.945  1.1873  0.6902 -1.4047
10818SOL    HW233311   2.897   6.066   2.871  0.1670 -3.9401 -0.1127
10819SOL     OW33312   0.220   0.716   4.623 -0.1100  0.7932 -0.0904
10819SOL    HW133313   0.243   0.801   4.585  1.1862  1.2707  1.6201
10819SOL    HW233314   0.232   0.654   4.551  1.9110  1.6828 -0.6132
10820SOL     OW33315   4.152   4.193   3.852 -0.8070  0.1625 -0.1534
10820SOL    HW133316   4.154   4.207   3.758 -1.8917  2.0198  0.0455
10820SOL    HW233317   4.104   4.269   3.887 -1.0278 -0.8067  1.8248
10821SOL     OW33318   3.164   2.043   1.068 -0.1394  0.1219  0.3265
10821SOL    HW133319   3.252   2.010   1.052 -0.3855  0.1503 -1.2471
10821SOL    HW233320   3.152   2.112   1.002 -1.4651 -0.1403  0.2640
10822SOL     OW33321   3.755   3.178   7.230  0.1689 -0.0744  0.5418
10822SOL    HW133322   3.756   3.123   7.308 -0.0969  0.0147  0.6080
10822SOL    HW233323   3.784   3.264   7.260  0.6814 -0.1995  0.4192
10823SOL     OW33324   0.361   1.505   4.806 -0.4602 -0.5197  0.4093
10823SOL    HW133325   0.426   1.435   4.797  1.0677  0.9309 -0.5460
10823SOL    HW233326   0.323   1.492   4.893 -1.0739 -3.1805 -0.1875
10824SOL     OW33327   5.421   1.961   6.893 -0.0137  0.1499  0.1247
10824SOL    HW133328   5.454   2.051   6.892 -1.1732  0.6665  2.1727
10824SOL    HW233329   5.326   1.970   6.885 -0.0632 -1.0109 -1.0088
10825SOL     OW33330   6.328   6.455   3.132  0.2470 -0.5482  0.5702
10825SOL    HW133331   6.374   6.448   3.048  0.2240  0.8139  0.4309
10825SOL    HW233332   6.307   6.548   3.141  0.2990 -0.6620  2.1234
10826SOL     OW33333   4.072   3.526   2.586  0.1110 -0.2286 -0.3084
10826SOL    HW133334   4.041   3.458   2.526  0.8840 -0.8513 -0.0301
10826SOL    HW233335   4.167   3.531   2.570  0.4504 -0.8545  1.2571
10827SOL     OW33336   7.960   0.247   0.240  0.5171  0.3727  0.5935
10827SOL    HW133337   7.873   0.282   0.224  0.4085  0.3630  1.1495
10827SOL    HW233338   7.970   0.177   0.176 -0.0148  0.1530  0.7493
10828SOL     OW33339   5.441   3.045   0.484  0.3740 -0.0665 -0.3785
10828SOL    HW133340   5.525   3.055   0.439  1.0972 -1.6561  0.5512
10828SOL    HW233341   5.376   3.067   0.417  1.4726 -0.3090 -1.5780
10829SOL     OW33342   3.215   0.149   7.288 -0.1162  0.1005 -0.2987
10829SOL    HW133343   3.237   0.178   7.376 -0.8248 -1.2053  0.3432
10829SOL    HW233344   3.293   0.104   7.257  0.0070  0.2425 -0.1944
10830SOL     OW33345   3.104   6.147   2.410 -0.0915 -0.3092 -0.5525
10830SOL    HW133346   3.111   6.223   2.352 -3.3185  0.5146 -0.0932
10830SOL    HW233347   3.167   6.084   2.376 -1.3388  0.3385 -4.6561
10831SOL     OW33348   3.828   1.138   4.093 -0.1417 -0.2887 -0.2056
10831SOL    HW133349   3.842   1.171   4.004  0.5245  0.2633  0.0974
10831SOL    HW233350   3.803   1.216   4.143 -1.2001 -0.7121 -0.0484
10832SOL     OW33351   6.872   2.203   3.449  0.0721  0.2257  0.3909
10832SOL    HW133352   6.807   2.173   3.514 -1.0171 -1.5313 -1.3942
10832SOL    HW233353   6.869   2.136   3.381  2.5566  1.0256 -0.5821
10833SOL     OW33354   4.723   7.163   3.140  0.3112  0.3759  0.2720
10833SOL    HW133355   4.628   7.152   3.148  0.4889 -2.0118 -0.0328
10833SOL    HW233356   4.741   7.156   3.046  0.7067  2.0078  0.1989
10834SOL     OW33357   6.658   2.884   1.727 -0.3165 -0.2960  0.0670
10834SOL    HW133358   6.668   2.977   1.709 -0.2006 -0.6980 -2.1046
10834SOL    HW233359   6.618   2.881   1.814 -1.4166  1.8055 -0.3074
10835SOL     OW33360   0.946   6.965   1.369 -0.1506  0.7791  0.2312
10835SOL    HW133361   0.890   6.888   1.361 -0.7844  1.2608 -0.0215
10835SOL    HW233362   0.918   7.007   1.450  2.5603 -1.1091  2.3870
10836SOL     OW33363   4.208   5.699   0.791 -0.2993 -0.2869 -0.0387
10836SOL    HW133364   4.202   5.655   0.876  0.3803 -0.1357  0.0920
10836SOL    HW233365   4.301   5.717   0.780 -0.1443 -1.8085 -1.5934
10837SOL     OW33366   4.956   6.347   5.756  0.0807 -0.0422  0.5508
10837SOL    HW133367   4.874   6.332   5.804  0.6414 -3.3875  0.7376
10837SOL    HW233368   5.025   6.340   5.822  0.6290  0.3463  0.0320
10838SOL     OW33369   4.035   3.072   5.241  0.1402 -0.3892 -0.0498
10838SOL    HW133370   4.121   3.112   5.233 -0.3513  1.3862  2.3233
10838SOL    HW233371   4.044   3.009   5.313 -0.0857 -1.7526 -1.1625
10839SOL     OW33372   6.335   3.967   6.763 -0.8087  0.4378 -0.8051
10839SOL    HW133373   6.313   3.874   6.771  0.3037  0.0487 -1.8512
10839SOL    HW233374   6.260   4.006   6.719 -1.4779  0.1395  0.0372
10840SOL     OW33375   7.631   4.431   2.040  0.7270  0.2791  0.3113
10840SOL    HW133376   7.562   4.377   2.078 -0.4062  2.1362  1.0167
10840SOL    HW233377   7.616   4.518   2.076  1.6179  1.4147 -1.9006
10841SOL     OW33378   1.473   4.995   1.049  0.2859  0.2836 -0.4134
10841SOL    HW133379   1.458   4.904   1.076 -1.3356  1.1961  2.1102
10841SOL    HW233380   1.456   4.995   0.955 -0.2781 -1.8997 -0.3708
10842SOL     OW33381   5.759   0.324   2.617 -0.0366 -0.4798  0.2810
10842SOL    HW133382   5.807   0.257   2.568  0.9510 -0.2105  0.8417
10842SOL    HW233383   5.778   0.405   2.569 -1.7570 -0.6572 -0.7766
10843SOL     OW33384   0.449   2.266   7.733  0.2323 -0.6125 -0.2218
10843SOL    HW133385   0.454   2.192   7.672  1.6216 -0.6925 -0.0412
10843SOL    HW233386   0.381   2.240   7.796 -0.0218 -1.2739 -0.7573
10844SOL     OW33387   6.456   2.872   3.592 -0.3849  0.5616 -0.1125
10844SOL    HW133388   6.421   2.844   3.677 -0.0456 -1.4704 -0.5744
10844SOL    HW233389   6.516   2.801   3.567 -0.5604  1.0654 -2.0933
10845SOL     OW33390   6.363   3.866   1.272  0.9801 -0.1045  0.0551
10845SOL    HW133391   6.427   3.876   1.201  0.8924 -1.6156 -0.2689
10845SOL    HW233392   6.345   3.955   1.300 -0.1565  0.7159 -2.8825
10846SOL     OW33393   4.826   1.959   1.175 -0.4412 -0.1451 -0.2940
10846SOL    HW133394   4.911   2.001   1.175  0.0282 -1.0245 -1.9309
10846SOL    HW233395   4.765   2.027   1.204  0.6078  0.9364 -0.5747
10847SOL     OW33396   2.452   1.392   3.938 -0.1060  0.7045  0.3553
10847SOL    HW133397   2.526   1.444   3.969  0.3482  0.6163 -0.5402
10847SOL    HW233398   2.376   1.433   3.978  0.0948  2.8397 -1.2420
10848SOL     OW33399   4.913   4.840   6.290  0.2246  0.9595 -0.8694
10848SOL    HW133400   4.994   4.892   6.290  0.1497  1.0746 -0.9686
10848SOL    HW233401   4.931   4.770   6.352  0.6743  0.5551 -1.4443
10849SOL     OW33402   3.056   0.739   2.790  0.6362  0.1826  0.5698
10849SOL    HW133403   3.094   0.824   2.769  0.5193  0.4082  1.2528
10849SOL    HW233404   3.124   0.675   2.767  0.7092  0.4486  0.0219
10850SOL     OW33405   7.526   0.877   5.727  0.2065 -0.0929  0.0942
10850SOL    HW133406   7.497   0.963   5.757  1.6105 -0.3123  2.3740
10850SOL    HW233407   7.605   0.894   5.675 -0.6761  0.1049 -1.2111
10851SOL     OW33408   5.439   3.814   6.707 -0.7435 -0.2642 -0.4030
10851SOL    HW133409   5.451   3.889   6.649  1.4215  0.0992  0.4325
10851SOL    HW233410   5.460   3.848   6.794  2.9360 -2.3525 -0.2960
10852SOL     OW33411   7.952   5.192   6.244  0.4770  0.0369 -0.2394
10852SOL    HW133412   8.000   5.264   6.285 -0.9898  0.6085  0.5290
10852SOL    HW233413   7.920   5.229   6.162  0.3689  0.0155 -0.2062
10853SOL     OW33414   6.439   3.655   6.371 -0.3307 -0.2021  0.1440
10853SOL    HW133415   6.349   3.623   6.376  0.5834 -2.8093  1.6619
10853SOL    HW233416   6.447   3.716   6.445 -0.8576  0.2111 -0.1245
10854SOL     OW33417   7.309   4.592   5.923  0.4736  0.0229  0.4717
10854SOL    HW133418   7.241   4.584   5.856  0.6242 -0.2701  0.3521
10854SOL    HW233419   7.262   4.588   6.006  0.4078 -0.8175  0.4013
10855SOL     OW33420   2.127   4.926   5.804 -0.0424  0.3692 -0.3812
10855SOL    HW133421   2.061   4.864   5.774  0.7064  0.0678 -1.4529
10855SOL    HW233422   2.080   5.009   5.813 -0.7705 -0.0567 -0.1870
10856SOL     OW33423   5.294   1.474   2.561 -0.3326 -0.0846 -0.1588
10856SOL    HW133424   5.373   1.462   2.509 -0.5734  0.0534 -0.5650
10856SOL    HW233425   5.225   1.430   2.511 -0.4545 -0.5013  0.3568
10857SOL     OW33426   7.708   7.362   6.362 -0.1419  0.0495  0.2988
10857SOL    HW133427   7.656   7.342   6.439 -0.7523 -0.4470 -0.2317
10857SOL    HW233428   7.786   7.307   6.370 -1.1264 -1.5156 -0.4114
10858SOL     OW33429   7.362   4.071   5.966 -0.2377  0.6046 -0.1576
10858SOL    HW133430   7.407   3.987   5.970 -2.3650 -0.6049 -0.1819
10858SOL    HW233431   7.372   4.099   5.875 -0.9597 -0.4869 -0.5837
10859SOL     OW33432   0.089   0.938   6.248 -0.2334  0.3176 -0.3486
10859SOL    HW133433   0.140   0.860   6.226 -0.6776  0.4686 -2.0548
10859SOL    HW233434   0.020   0.906   6.306 -1.5094 -0.9872 -2.4145
10860SOL     OW33435   4.000   3.554   0.810 -0.0456 -0.2323  0.4125
10860SOL    HW133436   4.093   3.563   0.788 -0.0361  0.3595  0.6829
10860SOL    HW233437   3.956   3.620   0.756  0.0142  1.4921  2.3642
10861SOL     OW33438   4.640   4.629   7.079 -0.6621  0.2353  0.3407
10861SOL    HW133439   4.586   4.561   7.040 -0.2930 -0.2668  0.6996
10861SOL    HW233440   4.723   4.586   7.100 -0.3073  0.8703  0.2780
10862SOL     OW33441   2.649   2.403   2.876 -0.2814 -0.2346  0.3186
10862SOL    HW133442   2.745   2.405   2.881 -0.3360 -0.3160  1.7474
10862SOL    HW233443   2.628   2.455   2.798  0.9284 -0.4689 -0.1924
10863SOL     OW33444   4.098   3.077   6.575 -0.1715  0.3074 -0.6081
10863SOL    HW133445   4.068   3.093   6.486  0.3412 -0.7964 -1.0020
10863SOL    HW233446   4.175   3.133   6.586 -0.4587  0.7251 -0.7229
10864SOL     OW33447   6.216   5.834   3.232  0.4414 -0.3963 -0.0458
10864SOL    HW133448   6.167   5.809   3.311  1.3031  0.4668  0.7817
10864SOL    HW233449   6.181   5.920   3.209  0.7614 -0.2880 -0.1277
10865SOL     OW33450   4.756   3.213   2.258 -0.0215  0.3225  0.8855
10865SOL    HW133451   4.706   3.278   2.209  0.5549  0.8102  0.9305
10865SOL    HW233452   4.778   3.257   2.340  1.4545  0.5273  0.4002
10866SOL     OW33453   1.307   5.226   6.817 -0.8302  0.3245 -0.1880
10866SOL    HW133454   1.362   5.248   6.892 -0.6836  0.9364 -0.4647
10866SOL    HW233455   1.263   5.145   6.842 -0.9755  0.6534  0.6585
10867SOL     OW33456   0.119   2.417   7.059 -0.4561 -0.2778 -0.0374
10867SOL    HW133457   0.171   2.407   6.979 -1.6841  4.3974 -1.7463
10867SOL    HW233458   0.174   2.471   7.116 -0.6078 -1.4671  1.2802
10868SOL     OW33459   7.390   1.314   5.931  0.3854 -0.2511 -0.4593
10868SOL    HW133460   7.347   1.348   6.010 -0.8001  1.7761 -1.9062
10868SOL    HW233461   7.326   1.254   5.893  0.8363 -0.9941 -0.0657
10869SOL     OW33462   2.853   3.837   0.262  0.1794  0.6690 -0.4397
10869SOL    HW133463   2.905   3.879   0.330 -0.0905  2.1010 -1.0616
10869SOL    HW233464   2.790   3.905   0.235 -1.4656 -0.7178 -0.2838
10870SOL     OW33465   7.886   3.736   3.255 -0.2953  0.6578 -0.0482
10870SOL    HW133466   7.908   3.682   3.180  0.6930  0.6235  0.2516
10870SOL    HW233467   7.967   3.783   3.275 -1.2821  2.7301 -0.6816
10871SOL     OW33468   2.282   1.474   2.082 -0.1652  0.1070 -0.3806
10871SOL    HW133469   2.317   1.563   2.075  0.8998 -0.2021  0.6964
10871SOL    HW233470   2.359   1.417   2.071 -0.7096 -0.6589 -0.2817
10872SOL     OW33471   6.502   7.226   5.420 -0.0382  0.5298 -0.4517
10872SOL    HW133472   6.537   7.309   5.453 -1.7617  1.0941  0.0698
10872SOL    HW233473   6.421   7.250   5.375 -0.8186 -0.9165  0.1048
10873SOL     OW33474   7.817   4.412   6.090 -0.1061 -0.5581  0.0795
10873SOL    HW133475   7.790   4.422   5.999  0.7550 -0.1904 -0.1468
10873SOL    HW233476   7.752   4.463   6.140 -0.5435 -0.7093 -0.3275
10874SOL     OW33477   0.844   4.531   5.739 -0.4017 -0.2185  0.2378
10874SOL    HW133478   0.775   4.485   5.691  0.2466 -0.8784 -0.0793
10874SOL    HW233479   0.807   4.545   5.826 -1.1363 -0.0834 -0.0851
10875SOL     OW33480   7.405   4.504   6.535  0.0596 -0.2057  0.4676
10875SOL    HW133481   7.474   4.562   6.504 -0.0285 -0.0882  0.4877
10875SOL    HW233482   7.449   4.442   6.593  0.6052 -1.8099 -1.5798
10876SOL     OW33483   5.919   6.396   0.274 -0.3893 -0.0132 -0.0041
10876SOL    HW133484   5.959   6.451   0.207 -0.4348 -1.2104 -1.0586
10876SOL    HW233485   5.954   6.308   0.257 -1.4601 -0.6003  0.6782
10877SOL     OW33486   4.790   4.863   7.380 -0.2843 -0.4767  0.1236
10877SOL    HW133487   4.838   4.896   7.457 -0.9188  1.9220 -0.4362
10877SOL    HW233488   4.854   4.868   7.309 -0.8578  1.3234 -0.3178
10878SOL     OW33489   5.676   4.190   6.960  0.4117 -0.3656  0.2908
10878SOL    HW133490   5.755   4.150   6.996 -0.1860 -0.5338  1.4660
10878SOL    HW233491   5.618   4.116   6.943  0.2983 -0.1985 -0.0538
10879SOL     OW33492   0.024   0.319   7.299 -0.5473  0.0264  0.0280
10879SOL    HW133493   0.064   0.262   7.364 -1.0560 -1.8366 -1.2068
10879SOL    HW233494   0.023   0.406   7.339  1.9245 -0.4486  1.2737
10880SOL     OW33495   0.855   2.032   3.090  0.1261 -0.4066 -0.0956
10880SOL    HW133496   0.824   2.032   3.181 -0.6423 -0.7214 -0.3425
10880SOL    HW233497   0.795   2.091   3.045  0.7771  0.0918 -0.3148
10881SOL     OW33498   1.969   4.886   5.077  0.3041 -0.2545  0.4398
10881SOL    HW133499   1.965   4.981   5.077  0.6122 -0.2378 -0.2615
10881SOL    HW233500   2.061   4.865   5.064  0.1985 -0.6500  0.3120
10882SOL     OW33501   3.280   0.074   6.938  0.9263 -0.3485  0.3445
10882SOL    HW133502   3.225   0.145   6.972  0.7961 -0.5891  0.6413
10882SOL    HW233503   3.342   0.055   7.009  1.4177 -0.0556 -0.0017
10883SOL     OW33504   5.042   6.608   7.409 -0.4159  0.2046 -0.0146
10883SOL    HW133505   5.102   6.643   7.343 -1.8466  2.2562 -0.3190
10883SOL    HW233506   5.031   6.516   7.385  1.7621  0.0210 -0.5371
10884SOL     OW33507   2.396   0.115   5.050  0.4183 -0.4482 -0.3343
10884SOL    HW133508   2.380   0.068   4.968  0.7753 -2.3255  0.5948
10884SOL    HW233509   2.336   0.075   5.113  0.0802  1.0217  0.3165
10885SOL     OW33510   1.934   5.314   5.496 -0.1853 -0.1216 -0.2437
10885SOL    HW133511   1.846   5.350   5.484 -0.3623 -0.0382  1.1231
10885SOL    HW233512   1.961   5.346   5.582  1.0417 -0.4432 -0.4935
10886SOL     OW33513   0.195   7.786   0.475  0.2247  0.3158 -0.1339
10886SOL    HW133514   0.108   7.785   0.435 -0.1882 -1.4333  0.7303
10886SOL    HW233515   0.203   7.701   0.518  1.2997  1.4554  2.1076
10887SOL     OW33516   4.900   2.704   6.177  0.0815 -0.2127 -0.4448
10887SOL    HW133517   4.911   2.680   6.085  0.0892 -0.0372 -0.4903
10887SOL    HW233518   4.989   2.706   6.212  0.0144 -1.2990 -0.1694
10888SOL     OW33519   1.885   3.536   2.835  0.7478  0.4002  0.5255
10888SOL    HW133520   1.891   3.455   2.783 -0.4279  1.0642 -0.7317
10888SOL    HW233521   1.863   3.603   2.770 -0.6792  1.2915  1.8806
10889SOL     OW33522   7.070   7.532   1.803  0.3817 -0.5458  0.3767
10889SOL    HW133523   7.075   7.437   1.791  0.4548 -0.4926 -0.0311
10889SOL    HW233524   7.068   7.544   1.898  4.3035 -0.7973  0.6758
10890SOL     OW33525   5.663   4.272   0.643  0.2271  0.1319 -0.3395
10890SOL    HW133526   5.588   4.248   0.589 -0.3687  0.2519  0.4184
10890SOL    HW233527   5.649   4.364   0.666  1.1092  0.4412 -0.9935
10891SOL     OW33528   5.772   7.956   3.682  1.0876  0.6823 -0.0080
10891SOL    HW133529   5.773   8.050   3.661 -1.6951  0.5467 -1.1727
10891SOL    HW233530   5.738   7.914   3.603 -2.8703 -0.6739  2.1554
10892SOL     OW33531   5.529   4.886   0.844 -0.4326 -0.1685 -0.0059
10892SOL    HW133532   5.557   4.888   0.752 -1.2961 -1.8871 -0.3490
10892SOL    HW233533   5.434   4.881   0.840 -0.4426 -1.1142  0.9443
10893SOL     OW33534   3.194   7.251   2.839  0.1188  0.4688  0.2140
10893SOL    HW133535   3.203   7.164   2.877 -0.6738 -0.4503 -1.6013
10893SOL    HW233536   3.146   7.301   2.905  0.6659 -0.4212  1.3188
10894SOL     OW33537   3.346   2.604   5.854 -0.0918 -0.1681  0.3656
10894SOL    HW133538   3.293   2.550   5.913 -1.4000 -0.5751 -1.1070
10894SOL    HW233539   3.299   2.602   5.771  2.0809 -0.3114 -0.9644
10895SOL     OW33540   3.559   4.998   6.607 -0.2469  0.5076  0.6639
10895SOL    HW133541   3.649   5.011   6.577 -1.2044  0.1561 -2.8963
10895SOL    HW233542   3.550   4.903   6.616 -0.9820  0.2338 -2.0828
10896SOL     OW33543   2.884   6.796   4.140 -0.8844  0.0263 -0.2989
10896SOL    HW133544   2.863   6.789   4.047  0.2587  0.0410 -0.5750
10896SOL    HW233545   2.871   6.888   4.162 -0.2633  0.2099 -0.6830
10897SOL     OW33546   4.302   2.195   1.797  0.3736  0.9511  0.1063
10897SOL    HW133547   4.238   2.132   1.764  1.1092 -0.2354  0.8261
10897SOL    HW233548   4.332   2.156   1.879  1.4405  1.8710  0.1690
10898SOL     OW33549   2.517   1.997   0.549 -0.4182 -0.6233  0.2899
10898SOL    HW133550   2.543   2.075   0.599  0.6755 -0.7737 -0.0115
10898SOL    HW233551   2.474   1.941   0.613 -1.2961  0.2505  0.4953
10899SOL     OW33552   6.866   2.797   4.812  0.0609  0.0029  0.0850
10899SOL    HW133553   6.893   2.707   4.797  1.2721  0.2098  0.9199
10899SOL    HW233554   6.771   2.796   4.797 -0.0777 -1.5683  0.8432
10900SOL     OW33555   1.327   5.379   2.612  0.2041  0.3284  0.1014
10900SOL    HW133556   1.258   5.332   2.661  0.8717 -0.7221  0.0766
10900SOL    HW233557   1.377   5.309   2.570 -0.6785  1.2044 -2.5810
10901SOL     OW33558   0.210   4.259   0.278  0.2251 -0.1289 -0.0144
10901SOL    HW133559   0.218   4.281   0.185  2.2028 -1.1210 -0.1345
10901SOL    HW233560   0.291   4.212   0.299 -0.6401 -0.8694  1.9643
10902SOL     OW33561   7.040   7.211   0.878  0.2515  0.5325  0.6424
10902SOL    HW133562   7.131   7.184   0.867 -0.0664  0.4424 -3.3627
10902SOL    HW233563   7.014   7.174   0.962  3.4285 -0.8158  1.1836
10903SOL     OW33564   3.254   5.677   2.703 -0.8089 -0.1867  0.5123
10903SOL    HW133565   3.175   5.711   2.745 -2.2801 -1.7487 -0.8006
10903SOL    HW233566   3.322   5.683   2.770 -2.2445  0.4321  1.9825
10904SOL     OW33567   2.157   2.347   1.995 -0.7068 -0.1645  0.4201
10904SOL    HW133568   2.142   2.289   1.921  0.7661 -0.2088  0.1130
10904SOL    HW233569   2.109   2.307   2.067  2.0753 -3.2037  0.8606
10905SOL     OW33570   1.320   6.428   7.408  0.8075  0.8838 -0.2542
10905SOL    HW133571   1.310   6.519   7.380 -1.3861  0.6147 -0.5163
10905SOL    HW233572   1.319   6.431   7.503 -1.5361  0.9950 -0.2355
10906SOL     OW33573   4.256   2.332   4.611 -0.2385  0.2334  0.3816
10906SOL    HW133574   4.242   2.298   4.523 -0.0740  0.8340  0.1192
10906SOL    HW233575   4.333   2.389   4.603 -0.1138  0.1522  0.9484
10907SOL     OW33576   2.929   0.354   3.503  0.0678  0.0578 -0.2363
10907SOL    HW133577   2.897   0.291   3.567 -0.4370  1.4263  0.9126
10907SOL    HW233578   2.852   0.377   3.451 -0.0291  0.6527  0.1662
10908SOL     OW33579   1.198   6.943   1.436 -0.1126 -0.3832 -0.1180
10908SOL    HW133580   1.207   6.879   1.506 -1.6019 -0.4271  0.0715
10908SOL    HW233581   1.105   6.940   1.412  0.5677 -1.4822 -3.1588
10909SOL     OW33582   2.448   0.773   2.210  0.5941  0.3974 -0.4885
10909SOL    HW133583   2.509   0.847   2.207 -0.8949  1.8706  2.1544
10909SOL    HW233584   2.493   0.707   2.262  1.2638  0.0652 -1.4608
10910SOL     OW33585   4.549   4.653   0.383  0.2179 -0.1964  0.4448
10910SOL    HW133586   4.480   4.589   0.364  0.8546 -0.7377 -0.0728
10910SOL    HW233587   4.610   4.645   0.310  0.5922  0.6110  0.6640
10911SOL     OW33588   1.311   6.537   4.254  0.0093  0.3072 -0.6865
10911SOL    HW133589   1.313   6.628   4.225 -2.8493  0.6332 -0.1942
10911SOL    HW233590   1.257   6.539   4.333 -1.4193 -1.9871 -1.5011
10912SOL     OW33591   7.480   7.150   5.732 -0.0489 -0.4754 -0.4749
10912SOL    HW133592   7.407   7.091   5.716 -0.0831 -0.4478 -0.4202
10912SOL    HW233593   7.493   7.148   5.826 -0.4108  0.0289 -0.4074
10913SOL     OW33594   3.354   1.013   5.311 -0.2865  0.3000 -0.3629
10913SOL    HW133595   3.272   1.012   5.261 -0.0415 -0.2463 -0.7641
10913SOL    HW233596   3.334   1.064   5.390 -1.4005 -0.9299  0.1877
10914SOL     OW33597   1.323   3.572   7.468  0.5877 -0.2884 -0.7938
10914SOL    HW133598   1.354   3.489   7.504  1.0563 -0.1347 -0.8415
10914SOL    HW233599   1.374   3.639   7.513  0.8492 -0.0713 -1.4061
10915SOL     OW33600   5.421   3.765   4.795 -0.0658  0.0512 -0.2453
10915SOL    HW133601   5.474   3.800   4.724  1.3542 -0.0173  0.7279
10915SOL    HW233602   5.399   3.841   4.849 -0.1286 -0.0569 -0.1164
10916SOL     OW33603   4.794   3.723   0.184  0.0545  0.1378  0.0163
10916SOL    HW133604   4.792   3.684   0.097 -1.3417  1.0171 -0.3823
10916SOL    HW233605   4.787   3.649   0.244  0.2054 -0.4109 -0.6306
10917SOL     OW33606   4.560   5.049   5.073 -0.5146 -0.1725  0.1633
10917SOL    HW133607   4.628   5.094   5.122 -0.8073  1.4291 -0.8117
10917SOL    HW233608   4.478   5.088   5.104 -0.6939  0.9909 -1.6433
10918SOL     OW33609   7.138   3.146   0.228  0.0611  0.4622  0.2299
10918SOL    HW133610   7.148   3.059   0.190  0.4895  0.2940  0.7124
10918SOL    HW233611   7.089   3.195   0.163  0.8691  0.2109 -0.5801
10919SOL     OW33612   7.789   1.300   6.556 -0.0884  0.4314  0.0107
10919SOL    HW133613   7.860   1.291   6.492 -1.5109 -0.3758 -1.5596
10919SOL    HW233614   7.801   1.226   6.616  1.1618  1.0885  0.5959
10920SOL     OW33615   1.859   7.668   2.915 -0.5133 -0.3103  0.7309
10920SOL    HW133616   1.945   7.708   2.929 -1.2779  2.1841 -1.0261
10920SOL    HW233617   1.851   7.659   2.820 -2.3462 -0.0635  0.8150
10921SOL     OW33618   6.623   6.174   7.027 -0.4689 -0.5448  0.4996
10921SOL    HW133619   6.599   6.238   7.094  0.6967 -1.3089  1.6953
10921SOL    HW233620   6.638   6.093   7.075  0.8291 -1.0193 -0.6148
10922SOL     OW33621   7.613   5.042   7.821 -0.9621 -0.1050 -0.3901
10922SOL    HW133622   7.520   5.041   7.845 -1.2650  0.1485 -1.5086
10922SOL    HW233623   7.616   5.002   7.734  0.1919 -1.6716  0.3160
10923SOL     OW33624   1.037   6.932   2.263  0.3151  0.1888 -0.2210
10923SOL    HW133625   1.057   6.964   2.352  2.6011 -0.1011 -0.5728
10923SOL    HW233626   1.052   6.838   2.268  0.8173  0.2234 -0.9858
10924SOL     OW33627   3.811   1.054   1.007 -0.0924  0.0843 -0.0046
10924SOL    HW133628   3.826   1.139   0.966  1.8420 -0.2620 -0.1119
10924SOL    HW233629   3.720   1.033   0.986 -0.9335  2.5263  0.8096
10925SOL     OW33630   3.108   5.435   0.545 -0.0805  0.2799  0.1902
10925SOL    HW133631   3.081   5.369   0.480  0.7576 -0.2651  0.3725
10925SOL    HW233632   3.040   5.502   0.541 -0.3099  0.0053 -0.8932
10926SOL     OW33633   1.316   6.110   4.611  0.2920  0.3835 -0.5056
10926SOL    HW133634   1.325   6.166   4.688  1.5901  1.0000 -1.0759
10926SOL    HW233635   1.267   6.162   4.548 -2.5054 -0.8062  0.4877
10927SOL     OW33636   4.759   4.754   5.337 -0.3012  0.5785  0.6790
10927SOL    HW133637   4.742   4.660   5.336  0.4045  0.4411 -0.3811
10927SOL    HW233638   4.830   4.765   5.400 -1.0963  0.5561  1.6028
10928SOL     OW33639   5.199   1.535   0.945 -0.3919 -0.1961  0.7191
10928SOL    HW133640   5.128   1.500   0.891 -0.1954 -0.2062  0.4664
10928SOL    HW233641   5.266   1.466   0.944 -0.1307  0.0614  0.4714
10929SOL     OW33642   4.088   3.428   3.978 -0.1690 -0.3998 -0.1683
10929SOL    HW133643   4.170   3.387   4.006  0.2482 -0.0395 -0.8314
10929SOL    HW233644   4.115   3.514   3.944 -0.9396  0.1504  0.5547
10930SOL     OW33645   6.224   4.931   2.557  0.2733  0.0499  1.0744
10930SOL    HW133646   6.258   5.012   2.519 -0.7702  0.1833  0.3779
10930SOL    HW233647   6.137   4.955   2.591 -0.5158 -1.0031 -0.1144
10931SOL     OW33648   7.093   3.970   4.802  0.4790  0.2726  0.0274
10931SOL    HW133649   7.114   4.058   4.771 -0.1158  0.1912 -0.6320
10931SOL    HW233650   7.175   3.922   4.795  0.8266  0.7882  0.4613
10932SOL     OW33651   7.802   0.583   0.100 -0.5674 -0.0097  0.0009
10932SOL    HW133652   7.884   0.538   0.082 -1.3193 -1.0879 -0.8243
10932SOL    HW233653   7.805   0.660   0.044  0.0428  0.1744  0.2703
10933SOL     OW33654   4.795   4.290   1.975  0.3489  0.1791 -0.0394
10933SOL    HW133655   4.887   4.305   1.997  0.1375  0.6749  0.5333
10933SOL    HW233656   4.746   4.351   2.031 -0.3848 -0.7621  0.3796
10934SOL     OW33657   3.049   2.170   1.859 -0.4768  0.4266 -0.1642
10934SOL    HW133658   3.069   2.129   1.944  1.5254  1.2058 -0.1968
10934SOL    HW233659   3.123   2.146   1.803 -1.6631  0.1179 -1.6506
10935SOL     OW33660   4.852   5.851   1.126 -0.1987 -0.3112  0.3904
10935SOL    HW133661   4.864   5.778   1.066 -0.6722  2.1489 -2.9882
10935SOL    HW233662   4.763   5.841   1.159 -0.5302 -0.8899 -0.6407
10936SOL     OW33663   3.696   7.016   4.609 -0.1686  0.2197  0.5453
10936SOL    HW133664   3.687   6.980   4.697 -0.8622 -0.5899  0.1528
10936SOL    HW233665   3.788   7.043   4.604 -0.3970  1.4000  1.9314
10937SOL     OW33666   7.212   4.729   7.069 -0.4719  0.4012 -0.4299
10937SOL    HW133667   7.243   4.815   7.096  0.1912 -0.3665  1.4151
10937SOL    HW233668   7.287   4.688   7.026 -0.8004  0.7463 -1.3463
10938SOL     OW33669   7.001   3.912   1.160 -0.6991 -0.3127  0.3742
10938SOL    HW133670   7.020   4.004   1.141 -2.5099  0.4099  1.7163
10938SOL    HW233671   6.908   3.903   1.140 -0.3682 -2.1031 -0.5113
10939SOL     OW33672   3.559   2.126   5.868  0.8710  0.3651 -0.7082
10939SOL    HW133673   3.501   2.049   5.875  0.0645  0.9547 -0.7306
10939SOL    HW233674   3.646   2.089   5.853  1.1296 -0.6768  2.6345
10940SOL     OW33675   5.598   6.674   4.272 -0.1147 -0.2726 -0.4567
10940SOL    HW133676   5.629   6.672   4.182  0.8914  0.4700 -0.1582
10940SOL    HW233677   5.599   6.767   4.296  2.4263 -0.6085  1.1813
10941SOL     OW33678   6.072   5.199   4.514 -0.1960 -0.0534  0.3017
10941SOL    HW133679   6.124   5.224   4.438 -0.6099 -0.4291 -0.1135
10941SOL    HW233680   6.085   5.270   4.577  1.3406 -0.4581  0.4719
10942SOL     OW33681   1.144   4.383   1.575  0.3885  0.2304  0.2264
10942SOL    HW133682   1.095   4.360   1.654 -0.6812 -0.8854 -0.7170
10942SOL    HW233683   1.209   4.446   1.605 -1.6630  1.8582  1.5493
10943SOL     OW33684   3.988   4.098   0.387  0.1095 -0.0844  0.1087
10943SOL    HW133685   4.029   4.094   0.474  1.2376 -1.4080 -0.4550
10943SOL    HW233686   3.933   4.019   0.383  0.1552 -0.0888 -0.4341
10944SOL     OW33687   1.353   1.944   1.189  0.6584 -0.0151  0.3126
10944SOL    HW133688   1.357   1.872   1.251  0.3550 -0.0921  0.2405
10944SOL    HW233689   1.445   1.964   1.170  0.7517 -1.3590 -0.8140
10945SOL     OW33690   1.350   1.817   6.105  0.5125  0.1151  0.3845
10945SOL    HW133691   1.335   1.826   6.011  0.9812  0.2641  0.3210
10945SOL    HW233692   1.444   1.801   6.113  0.6301  0.9942  0.8804
10946SOL     OW33693   2.992   2.046   3.724  0.1632  0.2264 -0.0308
10946SOL    HW133694   3.010   2.025   3.632  0.2737  0.0246  0.0345
10946SOL    HW233695   3.077   2.036   3.767  0.5880  2.3260 -0.2569
10947SOL     OW33696   7.439   3.733   6.906 -0.0412 -0.4923 -0.9052
10947SOL    HW133697   7.454   3.699   6.818 -1.0426 -0.5064 -1.0832
10947SOL    HW233698   7.373   3.802   6.895 -1.4711 -1.6524  0.0289
10948SOL     OW33699   3.046   7.140   7.090  0.1545  0.1790 -1.1794
10948SOL    HW133700   3.024   7.122   7.182 -0.1572 -1.6461 -1.5772
10948SOL    HW233701   3.017   7.230   7.076  0.0254  0.4249  0.4546
10949SOL     OW33702   3.272   0.787   3.973 -0.3248 -0.1517 -0.1513
10949SOL    HW133703   3.303   0.741   4.051 -0.5884  0.2636  0.2023
10949SOL    HW233704   3.343   0.777   3.909  0.4755  0.6334  0.5818
10950SOL     OW33705   6.183   0.388   4.334 -0.1218 -0.7183 -0.2634
10950SOL    HW133706   6.143   0.444   4.401  0.4586 -0.6777  0.0588
10950SOL    HW233707   6.135   0.306   4.339  0.0068 -0.7646  0.3061
10951SOL     OW33708   7.241   6.783   3.511 -0.3505  0.2067  0.4729
10951SOL    HW133709   7.174   6.846   3.533 -0.5166  0.0343  0.4660
10951SOL    HW233710   7.219   6.755   3.422  2.9211  4.3619 -2.0211
10952SOL     OW33711   4.914   2.957   1.653  0.1405 -0.1158 -0.6550
10952SOL    HW133712   4.958   2.981   1.735  0.3891 -0.3140 -0.7269
10952SOL    HW233713   4.821   2.960   1.674  0.1577  0.8670 -0.6504
10953SOL     OW33714   4.976   5.160   2.884 -0.1017 -0.2501  0.4198
10953SOL    HW133715   4.938   5.086   2.837 -1.6081 -0.2597  1.5720
10953SOL    HW233716   5.062   5.128   2.913  0.1501 -0.7993 -0.8668
10954SOL     OW33717   3.607   5.325   2.970 -0.4539 -0.0653  0.5573
10954SOL    HW133718   3.541   5.317   3.039 -0.2043 -2.9128  0.5911
10954SOL    HW233719   3.655   5.242   2.973  0.6744  0.3938 -1.9680
10955SOL     OW33720   7.602   1.127   3.699  0.1832  0.5305  0.0033
10955SOL    HW133721   7.511   1.130   3.728 -0.4474  1.5866 -1.9321
10955SOL    HW233722   7.596   1.120   3.604  2.1430 -0.7378 -0.0662
10956SOL     OW33723   4.498   5.020   3.708  0.4078  0.0842 -0.0847
10956SOL    HW133724   4.438   5.094   3.700 -0.5146 -0.3175  2.1354
10956SOL    HW233725   4.579   5.058   3.742  0.2422  0.1978  0.1826
10957SOL     OW33726   2.675   2.167   7.878  0.0569 -0.0797 -0.1259
10957SOL    HW133727   2.726   2.248   7.869  0.8438 -0.5712 -0.2299
10957SOL    HW233728   2.691   2.139   7.968 -0.1124 -0.1877 -0.1292
10958SOL     OW33729   5.259   1.618   6.194  0.0407 -0.2394  0.0946
10958SOL    HW133730   5.263   1.601   6.288 -2.0581  1.5221  0.6064
10958SOL    HW233731   5.315   1.694   6.181  2.3500 -1.9741 -0.5971
10959SOL     OW33732   6.644   0.049   6.662 -0.1776  0.0486 -0.2465
10959SOL    HW133733   6.730   0.009   6.671 -0.1802  0.0420 -0.2514
10959SOL    HW233734   6.653   0.109   6.588 -0.3074 -0.2888 -0.5373
10960SOL     OW33735   5.044   7.830   1.454  0.1344 -0.0986  0.4664
10960SOL    HW133736   4.966   7.885   1.456  0.1006 -0.1276 -0.0906
10960SOL    HW233737   5.117   7.892   1.443  0.1008 -0.1580 -0.1049
10961SOL     OW33738   3.668   1.818   7.481 -0.2548  0.2636 -0.3568
10961SOL    HW133739   3.591   1.763   7.464 -0.1323  0.1099 -0.4210
10961SOL    HW233740   3.655   1.851   7.570 -0.5891  0.5573 -0.5162
10962SOL     OW33741   0.868   2.860   1.170  0.5776  0.0520 -0.3743
10962SOL    HW133742   0.894   2.936   1.118 -1.0719  1.8594  1.2723
10962SOL    HW233743   0.782   2.883   1.205  0.6891 -1.9496  1.4019
10963SOL     OW33744   2.009   1.427   2.802 -0.0189 -0.1630  0.0815
10963SOL    HW133745   2.012   1.351   2.743 -0.5308 -1.1086  1.2269
10963SOL    HW233746   1.981   1.391   2.886  0.4149  1.1977  0.8414
10964SOL     OW33747   0.784   1.944   5.881 -0.1726 -0.1487  0.2713
10964SOL    HW133748   0.787   2.009   5.950 -0.0652  0.6415 -0.4662
10964SOL    HW233749   0.691   1.928   5.866 -0.2052  0.0646  0.2446
10965SOL     OW33750   1.085   5.826   0.914 -0.3664  0.0858  0.1783
10965SOL    HW133751   1.029   5.855   0.986  1.4294  0.5862  1.4440
10965SOL    HW233752   1.155   5.776   0.956 -0.1634 -1.0487 -1.4030
10966SOL     OW33753   3.995   4.210   4.366 -0.7968 -0.0559 -0.4433
10966SOL    HW133754   3.904   4.238   4.377 -0.5623  0.5994 -0.0773
10966SOL    HW233755   4.030   4.206   4.456 -0.2748  0.3955 -0.6169
10967SOL     OW33756   5.522   0.614   1.420  0.5149 -0.3405  0.1618
10967SOL    HW133757   5.439   0.566   1.419 -0.9523  2.0106  0.0628
10967SOL    HW233758   5.529   0.650   1.508  0.8532  0.3733 -0.1416
10968SOL     OW33759   7.055   1.857   4.553  0.7609  0.0127  0.0175
10968SOL    HW133760   7.006   1.814   4.483 -0.6279  2.0469 -0.3611
10968SOL    HW233761   7.022   1.815   4.633  1.4010 -1.4144 -0.4243
10969SOL     OW33762   3.542   0.337   7.804 -0.0150  0.3320  0.2255
10969SOL    HW133763   3.544   0.345   7.899  0.9015 -0.6720  0.3171
10969SOL    HW233764   3.566   0.424   7.772  0.4959  0.4637  0.9356
10970SOL     OW33765   6.271   3.164   2.676  0.0581  0.3731 -0.8697
10970SOL    HW133766   6.304   3.251   2.652 -1.3599  1.0788 -0.4256
10970SOL    HW233767   6.241   3.126   2.594 -0.4502  0.8244 -0.8982
10971SOL     OW33768   5.417   3.039   6.888  0.3428 -0.1778  0.0795
10971SOL    HW133769   5.428   3.033   6.983 -0.7493  1.6276  0.3547
10971SOL    HW233770   5.326   3.013   6.873  0.4353 -0.2074 -0.4460
10972SOL     OW33771   5.664   0.923   1.793  0.5116 -0.4026  0.1470
10972SOL    HW133772   5.671   1.010   1.833 -1.2473 -0.7981  1.4291
10972SOL    HW233773   5.588   0.883   1.835 -1.8999 -0.7169 -3.9531
10973SOL     OW33774   3.660   4.034   4.033 -0.4926  0.2398 -0.3048
10973SOL    HW133775   3.730   4.092   4.001 -0.5811 -0.3887 -1.7034
10973SOL    HW233776   3.706   3.958   4.069 -0.3693  1.1791  1.6727
10974SOL     OW33777   2.287   5.496   0.591  0.1428 -0.0387 -0.3915
10974SOL    HW133778   2.322   5.582   0.613  1.0063 -0.1891 -1.1490
10974SOL    HW233779   2.223   5.512   0.522 -0.3446  0.0843  0.0797
10975SOL     OW33780   5.210   1.223   5.674  0.1906 -0.0983 -0.1664
10975SOL    HW133781   5.154   1.286   5.628 -0.7509 -1.2047 -0.5842
10975SOL    HW233782   5.297   1.261   5.670  0.0949  0.0065 -2.5866
10976SOL     OW33783   6.169   7.543   6.083  0.2989 -0.2527  0.6301
10976SOL    HW133784   6.237   7.592   6.128  0.1546  1.3200 -0.7601
10976SOL    HW233785   6.194   7.545   5.991 -0.0398 -2.3405  0.4244
10977SOL     OW33786   5.342   0.501   3.873  0.0735 -0.0127 -0.0679
10977SOL    HW133787   5.434   0.482   3.888  0.7984  2.7416 -0.5060
10977SOL    HW233788   5.334   0.509   3.778 -0.2718  1.0804  0.0324
10978SOL     OW33789   5.451   1.851   5.081  0.4668 -0.0441  0.8112
10978SOL    HW133790   5.458   1.942   5.052  0.5396 -0.5473 -0.8531
10978SOL    HW233791   5.541   1.821   5.088  0.5027  0.3200  2.5676
10979SOL     OW33792   5.285   2.199   1.122 -0.2626 -0.7521  0.6465
10979SOL    HW133793   5.228   2.271   1.094  0.0357 -0.6605  0.2640
10979SOL    HW233794   5.311   2.223   1.211 -0.1790 -0.3963  0.5294
10980SOL     OW33795   5.290   3.578   2.817  0.1147 -0.1224 -0.4114
10980SOL    HW133796   5.371   3.586   2.768 -0.5121  1.7202 -1.2124
10980SOL    HW233797   5.241   3.658   2.798 -1.8317 -1.0919  0.1723
10981SOL     OW33798   7.619   2.430   6.459 -0.3870  0.4660  0.3251
10981SOL    HW133799   7.538   2.417   6.411  0.8320 -2.0035 -1.2681
10981SOL    HW233800   7.597   2.412   6.550 -1.2513 -2.5831 -0.3655
10982SOL     OW33801   0.572   5.269   2.476  0.1395 -0.3876  0.3583
10982SOL    HW133802   0.541   5.348   2.431  2.4265  0.6505  0.4517
10982SOL    HW233803   0.572   5.201   2.408  0.4587  0.3357 -0.3815
10983SOL     OW33804   5.819   3.817   5.917 -0.8351  0.1485  0.3441
10983SOL    HW133805   5.830   3.749   5.983  1.7775  0.5538  0.4262
10983SOL    HW233806   5.739   3.863   5.943 -1.4986 -1.5574  1.4695
10984SOL     OW33807   4.330   7.643   2.137 -0.1184 -0.1111  0.0344
10984SOL    HW133808   4.304   7.702   2.066 -0.9254 -0.3204  0.1435
10984SOL    HW233809   4.419   7.615   2.114 -0.7901 -1.1123 -1.5347
10985SOL     OW33810   3.436   4.010   5.952 -0.1962 -0.5980  0.7867
10985SOL    HW133811   3.477   4.027   6.037  1.0322 -0.0430  0.1136
10985SOL    HW233812   3.485   4.065   5.891 -1.2489 -0.7753 -0.2394
10986SOL     OW33813   4.108   4.909   2.453 -0.2919 -0.8049  0.2078
10986SOL    HW133814   4.114   4.922   2.358  2.1732  0.2360  0.4293
10986SOL    HW233815   4.065   4.988   2.485  1.0739 -0.0014  0.1381
10987SOL     OW33816   0.507   7.722   6.604 -0.4481  0.1958 -0.1102
10987SOL    HW133817   0.562   7.685   6.535  0.4637  1.3617 -0.0439
10987SOL    HW233818   0.447   7.780   6.558 -1.5209 -0.9085 -0.1591
10988SOL     OW33819   6.393   0.802   1.074  0.3188 -0.3634 -0.3204
10988SOL    HW133820   6.330   0.780   1.142  0.0201  0.3198 -0.3623
10988SOL    HW233821   6.403   0.722   1.022 -2.1308  0.0744 -1.5987
10989SOL     OW33822   5.158   7.525   1.729  0.2067  0.0713 -0.9752
10989SOL    HW133823   5.189   7.513   1.639 -1.6542  0.5483 -1.7309
10989SOL    HW233824   5.081   7.582   1.721  0.1135  0.2952  0.9477
10990SOL     OW33825   5.269   2.256   3.799  0.9813 -0.1022 -0.2995
10990SOL    HW133826   5.179   2.231   3.819  0.7962  1.0263  0.3736
10990SOL    HW233827   5.323   2.192   3.844  0.5206  0.1006  0.5573
10991SOL     OW33828   5.240   0.210   5.191  0.3245  0.4823 -0.2944
10991SOL    HW133829   5.310   0.243   5.248 -2.6313  2.6786  2.3907
10991SOL    HW233830   5.218   0.284   5.134 -0.8541  0.4004  0.0306
10992SOL     OW33831   3.118   1.719   0.855  0.8587 -0.6971  0.2710
10992SOL    HW133832   3.092   1.756   0.939 -1.3835  2.3871 -1.5660
10992SOL    HW233833   3.051   1.652   0.838 -0.2077  0.4198 -0.0952
10993SOL     OW33834   0.174   3.502   6.692  0.0429 -0.5392 -0.8200
10993SOL    HW133835   0.080   3.517   6.678 -0.4176 -0.1156  2.0772
10993SOL    HW233836   0.215   3.586   6.672 -0.4299 -0.2206 -0.4892
10994SOL     OW33837   3.532   7.869   1.720  0.1095 -0.1475  0.6462
10994SOL    HW133838   3.467   7.873   1.651 -1.7317  0.4086  2.3237
10994SOL    HW233839   3.556   7.777   1.727  0.0088 -0.2613 -0.4301
10995SOL     OW33840   0.496   7.351   7.936 -0.4078  0.0742 -0.6216
10995SOL    HW133841   0.534   7.433   7.965 -1.2579  0.8506 -1.6132
10995SOL    HW233842   0.450   7.373   7.855 -0.4427 -1.4337 -1.0459
10996SOL     OW33843   1.223   0.559   5.393 -0.0813 -0.4364  0.1011
10996SOL    HW133844   1.177   0.489   5.347 -1.4003 -0.8478  1.9731
10996SOL    HW233845   1.214   0.635   5.336  1.2568 -1.6800 -1.9101
10997SOL     OW33846   0.667   1.368   1.374  0.1201 -0.0631  0.0613
10997SOL    HW133847   0.573   1.363   1.388 -0.2271  0.7713 -1.7194
10997SOL    HW233848   0.688   1.291   1.321  0.1664  0.5175 -0.7845
10998SOL     OW33849   3.554   5.312   5.572 -0.5708 -0.0201  0.5448
10998SOL    HW133850   3.572   5.219   5.559  0.6769  0.1507  0.9263
10998SOL    HW233851   3.543   5.322   5.667 -1.0646  0.1588  0.4701
10999SOL     OW33852   2.747   4.193   6.785  0.2615  0.5954 -0.7136
10999SOL    HW133853   2.716   4.213   6.697 -0.9914  0.8370 -0.2329
10999SOL    HW233854   2.698   4.251   6.843 -0.2670 -0.8081  0.3147
11000SOL     OW33855   5.859   7.545   7.366 -0.5475  0.2346 -0.8449
11000SOL    HW133856   5.897   7.633   7.375 -1.8182  0.6078  1.6749
11000SOL    HW233857   5.765   7.559   7.379 -0.9102 -1.3676 -1.5939
11001SOL     OW33858   5.205   7.395   1.475  0.4073 -0.2910  0.4176
11001SOL    HW133859   5.156   7.341   1.413  1.0804 -0.9234  0.4206
11001SOL    HW233860   5.295   7.364   1.468  0.4187 -0.7534  2.0992
11002SOL     OW33861   6.179   4.466   0.242 -0.1299  0.5657 -0.5656
11002SOL    HW133862   6.139   4.406   0.179 -1.5410  1.0604 -0.1853
11002SOL    HW233863   6.116   4.469   0.315  0.8583  0.9902  0.2925
11003SOL     OW33864   7.002   3.175   6.042 -0.1565  0.3131  0.4134
11003SOL    HW133865   7.016   3.152   5.950 -1.2108  1.6620 -0.1239
11003SOL    HW233866   7.048   3.107   6.091 -0.6912 -1.2003 -1.0871
11004SOL     OW33867   0.095   7.439   5.366  0.5669  0.1924 -0.5023
11004SOL    HW133868   0.070   7.521   5.323 -2.0032 -1.1361 -1.8096
11004SOL    HW233869   0.099   7.376   5.294  0.7113 -1.2026  0.6943
11005SOL     OW33870   3.581   5.420   6.941  0.2902 -0.2363  0.2416
11005SOL    HW133871   3.585   5.437   7.035  1.8576 -2.9494  0.7640
11005SOL    HW233872   3.536   5.336   6.933 -3.0042  1.5241 -1.7894
11006SOL     OW33873   6.063   1.092   6.926 -1.0971 -0.9686  0.1866
11006SOL    HW133874   6.106   1.117   6.844 -1.5408  0.0650  0.2585
11006SOL    HW233875   6.066   0.996   6.926 -0.9487 -0.9772 -0.9579
11007SOL     OW33876   7.892   3.639   4.017 -0.4104 -0.1327 -0.2348
11007SOL    HW133877   7.908   3.629   3.923  0.6873 -1.6478  0.0687
11007SOL    HW233878   7.979   3.645   4.055 -0.8704  1.1297  0.6391
11008SOL     OW33879   7.282   6.020   6.628 -0.3701 -0.4460 -0.3962
11008SOL    HW133880   7.360   6.036   6.577 -1.0657 -0.6827 -1.5629
11008SOL    HW233881   7.257   6.106   6.662  0.9135 -0.5080  0.7953
11009SOL     OW33882   5.028   7.053   5.425  0.6189 -0.1012  0.0420
11009SOL    HW133883   4.996   7.127   5.373  2.7270  0.7908 -0.0492
11009SOL    HW233884   5.003   7.074   5.515 -2.3817 -1.2995 -0.3776
11010SOL     OW33885   4.034   2.643   5.565  0.4147  0.1051  0.1275
11010SOL    HW133886   4.022   2.556   5.526  0.3477  0.8662 -1.6192
11010SOL    HW233887   4.088   2.690   5.503 -0.5051  1.7003  0.4828
11011SOL     OW33888   3.092   2.714   6.993  0.3229 -0.1740  0.1759
11011SOL    HW133889   3.002   2.746   7.004  0.1239 -0.5078 -0.3902
11011SOL    HW233890   3.086   2.652   6.920  1.3635  1.2576 -1.2044
11012SOL     OW33891   4.298   5.903   4.691 -0.3322  0.1628  0.1422
11012SOL    HW133892   4.370   5.930   4.634 -0.3517  0.5837  0.3112
11012SOL    HW233893   4.311   5.809   4.703 -1.5343 -0.3853 -2.2815
11013SOL     OW33894   7.144   0.769   7.066 -0.7588  0.2615  0.0199
11013SOL    HW133895   7.203   0.711   7.020 -0.5810 -0.2279  0.8395
11013SOL    HW233896   7.125   0.839   7.004 -0.5285 -0.3743 -0.7794
11014SOL     OW33897   5.393   2.669   5.989 -0.1847  0.4837  0.0144
11014SOL    HW133898   5.350   2.624   5.916 -1.0707  1.5521 -0.1289
11014SOL    HW233899   5.457   2.726   5.947  1.8528 -1.4968  0.2426
11015SOL     OW33900   7.122   7.277   7.346  0.1401 -0.7838 -0.7187
11015SOL    HW133901   7.055   7.299   7.411  0.9937 -1.1318  0.3151
11015SOL    HW233902   7.073   7.241   7.272 -0.8099 -1.1375  0.0588
11016SOL     OW33903   5.347   7.255   7.871 -0.4668 -0.2702  0.3961
11016SOL    HW133904   5.428   7.239   7.919 -0.0754  0.9584  0.2087
11016SOL    HW233905   5.364   7.219   7.783 -0.3212 -0.4811  0.5103
11017SOL     OW33906   7.767   1.333   4.025 -0.9637  0.3918 -0.5246
11017SOL    HW133907   7.822   1.284   4.087  0.1563  0.0516 -1.7269
11017SOL    HW233908   7.818   1.411   4.005 -0.1807 -0.6154 -2.7578
11018SOL     OW33909   3.250   7.776   6.582  0.4835 -0.3201  0.0606
11018SOL    HW133910   3.296   7.847   6.627  0.1065  0.2281 -0.4008
11018SOL    HW233911   3.283   7.779   6.492 -0.8559  0.4749 -0.4416
11019SOL     OW33912   0.556   0.039   7.707 -0.1789 -0.0018  0.2372
11019SOL    HW133913   0.642   0.001   7.691  0.7921  1.5308  1.4921
11019SOL    HW233914   0.527  -0.000   7.789  0.0017  0.5870  0.5859
11020SOL     OW33915   7.321   1.706   0.470  0.1684  0.2963 -0.7441
11020SOL    HW133916   7.410   1.733   0.494 -0.1509  1.2957 -0.6371
11020SOL    HW233917   7.299   1.760   0.393 -0.6357  0.6463 -0.2844
11021SOL     OW33918   0.507   0.513   2.093 -0.1283 -0.3227 -0.3150
11021SOL    HW133919   0.453   0.550   2.023 -0.6197 -0.4895 -0.0313
11021SOL    HW233920   0.577   0.577   2.106 -1.6225  1.1230  0.9718
11022SOL     OW33921   2.073   7.711   7.554  0.6039 -0.2202  0.2956
11022SOL    HW133922   2.011   7.751   7.493  0.8921 -0.9618 -0.5127
11022SOL    HW233923   2.023   7.641   7.596  1.2387 -1.8427 -1.4744
11023SOL     OW33924   6.015   4.214   6.412  0.0002 -0.0114  0.2781
11023SOL    HW133925   6.079   4.280   6.440  1.0820 -1.1884  0.6559
11023SOL    HW233926   5.986   4.244   6.326 -0.7877  1.8157  1.1121
11024SOL     OW33927   1.389   7.265   7.798 -1.1978 -0.0964 -0.2002
11024SOL    HW133928   1.314   7.235   7.849 -0.8292 -0.9344 -0.1249
11024SOL    HW233929   1.423   7.340   7.847 -0.7466 -0.9837  0.9068
11025SOL     OW33930   0.650   3.575   2.137  0.3823  0.4666  0.2315
11025SOL    HW133931   0.555   3.589   2.132  0.5494  1.4278 -0.5532
11025SOL    HW233932   0.667   3.560   2.230 -0.4428  1.0446  0.4885
11026SOL     OW33933   4.405   3.554   3.261 -0.5961  0.2156  0.4913
11026SOL    HW133934   4.485   3.538   3.312  0.8897  0.9633 -1.4744
11026SOL    HW233935   4.365   3.468   3.252  1.5766 -0.7407 -0.9181
11027SOL     OW33936   0.256   7.005   7.404 -0.2924 -0.8316 -0.7657
11027SOL    HW133937   0.230   7.066   7.473  0.6524  0.6731 -1.6866
11027SOL    HW233938   0.351   6.998   7.412 -0.2686 -1.3260 -1.3661
11028SOL     OW33939   5.939   7.610   1.418  0.1085  0.2000  0.0011
11028SOL    HW133940   5.872   7.571   1.362 -0.4926 -0.7845  1.3460
11028SOL    HW233941   5.900   7.693   1.447 -0.9099 -0.7207  1.3966
11029SOL     OW33942   3.001   1.799   1.091  0.1729 -0.0073 -0.2565
11029SOL    HW133943   2.957   1.797   1.175 -0.1449  1.1092 -0.3868
11029SOL    HW233944   3.061   1.873   1.096  0.5371 -0.2509 -0.8277
11030SOL     OW33945   5.065   6.425   2.982  0.3160  0.1284 -0.5696
11030SOL    HW133946   4.985   6.375   2.990 -1.2792  2.7066  1.0385
11030SOL    HW233947   5.043   6.497   2.922  1.1014  1.3942  0.5928
11031SOL     OW33948   2.117   3.293   1.584 -0.6872  0.0626  0.4497
11031SOL    HW133949   2.105   3.256   1.496  0.7377  1.8663 -0.5891
11031SOL    HW233950   2.031   3.327   1.608 -0.9454  0.1544 -0.5681
11032SOL     OW33951   0.542   4.253   2.738 -0.1245  0.1969 -0.3461
11032SOL    HW133952   0.591   4.178   2.705 -0.9670 -0.5818  0.1411
11032SOL    HW233953   0.543   4.242   2.833 -0.1494  0.8714 -0.2658
11033SOL     OW33954   6.845   6.619   4.947 -0.0983 -0.3797  0.0829
11033SOL    HW133955   6.764   6.568   4.944  0.8556 -1.9276 -1.4232
11033SOL    HW233956   6.905   6.565   4.999 -0.1325  0.9955  1.6478
11034SOL     OW33957   1.017   0.578   1.412  0.7357 -0.3142 -0.2905
11034SOL    HW133958   1.012   0.671   1.390 -0.5207  0.0814  1.4541
11034SOL    HW233959   1.110   0.560   1.417  1.0356  1.3072  1.0010
11035SOL     OW33960   6.245   0.743   2.109  0.7145  0.0978 -0.1992
11035SOL    HW133961   6.179   0.707   2.168  1.7020 -0.4724  0.5968
11035SOL    HW233962   6.328   0.714   2.146  1.3816  0.0843 -1.6485
11036SOL     OW33963   1.381   5.764   2.968  0.2341  0.4365  0.4511
11036SOL    HW133964   1.442   5.782   2.897 -0.1608  1.6028  0.3793
11036SOL    HW233965   1.337   5.684   2.943 -1.1506  1.7389 -1.5086
11037SOL     OW33966   7.050   7.520   0.002 -0.0635  0.2308  0.0046
11037SOL    HW133967   6.987   7.527  -0.069 -0.7454  0.0508  0.5790
11037SOL    HW233968   7.136   7.531  -0.040 -0.4676  0.3384 -0.8020
11038SOL     OW33969   7.796   5.281   3.517  0.0118 -0.3606 -0.0794
11038SOL    HW133970   7.868   5.227   3.485  0.4531  0.4433 -0.4752
11038SOL    HW233971   7.837   5.342   3.578  0.2273  1.9802 -2.4035
11039SOL     OW33972   5.385   3.020   4.101 -0.1697 -0.0955 -0.3338
11039SOL    HW133973   5.454   3.016   4.034  0.0092 -2.1032 -0.0913
11039SOL    HW233974   5.334   2.940   4.088 -2.2469  1.1588 -0.2373
11040SOL     OW33975   3.965   4.372   6.678  0.0328  0.0151 -0.2553
11040SOL    HW133976   4.040   4.334   6.633  0.4042 -0.7795  0.9723
11040SOL    HW233977   4.004   4.440   6.734 -0.3797  0.7624 -0.8556
11041SOL     OW33978   4.838   3.458   4.835  0.5857 -0.0483  0.1193
11041SOL    HW133979   4.785   3.386   4.800  0.0969  0.5157 -0.3331
11041SOL    HW233980   4.842   3.442   4.929 -0.3246 -0.1572  0.1531
11042SOL     OW33981   1.161   2.325   2.501  0.8762 -0.1624 -0.6903
11042SOL    HW133982   1.230   2.388   2.485  0.6879 -0.1138 -1.3195
11042SOL    HW233983   1.080   2.370   2.475  0.3932  0.3714  1.5185
11043SOL     OW33984   3.300   0.299   7.666  0.0479  0.4332 -0.0260
11043SOL    HW133985   3.336   0.311   7.753  1.7230 -0.5178 -0.5525
11043SOL    HW233986   3.321   0.208   7.643 -0.1673  0.7246 -1.4912
11044SOL     OW33987   2.704   0.466   7.905 -0.0025  0.0404  0.5325
11044SOL    HW133988   2.686   0.477   7.998 -0.5430 -0.7346  0.5302
11044SOL    HW233989   2.798   0.485   7.896 -0.2397  1.5016  0.9932
11045SOL     OW33990   1.664   3.694   3.181  0.2855 -0.1401 -0.1322
11045SOL    HW133991   1.672   3.688   3.276  1.7349  0.9805 -0.1524
11045SOL    HW233992   1.583   3.744   3.167  0.0615 -0.3162  0.4986
11046SOL     OW33993   2.768   5.714   0.043  0.1858 -0.1025  0.4132
11046SOL    HW133994   2.858   5.711   0.011 -0.3562  0.5116 -1.2411
11046SOL    HW233995   2.772   5.769   0.121  1.4896 -1.3587  1.2809
11047SOL     OW33996   7.037   4.252   0.414  0.3083 -0.1218 -0.1037
11047SOL    HW133997   7.078   4.166   0.421 -0.2551 -0.2941  1.6398
11047SOL    HW233998   6.974   4.243   0.342 -0.2558 -1.4118  0.5150
11048SOL     OW33999   5.768   3.042   6.039 -0.6748  0.0476 -0.1467
11048SOL    HW134000   5.856   3.028   6.074 -0.2166  1.3986 -0.6906
11048SOL    HW234001   5.770   3.131   6.003 -2.2635  0.1075 -0.1757
11049SOL     OW34002   6.336   7.565   2.789  0.3551  0.3267 -0.5982
11049SOL    HW134003   6.260   7.567   2.731 -0.6010 -1.6869  0.4707
11049SOL    HW234004   6.325   7.484   2.840  3.7532 -0.6065 -1.1078
11050SOL     OW34005   0.576   6.399   0.605 -0.0791  0.4225  0.3292
11050SOL    HW134006   0.507   6.454   0.642 -2.1646 -1.4999 -0.4439
11050SOL    HW234007   0.563   6.405   0.510 -0.2046 -1.1776  0.2252
11051SOL     OW34008   3.235   4.964   5.887  0.2945 -0.3588 -0.4911
11051SOL    HW134009   3.282   4.887   5.919  1.6303  0.4075 -0.5222
11051SOL    HW234010   3.304   5.027   5.866 -0.8116  1.4580  1.0423
11052SOL     OW34011   7.104   0.257   4.907  0.0239 -0.1235  0.6648
11052SOL    HW134012   7.068   0.214   4.829  1.5279  0.0317 -0.1685
11052SOL    HW234013   7.158   0.328   4.872  0.2232  0.3543  1.8913
11053SOL     OW34014   5.072   7.202   0.870 -0.1933  0.2249 -0.1207
11053SOL    HW134015   5.140   7.269   0.876  1.3701 -1.4127  2.9092
11053SOL    HW234016   5.115   7.121   0.898 -3.0969 -1.1111  0.9479
11054SOL     OW34017   4.459   1.516   1.697  0.3698  0.2585 -0.2619
11054SOL    HW134018   4.498   1.562   1.771  1.1233  0.6333 -0.8695
11054SOL    HW234019   4.399   1.452   1.736  2.5497 -1.2516  0.7859
11055SOL     OW34020   2.696   1.322   3.152 -0.3210  0.6689 -0.4129
11055SOL    HW134021   2.682   1.416   3.150  1.9654  1.0608  0.3422
11055SOL    HW234022   2.733   1.301   3.066 -0.5539  0.4798 -0.4712
11056SOL     OW34023   2.350   3.423   7.017 -0.1744 -0.3133 -0.2112
11056SOL    HW134024   2.371   3.426   7.110 -1.8047 -1.2613  0.2113
11056SOL    HW234025   2.435   3.413   6.974  0.6870  1.0029  1.0978
11057SOL     OW34026   1.269   1.791   3.724  0.0098 -0.4654  0.0250
11057SOL    HW134027   1.208   1.859   3.752  0.1896 -0.1655 -0.3065
11057SOL    HW234028   1.212   1.720   3.692 -0.1793 -0.5120  0.4603
11058SOL     OW34029   1.540   3.303   0.712 -0.4222 -0.7796 -0.1638
11058SOL    HW134030   1.629   3.308   0.677 -0.5952 -0.1110 -0.5268
11058SOL    HW234031   1.519   3.209   0.713  1.5562 -1.3329  3.2162
11059SOL     OW34032   0.620   0.783   2.582 -0.3913  0.7232 -0.0473
11059SOL    HW134033   0.632   0.832   2.664  0.2398 -0.5803  0.6893
11059SOL    HW234034   0.687   0.819   2.523 -0.8519  1.6774 -0.0096
11060SOL     OW34035   0.318   0.428   1.521  0.0805  0.2030  0.0505
11060SOL    HW134036   0.325   0.512   1.476  2.1206 -0.0105 -0.1584
11060SOL    HW234037   0.296   0.366   1.453  0.3789  0.3004 -0.1352
11061SOL     OW34038   5.996   7.677   5.352  0.1256  0.0853 -0.5608
11061SOL    HW134039   5.931   7.651   5.287  0.9415 -1.4552 -0.7933
11061SOL    HW234040   6.067   7.715   5.301  0.1393  0.2183 -0.4434
11062SOL     OW34041   4.592   0.600   0.210 -0.6233  0.5314  0.9084
11062SOL    HW134042   4.607   0.603   0.116  1.1055 -1.9528  1.0057
11062SOL    HW234043   4.497   0.601   0.219 -0.8519  2.8358 -0.6633
11063SOL     OW34044   5.596   3.749   0.180  0.1727 -0.4888  0.4590
11063SOL    HW134045   5.630   3.771   0.266  1.7607 -0.4465 -0.1507
11063SOL    HW234046   5.624   3.821   0.123 -1.4999 -0.1221  0.0207
11064SOL     OW34047   7.605   3.191   3.865  0.0736 -0.3169 -0.1378
11064SOL    HW134048   7.681   3.242   3.837  0.0875 -1.3149 -2.0554
11064SOL    HW234049   7.633   3.100   3.857 -1.5605 -0.7379 -1.7932
11065SOL     OW34050   5.432   7.290   3.386 -0.2760  0.0242 -0.1088
11065SOL    HW134051   5.418   7.329   3.300 -2.4266 -0.9689 -0.2667
11065SOL    HW234052   5.494   7.349   3.430 -0.5282  1.5166 -1.6661
11066SOL     OW34053   4.054   1.375   2.249  0.5594 -0.0380 -0.7110
11066SOL    HW134054   4.082   1.347   2.161  0.9511 -0.2872 -0.5108
11066SOL    HW234055   4.136   1.385   2.298  0.2820 -1.4359  0.0906
11067SOL     OW34056   7.292   3.982   7.926  0.6141 -0.3544  0.1190
11067SOL    HW134057   7.272   4.055   7.868  0.3473 -0.3698  0.1912
11067SOL    HW234058   7.387   3.980   7.931  0.6207 -0.0367  0.0872
11068SOL     OW34059   6.624   7.202   7.478  0.3833 -0.4144 -0.4339
11068SOL    HW134060   6.530   7.186   7.488  0.5389 -1.3873 -0.4336
11068SOL    HW234061   6.641   7.278   7.534 -0.8317  1.3559 -2.3405
11069SOL     OW34062   3.551   4.307   3.685 -0.5427  0.5630 -0.3485
11069SOL    HW134063   3.589   4.387   3.720 -1.2542  0.9086 -0.3371
11069SOL    HW234064   3.554   4.318   3.590  1.7311 -0.5375 -0.4520
11070SOL     OW34065   4.304   2.229   5.524  0.4340 -0.2637 -0.0203
11070SOL    HW134066   4.209   2.236   5.515  0.5497 -0.2016 -1.4488
11070SOL    HW234067   4.339   2.295   5.464  1.3957  0.9783  1.7995
11071SOL     OW34068   7.962   0.222   4.859 -0.6493  0.2543  0.6050
11071SOL    HW134069   7.937   0.275   4.784 -0.8653  0.0751  0.5500
11071SOL    HW234070   8.028   0.274   4.904 -1.4494  0.9422  1.0105
11072SOL     OW34071   1.568   4.612   2.540  0.1205  0.1715 -0.2765
11072SOL    HW134072   1.625   4.541   2.510  0.7049  0.5128  0.0083
11072SOL    HW234073   1.504   4.623   2.469  0.2446 -0.3926 -0.4825
11073SOL     OW34074   3.918   1.850   2.869  0.5508 -0.2862 -0.1341
11073SOL    HW134075   3.854   1.817   2.932  0.6480  2.1886  1.4227
11073SOL    HW234076   4.002   1.838   2.913  0.7996 -0.2648 -0.6067
11074SOL     OW34077   4.904   5.249   7.277 -0.2761 -0.7012 -0.0002
11074SOL    HW134078   4.870   5.187   7.213 -0.9658 -1.5280  1.1404
11074SOL    HW234079   4.835   5.257   7.342  1.2829 -1.7095  1.8976
11075SOL     OW34080   2.413   1.429   6.590  0.1515 -0.4360 -0.5142
11075SOL    HW134081   2.398   1.466   6.503  0.9810  0.0606 -0.4587
11075SOL    HW234082   2.341   1.462   6.643  0.1777  0.0680 -0.7801
11076SOL     OW34083   1.918   6.172   7.164  0.1136  0.5248 -0.4263
11076SOL    HW134084   1.920   6.237   7.235 -1.2115 -2.0508  2.1872
11076SOL    HW234085   2.003   6.130   7.167  0.1315  0.5558 -0.5029
11077SOL     OW34086   3.534   0.497   1.599  0.4306  0.2462  0.6179
11077SOL    HW134087   3.584   0.536   1.527  3.5039 -0.2841  2.2651
11077SOL    HW234088   3.489   0.571   1.640 -0.9919  0.6189 -1.4616
11078SOL     OW34089   2.416   5.036   4.654 -0.0777  0.5772  0.0337
11078SOL    HW134090   2.470   4.988   4.590 -0.7792 -0.3520  0.1159
11078SOL    HW234091   2.475   5.103   4.689  1.4822 -1.1737  1.0239
11079SOL     OW34092   4.802   5.126   6.268 -0.3691  0.2839  0.0258
11079SOL    HW134093   4.773   5.036   6.254  0.6117 -0.0057 -0.2694
11079SOL    HW234094   4.746   5.178   6.210 -0.2433 -0.2672 -0.6137
11080SOL     OW34095   5.436   5.527   2.144  0.1029  0.0791  0.0371
11080SOL    HW134096   5.417   5.556   2.233  1.7850  0.5725  0.2650
11080SOL    HW234097   5.469   5.606   2.100 -0.1907 -0.2880 -0.8622
11081SOL     OW34098   2.795   7.032   1.814 -0.5492  0.0378 -0.3352
11081SOL    HW134099   2.722   6.986   1.772 -0.7387  1.6173 -1.8422
11081SOL    HW234100   2.754   7.088   1.880 -0.5722  0.0366 -0.3483
11082SOL     OW34101   1.034   1.823   1.505 -0.1605 -0.3171  0.6058
11082SOL    HW134102   0.941   1.840   1.486  0.1377  0.5249 -0.2057
11082SOL    HW234103   1.065   1.771   1.431  0.1316 -0.1724  0.6244
11083SOL     OW34104   2.645   0.305   2.643 -0.5663  0.4468 -0.2394
11083SOL    HW134105   2.660   0.211   2.653 -0.2891  0.4786 -0.3376
11083SOL    HW234106   2.731   0.340   2.619 -0.5065  0.8300  0.5138
11084SOL     OW34107   2.827   4.018   6.994 -0.1675  0.6705  0.4505
11084SOL    HW134108   2.816   4.078   7.067 -3.0248  1.0744 -0.1527
11084SOL    HW234109   2.799   4.069   6.917  0.2887 -0.5010 -0.5284
11085SOL     OW34110   0.903   4.973   2.806 -0.1415 -0.0500 -0.5123
11085SOL    HW134111   0.911   4.992   2.713 -0.2553 -0.5900 -0.6357
11085SOL    HW234112   0.859   4.888   2.809  0.6869 -0.4700  0.0158
11086SOL     OW34113   6.435   5.415   2.157  0.2350  0.0818  0.0221
11086SOL    HW134114   6.461   5.323   2.155 -1.5257 -0.4345 -1.1445
11086SOL    HW234115   6.422   5.434   2.250 -0.3049 -1.1400  0.2172
11087SOL     OW34116   0.420   4.894   4.601  0.5027  0.0900  0.4031
11087SOL    HW134117   0.348   4.843   4.639  1.5668 -0.9813  1.0232
11087SOL    HW234118   0.451   4.841   4.528  1.0478  0.2860  0.4926
11088SOL     OW34119   0.823   1.592   0.850  0.2482 -0.0676  0.6794
11088SOL    HW134120   0.813   1.502   0.818  1.5689 -0.4675  1.3113
11088SOL    HW234121   0.913   1.615   0.827  0.0135  1.0012  0.7854
11089SOL     OW34122   7.178   5.972   5.191 -0.1064 -0.6329 -0.0725
11089SOL    HW134123   7.218   5.988   5.276  0.7019  1.2039 -0.7418
11089SOL    HW234124   7.085   5.961   5.210  0.3501 -2.7729  1.2660
11090SOL     OW34125   6.620   3.838   1.475 -0.3862  0.4764  0.5473
11090SOL    HW134126   6.628   3.813   1.567 -1.1425  0.6714  0.6709
11090SOL    HW234127   6.532   3.811   1.450 -1.0167  2.3885  0.5132
11091SOL     OW34128   1.976   5.933   5.320  0.0670  0.1954  0.1198
11091SOL    HW134129   2.008   5.860   5.267  1.3934  1.3658 -0.7642
11091SOL    HW234130   1.885   5.944   5.292  0.3615 -0.0420 -0.9820
11092SOL     OW34131   1.886   5.668   1.491  0.4249  0.1715 -0.7680
11092SOL    HW134132   1.883   5.701   1.401 -0.2990 -0.1525 -0.8688
11092SOL    HW234133   1.928   5.582   1.484 -0.9145 -0.4768 -0.9995
11093SOL     OW34134   0.058   5.213   7.803  0.2031 -0.3478 -0.4179
11093SOL    HW134135  -0.030   5.226   7.840  0.4894 -0.1082  0.1846
11093SOL    HW234136   0.091   5.301   7.787  0.0046 -0.4487 -1.4541
11094SOL     OW34137   1.076   2.136   7.220 -0.5300 -0.4528  0.1101
11094SOL    HW134138   1.063   2.206   7.283 -1.2576  0.3259 -0.8739
11094SOL    HW234139   1.171   2.127   7.212 -0.4261  0.6823 -0.0319
11095SOL     OW34140   6.159   3.133   2.424 -0.1388 -0.0511  0.0084
11095SOL    HW134141   6.070   3.152   2.395  0.3366  1.1540 -0.7435
11095SOL    HW234142   6.215   3.182   2.363  1.0852 -1.6090 -0.1738
11096SOL     OW34143   6.941   5.214   1.897  0.5407 -0.0660 -0.4843
11096SOL    HW134144   6.859   5.263   1.885  0.9752  0.4877 -1.3034
11096SOL    HW234145   6.967   5.190   1.808  1.0780 -0.5714 -0.1946
11097SOL     OW34146   3.356   2.513   5.385 -0.5863 -0.1036  0.3552
11097SOL    HW134147   3.300   2.516   5.307 -0.0165 -0.0157 -0.0657
11097SOL    HW234148   3.436   2.558   5.357 -0.2524 -0.3652  0.8905
11098SOL     OW34149   7.356   7.707   6.177  0.3552  0.1115 -0.1901
11098SOL    HW134150   7.364   7.661   6.261 -2.6080 -2.1183 -0.9185
11098SOL    HW234151   7.280   7.764   6.189  1.4890  1.7590 -0.6192
11099SOL     OW34152   5.172   5.046   7.074  0.8391 -0.0702  0.4268
11099SOL    HW134153   5.231   5.000   7.014 -1.3060 -2.1767 -0.2113
11099SOL    HW234154   5.222   5.054   7.155  3.0527  0.9824 -0.9480
11100SOL     OW34155   5.718   3.168   4.320  0.1487  0.0057  0.1408
11100SOL    HW134156   5.759   3.082   4.313 -1.7557 -1.0230  0.8426
11100SOL    HW234157   5.645   3.165   4.257  0.3373  1.3000 -0.1709
11101SOL     OW34158   2.930   2.232   7.082 -0.2702  0.5272  0.0472
11101SOL    HW134159   2.903   2.310   7.033 -0.1171  0.1710 -0.6024
11101SOL    HW234160   2.955   2.267   7.168 -0.3429  1.1793 -0.1852
11102SOL     OW34161   2.195   2.432   7.353 -0.2807 -0.0822  0.1083
11102SOL    HW134162   2.144   2.420   7.273  0.8844 -0.0329 -0.6692
11102SOL    HW234163   2.242   2.514   7.339  2.9448 -1.9178 -0.9159
11103SOL     OW34164   1.118   0.248   3.092 -0.4326  0.3606 -0.3819
11103SOL    HW134165   1.204   0.270   3.055  0.0964  0.4455  0.8421
11103SOL    HW234166   1.100   0.160   3.061 -0.7589  1.0002 -2.1336
11104SOL     OW34167   0.723   1.915   1.182 -0.4767 -0.6228  0.0135
11104SOL    HW134168   0.658   1.982   1.201 -0.7713  0.1057 -3.0641
11104SOL    HW234169   0.770   1.947   1.105  0.0447 -3.4626 -0.9995
11105SOL     OW34170   2.250   4.099   5.216  0.0120 -0.2196  0.2545
11105SOL    HW134171   2.296   4.127   5.296  0.6691 -1.0131  0.1731
11105SOL    HW234172   2.306   4.030   5.181  1.2044  1.9039 -2.3737
11106SOL     OW34173   3.630   6.008   1.235 -0.2314 -0.0604 -0.5977
11106SOL    HW134174   3.652   6.006   1.142 -3.7208 -0.0779 -1.5874
11106SOL    HW234175   3.605   5.918   1.256 -1.1041  0.2787 -0.1317
11107SOL     OW34176   1.726   6.540   5.186 -0.3509  0.0420 -0.3817
11107SOL    HW134177   1.638   6.536   5.149 -1.0211 -0.6649  1.2018
11107SOL    HW234178   1.780   6.490   5.124 -1.3496 -0.7685 -0.6230
11108SOL     OW34179   7.732   4.224   0.534 -0.1204 -0.0057  0.5918
11108SOL    HW134180   7.709   4.177   0.614 -0.6909 -1.0664 -0.1591
11108SOL    HW234181   7.730   4.316   0.558  2.0516 -0.3593  2.3839
11109SOL     OW34182   1.683   3.811   6.524 -0.4377  0.0513 -0.3253
11109SOL    HW134183   1.725   3.816   6.610 -0.2582 -1.1830 -0.3318
11109SOL    HW234184   1.751   3.776   6.466 -0.9955 -0.4755 -0.6700
11110SOL     OW34185   4.046   2.523   6.623  0.7882  0.0616  0.3317
11110SOL    HW134186   4.037   2.609   6.665  0.1015  0.6153 -0.8808
11110SOL    HW234187   3.959   2.484   6.631  0.7076  0.0833 -0.3381
11111SOL     OW34188   6.412   2.335   7.322  0.3374  0.6601  0.1138
11111SOL    HW134189   6.415   2.361   7.414  1.6526  0.5619  0.1263
11111SOL    HW234190   6.387   2.415   7.275 -0.5440  0.6567  0.5688
11112SOL     OW34191   5.294   7.084   6.218  0.5154 -0.4167  0.3524
11112SOL    HW134192   5.277   7.001   6.175  0.7495  0.2479 -1.0878
11112SOL    HW234193   5.367   7.122   6.168  0.7146  0.4450  1.2672
11113SOL     OW34194   3.833   6.161   0.201 -0.3784 -0.0879 -0.2363
11113SOL    HW134195   3.827   6.066   0.214 -0.2080 -0.0706 -0.0140
11113SOL    HW234196   3.828   6.173   0.107  2.0076 -0.5063 -0.4608
11114SOL     OW34197   2.140   2.354   6.242  0.2565 -0.3755 -0.2517
11114SOL    HW134198   2.219   2.371   6.190  0.1029 -0.3787 -0.4857
11114SOL    HW234199   2.084   2.302   6.184 -0.3049  0.4011 -0.4121
11115SOL     OW34200   4.058   0.742   6.077 -0.0173 -0.0823  0.2098
11115SOL    HW134201   4.099   0.743   5.990 -1.2282 -1.1671 -0.4114
11115SOL    HW234202   3.966   0.725   6.060 -0.3154 -0.1029  1.7090
11116SOL     OW34203   5.778   1.031   4.091  0.5746 -0.4370  0.1558
11116SOL    HW134204   5.736   1.105   4.136  0.3463 -0.6261  0.2534
11116SOL    HW234205   5.801   1.066   4.005  1.9785  0.2526  0.7749
11117SOL     OW34206   2.544   0.355   7.678 -0.3518 -0.6393  0.1870
11117SOL    HW134207   2.545   0.422   7.747  0.1149 -1.1268  0.6577
11117SOL    HW234208   2.608   0.386   7.614 -1.2735  0.1612 -0.3754
11118SOL     OW34209   0.531   2.406   7.433  0.0952 -0.2908 -0.1047
11118SOL    HW134210   0.564   2.320   7.458  0.8742  0.8399  3.4151
11118SOL    HW234211   0.446   2.412   7.476 -0.0528  0.5789 -0.5048
11119SOL     OW34212   1.498   5.136   3.826 -0.2394 -0.9382 -0.2057
11119SOL    HW134213   1.547   5.151   3.745 -0.2098  1.4128  0.1547
11119SOL    HW234214   1.513   5.044   3.848 -0.1879 -1.6200 -2.8036
11120SOL     OW34215   1.023   1.182   3.679  0.0109 -0.3161 -0.4980
11120SOL    HW134216   1.024   1.261   3.625  0.7140 -0.9285 -1.4170
11120SOL    HW234217   1.029   1.110   3.616  0.7444 -1.0533  0.3914
11121SOL     OW34218   1.166   5.087   3.716 -0.3553  0.4938 -0.2122
11121SOL    HW134219   1.251   5.045   3.699 -0.5520 -0.5269  1.1905
11121SOL    HW234220   1.189   5.173   3.752  0.0469  1.3132 -2.2610
11122SOL     OW34221   1.607   1.166   3.400 -0.3456 -0.2825  0.0942
11122SOL    HW134222   1.516   1.144   3.420 -0.7057  1.6355  0.8410
11122SOL    HW234223   1.644   1.086   3.364 -1.6348 -1.8640  2.0390
11123SOL     OW34224   5.294   1.657   2.168  0.8000 -0.2249  0.1169
11123SOL    HW134225   5.287   1.610   2.085  0.6473 -1.6353  0.8973
11123SOL    HW234226   5.357   1.607   2.220 -1.1399 -1.0025  1.8789
11124SOL     OW34227   5.786   3.821   2.258 -0.1032 -0.4066 -0.0392
11124SOL    HW134228   5.863   3.769   2.280  0.7311 -0.6576 -3.1528
11124SOL    HW234229   5.820   3.910   2.246 -0.5958 -0.1858  0.1678
11125SOL     OW34230   2.876   4.702   5.112  0.5432  0.3679  0.3795
11125SOL    HW134231   2.957   4.719   5.064  0.1941  0.5380 -0.1643
11125SOL    HW234232   2.809   4.751   5.064  0.2112  0.6747  1.1415
11126SOL     OW34233   1.375   5.249   0.157  0.1837 -0.3117 -0.1548
11126SOL    HW134234   1.420   5.288   0.232  2.8702 -2.0147 -0.7511
11126SOL    HW234235   1.395   5.309   0.085 -1.5841  0.8051  0.2238
11127SOL     OW34236   4.032   1.040   2.396  0.0553  0.4030 -0.0565
11127SOL    HW134237   3.970   1.095   2.348 -0.9518  0.5208  1.2933
11127SOL    HW234238   4.040   1.083   2.482  0.8695 -0.4334  0.3029
11128SOL     OW34239   0.222   3.393   7.693  0.2552  0.0948  0.6825
11128SOL    HW134240   0.159   3.460   7.667  0.5617  0.7798  1.6215
11128SOL    HW234241   0.228   3.402   7.789 -1.2254 -2.6279  1.1310
11129SOL     OW34242   6.650   0.207   2.811 -0.3801  0.0827 -0.6437
11129SOL    HW134243   6.695   0.287   2.837 -3.0378  1.7867 -0.8609
11129SOL    HW234244   6.662   0.147   2.885  0.3921  1.2523  0.1969
11130SOL     OW34245   1.248   1.078   4.025 -0.0344 -0.1557 -0.1841
11130SOL    HW134246   1.280   1.119   3.944  1.0566 -1.2076 -0.3176
11130SOL    HW234247   1.245   0.985   4.005  1.3200 -0.5638  1.3124
11131SOL     OW34248   6.817   5.461   0.471  0.3041  0.2191  0.3745
11131SOL    HW134249   6.784   5.403   0.539  0.6143 -0.0573  0.2930
11131SOL    HW234250   6.909   5.477   0.495  0.2641  0.5467  0.3113
11132SOL     OW34251   3.980   4.935   3.557  0.1895  0.5651  0.0696
11132SOL    HW134252   4.067   4.965   3.581  0.5315 -1.2072  1.2191
11132SOL    HW234253   3.920   4.998   3.597  0.9248  2.4059 -1.6332
11133SOL     OW34254   4.560   6.850   7.752 -0.0899  0.4500 -0.2562
11133SOL    HW134255   4.627   6.783   7.767  1.1471  1.7057  0.0987
11133SOL    HW234256   4.489   6.804   7.708  0.5273 -1.1783  0.3647
11134SOL     OW34257   4.954   3.835   6.563 -0.3467  0.2977 -0.0561
11134SOL    HW134258   4.926   3.922   6.536  0.3161  0.0733 -1.5209
11134SOL    HW234259   4.977   3.845   6.656 -1.5305  1.3571  0.1515
11135SOL     OW34260   7.892   7.692   7.864 -0.1235  0.1168 -0.2094
11135SOL    HW134261   7.808   7.727   7.892 -0.0472  1.9272 -2.0207
11135SOL    HW234262   7.869   7.619   7.805 -0.3788 -0.1039  0.1574
11136SOL     OW34263   0.528   5.725   4.890 -0.1811 -0.0004 -0.0377
11136SOL    HW134264   0.452   5.762   4.846  0.1729  0.4820 -0.2531
11136SOL    HW234265   0.494   5.649   4.938 -0.3431 -1.4743 -2.3003
11137SOL     OW34266   5.459   3.668   1.532 -0.3319 -0.2106  0.0130
11137SOL    HW134267   5.397   3.662   1.459  1.4568 -0.5827 -1.5473
11137SOL    HW234268   5.456   3.583   1.574 -0.9831 -0.1690  0.0649
11138SOL     OW34269   2.295   2.741   0.237 -0.0084  0.2058  0.4042
11138SOL    HW134270   2.354   2.689   0.292  0.1699 -0.6461 -0.5666
11138SOL    HW234271   2.354   2.790   0.179 -0.2215  0.2085  0.1865
11139SOL     OW34272   0.055   2.944   1.355  0.5968 -0.0768 -0.0025
11139SOL    HW134273   0.027   2.940   1.264 -0.9792  2.6769  0.2411
11139SOL    HW234274   0.133   3.001   1.354  1.2946 -0.9964  0.2751
11140SOL     OW34275   2.720   6.623   3.049 -0.0364 -0.6112  0.3382
11140SOL    HW134276   2.644   6.567   3.033 -1.0496  0.8606 -0.1802
11140SOL    HW234277   2.793   6.576   3.009 -0.9966 -1.1803 -0.7952
11141SOL     OW34278   7.661   2.790   5.968 -0.4125 -0.2289  0.5398
11141SOL    HW134279   7.580   2.764   5.925 -0.5784  0.4465  0.4344
11141SOL    HW234280   7.638   2.793   6.061 -0.3948 -0.4432  0.5524
11142SOL     OW34281   6.890   5.426   3.255 -0.2089 -0.3094  0.0487
11142SOL    HW134282   6.901   5.465   3.168 -2.2944 -2.7096 -1.4308
11142SOL    HW234283   6.835   5.489   3.303  0.3881  0.7226 -0.5987
11143SOL     OW34284   2.428   3.056   6.337  0.4167  0.7267 -0.1660
11143SOL    HW134285   2.438   3.010   6.253  1.6052  0.6460  0.0059
11143SOL    HW234286   2.390   3.141   6.313 -1.1082 -0.0457 -0.5610
11144SOL     OW34287   2.220   5.292   4.560  0.2686  0.0186 -0.0999
11144SOL    HW134288   2.199   5.201   4.538  2.3347 -0.9794  1.6815
11144SOL    HW234289   2.176   5.307   4.644  1.3896  0.0240  0.5055
11145SOL     OW34290   6.333   3.934   4.385  0.5576  0.3451  0.0394
11145SOL    HW134291   6.306   3.882   4.461 -0.2429  0.7586  0.0443
11145SOL    HW234292   6.251   3.971   4.351  1.0777  1.3319 -0.1673
11146SOL     OW34293   1.307   2.548   0.184  0.3691 -0.0057  0.3943
11146SOL    HW134294   1.349   2.466   0.156 -0.7029 -0.6037  0.5014
11146SOL    HW234295   1.368   2.585   0.248  0.5693 -1.0501  0.8367
11147SOL     OW34296   3.472   7.795   4.582 -0.3759 -0.3319 -0.7137
11147SOL    HW134297   3.526   7.726   4.544  0.6041  0.1859 -0.2810
11147SOL    HW234298   3.510   7.877   4.551 -0.0438  0.0762  0.6992
11148SOL     OW34299   4.862   0.492   2.017 -0.0476  0.7186  0.5682
11148SOL    HW134300   4.916   0.566   1.989  0.2108  0.1154 -0.6101
11148SOL    HW234301   4.900   0.416   1.972  0.6422 -0.4322  2.9082
11149SOL     OW34302   2.319   0.626   1.775 -0.2258  0.8502 -0.0785
11149SOL    HW134303   2.296   0.550   1.829 -0.5819  0.6685 -0.4783
11149SOL    HW234304   2.253   0.692   1.798  1.1773  1.7402  1.6694
11150SOL     OW34305   6.861   7.409   1.508  0.7496 -0.1258 -0.1051
11150SOL    HW134306   6.931   7.357   1.548  0.0933  0.8873  2.6529
11150SOL    HW234307   6.906   7.484   1.469  1.3200 -0.1018  0.5655
11151SOL     OW34308   4.789   4.164   0.513 -0.7208 -0.1277 -0.6549
11151SOL    HW134309   4.797   4.095   0.447 -1.1480  0.9265 -1.8680
11151SOL    HW234310   4.764   4.118   0.593  1.2410 -1.6084 -0.8347
11152SOL     OW34311   7.508   3.411   3.304 -0.7735  0.9728 -0.1626
11152SOL    HW134312   7.451   3.459   3.243 -0.5520  1.3175 -0.0988
11152SOL    HW234313   7.580   3.380   3.251 -1.6463 -0.5750 -0.5154
11153SOL     OW34314   5.035   0.000   5.109  0.3722  0.0143 -0.2964
11153SOL    HW134315   5.082   0.070   5.154  0.3556  0.6374 -1.2119
11153SOL    HW234316   5.061   0.009   5.017  0.3573 -1.1796 -0.4376
11154SOL     OW34317   7.694   0.867   5.960 -0.3130 -0.0985  0.0937
11154SOL    HW134318   7.606   0.865   5.921  0.2209 -0.0176 -1.1556
11154SOL    HW234319   7.717   0.775   5.974 -0.0205 -0.1978 -0.9546
11155SOL     OW34320   1.494   4.910   5.497 -0.2581  0.0093  0.1820
11155SOL    HW134321   1.561   4.978   5.496 -0.6569  0.5349 -3.1572
11155SOL    HW234322   1.414   4.957   5.522 -0.1679  0.3347 -0.1313
11156SOL     OW34323   7.248   6.382   3.577  0.2648 -0.0487 -0.0934
11156SOL    HW134324   7.226   6.399   3.485  2.1466  0.0038 -0.5626
11156SOL    HW234325   7.305   6.455   3.602  1.0041 -0.8559  0.6510
11157SOL     OW34326   5.557   0.855   7.741  0.0045  0.5614 -0.8284
11157SOL    HW134327   5.640   0.901   7.751  0.0605  0.5485 -1.2195
11157SOL    HW234328   5.581   0.763   7.730 -0.2220 -0.5558  5.0570
11158SOL     OW34329   6.193   7.012   5.807 -0.6381 -0.0166 -0.5265
11158SOL    HW134330   6.128   7.016   5.877 -1.4998 -0.2845 -1.2879
11158SOL    HW234331   6.201   7.103   5.776 -0.4826  0.0519 -0.2856
11159SOL     OW34332   5.551   0.469   5.565 -0.4607  0.0830  0.2294
11159SOL    HW134333   5.569   0.415   5.642 -0.5449  2.1023  1.7524
11159SOL    HW234334   5.544   0.558   5.600 -0.0282  1.1379 -2.1923
11160SOL     OW34335   6.552   2.956   2.377 -0.4852 -0.0981  0.2519
11160SOL    HW134336   6.632   2.935   2.330 -1.0934 -0.3904 -0.6646
11160SOL    HW234337   6.491   2.986   2.310 -1.0711  0.3712  0.9702
11161SOL     OW34338   7.669   4.464   4.164  0.2152 -0.1461 -0.1497
11161SOL    HW134339   7.586   4.457   4.210  0.1048 -0.4565 -0.3965
11161SOL    HW234340   7.652   4.526   4.093  0.2350 -0.0978 -0.1126
11162SOL     OW34341   4.221   1.970   6.759 -0.9400 -0.2298 -0.0267
11162SOL    HW134342   4.164   2.019   6.701  0.3653  1.5909  0.1518
11162SOL    HW234343   4.306   1.971   6.715 -0.1622  0.3321  1.4339
11163SOL     OW34344   6.797   0.870   4.298 -0.0338 -0.1127  0.3348
11163SOL    HW134345   6.705   0.894   4.303 -0.5871 -0.7808 -3.7378
11163SOL    HW234346   6.801   0.783   4.340 -1.8521 -1.2371 -1.6481
11164SOL     OW34347   6.469   0.455   3.785 -1.2852 -0.0858 -0.9678
11164SOL    HW134348   6.425   0.525   3.833  0.6949  1.3293 -1.1128
11164SOL    HW234349   6.400   0.414   3.733 -3.1123 -0.3833  1.5355
11165SOL     OW34350   1.371   3.227   4.955 -0.0653 -0.5465  0.1846
11165SOL    HW134351   1.375   3.220   5.050  0.0365  0.6876  0.2844
11165SOL    HW234352   1.303   3.291   4.938  1.1164  0.5633 -0.4969
11166SOL     OW34353   3.976   7.196   6.842  0.5391  0.3654  0.2811
11166SOL    HW134354   4.023   7.201   6.925 -0.8043  1.5136  1.0101
11166SOL    HW234355   3.911   7.127   6.856  0.2360  0.6396  0.2256
11167SOL     OW34356   4.268   7.642   0.678 -0.3279  0.8204  0.0140
11167SOL    HW134357   4.342   7.700   0.696 -1.0577  1.2793  1.7422
11167SOL    HW234358   4.213   7.691   0.617  0.5249  0.6817 -0.8867
11168SOL     OW34359   1.278   3.647   4.886  0.6817 -0.0970 -0.0170
11168SOL    HW134360   1.269   3.558   4.852  1.7131 -0.2656  0.1356
11168SOL    HW234361   1.341   3.640   4.958 -0.0301  0.5790  0.7151
11169SOL     OW34362   4.839   4.084   6.064  0.2365  0.0200 -0.2796
11169SOL    HW134363   4.919   4.083   6.116 -0.1835 -0.3556  0.3742
11169SOL    HW234364   4.771   4.116   6.123 -0.3215 -0.7573 -0.4687
11170SOL     OW34365   6.906   7.165   7.891 -0.3197  0.3761 -0.3295
11170SOL    HW134366   6.908   7.241   7.833 -0.6740  0.4926 -0.1917
11170SOL    HW234367   6.813   7.145   7.902 -0.2200 -0.2085 -0.5348
11171SOL     OW34368   1.110   7.510   4.089  0.5013  0.2831  0.4091
11171SOL    HW134369   1.017   7.522   4.071  1.0416  1.7421 -1.8402
11171SOL    HW234370   1.135   7.433   4.038  0.9060  1.1212 -0.7011
11172SOL     OW34371   7.233   5.812   4.393  0.2231  0.1961 -0.0717
11172SOL    HW134372   7.164   5.878   4.386  0.1300  0.3398  1.6725
11172SOL    HW234373   7.312   5.856   4.360  0.2633  1.3825  1.4869
11173SOL     OW34374   4.467   2.374   3.277 -0.4102 -0.1458  0.1347
11173SOL    HW134375   4.407   2.408   3.344 -0.4097  0.6319 -0.2453
11173SOL    HW234376   4.439   2.417   3.196  1.0755  0.7905  0.0695
11174SOL     OW34377   1.387   6.210   1.290  0.1626  0.0711 -0.0284
11174SOL    HW134378   1.385   6.127   1.241 -0.8503  0.1998 -0.2364
11174SOL    HW234379   1.395   6.183   1.381 -1.0671 -0.3148 -0.0157
11175SOL     OW34380   7.228   1.166   7.103  0.0355  0.0818 -0.7648
11175SOL    HW134381   7.223   1.108   7.026  1.8965 -1.5386  0.2299
11175SOL    HW234382   7.203   1.110   7.176  0.1654  1.0515  0.0363
11176SOL     OW34383   5.669   3.645   6.608  0.3436  0.4730  0.5831
11176SOL    HW134384   5.683   3.737   6.631  0.0864  1.1126 -1.5980
11176SOL    HW234385   5.575   3.638   6.595  0.6047  0.6216 -1.8251
11177SOL     OW34386   3.355   7.508   7.898  0.1354 -0.4290  0.1748
11177SOL    HW134387   3.303   7.445   7.849 -0.9021 -0.2823  1.0511
11177SOL    HW234388   3.431   7.458   7.928 -0.9841 -1.4605  1.3960
11178SOL     OW34389   1.455   0.672   2.344  0.1474  0.0251 -0.2407
11178SOL    HW134390   1.375   0.623   2.361 -0.7051  1.0867 -0.9895
11178SOL    HW234391   1.463   0.671   2.248  0.5230  0.6901 -0.2202
11179SOL     OW34392   7.400   2.735   3.928  0.3498  0.0834  0.4766
11179SOL    HW134393   7.312   2.719   3.962  1.2165 -3.2221  1.5940
11179SOL    HW234394   7.432   2.811   3.977 -1.8064  1.2793  0.1078
11180SOL     OW34395   3.601   0.584   5.260 -0.2812  0.0991 -0.3686
11180SOL    HW134396   3.514   0.624   5.266 -0.1617  0.1998  0.9724
11180SOL    HW234397   3.640   0.624   5.182 -1.5874 -0.2948 -1.2776
11181SOL     OW34398   1.014   3.846   6.777 -0.1588 -0.1465 -0.1455
11181SOL    HW134399   0.932   3.799   6.762 -0.7854  1.0051 -0.4452
11181SOL    HW234400   1.050   3.805   6.856 -2.2615  0.9213  1.4798
11182SOL     OW34401   1.554   6.223   5.404 -0.1225  1.1846 -0.2118
11182SOL    HW134402   1.619   6.290   5.385  0.6154  0.6116  0.2652
11182SOL    HW234403   1.577   6.149   5.348  0.1732  0.6554  0.5893
11183SOL     OW34404   6.940   4.415   0.817  0.4648  0.2388  0.2904
11183SOL    HW134405   6.931   4.484   0.882 -1.4044  1.1209 -0.8322
11183SOL    HW234406   6.879   4.347   0.845 -0.4742  0.6949 -0.5927
11184SOL     OW34407   3.029   2.436   4.993 -0.3299 -0.2926  0.0609
11184SOL    HW134408   2.950   2.403   4.950  0.0981 -1.6036  0.2415
11184SOL    HW234409   3.100   2.410   4.935  0.0595  0.0175  0.3963
11185SOL     OW34410   5.055   6.180   1.959  0.1416 -0.2548 -0.0159
11185SOL    HW134411   4.962   6.158   1.950  0.2738 -0.8260 -0.0334
11185SOL    HW234412   5.100   6.095   1.959  0.3927 -0.2861  3.3224
11186SOL     OW34413   5.331   7.760   1.603 -0.7908  0.2364 -0.0192
11186SOL    HW134414   5.248   7.747   1.558  0.0677  0.1185 -1.6567
11186SOL    HW234415   5.367   7.840   1.563  0.2419 -0.1665  0.0711
11187SOL     OW34416   6.660   6.381   3.041  0.2139 -0.0989 -0.7957
11187SOL    HW134417   6.716   6.304   3.045  2.3011  1.3753 -0.5408
11187SOL    HW234418   6.674   6.426   3.124 -0.7548  0.7259 -1.0588
11188SOL     OW34419   3.450   6.542   6.105  0.0909  0.1218  1.0387
11188SOL    HW134420   3.467   6.618   6.161  0.0899 -0.1185  1.3657
11188SOL    HW234421   3.537   6.518   6.072  0.4591 -1.1749  2.7985
11189SOL     OW34422   4.927   4.928   7.592 -0.0432  0.0163  0.6162
11189SOL    HW134423   4.887   4.907   7.676  1.4938  1.2741  1.7363
11189SOL    HW234424   5.014   4.961   7.614 -0.5046  2.9243 -1.2257
11190SOL     OW34425   4.040   3.944   3.956  0.3543 -0.2194 -0.2845
11190SOL    HW134426   4.024   3.954   4.050 -0.1381 -0.8386 -0.2951
11190SOL    HW234427   4.085   4.024   3.931  1.4219 -0.4847  0.6872
11191SOL     OW34428   0.461   7.536   1.855 -0.1656 -0.2370  0.2512
11191SOL    HW134429   0.406   7.586   1.915  0.7082  0.3500  0.5677
11191SOL    HW234430   0.550   7.551   1.884  0.2874  0.0334 -1.1678
11192SOL     OW34431   6.534   6.369   1.019  0.0430 -0.4370  0.4364
11192SOL    HW134432   6.552   6.282   1.054  0.2584 -0.4092  0.3950
11192SOL    HW234433   6.539   6.359   0.924  2.2604  0.0732  0.4494
11193SOL     OW34434   6.071   6.473   2.775 -0.2434 -0.2485 -0.5360
11193SOL    HW134435   6.108   6.561   2.779  1.8550 -1.0825 -0.2848
11193SOL    HW234436   6.071   6.443   2.866 -1.1218 -0.4730 -0.5965
11194SOL     OW34437   7.821   4.873   3.515 -0.2549 -0.1275  0.2860
11194SOL    HW134438   7.868   4.795   3.484 -0.4207 -0.3160  0.5144
11194SOL    HW234439   7.767   4.842   3.587 -1.4226 -0.1000 -0.5407
11195SOL     OW34440   0.477   1.783   7.217  0.1380 -0.4044  0.6315
11195SOL    HW134441   0.409   1.846   7.192 -0.0104 -0.9510 -0.3557
11195SOL    HW234442   0.471   1.779   7.313 -0.5373  0.3061  0.6303
11196SOL     OW34443   6.373   1.438   0.753 -0.0885  0.6241 -0.3880
11196SOL    HW134444   6.288   1.469   0.724  1.4880  5.1005 -1.0017
11196SOL    HW234445   6.421   1.421   0.672  0.4245  0.8136 -0.1260
11197SOL     OW34446   6.863   6.319   3.637  0.9000 -0.0137 -0.3935
11197SOL    HW134447   6.931   6.283   3.693 -0.1628 -0.3705  0.7057
11197SOL    HW234448   6.797   6.250   3.631  0.1525  0.6983 -0.5929
11198SOL     OW34449   0.776   5.998   5.430  0.2705 -0.2412 -0.3402
11198SOL    HW134450   0.815   5.985   5.517 -0.0782 -0.4619 -0.2138
11198SOL    HW234451   0.783   5.912   5.388 -1.3208 -0.6777  0.1990
11199SOL     OW34452   3.963   6.020   7.312 -0.4367  0.4061 -0.1202
11199SOL    HW134453   3.921   5.987   7.392 -0.6527  0.2125 -0.3104
11199SOL    HW234454   3.911   6.097   7.287 -0.1080  0.7218  0.1630
11200SOL     OW34455   1.236   4.436   6.407  0.1543  0.3140 -0.0240
11200SOL    HW134456   1.321   4.404   6.376 -1.4424 -3.5407 -0.9891
11200SOL    HW234457   1.244   4.438   6.502  0.6789 -2.4055  0.0589
11201SOL     OW34458   6.025   6.203   4.758 -0.1747  0.0648  0.1430
11201SOL    HW134459   6.019   6.262   4.833 -1.1140 -0.7063  0.6856
11201SOL    HW234460   5.947   6.148   4.763 -0.8968  0.7585 -2.0589
11202SOL     OW34461   3.762   2.427   2.079 -0.2066  0.0126 -0.1801
11202SOL    HW134462   3.757   2.367   2.153  1.7556 -2.2158 -1.7111
11202SOL    HW234463   3.819   2.498   2.110  0.7610 -0.9924  0.4397
11203SOL     OW34464   4.018   4.409   1.476 -0.3335 -0.0644  0.0886
11203SOL    HW134465   3.977   4.331   1.513 -0.5375  0.0137  0.0291
11203SOL    HW234466   4.093   4.426   1.533 -0.3187 -0.2729  0.1319
11204SOL     OW34467   7.180   7.871   0.960 -0.4524  0.4114  0.1667
11204SOL    HW134468   7.244   7.940   0.974  0.4490 -0.1220 -1.0697
11204SOL    HW234469   7.155   7.879   0.868 -0.6495 -0.6305  0.1094
11205SOL     OW34470   4.526   7.940   0.745  0.1427  0.2879  0.7477
11205SOL    HW134471   4.612   7.980   0.728 -0.6334  1.2158 -1.4085
11205SOL    HW234472   4.544   7.871   0.809  2.3101  1.1564  1.1601
11206SOL     OW34473   6.704   5.263   1.626 -0.4921  0.0387 -0.2357
11206SOL    HW134474   6.635   5.235   1.566 -0.3630 -1.1203  0.1257
11206SOL    HW234475   6.666   5.254   1.713  0.3703 -1.5137  0.0257
11207SOL     OW34476   5.017   1.877   2.339  0.2649 -0.8422  0.5251
11207SOL    HW134477   4.950   1.923   2.390  0.5040 -1.3954  1.3551
11207SOL    HW234478   4.989   1.889   2.248  1.0118  2.0818  0.5643
11208SOL     OW34479   6.619   0.471   5.436 -0.1224  1.2351 -0.5024
11208SOL    HW134480   6.679   0.455   5.363 -0.5523  0.9647 -0.8004
11208SOL    HW234481   6.555   0.400   5.431  0.2459  0.7898  0.5667
11209SOL     OW34482   2.520   2.446   5.044 -0.0921 -0.1202 -0.4778
11209SOL    HW134483   2.531   2.451   4.949  0.2400 -1.5704 -0.5366
11209SOL    HW234484   2.444   2.389   5.056  0.7056 -1.0658  0.1403
11210SOL     OW34485   3.580   6.758   7.236  0.3967  0.8261  0.0417
11210SOL    HW134486   3.674   6.757   7.213  0.2795  2.3556 -0.6003
11210SOL    HW234487   3.535   6.757   7.151 -0.2443 -1.3063  0.3400
11211SOL     OW34488   4.241   1.647   1.502 -0.8045  0.3469  0.2095
11211SOL    HW134489   4.177   1.705   1.542  1.7276  2.6663  1.1749
11211SOL    HW234490   4.263   1.584   1.571 -0.2846  1.0645  0.7038
11212SOL     OW34491   3.367   3.331   5.910  0.0554  0.3422 -0.0555
11212SOL    HW134492   3.459   3.342   5.932  0.1093  1.0160 -0.5797
11212SOL    HW234493   3.366   3.313   5.816 -0.3467  0.4642 -0.0794
11213SOL     OW34494   3.143   0.411   5.073 -0.2210 -0.3227  0.4469
11213SOL    HW134495   3.081   0.483   5.086 -1.7756 -1.4715 -0.3119
11213SOL    HW234496   3.119   0.373   4.989  2.3090 -0.1010 -0.4595
11214SOL     OW34497   5.999   4.647   0.736  0.1035 -0.1623 -0.1126
11214SOL    HW134498   6.060   4.640   0.810 -0.7409  2.7399  1.0023
11214SOL    HW234499   6.020   4.730   0.695 -0.6337 -0.8952 -2.0917
11215SOL     OW34500   0.310   2.112   7.947 -0.8022 -0.5795 -0.0608
11215SOL    HW134501   0.264   2.032   7.922 -0.7209 -0.7228  0.2353
11215SOL    HW234502   0.304   2.113   8.043 -0.5867 -0.3635 -0.0498
11216SOL     OW34503   6.381   4.898   1.841  0.3984 -0.3278 -1.0517
11216SOL    HW134504   6.472   4.895   1.810  1.0475 -1.9990  0.7988
11216SOL    HW234505   6.371   4.819   1.894 -1.5615  0.7650  0.3455
11217SOL     OW34506   6.466   0.772   4.806  0.0959 -0.2195 -0.4919
11217SOL    HW134507   6.560   0.756   4.818  0.9152  2.1398 -2.6651
11217SOL    HW234508   6.457   0.793   4.713 -2.3876  0.8816 -0.0868
11218SOL     OW34509   7.062   3.197   6.556 -0.1167 -0.3816 -0.4388
11218SOL    HW134510   7.022   3.241   6.480  0.3560 -1.7062 -1.4921
11218SOL    HW234511   6.988   3.169   6.609 -0.4638  0.3020 -0.5446
11219SOL     OW34512   0.969   5.029   3.324  0.4451  0.1476  0.2853
11219SOL    HW134513   0.979   5.104   3.265  2.6500 -0.3565 -0.0760
11219SOL    HW234514   0.875   5.019   3.334 -0.0841  0.2501 -3.2413
11220SOL     OW34515   3.911   7.221   2.702 -0.2309  0.1004  0.6692
11220SOL    HW134516   3.890   7.186   2.615  0.0942  0.0421  0.6130
11220SOL    HW234517   3.861   7.302   2.708 -0.8142 -0.2600  0.7107
11221SOL     OW34518   5.083   2.758   4.552  0.5487  0.1220  0.3778
11221SOL    HW134519   5.010   2.701   4.527 -0.0663  0.6322  0.9611
11221SOL    HW234520   5.060   2.843   4.514  0.2152  0.5974  1.6136
11222SOL     OW34521   1.602   3.277   1.759 -0.3666  0.1856  0.0360
11222SOL    HW134522   1.548   3.199   1.771  1.1088 -0.7898  0.5444
11222SOL    HW234523   1.651   3.261   1.678  0.0674  0.4984  0.2294
11223SOL     OW34524   2.764   6.014   1.385 -0.0353  0.4823 -0.4503
11223SOL    HW134525   2.857   6.003   1.367  0.1151  0.8234  0.1019
11223SOL    HW234526   2.747   5.957   1.460 -0.8392 -1.5938 -2.1105
11224SOL     OW34527   3.618   5.490   0.790  0.2203  0.3341 -0.0681
11224SOL    HW134528   3.540   5.479   0.844 -0.6287  1.0684 -1.1148
11224SOL    HW234529   3.591   5.463   0.702  0.5395  2.4222 -0.8614
11225SOL     OW34530   7.634   4.799   5.187  0.7146  0.3496  0.0266
11225SOL    HW134531   7.643   4.734   5.257  0.6080  0.4597  0.1433
11225SOL    HW234532   7.669   4.880   5.224 -0.6624  0.7689  0.4726
11226SOL     OW34533   0.741   2.887   3.055  0.5595 -0.4433  0.4556
11226SOL    HW134534   0.831   2.876   3.085  0.9256 -0.5932 -0.6586
11226SOL    HW234535   0.743   2.862   2.962 -0.4356  0.4489  0.1759
11227SOL     OW34536   2.386   4.629   6.955 -0.4076  0.1732  0.5319
11227SOL    HW134537   2.429   4.700   7.003 -0.8048  0.6136  0.2344
11227SOL    HW234538   2.334   4.672   6.889  0.1099 -0.4344 -0.2957
11228SOL     OW34539   0.032   3.788   2.867 -0.0797  0.2142  0.2619
11228SOL    HW134540  -0.050   3.837   2.877 -0.9493 -0.7259 -1.7997
11228SOL    HW234541   0.081   3.834   2.800  0.8643  0.4285  1.0606
11229SOL     OW34542   7.566   2.036   1.105  0.3823  0.4039  0.4914
11229SOL    HW134543   7.546   2.109   1.046  0.6652 -0.1780 -0.3512
11229SOL    HW234544   7.493   1.975   1.093 -0.0739  0.7282  1.5145
11230SOL     OW34545   6.202   6.068   5.598 -0.5452  0.0573 -0.0575
11230SOL    HW134546   6.213   5.989   5.651 -2.1598 -0.0941  0.1032
11230SOL    HW234547   6.133   6.117   5.643  0.3668  1.5503 -0.1885
11231SOL     OW34548   4.076   5.661   3.229  0.2838 -0.2489 -0.3297
11231SOL    HW134549   4.146   5.717   3.193  0.2806  1.2324  1.7579
11231SOL    HW234550   4.117   5.616   3.303 -0.1464 -1.8673 -1.0549
11232SOL     OW34551   7.217   7.033   4.773  0.0881 -0.8015  0.1811
11232SOL    HW134552   7.294   7.079   4.806 -0.7244  1.0651 -0.4082
11232SOL    HW234553   7.245   6.994   4.690  0.0705  1.0733 -0.7581
11233SOL     OW34554   0.632   5.108   1.745 -0.8443 -0.7361  0.3837
11233SOL    HW134555   0.605   5.059   1.668 -0.0698  1.6623 -1.5436
11233SOL    HW234556   0.727   5.116   1.737 -0.9915  1.5067  0.2787
11234SOL     OW34557   2.366   2.245   3.631 -0.0493 -0.5262 -0.0259
11234SOL    HW134558   2.352   2.191   3.553  1.4738 -0.3303 -0.4540
11234SOL    HW234559   2.354   2.335   3.600  0.1133 -0.4723  0.0689
11235SOL     OW34560   2.549   7.547   0.900 -0.1730  0.6556  0.0840
11235SOL    HW134561   2.580   7.458   0.882 -1.4046  0.4033 -0.9928
11235SOL    HW234562   2.555   7.592   0.816 -0.8827  1.1614  0.2969
11236SOL     OW34563   0.691   5.251   1.520 -0.4034 -0.0592 -0.3034
11236SOL    HW134564   0.786   5.245   1.528 -0.2563 -0.3200 -1.9775
11236SOL    HW234565   0.661   5.269   1.609  1.2260  0.3148  0.2019
11237SOL     OW34566   5.251   1.932   0.136 -0.2893 -0.3018  0.4766
11237SOL    HW134567   5.345   1.942   0.148 -0.2969 -0.5346  0.7494
11237SOL    HW234568   5.236   1.949   0.043 -0.2783  2.1293  0.8430
11238SOL     OW34569   2.050   2.264   4.302 -0.0181 -0.7642 -0.3774
11238SOL    HW134570   2.020   2.335   4.359  2.3636  0.9340 -1.0642
11238SOL    HW234571   2.103   2.308   4.235  1.4517 -3.1728 -0.9148
11239SOL     OW34572   3.960   6.378   0.601 -0.6486  0.3437  0.1896
11239SOL    HW134573   3.966   6.351   0.509 -0.9442 -0.5018  0.4048
11239SOL    HW234574   3.912   6.460   0.600 -0.2159  0.5932 -0.4558
11240SOL     OW34575   4.719   5.571   1.310  0.3708 -0.9783 -0.0561
11240SOL    HW134576   4.694   5.567   1.402  2.1813  0.5716  0.5727
11240SOL    HW234577   4.751   5.660   1.298  0.7829 -1.3467 -2.0361
11241SOL     OW34578   3.343   5.914   1.365 -0.1217  0.4006  0.2460
11241SOL    HW134579   3.280   5.850   1.397  0.3571  0.3115  1.0473
11241SOL    HW234580   3.320   5.927   1.273 -0.4985 -0.5799  0.1921
11242SOL     OW34581   3.774   4.962   2.051  0.0006  0.2871 -0.3763
11242SOL    HW134582   3.805   4.878   2.018  0.3193  0.6388 -0.9794
11242SOL    HW234583   3.682   4.946   2.074  0.0409 -0.2051 -0.5460
11243SOL     OW34584   0.602   4.942   0.395 -0.1978 -0.4428 -0.1550
11243SOL    HW134585   0.612   5.014   0.332  2.8943 -0.8853 -0.3351
11243SOL    HW234586   0.553   4.980   0.468 -2.0278  0.6825 -1.8909
11244SOL     OW34587   7.722   4.293   5.446  0.3478  0.3746  0.5182
11244SOL    HW134588   7.745   4.335   5.528  0.4449  1.1568  0.1005
11244SOL    HW234589   7.805   4.280   5.401  0.6275 -2.5946  1.6884
11245SOL     OW34590   2.494   3.859   2.889 -0.0017  0.1301  0.2783
11245SOL    HW134591   2.503   3.780   2.836  0.6806  1.2716 -1.4046
11245SOL    HW234592   2.401   3.880   2.887  0.0849  0.4881 -1.0389
11246SOL     OW34593   5.052   7.939   0.901 -0.2735  0.2533 -0.0835
11246SOL    HW134594   5.116   7.992   0.853 -0.0123  0.3712  0.3888
11246SOL    HW234595   5.105   7.882   0.957 -0.5846  0.7324  0.7150
11247SOL     OW34596   7.141   4.577   4.835 -0.3896  0.0879  0.0234
11247SOL    HW134597   7.110   4.661   4.802  1.1650  1.0255  0.9099
11247SOL    HW234598   7.163   4.527   4.756  0.4182  1.1931 -0.4625
11248SOL     OW34599   3.058   0.351   6.707 -0.2300  0.4167 -0.1855
11248SOL    HW134600   2.966   0.363   6.687 -0.3631 -0.4610 -0.1403
11248SOL    HW234601   3.068   0.385   6.796 -0.9695 -1.3560  0.6292
11249SOL     OW34602   1.442   3.905   6.402  0.2852 -0.0211  0.1128
11249SOL    HW134603   1.449   3.884   6.309 -1.1114 -0.9828  0.1984
11249SOL    HW234604   1.530   3.888   6.436  1.4794  2.5608 -1.3939
11250SOL     OW34605   6.369   6.179   1.582  0.8268 -0.0568 -0.3441
11250SOL    HW134606   6.349   6.103   1.528 -0.0662  0.2043 -0.3989
11250SOL    HW234607   6.310   6.248   1.549  0.4439  0.1777  0.7780
11251SOL     OW34608   6.094   2.746   3.808 -0.8126 -0.5236  0.3688
11251SOL    HW134609   6.188   2.749   3.829 -1.1415 -1.2508  2.1410
11251SOL    HW234610   6.090   2.759   3.714  1.0720 -0.4304  0.2632
11252SOL     OW34611   6.485   2.501   1.445 -0.1555  0.0787 -0.5187
11252SOL    HW134612   6.475   2.553   1.365  1.8659 -0.5903 -1.2783
11252SOL    HW234613   6.578   2.507   1.466 -0.8683  1.5576  2.7588
11253SOL     OW34614   5.168   4.974   3.803  0.2133 -1.1824 -0.3772
11253SOL    HW134615   5.189   4.937   3.889  2.8440 -3.1309 -1.7152
11253SOL    HW234616   5.128   4.902   3.755 -1.1658 -0.1321 -0.8902
11254SOL     OW34617   4.819   1.150   7.582 -0.1022 -0.4260  0.0165
11254SOL    HW134618   4.739   1.123   7.538  0.0944  1.2749 -1.4991
11254SOL    HW234619   4.789   1.197   7.659 -0.5536 -0.1372 -0.3344
11255SOL     OW34620   2.502   3.297   0.342 -0.0541  0.1990 -0.2841
11255SOL    HW134621   2.479   3.385   0.371 -2.7395  0.9195 -3.7837
11255SOL    HW234622   2.552   3.310   0.262 -1.0547 -1.3498 -1.2415
11256SOL     OW34623   7.667   5.359   3.782 -0.2480 -0.3229  0.0626
11256SOL    HW134624   7.693   5.280   3.828 -0.9186  0.4168  1.8055
11256SOL    HW234625   7.749   5.400   3.756  0.1491 -0.7093  0.6976
11257SOL     OW34626   2.640   3.915   1.789 -0.3661  0.5270 -0.3168
11257SOL    HW134627   2.689   3.998   1.795 -1.5266  1.1595  3.3105
11257SOL    HW234628   2.548   3.941   1.784 -0.7193 -0.5015  0.3460
11258SOL     OW34629   1.624   0.922   2.950 -0.1296 -0.4285 -0.9108
11258SOL    HW134630   1.622   1.005   2.903 -0.0748 -0.2961 -0.6830
11258SOL    HW234631   1.582   0.941   3.034  2.9240  0.3105  0.6005
11259SOL     OW34632   4.855   1.431   3.231 -0.1052  0.0323 -0.1219
11259SOL    HW134633   4.843   1.511   3.178 -0.2898  0.7560  0.9759
11259SOL    HW234634   4.809   1.450   3.312  0.9972 -0.6779  0.6871
11260SOL     OW34635   3.695   0.025   4.536 -0.0459 -0.2332 -0.1298
11260SOL    HW134636   3.666   0.115   4.526  0.2732  0.0686  1.4939
11260SOL    HW234637   3.722  -0.001   4.447 -0.9642  0.9519 -0.7826
11261SOL     OW34638   0.944   7.269   5.488 -0.1555 -0.3018 -0.3224
11261SOL    HW134639   0.925   7.175   5.478  2.4777 -0.6942 -2.6813
11261SOL    HW234640   0.995   7.275   5.569 -0.4737 -0.8678 -0.0752
11262SOL     OW34641   6.480   2.408   3.591  0.2660 -0.4834  0.2042
11262SOL    HW134642   6.514   2.325   3.623 -0.0784 -0.3191  1.0220
11262SOL    HW234643   6.405   2.427   3.647 -0.1491 -0.0161 -0.4921
11263SOL     OW34644   0.102   6.988   7.148  0.1550  0.3268 -0.3627
11263SOL    HW134645   0.176   6.976   7.089  1.1948  0.1267  0.9163
11263SOL    HW234646   0.136   6.961   7.234 -1.4141  0.2134  0.2571
11264SOL     OW34647   5.036   6.478   7.028  0.0189  0.2769 -0.5388
11264SOL    HW134648   5.029   6.572   7.046  0.4324  0.0590  0.9122
11264SOL    HW234649   5.113   6.450   7.078  0.6849 -0.6062 -2.0060
11265SOL     OW34650   2.283   4.036   3.512 -0.5915  0.1908 -0.0401
11265SOL    HW134651   2.191   4.058   3.525 -0.3324  1.2982  0.0637
11265SOL    HW234652   2.283   3.978   3.436 -1.4078 -0.1845  0.2316
11266SOL     OW34653   0.201   3.863   7.789  0.7468  0.2416  0.4756
11266SOL    HW134654   0.113   3.900   7.790 -0.2794 -1.9486 -0.5866
11266SOL    HW234655   0.190   3.774   7.822  2.1934 -0.7376 -1.4556
11267SOL     OW34656   7.953   4.673   7.420 -0.2245  0.2801 -0.0931
11267SOL    HW134657   7.966   4.625   7.339  2.5434  0.3485  0.2274
11267SOL    HW234658   7.890   4.742   7.397  0.0836 -0.0385 -2.0222
11268SOL     OW34659   5.070   5.321   5.650 -0.2336 -0.7227 -0.1342
11268SOL    HW134660   5.010   5.246   5.652  0.1176 -0.9927  0.7570
11268SOL    HW234661   5.156   5.283   5.671 -0.3216  0.1612  2.0831
11269SOL     OW34662   1.923   1.809   6.314  0.0340 -0.3214 -0.3160
11269SOL    HW134663   1.986   1.844   6.252  0.4055  0.7838  0.6326
11269SOL    HW234664   1.839   1.812   6.268  0.3092  0.4368 -0.7804
11270SOL     OW34665   4.133   7.292   2.892 -0.3771 -0.1169  0.0999
11270SOL    HW134666   4.051   7.261   2.855 -0.3341  0.5122 -0.5484
11270SOL    HW234667   4.192   7.217   2.887 -0.5238 -0.1928 -0.6576
11271SOL     OW34668   6.218   5.587   4.901 -0.4860  0.0753 -0.0553
11271SOL    HW134669   6.203   5.530   4.977 -0.9454  0.2821  0.0145
11271SOL    HW234670   6.313   5.591   4.893 -0.3688  1.2228  1.4200
11272SOL     OW34671   1.394   1.856   1.786 -0.0861 -0.2683 -0.6925
11272SOL    HW134672   1.464   1.793   1.772 -0.1140 -0.4628  0.0305
11272SOL    HW234673   1.351   1.828   1.867  0.5544  1.2615  0.2399
11273SOL     OW34674   1.313   6.054   1.054 -1.1951 -0.2870  0.1829
11273SOL    HW134675   1.390   6.095   1.017 -1.0009 -0.8387 -0.0356
11273SOL    HW234676   1.243   6.073   0.992 -1.3475  0.6158  0.6168
11274SOL     OW34677   3.510   6.420   1.100 -0.2885 -0.4068 -0.0084
11274SOL    HW134678   3.582   6.410   1.037  0.4393 -1.3607  0.9485
11274SOL    HW234679   3.437   6.371   1.061 -0.2932  0.1889 -0.7688
11275SOL     OW34680   2.635   3.889   5.507  0.5387 -0.1029 -0.2046
11275SOL    HW134681   2.716   3.841   5.488  0.7956  0.7067 -1.2619
11275SOL    HW234682   2.637   3.902   5.602 -0.7498 -4.2443  0.5981
11276SOL     OW34683   1.862   4.691   1.604  0.0585 -0.5172  0.0015
11276SOL    HW134684   1.908   4.610   1.580  2.3705  0.0751  2.1496
11276SOL    HW234685   1.816   4.669   1.685  0.7075  0.3013  0.6006
11277SOL     OW34686   3.988   4.141   7.738  0.7522  0.0711 -0.4806
11277SOL    HW134687   3.916   4.079   7.752 -0.6678  1.5243 -0.9182
11277SOL    HW234688   3.986   4.197   7.816  2.5442 -0.8719  0.2943
11278SOL     OW34689   2.059   3.918   4.251  0.0831 -0.4439 -0.2470
11278SOL    HW134690   1.972   3.897   4.286 -0.4428 -0.6208 -1.5747
11278SOL    HW234691   2.053   3.895   4.158  0.3490  2.9382 -1.2437
11279SOL     OW34692   5.328   7.866   6.601  0.1658  0.4353  0.3841
11279SOL    HW134693   5.354   7.802   6.534  1.5616 -0.3058  1.5697
11279SOL    HW234694   5.261   7.820   6.652  2.2156 -0.7712  2.1628
11280SOL     OW34695   3.450   7.394   0.966  0.4028  0.8078  0.0362
11280SOL    HW134696   3.397   7.473   0.954  1.3667  1.4043 -0.4686
11280SOL    HW234697   3.417   7.354   1.046 -1.4283  0.6495 -0.7523
11281SOL     OW34698   4.821   3.527   1.871  0.2708  0.1103  0.2874
11281SOL    HW134699   4.861   3.520   1.784  0.5155 -1.7760  0.5102
11281SOL    HW234700   4.728   3.510   1.857  0.3084 -0.1816  0.3977
11282SOL     OW34701   4.948   3.902   2.719  0.0028  0.1004  0.2264
11282SOL    HW134702   4.916   3.933   2.804 -1.8076 -0.7744 -0.0838
11282SOL    HW234703   4.896   3.823   2.702  2.6600 -1.6880 -0.1598
11283SOL     OW34704   5.031   5.226   0.502  0.0956 -0.2451 -0.6867
11283SOL    HW134705   4.948   5.206   0.546 -0.3819 -0.2668 -1.5869
11283SOL    HW234706   5.019   5.197   0.412  1.2754 -0.7400 -0.7076
11284SOL     OW34707   6.805   6.440   4.344 -0.1950 -0.1745  0.0343
11284SOL    HW134708   6.802   6.348   4.317  1.5689 -0.1049 -0.4736
11284SOL    HW234709   6.770   6.440   4.433 -2.2565 -0.9945 -0.6963
11285SOL     OW34710   7.400   2.039   4.143 -0.0884  0.2243  0.3677
11285SOL    HW134711   7.484   2.068   4.177 -0.6984  1.2651  1.0672
11285SOL    HW234712   7.342   2.040   4.220 -1.0476  0.8319 -0.3357
11286SOL     OW34713   5.717   7.375   4.622 -0.2154 -0.0619  0.7904
11286SOL    HW134714   5.724   7.380   4.718  0.2367 -2.0179  0.9039
11286SOL    HW234715   5.664   7.297   4.606 -0.8918  0.6511 -0.5614
11287SOL     OW34716   1.462   1.698   0.984 -0.5455 -0.0960  0.0411
11287SOL    HW134717   1.555   1.679   1.001  0.0411  1.5516 -1.0462
11287SOL    HW234718   1.431   1.739   1.064  0.0411  0.5383 -0.0450
11288SOL     OW34719   2.752   5.395   4.445  0.4322 -0.4923  0.1261
11288SOL    HW134720   2.680   5.332   4.446 -0.7501  0.7803 -0.1115
11288SOL    HW234721   2.821   5.354   4.497 -0.8061 -1.4082  1.1250
11289SOL     OW34722   5.071   2.509   3.268  0.3998  0.1045  0.2313
11289SOL    HW134723   5.096   2.576   3.332  0.6177  1.2585 -0.9918
11289SOL    HW234724   5.129   2.526   3.193 -3.4153  2.5496 -2.5425
11290SOL     OW34725   1.677   7.227   4.007 -0.2467  0.1999  0.2309
11290SOL    HW134726   1.648   7.189   4.090 -2.6045 -0.8770 -0.9878
11290SOL    HW234727   1.609   7.290   3.984  0.3450  0.4525 -0.9082
11291SOL     OW34728   1.773   3.831   1.488 -0.8935 -0.1622  0.3794
11291SOL    HW134729   1.802   3.867   1.404  0.9409  0.4452  1.2231
11291SOL    HW234730   1.687   3.870   1.502  0.0125  2.0981  0.1307
11292SOL     OW34731   5.485   7.604   0.092 -0.0266 -0.3182 -0.0840
11292SOL    HW134732   5.554   7.671   0.091 -1.6596  1.4676 -0.7036
11292SOL    HW234733   5.477   7.580   0.185  0.2029  0.8180  0.2503
11293SOL     OW34734   1.359   1.438   0.951  0.2737 -0.3159  0.4496
11293SOL    HW134735   1.454   1.428   0.943  0.5363  1.9222  0.2868
11293SOL    HW234736   1.345   1.532   0.960 -1.8422 -0.7001  1.8716
11294SOL     OW34737   4.160   6.667   6.900 -0.4903 -0.2912 -0.4075
11294SOL    HW134738   4.077   6.620   6.891 -1.1805  1.1811 -3.1226
11294SOL    HW234739   4.134   6.757   6.916  0.6086  0.0785 -0.6623
11295SOL     OW34740   5.104   1.278   2.142 -0.5683  0.0988 -0.4760
11295SOL    HW134741   5.042   1.349   2.157 -0.1493  0.2542  0.6172
11295SOL    HW234742   5.067   1.204   2.190  0.2247  0.2812  0.4473
11296SOL     OW34743   5.566   4.430   3.934 -0.0225  0.7941 -0.2204
11296SOL    HW134744   5.578   4.365   3.865 -0.1068  0.8053 -0.2451
11296SOL    HW234745   5.648   4.480   3.934  0.2665  0.3300  0.1710
11297SOL     OW34746   1.128   1.171   1.784  0.0812 -0.7529 -0.0359
11297SOL    HW134747   1.064   1.238   1.760 -0.7591 -1.3444  0.4968
11297SOL    HW234748   1.106   1.097   1.727  1.1885 -0.4962 -0.8248
11298SOL     OW34749   1.354   3.311   6.558  0.1622 -0.5262 -0.2625
11298SOL    HW134750   1.338   3.319   6.652  0.6386 -0.1045 -0.2145
11298SOL    HW234751   1.328   3.221   6.537 -0.0749 -0.5784  0.2458
11299SOL     OW34752   1.224   6.773   6.786  0.2764  0.2971 -0.8670
11299SOL    HW134753   1.280   6.779   6.709 -0.2980 -0.3232 -1.3459
11299SOL    HW234754   1.263   6.834   6.849  0.9144  0.6005 -1.5405
11300SOL     OW34755   4.880   6.131   5.169  0.1899  0.4509 -0.3943
11300SOL    HW134756   4.802   6.176   5.203  0.9180  0.1474  1.8441
11300SOL    HW234757   4.862   6.038   5.183  0.4424  0.3006 -1.0399
11301SOL     OW34758   0.425   0.142   3.948 -0.3091  0.8556  0.1874
11301SOL    HW134759   0.369   0.064   3.955  2.0523 -0.9480  0.2973
11301SOL    HW234760   0.390   0.190   3.873 -1.2731 -0.8261 -0.4946
11302SOL     OW34761   3.890   1.008   3.079 -0.1877  0.2591  0.1707
11302SOL    HW134762   3.950   0.968   3.015 -0.9767  0.3406 -0.6435
11302SOL    HW234763   3.886   0.945   3.151 -0.2273 -0.4274 -0.4111
11303SOL     OW34764   6.516   2.308   0.500 -0.2137  0.0853 -0.2880
11303SOL    HW134765   6.456   2.291   0.428  0.5375 -0.0587 -0.8969
11303SOL    HW234766   6.565   2.226   0.511  2.0162  1.0970 -1.8863
11304SOL     OW34767   2.119   6.102   1.567 -0.1480  0.3207 -0.7528
11304SOL    HW134768   2.177   6.175   1.547  2.1615 -0.5264  2.0839
11304SOL    HW234769   2.165   6.025   1.534  0.0708 -0.2902  0.8811
11305SOL     OW34770   0.350   0.997   4.221  0.1949 -0.5049 -0.0991
11305SOL    HW134771   0.387   1.056   4.286 -0.7820 -2.2229  2.1390
11305SOL    HW234772   0.294   1.054   4.167 -0.0212  0.7926  1.4080
11306SOL     OW34773   3.597   5.688   1.248 -0.8036  0.4118  0.0524
11306SOL    HW134774   3.586   5.692   1.153  2.4276  0.5292 -0.4530
11306SOL    HW234775   3.519   5.642   1.280 -2.2236  0.8290 -2.5597
11307SOL     OW34776   7.698   5.141   3.960  0.2622 -0.3082 -0.0631
11307SOL    HW134777   7.683   5.079   4.031  1.1308  2.2799  2.5968
11307SOL    HW234778   7.720   5.223   4.005  1.8121  1.2541 -3.3751
11308SOL     OW34779   6.793   6.629   4.652 -0.5301 -0.0522  0.1597
11308SOL    HW134780   6.720   6.654   4.709 -1.5475  1.2510 -1.6013
11308SOL    HW234781   6.762   6.551   4.606  0.1776 -0.9359  1.1512
11309SOL     OW34782   1.451   2.472   5.838  0.0762 -0.2801  0.0051
11309SOL    HW134783   1.526   2.476   5.779 -0.4211  1.1386 -0.5943
11309SOL    HW234784   1.467   2.542   5.901 -1.1633  0.7005 -0.7087
11310SOL     OW34785   2.171   0.046   0.281 -0.1751 -0.2185  0.0839
11310SOL    HW134786   2.197   0.135   0.304  0.7301 -0.3843 -0.2859
11310SOL    HW234787   2.113   0.018   0.352 -1.6468  1.1819 -0.4962
11311SOL     OW34788   5.830   1.093   2.077  0.2533 -0.3632 -0.3922
11311SOL    HW134789   5.754   1.130   2.032  0.2901  0.1230 -0.0562
11311SOL    HW234790   5.888   1.064   2.006 -0.2881 -0.8268 -0.6467
11312SOL     OW34791   7.448   2.211   1.417 -0.6493 -0.2286  0.2453
11312SOL    HW134792   7.359   2.244   1.416 -0.6517 -0.2395 -0.3566
11312SOL    HW234793   7.438   2.116   1.413 -0.6034 -0.2075 -0.4397
11313SOL     OW34794   0.016   4.291   6.603 -0.0601 -0.4248  0.2883
11313SOL    HW134795   0.048   4.323   6.519  0.8590  1.0877  1.1398
11313SOL    HW234796   0.095   4.280   6.656 -0.6990  0.3297  1.4678
11314SOL     OW34797   1.875   5.993   3.471  0.4975 -0.0966  0.3366
11314SOL    HW134798   1.919   5.972   3.389  1.0002  2.9556 -0.2874
11314SOL    HW234799   1.939   6.045   3.520 -0.4875 -0.2333  1.8439
11315SOL     OW34800   6.497   1.845   3.970  0.0728 -0.5480  0.1062
11315SOL    HW134801   6.455   1.777   4.023 -0.3707 -1.1115 -0.9241
11315SOL    HW234802   6.462   1.927   4.005 -0.5608 -0.9272  0.3943
11316SOL     OW34803   2.216   6.050   7.649 -0.3137  0.5402 -0.2838
11316SOL    HW134804   2.133   6.017   7.615 -0.9141  1.8221 -0.1311
11316SOL    HW234805   2.223   6.139   7.613  1.2854  0.2469 -0.7782
11317SOL     OW34806   6.240   0.592   0.058 -0.0401 -0.2569 -0.1372
11317SOL    HW134807   6.242   0.496   0.054 -0.8570 -0.2866  0.0387
11317SOL    HW234808   6.310   0.614   0.119 -0.4813 -0.8009  0.5861
11318SOL     OW34809   0.907   6.288   5.633 -0.4452  0.3116  0.4208
11318SOL    HW134810   0.979   6.294   5.696  1.8380 -1.1629 -1.8391
11318SOL    HW234811   0.879   6.379   5.619  1.5514  1.0265  0.7666
11319SOL     OW34812   0.342   5.962   3.475 -0.3425 -0.1967 -0.0318
11319SOL    HW134813   0.414   6.025   3.472  0.8351 -1.4574  0.6014
11319SOL    HW234814   0.378   5.887   3.522 -1.9553 -1.0366 -0.0663
11320SOL     OW34815   3.369   6.302   1.872 -0.8007 -0.3990  0.1000
11320SOL    HW134816   3.450   6.285   1.824 -1.6053 -1.0694 -1.0748
11320SOL    HW234817   3.392   6.373   1.933  0.4068  0.1148 -0.8993
11321SOL     OW34818   1.369   3.074   2.299  0.0940 -0.4258  0.3157
11321SOL    HW134819   1.313   3.152   2.299 -0.3844 -0.7600 -0.6213
11321SOL    HW234820   1.311   3.003   2.326  0.5611 -0.4548  1.2880
11322SOL     OW34821   4.679   3.531   6.143 -0.0031  0.8108  0.1904
11322SOL    HW134822   4.751   3.556   6.085  0.0914 -0.1960 -0.1571
11322SOL    HW234823   4.602   3.569   6.103  0.1591  0.7166 -0.2198
11323SOL     OW34824   6.745   0.003   0.956 -0.1852  0.2029 -0.2348
11323SOL    HW134825   6.823  -0.009   1.010 -0.3383 -4.4446 -0.6755
11323SOL    HW234826   6.763  -0.045   0.876 -3.3798 -0.9285 -0.4320
11324SOL     OW34827   5.295   0.389   5.781  0.4557 -0.1321  0.1241
11324SOL    HW134828   5.389   0.370   5.786  1.3007  3.2658 -0.4862
11324SOL    HW234829   5.287   0.479   5.813 -2.7896 -0.6669  1.1664
11325SOL     OW34830   7.859   6.609   4.920 -0.3431 -0.2055 -0.2907
11325SOL    HW134831   7.795   6.667   4.880 -0.3888  0.3365  0.5363
11325SOL    HW234832   7.942   6.655   4.911 -0.0578 -0.8996 -1.3488
11326SOL     OW34833   4.025   3.873   1.701 -0.0390  0.4484  0.4601
11326SOL    HW134834   4.030   3.965   1.677 -1.3743  0.0023 -1.8094
11326SOL    HW234835   4.110   3.836   1.675  1.3026  1.3191  3.2064
11327SOL     OW34836   0.175   6.484   3.510 -0.3118 -0.1360 -0.3691
11327SOL    HW134837   0.166   6.511   3.602 -0.1620 -0.3432 -0.2917
11327SOL    HW234838   0.225   6.402   3.514  0.6203  0.4061 -0.7117
11328SOL     OW34839   2.350   4.222   1.039 -0.4396 -0.2250  0.0567
11328SOL    HW134840   2.387   4.304   1.072  0.8442 -0.3127 -1.0620
11328SOL    HW234841   2.357   4.161   1.112 -1.3373  0.6068  0.8791
11329SOL     OW34842   1.346   7.330   2.065  0.2785 -0.6122  0.1103
11329SOL    HW134843   1.300   7.322   1.982 -2.4578  0.0844  1.4335
11329SOL    HW234844   1.361   7.424   2.076  0.0797 -0.6425  0.6740
11330SOL     OW34845   5.924   3.647   6.742  0.1319  0.8021 -0.3050
11330SOL    HW134846   5.914   3.556   6.772  1.4184  1.7808  3.7156
11330SOL    HW234847   5.836   3.672   6.713 -1.0894 -0.7652  1.7267
11331SOL     OW34848   3.696   7.569   7.188 -0.1074 -0.1332 -0.0673
11331SOL    HW134849   3.652   7.488   7.161  1.1794 -1.0612  0.5428
11331SOL    HW234850   3.662   7.587   7.276 -1.5294  0.8761 -0.7611
11332SOL     OW34851   0.741   1.105   3.589 -0.4293 -0.0729 -0.0571
11332SOL    HW134852   0.745   1.144   3.676 -1.6901 -0.0769  0.0240
11332SOL    HW234853   0.666   1.148   3.548  1.1559  1.2141 -1.7816
11333SOL     OW34854   1.329   5.425   5.718 -0.2379 -0.1793  0.4074
11333SOL    HW134855   1.270   5.424   5.643 -1.9379 -0.8153  1.6660
11333SOL    HW234856   1.377   5.507   5.711 -1.4912  0.5070 -0.5455
11334SOL     OW34857   0.615   6.385   1.978  0.1067  0.2279 -0.3454
11334SOL    HW134858   0.569   6.398   2.061  2.5517 -1.3382  1.4059
11334SOL    HW234859   0.637   6.473   1.949 -0.3656  0.7975  0.9330
11335SOL     OW34860   7.467   2.034   0.394 -0.2940  0.1557 -0.3479
11335SOL    HW134861   7.383   2.001   0.360 -1.0739  2.0357 -0.3602
11335SOL    HW234862   7.527   1.960   0.386 -1.9476 -1.2462 -0.3434
11336SOL     OW34863   5.643   3.312   4.962  0.1374  0.3429  0.3752
11336SOL    HW134864   5.694   3.312   4.880  1.3457 -0.0768  1.0956
11336SOL    HW234865   5.568   3.368   4.943  0.5469  0.4971 -0.9318
11337SOL     OW34866   0.535   5.139   7.317  0.1919 -0.4562 -0.1235
11337SOL    HW134867   0.540   5.055   7.361 -0.4315 -0.1636  0.5350
11337SOL    HW234868   0.466   5.187   7.364 -0.6355 -0.1993 -1.5400
11338SOL     OW34869   5.576   7.893   7.465 -0.4286  0.1027  0.1606
11338SOL    HW134870   5.601   7.839   7.540  2.8271 -0.1696 -0.9779
11338SOL    HW234871   5.640   7.964   7.464 -1.8825  1.4857 -1.0054
11339SOL     OW34872   6.257   1.075   6.743  0.0447 -0.7618 -0.3431
11339SOL    HW134873   6.317   1.107   6.811 -0.8103 -0.2442  0.1871
11339SOL    HW234874   6.256   0.980   6.754 -0.5971 -0.6298  0.8121
11340SOL     OW34875   2.825   0.715   1.614 -0.7918 -0.1070 -0.2857
11340SOL    HW134876   2.797   0.796   1.656  0.6676 -0.0154  0.5724
11340SOL    HW234877   2.743   0.671   1.590 -1.6096  1.9109 -1.4030
11341SOL     OW34878   1.467   0.817   1.063  0.1150 -0.1997  0.3481
11341SOL    HW134879   1.476   0.756   0.990 -1.2498 -0.5191  0.4155
11341SOL    HW234880   1.377   0.805   1.093 -0.0854  1.5828  0.5995
11342SOL     OW34881   0.530   1.160   7.588 -0.0236  0.3869 -0.5208
11342SOL    HW134882   0.594   1.106   7.634 -0.4532  0.6365  0.4012
11342SOL    HW234883   0.506   1.228   7.652 -0.8700  0.5612 -1.0090
11343SOL     OW34884   0.852   3.263   1.964 -0.0309  0.4291 -0.2315
11343SOL    HW134885   0.859   3.353   1.931  0.6287  0.0921 -1.0661
11343SOL    HW234886   0.757   3.248   1.971 -0.2255  2.2550  3.0835
11344SOL     OW34887   4.572   6.365   6.129  0.1563  0.5184 -0.1096
11344SOL    HW134888   4.549   6.416   6.207 -0.9540 -1.1945  0.7406
11344SOL    HW234889   4.606   6.283   6.163  0.1789 -0.0554 -1.4433
11345SOL     OW34890   7.249   4.315   3.492  0.3788 -0.3173 -0.3121
11345SOL    HW134891   7.216   4.234   3.531  1.4798 -2.7644 -3.9530
11345SOL    HW234892   7.176   4.349   3.440 -0.3202  1.6011  1.7604
11346SOL     OW34893   4.582   0.742   1.413 -0.3653 -0.2458 -0.6211
11346SOL    HW134894   4.612   0.767   1.325  0.8232 -1.6176 -0.6482
11346SOL    HW234895   4.581   0.824   1.462  0.1308  0.3613 -1.5838
11347SOL     OW34896   0.172   5.435   3.599 -0.4662  0.1626  0.0761
11347SOL    HW134897   0.181   5.345   3.569 -1.7898  0.1869 -0.4508
11347SOL    HW234898   0.211   5.487   3.529 -1.8322  0.1076 -0.7668
11348SOL     OW34899   0.524   2.996   0.897  0.0756  0.5485 -0.4751
11348SOL    HW134900   0.562   3.058   0.960 -0.3054  0.3345 -0.0316
11348SOL    HW234901   0.596   2.937   0.875  0.0858  0.3224  0.1405
11349SOL     OW34902   5.729   3.485   7.689  0.3773 -0.1996 -0.1317
11349SOL    HW134903   5.754   3.397   7.717 -0.9014  0.0967  2.3271
11349SOL    HW234904   5.648   3.472   7.639  2.1622 -0.6508 -3.1498
11350SOL     OW34905   0.602   0.519   4.502  0.3769 -0.7202  0.0518
11350SOL    HW134906   0.593   0.492   4.410  0.4589 -2.1112  0.4270
11350SOL    HW234907   0.657   0.597   4.498 -0.3020 -0.2719 -1.1437
11351SOL     OW34908   0.715   4.382   1.367 -0.7809 -0.2085 -0.4516
11351SOL    HW134909   0.794   4.370   1.421 -0.0295  1.5265 -1.0961
11351SOL    HW234910   0.748   4.401   1.280 -1.9773 -1.6415 -1.2611
11352SOL     OW34911   5.405   3.524   5.530  0.3103  0.6964 -0.4786
11352SOL    HW134912   5.447   3.448   5.489 -2.1208 -0.0813 -1.7440
11352SOL    HW234913   5.325   3.537   5.479 -1.3016  1.6862  2.1132
11353SOL     OW34914   2.148   0.889   5.871  0.1689 -0.4220 -0.0529
11353SOL    HW134915   2.061   0.872   5.835 -0.6599  0.2568  1.5300
11353SOL    HW234916   2.188   0.950   5.809 -0.2804 -1.1085 -1.0463
11354SOL     OW34917   6.653   2.460   4.850 -0.5209  0.3292  0.5425
11354SOL    HW134918   6.661   2.377   4.803  1.3428  1.2435 -0.9347
11354SOL    HW234919   6.678   2.440   4.940  1.2066 -0.5139 -0.0875
11355SOL     OW34920   7.778   6.513   4.576  0.1643  0.5567 -0.3833
11355SOL    HW134921   7.812   6.459   4.505  2.4116 -0.4193  1.3352
11355SOL    HW234922   7.686   6.527   4.554  0.5624 -0.4864 -2.9689
11356SOL     OW34923   3.753   7.997   3.504  0.5727 -0.5111 -0.7236
11356SOL    HW134924   3.812   7.933   3.543  0.5469  0.2680  0.6582
11356SOL    HW234925   3.800   8.030   3.428  0.9566 -1.5146 -0.9285
11357SOL     OW34926   6.686   1.865   5.426  0.0408 -0.3883 -0.1210
11357SOL    HW134927   6.637   1.838   5.348  0.1237  0.2837 -0.4046
11357SOL    HW234928   6.628   1.927   5.470  0.6065  0.3640 -0.4248
11358SOL     OW34929   5.142   5.791   2.270 -0.9371  0.1969 -0.0696
11358SOL    HW134930   5.095   5.847   2.333 -2.3717 -0.9053 -0.1057
11358SOL    HW234931   5.087   5.713   2.262 -0.0681 -0.2924 -1.6466
11359SOL     OW34932   2.924   6.432   2.610 -0.2400 -0.4408 -0.0710
11359SOL    HW134933   2.833   6.433   2.579 -0.3206 -0.3939  0.1670
11359SOL    HW234934   2.973   6.479   2.542 -0.4089 -0.3707 -0.1448
11360SOL     OW34935   3.199   4.603   5.544  0.1148  0.2027 -0.5388
11360SOL    HW134936   3.228   4.605   5.636 -2.1093  0.1808  0.2165
11360SOL    HW234937   3.182   4.510   5.527 -0.4396  0.3258 -0.6518
11361SOL     OW34938   7.525   5.880   2.782 -0.2325  0.4194  0.2182
11361SOL    HW134939   7.443   5.846   2.746  0.1501 -0.1736 -0.1251
11361SOL    HW234940   7.538   5.830   2.863  0.3245 -0.2783 -0.2796
11362SOL     OW34941   1.545   3.586   6.649  0.2247 -0.5127 -0.1588
11362SOL    HW134942   1.567   3.665   6.600 -1.0644  0.6842  1.1140
11362SOL    HW234943   1.452   3.594   6.668  0.4203 -1.5204  1.4302
11363SOL     OW34944   7.863   6.904   3.707 -0.4865 -0.6081  0.6166
11363SOL    HW134945   7.894   6.819   3.676 -1.1672 -0.7320  0.2519
11363SOL    HW234946   7.783   6.885   3.756 -1.6715 -0.0408 -0.9900
11364SOL     OW34947   7.721   4.029   4.641 -0.4212 -0.4859 -0.3287
11364SOL    HW134948   7.795   3.988   4.597  0.0983 -1.3734  1.3345
11364SOL    HW234949   7.757   4.108   4.681  0.2595 -2.1411  2.5315
11365SOL     OW34950   6.404   6.058   0.148 -0.0204  0.1940 -0.9075
11365SOL    HW134951   6.400   6.143   0.191  1.0004 -0.3889  0.4190
11365SOL    HW234952   6.313   6.030   0.142 -0.2323  0.4468  0.6295
11366SOL     OW34953   7.054   6.054   3.804 -0.0130 -0.5685  0.1495
11366SOL    HW134954   7.086   5.998   3.876  0.3210 -0.7960 -0.1718
11366SOL    HW234955   7.056   5.997   3.727 -2.8614 -1.1692  0.3976
11367SOL     OW34956   5.449   3.002   4.510 -0.3910 -0.3043  0.1559
11367SOL    HW134957   5.377   3.062   4.493 -1.2356 -1.4751 -0.5267
11367SOL    HW234958   5.520   3.058   4.542 -0.7877  1.1822 -1.4313
11368SOL     OW34959   0.771   0.188   5.711  0.2131 -0.0072 -0.5254
11368SOL    HW134960   0.839   0.159   5.771  0.4661 -0.0100 -0.8065
11368SOL    HW234961   0.815   0.249   5.652 -0.4864  1.5715  0.5339
11369SOL     OW34962   6.451   3.360   5.315 -0.3428 -0.0445 -0.1831
11369SOL    HW134963   6.429   3.357   5.222  2.0691  1.2038 -0.8715
11369SOL    HW234964   6.438   3.452   5.340  1.8932  0.3270 -0.1420
11370SOL     OW34965   4.963   5.840   5.450 -0.0214 -0.0907 -0.2183
11370SOL    HW134966   4.971   5.745   5.466 -1.5848 -0.1590  0.2924
11370SOL    HW234967   4.919   5.846   5.366  1.0073  0.2077 -0.7449
11371SOL     OW34968   6.411   7.938   5.233 -0.4759  0.2808  0.5311
11371SOL    HW134969   6.485   7.993   5.206  0.5262 -0.9865  0.6102
11371SOL    HW234970   6.397   7.960   5.325  2.4494 -2.2094  1.7440
11372SOL     OW34971   1.678   1.818   2.830 -0.2939 -0.3115  0.0594
11372SOL    HW134972   1.651   1.907   2.854 -0.2830  0.3023 -1.9921
11372SOL    HW234973   1.631   1.762   2.891 -0.4507  1.0839  1.2837
11373SOL     OW34974   2.964   4.262   7.607 -0.7194  0.4723  0.1396
11373SOL    HW134975   2.879   4.299   7.629 -0.4879  1.1014  0.0031
11373SOL    HW234976   2.949   4.167   7.604 -1.2343  0.5239  0.8584
11374SOL     OW34977   7.911   1.498   4.738  0.1123 -0.4978  0.3395
11374SOL    HW134978   7.998   1.494   4.698  0.9272 -1.3009  2.0623
11374SOL    HW234979   7.895   1.409   4.770 -1.8542 -0.6361 -0.8870
11375SOL     OW34980   3.665   5.021   6.998  0.0298  0.1273 -0.0057
11375SOL    HW134981   3.740   5.067   6.961 -0.5947  1.0039 -0.2076
11375SOL    HW234982   3.592   5.043   6.940 -0.6889  0.4448  0.9789
11376SOL     OW34983   1.712   2.522   1.332  0.2806  0.1452  0.3284
11376SOL    HW134984   1.799   2.517   1.371  0.9992  0.3941 -1.1687
11376SOL    HW234985   1.658   2.463   1.385  1.9458 -1.9725 -0.2130
11377SOL     OW34986   2.535   2.856   3.950 -0.1268  0.0483  0.0013
11377SOL    HW134987   2.534   2.790   4.019  0.7275 -0.7710 -0.7247
11377SOL    HW234988   2.613   2.909   3.968 -1.0821  1.2014  0.8637
11378SOL     OW34989   6.785   4.980   5.610 -0.4609 -0.1198  0.3249
11378SOL    HW134990   6.878   5.004   5.613  0.0546 -1.6804 -1.2663
11378SOL    HW234991   6.765   4.975   5.516 -2.3268  0.6850  0.6221
11379SOL     OW34992   1.159   2.944   7.020  0.0222 -0.3541 -0.3404
11379SOL    HW134993   1.197   2.944   7.107  0.2587  1.4217 -0.4088
11379SOL    HW234994   1.098   3.018   7.020 -1.8701 -1.8274 -0.9052
11380SOL     OW34995   6.493   1.833   5.244 -0.3661 -0.2891 -0.0426
11380SOL    HW134996   6.426   1.902   5.239  0.7129  0.7913 -0.2266
11380SOL    HW234997   6.461   1.764   5.186 -2.0239 -0.4578  0.9886
11381SOL     OW34998   2.474   4.156   7.423  0.0434 -0.2688 -0.1355
11381SOL    HW134999   2.496   4.081   7.477 -0.3343  0.5792  1.2569
11381SOL    HW235000   2.396   4.129   7.375 -0.1124 -0.7597  0.3796
11382SOL     OW35001   2.759   6.986   6.641  0.7172  0.0003  0.3228
11382SOL    HW135002   2.722   7.011   6.725 -0.7824  0.2761 -0.3942
11382SOL    HW235003   2.726   7.051   6.579  0.5527 -1.0519 -0.7465
11383SOL     OW35004   5.530   7.632   0.829 -0.0115  0.0157  0.2658
11383SOL    HW135005   5.624   7.646   0.838 -0.2491  1.2004  1.0792
11383SOL    HW235006   5.513   7.638   0.735  0.9643 -1.9723 -0.0830
11384SOL     OW35007   2.103   5.952   2.042 -0.2630  0.4169 -0.0828
11384SOL    HW135008   2.126   6.010   2.116  1.8017  0.1401 -0.4408
11384SOL    HW235009   2.037   6.001   1.993 -1.5505  0.6909  1.8231
11385SOL     OW35010   5.856   1.693   0.486  0.3924 -0.3039 -0.5717
11385SOL    HW135011   5.813   1.608   0.475 -1.7411  0.6880 -0.4041
11385SOL    HW235012   5.833   1.720   0.575  0.3163  0.8024 -0.9087
11386SOL     OW35013   6.056   7.797   4.935  0.3883 -0.0801  0.0206
11386SOL    HW135014   6.058   7.881   4.889  1.5111  0.2627  0.6534
11386SOL    HW235015   6.129   7.748   4.898  1.5768  0.3607  1.6755
11387SOL     OW35016   7.060   4.278   3.287  0.0136 -0.3671 -0.2349
11387SOL    HW135017   7.015   4.340   3.229  1.9802 -0.5748 -2.0959
11387SOL    HW235018   6.993   4.253   3.351 -1.5568  1.7458 -0.9196
11388SOL     OW35019   2.787   4.639   1.772  0.5792 -0.2066 -0.5278
11388SOL    HW135020   2.848   4.578   1.729  0.6363 -0.1923 -0.4673
11388SOL    HW235021   2.707   4.588   1.784  0.4693 -0.1285 -0.9022
11389SOL     OW35022   7.265   2.417   3.491  0.1539  0.0501 -0.6136
11389SOL    HW135023   7.276   2.404   3.585  0.2784 -1.5294 -0.8225
11389SOL    HW235024   7.345   2.461   3.463 -0.0862  0.9631  0.0782
11390SOL     OW35025   4.529   7.625   2.855 -0.0327  0.1680 -0.3322
11390SOL    HW135026   4.622   7.624   2.834 -0.0340  0.4631 -0.3553
11390SOL    HW235027   4.519   7.698   2.917 -0.0206 -0.7289  0.7589
11391SOL     OW35028   2.647   1.931   2.571  0.0995  0.4303  0.6407
11391SOL    HW135029   2.712   1.906   2.636 -0.6034  1.5629  1.8258
11391SOL    HW235030   2.580   1.863   2.576 -0.9486  1.5169  2.5974
11392SOL     OW35031   0.883   4.166   3.071 -0.2639 -0.1207  0.0547
11392SOL    HW135032   0.908   4.079   3.040  1.3256  0.4290 -0.2987
11392SOL    HW235033   0.843   4.208   2.995 -1.2210 -0.5955  0.2826
11393SOL     OW35034   1.741   2.220   1.376  0.1578  0.9810 -0.3365
11393SOL    HW135035   1.649   2.228   1.351  0.5249  0.2379 -2.0707
11393SOL    HW235036   1.785   2.194   1.296  1.7515  0.3867  0.6876
11394SOL     OW35037   7.483   2.644   2.547 -0.7258 -0.0010  0.2089
11394SOL    HW135038   7.487   2.736   2.520 -1.1533  0.5358  1.8776
11394SOL    HW235039   7.537   2.598   2.482  1.5291  1.7601  0.6893
11395SOL     OW35040   1.507   2.097   0.401  0.1883 -0.2255  0.1608
11395SOL    HW135041   1.549   2.102   0.315 -0.6953 -2.5435 -0.5064
11395SOL    HW235042   1.574   2.059   0.458 -0.0255 -1.1732 -0.1911
11396SOL     OW35043   6.029   4.232   7.284 -0.2548  0.2147 -0.5906
11396SOL    HW135044   5.998   4.172   7.217  0.3148  0.0140 -0.6742
11396SOL    HW235045   6.051   4.176   7.358  0.9485  0.2382 -0.9128
11397SOL     OW35046   1.637   6.970   3.531 -0.3999  0.3677  0.5008
11397SOL    HW135047   1.656   6.880   3.556 -1.1595  0.3697  1.1620
11397SOL    HW235048   1.552   6.966   3.487 -0.0387  0.6517 -0.2315
11398SOL     OW35049   3.809   3.026   3.199  0.1043  0.6355  0.0078
11398SOL    HW135050   3.748   3.086   3.157  0.8238  0.1123 -1.8459
11398SOL    HW235051   3.849   2.977   3.128  2.2095  0.4923  1.1813
11399SOL     OW35052   0.591   3.495   5.923  0.1334  0.1337 -0.4721
11399SOL    HW135053   0.558   3.408   5.945  1.2450  0.1406  1.4546
11399SOL    HW235054   0.667   3.478   5.868  0.5173 -0.1457  0.1322
11400SOL     OW35055   3.837   3.337   3.988 -0.2067 -0.4408 -0.5066
11400SOL    HW135056   3.925   3.373   3.978  0.5450 -2.3074 -0.9372
11400SOL    HW235057   3.825   3.328   4.082  0.3897 -0.9054 -0.4677
11401SOL     OW35058   2.150   4.917   1.655  0.0025  0.1266 -0.5291
11401SOL    HW135059   2.152   4.825   1.627  1.2873  0.1438 -0.5735
11401SOL    HW235060   2.184   4.915   1.744  0.0212  0.5528 -0.5267
11402SOL     OW35061   3.550   5.941   5.155  0.2817  0.1929 -0.1384
11402SOL    HW135062   3.627   5.901   5.113 -0.6769 -0.1780 -1.6273
11402SOL    HW235063   3.508   5.990   5.085  0.4769  2.4521  1.2485
11403SOL     OW35064   2.641   1.326   5.677  0.9175 -0.7464  0.0802
11403SOL    HW135065   2.695   1.251   5.652 -0.1007 -1.8716  1.0626
11403SOL    HW235066   2.656   1.336   5.771  1.5736  0.7595 -0.1567
11404SOL     OW35067   5.488   3.634   3.458  0.2718  0.4346  0.0731
11404SOL    HW135068   5.539   3.676   3.389  0.9515 -1.3998 -0.5936
11404SOL    HW235069   5.399   3.667   3.446  0.9451  2.5500  0.3368
11405SOL     OW35070   0.506   3.916   1.459  0.8530 -0.2029  0.4840
11405SOL    HW135071   0.535   3.828   1.483 -1.7988 -1.7876 -1.5613
11405SOL    HW235072   0.479   3.909   1.367 -1.9934  2.0227  0.9911
11406SOL     OW35073   1.123   4.936   2.985 -0.5568 -0.3342  0.1268
11406SOL    HW135074   1.053   4.946   2.920  0.1745  0.6203 -0.5358
11406SOL    HW235075   1.097   4.859   3.036 -1.7029 -0.4482 -0.5864
11407SOL     OW35076   6.008   3.996   5.818  0.4157 -0.1650 -0.1340
11407SOL    HW135077   5.928   3.961   5.857 -0.7725  0.2953 -2.0524
11407SOL    HW235078   5.989   4.089   5.803  1.4841  0.0551 -0.2197
11408SOL     OW35079   5.981   1.288   1.090  0.2381  0.4490 -0.0613
11408SOL    HW135080   5.987   1.193   1.087 -1.2210  0.3281 -2.4400
11408SOL    HW235081   6.027   1.314   1.170 -1.7694 -2.4352  2.2047
11409SOL     OW35082   4.437   4.188   2.629 -0.0695  0.0104 -0.0475
11409SOL    HW135083   4.365   4.250   2.616 -0.5426 -0.2507  1.1590
11409SOL    HW235084   4.516   4.242   2.625 -0.1452  0.0635 -3.0571
11410SOL     OW35085   1.980   0.220   5.377  0.3099  0.4202 -0.0758
11410SOL    HW135086   2.059   0.185   5.417 -0.0443 -0.7269 -0.3378
11410SOL    HW235087   2.005   0.240   5.287  0.5216  0.8893  0.0834
11411SOL     OW35088   7.206   6.023   2.767 -0.1295 -0.3836 -0.1458
11411SOL    HW135089   7.197   6.074   2.687 -1.4768 -1.7769 -0.9400
11411SOL    HW235090   7.260   5.948   2.742  0.5096 -0.1850  0.5962
11412SOL     OW35091   4.778   4.605   6.245  0.0889  0.7100 -0.5227
11412SOL    HW135092   4.808   4.687   6.285 -0.2034  1.4678 -1.8324
11412SOL    HW235093   4.845   4.584   6.180  0.1890 -0.1396 -0.1606
11413SOL     OW35094   0.012   4.937   1.519 -0.2132  0.7426 -0.6663
11413SOL    HW135095  -0.046   4.986   1.462  0.4525  2.0191 -0.2755
11413SOL    HW235096   0.100   4.959   1.490  0.1404 -1.3339 -1.3863
11414SOL     OW35097   0.715   5.407   1.272  0.1548  0.0384  0.0055
11414SOL    HW135098   0.736   5.328   1.221  0.7547  0.1888  0.0113
11414SOL    HW235099   0.633   5.386   1.317 -0.6774  0.0861 -1.4244
11415SOL     OW35100   1.957   0.290   1.164  0.5141  0.1708  0.0800
11415SOL    HW135101   2.026   0.226   1.180  1.2772  1.1732  0.9638
11415SOL    HW235102   1.936   0.325   1.251  0.6126  1.6159 -0.4440
11416SOL     OW35103   3.423   7.864   2.051  0.3412 -0.0714  0.5358
11416SOL    HW135104   3.363   7.804   2.095  0.0748  0.2797  0.6587
11416SOL    HW235105   3.488   7.807   2.010 -0.8422 -0.5189 -0.7700
11417SOL     OW35106   6.644   1.230   5.383  0.3130  0.6059 -0.0326
11417SOL    HW135107   6.609   1.147   5.414 -1.9166  1.0706 -1.1647
11417SOL    HW235108   6.581   1.296   5.412  1.6220  1.8527  0.1557
11418SOL     OW35109   1.400   4.300   2.420  0.0086 -0.0966 -0.3026
11418SOL    HW135110   1.371   4.244   2.348  0.3027 -1.2551  0.4711
11418SOL    HW235111   1.496   4.296   2.416  0.0245 -0.6277  0.5029
11419SOL     OW35112   3.246   3.522   7.150 -0.5421  0.4222  0.8899
11419SOL    HW135113   3.158   3.485   7.159 -0.0616 -0.7947  0.7068
11419SOL    HW235114   3.299   3.474   7.213  0.7848 -1.5162 -1.5333
11420SOL     OW35115   4.846   0.068   1.019 -0.2315 -0.1082  0.2124
11420SOL    HW135116   4.938   0.063   0.993  0.0803  2.0430  0.7129
11420SOL    HW235117   4.827  -0.019   1.054  2.4304  0.1181  2.5921
11421SOL     OW35118   3.706   0.155   2.019  0.1178  0.0005  0.2727
11421SOL    HW135119   3.667   0.221   2.076  0.6541  2.2963 -1.8602
11421SOL    HW235120   3.651   0.154   1.941  1.9166  0.3205 -1.0793
11422SOL     OW35121   5.885   0.073   2.523  0.1122  0.0152  0.3412
11422SOL    HW135122   5.924   0.115   2.599 -0.7067  1.4475 -0.0019
11422SOL    HW235123   5.958   0.026   2.481  1.0173  0.9561  0.8322
11423SOL     OW35124   3.475   4.275   7.461  0.0037 -0.2579  0.2231
11423SOL    HW135125   3.570   4.271   7.470 -0.0295 -2.0592  0.0393
11423SOL    HW235126   3.460   4.348   7.401  1.3003 -0.2631 -0.1318
11424SOL     OW35127   0.275   3.159   1.333  0.3720  0.5439  0.3257
11424SOL    HW135128   0.317   3.173   1.417 -0.3095 -0.3138  0.8343
11424SOL    HW235129   0.216   3.234   1.322 -0.6037 -0.0443  1.3179
11425SOL     OW35130   3.167   0.544   7.181 -0.0993  0.5581 -0.0514
11425SOL    HW135131   3.243   0.516   7.231  0.5504  0.0157 -1.3031
11425SOL    HW235132   3.125   0.611   7.236  0.4477 -0.1713  1.2873
11426SOL     OW35133   2.960   5.350   1.032  0.2096 -0.0488 -0.4867
11426SOL    HW135134   2.959   5.275   0.973  0.1409 -1.2284  0.9507
11426SOL    HW235135   2.876   5.345   1.078  0.4751  0.5347  0.0739
11427SOL     OW35136   7.983   2.313   0.422 -0.1342 -0.0919 -0.0119
11427SOL    HW135137   8.006   2.220   0.413 -0.9264 -0.1823 -1.4248
11427SOL    HW235138   8.038   2.357   0.358  0.8830  0.5714  1.2613
11428SOL     OW35139   4.405   1.782   6.132 -0.7833 -0.7208 -0.2594
11428SOL    HW135140   4.404   1.827   6.216 -0.2439 -0.4835 -0.3764
11428SOL    HW235141   4.338   1.714   6.140 -0.4796 -0.9472  0.4969
11429SOL     OW35142   5.190   3.806   2.761 -0.1184 -0.0035  0.6362
11429SOL    HW135143   5.244   3.873   2.718 -0.1339 -1.0623 -1.1448
11429SOL    HW235144   5.100   3.837   2.747 -0.0676  0.7080  1.7808
11430SOL     OW35145   4.326   4.255   5.030 -0.2893  0.2106 -0.2019
11430SOL    HW135146   4.291   4.318   5.092  0.8069  0.8038 -0.1745
11430SOL    HW235147   4.295   4.286   4.945  1.2928  1.5759 -0.3394
11431SOL     OW35148   2.122   0.816   0.276  0.2235 -0.2680  0.4940
11431SOL    HW135149   2.216   0.834   0.278 -0.0687  1.5517 -0.3950
11431SOL    HW235150   2.116   0.725   0.246  1.6952 -0.5150  0.8727
11432SOL     OW35151   6.581   7.973   7.497  0.4848 -0.6108 -0.2170
11432SOL    HW135152   6.548   7.951   7.584 -0.4703  2.7333  0.4220
11432SOL    HW235153   6.675   7.959   7.502  0.4101 -0.6742  1.2857
11433SOL     OW35154   7.298   1.016   3.326 -0.0335  0.3506 -0.8701
11433SOL    HW135155   7.315   0.989   3.416 -0.3098  1.3424 -0.5097
11433SOL    HW235156   7.227   0.959   3.297  2.6420 -2.8061 -1.8929
11434SOL     OW35157   1.174   5.363   7.092  0.6987 -0.0710  0.3660
11434SOL    HW135158   1.190   5.362   7.187 -0.9231 -0.2511  0.6786
11434SOL    HW235159   1.120   5.285   7.077 -0.4164  0.8264 -0.4307
11435SOL     OW35160   7.773   3.350   0.042  0.2074 -0.5384  0.1104
11435SOL    HW135161   7.687   3.310   0.031  0.2831 -0.4829 -0.7833
11435SOL    HW235162   7.786   3.400  -0.038  1.8458 -2.0256 -0.6110
11436SOL     OW35163   0.063   5.844   1.646 -1.0119 -0.0922  0.4296
11436SOL    HW135164   0.145   5.829   1.693 -1.8445 -1.9244  1.4119
11436SOL    HW235165   0.056   5.939   1.640  0.7700  0.1248  1.0398
11437SOL     OW35166   2.855   3.205   1.631  0.2570 -0.1761 -0.2215
11437SOL    HW135167   2.948   3.182   1.642 -0.0703 -0.9835  1.0015
11437SOL    HW235168   2.854   3.301   1.635  1.0450 -0.1479 -0.4171
11438SOL     OW35169   2.124   6.582   5.195  0.0298  0.7542 -0.1353
11438SOL    HW135170   2.061   6.654   5.190  0.1513  0.8490 -0.2596
11438SOL    HW235171   2.113   6.548   5.284  1.6478  2.4353  0.7619
11439SOL     OW35172   4.153   0.032   4.251 -0.1148 -0.0863  0.2952
11439SOL    HW135173   4.099   0.096   4.296 -0.5376 -0.4700  0.3413
11439SOL    HW235174   4.095  -0.008   4.187  0.1423 -0.4260  0.2693
11440SOL     OW35175   6.266   1.116   3.749  0.0283  0.3782  0.1119
11440SOL    HW135176   6.234   1.140   3.836  0.0874  1.1779 -0.0810
11440SOL    HW235177   6.189   1.118   3.693  0.3679  2.3118 -0.3542
11441SOL     OW35178   0.715   1.931   2.533 -0.1480 -0.1263  0.2788
11441SOL    HW135179   0.767   1.864   2.577  0.6333 -0.0797 -0.5479
11441SOL    HW235180   0.745   1.929   2.442 -3.3256 -1.8322 -0.8687
11442SOL     OW35181   4.797   2.523   7.462 -0.4731  0.1309  0.2430
11442SOL    HW135182   4.740   2.599   7.456  0.3658  0.6964 -1.0453
11442SOL    HW235183   4.739   2.451   7.488 -1.7785  0.6814 -0.9913
11443SOL     OW35184   5.144   3.111   4.800 -0.8451  0.1265 -0.6208
11443SOL    HW135185   5.231   3.122   4.839 -1.1867 -0.0603  0.2089
11443SOL    HW235186   5.155   3.138   4.709  0.8329 -2.7668 -1.4176
11444SOL     OW35187   3.299   1.895   6.668  0.3881 -0.3753  0.3400
11444SOL    HW135188   3.371   1.868   6.726  0.0504 -3.0073 -0.3368
11444SOL    HW235189   3.224   1.904   6.726  0.9582  1.2861  0.8853
11445SOL     OW35190   1.431   5.689   5.653 -0.4146 -0.0086 -0.1827
11445SOL    HW135191   1.476   5.752   5.597 -0.6323  1.0031  0.7286
11445SOL    HW235192   1.338   5.702   5.633 -0.4423 -0.2655 -0.2186
11446SOL     OW35193   3.596   5.001   7.566  0.1393 -0.7654 -0.3088
11446SOL    HW135194   3.634   4.932   7.620  0.2113  1.6033  2.9722
11446SOL    HW235195   3.558   5.063   7.629  0.2776  2.3362 -2.9797
11447SOL     OW35196   7.072   5.678   4.101  0.4991 -0.0725 -0.0928
11447SOL    HW135197   7.099   5.590   4.076 -0.5280  0.1176 -2.0532
11447SOL    HW235198   7.043   5.669   4.192  1.6557 -1.4554  0.1623
11448SOL     OW35199   6.790   6.623   0.394 -0.2086 -0.1611  0.5040
11448SOL    HW135200   6.738   6.542   0.394 -0.6423  0.1008  1.3081
11448SOL    HW235201   6.743   6.681   0.454  1.3566 -0.1509  1.7921
11449SOL     OW35202   7.305   2.875   0.844 -0.5299  0.3085 -0.3250
11449SOL    HW135203   7.351   2.794   0.864 -2.1573 -0.5021  0.3478
11449SOL    HW235204   7.374   2.937   0.821  0.9289 -0.6287  1.3178
11450SOL     OW35205   3.069   1.431   0.239  0.2784  0.6186  0.5435
11450SOL    HW135206   3.071   1.503   0.302  0.7143  1.6489 -0.6120
11450SOL    HW235207   2.979   1.401   0.241  0.2162  0.8121  1.4427
11451SOL     OW35208   5.994   3.419   0.430  0.3871 -0.0710  0.0211
11451SOL    HW135209   6.033   3.404   0.516  0.7841  0.2695 -0.0977
11451SOL    HW235210   6.043   3.362   0.371 -1.6642 -2.4215  0.4265
11452SOL     OW35211   5.712   4.163   4.654 -0.2481  0.0531  0.4366
11452SOL    HW135212   5.790   4.217   4.645 -0.4073  0.2326  0.0890
11452SOL    HW235213   5.642   4.225   4.673 -0.7621  0.2019 -1.6755
11453SOL     OW35214   4.117   4.939   3.257  0.2711  0.9944 -0.1032
11453SOL    HW135215   4.138   5.029   3.232 -1.6774  1.1768 -1.2335
11453SOL    HW235216   4.096   4.945   3.350  3.3011  1.0705  0.7076
11454SOL     OW35217   2.453   5.991   4.122  0.2185 -0.2257  0.2903
11454SOL    HW135218   2.499   5.931   4.181  0.6735 -0.6497 -0.4837
11454SOL    HW235219   2.487   5.970   4.035  0.2069  0.9888 -0.0237
11455SOL     OW35220   1.271   5.668   0.417 -0.0305 -0.1252 -0.1346
11455SOL    HW135221   1.212   5.719   0.362  0.3249 -0.4596 -0.8285
11455SOL    HW235222   1.353   5.666   0.370 -0.0970 -1.5437 -0.2433
11456SOL     OW35223   1.242   4.592   4.878  0.0225 -0.7014  0.1459
11456SOL    HW135224   1.211   4.520   4.933  0.8925 -0.4364  1.0105
11456SOL    HW235225   1.295   4.646   4.937  1.4679 -0.7182 -1.0748
11457SOL     OW35226   4.930   4.919   4.374  0.4438 -0.4734 -0.2774
11457SOL    HW135227   4.998   4.985   4.382  1.2762 -1.3452  0.1100
11457SOL    HW235228   4.870   4.936   4.446  0.1332  0.4163 -0.7345
11458SOL     OW35229   4.992   0.192   2.613 -0.2540  0.2267  0.1859
11458SOL    HW135230   5.079   0.233   2.615  0.3820 -1.0881  2.4716
11458SOL    HW235231   4.951   0.228   2.534  2.5728  0.4220 -1.3354
11459SOL     OW35232   3.617   1.005   3.404 -0.6734  0.2747 -0.5385
11459SOL    HW135233   3.589   1.053   3.326  0.6214  1.2562 -0.4528
11459SOL    HW235234   3.708   1.033   3.417 -0.3119 -1.1935  0.3307
11460SOL     OW35235   0.386   3.353   5.388  0.3152 -0.9012 -0.0991
11460SOL    HW135236   0.479   3.365   5.405 -0.0339  0.9352  0.7772
11460SOL    HW235237   0.372   3.389   5.300  0.5087 -1.7036 -0.4681
11461SOL     OW35238   0.056   2.792   5.319 -0.3259  0.6440  0.2395
11461SOL    HW135239   0.121   2.804   5.389  0.7877  0.8410 -0.7872
11461SOL    HW235240  -0.023   2.835   5.352  0.4615  1.5800  0.9789
11462SOL     OW35241   2.798   0.966   1.702 -0.6253  0.7987  0.8326
11462SOL    HW135242   2.778   1.055   1.673 -1.0024  0.8373  1.2017
11462SOL    HW235243   2.784   0.968   1.797  1.7069  0.9769  1.2253
11463SOL     OW35244   2.289   3.684   0.611 -0.1294  0.3081  0.4949
11463SOL    HW135245   2.297   3.762   0.555  0.7585 -1.5225 -2.1457
11463SOL    HW235246   2.248   3.619   0.555  1.0311 -1.7550  1.8983
11464SOL     OW35247   2.383   7.659   7.570  0.6185 -0.1643 -0.3343
11464SOL    HW135248   2.298   7.702   7.555  1.1952  1.4312  0.7638
11464SOL    HW235249   2.383   7.585   7.509 -1.3609  0.0766 -0.6912
11465SOL     OW35250   7.696   0.006   0.379  0.6981 -0.1425 -0.3378
11465SOL    HW135251   7.607  -0.030   0.378  1.2485 -1.7149  1.7308
11465SOL    HW235252   7.685   0.096   0.348 -1.6805 -0.1480  0.2829
11466SOL     OW35253   4.585   2.407   2.552  0.0302  0.1699 -0.3090
11466SOL    HW135254   4.541   2.352   2.488  0.2256  0.4491 -0.6856
11466SOL    HW235255   4.617   2.483   2.502  0.2516  0.3526  0.0979
11467SOL     OW35256   1.907   5.124   3.770 -0.2882  0.0118  0.0541
11467SOL    HW135257   1.893   5.030   3.763 -0.9764  0.0575  0.7268
11467SOL    HW235258   1.948   5.148   3.687 -0.5355 -0.8027 -0.3160
11468SOL     OW35259   6.527   6.671   4.500 -0.3086  0.0418  0.2439
11468SOL    HW135260   6.435   6.647   4.492 -0.1026 -0.7129  0.0108
11468SOL    HW235261   6.543   6.674   4.594 -0.4548 -0.2964  0.2808
11469SOL     OW35262   1.950   2.285   7.747  0.0282  0.6802 -0.3037
11469SOL    HW135263   2.042   2.268   7.730 -0.0895 -0.7081  0.3234
11469SOL    HW235264   1.932   2.241   7.830 -1.8226 -1.4644 -1.6979
11470SOL     OW35265   5.410   1.996   6.493  0.6913  0.8422 -0.5684
11470SOL    HW135266   5.400   2.091   6.480  1.7931  0.8628 -1.4706
11470SOL    HW235267   5.478   1.988   6.560 -1.9268  0.6751  2.2797
11471SOL     OW35268   1.440   0.471   3.237  0.1033 -0.0547  0.3138
11471SOL    HW135269   1.530   0.453   3.264 -0.2180  0.1478  1.5967
11471SOL    HW235270   1.436   0.566   3.229  0.4673 -0.1698 -1.5262
11472SOL     OW35271   2.293   6.999   7.868  0.0579 -0.2900  0.2225
11472SOL    HW135272   2.232   7.070   7.888 -0.9159 -1.2750  0.8508
11472SOL    HW235273   2.379   7.042   7.867 -0.3295  0.6513  2.1488
11473SOL     OW35274   7.051   5.174   4.185 -0.0862 -0.4058 -0.1426
11473SOL    HW135275   7.084   5.259   4.156 -0.0110 -0.2668  0.3489
11473SOL    HW235276   6.959   5.191   4.207  0.3939 -0.0087  1.7432
11474SOL     OW35277   6.318   7.867   0.421 -0.5944 -0.1405  0.1708
11474SOL    HW135278   6.361   7.818   0.491  0.3392  0.2127 -0.1323
11474SOL    HW235279   6.383   7.870   0.351 -0.4532  1.8731  0.3291
11475SOL     OW35280   6.582   3.096   5.087  0.5260  0.2631 -0.0225
11475SOL    HW135281   6.515   3.153   5.049 -1.1950 -2.3636 -1.2386
11475SOL    HW235282   6.546   3.071   5.172  0.9822  0.4848  0.2387
11476SOL     OW35283   7.068   6.043   4.462 -0.4076 -0.3193 -0.0870
11476SOL    HW135284   7.058   6.034   4.557 -1.2059 -0.1409 -0.1431
11476SOL    HW235285   7.127   6.118   4.451  0.1979 -0.7368  0.2708
11477SOL     OW35286   3.135   1.374   1.947 -0.1688  0.7581 -0.1495
11477SOL    HW135287   3.127   1.280   1.958 -1.0820  0.8927  0.4284
11477SOL    HW235288   3.068   1.398   1.884 -0.1935  1.0708 -0.0103
11478SOL     OW35289   7.414   1.703   7.755  0.3813  0.3476  0.3087
11478SOL    HW135290   7.326   1.727   7.782  0.0587 -0.0809 -0.3285
11478SOL    HW235291   7.462   1.785   7.752  0.4257  0.4149  2.1172
11479SOL     OW35292   3.756   2.544   7.935 -0.5375  0.0793  0.0558
11479SOL    HW135293   3.801   2.615   7.979  1.4184 -0.4114 -1.0667
11479SOL    HW235294   3.664   2.572   7.933 -0.0261  1.9682  0.7465
11480SOL     OW35295   5.371   6.963   3.173  0.2785  0.1059 -0.1088
11480SOL    HW135296   5.379   6.869   3.154 -2.2777 -1.1798  3.7996
11480SOL    HW235297   5.333   7.000   3.094 -2.2085 -3.0002 -0.5916
11481SOL     OW35298   7.106   4.868   7.629  0.0600  0.2188 -0.0637
11481SOL    HW135299   7.178   4.841   7.573 -1.7565 -0.1017 -2.4249
11481SOL    HW235300   7.077   4.788   7.673 -0.7929 -0.3127 -1.5348
11482SOL     OW35301   5.443   0.059   7.320 -0.3526  0.0624  0.7462
11482SOL    HW135302   5.376  -0.001   7.287  0.2416 -0.3682  0.2878
11482SOL    HW235303   5.498   0.004   7.376  0.5002  0.0359 -0.0849
11483SOL     OW35304   3.986   6.618   2.156  0.1434  0.4122  0.2059
11483SOL    HW135305   4.040   6.582   2.086 -2.0420 -0.8905 -0.9357
11483SOL    HW235306   4.024   6.584   2.237  0.2316 -1.5977 -0.6443
11484SOL     OW35307   3.166   4.918   3.610  0.2031  0.2858 -0.0140
11484SOL    HW135308   3.183   4.833   3.650  0.0635  0.0531 -0.4432
11484SOL    HW235309   3.253   4.951   3.587  0.1419 -1.2408 -2.9040
11485SOL     OW35310   2.255   4.832   5.129 -0.2784 -1.2899 -0.7868
11485SOL    HW135311   2.337   4.860   5.088  0.2159 -0.1134  0.9076
11485SOL    HW235312   2.262   4.737   5.135 -0.1809 -1.4618 -2.9490
11486SOL     OW35313   0.433   2.285   2.954  0.0956 -0.3595 -0.3310
11486SOL    HW135314   0.348   2.282   2.999  0.5439  0.3993  0.5856
11486SOL    HW235315   0.449   2.378   2.939  1.6884 -0.3150  1.3125
11487SOL     OW35316   4.729   6.942   7.180 -0.1939  0.4999 -0.4329
11487SOL    HW135317   4.720   7.022   7.232  0.9420  0.7744 -0.6292
11487SOL    HW235318   4.776   6.881   7.237  0.8905  0.7383 -1.0349
11488SOL     OW35319   4.031   3.268   2.460 -0.2636 -0.0186  0.0731
11488SOL    HW135320   4.001   3.274   2.369  0.5075  1.1280 -0.1359
11488SOL    HW235321   3.995   3.186   2.492 -0.8510 -0.2690 -1.1609
11489SOL     OW35322   7.480   6.491   1.258  0.9825 -0.1794  0.0324
11489SOL    HW135323   7.482   6.567   1.316  0.8842 -1.8278  2.3619
11489SOL    HW235324   7.557   6.440   1.283  1.5690 -0.4440 -2.1177
11490SOL     OW35325   0.948   3.501   3.608 -0.5184 -0.4463 -0.2537
11490SOL    HW135326   0.852   3.495   3.613 -0.5092  0.0471  0.5725
11490SOL    HW235327   0.979   3.430   3.664 -0.3797 -1.4852 -1.5952
11491SOL     OW35328   4.560   2.375   1.360 -0.2007  0.1017  0.8346
11491SOL    HW135329   4.540   2.461   1.323  3.6165  0.4652 -0.8407
11491SOL    HW235330   4.572   2.391   1.454 -0.3848  1.2183  0.6759
11492SOL     OW35331   5.917   6.123   1.510 -0.3931  0.5866 -0.5802
11492SOL    HW135332   5.959   6.042   1.538  0.2332  0.8267 -0.8185
11492SOL    HW235333   5.953   6.141   1.423 -0.6096  1.0603 -0.5775
11493SOL     OW35334   6.257   2.623   4.396 -0.1773 -0.2527  0.2473
11493SOL    HW135335   6.213   2.554   4.446 -0.6135  0.6082  1.0883
11493SOL    HW235336   6.197   2.643   4.325  0.1454 -1.0228 -0.2590
11494SOL     OW35337   1.169   7.409   5.774 -1.0003 -0.1259  0.0509
11494SOL    HW135338   1.263   7.429   5.782 -1.0631  0.6931 -0.9973
11494SOL    HW235339   1.137   7.474   5.711 -2.0941 -0.9799 -0.2880
11495SOL     OW35340   4.085   7.132   0.538  0.4645 -0.3967  0.1976
11495SOL    HW135341   4.099   7.208   0.594 -0.8204  0.6598 -0.8348
11495SOL    HW235342   4.173   7.098   0.521  1.2657  1.9209 -0.7190
11496SOL     OW35343   0.872   7.988   6.945  0.2105  0.4869  0.4971
11496SOL    HW135344   0.794   7.985   7.001  0.9171 -3.1758  1.5332
11496SOL    HW235345   0.840   7.959   6.859  0.3925 -1.2435  0.9793
11497SOL     OW35346   4.958   3.892   0.018 -0.2911 -0.5328 -0.2016
11497SOL    HW135347   4.912   3.849   0.090 -0.0440  1.5875  1.3360
11497SOL    HW235348   5.022   3.828  -0.013 -2.0498 -2.3718 -0.2291
11498SOL     OW35349   2.307   3.306   6.261  0.3123  0.2400 -0.2259
11498SOL    HW135350   2.219   3.296   6.296 -0.0916 -2.1839 -1.7133
11498SOL    HW235351   2.298   3.291   6.167  2.1873  0.8783 -0.5659
11499SOL     OW35352   7.596   3.058   2.214  0.2539 -0.4089 -0.5818
11499SOL    HW135353   7.638   3.105   2.142  1.2903 -0.6815 -0.1768
11499SOL    HW235354   7.509   3.096   2.221  0.4650  0.2408 -1.3883
11500SOL     OW35355   6.045   1.630   1.133  0.3333  0.1703 -0.3942
11500SOL    HW135356   5.951   1.648   1.134  0.8365  3.4741  0.5540
11500SOL    HW235357   6.068   1.629   1.040 -0.5508  0.0230 -0.6140
11501SOL     OW35358   3.465   0.215   2.677 -0.1444  0.2008 -0.2922
11501SOL    HW135359   3.557   0.211   2.703  0.3847  0.9492 -1.8761
11501SOL    HW235360   3.449   0.133   2.631 -0.2783  0.0739 -0.0238
11502SOL     OW35361   7.760   4.111   7.461 -0.4435  0.2958  0.1106
11502SOL    HW135362   7.766   4.197   7.418 -1.8341  0.4849  0.2349
11502SOL    HW235363   7.819   4.055   7.411  0.1852  1.2263 -0.2202
11503SOL     OW35364   5.077   3.892   5.360  0.3130  0.2547 -0.3743
11503SOL    HW135365   5.127   3.948   5.300  0.6647  1.0434  0.6091
11503SOL    HW235366   5.079   3.940   5.443 -2.1191  0.3288 -0.2865
11504SOL     OW35367   3.865   1.122   3.453 -0.2462 -0.0178  0.0879
11504SOL    HW135368   3.910   1.157   3.376 -1.4704 -0.2241 -0.7590
11504SOL    HW235369   3.908   1.038   3.470  0.3637  0.2599 -0.0697
11505SOL     OW35370   5.268   5.546   3.495 -0.3422 -0.2474  0.4020
11505SOL    HW135371   5.323   5.526   3.419  1.4580 -1.1288  1.8481
11505SOL    HW235372   5.261   5.641   3.494 -0.8161 -0.2710 -1.1525
11506SOL     OW35373   6.583   7.358   0.010  0.4695 -0.0349 -0.1402
11506SOL    HW135374   6.613   7.383   0.097 -0.4929 -1.9014  0.7831
11506SOL    HW235375   6.622   7.272  -0.005 -0.9821 -0.6369 -0.6667
11507SOL     OW35376   0.042   4.579   4.040 -0.1083 -0.2879 -0.6047
11507SOL    HW135377   0.019   4.487   4.026  1.3060 -0.6579 -0.6210
11507SOL    HW235378   0.065   4.585   4.132 -1.6134  0.4078 -0.2277
11508SOL     OW35379   2.360   1.693   1.685 -0.2528  0.2509 -0.2459
11508SOL    HW135380   2.316   1.755   1.627 -0.1451 -0.9656 -1.6810
11508SOL    HW235381   2.290   1.657   1.739 -0.5516  0.4795 -0.4740
11509SOL     OW35382   1.015   3.849   5.615 -0.5668 -0.1947  0.0622
11509SOL    HW135383   1.075   3.913   5.575  0.6367 -1.5415 -0.3923
11509SOL    HW235384   0.942   3.901   5.648  0.8802  1.5441  0.6850
11510SOL     OW35385   1.502   7.184   4.600  0.2539  0.2940 -0.3552
11510SOL    HW135386   1.511   7.091   4.577  2.9819  0.0107  1.3571
11510SOL    HW235387   1.419   7.210   4.562 -1.3922 -3.2582  0.3749
11511SOL     OW35388   5.764   7.884   2.882  0.0421  0.5127  0.2842
11511SOL    HW135389   5.700   7.843   2.940 -0.6213 -0.1904 -0.9204
11511SOL    HW235390   5.735   7.975   2.874  0.0181  0.5604  0.8658
11512SOL     OW35391   4.701   7.480   3.112 -0.3886 -0.1108  0.5914
11512SOL    HW135392   4.720   7.404   3.166 -0.2460 -0.3293  0.2404
11512SOL    HW235393   4.627   7.452   3.058  1.3886 -1.0089 -1.5197
11513SOL     OW35394   2.509   3.197   5.498  0.4683  0.0871  0.3011
11513SOL    HW135395   2.564   3.268   5.467 -0.1480  0.5674  0.2838
11513SOL    HW235396   2.422   3.217   5.464  0.3208 -0.7759  0.1304
11514SOL     OW35397   3.069   0.177   2.462 -0.2015  0.1293 -0.2009
11514SOL    HW135398   3.112   0.122   2.396 -1.1967 -0.1910 -0.6124
11514SOL    HW235399   3.112   0.262   2.454 -0.1332  0.0261 -1.1086
11515SOL     OW35400   2.443   3.001   1.860  0.7100  0.6244 -0.2437
11515SOL    HW135401   2.351   3.023   1.849 -0.3542 -4.0683 -3.9171
11515SOL    HW235402   2.454   2.991   1.955 -3.0288 -0.1877  0.2489
11516SOL     OW35403   6.609   1.940   7.463 -0.1956  0.3862  0.4288
11516SOL    HW135404   6.651   2.027   7.462 -1.4824  1.0531  1.5710
11516SOL    HW235405   6.535   1.950   7.522 -0.5496 -1.4361  0.3376
11517SOL     OW35406   6.672   2.773   6.152 -0.1129 -0.1782 -0.2318
11517SOL    HW135407   6.702   2.732   6.234  0.2751  0.7086  0.0816
11517SOL    HW235408   6.662   2.700   6.091 -1.4020 -1.0082  0.8905
11518SOL     OW35409   6.277   2.409   1.037 -0.1569 -0.4819  0.5417
11518SOL    HW135410   6.333   2.437   0.964  0.7327 -3.3246  0.0267
11518SOL    HW235411   6.198   2.463   1.028  0.5104  0.2432 -1.6512
11519SOL     OW35412   7.218   6.681   3.797 -0.1700  0.4707 -0.8734
11519SOL    HW135413   7.152   6.704   3.862  2.0205  3.0880  0.6480
11519SOL    HW235414   7.182   6.714   3.714 -0.9731  1.4479 -0.1568
11520SOL     OW35415   3.265   2.463   2.916  0.0237  0.3100 -0.5476
11520SOL    HW135416   3.189   2.451   2.972 -0.8921 -1.7464 -2.1073
11520SOL    HW235417   3.290   2.554   2.928 -1.5914  0.5608  1.3296
11521SOL     OW35418   5.219   2.274   5.386  0.1226 -0.0594  0.2327
11521SOL    HW135419   5.265   2.354   5.362 -2.3238  0.8303 -1.9367
11521SOL    HW235420   5.202   2.230   5.303 -0.0229 -2.0476  1.2561
11522SOL     OW35421   5.612   2.875   7.689 -0.6115 -0.1682 -0.7212
11522SOL    HW135422   5.630   2.969   7.695 -0.7103 -0.0039 -2.5165
11522SOL    HW235423   5.666   2.845   7.616  1.4244 -2.0602  1.4150
11523SOL     OW35424   6.359   6.441   5.089 -0.2191  0.3483  0.2397
11523SOL    HW135425   6.400   6.503   5.150 -2.8557  0.8685  1.6412
11523SOL    HW235426   6.368   6.356   5.132  2.6070 -0.2490 -1.2693
11524SOL     OW35427   7.435   2.098   6.886 -0.0193 -0.0308 -0.4774
11524SOL    HW135428   7.497   2.027   6.869  1.5948  0.5300  2.5037
11524SOL    HW235429   7.446   2.119   6.978 -3.0773  1.6827 -0.3453
11525SOL     OW35430   4.728   6.697   3.085  0.1668 -0.0594  0.3663
11525SOL    HW135431   4.809   6.747   3.078 -0.5024  1.1833  1.2401
11525SOL    HW235432   4.682   6.714   3.003  0.4436 -0.1560  0.1896
11526SOL     OW35433   5.507   6.075   2.928  0.1100 -0.1376 -0.2598
11526SOL    HW135434   5.567   6.062   3.001  1.6713 -0.1902 -1.4928
11526SOL    HW235435   5.503   5.989   2.885 -1.4984 -0.3421  0.2430
11527SOL     OW35436   0.326   1.204   0.144 -0.1989  0.4294 -0.1636
11527SOL    HW135437   0.279   1.144   0.087 -0.2555  0.2703  0.0478
11527SOL    HW235438   0.263   1.227   0.212 -0.8617  2.3508 -1.3496
11528SOL     OW35439   2.391   7.155   2.792  0.1018  0.2979 -0.9246
11528SOL    HW135440   2.328   7.210   2.840  0.5710  1.1415 -1.2623
11528SOL    HW235441   2.476   7.181   2.826  0.5208  1.5354 -2.7767
11529SOL     OW35442   0.230   3.923   3.723  0.2899 -0.3668 -0.0466
11529SOL    HW135443   0.317   3.933   3.761 -0.1558 -0.0944  0.9585
11529SOL    HW235444   0.172   3.916   3.799 -0.7053  0.7059 -0.6634
11530SOL     OW35445   3.681   0.164   3.129 -0.5229 -0.5454  0.0667
11530SOL    HW135446   3.597   0.143   3.169  0.1568 -0.8435  1.3907
11530SOL    HW235447   3.745   0.156   3.200  0.4924  0.7183 -0.6464
11531SOL     OW35448   1.382   6.465   3.845  0.4987  0.1789  0.4217
11531SOL    HW135449   1.341   6.549   3.825  0.5662  0.6209  1.9808
11531SOL    HW235450   1.443   6.449   3.773  0.4322  1.4365  0.0751
11532SOL     OW35451   0.831   7.323   1.645 -0.7603  0.2186 -0.2756
11532SOL    HW135452   0.819   7.231   1.621 -1.0514 -0.0180  0.7252
11532SOL    HW235453   0.855   7.321   1.738 -2.3265  1.2063  0.1961
11533SOL     OW35454   1.554   6.597   2.956  0.2696  0.0230  0.0309
11533SOL    HW135455   1.501   6.658   2.905  2.7606  2.3011 -0.1018
11533SOL    HW235456   1.517   6.601   3.044 -1.4151 -0.6123 -0.6095
11534SOL     OW35457   5.609   1.884   6.693  0.4754 -0.1307 -0.3172
11534SOL    HW135458   5.681   1.937   6.726 -0.2386 -0.4972  2.0452
11534SOL    HW235459   5.552   1.871   6.769 -1.5827 -0.6821 -1.8589
11535SOL     OW35460   1.918   6.392   1.253  0.2069 -0.2356  0.5388
11535SOL    HW135461   1.910   6.488   1.257  0.6037 -0.2460  2.1530
11535SOL    HW235462   1.838   6.360   1.294 -1.3030 -0.7185 -2.4581
11536SOL     OW35463   7.571   4.586   5.662 -0.2936 -0.4121 -0.1563
11536SOL    HW135464   7.586   4.513   5.722  0.6173  1.0490  1.4671
11536SOL    HW235465   7.518   4.648   5.712 -0.0855  0.5494 -1.0956
11537SOL     OW35466   6.921   6.002   2.067 -0.2252  0.1209 -0.3025
11537SOL    HW135467   6.961   6.032   1.985 -1.1347  1.4429 -0.3076
11537SOL    HW235468   6.846   5.950   2.039 -0.3322  0.2784 -0.3087
11538SOL     OW35469   6.102   6.773   6.821 -0.5126  0.2335  0.0947
11538SOL    HW135470   6.184   6.747   6.864 -1.7478 -2.8681  0.9193
11538SOL    HW235471   6.126   6.792   6.731  1.1869 -0.1859  0.4287
11539SOL     OW35472   3.728   5.175   6.336 -0.5950 -0.1107  0.2869
11539SOL    HW135473   3.744   5.192   6.429  1.6849 -1.8783  0.3138
11539SOL    HW235474   3.814   5.152   6.301 -1.3036  0.9297 -2.3961
11540SOL     OW35475   3.897   5.800   6.008  0.5375 -0.3184  0.1297
11540SOL    HW135476   3.962   5.869   6.022 -0.2863  0.1519  2.0204
11540SOL    HW235477   3.881   5.765   6.096 -0.7020 -1.4030 -0.5008
11541SOL     OW35478   3.300   0.055   5.386  0.1836 -0.3909 -0.6125
11541SOL    HW135479   3.292   0.102   5.468  1.1095 -1.0660 -0.1183
11541SOL    HW235480   3.310   0.123   5.319 -0.1600  0.1479 -0.1187
11542SOL     OW35481   5.731   3.033   2.149  0.0914  0.2727 -0.3526
11542SOL    HW135482   5.651   3.075   2.119 -1.2850 -0.2731  2.2231
11542SOL    HW235483   5.702   2.951   2.188  2.0838 -0.5423 -0.4764
11543SOL     OW35484   2.080   7.302   5.053  0.0120 -0.0414 -0.2167
11543SOL    HW135485   2.109   7.386   5.088  1.2594 -0.0750 -1.1348
11543SOL    HW235486   2.087   7.311   4.958 -2.8203 -0.1233 -0.5254
11544SOL     OW35487   5.539   4.628   4.169 -0.6721 -0.0604  0.0721
11544SOL    HW135488   5.565   4.643   4.260  1.2695  0.8631 -0.5947
11544SOL    HW235489   5.621   4.606   4.124 -1.4965  0.1636 -1.5974
11545SOL     OW35490   1.085   2.062   5.178 -0.4908 -0.2924  0.0882
11545SOL    HW135491   1.130   2.057   5.093 -2.0200  0.4672 -0.8044
11545SOL    HW235492   0.993   2.051   5.157 -0.8449 -0.7475  1.7567
11546SOL     OW35493   3.258   3.091   5.900 -0.3815 -0.0422  0.7980
11546SOL    HW135494   3.300   3.169   5.936  0.4741  0.6389 -1.5399
11546SOL    HW235495   3.255   3.030   5.974  0.2565  1.6518  2.3043
11547SOL     OW35496   7.571   3.688   2.660  0.6949  0.0520  0.0053
11547SOL    HW135497   7.491   3.705   2.610  1.1483  0.5954 -0.5599
11547SOL    HW235498   7.624   3.766   2.646  0.3582  0.7625  2.3291
11548SOL     OW35499   5.859   0.880   7.173 -0.3699  0.5211 -0.2243
11548SOL    HW135500   5.831   0.929   7.096  0.9655  0.3945 -0.8239
11548SOL    HW235501   5.834   0.789   7.155  1.8138  0.1111 -1.5266
11549SOL     OW35502   1.457   1.235   7.690 -0.2148 -0.1198 -0.6775
11549SOL    HW135503   1.475   1.325   7.663  2.2753 -0.0808  0.7436
11549SOL    HW235504   1.544   1.194   7.694 -0.5823 -0.9631  4.0335
11550SOL     OW35505   6.713   6.832   7.954  0.3728 -0.3418  0.1106
11550SOL    HW135506   6.665   6.861   7.876  0.4374  0.4984  0.3799
11550SOL    HW235507   6.735   6.912   8.000  2.0987 -0.6996 -0.0158
11551SOL     OW35508   0.005   3.194   6.792 -0.0432  0.4496  0.7599
11551SOL    HW135509  -0.057   3.265   6.775 -0.7521 -0.0756  1.0782
11551SOL    HW235510  -0.051   3.117   6.809  0.6658  0.2453  2.3340
11552SOL     OW35511   7.603   2.868   1.688  0.3831  0.3482 -0.5348
11552SOL    HW135512   7.557   2.950   1.670 -1.4369 -1.0288 -2.6934
11552SOL    HW235513   7.677   2.868   1.627  0.4063  0.4224 -0.5059
11553SOL     OW35514   3.502   3.717   0.889 -0.8434 -0.4517 -0.8848
11553SOL    HW135515   3.470   3.689   0.803 -0.9182  0.2835 -1.0987
11553SOL    HW235516   3.515   3.811   0.881 -0.6864 -0.4014 -0.1391
11554SOL     OW35517   1.261   5.046   3.203  0.3911  0.0214  0.1682
11554SOL    HW135518   1.227   4.988   3.135  0.1956 -1.1990  1.2862
11554SOL    HW235519   1.191   5.110   3.217 -0.9296 -1.6080  1.4252
11555SOL     OW35520   0.132   7.955   5.340  0.1444  0.5229  0.2446
11555SOL    HW135521   0.088   7.968   5.256  0.9845  0.8999 -0.1436
11555SOL    HW235522   0.203   8.020   5.340  1.8500 -1.2675  0.0604
11556SOL     OW35523   0.534   0.712   5.761  0.1507 -0.3172  0.4868
11556SOL    HW135524   0.459   0.766   5.785  0.7515  0.6829  0.1867
11556SOL    HW235525   0.501   0.653   5.693  0.0601  1.3870 -1.0206
11557SOL     OW35526   0.597   0.533   4.215 -0.4239 -0.5762 -0.7947
11557SOL    HW135527   0.584   0.471   4.144  0.3384 -0.8516 -0.7005
11557SOL    HW235528   0.646   0.605   4.176 -1.2184 -0.0690 -0.8801
11558SOL     OW35529   1.120   3.671   6.999  0.4649 -0.4866  0.2623
11558SOL    HW135530   1.075   3.588   6.990 -0.5273 -0.0009  0.6070
11558SOL    HW235531   1.148   3.674   7.091 -2.1951  0.8402  1.1384
11559SOL     OW35532   2.713   7.076   3.135 -0.4678 -0.1182  0.0673
11559SOL    HW135533   2.746   6.989   3.157  0.4160  0.1253 -0.2536
11559SOL    HW235534   2.620   7.063   3.119 -0.3202 -1.0321 -0.1086
11560SOL     OW35535   1.924   6.026   5.936  0.6278  0.0213 -0.0682
11560SOL    HW135536   1.854   6.044   5.998 -0.0967  1.6960 -1.2890
11560SOL    HW235537   1.900   5.942   5.896  0.4960 -0.4954  1.0703
11561SOL     OW35538   5.289   4.921   0.736 -0.3078  0.0036 -0.1788
11561SOL    HW135539   5.290   4.877   0.650 -0.3281 -0.3144 -0.0181
11561SOL    HW235540   5.201   4.905   0.770 -1.1754  2.2932 -1.1932
11562SOL     OW35541   0.999   1.492   4.741 -0.3972 -0.1885 -0.2055
11562SOL    HW135542   0.993   1.431   4.668 -1.6997 -0.1214 -0.1786
11562SOL    HW235543   0.966   1.443   4.816  2.0036 -0.6498  0.6342
11563SOL     OW35544   2.264   3.199   5.994 -0.0370  0.0066  0.1863
11563SOL    HW135545   2.294   3.182   5.905 -0.4581 -3.8790  0.6053
11563SOL    HW235546   2.176   3.163   5.998  0.1981 -0.4946  2.2942
11564SOL     OW35547   7.133   0.440   3.044  0.2988  0.2516 -0.1120
11564SOL    HW135548   7.134   0.354   3.003  0.9750 -0.4656  1.3566
11564SOL    HW235549   7.049   0.478   3.019  0.0040 -0.8164 -0.7907
11565SOL     OW35550   7.941   0.358   0.764 -0.6526  0.1269 -0.1558
11565SOL    HW135551   7.917   0.317   0.680  0.2446  0.3467 -0.5285
11565SOL    HW235552   7.993   0.434   0.739  0.1367 -0.1540  0.6269
11566SOL     OW35553   0.590   4.435   7.106 -0.0989  0.1986 -0.2783
11566SOL    HW135554   0.589   4.506   7.042 -0.0225  0.8449  0.4336
11566SOL    HW235555   0.661   4.378   7.076  1.7162  1.8511  0.6528
11567SOL     OW35556   6.246   2.013   3.599 -0.7673 -0.1579 -0.0642
11567SOL    HW135557   6.341   2.017   3.584 -0.9850  1.8980 -1.2991
11567SOL    HW235558   6.236   2.032   3.692  0.0898 -2.1221  0.4728
11568SOL     OW35559   1.716   4.896   5.208  0.2920 -0.7440 -0.2292
11568SOL    HW135560   1.680   4.982   5.231  1.1046 -0.7660  1.2606
11568SOL    HW235561   1.755   4.908   5.122  0.7922  0.5138  0.1530
11569SOL     OW35562   3.100   3.302   1.389 -0.0651 -0.0342 -0.7571
11569SOL    HW135563   3.191   3.333   1.391 -0.2446  0.4868 -0.5030
11569SOL    HW235564   3.078   3.289   1.481 -0.1842 -0.3634 -0.8301
11570SOL     OW35565   2.149   1.342   1.396  0.3387  0.1616 -0.4006
11570SOL    HW135566   2.134   1.331   1.489  1.7737 -1.8585 -0.3465
11570SOL    HW235567   2.131   1.435   1.380 -0.0672  0.5258  1.8301
11571SOL     OW35568   0.670   3.953   5.394 -0.4774 -0.5011  0.1028
11571SOL    HW135569   0.582   3.956   5.356 -1.2161  0.3814  1.7404
11571SOL    HW235570   0.700   3.864   5.378 -0.6904 -0.1869 -2.4812
11572SOL     OW35571   5.003   1.669   2.129 -0.8025 -1.0352 -0.3940
11572SOL    HW135572   5.052   1.669   2.048 -1.1291 -0.6541 -0.5961
11572SOL    HW235573   5.066   1.694   2.196 -0.8870  0.2717 -0.7663
11573SOL     OW35574   4.399   6.499   1.948 -0.0452  0.3459 -0.0432
11573SOL    HW135575   4.444   6.538   2.023  0.6720  0.5246 -0.5584
11573SOL    HW235576   4.423   6.555   1.874 -0.7575  0.1811 -0.4066
11574SOL     OW35577   4.741   4.427   4.341 -0.0886 -0.1551  0.3913
11574SOL    HW135578   4.746   4.427   4.245  1.0956 -0.6349  0.4370
11574SOL    HW235579   4.815   4.481   4.369 -1.4899  1.5432  1.0329
11575SOL     OW35580   4.789   5.870   6.800  0.1239  0.5538  0.3610
11575SOL    HW135581   4.801   5.775   6.805 -0.2514  0.4719 -0.2226
11575SOL    HW235582   4.755   5.886   6.712  1.1872  1.3412  0.0650
11576SOL     OW35583   7.049   3.722   6.413 -0.2444  0.0860  0.1048
11576SOL    HW135584   7.017   3.760   6.332 -1.0965  1.8932  1.2255
11576SOL    HW235585   6.971   3.687   6.456  0.4035 -2.2417 -0.4941
11577SOL     OW35586   6.886   6.452   2.777  0.8175  0.2141  0.0195
11577SOL    HW135587   6.913   6.430   2.867  1.9254  1.2262 -0.0351
11577SOL    HW235588   6.820   6.386   2.755  0.3734  0.0722  1.6487
11578SOL     OW35589   2.954   1.745   6.287  0.2549 -0.0006 -0.0071
11578SOL    HW135590   3.001   1.688   6.348 -0.9753 -0.2858  0.7144
11578SOL    HW235591   2.899   1.686   6.236 -0.4896  0.4592  0.2445
11579SOL     OW35592   5.404   0.136   7.641  0.3175 -0.1262  0.1784
11579SOL    HW135593   5.418   0.041   7.633  0.4185 -0.1583  0.7326
11579SOL    HW235594   5.312   0.143   7.669  0.0075 -0.0163 -0.8073
11580SOL     OW35595   6.092   5.683   7.732  0.1146 -0.0979 -0.4138
11580SOL    HW135596   6.061   5.595   7.751  0.3687  0.0589  0.7666
11580SOL    HW235597   6.057   5.702   7.645  1.8214 -2.1853 -1.6707
11581SOL     OW35598   4.923   2.895   1.098 -0.0341 -0.0337 -0.5964
11581SOL    HW135599   4.887   2.817   1.139 -1.2674  0.8457  0.0785
11581SOL    HW235600   4.908   2.965   1.162  1.9862  0.5987 -0.7199
11582SOL     OW35601   0.291   5.504   3.829 -0.2309  0.1197  0.4899
11582SOL    HW135602   0.241   5.584   3.845  0.0788  0.4440 -0.1031
11582SOL    HW235603   0.251   5.466   3.751  1.8655  1.6310 -1.4670
11583SOL     OW35604   3.661   5.064   5.441  0.4293 -0.3917 -0.0916
11583SOL    HW135605   3.752   5.066   5.411  0.5258 -2.4835 -0.0823
11583SOL    HW235606   3.609   5.060   5.361  0.4355 -0.8052 -0.0776
11584SOL     OW35607   5.690   5.034   1.163 -0.3220  0.7376 -0.2331
11584SOL    HW135608   5.733   5.115   1.134 -1.4387  0.7455 -2.0154
11584SOL    HW235609   5.714   5.027   1.255 -0.3330  3.1969  0.0424
11585SOL     OW35610   6.696   1.901   6.040 -0.1731 -0.0585 -0.4245
11585SOL    HW135611   6.673   1.990   6.013  1.7000  0.8656  0.7798
11585SOL    HW235612   6.760   1.873   5.974 -0.1201 -0.1650 -0.3277
11586SOL     OW35613   1.960   1.829   2.816  0.2338 -0.0726  0.3958
11586SOL    HW135614   1.987   1.911   2.858  1.5270  0.1262 -0.7459
11586SOL    HW235615   1.867   1.843   2.794  0.0985  0.5865  1.3358
11587SOL     OW35616   7.819   7.592   0.872  0.0542  0.2009 -0.0244
11587SOL    HW135617   7.732   7.556   0.856  0.0102 -0.0241  0.6919
11587SOL    HW235618   7.848   7.552   0.954  1.5586 -1.0705 -1.1080
11588SOL     OW35619   7.252   5.832   7.276 -0.3504  0.0080  0.6574
11588SOL    HW135620   7.327   5.872   7.231 -1.4681 -1.7832 -3.2418
11588SOL    HW235621   7.277   5.740   7.286 -1.8184 -0.5411 -0.3960
11589SOL     OW35622   7.463   4.642   1.674 -0.5830  0.9402  0.6273
11589SOL    HW135623   7.426   4.559   1.645 -1.5793  1.2552  0.9826
11589SOL    HW235624   7.554   4.621   1.697 -0.9369 -0.1363  1.0927
11590SOL     OW35625   4.559   3.868   4.643  0.0664  0.0750 -0.4850
11590SOL    HW135626   4.596   3.918   4.570 -1.7586 -0.1407 -1.6094
11590SOL    HW235627   4.553   3.931   4.714  0.1595  0.7865 -1.0960
11591SOL     OW35628   7.579   2.080   3.831 -0.7748  0.3651 -0.0500
11591SOL    HW135629   7.599   2.115   3.745  0.0002  1.8376  0.6807
11591SOL    HW235630   7.605   1.988   3.827 -0.9449  0.3628 -1.4337
11592SOL     OW35631   5.447   6.045   0.789 -0.0913  0.0870  0.4804
11592SOL    HW135632   5.378   6.010   0.845 -1.0868 -0.2128 -0.8590
11592SOL    HW235633   5.414   6.132   0.763  1.0409  0.8483  1.5137
11593SOL     OW35634   1.825   1.228   1.286  0.5740  0.0984 -0.2454
11593SOL    HW135635   1.794   1.144   1.252  0.1093 -0.1887  0.8604
11593SOL    HW235636   1.755   1.290   1.263  0.6395  0.0710 -0.5261
11594SOL     OW35637   1.617   5.100   1.969 -0.3368  0.3089 -0.2414
11594SOL    HW135638   1.577   5.184   1.948  0.0234  0.2731 -1.0982
11594SOL    HW235639   1.602   5.045   1.892  0.4606 -0.0320 -0.1739
11595SOL     OW35640   3.377   0.606   2.103 -0.2784 -0.0495 -0.0636
11595SOL    HW135641   3.291   0.568   2.084 -0.6170  0.8321 -0.3576
11595SOL    HW235642   3.362   0.701   2.101  0.8755  0.1425 -1.0153
11596SOL     OW35643   3.225   3.116   4.553 -0.2263 -0.2902 -0.0420
11596SOL    HW135644   3.224   3.086   4.644  4.5073  0.5230  0.5441
11596SOL    HW235645   3.236   3.036   4.502 -1.6965 -0.6361  0.1308
11597SOL     OW35646   0.111   6.334   7.945  0.3538 -0.5630 -1.0282
11597SOL    HW135647   0.185   6.303   7.998  0.6639  0.6813 -0.7066
11597SOL    HW235648   0.148   6.341   7.856  0.2837 -1.0871 -1.1023
11598SOL     OW35649   1.447   3.358   3.454  0.6358 -0.0506 -0.0557
11598SOL    HW135650   1.537   3.389   3.465  0.6449  0.2022 -0.8031
11598SOL    HW235651   1.436   3.293   3.524  1.8100 -1.0029 -0.7025
11599SOL     OW35652   4.182   1.278   7.122  0.8547  0.6079  0.3604
11599SOL    HW135653   4.130   1.258   7.044  0.2326 -1.4108  1.2175
11599SOL    HW235654   4.258   1.325   7.088  0.7320 -0.4356 -1.5309
11600SOL     OW35655   5.134   0.759   2.409 -0.5012  0.4873  0.0470
11600SOL    HW135656   5.192   0.688   2.438 -1.3440  0.0988  0.8171
11600SOL    HW235657   5.191   0.836   2.404 -0.0067  0.2175  1.2430
11601SOL     OW35658   5.073   0.622   2.713 -0.3427 -0.0459 -0.3459
11601SOL    HW135659   5.016   0.668   2.651 -2.2643 -2.5587 -0.6108
11601SOL    HW235660   5.041   0.649   2.800 -0.1508  0.5636 -0.4569
11602SOL     OW35661   7.041   7.393   0.229  0.6414  0.0367  0.0857
11602SOL    HW135662   7.017   7.453   0.299  0.0030 -1.1780  0.9448
11602SOL    HW235663   7.036   7.446   0.149  0.6834  1.2577  0.8664
11603SOL     OW35664   7.913   5.057   3.687 -0.2176  0.1524  0.4329
11603SOL    HW135665   7.821   5.050   3.711  0.4830  0.1511  3.5636
11603SOL    HW235666   7.931   4.979   3.635 -1.6190 -0.7144  1.1959
11604SOL     OW35667   1.635   2.586   3.446  0.0795  0.1668  0.8692
11604SOL    HW135668   1.642   2.546   3.359  2.0372  0.9702  0.6114
11604SOL    HW235669   1.556   2.547   3.484  0.4855 -1.9792 -0.3392
11605SOL     OW35670   2.138   1.586   1.806 -0.3716 -0.0240  0.1283
11605SOL    HW135671   2.056   1.624   1.838 -0.2500 -0.6664  1.2549
11605SOL    HW235672   2.182   1.556   1.885  0.4660 -0.6522 -0.5690
11606SOL     OW35673   0.709   2.131   0.235  0.0631  0.0201  0.1347
11606SOL    HW135674   0.782   2.108   0.292  0.6401  2.2036  0.3626
11606SOL    HW235675   0.633   2.136   0.294  0.3916  0.9525  0.4878
11607SOL     OW35676   0.665   2.376   7.842  0.0243 -0.0122  0.1538
11607SOL    HW135677   0.580   2.353   7.803  0.3568 -1.6465  0.3172
11607SOL    HW235678   0.703   2.292   7.867  1.5771  0.7195  0.3492
11608SOL     OW35679   4.015   7.447   7.260  0.2019  0.2224  0.0427
11608SOL    HW135680   3.957   7.386   7.305  0.6225 -1.3392 -1.4291
11608SOL    HW235681   3.960   7.491   7.196  0.5399 -1.1158 -1.2173
11609SOL     OW35682   6.299   0.375   3.579  0.0865 -0.4304 -0.3481
11609SOL    HW135683   6.205   0.369   3.565  0.0679 -0.2799 -0.2922
11609SOL    HW235684   6.331   0.285   3.568  0.2439 -0.1732 -2.5122
11610SOL     OW35685   2.818   5.480   5.528 -0.2606 -0.4165  0.2374
11610SOL    HW135686   2.811   5.515   5.439  0.4187  1.1468  0.7601
11610SOL    HW235687   2.786   5.390   5.521  0.4500 -0.5753 -1.7323
11611SOL     OW35688   4.377   7.173   7.769  0.6599 -0.4337 -0.0237
11611SOL    HW135689   4.356   7.201   7.858  0.1870  0.8569 -0.5160
11611SOL    HW235690   4.454   7.117   7.779 -1.5337 -3.4359  1.5898
11612SOL     OW35691   4.400   2.978   2.334  0.1747  0.2079 -0.6205
11612SOL    HW135692   4.327   2.959   2.392  1.8830 -1.5732  1.1233
11612SOL    HW235693   4.452   2.898   2.334  1.5734  1.0259 -2.6604
11613SOL     OW35694   2.133   4.823   0.199  0.1310  0.4014  0.3736
11613SOL    HW135695   2.070   4.771   0.249 -0.4854  1.2683  0.5287
11613SOL    HW235696   2.144   4.902   0.251 -0.2285  1.1529 -0.6615
11614SOL     OW35697   3.253   7.198   0.019 -1.3017  0.2530  0.1868
11614SOL    HW135698   3.290   7.115  -0.011 -0.9202  0.7127 -0.6444
11614SOL    HW235699   3.173   7.209  -0.032 -1.2110  0.5219  0.0999
11615SOL     OW35700   2.657   4.326   7.030  0.2052  0.1593 -0.2244
11615SOL    HW135701   2.703   4.401   7.069  0.1297 -0.6849  1.6147
11615SOL    HW235702   2.657   4.260   7.100 -2.5788 -0.3826 -0.6525
11616SOL     OW35703   0.789   6.551   3.855 -0.6876  0.3696 -0.3255
11616SOL    HW135704   0.730   6.495   3.905 -0.6778  1.7269  1.2890
11616SOL    HW235705   0.858   6.493   3.825 -1.5516 -0.7833 -0.1503
11617SOL     OW35706   5.050   0.443   3.693 -0.3472  0.0397 -0.0691
11617SOL    HW135707   4.994   0.428   3.617  2.0987 -1.4910 -1.6812
11617SOL    HW235708   5.117   0.503   3.663 -0.1340  0.5492  1.3369
11618SOL     OW35709   1.110   0.156   4.156 -0.4327  0.1231 -0.1729
11618SOL    HW135710   1.121   0.061   4.157  0.4007  0.2139  0.3876
11618SOL    HW235711   1.052   0.174   4.230 -0.8568  0.0282 -0.4781
11619SOL     OW35712   7.828   5.208   5.985  0.0358  0.1617 -0.0648
11619SOL    HW135713   7.769   5.158   5.928  1.0467 -1.6191  0.3973
11619SOL    HW235714   7.835   5.294   5.942 -1.6513 -0.0957 -0.9407
11620SOL     OW35715   1.478   0.996   1.347 -0.1065 -0.0021 -0.5489
11620SOL    HW135716   1.518   1.053   1.412 -0.4743 -0.8291  0.4339
11620SOL    HW235717   1.388   0.983   1.379  0.0294 -1.2711 -0.6493
11621SOL     OW35718   5.150   4.781   7.425 -0.4847 -0.3855 -0.0746
11621SOL    HW135719   5.065   4.790   7.469 -0.8470  1.1130 -1.0221
11621SOL    HW235720   5.205   4.848   7.465 -0.8504  1.0706 -1.8898
11622SOL     OW35721   7.813   7.606   2.701  0.1884  0.0737  0.1520
11622SOL    HW135722   7.766   7.531   2.737  1.6050 -0.9060  0.0360
11622SOL    HW235723   7.747   7.654   2.650 -1.0493 -0.3387  1.3087
11623SOL     OW35724   3.869   7.826   0.702 -0.2396 -0.0049 -0.5723
11623SOL    HW135725   3.850   7.903   0.650  0.4373  0.9330  0.5123
11623SOL    HW235726   3.932   7.856   0.767 -0.5538 -1.2830  0.3691
11624SOL     OW35727   0.080   3.211   7.463 -0.7387 -0.5359 -0.1413
11624SOL    HW135728   0.039   3.134   7.503 -2.8726  0.5712 -0.0770
11624SOL    HW235729   0.051   3.209   7.372 -0.6326  0.0836 -0.1929
11625SOL     OW35730   3.200   6.898   2.185  0.0370  0.1458 -0.2093
11625SOL    HW135731   3.133   6.844   2.143 -0.1275 -0.4353  0.7642
11625SOL    HW235732   3.263   6.835   2.221 -0.0865  0.5974  0.8391
11626SOL     OW35733   5.883   4.601   7.091 -0.5600 -0.7870 -0.2054
11626SOL    HW135734   5.966   4.571   7.128  0.4990  0.4979 -1.4174
11626SOL    HW235735   5.885   4.696   7.104 -1.5437 -0.6692 -0.8211
11627SOL     OW35736   3.570   5.422   2.704  0.6806 -0.1287 -0.0885
11627SOL    HW135737   3.656   5.465   2.710  0.5004  0.3118 -0.6320
11627SOL    HW235738   3.566   5.367   2.782  0.5736  1.4555  1.0769
11628SOL     OW35739   7.138   2.827   6.416 -0.6171 -0.1753 -0.3564
11628SOL    HW135740   7.079   2.768   6.464  0.1612 -1.6119 -1.1036
11628SOL    HW235741   7.222   2.816   6.460 -0.7812  1.5941  0.4746
11629SOL     OW35742   1.874   3.839   2.672 -0.0457 -0.3714  0.2370
11629SOL    HW135743   1.787   3.799   2.663  0.2583 -0.9156 -0.3379
11629SOL    HW235744   1.866   3.924   2.627  0.1184 -1.0466 -1.1167
11630SOL     OW35745   2.928   7.479   1.288  0.2863  0.2957 -0.0102
11630SOL    HW135746   2.876   7.472   1.368  0.8209 -0.0824  0.3075
11630SOL    HW235747   3.016   7.454   1.314  0.3798 -0.2396 -0.8139
11631SOL     OW35748   7.392   5.741   1.222 -0.3389 -0.1115 -0.1536
11631SOL    HW135749   7.396   5.711   1.132  0.1312 -0.8760  0.1113
11631SOL    HW235750   7.313   5.795   1.227 -0.3459 -0.0383 -1.0222
11632SOL     OW35751   5.151   6.046   5.204 -0.2346 -0.0367  0.5207
11632SOL    HW135752   5.066   6.089   5.207 -0.0063  0.3829  1.5439
11632SOL    HW235753   5.201   6.087   5.274  0.8581 -0.1960 -0.1480
11633SOL     OW35754   7.079   3.287   7.599  0.1351  0.0001 -0.5123
11633SOL    HW135755   6.996   3.256   7.564  0.0511  0.0782 -0.3832
11633SOL    HW235756   7.057   3.321   7.686  0.8583 -3.3212  1.1250
11634SOL     OW35757   0.994   2.603   4.224  0.0073 -0.2042  0.0461
11634SOL    HW135758   1.047   2.593   4.145  1.2616 -0.4959  0.8952
11634SOL    HW235759   1.026   2.534   4.283 -0.7491  0.1512  0.8925
11635SOL     OW35760   2.922   4.317   6.339  0.0628  0.1371 -0.1695
11635SOL    HW135761   3.000   4.298   6.392  0.5898  1.4523 -0.4339
11635SOL    HW235762   2.948   4.391   6.284 -0.6966 -0.7468 -1.7811
11636SOL     OW35763   3.099   4.723   7.001  0.1584 -0.1184 -0.5672
11636SOL    HW135764   3.013   4.751   6.969 -1.0823  0.0685  2.5744
11636SOL    HW235765   3.100   4.629   6.987 -0.2222 -0.0090 -1.3722
11637SOL     OW35766   1.222   0.746   5.142  0.4482  0.0861 -0.2743
11637SOL    HW135767   1.203   0.837   5.165 -1.0071 -0.1224 -0.5633
11637SOL    HW235768   1.154   0.722   5.079  1.2105 -1.0006 -0.7143
11638SOL     OW35769   2.429   1.807   7.559 -0.4254 -0.4811 -0.4469
11638SOL    HW135770   2.409   1.735   7.619 -1.6314 -0.3675 -0.6794
11638SOL    HW235771   2.420   1.769   7.472 -0.3699 -0.2323 -0.5621
11639SOL     OW35772   6.785   5.440   1.921  0.1495  0.1621  0.3276
11639SOL    HW135773   6.824   5.446   2.008  0.5211  1.2891  0.1003
11639SOL    HW235774   6.817   5.518   1.875 -0.2577 -0.2752 -0.7277
11640SOL     OW35775   4.294   6.215   5.813  0.3427 -0.5909 -0.0009
11640SOL    HW135776   4.283   6.190   5.905 -0.2845  1.5078  0.5511
11640SOL    HW235777   4.363   6.281   5.815 -1.0160  0.9261 -0.7061
11641SOL     OW35778   5.624   5.829   3.565  0.1531 -0.0043 -0.2749
11641SOL    HW135779   5.561   5.897   3.543 -0.1792 -0.4331 -0.6613
11641SOL    HW235780   5.576   5.770   3.624  0.5476  0.2784  0.3505
11642SOL     OW35781   2.910   4.239   0.371 -0.0480 -0.0306  0.3335
11642SOL    HW135782   2.841   4.249   0.437 -0.5422 -1.2619  0.0134
11642SOL    HW235783   2.984   4.202   0.420 -0.2544 -0.4918  0.3028
11643SOL     OW35784   3.482   2.356   0.076  0.7138  0.3821 -0.5480
11643SOL    HW135785   3.528   2.276   0.053 -0.5855 -0.5747  0.0406
11643SOL    HW235786   3.465   2.347   0.170 -2.1286 -0.1406 -1.0233
11644SOL     OW35787   0.833   0.358   4.535 -0.4853 -0.0131 -0.6406
11644SOL    HW135788   0.914   0.360   4.585  0.9343 -0.4617 -2.7860
11644SOL    HW235789   0.789   0.440   4.556 -0.1516 -0.3427  1.5439
11645SOL     OW35790   0.415   7.180   5.631  0.3310 -0.0424 -0.5193
11645SOL    HW135791   0.364   7.116   5.581 -0.8623 -0.1950  0.8443
11645SOL    HW235792   0.384   7.265   5.601 -0.7194 -0.1359  0.2657
11646SOL     OW35793   7.757   0.842   4.148  0.2066  0.0317  0.4003
11646SOL    HW135794   7.765   0.748   4.162 -1.0245 -0.2379 -0.5732
11646SOL    HW235795   7.663   0.858   4.142  0.3624  1.4389  1.1640
11647SOL     OW35796   2.460   5.188   3.419 -0.1125  0.1737 -0.0456
11647SOL    HW135797   2.377   5.147   3.395 -0.2150  0.1548  0.3473
11647SOL    HW235798   2.475   5.162   3.510  0.8346 -0.6970 -0.4203
11648SOL     OW35799   5.549   5.417   1.052 -0.4651  0.3017  0.5808
11648SOL    HW135800   5.461   5.442   1.022 -0.3668  0.1523  0.1640
11648SOL    HW235801   5.561   5.328   1.019 -0.0289  0.4378  0.3619
11649SOL     OW35802   2.816   3.025   5.993 -0.1144  0.2474 -0.4028
11649SOL    HW135803   2.797   3.108   6.035 -1.7513 -0.1597 -0.2615
11649SOL    HW235804   2.866   2.975   6.058  0.0524  0.7562 -0.1374
11650SOL     OW35805   2.896   0.282   5.573 -0.0853 -0.2673 -0.6778
11650SOL    HW135806   2.950   0.213   5.612  0.2784  0.7313  0.6555
11650SOL    HW235807   2.816   0.238   5.546  0.5785 -1.4054 -0.8494
11651SOL     OW35808   7.320   1.047   6.814  0.0591  0.1838  0.1968
11651SOL    HW135809   7.316   1.137   6.782  1.0772 -0.1320 -0.9043
11651SOL    HW235810   7.229   1.019   6.821 -0.2730  1.3308  0.6945
11652SOL     OW35811   6.736   6.639   5.376  0.3071 -0.5230 -0.5928
11652SOL    HW135812   6.821   6.684   5.376  1.2087 -2.1041  0.3552
11652SOL    HW235813   6.726   6.607   5.466 -1.7515  0.3878 -0.4453
11653SOL     OW35814   6.300   6.167   5.225 -0.1740  0.0803  0.3207
11653SOL    HW135815   6.253   6.148   5.307 -1.0827 -0.4626 -0.3067
11653SOL    HW235816   6.361   6.094   5.216  1.8761  1.5019  1.8650
11654SOL     OW35817   6.886   4.376   1.368 -0.1329 -0.5222 -0.4254
11654SOL    HW135818   6.872   4.308   1.301 -0.2539  0.1354 -1.0841
11654SOL    HW235819   6.866   4.458   1.323  3.4176  0.3197 -0.7660
11655SOL     OW35820   4.733   2.277   4.071 -0.0999  0.2343 -0.7965
11655SOL    HW135821   4.773   2.313   3.992  1.1267 -0.0996 -0.3537
11655SOL    HW235822   4.748   2.183   4.065  0.6926  0.2710  0.1667
11656SOL     OW35823   5.892   3.823   4.075 -0.2596 -0.0110  0.3119
11656SOL    HW135824   5.987   3.824   4.087 -0.4004  0.8147  1.4999
11656SOL    HW235825   5.867   3.915   4.077 -0.7043  0.1631 -3.8034
11657SOL     OW35826   5.876   5.032   3.714 -0.1787 -0.7770 -0.3904
11657SOL    HW135827   5.805   5.053   3.775  1.2313  1.3155  0.6729
11657SOL    HW235828   5.865   5.095   3.643 -0.3219 -1.5416 -1.0569
11658SOL     OW35829   6.514   4.716   4.931 -0.0847 -0.3120 -0.0890
11658SOL    HW135830   6.495   4.642   4.989 -1.4451 -0.1611 -0.2937
11658SOL    HW235831   6.609   4.722   4.930  0.0632 -2.0735 -0.0799
11659SOL     OW35832   7.507   1.282   2.657  0.1998  0.6137 -0.0804
11659SOL    HW135833   7.537   1.372   2.673 -0.8100  0.7332  1.3078
11659SOL    HW235834   7.435   1.291   2.595  0.4802  0.6952 -0.3996
11660SOL     OW35835   7.344   0.929   2.636 -0.0836 -0.0347 -0.0522
11660SOL    HW135836   7.367   0.991   2.705  0.3358 -0.8101  0.5174
11660SOL    HW235837   7.372   0.844   2.669 -0.5955 -0.5300 -0.8448
11661SOL     OW35838   6.103   1.320   7.060  0.0865 -0.3538 -0.0949
11661SOL    HW135839   6.096   1.241   7.007 -1.1110  1.8878 -3.6081
11661SOL    HW235840   6.014   1.354   7.064  1.0234  2.7013 -2.0097
11662SOL     OW35841   2.635   5.981   2.740 -0.0004 -0.1549  0.3301
11662SOL    HW135842   2.615   6.020   2.825 -0.1017  2.0986 -0.6639
11662SOL    HW235843   2.645   5.888   2.758  0.4010  0.3213  2.8712
11663SOL     OW35844   1.294   4.630   2.051  0.3533  0.0690 -0.4315
11663SOL    HW135845   1.375   4.610   2.005  0.3378  1.7185 -1.2391
11663SOL    HW235846   1.322   4.665   2.136  0.4941  0.5299 -0.6654
11664SOL     OW35847   2.038   1.052   0.867 -0.0198 -0.1763 -0.4574
11664SOL    HW135848   1.981   1.121   0.902  1.0810 -0.9253  3.3343
11664SOL    HW235849   1.981   0.977   0.855 -0.5306  0.2543 -0.7627
11665SOL     OW35850   2.187   1.589   2.485 -0.6758  0.4407  0.8719
11665SOL    HW135851   2.244   1.522   2.523  0.1308  0.8725  0.4516
11665SOL    HW235852   2.103   1.546   2.475 -0.2597 -0.4024  0.9334
11666SOL     OW35853   4.171   0.574   5.727  0.0661 -0.3142  0.0522
11666SOL    HW135854   4.093   0.616   5.692 -0.5631 -1.3713  0.1294
11666SOL    HW235855   4.242   0.607   5.673 -0.4711  0.4048 -0.2404
11667SOL     OW35856   5.830   1.938   4.577 -0.0381 -0.0827 -0.0208
11667SOL    HW135857   5.762   1.981   4.524 -1.0619 -0.1994  1.1294
11667SOL    HW235858   5.836   1.850   4.541  0.5047  0.3376 -1.0045
11668SOL     OW35859   2.118   5.785   2.885  0.1010  0.6886  0.3935
11668SOL    HW135860   2.108   5.877   2.911  1.1079  0.9933 -0.2723
11668SOL    HW235861   2.209   5.777   2.857 -0.5407  0.0408 -1.6907
11669SOL     OW35862   5.448   3.625   5.127 -0.5020  0.1488 -0.6173
11669SOL    HW135863   5.529   3.666   5.158  0.5612 -2.9528  1.3097
11669SOL    HW235864   5.455   3.627   5.032  1.8099  0.1503 -0.5149
11670SOL     OW35865   3.017   1.722   3.975  0.3693 -0.1024  0.3424
11670SOL    HW135866   2.953   1.687   3.913 -2.4856 -0.9300  3.4769
11670SOL    HW235867   3.070   1.646   4.000  1.6531  0.2709 -1.1015
11671SOL     OW35868   2.277   7.960   4.850 -0.2040 -0.2135 -0.2483
11671SOL    HW135869   2.263   7.989   4.760 -0.1764 -1.5038 -0.6956
11671SOL    HW235870   2.189   7.957   4.889 -0.0410  2.5590  0.5428
11672SOL     OW35871   2.467   3.927   2.447  0.1759 -0.0416  0.0999
11672SOL    HW135872   2.372   3.930   2.441 -0.0906  1.2135  3.1018
11672SOL    HW235873   2.493   4.016   2.470  1.8897 -0.7246  1.0439
11673SOL     OW35874   2.543   2.926   4.818  0.6170  0.2705 -0.3742
11673SOL    HW135875   2.474   2.972   4.866  0.7158 -0.2923  0.3157
11673SOL    HW235876   2.607   2.902   4.885  2.2104  2.0070 -1.1702
11674SOL     OW35877   2.875   1.309   7.943 -0.4332 -0.1439 -0.0242
11674SOL    HW135878   2.802   1.353   7.987 -0.0508  1.0856 -0.5826
11674SOL    HW235879   2.894   1.233   7.999 -1.3811  0.1539  0.7327
11675SOL     OW35880   0.051   6.767   4.846  0.2515  0.0850  0.6263
11675SOL    HW135881   0.141   6.760   4.877 -0.3019 -0.8535  2.1858
11675SOL    HW235882   0.037   6.860   4.831  1.2347  0.3272  1.1719
11676SOL     OW35883   0.586   7.569   2.309 -0.1013 -0.1104 -0.0644
11676SOL    HW135884   0.559   7.577   2.401 -4.2951  3.4006 -1.2505
11676SOL    HW235885   0.669   7.616   2.305 -0.7338  1.3222  1.7290
11677SOL     OW35886   5.960   0.716   5.047 -0.4916  0.4060 -0.2484
11677SOL    HW135887   6.045   0.695   5.008  0.7997  0.4242  2.3498
11677SOL    HW235888   5.955   0.812   5.043 -0.4088  0.4003 -0.4730
11678SOL     OW35889   5.373   7.024   2.677  0.0141  0.0579  0.5036
11678SOL    HW135890   5.291   6.983   2.706 -0.8189  0.0130 -1.7139
11678SOL    HW235891   5.355   7.118   2.680  0.2268  0.0871  0.9330
11679SOL     OW35892   4.302   7.333   0.396 -0.4142  0.0421 -0.1059
11679SOL    HW135893   4.230   7.328   0.333  0.1793  0.5127 -0.8445
11679SOL    HW235894   4.359   7.401   0.360  0.5268 -0.5040  0.3363
11680SOL     OW35895   7.873   7.681   3.948  0.6389  0.4354  0.0262
11680SOL    HW135896   7.912   7.750   4.002 -0.3753  0.9711  0.0975
11680SOL    HW235897   7.880   7.714   3.859 -1.0470  1.2844  0.1634
11681SOL     OW35898   5.977   4.115   3.713  0.2530  0.0857  0.0255
11681SOL    HW135899   5.920   4.071   3.651  0.6517 -1.2647  0.5794
11681SOL    HW235900   6.032   4.046   3.749  0.8973  1.0367  0.9487
11682SOL     OW35901   3.865   3.819   0.824 -0.0645  0.1528  0.5345
11682SOL    HW135902   3.793   3.849   0.880 -1.0798  1.4222 -1.2995
11682SOL    HW235903   3.941   3.815   0.882 -1.2533  0.4087  2.1888
11683SOL     OW35904   7.869   6.800   1.857 -0.2152 -0.4602 -0.1347
11683SOL    HW135905   7.787   6.790   1.905  0.0758 -0.7434  0.3140
11683SOL    HW235906   7.921   6.859   1.912 -0.3776  0.2713 -0.7567
11684SOL     OW35907   6.916   7.623   4.016 -0.5679 -0.0830 -0.1520
11684SOL    HW135908   6.878   7.695   4.066 -2.8428 -1.6885  0.6122
11684SOL    HW235909   6.848   7.598   3.954  1.3347  0.3533 -2.5663
11685SOL     OW35910   5.871   7.514   2.796 -0.6405 -0.2202  0.5999
11685SOL    HW135911   5.796   7.496   2.739 -0.2346 -0.8258  0.2534
11685SOL    HW235912   5.838   7.498   2.885 -0.9745 -0.2988  0.4647
11686SOL     OW35913   6.100   2.068   4.391 -0.3848  0.1069 -0.0019
11686SOL    HW135914   6.068   1.989   4.346 -0.1521 -0.0267  0.0670
11686SOL    HW235915   6.033   2.134   4.372 -2.6530 -1.0651  3.1388
11687SOL     OW35916   6.112   1.012   1.059 -0.1357  0.4004  0.1187
11687SOL    HW135917   6.106   1.002   0.964 -1.9255  0.4650  0.1808
11687SOL    HW235918   6.192   0.967   1.083  0.5764  0.7443 -1.4684
11688SOL     OW35919   7.531   4.648   2.145 -0.0895 -1.0844  0.2104
11688SOL    HW135920   7.439   4.642   2.118 -0.3473 -3.3838  1.3174
11688SOL    HW235921   7.549   4.742   2.148 -2.5705 -0.5397  0.4852
11689SOL     OW35922   7.263   2.315   7.880 -0.9814 -0.3082 -0.0093
11689SOL    HW135923   7.177   2.341   7.913 -1.1868 -1.0269  0.0273
11689SOL    HW235924   7.319   2.316   7.958 -0.4754  2.0296 -0.3261
11690SOL     OW35925   0.014   7.693   5.279  0.9590 -0.4494  0.0819
11690SOL    HW135926   0.033   7.770   5.333 -0.8432  0.8428 -1.0300
11690SOL    HW235927   0.075   7.699   5.205  0.1948  0.4761 -0.4940
11691SOL     OW35928   7.406   2.000   7.149  0.4112 -0.5065 -0.3715
11691SOL    HW135929   7.318   1.963   7.143 -0.3902  1.3043 -0.4035
11691SOL    HW235930   7.465   1.925   7.136 -1.1021 -1.8392  0.1607
11692SOL     OW35931   6.364   4.168   7.990  0.3818 -0.2827  0.0966
11692SOL    HW135932   6.370   4.255   7.951  1.7648 -0.4824 -0.1820
11692SOL    HW235933   6.285   4.129   7.952  1.1899 -0.1350 -1.7887
11693SOL     OW35934   6.086   0.024   1.775  0.5639  0.3888 -0.0988
11693SOL    HW135935   6.053  -0.058   1.738  1.4279 -0.1214  0.2229
11693SOL    HW235936   6.044   0.031   1.860 -1.4146  1.5542 -1.1056
11694SOL     OW35937   6.733   3.779   7.295  0.1668 -0.4596 -0.0835
11694SOL    HW135938   6.793   3.722   7.247 -0.2119  0.5792 -1.9252
11694SOL    HW235939   6.781   3.862   7.302 -1.8741  1.3315 -4.1017
11695SOL     OW35940   5.769   7.664   4.588  0.0571  0.6962  0.8047
11695SOL    HW135941   5.788   7.571   4.603 -0.3017  0.4283 -0.2818
11695SOL    HW235942   5.854   7.707   4.593  0.5566 -0.0168 -0.8329
11696SOL     OW35943   4.204   2.864   7.299  0.9608 -0.0629  0.0523
11696SOL    HW135944   4.275   2.928   7.302  1.3403 -0.5017  1.4545
11696SOL    HW235945   4.138   2.903   7.242  0.3494  2.4767  2.3120
11697SOL     OW35946   6.400   2.223   1.452 -0.2583  0.0852  0.3204
11697SOL    HW135947   6.305   2.229   1.462 -0.2933 -0.3391  0.2459
11697SOL    HW235948   6.429   2.314   1.452 -0.7726  0.2667 -0.6269
11698SOL     OW35949   5.182   5.405   2.398 -0.0704  0.0011  0.0057
11698SOL    HW135950   5.207   5.322   2.358  0.4541  0.4680 -0.6598
11698SOL    HW235951   5.262   5.458   2.396 -0.2191  0.2851  1.0519
11699SOL     OW35952   0.077   7.799   2.093 -0.2849 -0.2644  0.2688
11699SOL    HW135953   0.105   7.708   2.104 -1.1063 -0.3533  2.2475
11699SOL    HW235954   0.110   7.843   2.172 -0.5522  0.9788 -0.2961
11700SOL     OW35955   6.894   5.613   6.154  0.5574 -0.3968 -0.2019
11700SOL    HW135956   6.890   5.701   6.117  1.3362 -0.4425 -0.4016
11700SOL    HW235957   6.847   5.558   6.090  0.3875 -0.1925 -0.2552
11701SOL     OW35958   2.422   3.227   2.772  0.0544  0.2965 -0.0275
11701SOL    HW135959   2.413   3.164   2.843 -1.1285  0.5611  0.0869
11701SOL    HW235960   2.351   3.206   2.711  0.8362  0.2950 -0.9657
11702SOL     OW35961   5.646   3.508   0.036 -0.0329 -0.4452 -0.2096
11702SOL    HW135962   5.624   3.570   0.106  0.4437  0.5746 -0.9386
11702SOL    HW235963   5.597   3.429   0.059  1.2482 -0.6635  2.0625
11703SOL     OW35964   5.922   4.543   6.548 -0.0464  0.2474 -0.3980
11703SOL    HW135965   5.930   4.511   6.638 -1.1403 -1.8702 -0.9752
11703SOL    HW235966   6.006   4.522   6.507 -0.1188 -0.2836 -0.2839
11704SOL     OW35967   5.351   2.726   4.611  0.4557  0.0691 -0.1302
11704SOL    HW135968   5.267   2.735   4.565  0.5393  0.7668 -0.1587
11704SOL    HW235969   5.401   2.803   4.583  1.1024 -0.3365 -0.1037
11705SOL     OW35970   4.318   0.789   2.967  0.6139  0.0155  1.0494
11705SOL    HW135971   4.345   0.856   3.030 -1.7405  1.1782  0.9486
11705SOL    HW235972   4.355   0.820   2.883 -1.1648  1.7561  0.8406
11706SOL     OW35973   7.030   5.834   7.104  0.0062  0.4311 -0.1051
11706SOL    HW135974   6.988   5.917   7.125 -0.4307  0.6233 -1.6511
11706SOL    HW235975   7.105   5.829   7.164 -1.1211  0.9422  1.4246
11707SOL     OW35976   0.170   6.082   5.310  0.5845  0.1873  0.3386
11707SOL    HW135977   0.166   6.133   5.229 -0.8067 -0.9822 -0.3940
11707SOL    HW235978   0.191   5.993   5.280 -0.3355 -0.3407  1.2044
11708SOL     OW35979   4.497   4.284   6.513 -0.7419 -0.7233 -0.5853
11708SOL    HW135980   4.582   4.317   6.483 -1.4838 -0.2481 -2.2785
11708SOL    HW235981   4.456   4.359   6.556  0.9877 -1.8118  3.4666
11709SOL     OW35982   2.146   2.813   1.078 -0.1603 -0.9310 -0.5432
11709SOL    HW135983   2.086   2.873   1.033  0.1447  0.2081  0.5150
11709SOL    HW235984   2.095   2.780   1.153  0.0729 -1.0558 -0.4378
11710SOL     OW35985   5.698   5.374   6.468  0.0653 -0.7493  0.2128
11710SOL    HW135986   5.664   5.463   6.475 -0.5484 -0.9336 -0.3422
11710SOL    HW235987   5.780   5.383   6.419  0.1459 -0.4610  0.3987
11711SOL     OW35988   1.044   7.005   1.686  0.3365 -0.4079 -0.2925
11711SOL    HW135989   1.047   6.911   1.673  0.9588 -0.7174  1.6772
11711SOL    HW235990   0.955   7.031   1.660 -0.0007 -1.6108 -0.3738
11712SOL     OW35991   0.502   3.740   4.484  0.7221  0.2115  0.1463
11712SOL    HW135992   0.478   3.647   4.490  0.9138  0.2491  2.8254
11712SOL    HW235993   0.438   3.785   4.539  0.7832  1.6663 -0.9154
11713SOL     OW35994   1.845   6.112   0.907 -0.4484  0.8338 -0.2207
11713SOL    HW135995   1.851   6.035   0.851  1.8728  1.8495 -1.4996
11713SOL    HW235996   1.906   6.096   0.978 -0.2408  1.3130 -0.2824
11714SOL     OW35997   4.335   3.523   2.455 -0.1765 -0.0843 -0.7097
11714SOL    HW135998   4.384   3.449   2.492 -1.6603 -1.4378 -1.3321
11714SOL    HW235999   4.391   3.557   2.386  0.9630  0.0225  0.2456
11715SOL     OW36000   4.962   7.897   4.340 -0.2412 -0.1287  0.0548
11715SOL    HW136001   4.893   7.831   4.341  1.6762 -2.2598 -0.7533
11715SOL    HW236002   5.043   7.848   4.324  1.8023  1.9852  2.8294
11716SOL     OW36003   4.522   4.196   3.764 -0.1860  0.5408  0.2260
11716SOL    HW136004   4.504   4.204   3.857  0.3957 -1.8183  0.6113
11716SOL    HW236005   4.461   4.129   3.733  0.7844  0.0351 -0.6838
11717SOL     OW36006   5.767   6.165   3.559 -0.0308  0.0700 -0.3210
11717SOL    HW136007   5.813   6.097   3.609 -0.0498 -0.8395 -1.4963
11717SOL    HW236008   5.744   6.231   3.624  1.7138 -0.1039  0.5517
11718SOL     OW36009   5.669   6.354   4.414  0.0425  0.1312  0.7491
11718SOL    HW136010   5.654   6.438   4.370 -1.0204 -0.5644 -0.3023
11718SOL    HW236011   5.743   6.316   4.367  2.1859  1.5005  2.8367
11719SOL     OW36012   3.368   7.857   3.715  0.3371  0.9051 -0.0099
11719SOL    HW136013   3.358   7.816   3.801 -0.8440  1.3288  0.0616
11719SOL    HW236014   3.444   7.813   3.677 -0.4476 -0.8372  0.3503
11720SOL     OW36015   4.196   7.821   7.444 -0.2131 -0.6840  0.5545
11720SOL    HW136016   4.192   7.726   7.430  0.1069 -0.6477  0.1975
11720SOL    HW236017   4.181   7.832   7.538  3.0204 -1.3344  1.2729
11721SOL     OW36018   5.384   6.029   1.212  0.1596 -0.5839 -0.1020
11721SOL    HW136019   5.423   5.990   1.290  0.7815  1.0057  0.4245
11721SOL    HW236020   5.444   6.006   1.141 -0.6836 -2.4789 -0.2385
11722SOL     OW36021   5.059   0.832   7.631  0.9857 -0.2323  0.0526
11722SOL    HW136022   5.009   0.752   7.615  1.5780 -1.0295  1.9531
11722SOL    HW236023   5.037   0.889   7.557 -1.1040 -1.3370 -0.2554
11723SOL     OW36024   2.990   2.007   7.388  0.5960  0.6124 -0.2109
11723SOL    HW136025   2.954   2.084   7.431  0.6941  1.0919 -0.9801
11723SOL    HW236026   3.049   1.969   7.453  0.2414  0.9572  0.3162
11724SOL     OW36027   3.304   6.337   3.149 -0.0650  0.7048  0.4464
11724SOL    HW136028   3.325   6.430   3.159  0.9431  0.9272 -2.6007
11724SOL    HW236029   3.237   6.335   3.081 -0.9645 -0.7590  1.3332
11725SOL     OW36030   7.592   0.483   1.047  0.6509 -0.0435 -0.1539
11725SOL    HW136031   7.581   0.559   1.104  0.8606  0.4512 -0.7542
11725SOL    HW236032   7.600   0.409   1.107 -1.4623  0.1327  0.3981
11726SOL     OW36033   2.551   1.643   6.310  0.2920  0.0516  0.2438
11726SOL    HW136034   2.616   1.661   6.379 -0.0878 -1.8619  1.1741
11726SOL    HW236035   2.467   1.652   6.354  0.0026  0.0932 -0.3133
11727SOL     OW36036   7.530   1.750   0.123 -0.1714 -0.2400  0.2724
11727SOL    HW136037   7.453   1.695   0.106  0.5593 -1.4987  0.8620
11727SOL    HW236038   7.511   1.832   0.078 -2.0609 -0.3372  0.8129
11728SOL     OW36039   4.184   6.674   5.507  0.0804 -0.4632  0.5459
11728SOL    HW136040   4.195   6.685   5.602 -1.1756 -1.0944  0.7849
11728SOL    HW236041   4.250   6.609   5.483 -0.0790 -0.8490  1.1246
11729SOL     OW36042   0.999   5.979   2.790  0.7012  0.0271  0.2579
11729SOL    HW136043   0.971   5.887   2.784  0.9148 -0.0960  1.0685
11729SOL    HW236044   0.933   6.020   2.847  1.7247 -0.0999  1.5895
11730SOL     OW36045   5.732   0.488   3.590 -0.1046  0.7327  0.7583
11730SOL    HW136046   5.809   0.492   3.534 -0.2127 -0.2619  0.5150
11730SOL    HW236047   5.658   0.505   3.531 -0.2545 -0.7396  0.4770
11731SOL     OW36048   3.800   1.229   3.790  0.3371  0.1273 -0.4674
11731SOL    HW136049   3.730   1.244   3.726 -1.1999  0.8273  1.2964
11731SOL    HW236050   3.812   1.134   3.789 -1.0028 -0.0641 -0.4582
11732SOL     OW36051   7.482   3.305   5.158  0.2141  0.4634  0.4922
11732SOL    HW136052   7.391   3.334   5.153  0.0477  0.0683  1.0561
11732SOL    HW236053   7.512   3.304   5.067  0.1503  2.1163  0.4249
11733SOL     OW36054   2.185   2.752   2.699 -0.2198  0.6114  0.2220
11733SOL    HW136055   2.236   2.732   2.621 -0.2064  0.1131  0.3530
11733SOL    HW236056   2.110   2.693   2.695 -0.1602  0.5016  0.6393
11734SOL     OW36057   3.428   2.617   0.049  0.1015  0.5815  0.3330
11734SOL    HW136058   3.459   2.528   0.034 -0.7432  0.5158 -1.1406
11734SOL    HW236059   3.373   2.610   0.127 -0.4932 -0.3310 -0.1503
11735SOL     OW36060   5.600   2.042   4.485  0.0433  0.1194 -0.0392
11735SOL    HW136061   5.543   2.105   4.529 -0.9933 -0.1275 -0.9970
11735SOL    HW236062   5.566   1.956   4.510  1.1617 -0.0841  0.8802
11736SOL     OW36063   4.951   0.316   2.866  0.1236 -0.1810 -0.4535
11736SOL    HW136064   4.969   0.281   2.779  0.7950 -1.1158  0.0407
11736SOL    HW236065   5.009   0.267   2.924  0.8939  1.5651  0.3273
11737SOL     OW36066   3.637   4.252   7.809  0.2788 -0.2750 -0.6161
11737SOL    HW136067   3.567   4.293   7.860 -0.1901 -1.0027 -0.6684
11737SOL    HW236068   3.693   4.326   7.782 -0.9632  0.4372 -1.3382
11738SOL     OW36069   0.570   7.026   7.473 -0.2799  0.1841  0.0117
11738SOL    HW136070   0.559   7.078   7.394 -2.2882  0.1529  0.2095
11738SOL    HW236071   0.570   7.090   7.544  3.8143  0.4474 -0.0151
11739SOL     OW36072   7.596   6.792   5.888  0.2511  0.1778  0.2371
11739SOL    HW136073   7.663   6.740   5.842  0.3654 -1.1809  1.8562
11739SOL    HW236074   7.644   6.866   5.925  0.7123 -0.3120  0.6380
11740SOL     OW36075   7.090   0.809   3.275  0.0028 -0.2816  0.0541
11740SOL    HW136076   7.007   0.785   3.235 -0.3350 -1.3153  1.3087
11740SOL    HW236077   7.091   0.762   3.358  1.2899  0.7031  0.6307
11741SOL     OW36078   1.864   1.987   5.972  0.2238 -0.3752 -0.1381
11741SOL    HW136079   1.777   1.988   6.012  0.0350  1.0075 -0.5525
11741SOL    HW236080   1.872   1.900   5.933 -1.8166  0.1554 -1.9133
11742SOL     OW36081   1.218   7.523   1.105  0.1530 -0.2019  0.0502
11742SOL    HW136082   1.228   7.582   1.031  0.9181 -0.2450  0.1084
11742SOL    HW236083   1.181   7.578   1.175 -0.1773 -0.0624 -0.2346
11743SOL     OW36084   5.371   5.506   4.558 -0.3305  0.0899  0.1087
11743SOL    HW136085   5.416   5.464   4.484 -0.7439  1.2437 -0.8258
11743SOL    HW236086   5.442   5.545   4.609 -0.1574  0.9311 -0.7411
11744SOL     OW36087   1.288   3.161   5.217 -0.4174  0.4844 -0.0376
11744SOL    HW136088   1.250   3.248   5.201 -0.3982  0.4255 -0.4253
11744SOL    HW236089   1.231   3.101   5.170 -0.2911  0.3114  0.0280
11745SOL     OW36090   2.929   2.850   6.170  0.2734 -0.5042  0.3722
11745SOL    HW136091   2.848   2.799   6.163  0.1846 -0.2394 -0.8195
11745SOL    HW236092   2.999   2.786   6.161  0.1705 -0.5346 -0.2486
11746SOL     OW36093   1.208   7.987   6.138 -0.1518 -0.0714 -0.1488
11746SOL    HW136094   1.248   7.900   6.138 -1.5006 -0.7710  1.3858
11746SOL    HW236095   1.114   7.970   6.148 -0.7366  1.5223 -2.1510
11747SOL     OW36096   3.215   7.693   2.095 -0.8879  0.2729 -0.2332
11747SOL    HW136097   3.212   7.603   2.126  1.1065 -0.4540 -1.9368
11747SOL    HW236098   3.129   7.709   2.057 -1.3692 -0.7776  0.3855
11748SOL     OW36099   2.184   3.086   4.193  0.8278  0.3869 -0.1622
11748SOL    HW136100   2.205   3.139   4.116  1.0379  0.5317 -0.0057
11748SOL    HW236101   2.153   3.003   4.157  1.1613  0.3638 -0.4019
11749SOL     OW36102   2.182   6.750   6.903 -0.1574  0.2246  0.1434
11749SOL    HW136103   2.264   6.799   6.896  0.0793 -0.0519  0.8834
11749SOL    HW236104   2.129   6.781   6.830  0.4652  0.6803 -0.1201
11750SOL     OW36105   4.702   1.138   6.908 -0.4344 -0.1120 -0.1233
11750SOL    HW136106   4.727   1.128   6.816  0.5456  1.4579 -0.0555
11750SOL    HW236107   4.666   1.226   6.914  0.4983  0.2210  1.1780
11751SOL     OW36108   1.457   3.649   2.444 -0.0434  0.4091  0.0336
11751SOL    HW136109   1.363   3.654   2.429  0.3056  0.8738 -2.5968
11751SOL    HW236110   1.483   3.568   2.401  0.5529 -0.7074  2.3814
11752SOL     OW36111   0.765   1.601   4.583 -0.0613  0.0790 -0.1168
11752SOL    HW136112   0.754   1.696   4.592  1.5012  0.3242 -0.3769
11752SOL    HW236113   0.785   1.570   4.671  1.2847  0.3067 -0.3182
11753SOL     OW36114   6.495   5.536   4.892  0.3438  0.0182  0.2075
11753SOL    HW136115   6.563   5.470   4.903 -0.8201 -1.6349 -1.7197
11753SOL    HW236116   6.534   5.601   4.833  0.0736 -1.3530 -1.5748
11754SOL     OW36117   7.590   4.304   3.028  1.0300  0.1670  0.1538
11754SOL    HW136118   7.550   4.297   3.115  0.4665  0.8371 -0.0336
11754SOL    HW236119   7.610   4.214   3.003  1.6197  0.0033  1.1629
11755SOL     OW36120   7.539   7.912   1.544  0.0526 -0.6873  0.1039
11755SOL    HW136121   7.610   7.944   1.599  0.0646 -0.0773 -0.2507
11755SOL    HW236122   7.462   7.910   1.601 -0.5033  2.2622 -0.3983
11756SOL     OW36123   1.969   2.425   7.175 -0.2404 -0.4916  0.5611
11756SOL    HW136124   1.975   2.330   7.168  0.1752 -0.3398 -1.7225
11756SOL    HW236125   1.878   2.445   7.150  0.2525 -0.1819 -1.1249
11757SOL     OW36126   3.561   3.465   6.488  0.1943 -0.2371  0.0532
11757SOL    HW136127   3.527   3.462   6.399  2.2416 -0.2937 -0.7917
11757SOL    HW236128   3.541   3.553   6.519 -2.6610 -0.9465  0.5126
11758SOL     OW36129   0.088   6.185   5.984  0.1606 -0.6686  0.2824
11758SOL    HW136130   0.162   6.138   5.946  0.8762 -0.9415  1.9655
11758SOL    HW236131   0.018   6.120   5.991 -0.1766 -0.4808 -1.0314
11759SOL     OW36132   4.442   0.238   3.611 -0.3209  0.2947  0.1607
11759SOL    HW136133   4.412   0.152   3.640  1.4802 -0.6171 -0.5302
11759SOL    HW236134   4.369   0.273   3.561 -0.7949 -1.2037 -0.2418
11760SOL     OW36135   7.967   5.619   2.110 -1.0175 -0.6321 -0.2165
11760SOL    HW136136   7.998   5.684   2.046  2.4132  0.6314  2.4074
11760SOL    HW236137   7.881   5.652   2.137 -0.9916  0.7437 -1.6531
11761SOL     OW36138   6.650   5.194   3.354  0.1227  0.0400 -0.0653
11761SOL    HW136139   6.594   5.118   3.374  1.5686 -0.5050  2.2686
11761SOL    HW236140   6.720   5.158   3.301  0.1006  0.0217 -0.0824
11762SOL     OW36141   7.125   4.765   6.712  0.2035  0.1621  0.0540
11762SOL    HW136142   7.155   4.706   6.643 -0.6988  0.4861 -0.6439
11762SOL    HW236143   7.177   4.741   6.789  0.7481 -0.6680 -0.5546
11763SOL     OW36144   1.245   0.261   6.153  0.1908  0.0194  0.2230
11763SOL    HW136145   1.259   0.283   6.245 -0.2974 -0.6212  0.4671
11763SOL    HW236146   1.222   0.168   6.154  1.0204 -0.2089 -0.6374
11764SOL     OW36147   5.661   0.379   3.068 -0.1856  0.1721  0.2156
11764SOL    HW136148   5.614   0.385   3.151  1.7644 -0.8089  1.4680
11764SOL    HW236149   5.604   0.326   3.012 -0.5409 -1.0933  1.7138
11765SOL     OW36150   3.737   5.231   0.620 -0.5217 -0.1778  0.2740
11765SOL    HW136151   3.712   5.318   0.588  0.3558  0.6926  1.8590
11765SOL    HW236152   3.659   5.197   0.663 -0.3024  0.6769  1.3705
11766SOL     OW36153   3.507   1.683   3.808 -0.1250 -0.4554 -0.0352
11766SOL    HW136154   3.444   1.755   3.807  1.0561  0.6096 -0.1450
11766SOL    HW236155   3.592   1.725   3.795  0.5636 -1.9123 -0.4896
11767SOL     OW36156   5.195   5.739   4.252  0.6758 -0.1339 -0.2576
11767SOL    HW136157   5.218   5.648   4.235  0.2038 -0.6729  1.7090
11767SOL    HW236158   5.100   5.741   4.244  0.5911 -0.0618  0.6968
11768SOL     OW36159   5.623   7.396   0.255 -0.1222  0.4977  0.2401
11768SOL    HW136160   5.683   7.427   0.323 -0.0476 -2.2550  1.5408
11768SOL    HW236161   5.536   7.414   0.290 -0.0976  0.8514  0.1337
11769SOL     OW36162   0.676   5.180   2.010 -0.0207  0.4898  0.0567
11769SOL    HW136163   0.661   5.162   1.917  0.2227  1.2437 -0.1391
11769SOL    HW236164   0.764   5.217   2.013  0.5473 -0.8604  0.7805
11770SOL     OW36165   0.074   3.617   0.185 -0.5079  0.0807 -0.0011
11770SOL    HW136166   0.071   3.522   0.198 -1.3053  0.1210  0.1888
11770SOL    HW236167  -0.018   3.642   0.173 -0.3055  0.8296 -0.0409
11771SOL     OW36168   6.195   1.371   0.419  0.4334  0.4538  0.1268
11771SOL    HW136169   6.286   1.372   0.448  0.0303  1.2929  1.4657
11771SOL    HW236170   6.192   1.434   0.347  0.9324  0.3347 -0.0025
11772SOL     OW36171   3.744   4.329   0.727  0.1785  0.1621  0.1614
11772SOL    HW136172   3.741   4.319   0.631  0.4831  0.5827  0.1051
11772SOL    HW236173   3.808   4.265   0.756 -0.5349 -0.5650  0.1749
11773SOL     OW36174   4.089   0.793   0.891 -0.4864 -0.1786  0.0377
11773SOL    HW136175   4.069   0.886   0.893 -0.8420 -0.2426 -0.4162
11773SOL    HW236176   4.161   0.782   0.954  0.5848  0.6435 -0.9934
11774SOL     OW36177   6.573   6.601   5.611 -0.4390  0.0506 -0.3242
11774SOL    HW136178   6.507   6.548   5.565  0.0018  1.0394 -2.2080
11774SOL    HW236179   6.555   6.691   5.582  1.9520  0.3044 -1.2285
11775SOL     OW36180   7.523   7.419   5.468 -0.1083  0.4099  0.2652
11775SOL    HW136181   7.600   7.370   5.496  0.1432  0.4370 -0.3803
11775SOL    HW236182   7.483   7.449   5.550 -0.6479 -1.4318  0.7020
11776SOL     OW36183   5.396   0.050   5.430 -0.3967 -0.0994  0.3887
11776SOL    HW136184   5.436  -0.024   5.475  1.2444  0.4900 -0.0235
11776SOL    HW236185   5.427   0.043   5.339  0.4871  1.5370  0.5316
11777SOL     OW36186   6.683   5.999   4.849 -0.1207 -0.0709 -0.8957
11777SOL    HW136187   6.669   5.906   4.834  0.2663  0.1230 -2.6024
11777SOL    HW236188   6.679   6.039   4.762  2.8458  1.0988 -0.6014
11778SOL     OW36189   5.004   6.654   2.074 -0.5831 -0.2239 -0.2608
11778SOL    HW136190   5.000   6.742   2.036 -0.7160 -0.1477 -0.0752
11778SOL    HW236191   5.019   6.596   2.000  3.6064  0.2910 -0.0744
11779SOL     OW36192   2.154   6.047   7.187 -0.2428  0.3922  0.2319
11779SOL    HW136193   2.205   6.026   7.108  0.2523  0.7068  0.4618
11779SOL    HW236194   2.172   5.974   7.247 -1.3385 -0.3141 -0.2674
11780SOL     OW36195   6.297   5.958   5.935  0.0242  0.1477 -0.2664
11780SOL    HW136196   6.209   5.964   5.972 -1.1688  0.6231 -2.9190
11780SOL    HW236197   6.298   5.876   5.886  0.7034  0.6201 -1.0776
11781SOL     OW36198   1.560   0.606   0.837  0.5364  0.2658  0.4400
11781SOL    HW136199   1.541   0.515   0.861 -0.8721  0.5339  0.4439
11781SOL    HW236200   1.655   0.609   0.827  0.5659 -1.3149 -0.0279
11782SOL     OW36201   2.807   0.628   2.765  0.1069  0.4634  0.2078
11782SOL    HW136202   2.886   0.681   2.763 -0.2198  0.9684 -1.5879
11782SOL    HW236203   2.837   0.539   2.785  1.5801  0.0700 -3.0451
11783SOL     OW36204   0.203   4.269   1.666  0.0694  0.0759  0.0563
11783SOL    HW136205   0.205   4.296   1.758  0.5066  0.3964 -0.0447
11783SOL    HW236206   0.272   4.204   1.659  0.1300  0.1545 -0.0758
11784SOL     OW36207   4.642   6.344   1.365  0.6164 -0.3850 -0.2248
11784SOL    HW136208   4.582   6.368   1.294 -0.6766 -0.5296  0.7780
11784SOL    HW236209   4.729   6.358   1.328  0.0129 -1.0528 -2.0539
11785SOL     OW36210   2.890   3.837   1.104  0.0101  0.5902  0.2135
11785SOL    HW136211   2.933   3.755   1.128 -0.2651  0.6084  0.7841
11785SOL    HW236212   2.826   3.812   1.038 -0.8556  0.1603  1.2000
11786SOL     OW36213   1.552   5.392   3.947  0.5473  0.5704 -0.3046
11786SOL    HW136214   1.521   5.399   4.037 -0.3877 -1.7672 -0.3612
11786SOL    HW236215   1.530   5.302   3.921 -0.0469  1.4318 -3.1781
11787SOL     OW36216   2.155   7.396   1.740  0.3448 -0.0510 -0.3809
11787SOL    HW136217   2.084   7.410   1.678  0.3213 -0.0895 -0.3631
11787SOL    HW236218   2.170   7.482   1.779 -0.7000 -0.3207  0.6903
11788SOL     OW36219   2.226   4.974   1.339 -0.3581  0.3881  0.0720
11788SOL    HW136220   2.291   4.948   1.405 -0.4915  0.2952  0.1673
11788SOL    HW236221   2.156   4.910   1.348  0.1543 -0.3354 -0.9747
11789SOL     OW36222   2.838   2.390   7.807  0.0309 -0.4654 -0.1118
11789SOL    HW136223   2.925   2.369   7.841  1.1065  0.9488 -1.8708
11789SOL    HW236224   2.821   2.479   7.838 -0.3083 -0.3324 -0.6662
11790SOL     OW36225   4.159   1.058   0.894 -0.2417  0.0254  0.1647
11790SOL    HW136226   4.191   1.098   0.813  0.1344 -0.3904  0.1042
11790SOL    HW236227   4.235   1.012   0.929 -0.9795 -1.7164 -0.4331
11791SOL     OW36228   4.040   2.729   6.784  0.8356 -0.0911  0.0971
11791SOL    HW136229   3.988   2.712   6.863 -0.2750 -2.9132 -1.1031
11791SOL    HW236230   4.115   2.780   6.816  0.1203 -0.5826  2.8607
11792SOL     OW36231   1.528   5.169   3.531  0.7464  0.3674  0.2551
11792SOL    HW136232   1.461   5.135   3.472  2.8295 -0.2457 -1.8986
11792SOL    HW236233   1.487   5.244   3.573 -1.7819 -0.9125  0.2229
11793SOL     OW36234   4.627   6.107   7.659  0.3477  0.3756 -0.1181
11793SOL    HW136235   4.586   6.113   7.572  1.7407  1.5576 -0.7303
11793SOL    HW236236   4.568   6.156   7.716  0.2627  1.0101 -0.7320
11794SOL     OW36237   2.370   5.849   6.112  0.2307 -0.1786  0.1349
11794SOL    HW136238   2.445   5.900   6.143 -0.2095  0.0069  0.9289
11794SOL    HW236239   2.381   5.846   6.017  1.1103  0.0495  0.2171
11795SOL     OW36240   7.586   7.140   7.199  0.4864  0.3934  0.8540
11795SOL    HW136241   7.628   7.168   7.117 -0.5949  0.9443  0.4763
11795SOL    HW236242   7.657   7.140   7.263  1.4729 -0.5869 -0.1912
11796SOL     OW36243   6.703   4.575   3.703 -0.2761  0.0748  0.2816
11796SOL    HW136244   6.787   4.602   3.742 -0.1932  1.4344 -0.7759
11796SOL    HW236245   6.650   4.547   3.777  1.2491 -1.2230  0.9390
11797SOL     OW36246   7.227   7.003   5.854 -0.3462  0.3291  0.8308
11797SOL    HW136247   7.162   7.064   5.888  0.3564  0.9706  1.0447
11797SOL    HW236248   7.182   6.918   5.855 -1.8634  1.0369 -0.9248
11798SOL     OW36249   3.417   1.792   7.318 -0.2755 -0.1115  0.0071
11798SOL    HW136250   3.326   1.762   7.318 -0.4539  0.3606 -1.5142
11798SOL    HW236251   3.412   1.885   7.342 -0.2250 -0.0107 -0.3703
11799SOL     OW36252   0.145   7.257   3.634  0.0359  0.0140 -0.3821
11799SOL    HW136253   0.234   7.233   3.658  0.4031  1.9947  0.4410
11799SOL    HW236254   0.119   7.322   3.699 -1.3496  0.8014 -1.6489
11800SOL     OW36255   6.833   0.624   2.468 -0.0844 -0.6017 -0.8083
11800SOL    HW136256   6.765   0.562   2.494  1.5207 -2.4253 -0.7531
11800SOL    HW236257   6.914   0.585   2.499  0.9885  1.6628 -0.5943
11801SOL     OW36258   7.200   7.537   5.820 -0.0272 -0.0933 -0.0156
11801SOL    HW136259   7.231   7.546   5.910 -0.8059 -0.2276  0.2784
11801SOL    HW236260   7.269   7.489   5.775 -0.7510 -2.4200  1.1876
11802SOL     OW36261   4.586   7.268   1.099  0.6255  0.4867 -0.1514
11802SOL    HW136262   4.513   7.208   1.086  0.0214  1.4518 -1.5193
11802SOL    HW236263   4.652   7.240   1.035  1.7165 -0.6936  1.4138
11803SOL     OW36264   1.004   6.265   0.102 -0.3000 -0.1486  0.5958
11803SOL    HW136265   1.091   6.233   0.081 -0.2957  0.6454 -0.7169
11803SOL    HW236266   1.015   6.360   0.111 -0.9082 -0.1166  1.0466
11804SOL     OW36267   6.341   6.970   0.870  0.2155 -0.1943  0.3655
11804SOL    HW136268   6.364   7.061   0.855  1.8363 -0.7190 -0.5642
11804SOL    HW236269   6.279   6.949   0.800 -2.0635  0.7945  1.9705
11805SOL     OW36270   2.366   5.212   6.144 -0.0528 -0.0306 -0.0912
11805SOL    HW136271   2.356   5.264   6.064  3.4963 -0.7006 -1.1438
11805SOL    HW236272   2.393   5.126   6.112 -0.1949 -0.8032  1.7948
11806SOL     OW36273   6.452   7.805   2.311  0.9452 -0.0739  0.2949
11806SOL    HW136274   6.469   7.725   2.361 -3.0959 -1.4008 -0.1319
11806SOL    HW236275   6.402   7.861   2.371 -1.9438 -0.7173 -1.3390
11807SOL     OW36276   5.849   7.769   3.469  0.8767 -0.1367 -0.1127
11807SOL    HW136277   5.944   7.776   3.463  0.8140  1.4072  0.1105
11807SOL    HW236278   5.817   7.801   3.385  0.5459 -0.4588 -0.1116
11808SOL     OW36279   1.034   4.153   6.514 -0.0421 -0.5878  0.0637
11808SOL    HW136280   0.998   4.233   6.476  0.9114 -0.4205 -0.5290
11808SOL    HW236281   0.967   4.124   6.576 -0.9556 -0.0254 -0.6248
11809SOL     OW36282   7.625   3.114   0.018 -0.3116 -0.6265  0.1549
11809SOL    HW136283   7.683   3.085   0.088 -1.3000  0.3362  1.4253
11809SOL    HW236284   7.551   3.053   0.020 -2.5581  1.8608  3.0539
11810SOL     OW36285   1.467   7.978   1.632  0.4808 -0.0629  0.4617
11810SOL    HW136286   1.386   7.930   1.612 -1.3334  2.2440  1.7246
11810SOL    HW236287   1.518   7.918   1.687 -0.7093 -1.3010  0.2740
11811SOL     OW36288   7.221   5.111   3.332 -0.8173 -0.0778 -0.1569
11811SOL    HW136289   7.188   5.157   3.255 -1.6502  0.3507  0.4351
11811SOL    HW236290   7.266   5.178   3.383  0.5508 -0.5486 -0.6904
11812SOL     OW36291   0.747   3.461   1.098  0.4813  0.2092  0.0501
11812SOL    HW136292   0.834   3.421   1.106  1.3086  1.2666 -2.4289
11812SOL    HW236293   0.758   3.528   1.030 -1.8196  1.8036  1.1208
11813SOL     OW36294   4.963   4.363   0.557  0.2282 -0.0469 -0.0208
11813SOL    HW136295   4.918   4.415   0.624 -0.3230  0.9388 -1.1218
11813SOL    HW236296   4.897   4.300   0.528 -0.6965  1.6787 -1.9448
11814SOL     OW36297   4.050   2.120   5.406 -0.0172 -0.0158 -0.1135
11814SOL    HW136298   4.011   2.039   5.438 -1.7716  0.1585 -1.6450
11814SOL    HW236299   4.104   2.092   5.332 -1.0820  0.2454 -1.0070
11815SOL     OW36300   7.325   4.743   7.502  0.5010  0.1772 -0.3521
11815SOL    HW136301   7.413   4.764   7.470  1.1010 -1.4668  0.1465
11815SOL    HW236302   7.297   4.668   7.450 -0.6085  0.6375 -0.4581
11816SOL     OW36303   4.382   3.046   7.277  0.4680  0.3339  0.3159
11816SOL    HW136304   4.387   3.113   7.345 -1.6815  1.5500 -0.6346
11816SOL    HW236305   4.442   3.077   7.209  1.0765  0.1619  0.7603
11817SOL     OW36306   6.807   2.123   5.244  0.1346 -0.3737  0.6686
11817SOL    HW136307   6.714   2.144   5.245 -0.1807 -1.6928  1.9025
11817SOL    HW236308   6.829   2.106   5.335  1.5076 -0.4550  0.3445
11818SOL     OW36309   2.101   7.819   1.116  0.3334  0.8655 -0.0787
11818SOL    HW136310   2.162   7.789   1.049 -1.2285 -0.1741 -1.1021
11818SOL    HW236311   2.088   7.742   1.172  1.6034  1.7129  1.4724
11819SOL     OW36312   3.003   2.075   4.928 -0.0060 -0.2242 -0.5865
11819SOL    HW136313   2.917   2.110   4.905 -0.3491  0.1693  1.1686
11819SOL    HW236314   3.065   2.135   4.887 -0.5589  0.2221 -0.7819
11820SOL     OW36315   6.415   0.853   4.346  0.0807 -0.0210 -0.1453
11820SOL    HW136316   6.437   0.947   4.342  1.1233 -0.2691 -0.5858
11820SOL    HW236317   6.330   0.851   4.389 -0.6350  1.2348 -1.4045
11821SOL     OW36318   1.113   6.491   2.711 -0.2018 -0.1449  0.0561
11821SOL    HW136319   1.028   6.449   2.722 -0.1265  0.2144  3.1177
11821SOL    HW236320   1.177   6.421   2.729  0.0930 -0.0247 -0.5158
11822SOL     OW36321   5.811   3.631   1.182 -0.0452  0.0831  0.2485
11822SOL    HW136322   5.735   3.689   1.192 -1.4510 -2.0828  3.6848
11822SOL    HW236323   5.885   3.684   1.212 -0.6224  1.3342 -0.4561
11823SOL     OW36324   7.561   7.442   1.970 -0.1050 -0.5732 -0.2169
11823SOL    HW136325   7.469   7.420   1.959 -0.0002 -0.4853 -1.4826
11823SOL    HW236326   7.602   7.414   1.888  1.1238 -1.2627  0.5969
11824SOL     OW36327   0.160   2.086   2.786 -0.0637 -0.0596 -0.0503
11824SOL    HW136328   0.182   2.058   2.697 -0.9346 -2.2651  0.3474
11824SOL    HW236329   0.064   2.081   2.789 -0.1939  1.9104  0.4731
11825SOL     OW36330   7.767   4.348   7.237 -0.1454 -0.0598  0.4559
11825SOL    HW136331   7.860   4.373   7.239  0.4436 -1.9161 -0.7843
11825SOL    HW236332   7.748   4.333   7.144 -1.4460 -0.5396  0.7774
11826SOL     OW36333   2.023   2.650   0.134  0.5737 -0.2723 -0.2611
11826SOL    HW136334   2.106   2.633   0.179  1.5290 -0.1270 -1.8746
11826SOL    HW236335   2.029   2.741   0.106 -0.6596  0.1000  0.5977
11827SOL     OW36336   4.530   4.346   4.784  0.3204  0.3504  0.2146
11827SOL    HW136337   4.444   4.310   4.762  0.7295 -1.2567  1.0932
11827SOL    HW236338   4.513   4.439   4.801 -1.4418 -0.1375  1.4500
11828SOL     OW36339   3.462   3.669   0.609  0.5183  0.2081 -0.1425
11828SOL    HW136340   3.462   3.711   0.523  0.2451  0.9726  0.2192
11828SOL    HW236341   3.532   3.604   0.604  1.3075  1.0663 -0.5630
11829SOL     OW36342   7.476   3.121   3.289 -0.3446 -0.2599 -0.0166
11829SOL    HW136343   7.473   3.216   3.306 -0.4188 -0.6810  2.8133
11829SOL    HW236344   7.450   3.113   3.197 -0.5714  2.4407 -0.2937
11830SOL     OW36345   0.353   6.038   3.011  0.4517  0.1402  0.0083
11830SOL    HW136346   0.332   6.079   2.926  0.4000  0.3249  0.1093
11830SOL    HW236347   0.440   6.071   3.032  1.5762 -1.8728 -1.1769
11831SOL     OW36348   4.802   0.498   6.050  0.0459  0.2287 -0.3648
11831SOL    HW136349   4.810   0.480   5.956 -1.3840  0.6162 -0.5898
11831SOL    HW236350   4.885   0.540   6.074  0.4863 -0.0008 -1.4205
11832SOL     OW36351   7.452   3.613   7.849  0.3801  0.0909  0.0328
11832SOL    HW136352   7.513   3.572   7.788 -0.2816 -1.0039  0.0789
11832SOL    HW236353   7.393   3.664   7.793  1.0259  0.7439 -0.0556
11833SOL     OW36354   7.063   7.680   2.057  0.2373  0.0419  0.2688
11833SOL    HW136355   6.982   7.634   2.077  1.4473 -1.6383  1.7118
11833SOL    HW236356   7.062   7.757   2.115  0.7081 -1.2797  2.1393
11834SOL     OW36357   3.543   6.743   5.855  0.4987 -0.2329 -0.0152
11834SOL    HW136358   3.471   6.683   5.871  0.4790 -0.6707 -1.5602
11834SOL    HW236359   3.507   6.830   5.876 -0.3979 -0.4749 -0.4840
11835SOL     OW36360   4.150   6.191   4.777  0.0582 -0.0783 -0.4011
11835SOL    HW136361   4.217   6.126   4.754  2.2543  0.7672  2.8083
11835SOL    HW236362   4.088   6.143   4.833 -0.5962 -0.2707 -1.2760
11836SOL     OW36363   1.151   4.002   6.325  0.1536 -0.1701  0.2570
11836SOL    HW136364   1.237   3.978   6.360  0.6730  0.9141 -0.2184
11836SOL    HW236365   1.112   4.057   6.393  0.2502  0.1475  0.0560
11837SOL     OW36366   7.570   2.490   0.075 -0.0726  0.3738 -0.8377
11837SOL    HW136367   7.596   2.559   0.136 -2.1764  0.7813 -0.3141
11837SOL    HW236368   7.617   2.510  -0.006  1.4936  0.7774  0.1375
11838SOL     OW36369   2.868   2.257   2.285  0.1650  0.2507  0.4886
11838SOL    HW136370   2.964   2.257   2.288  0.1477 -0.0654  1.2227
11838SOL    HW236371   2.845   2.164   2.286 -0.0974  0.1823 -2.4618
11839SOL     OW36372   5.743   1.929   1.612 -0.0968  1.1964  0.0871
11839SOL    HW136373   5.748   1.883   1.696  0.4916  0.7857 -0.1678
11839SOL    HW236374   5.823   1.903   1.566 -0.5948  1.1256 -0.7484
11840SOL     OW36375   7.365   2.851   3.158  0.3525 -0.2268 -0.5150
11840SOL    HW136376   7.270   2.863   3.152  0.1917  0.2005  1.9670
11840SOL    HW236377   7.396   2.926   3.209  1.9568 -0.6665 -0.7792
11841SOL     OW36378   0.206   0.256   3.375  0.0452  0.0792 -0.9574
11841SOL    HW136379   0.297   0.244   3.404 -0.8544 -2.6073  1.2355
11841SOL    HW236380   0.186   0.347   3.398  1.5427  0.0863  0.5783
11842SOL     OW36381   6.779   4.112   3.717  0.1132 -0.0872  0.1114
11842SOL    HW136382   6.795   4.205   3.734  1.6125  0.3225 -2.8473
11842SOL    HW236383   6.865   4.071   3.724 -0.3610 -1.0882  0.3447
11843SOL     OW36384   1.139   0.204   1.719  0.3959  0.1500  0.5558
11843SOL    HW136385   1.061   0.251   1.749 -0.0866  0.7183 -1.4874
11843SOL    HW236386   1.150   0.230   1.628  1.3442 -2.0728 -0.0319
11844SOL     OW36387   4.894   7.274   1.505  0.2124  0.6530 -0.2802
11844SOL    HW136388   4.870   7.348   1.449 -1.4037 -1.8946 -3.2800
11844SOL    HW236389   4.830   7.206   1.483  1.2684 -1.5130  2.7133
11845SOL     OW36390   6.611   1.470   6.952 -0.2582 -0.5051  0.2773
11845SOL    HW136391   6.574   1.388   6.920 -1.5224 -0.3500  1.2770
11845SOL    HW236392   6.535   1.523   6.976  0.5685  0.5843  0.5621
11846SOL     OW36393   3.613   4.432   4.843  0.5036  0.0658 -0.2401
11846SOL    HW136394   3.556   4.508   4.833 -0.3013 -0.7113 -1.9256
11846SOL    HW236395   3.687   4.464   4.895 -0.4425  1.6355  0.2047
11847SOL     OW36396   5.381   0.207   6.012 -0.3398  0.2039  0.7177
11847SOL    HW136397   5.435   0.128   6.017 -0.4863  0.0554  0.1092
11847SOL    HW236398   5.320   0.189   5.939 -0.0875  1.0557  0.2832
11848SOL     OW36399   1.197   1.833   2.961 -0.7758 -0.1821 -0.3056
11848SOL    HW136400   1.200   1.920   3.001  0.0232 -0.5761  0.5707
11848SOL    HW236401   1.104   1.810   2.958 -0.9381  0.3951  0.1619
11849SOL     OW36402   1.768   7.928   4.701 -0.1691 -0.1814 -0.1760
11849SOL    HW136403   1.832   7.976   4.648 -1.3738  2.6203  0.7570
11849SOL    HW236404   1.688   7.928   4.647 -0.2505 -0.9584 -0.0613
11850SOL     OW36405   5.926   5.410   6.906  0.8140 -0.1884  0.0517
11850SOL    HW136406   6.002   5.354   6.922  0.7041 -0.2298  0.4317
11850SOL    HW236407   5.881   5.415   6.990  0.3297 -0.2587 -0.1971
11851SOL     OW36408   3.496   3.714   6.514  0.0352 -0.2455 -0.4568
11851SOL    HW136409   3.518   3.805   6.534 -0.2832 -0.5981  1.7703
11851SOL    HW236410   3.411   3.718   6.469  0.2264  0.5780 -0.7438
11852SOL     OW36411   4.045   4.648   1.160 -0.7262 -0.5519  0.6250
11852SOL    HW136412   4.018   4.557   1.175 -0.6206 -1.4565 -3.4122
11852SOL    HW236413   4.140   4.647   1.172 -0.6752 -1.1108  0.2405
11853SOL     OW36414   6.766   5.524   3.641  0.7781 -1.0705  0.6987
11853SOL    HW136415   6.760   5.429   3.632  0.7272 -0.9722 -0.3723
11853SOL    HW236416   6.747   5.558   3.554  1.7629 -0.1147  0.8349
11854SOL     OW36417   5.764   3.491   6.384  0.1985 -0.1324 -0.1523
11854SOL    HW136418   5.714   3.569   6.408 -0.9999 -1.1011  0.6667
11854SOL    HW236419   5.698   3.422   6.377  1.3930 -1.4030  0.6347
11855SOL     OW36420   0.309   0.260   3.727  0.1517 -0.0598  0.3680
11855SOL    HW136421   0.225   0.215   3.719 -0.0481  0.4287 -0.3332
11855SOL    HW236422   0.289   0.352   3.710  1.0837 -0.1595 -1.3987
11856SOL     OW36423   3.318   2.399   7.266  0.3197 -0.5276  0.1369
11856SOL    HW136424   3.340   2.477   7.216  0.7926  0.2154  1.4765
11856SOL    HW236425   3.343   2.326   7.209  0.5427  0.2945 -0.8305
11857SOL     OW36426   7.059   5.106   5.610  0.0845  0.0803  0.4982
11857SOL    HW136427   7.142   5.090   5.564 -0.4550  1.2869 -0.9630
11857SOL    HW236428   7.081   5.174   5.674 -0.0480  1.5251 -0.9165
11858SOL     OW36429   2.786   5.057   7.665 -0.0280 -0.1895 -0.4500
11858SOL    HW136430   2.874   5.088   7.681 -0.7707  1.4633  0.6368
11858SOL    HW236431   2.766   5.084   7.575 -0.3306  1.7755  0.1715
11859SOL     OW36432   2.877   7.955   4.280  0.8111 -0.0018  0.4316
11859SOL    HW136433   2.901   8.026   4.220  2.2374 -1.2536 -0.5331
11859SOL    HW236434   2.887   7.875   4.228 -1.1057 -0.9131  1.3957
11860SOL     OW36435   5.843   4.142   2.447 -0.2365  0.4564  0.1737
11860SOL    HW136436   5.893   4.195   2.508  2.2697 -2.1406  0.6206
11860SOL    HW236437   5.897   4.139   2.367 -1.3026  0.2299 -0.5629
11861SOL     OW36438   7.560   2.051   4.464 -0.1327 -0.2503  0.2042
11861SOL    HW136439   7.588   1.985   4.400  1.3975  0.2626  0.2923
11861SOL    HW236440   7.506   2.003   4.526  0.4735 -1.3164 -0.0638
11862SOL     OW36441   3.871   5.295   4.815 -0.1273  0.1141  0.1216
11862SOL    HW136442   3.857   5.308   4.721 -0.1919  0.7949  0.2241
11862SOL    HW236443   3.833   5.372   4.856 -1.5537 -0.9208  0.8385
11863SOL     OW36444   5.249   1.251   7.797  0.4148  0.4269 -0.0210
11863SOL    HW136445   5.328   1.305   7.797  2.1346 -1.9063 -1.2094
11863SOL    HW236446   5.216   1.256   7.707  0.6249 -0.4647 -0.1621
11864SOL     OW36447   4.705   0.427   4.108  0.2420 -0.4102  0.1606
11864SOL    HW136448   4.755   0.491   4.056 -0.0368 -1.3311 -1.3145
11864SOL    HW236449   4.705   0.463   4.196  0.8727  1.1658 -0.4318
11865SOL     OW36450   4.825   2.968   2.545  0.3981 -0.0548  0.6055
11865SOL    HW136451   4.832   2.944   2.638  1.4488 -0.4650  0.4382
11865SOL    HW236452   4.732   2.982   2.531  0.2994  0.7357  1.9009
11866SOL     OW36453   4.191   0.630   3.193  0.4444  0.1579  0.5288
11866SOL    HW136454   4.205   0.722   3.215  1.6393  0.3336 -0.8376
11866SOL    HW236455   4.277   0.597   3.171 -0.4145 -0.2782 -2.6281
11867SOL     OW36456   4.806   2.658   5.572 -0.2586 -0.0368 -0.0549
11867SOL    HW136457   4.865   2.594   5.533 -0.5864  0.1939 -0.9579
11867SOL    HW236458   4.846   2.743   5.552 -0.5982  0.0989 -0.1614
11868SOL     OW36459   6.661   5.668   1.072 -0.1925  0.2411  0.1443
11868SOL    HW136460   6.631   5.609   1.141  0.6257  0.9290  1.1168
11868SOL    HW236461   6.689   5.610   1.001  0.6778 -0.5533  1.1163
11869SOL     OW36462   3.616   5.251   7.201 -0.5884 -0.5789  0.0867
11869SOL    HW136463   3.624   5.161   7.169  0.1618 -1.1210  1.7046
11869SOL    HW236464   3.522   5.262   7.215 -0.6107 -1.3861  0.6227
11870SOL     OW36465   7.223   2.284   0.893  0.2754 -0.0404 -0.5587
11870SOL    HW136466   7.157   2.235   0.843  0.4746  1.0786 -1.9813
11870SOL    HW236467   7.297   2.224   0.901 -0.4794 -0.9285  0.1337
11871SOL     OW36468   1.781   0.028   1.168 -0.9561  0.4149  0.6361
11871SOL    HW136469   1.734   0.093   1.219 -0.4567 -0.3689  2.1586
11871SOL    HW236470   1.859   0.074   1.137 -1.4702  1.0161  0.2143
11872SOL     OW36471   3.537   7.122   3.534  0.7357  0.0182 -0.2418
11872SOL    HW136472   3.554   7.166   3.450  0.6358  0.6569  0.0683
11872SOL    HW236473   3.623   7.095   3.564  0.5858 -2.3978 -1.6941
11873SOL     OW36474   1.730   7.335   4.619 -0.1869 -0.4284 -0.9240
11873SOL    HW136475   1.782   7.274   4.566 -0.9859 -2.1428  0.1762
11873SOL    HW236476   1.641   7.298   4.618 -0.4096 -0.0318  0.8777
11874SOL     OW36477   5.454   7.415   5.384  0.3010 -0.3689  0.2269
11874SOL    HW136478   5.439   7.491   5.440  0.2231  0.2968 -0.6720
11874SOL    HW236479   5.424   7.341   5.435 -1.3190  0.3961  0.4364
11875SOL     OW36480   3.436   0.495   2.694  0.7536  0.4659  0.1755
11875SOL    HW136481   3.442   0.399   2.695 -0.4693  0.3834  0.4028
11875SOL    HW236482   3.522   0.523   2.663  1.7235 -0.6515  1.7081
11876SOL     OW36483   5.206   4.919   2.802 -0.1002  0.3918  0.3873
11876SOL    HW136484   5.184   4.961   2.719  1.4504  0.5134  0.0048
11876SOL    HW236485   5.152   4.841   2.804 -0.6312  0.7194 -0.4317
11877SOL     OW36486   0.983   7.605   1.758 -0.1139 -0.4416  0.1799
11877SOL    HW136487   1.074   7.633   1.748 -0.0110 -0.6323  0.5649
11877SOL    HW236488   0.956   7.578   1.670 -0.4013  1.3847 -0.3171
11878SOL     OW36489   7.447   1.758   5.434 -0.0591 -0.1475  0.5630
11878SOL    HW136490   7.410   1.709   5.508  0.4715 -0.7795  0.4219
11878SOL    HW236491   7.383   1.827   5.416 -0.5277 -0.4182  1.1651
11879SOL     OW36492   4.457   1.612   4.380  0.3080 -0.7613 -0.4307
11879SOL    HW136493   4.406   1.555   4.322  0.3037 -1.0475 -0.1528
11879SOL    HW236494   4.393   1.648   4.441 -0.0550  1.2357 -1.8950
11880SOL     OW36495   0.531   6.865   2.175 -0.3130  0.7339 -0.1356
11880SOL    HW136496   0.519   6.826   2.262 -1.4190 -1.9959 -1.3987
11880SOL    HW236497   0.454   6.838   2.125  0.8901  1.1417 -2.3458
11881SOL     OW36498   7.610   5.508   4.482  0.1319  0.1052 -0.0044
11881SOL    HW136499   7.621   5.589   4.533  0.3031  0.1706 -0.1441
11881SOL    HW236500   7.668   5.519   4.407  0.7043 -0.4635  0.3556
11882SOL     OW36501   4.962   1.950   1.449  0.6355 -0.1457 -0.0769
11882SOL    HW136502   5.005   1.953   1.364 -0.2627 -0.2189 -0.5425
11882SOL    HW236503   4.942   2.042   1.468  0.5629 -0.1604 -0.0835
11883SOL     OW36504   6.171   7.209   2.030  0.2330 -0.0440 -0.2068
11883SOL    HW136505   6.151   7.227   1.938  1.4730 -1.7977 -0.8648
11883SOL    HW236506   6.094   7.241   2.078 -0.1646  1.4826 -1.7708
11884SOL     OW36507   6.711   2.277   3.913 -0.1592 -0.1025  0.5951
11884SOL    HW136508   6.792   2.231   3.890  0.0138  0.1271  0.7433
11884SOL    HW236509   6.720   2.295   4.007 -0.5536 -0.4219  0.6960
11885SOL     OW36510   5.880   2.413   3.312 -0.4238  0.1656 -0.2479
11885SOL    HW136511   5.784   2.409   3.317 -0.5351  1.7341 -0.5908
11885SOL    HW236512   5.898   2.494   3.264  1.0936  0.3937  0.6451
11886SOL     OW36513   0.166   1.884   2.145 -0.0034 -0.6722  0.0626
11886SOL    HW136514   0.118   1.880   2.227 -1.0956  2.4122 -0.2792
11886SOL    HW236515   0.195   1.975   2.138  0.5986 -0.9723 -2.6671
11887SOL     OW36516   0.756   3.923   2.401 -0.0701  0.7818 -0.3719
11887SOL    HW136517   0.672   3.884   2.377  0.9526 -0.5810 -2.0785
11887SOL    HW236518   0.759   4.006   2.352 -0.1397  0.4685 -0.9233
11888SOL     OW36519   5.267   6.691   2.732 -0.0799 -0.0613 -0.4430
11888SOL    HW136520   5.181   6.650   2.726  0.0636 -0.4445  0.0695
11888SOL    HW236521   5.255   6.778   2.694 -0.7857  0.0322 -0.0182
11889SOL     OW36522   7.320   4.429   1.595 -0.2045  0.0397 -0.0061
11889SOL    HW136523   7.258   4.447   1.666 -0.8066  1.3986 -0.8306
11889SOL    HW236524   7.266   4.388   1.527 -0.1370  0.8209 -0.5495
11890SOL     OW36525   7.394   5.685   0.657 -0.2450  0.2992  0.0489
11890SOL    HW136526   7.486   5.700   0.678 -0.4868  1.7608  0.1593
11890SOL    HW236527   7.397   5.628   0.580  0.7309 -0.2172  0.4453
11891SOL     OW36528   0.967   5.667   2.440 -0.2528 -0.4623 -0.0683
11891SOL    HW136529   0.908   5.704   2.506 -1.0540  0.8800 -1.4610
11891SOL    HW236530   1.048   5.648   2.487 -1.2397 -0.7634  1.5467
11892SOL     OW36531   2.770   6.836   4.780  0.4769 -0.1337  0.4300
11892SOL    HW136532   2.681   6.872   4.775 -0.1154 -1.5026  0.7932
11892SOL    HW236533   2.797   6.825   4.689  0.6051  1.0148  0.3075
11893SOL     OW36534   7.877   1.710   6.599  0.3118 -0.1200  0.1170
11893SOL    HW136535   7.799   1.659   6.579 -0.5881  0.3526  2.1355
11893SOL    HW236536   7.907   1.744   6.514 -1.5580 -0.4732 -0.7203
11894SOL     OW36537   4.156   7.051   2.699 -0.2005 -0.5249 -0.9083
11894SOL    HW136538   4.072   7.069   2.656  0.7043  0.8044 -2.2591
11894SOL    HW236539   4.196   6.983   2.645 -1.0606 -2.4382  0.7226
11895SOL     OW36540   4.151   5.359   1.097 -0.1295 -0.5787  0.1155
11895SOL    HW136541   4.122   5.399   1.178 -0.8577  0.5027 -0.6613
11895SOL    HW236542   4.071   5.325   1.056 -0.4107  2.2582 -1.9430
11896SOL     OW36543   7.925   5.158   3.134  0.3185 -0.0245  0.8152
11896SOL    HW136544   7.914   5.107   3.054  0.6726  1.3235 -0.1125
11896SOL    HW236545   7.868   5.115   3.198 -1.9338  0.3469 -0.8281
11897SOL     OW36546   3.243   3.924   6.240  0.2045  0.3229 -0.1573
11897SOL    HW136547   3.211   3.934   6.329  0.8083  2.5738 -0.1191
11897SOL    HW236548   3.310   3.992   6.231 -0.9805  1.3016 -2.8192
11898SOL     OW36549   1.769   3.190   4.933  0.5302 -0.2072 -0.3410
11898SOL    HW136550   1.721   3.264   4.898 -0.0567 -1.0758 -1.4491
11898SOL    HW236551   1.855   3.225   4.957  0.5914  0.6280 -1.7179
11899SOL     OW36552   1.098   1.031   6.724 -0.0853 -0.1145  0.2123
11899SOL    HW136553   1.004   1.021   6.709 -0.6772  2.4562  1.5822
11899SOL    HW236554   1.119   1.116   6.685  0.8373  1.0601  3.0502
11900SOL     OW36555   4.136   5.509   3.741 -0.6954  0.9298 -0.1378
11900SOL    HW136556   4.056   5.479   3.785 -1.0542 -0.2227 -1.4947
11900SOL    HW236557   4.191   5.542   3.812 -1.7785  0.3681  1.0085
11901SOL     OW36558   1.556   7.034   5.524 -0.3961  0.2290  0.0519
11901SOL    HW136559   1.490   7.045   5.592  0.2183  1.2071  0.5058
11901SOL    HW236560   1.639   7.051   5.567  0.1073 -0.3147 -0.6706
11902SOL     OW36561   3.533   0.786   1.959 -0.8631  0.1699  0.2477
11902SOL    HW136562   3.494   0.700   1.978 -0.4463 -0.2309 -0.6029
11902SOL    HW236563   3.476   0.849   2.002 -2.9792 -0.3260 -1.6028
11903SOL     OW36564   4.326   5.220   0.225 -0.3479  0.2187 -0.4969
11903SOL    HW136565   4.348   5.128   0.235 -1.0815  0.0678 -0.2007
11903SOL    HW236566   4.272   5.224   0.146 -0.6906  0.3200 -0.2626
11904SOL     OW36567   5.578   4.329   1.011  0.4354 -0.3099 -0.1730
11904SOL    HW136568   5.485   4.324   0.993  0.4095 -0.1646 -0.0815
11904SOL    HW236569   5.608   4.405   0.961  0.8780 -1.4694 -1.7738
11905SOL     OW36570   1.349   2.797   6.868 -0.0383  0.5801  0.2514
11905SOL    HW136571   1.297   2.869   6.904 -0.6494 -0.3773  1.3529
11905SOL    HW236572   1.295   2.720   6.881 -0.0390  0.0553 -2.2320
11906SOL     OW36573   2.513   1.892   5.863  0.1824 -0.1224  0.6458
11906SOL    HW136574   2.519   1.846   5.946  0.4406 -0.4265  0.4619
11906SOL    HW236575   2.428   1.935   5.865 -1.2904 -2.7675 -0.2824
11907SOL     OW36576   3.794   7.054   3.617 -0.9120  1.3565  0.0439
11907SOL    HW136577   3.849   7.113   3.565 -1.5297  2.6248  0.7785
11907SOL    HW236578   3.813   6.967   3.583  0.3311  1.9338 -0.8098
11908SOL     OW36579   0.813   0.748   0.581 -0.7531 -0.8724 -0.0364
11908SOL    HW136580   0.793   0.773   0.671 -0.9195  0.7166 -0.4848
11908SOL    HW236581   0.908   0.733   0.580 -0.6202 -0.0762  0.2246
11909SOL     OW36582   4.263   6.328   5.057  0.1725  0.0561 -0.1750
11909SOL    HW136583   4.302   6.298   5.139 -0.9998  0.8668  0.6998
11909SOL    HW236584   4.187   6.270   5.044  0.7189 -0.4886 -1.0452
11910SOL     OW36585   6.701   7.258   6.059  0.2904 -0.4693 -0.3433
11910SOL    HW136586   6.750   7.180   6.035 -0.7044 -0.9856 -0.7261
11910SOL    HW236587   6.676   7.244   6.150 -2.5270 -2.0677 -1.2467
11911SOL     OW36588   3.934   0.372   3.668  0.3004  0.1579  0.0373
11911SOL    HW136589   3.947   0.382   3.762  1.1987 -1.8124  0.1634
11911SOL    HW236590   3.964   0.284   3.648  0.8827  0.7960 -2.2568
11912SOL     OW36591   0.894   0.659   5.280  0.2266 -0.8901  0.0641
11912SOL    HW136592   0.826   0.635   5.342 -0.0699  0.0448  0.1066
11912SOL    HW236593   0.871   0.611   5.200 -1.2117  0.3825 -0.3226
11913SOL     OW36594   7.399   4.162   4.256  0.1457 -0.2011  1.0901
11913SOL    HW136595   7.336   4.149   4.184 -0.9664  2.6349  1.4017
11913SOL    HW236596   7.484   4.146   4.216 -0.5834 -0.8758 -0.2757
11914SOL     OW36597   3.979   4.665   3.517  0.6662 -0.5414 -0.1432
11914SOL    HW136598   3.968   4.757   3.541  1.9516 -0.5233  0.4430
11914SOL    HW236599   3.989   4.666   3.422  1.8076  0.0489 -0.0261
11915SOL     OW36600   0.689   3.753   5.824  0.4642 -0.2759  0.2532
11915SOL    HW136601   0.642   3.688   5.877 -2.0521  0.1816 -1.2446
11915SOL    HW236602   0.642   3.835   5.839  1.0059  0.2980 -1.0357
11916SOL     OW36603   2.605   5.246   3.950 -0.3770 -0.1545 -0.2752
11916SOL    HW136604   2.607   5.336   3.982 -2.3568 -0.4816  0.9267
11916SOL    HW236605   2.677   5.202   3.995  2.0588  1.2415 -2.5148
11917SOL     OW36606   0.476   2.343   0.229  0.2211 -0.6632 -0.3319
11917SOL    HW136607   0.571   2.339   0.230  0.2212 -0.9222  1.1326
11917SOL    HW236608   0.449   2.251   0.227  0.0169 -0.6113 -0.0574
11918SOL     OW36609   3.097   3.252   5.711  0.1548  0.7063  0.1124
11918SOL    HW136610   3.162   3.203   5.763  0.3926  0.7208 -0.1713
11918SOL    HW236611   3.110   3.343   5.737 -0.9321  0.5403  1.3602
11919SOL     OW36612   3.245   0.798   7.747  0.0492  1.1934 -0.3614
11919SOL    HW136613   3.158   0.758   7.755  0.2697  0.5594 -1.0840
11919SOL    HW236614   3.247   0.863   7.818 -0.7279  0.6987  0.1355
11920SOL     OW36615   5.721   3.432   3.954  0.2278  0.3941 -0.2136
11920SOL    HW136616   5.634   3.393   3.945 -0.6108  2.3161 -1.1537
11920SOL    HW236617   5.723   3.467   4.043  1.7193 -3.1792  1.3857
11921SOL     OW36618   7.001   5.749   0.726 -0.0655 -0.0503 -0.0228
11921SOL    HW136619   7.019   5.682   0.793 -0.8223  0.0959  0.3455
11921SOL    HW236620   6.928   5.799   0.763  1.9275  2.4603  0.7443
11922SOL     OW36621   7.177   0.345   7.746 -0.4958 -0.4336  0.1154
11922SOL    HW136622   7.252   0.289   7.766 -0.0226  0.4915  1.0567
11922SOL    HW236623   7.214   0.418   7.698 -1.1455 -1.0150 -1.3056
11923SOL     OW36624   5.576   3.368   3.138  0.5068  0.0394 -0.4161
11923SOL    HW136625   5.524   3.315   3.198 -1.9531  1.1445 -1.4049
11923SOL    HW236626   5.557   3.332   3.052 -0.2315  1.6585 -0.9823
11924SOL     OW36627   7.353   4.666   4.975 -0.5130  0.4647 -0.0358
11924SOL    HW136628   7.272   4.650   4.928  0.3353  0.5156 -1.6113
11924SOL    HW236629   7.379   4.580   5.009 -1.0301  0.3805  0.1503
11925SOL     OW36630   6.190   3.807   4.115  0.3736  0.3427 -0.2846
11925SOL    HW136631   6.200   3.900   4.135  2.9036  0.2183 -0.5929
11925SOL    HW236632   6.273   3.768   4.142  0.2259 -1.4488 -2.1490
11926SOL     OW36633   6.768   3.679   1.297 -0.6899 -0.0985  0.3523
11926SOL    HW136634   6.736   3.737   1.227 -0.9130 -1.7381 -0.9530
11926SOL    HW236635   6.726   3.713   1.376 -0.4265  1.8208 -0.2608
11927SOL     OW36636   3.099   5.845   1.997 -0.1665 -0.1563 -0.1032
11927SOL    HW136637   3.136   5.810   2.078 -1.0185 -0.4145  0.1849
11927SOL    HW236638   3.047   5.773   1.961 -0.5167  0.2463 -0.4109
11928SOL     OW36639   0.419   2.994   6.262 -0.0262 -0.0939  0.2546
11928SOL    HW136640   0.358   3.037   6.201  1.4016  1.0366 -0.4253
11928SOL    HW236641   0.405   3.039   6.345 -1.6541 -1.3320  0.7096
11929SOL     OW36642   2.640   6.668   1.620  0.1244 -0.1798  0.2931
11929SOL    HW136643   2.551   6.688   1.591  0.3072 -1.8406 -1.7494
11929SOL    HW236644   2.641   6.573   1.630  1.8724 -0.3108 -0.6436
11930SOL     OW36645   5.853   7.322   5.221  0.5267 -0.4575  0.0014
11930SOL    HW136646   5.890   7.269   5.291  0.4359 -0.9002 -0.2829
11930SOL    HW236647   5.900   7.294   5.142  1.9616  1.3270  0.1488
11931SOL     OW36648   6.794   2.777   3.139 -0.3596 -0.2362 -0.0247
11931SOL    HW136649   6.782   2.865   3.175 -0.2963  0.4815 -1.6953
11931SOL    HW236650   6.706   2.741   3.137 -0.2830 -0.5922  1.5096
11932SOL     OW36651   5.968   6.431   0.559 -0.0544 -0.1794  0.0276
11932SOL    HW136652   5.940   6.446   0.469  0.6605 -0.2805 -0.2123
11932SOL    HW236653   5.918   6.495   0.611 -0.2765  0.0483 -0.4635
11933SOL     OW36654   3.931   0.773   7.849 -0.3094  0.3836  0.3135
11933SOL    HW136655   3.886   0.691   7.871  0.0711  0.3304  0.9186
11933SOL    HW236656   3.863   0.827   7.808 -0.6284 -0.1332  0.1461
11934SOL     OW36657   7.208   5.551   3.453 -0.5068  0.0356 -0.4693
11934SOL    HW136658   7.164   5.609   3.391 -1.3126  0.4518  0.4696
11934SOL    HW236659   7.142   5.485   3.476 -0.7589  0.7940  1.1225
11935SOL     OW36660   5.271   2.904   0.997 -1.0297  0.2892  0.1449
11935SOL    HW136661   5.230   2.890   1.082 -1.0138 -0.5676  0.0169
11935SOL    HW236662   5.202   2.889   0.933 -0.6971 -0.4861 -0.0442
11936SOL     OW36663   6.508   1.279   2.973 -0.5433  0.1419 -1.1851
11936SOL    HW136664   6.474   1.345   3.033 -0.2854 -0.5291 -0.2751
11936SOL    HW236665   6.595   1.312   2.948  0.4956 -0.7916  0.9122
11937SOL     OW36666   7.386   1.719   1.564  0.2742 -0.4267  0.2631
11937SOL    HW136667   7.462   1.717   1.622 -0.1412 -1.6211  0.8055
11937SOL    HW236668   7.380   1.631   1.528 -0.2802 -0.0768 -0.5457
11938SOL     OW36669   3.838   2.410   3.412  0.8280 -0.2964 -0.0371
11938SOL    HW136670   3.830   2.483   3.351  2.8494 -1.3761 -1.7630
11938SOL    HW236671   3.830   2.449   3.499  0.2585  1.6910 -0.9390
11939SOL     OW36672   4.791   3.179   1.532  0.5996 -0.0495  0.1727
11939SOL    HW136673   4.729   3.138   1.592  1.5255  0.6829  1.7309
11939SOL    HW236674   4.769   3.272   1.535  1.0416  0.0695 -0.1441
11940SOL     OW36675   0.010   1.380   3.631  0.0580  0.1506  0.1148
11940SOL    HW136676  -0.024   1.386   3.541 -1.0235  2.2019  0.6065
11940SOL    HW236677  -0.047   1.316   3.673  0.0943 -0.2628 -0.4451
11941SOL     OW36678   5.248   2.106   0.347  0.3283  0.0722 -0.1578
11941SOL    HW136679   5.170   2.070   0.389  0.2975 -1.0478 -1.1292
11941SOL    HW236680   5.253   2.061   0.263  1.1715  1.2460 -0.7622
11942SOL     OW36681   1.129   1.323   6.685  0.1656  0.1941 -0.0688
11942SOL    HW136682   1.037   1.325   6.656 -0.4929 -0.4741  1.8295
11942SOL    HW236683   1.134   1.389   6.754  0.3864 -1.5645  1.6820
11943SOL     OW36684   3.975   5.947   4.713 -0.2092  0.0811  0.5100
11943SOL    HW136685   4.069   5.933   4.714 -0.1386  0.5291  0.3727
11943SOL    HW236686   3.959   6.011   4.782 -0.2582  0.9112 -0.2567
11944SOL     OW36687   7.419   6.167   3.723  0.3283  0.2373 -0.3951
11944SOL    HW136688   7.499   6.212   3.751  0.7422  0.2798 -1.5899
11944SOL    HW236689   7.379   6.226   3.660 -0.6047  0.1579  0.0993
11945SOL     OW36690   6.371   7.889   6.363  0.1644 -0.3157  0.0788
11945SOL    HW136691   6.294   7.919   6.411 -0.6287  1.8628 -2.2815
11945SOL    HW236692   6.427   7.966   6.357  0.0635 -0.3409 -2.5939
11946SOL     OW36693   3.711   2.125   2.960 -0.3417  0.1324 -0.1316
11946SOL    HW136694   3.669   2.040   2.966  0.7163 -0.3841  0.2927
11946SOL    HW236695   3.727   2.151   3.051  1.6932 -0.4545 -0.2749
11947SOL     OW36696   7.622   5.205   6.310 -0.0115  0.3864 -0.4273
11947SOL    HW136697   7.712   5.210   6.277  0.3599 -0.9899  0.2702
11947SOL    HW236698   7.626   5.244   6.397 -0.2977  1.1679 -0.7634
11948SOL     OW36699   3.842   0.906   7.583 -0.0988 -0.4928  0.8943
11948SOL    HW136700   3.909   0.970   7.607  1.3712 -1.7919  0.4112
11948SOL    HW236701   3.864   0.880   7.494 -1.6927 -0.4309  0.4550
11949SOL     OW36702   2.140   4.432   6.120  0.1743  0.2264 -0.3439
11949SOL    HW136703   2.173   4.383   6.195 -0.4157  1.7677  0.9750
11949SOL    HW236704   2.211   4.430   6.056  1.0078 -0.4055  0.5806
11950SOL     OW36705   4.666   7.005   4.538  0.5903 -0.6230  0.4505
11950SOL    HW136706   4.652   7.093   4.503  1.5752 -1.1107 -1.3133
11950SOL    HW236707   4.577   6.968   4.547  0.2427 -0.8101 -2.6521
11951SOL     OW36708   3.359   6.705   7.427 -0.0432 -0.1030  0.6877
11951SOL    HW136709   3.414   6.723   7.351 -2.5797  1.1730 -1.0161
11951SOL    HW236710   3.317   6.621   7.408 -1.1885  0.5330  0.2983
11952SOL     OW36711   0.957   5.107   3.895 -0.1397  0.2333  0.0346
11952SOL    HW136712   1.019   5.177   3.917  2.7153 -2.8077  2.7351
11952SOL    HW236713   1.003   5.053   3.830 -1.9482  0.3098 -1.4014
11953SOL     OW36714   3.870   1.675   0.352 -0.0282  0.5022 -0.4445
11953SOL    HW136715   3.798   1.726   0.390  1.4662  1.1310  1.7554
11953SOL    HW236716   3.892   1.611   0.420  2.2705  1.1436 -0.4838
11954SOL     OW36717   3.246   2.642   3.381  0.0915 -0.8559  0.2932
11954SOL    HW136718   3.327   2.691   3.366  1.5113 -2.8373  1.0990
11954SOL    HW236719   3.194   2.699   3.438  1.6630 -0.2478  1.2038
11955SOL     OW36720   2.720   0.623   7.063 -0.0441  0.1001 -0.1991
11955SOL    HW136721   2.734   0.549   7.122  1.2204  1.4708  1.3078
11955SOL    HW236722   2.639   0.663   7.094  0.5578  0.7509  0.5686
11956SOL     OW36723   3.048   6.694   4.343 -0.0275 -0.1280 -0.3677
11956SOL    HW136724   2.979   6.720   4.282 -1.2890  0.5693  1.2514
11956SOL    HW236725   3.084   6.776   4.375 -0.5601 -0.3988  1.0299
11957SOL     OW36726   5.926   4.544   5.315  0.7004 -0.1748  0.4655
11957SOL    HW136727   6.001   4.519   5.369  0.5469 -0.8607  0.3769
11957SOL    HW236728   5.933   4.487   5.238 -0.8705 -1.5033  1.2434
11958SOL     OW36729   2.392   2.383   4.550 -0.3152  0.0840  0.3387
11958SOL    HW136730   2.470   2.327   4.552  0.4264  1.0788  0.9086
11958SOL    HW236731   2.336   2.349   4.619 -0.6690 -1.0088 -0.4708
11959SOL     OW36732   0.811   2.034   3.609  0.5619 -0.9846 -0.1136
11959SOL    HW136733   0.768   2.110   3.649 -1.2534 -0.9045 -2.0037
11959SOL    HW236734   0.756   1.960   3.633  0.3651 -1.1632 -1.0638
11960SOL     OW36735   6.734   0.991   3.901 -0.0087 -0.5523  0.3836
11960SOL    HW136736   6.703   1.081   3.914  0.4199 -0.2584 -0.6048
11960SOL    HW236737   6.665   0.950   3.849  0.3353 -0.4496 -0.1657
11961SOL     OW36738   6.470   5.732   0.714  0.0016 -0.8761  0.1409
11961SOL    HW136739   6.494   5.647   0.751  1.0867 -0.5542  0.2094
11961SOL    HW236740   6.521   5.739   0.634 -0.3994 -0.4627 -0.0829
11962SOL     OW36741   2.631   7.849   3.783  0.4470  0.2427 -0.6181
11962SOL    HW136742   2.573   7.783   3.820  1.1067  1.0373  2.0523
11962SOL    HW236743   2.682   7.802   3.716 -1.2599 -1.1234 -1.0249
11963SOL     OW36744   7.368   3.145   4.541 -0.0790  0.2693 -0.6187
11963SOL    HW136745   7.372   3.170   4.449  2.1216  2.1644 -0.0910
11963SOL    HW236746   7.390   3.052   4.542 -0.8267  0.0527 -2.0395
11964SOL     OW36747   5.820   0.588   7.998  0.3056 -0.1791  0.1829
11964SOL    HW136748   5.892   0.595   8.060  0.8516  1.7074 -0.5835
11964SOL    HW236749   5.859   0.551   7.919  0.1904 -0.1667  0.1190
11965SOL     OW36750   2.393   4.307   2.777  0.4792  0.2214  0.2723
11965SOL    HW136751   2.418   4.250   2.849  0.2131 -0.7158 -0.3593
11965SOL    HW236752   2.474   4.325   2.730  0.2665 -1.5905 -0.8976
11966SOL     OW36753   0.447   7.834   0.474 -0.0653  0.1339 -0.3225
11966SOL    HW136754   0.356   7.836   0.505  0.0572  2.6218  0.1010
11966SOL    HW236755   0.490   7.904   0.523  2.1420 -1.0729 -0.4349
11967SOL     OW36756   2.054   7.733   4.315  0.5581  1.0262  0.1908
11967SOL    HW136757   2.000   7.811   4.326 -0.4050  0.3984  0.0321
11967SOL    HW236758   2.028   7.675   4.386  1.2948  0.8580  0.3322
11968SOL     OW36759   4.275   6.340   6.328 -0.3042 -0.4283 -0.2215
11968SOL    HW136760   4.328   6.260   6.325  1.6138  0.8081 -0.7703
11968SOL    HW236761   4.325   6.400   6.384  0.0043  1.5195 -2.4539
11969SOL     OW36762   1.983   5.033   4.734 -0.1107  0.2086 -0.0376
11969SOL    HW136763   2.065   5.019   4.781 -0.9554  2.1903  2.2797
11969SOL    HW236764   1.956   4.946   4.706  2.5692 -0.5327 -0.5597
11970SOL     OW36765   5.730   2.015   5.871  0.4011 -0.4602  0.4721
11970SOL    HW136766   5.730   1.950   5.941 -1.5817 -1.1980 -0.1363
11970SOL    HW236767   5.780   1.974   5.800  1.4563 -0.1688  1.0233
11971SOL     OW36768   3.398   6.746   2.429 -0.3012  0.1829  0.3482
11971SOL    HW136769   3.367   6.833   2.453 -1.6667  0.0430 -0.8098
11971SOL    HW236770   3.412   6.750   2.335 -1.8701 -1.2504  0.0055
11972SOL     OW36771   6.924   6.438   1.921  0.2659 -0.9587 -0.1193
11972SOL    HW136772   6.928   6.395   1.835  0.2476  2.0944 -1.7777
11972SOL    HW236773   6.977   6.382   1.978  0.1520 -3.1704 -2.0452
11973SOL     OW36774   0.615   2.852   1.601 -0.1525  0.2284 -0.4508
11973SOL    HW136775   0.520   2.846   1.599 -0.1714  0.2524  0.1119
11973SOL    HW236776   0.635   2.882   1.690  0.2556  2.3595 -1.1983
11974SOL     OW36777   7.380   4.630   6.845 -0.0212 -0.1179 -0.1066
11974SOL    HW136778   7.462   4.628   6.794 -1.8244 -0.2460 -3.2982
11974SOL    HW236779   7.373   4.543   6.883  0.9578 -0.3647 -0.4645
11975SOL     OW36780   3.252   3.500   4.173 -0.2295  0.2153 -0.6654
11975SOL    HW136781   3.258   3.427   4.234  2.7764 -0.7388 -1.9128
11975SOL    HW236782   3.218   3.461   4.092  2.3430 -0.1879 -1.6622
11976SOL     OW36783   7.946   3.574   3.036 -0.2454 -0.1398 -0.1032
11976SOL    HW136784   7.960   3.646   2.974  1.1050 -0.7998 -0.6038
11976SOL    HW236785   7.904   3.505   2.984  3.3505 -1.7696 -1.1438
11977SOL     OW36786   6.843   6.913   0.211  0.1101  0.8184  0.1581
11977SOL    HW136787   6.755   6.889   0.241  0.5603  0.4568  1.2598
11977SOL    HW236788   6.853   7.004   0.237  0.5407  0.4739  1.2680
11978SOL     OW36789   1.189   5.439   2.264  0.2316 -0.5756 -0.0911
11978SOL    HW136790   1.147   5.477   2.341  0.7989  0.7723 -0.4255
11978SOL    HW236791   1.182   5.344   2.278 -0.5979 -0.3647  1.1034
11979SOL     OW36792   0.245   4.385   5.014 -0.9009  0.0297 -0.4532
11979SOL    HW136793   0.161   4.374   4.969 -1.1355  0.9378 -0.2658
11979SOL    HW236794   0.279   4.468   4.980  1.3670 -1.7200 -2.7777
11980SOL     OW36795   4.007   5.615   5.836  0.0016 -0.0200  0.6662
11980SOL    HW136796   3.970   5.682   5.893  0.9263  0.2188  0.9966
11980SOL    HW236797   4.087   5.655   5.801  0.1545 -0.6677  0.2667
11981SOL     OW36798   2.620   7.387   7.198 -0.5453  0.3058 -0.4264
11981SOL    HW136799   2.555   7.405   7.131 -1.9300  0.5495  0.9134
11981SOL    HW236800   2.598   7.300   7.231 -2.1221  1.4749  1.9912
11982SOL     OW36801   4.215   0.109   2.239  0.2768  0.0774 -0.1070
11982SOL    HW136802   4.236   0.166   2.312 -3.4341 -2.8183  3.6883
11982SOL    HW236803   4.271   0.032   2.251 -0.3655 -0.4309 -0.2795
11983SOL     OW36804   5.868   7.009   2.243  0.2359 -0.1083  0.3029
11983SOL    HW136805   5.933   7.079   2.252  0.4322 -0.3271  0.6109
11983SOL    HW236806   5.883   6.975   2.155  0.8492 -0.4589  0.5344
11984SOL     OW36807   6.871   7.052   4.539 -0.3831  0.4427  0.3015
11984SOL    HW136808   6.859   7.035   4.633  1.5340  1.8680  0.8696
11984SOL    HW236809   6.832   7.138   4.524  0.0731  0.5957 -0.0248
11985SOL     OW36810   1.219   1.354   1.555  0.6365 -0.0155 -0.0115
11985SOL    HW136811   1.192   1.435   1.598  1.9364  0.3405  0.1664
11985SOL    HW236812   1.228   1.291   1.626 -1.5959 -0.7134 -0.2723
11986SOL     OW36813   2.364   2.245   5.672  0.0614 -0.8146 -0.6168
11986SOL    HW136814   2.345   2.338   5.684 -1.7149 -1.1930 -0.1775
11986SOL    HW236815   2.460   2.239   5.675  0.2050  0.9872 -0.6818
11987SOL     OW36816   0.408   7.355   2.563 -0.2664  0.4651  0.2845
11987SOL    HW136817   0.348   7.375   2.635 -0.7643 -0.8467  0.2494
11987SOL    HW236818   0.433   7.441   2.528 -1.6428  1.0541  0.6902
11988SOL     OW36819   3.685   7.586   4.731 -0.2424 -0.1873 -0.1497
11988SOL    HW136820   3.729   7.668   4.705 -1.6767  0.0966 -1.8371
11988SOL    HW236821   3.746   7.517   4.705  0.2138  0.2706 -0.3197
11989SOL     OW36822   6.669   4.787   5.815  0.5420 -0.4240 -0.1806
11989SOL    HW136823   6.717   4.822   5.740  1.2086  0.5985  0.6888
11989SOL    HW236824   6.605   4.855   5.837 -1.8674 -2.0106 -1.7119
11990SOL     OW36825   1.702   3.804   7.745 -0.2862  0.2408 -0.5047
11990SOL    HW136826   1.792   3.774   7.735 -0.7055 -0.8204 -1.2736
11990SOL    HW236827   1.710   3.900   7.748  0.7785  0.2381 -1.8268
11991SOL     OW36828   6.183   7.000   3.254 -0.0491 -0.2219 -0.2246
11991SOL    HW136829   6.111   7.033   3.308  0.9635  1.5200  0.1643
11991SOL    HW236830   6.262   7.037   3.294  1.2112 -2.9216  0.0034
11992SOL     OW36831   6.595   0.241   0.884 -0.0628 -0.3071  0.3811
11992SOL    HW136832   6.513   0.194   0.871 -0.5044  0.1687  1.2810
11992SOL    HW236833   6.658   0.173   0.908 -0.2688 -0.6455 -0.0319
11993SOL     OW36834   7.950   4.297   5.299  0.1337  0.3386  0.1308
11993SOL    HW136835   7.968   4.365   5.364 -1.8710 -0.2091  1.3387
11993SOL    HW236836   8.035   4.255   5.285  1.4585  3.1078 -0.7777
11994SOL     OW36837   7.266   6.596   4.772 -0.5840  0.0316 -0.9477
11994SOL    HW136838   7.227   6.517   4.810  0.9731 -0.5365 -0.4437
11994SOL    HW236839   7.191   6.648   4.744 -1.7676 -0.3864  1.1696
11995SOL     OW36840   5.533   7.814   3.043 -0.4267  0.2909 -0.9452
11995SOL    HW136841   5.553   7.747   3.108  1.0971  0.6198 -1.0355
11995SOL    HW236842   5.527   7.895   3.093  0.6034  0.5217 -1.1770
11996SOL     OW36843   4.186   0.850   2.522 -0.2200 -0.2780  0.1001
11996SOL    HW136844   4.207   0.777   2.464  0.0982  0.3238 -0.5456
11996SOL    HW236845   4.121   0.901   2.474 -0.4694 -0.1486  0.5660
11997SOL     OW36846   3.815   6.988   6.911 -0.1920 -0.1169  0.2008
11997SOL    HW136847   3.781   6.919   6.855 -0.5073 -0.6221  0.9872
11997SOL    HW236848   3.743   7.051   6.918 -0.6415 -0.7050  1.0789
11998SOL     OW36849   2.193   3.833   1.367  0.4548  0.6239 -0.2315
11998SOL    HW136850   2.134   3.841   1.442 -0.0365  2.5588 -0.7641
11998SOL    HW236851   2.169   3.750   1.326 -1.4889  1.0625 -0.0777
11999SOL     OW36852   1.951   1.502   2.369 -0.2030  0.1394  0.2298
11999SOL    HW136853   1.862   1.535   2.383  0.6770  2.1734  1.4970
11999SOL    HW236854   1.969   1.522   2.277  0.2679  3.3897  0.9138
12000SOL     OW36855   4.011   7.157   0.871  0.4206  0.0452  0.2006
12000SOL    HW136856   3.961   7.105   0.934  0.4750 -1.8137 -1.1932
12000SOL    HW236857   3.952   7.227   0.845 -0.7490 -0.9445  0.0788
12001SOL     OW36858   1.072   7.503   6.223 -0.2957  0.2970  0.2557
12001SOL    HW136859   1.060   7.492   6.129 -0.0292 -0.0870  0.2655
12001SOL    HW236860   0.983   7.511   6.257 -0.4648 -0.8624  0.1214
12002SOL     OW36861   2.404   6.898   7.479  0.1565 -0.1587  0.2961
12002SOL    HW136862   2.419   6.896   7.384 -0.9822  0.9244  0.0543
12002SOL    HW236863   2.487   6.927   7.516  0.5733 -0.4617 -0.3818
12003SOL     OW36864   3.565   3.204   0.470  0.2185 -0.0361  0.3729
12003SOL    HW136865   3.592   3.118   0.439  0.9381  0.1352  0.5113
12003SOL    HW236866   3.590   3.206   0.562 -0.1682  0.1716  0.4769
12004SOL     OW36867   5.236   6.833   6.159 -0.0622 -0.0487 -0.1889
12004SOL    HW136868   5.199   6.842   6.071  0.4331  1.1634 -0.2879
12004SOL    HW236869   5.219   6.742   6.182 -0.3010 -0.3613 -1.4976
12005SOL     OW36870   7.720   0.710   6.984  0.2662  0.2229 -0.3484
12005SOL    HW136871   7.754   0.745   6.901  1.9841  3.2342  1.4461
12005SOL    HW236872   7.693   0.788   7.033 -0.4786 -1.4395  2.0200
12006SOL     OW36873   1.735   2.783   2.771  0.4485  0.3006  0.0965
12006SOL    HW136874   1.773   2.719   2.831 -0.8601 -1.4932 -0.8585
12006SOL    HW236875   1.803   2.799   2.706  0.8579 -0.0094  0.4469
12007SOL     OW36876   0.660   1.110   7.007 -0.3423 -0.0773  0.4527
12007SOL    HW136877   0.673   1.170   6.933  1.9891 -0.3262  0.5913
12007SOL    HW236878   0.691   1.159   7.083 -0.8894 -0.5288  0.9765
12008SOL     OW36879   0.880   0.828   5.905 -0.4772  0.8190  0.0223
12008SOL    HW136880   0.875   0.802   5.813 -2.1097  0.5039  0.1701
12008SOL    HW236881   0.829   0.909   5.910 -2.6710 -0.5300  1.0621
12009SOL     OW36882   6.353   6.701   6.881  0.8181  0.0577 -0.4595
12009SOL    HW136883   6.320   6.612   6.868  0.2142 -0.0549  1.5177
12009SOL    HW236884   6.392   6.700   6.969  0.7344  1.7589 -0.3607
12010SOL     OW36885   3.652   6.407   5.965 -0.2573 -0.0646 -0.1248
12010SOL    HW136886   3.738   6.421   6.004  0.0914  2.0044 -1.4618
12010SOL    HW236887   3.665   6.426   5.872 -1.9720 -0.6005 -0.5073
12011SOL     OW36888   7.489   1.120   5.119  0.0233  0.2813 -0.1534
12011SOL    HW136889   7.476   1.214   5.126  0.2856  0.4067 -1.2959
12011SOL    HW236890   7.431   1.083   5.187 -0.4925  1.2299 -0.0650
12012SOL     OW36891   3.841   0.976   3.822 -0.1514  0.0743  1.2996
12012SOL    HW136892   3.830   0.927   3.903  0.0621 -2.8276 -0.2919
12012SOL    HW236893   3.860   0.910   3.756  1.0426  2.4206 -0.9164
12013SOL     OW36894   1.580   0.437   6.046 -0.5752  0.2250  0.5596
12013SOL    HW136895   1.538   0.413   5.963 -0.2267 -0.8219  0.6676
12013SOL    HW236896   1.611   0.353   6.082  0.1934  0.7866  1.2398
12014SOL     OW36897   3.251   1.725   1.708 -0.5041 -0.4171  0.7168
12014SOL    HW136898   3.174   1.705   1.761 -1.7051  0.6684 -0.5784
12014SOL    HW236899   3.250   1.660   1.638 -0.6881  0.0834  0.2531
12015SOL     OW36900   7.398   5.373   1.823 -0.9491  0.1395 -0.2972
12015SOL    HW136901   7.381   5.319   1.901 -0.9114  0.6152  0.0436
12015SOL    HW236902   7.486   5.347   1.795 -1.1238 -0.3295 -0.4268
12016SOL     OW36903   5.936   1.842   7.675 -0.4597  0.7067  0.7614
12016SOL    HW136904   5.901   1.756   7.695 -1.4768  1.1188  0.8049
12016SOL    HW236905   6.026   1.826   7.649  0.1227 -0.1514  3.0255
12017SOL     OW36906   5.812   6.638   0.633  0.1456 -0.0025  0.1472
12017SOL    HW136907   5.819   6.678   0.720 -1.6083  0.2403  0.2110
12017SOL    HW236908   5.799   6.712   0.574  1.5832 -0.1486 -0.3888
12018SOL     OW36909   3.158   5.571   4.962  0.2456  0.3317  0.0181
12018SOL    HW136910   3.099   5.524   5.020 -0.0327  2.7746  1.8885
12018SOL    HW236911   3.212   5.624   5.021 -1.7228  4.9478 -1.7965
12019SOL     OW36912   7.244   0.174   3.782  0.2127 -0.0961  0.0590
12019SOL    HW136913   7.260   0.080   3.784 -0.3120 -0.1877  0.1781
12019SOL    HW236914   7.261   0.203   3.872 -1.3508 -0.3876  0.4815
12020SOL     OW36915   6.661   3.391   2.281 -0.7445  0.1557 -0.3537
12020SOL    HW136916   6.731   3.456   2.295 -0.3153 -0.7152  1.9634
12020SOL    HW236917   6.703   3.307   2.300 -2.0778 -0.5070 -0.2681
12021SOL     OW36918   7.389   6.998   5.353 -0.6021  0.1377  0.4521
12021SOL    HW136919   7.355   6.994   5.442 -2.8292  0.9999 -0.2934
12021SOL    HW236920   7.412   7.090   5.339  1.1738 -0.2494  0.5901
12022SOL     OW36921   6.083   2.561   0.290 -0.3691 -0.1137  0.0902
12022SOL    HW136922   6.039   2.611   0.358 -0.8892 -1.4485  0.7691
12022SOL    HW236923   6.162   2.612   0.270 -0.1883  0.3090  1.7090
12023SOL     OW36924   1.459   7.008   6.169  0.0149  0.1057 -0.2393
12023SOL    HW136925   1.527   7.032   6.231  0.6411 -2.2536  0.0578
12023SOL    HW236926   1.377   7.019   6.217  0.4847 -1.5967  1.0343
12024SOL     OW36927   2.290   1.530   7.844 -0.2639 -0.6130  0.1258
12024SOL    HW136928   2.351   1.525   7.917 -1.0507  0.1126  0.8555
12024SOL    HW236929   2.345   1.524   7.766  1.0119  2.0182  0.7004
12025SOL     OW36930   5.666   5.122   3.864 -0.0905  0.8432  0.5039
12025SOL    HW136931   5.615   5.042   3.875  1.7211 -0.5202 -0.5458
12025SOL    HW236932   5.711   5.133   3.948 -1.6837  1.8125  1.2809
12026SOL     OW36933   3.883   6.852   0.921 -0.0142  0.3382  1.0078
12026SOL    HW136934   3.809   6.799   0.952 -1.5030  2.4302  1.2273
12026SOL    HW236935   3.943   6.854   0.996 -0.5772  0.0899  1.4747
12027SOL     OW36936   2.361   5.281   2.163  0.0730 -0.0916 -0.6148
12027SOL    HW136937   2.309   5.350   2.119 -0.2117 -0.4796 -0.8931
12027SOL    HW236938   2.300   5.241   2.225  0.0475 -0.5202 -0.9110
12028SOL     OW36939   1.321   5.535   5.060 -0.0932 -0.2073  0.1592
12028SOL    HW136940   1.408   5.527   5.020 -0.0288 -2.0929  0.5964
12028SOL    HW236941   1.267   5.474   5.010 -0.4159 -1.3343  1.8319
12029SOL     OW36942   5.224   1.795   3.484  0.0991 -0.0974 -1.0210
12029SOL    HW136943   5.130   1.797   3.501  0.2706  0.6522 -0.1083
12029SOL    HW236944   5.259   1.871   3.530  1.4778 -1.6442  0.6619
12030SOL     OW36945   7.070   1.659   6.734 -0.3661  1.0400  0.6607
12030SOL    HW136946   7.070   1.669   6.829 -1.4032  0.8484  0.7013
12030SOL    HW236947   7.109   1.739   6.701 -1.1887  1.6858  1.2132
12031SOL     OW36948   3.962   6.920   4.900  0.3744  0.4153 -0.1370
12031SOL    HW136949   4.025   6.884   4.962  1.4703  1.7650 -0.4398
12031SOL    HW236950   3.971   7.015   4.908 -0.0879  0.6264 -1.7267
12032SOL     OW36951   7.746   1.432   1.544 -0.0750  0.0433  0.1616
12032SOL    HW136952   7.765   1.453   1.452  1.6182 -0.4728  0.3685
12032SOL    HW236953   7.785   1.504   1.594  1.2455 -0.9304  0.5848
12033SOL     OW36954   1.188   5.966   6.359  0.7245  0.2291 -0.1224
12033SOL    HW136955   1.136   5.969   6.439  0.2150  2.3569 -0.4884
12033SOL    HW236956   1.234   5.882   6.364 -0.6588 -0.4916  1.5158
12034SOL     OW36957   2.230   2.593   3.245  0.0576 -0.0942 -0.0462
12034SOL    HW136958   2.209   2.507   3.281 -0.5126  0.3406  0.6807
12034SOL    HW236959   2.148   2.623   3.205  0.4055 -0.1218 -0.7909
12035SOL     OW36960   0.067   4.159   2.354  0.1308 -0.5764  0.5552
12035SOL    HW136961   0.089   4.068   2.373 -0.9092 -1.0955 -0.5753
12035SOL    HW236962   0.148   4.197   2.321  0.7418 -0.9014  1.6375
12036SOL     OW36963   3.146   3.788   3.817  0.4726 -0.2417  0.4538
12036SOL    HW136964   3.141   3.869   3.869  2.7233 -0.3416  0.9060
12036SOL    HW236965   3.057   3.753   3.820 -0.4300  1.9204  0.7130
12037SOL     OW36966   7.212   1.450   4.606 -0.0404  0.2434 -0.7983
12037SOL    HW136967   7.265   1.477   4.531 -0.4308  1.9635 -0.5052
12037SOL    HW236968   7.274   1.440   4.677  0.5640 -2.9218 -1.6141
12038SOL     OW36969   6.786   7.389   4.990  0.1081 -0.2278 -0.3073
12038SOL    HW136970   6.806   7.389   4.897  2.1662  0.0701  0.0837
12038SOL    HW236971   6.871   7.401   5.033 -0.8206 -0.0462  1.5989
12039SOL     OW36972   5.015   3.126   7.062  0.3742 -0.5925 -0.3666
12039SOL    HW136973   5.064   3.207   7.077  0.5455 -0.3952 -1.8158
12039SOL    HW236974   5.060   3.061   7.116  2.6079 -0.5278 -1.9886
12040SOL     OW36975   1.748   3.412   6.741  0.8682  0.2440 -0.3598
12040SOL    HW136976   1.759   3.462   6.822  1.5911  1.0273 -0.9283
12040SOL    HW236977   1.680   3.458   6.693 -0.7805 -1.1793  0.5060
12041SOL     OW36978   7.208   3.620   7.101  0.5414  0.0937  0.2758
12041SOL    HW136979   7.255   3.681   7.045 -0.9019 -0.5119 -1.7059
12041SOL    HW236980   7.263   3.542   7.104 -0.0185 -0.4360 -1.6330
12042SOL     OW36981   1.607   4.950   0.771  0.3196 -0.2605 -0.3351
12042SOL    HW136982   1.609   4.877   0.832 -0.1214 -0.2847 -0.3429
12042SOL    HW236983   1.662   5.017   0.811 -0.7639  0.1081  0.5902
12043SOL     OW36984   6.577   4.379   6.788 -0.5364  0.0191  0.5538
12043SOL    HW136985   6.595   4.397   6.881 -1.1946  0.9698  0.5092
12043SOL    HW236986   6.490   4.415   6.773 -1.1996 -1.7288 -0.0115
12044SOL     OW36987   6.898   0.473   5.910  0.6559 -0.3217 -0.5963
12044SOL    HW136988   6.863   0.493   5.823 -0.8206 -0.6243 -0.1030
12044SOL    HW236989   6.830   0.419   5.951  0.2883  1.5861  1.5157
12045SOL     OW36990   5.773   2.993   0.400 -0.4768 -0.1335  0.2435
12045SOL    HW136991   5.779   2.961   0.310  0.1857  0.0929  0.1964
12045SOL    HW236992   5.737   2.920   0.450 -1.7673  0.0582 -0.3588
12046SOL     OW36993   4.263   5.645   5.733 -0.0656  0.1285 -0.5686
12046SOL    HW136994   4.243   5.552   5.726 -0.3507  0.1354  0.1131
12046SOL    HW236995   4.345   5.656   5.686  0.0885 -0.5087 -0.4507
12047SOL     OW36996   0.634   1.452   5.571 -0.1372 -0.3845  0.1001
12047SOL    HW136997   0.718   1.440   5.616 -0.7187 -1.2428  1.0127
12047SOL    HW236998   0.623   1.372   5.520 -0.5140 -0.3829  0.1782
12048SOL     OW36999   2.841   6.724   1.827 -1.0137 -0.1997 -0.0552
12048SOL    HW137000   2.752   6.693   1.811 -0.5855 -1.6313  0.1741
12048SOL    HW237001   2.885   6.715   1.743 -0.9762  0.1289 -0.0721
12049SOL     OW37002   4.581   0.923   1.890 -0.5473  0.4439 -0.4648
12049SOL    HW137003   4.653   0.893   1.834 -1.1580 -0.1261 -0.9611
12049SOL    HW237004   4.503   0.887   1.849 -0.9800 -0.3271  0.9766
12050SOL     OW37005   3.259   2.517   0.262 -0.2296  0.1199  0.0972
12050SOL    HW137006   3.320   2.449   0.291 -1.4627 -0.9955  0.1533
12050SOL    HW237007   3.245   2.570   0.340  1.8820  1.3914 -0.3145
12051SOL     OW37008   6.628   5.214   1.892  0.3261  0.8119 -0.3308
12051SOL    HW137009   6.648   5.293   1.942 -0.2320  0.4806  0.4429
12051SOL    HW237010   6.579   5.159   1.953  0.7946 -0.1835 -0.8182
12052SOL     OW37011   4.354   4.259   5.934  0.5319 -0.0214  0.0057
12052SOL    HW137012   4.331   4.257   5.842  0.5911  1.6522 -0.0735
12052SOL    HW237013   4.410   4.336   5.944 -0.0564  0.2525  1.5566
12053SOL     OW37014   4.849   5.050   5.368  0.2642 -0.4595  0.1958
12053SOL    HW137015   4.778   5.007   5.416  0.9947 -0.5752  1.2191
12053SOL    HW237016   4.921   5.054   5.431  1.4478 -1.0701 -1.0544
12054SOL     OW37017   0.866   2.260   0.059 -0.1493  0.0922  0.1195
12054SOL    HW137018   0.811   2.338   0.048 -2.2192 -1.4093 -0.8326
12054SOL    HW237019   0.823   2.210   0.129  0.1321 -1.0103 -0.4695
12055SOL     OW37020   3.326   1.585   1.240 -0.7068  0.2211 -0.3222
12055SOL    HW137021   3.347   1.631   1.159  0.9093  0.7902  0.3789
12055SOL    HW237022   3.239   1.547   1.224 -2.0207  3.1858 -1.0821
12056SOL     OW37023   4.235   2.167   2.295 -0.1393  0.0188  0.2447
12056SOL    HW137024   4.174   2.241   2.291 -2.1452 -1.5675 -0.9749
12056SOL    HW237025   4.212   2.113   2.218  1.9694 -1.3144  0.4745
12057SOL     OW37026   3.269   3.354   4.389 -0.3961  0.0551 -0.6727
12057SOL    HW137027   3.227   3.275   4.423  0.6605 -0.5853 -0.8097
12057SOL    HW237028   3.290   3.405   4.467  1.4954 -1.1416 -0.3404
12058SOL     OW37029   5.397   4.076   0.188  0.4175  0.4210 -0.0329
12058SOL    HW137030   5.372   4.168   0.200 -2.6652 -0.7018  4.8667
12058SOL    HW237031   5.333   4.041   0.126  1.7152  1.4021 -2.0658
12059SOL     OW37032   7.676   3.964   5.294  0.0442  0.0210  0.7744
12059SOL    HW137033   7.685   4.017   5.215  1.5957 -1.1630  0.0870
12059SOL    HW237034   7.627   3.887   5.266 -0.8565  0.3654  1.3846
12060SOL     OW37035   2.354   7.047   5.855 -0.5013  0.0082  0.0633
12060SOL    HW137036   2.366   6.955   5.879 -0.8818 -0.1785 -0.4477
12060SOL    HW237037   2.260   7.061   5.857 -0.4170  0.5626  0.7487
12061SOL     OW37038   5.319   3.838   4.271 -0.5090  0.0185  0.0327
12061SOL    HW137039   5.324   3.933   4.284 -1.5590  0.0229  0.5365
12061SOL    HW237040   5.252   3.827   4.204  0.8146 -0.3001 -1.2723
12062SOL     OW37041   2.291   0.434   0.099 -0.1736  0.5783  0.3603
12062SOL    HW137042   2.278   0.411   0.191  1.7675 -0.3232  0.4664
12062SOL    HW237043   2.273   0.353   0.051 -0.6844  0.9068 -0.0125
12063SOL     OW37044   2.346   2.497   7.594  0.6956 -0.2372  0.3929
12063SOL    HW137045   2.277   2.474   7.532  0.3092 -0.6065  0.9517
12063SOL    HW237046   2.301   2.515   7.676  1.2550 -0.4095  0.7470
12064SOL     OW37047   2.362   6.801   5.951 -0.1102  0.0010  0.5181
12064SOL    HW137048   2.287   6.766   5.999  0.1203 -0.5204  0.4954
12064SOL    HW237049   2.398   6.726   5.904 -1.1104  0.7238 -1.5214
12065SOL     OW37050   3.430   5.220   6.890 -0.0806 -0.0038 -0.3270
12065SOL    HW137051   3.375   5.202   6.966 -0.0415  1.9631  0.2376
12065SOL    HW237052   3.372   5.208   6.815  0.0445 -2.5776 -0.1016
12066SOL     OW37053   1.445   0.224   0.027 -0.9909  0.0512  0.0777
12066SOL    HW137054   1.403   0.220  -0.058  0.9709  0.7905 -0.9987
12066SOL    HW237055   1.471   0.316   0.037 -1.1610 -0.0227  1.4787
12067SOL     OW37056   5.903   5.594   0.395  0.2217 -0.0434  0.1415
12067SOL    HW137057   5.945   5.606   0.310 -1.7421 -0.7026 -0.9832
12067SOL    HW237058   5.829   5.655   0.394  0.0438 -0.2221  1.2924
12068SOL     OW37059   0.417   2.824   4.644 -0.2202  0.1803  0.0189
12068SOL    HW137060   0.358   2.792   4.713 -0.9157 -0.1938 -0.7314
12068SOL    HW237061   0.380   2.789   4.563  0.6610  0.5074 -0.5365
12069SOL     OW37062   3.630   3.578   7.092 -0.0136 -0.0855  0.0118
12069SOL    HW137063   3.643   3.671   7.075  2.7064 -0.5634 -1.0320
12069SOL    HW237064   3.682   3.560   7.171  1.3164 -1.0791 -1.0439
12070SOL     OW37065   4.453   6.663   5.093 -0.4906  0.0263  0.1224
12070SOL    HW137066   4.424   6.624   5.010 -0.7507 -0.8059  0.5986
12070SOL    HW237067   4.517   6.601   5.128  0.5891  0.9972 -0.0642
12071SOL     OW37068   0.855   7.434   3.017  0.0463 -0.4000  0.2725
12071SOL    HW137069   0.935   7.472   3.053  1.4280 -1.1112 -1.8554
12071SOL    HW237070   0.836   7.487   2.939 -0.0323 -1.8093 -0.7071
12072SOL     OW37071   3.180   3.145   2.946  0.5066  0.1627 -0.6038
12072SOL    HW137072   3.234   3.096   3.008  0.1533 -2.3564 -2.1363
12072SOL    HW237073   3.119   3.194   3.001  0.5172 -1.5896  1.0719
12073SOL     OW37074   2.214   3.199   2.287  0.0105  0.1455 -0.1923
12073SOL    HW137075   2.140   3.140   2.302  1.7136 -1.5802  2.3894
12073SOL    HW237076   2.177   3.287   2.294 -1.8609 -0.6481  0.5461
12074SOL     OW37077   1.346   2.545   3.542 -0.2976  0.1547  0.1920
12074SOL    HW137078   1.291   2.475   3.505  1.1965 -0.5781 -0.7357
12074SOL    HW237079   1.320   2.624   3.495  0.9957 -0.6159 -1.9299
12075SOL     OW37080   5.576   4.663   5.770  0.8501 -1.0466 -0.4802
12075SOL    HW137081   5.649   4.631   5.824 -0.9475 -1.6959  1.7203
12075SOL    HW237082   5.498   4.631   5.814 -0.8200 -0.1344 -2.6047
12076SOL     OW37083   3.779   7.752   1.517 -0.1550  0.4318  0.5842
12076SOL    HW137084   3.726   7.687   1.565  0.4631 -1.3211 -0.9689
12076SOL    HW237085   3.817   7.807   1.586  1.4580 -2.5157  2.2627
12077SOL     OW37086   4.954   6.001   7.840  0.1053  0.5176 -0.3529
12077SOL    HW137087   5.029   5.947   7.864  0.1365  0.6812 -0.0749
12077SOL    HW237088   4.939   6.057   7.916  0.3149  1.1734 -0.7855
12078SOL     OW37089   6.397   3.935   1.970  0.1841  0.2074  0.0480
12078SOL    HW137090   6.486   3.962   1.993  0.4713 -1.9793  1.8945
12078SOL    HW237091   6.362   3.896   2.050 -2.9284  2.0411 -0.2566
12079SOL     OW37092   6.979   0.839   2.568 -0.7163  0.6546  0.9184
12079SOL    HW137093   6.902   0.797   2.530 -1.2665  0.5968  2.0572
12079SOL    HW237094   7.051   0.814   2.510 -1.8440  2.4257 -1.4000
12080SOL     OW37095   1.265   4.381   3.588  0.0614 -0.5634 -0.2792
12080SOL    HW137096   1.220   4.373   3.504  0.6451  0.2359 -0.6776
12080SOL    HW237097   1.234   4.464   3.625  0.0080 -0.7815  0.1830
12081SOL     OW37098   7.300   5.106   1.619  0.1492 -0.5798  0.2689
12081SOL    HW137099   7.394   5.095   1.606  0.2536 -0.0044  0.4909
12081SOL    HW237100   7.260   5.057   1.547  0.6504  0.0285 -0.4419
12082SOL     OW37101   0.812   2.991   5.719  0.1160  0.6231  0.0020
12082SOL    HW137102   0.871   2.955   5.785 -0.9307 -4.2565 -1.2936
12082SOL    HW237103   0.869   3.018   5.647  1.0026  1.4416  0.9893
12083SOL     OW37104   5.679   7.137   1.216  0.4939 -0.2399  0.4501
12083SOL    HW137105   5.632   7.061   1.250  0.5606  0.1956  1.5783
12083SOL    HW237106   5.700   7.115   1.125  0.3286 -1.4770  0.7003
12084SOL     OW37107   7.881   6.317   0.761  0.0128  0.1923 -0.7606
12084SOL    HW137108   7.858   6.368   0.684  0.5138 -0.2307 -1.2005
12084SOL    HW237109   7.823   6.240   0.757 -1.8040  1.3864  0.7027
12085SOL     OW37110   7.208   6.440   3.296  0.3873 -0.8357  0.3457
12085SOL    HW137111   7.130   6.387   3.277 -0.4263  0.7908 -1.1690
12085SOL    HW237112   7.280   6.390   3.259 -0.3931 -0.7856 -1.3204
12086SOL     OW37113   5.496   3.357   0.384  0.0257 -0.1321  0.0150
12086SOL    HW137114   5.587   3.357   0.353  0.5467  1.3064  1.3894
12086SOL    HW237115   5.447   3.400   0.313  0.1636 -1.9358 -1.2483
12087SOL     OW37116   0.860   7.827   4.862  0.5328  0.1410  0.3329
12087SOL    HW137117   0.905   7.776   4.795  1.1902 -0.0638  0.9172
12087SOL    HW237118   0.869   7.775   4.942  0.5734  0.8223  0.7846
12088SOL     OW37119   3.749   3.307   4.257  0.3414 -0.1322  0.2972
12088SOL    HW137120   3.698   3.378   4.219 -0.1490  0.4108  1.8832
12088SOL    HW237121   3.705   3.287   4.340  1.1271 -1.5199  0.4181
12089SOL     OW37122   1.927   3.703   5.533  0.0417  0.2568 -0.6364
12089SOL    HW137123   1.897   3.756   5.606 -1.1373  0.3111 -1.1257
12089SOL    HW237124   2.022   3.716   5.530  0.0800  0.3954  0.7502
12090SOL     OW37125   0.737   5.502   2.314 -0.0503  0.1302  0.5616
12090SOL    HW137126   0.643   5.510   2.300 -0.3165 -1.1064  1.5019
12090SOL    HW237127   0.774   5.582   2.276 -1.4719  0.6289  0.1864
12091SOL     OW37128   2.927   3.273   0.914 -0.4457  0.2278 -0.0222
12091SOL    HW137129   2.941   3.276   1.008 -1.2980  0.4326  0.1089
12091SOL    HW237130   3.008   3.307   0.876 -0.0777  0.0826  0.6310
12092SOL     OW37131   5.346   0.220   4.841 -0.2097  0.3224  0.4542
12092SOL    HW137132   5.342   0.271   4.922 -0.5319  1.6921 -0.3942
12092SOL    HW237133   5.258   0.181   4.833  0.4280 -1.5448  1.7915
12093SOL     OW37134   7.897   5.612   1.693 -0.7554  0.0197 -0.1423
12093SOL    HW137135   7.821   5.611   1.634 -0.5664  1.6036 -0.4567
12093SOL    HW237136   7.944   5.692   1.670  0.1756 -0.1449  1.1046
12094SOL     OW37137   5.063   5.899   0.194  0.0773 -0.2356 -0.3604
12094SOL    HW137138   5.133   5.892   0.258 -0.4100 -0.5134  0.1462
12094SOL    HW237139   5.100   5.863   0.113  0.4069 -0.6787 -0.0122
12095SOL     OW37140   4.464   4.014   6.009 -0.6583 -0.9900  0.6045
12095SOL    HW137141   4.417   4.093   5.981  0.1772 -0.3476  0.9529
12095SOL    HW237142   4.515   3.988   5.932  0.9968  0.2914  1.2160
12096SOL     OW37143   4.162   6.623   3.335  0.4926  1.0102  0.3514
12096SOL    HW137144   4.132   6.563   3.403  0.9650 -0.1236 -0.4068
12096SOL    HW237145   4.189   6.566   3.263  0.0029  2.1700 -0.7982
12097SOL     OW37146   4.104   3.985   3.536  0.4242  0.0692  0.0981
12097SOL    HW137147   4.054   4.037   3.473 -0.2562 -0.0046  0.5686
12097SOL    HW237148   4.047   3.978   3.612  1.1292 -0.0682  0.6281
12098SOL     OW37149   5.560   2.434   6.774  0.1372  0.6378 -0.0892
12098SOL    HW137150   5.496   2.500   6.745 -1.7032 -1.2750 -0.7156
12098SOL    HW237151   5.542   2.359   6.717  1.5337 -0.7067  1.1861
12099SOL     OW37152   1.793   5.598   5.531 -0.6041  0.3571 -0.5481
12099SOL    HW137153   1.804   5.691   5.551 -1.1345  0.5051 -0.9272
12099SOL    HW237154   1.731   5.596   5.458  2.5363 -0.0790 -3.4594
12100SOL     OW37155   6.484   4.625   3.344  0.8312 -0.0489  0.5342
12100SOL    HW137156   6.472   4.674   3.263  1.2625  1.1411  1.1641
12100SOL    HW237157   6.397   4.617   3.382  1.0088  2.3529  1.5970
12101SOL     OW37158   6.006   1.549   5.664 -0.2358 -0.6344  0.0473
12101SOL    HW137159   6.074   1.540   5.597  2.3494  0.9283  2.2337
12101SOL    HW237160   5.944   1.612   5.626  1.1994  0.2991 -0.8720
12102SOL     OW37161   6.234   7.213   3.998 -0.1995  0.0555  0.0643
12102SOL    HW137162   6.151   7.258   3.982 -0.1808  0.2734  0.5746
12102SOL    HW237163   6.238   7.147   3.929 -0.2838  0.7489 -0.6154
12103SOL     OW37164   2.428   1.196   2.257 -0.0789 -0.4123 -0.3733
12103SOL    HW137165   2.466   1.230   2.176  0.3488 -0.8155 -0.3453
12103SOL    HW237166   2.337   1.178   2.235  0.3006 -1.5882 -1.1044
12104SOL     OW37167   3.106   2.685   1.992  0.4149  0.3795 -0.1556
12104SOL    HW137168   3.130   2.757   2.051 -1.6347 -0.0450  1.3081
12104SOL    HW237169   3.026   2.715   1.949 -0.2640 -0.8538  0.2053
12105SOL     OW37170   5.405   0.460   2.178 -0.2078 -0.0679  0.2351
12105SOL    HW137171   5.452   0.387   2.219  0.1976 -0.6053 -1.1204
12105SOL    HW237172   5.475   0.516   2.143 -0.5385 -0.6206 -1.3718
12106SOL     OW37173   1.353   2.083   6.799  0.7898  0.0886 -0.0675
12106SOL    HW137174   1.385   2.055   6.714 -0.1246  1.0405 -0.7573
12106SOL    HW237175   1.258   2.077   6.793  0.4499  3.5965 -0.4610
12107SOL     OW37176   6.700   6.485   3.792  0.5541 -0.0320  0.0879
12107SOL    HW137177   6.612   6.470   3.758  0.4351 -0.0744  0.4181
12107SOL    HW237178   6.758   6.459   3.720  0.2881  0.7243 -0.4244
12108SOL     OW37179   1.433   4.954   2.120 -0.3158  0.8406  0.2036
12108SOL    HW137180   1.404   5.012   2.191 -1.0225  0.9326 -0.1532
12108SOL    HW237181   1.498   5.005   2.072 -1.1509  1.4534 -0.2848
12109SOL     OW37182   2.329   3.000   3.280 -0.4158  0.9210  0.8952
12109SOL    HW137183   2.345   3.048   3.362 -1.6335  1.6833  0.7141
12109SOL    HW237184   2.241   3.027   3.254 -0.4473 -0.1151 -0.1314
12110SOL     OW37185   1.135   5.073   0.390 -0.3192  0.4833 -0.0729
12110SOL    HW137186   1.060   5.029   0.431 -0.2294 -0.1071 -0.5260
12110SOL    HW237187   1.192   5.001   0.363 -0.0907  0.8880 -0.6819
12111SOL     OW37188   7.662   0.609   0.337  0.4402  0.0445 -0.6233
12111SOL    HW137189   7.577   0.644   0.310  0.0730 -0.8812 -0.7240
12111SOL    HW237190   7.707   0.589   0.255 -0.0812 -1.3822 -0.5890
12112SOL     OW37191   1.928   4.527   2.256  0.2250  0.1283 -0.7829
12112SOL    HW137192   1.857   4.485   2.305  1.9833 -1.6201  0.4387
12112SOL    HW237193   1.995   4.459   2.248  2.8956  2.4026  0.5080
12113SOL     OW37194   1.472   3.666   7.224  0.4612 -0.1539 -0.4725
12113SOL    HW137195   1.482   3.572   7.238 -1.8601 -0.7456 -2.0951
12113SOL    HW237196   1.425   3.696   7.301 -0.7585 -0.8059 -0.9306
12114SOL     OW37197   5.407   3.347   4.616 -0.5602 -0.4525 -0.2297
12114SOL    HW137198   5.384   3.418   4.556  0.3196 -0.8311 -1.0219
12114SOL    HW237199   5.327   3.295   4.623 -1.6840  1.3540  1.4676
12115SOL     OW37200   2.010   4.451   0.893  0.1806  0.3148 -0.2306
12115SOL    HW137201   1.940   4.428   0.831  2.3327 -1.4392 -2.2119
12115SOL    HW237202   2.003   4.386   0.963 -1.0496  1.0861  0.3944
12116SOL     OW37203   1.712   5.850   6.887 -0.3587  0.2939  0.0758
12116SOL    HW137204   1.693   5.819   6.798 -0.0151 -0.2989  0.2019
12116SOL    HW237205   1.780   5.791   6.919 -2.3018 -1.2014  1.7029
12117SOL     OW37206   0.520   2.675   5.906  0.0022 -0.0359  0.0225
12117SOL    HW137207   0.474   2.648   5.985  1.0154  1.1529  1.0512
12117SOL    HW237208   0.555   2.593   5.869 -0.8525 -0.6474  0.5438
12118SOL     OW37209   4.028   4.595   7.225  0.1116  0.0753  0.3498
12118SOL    HW137210   4.107   4.581   7.277 -0.8227 -1.2008  1.5069
12118SOL    HW237211   3.977   4.658   7.275 -1.3517 -2.0795  1.7335
12119SOL     OW37212   0.514   7.244   1.755 -0.3615  0.0134  0.2511
12119SOL    HW137213   0.513   7.326   1.803  0.3067  0.6644 -0.8170
12119SOL    HW237214   0.573   7.187   1.805  1.3278  1.1000 -0.4170
12120SOL     OW37215   3.219   1.145   7.493 -0.1137 -0.2372 -0.2391
12120SOL    HW137216   3.210   1.185   7.580 -0.8498 -1.2027  0.1464
12120SOL    HW237217   3.154   1.191   7.440  0.1179  0.1400 -0.1982
12121SOL     OW37218   4.925   6.300   1.364 -0.4617 -0.2873  0.1444
12121SOL    HW137219   4.859   6.244   1.406 -0.6474  0.9937  1.6274
12121SOL    HW237220   4.984   6.239   1.321 -1.5374 -1.5551  0.3969
12122SOL     OW37221   6.015   5.994   3.109  0.3418 -0.7581  0.1857
12122SOL    HW137222   6.021   6.022   3.017 -2.8049  1.1254  0.4163
12122SOL    HW237223   5.963   5.914   3.107 -0.2942 -0.3547  0.3523
12123SOL     OW37224   3.426   5.762   4.205  0.3262  0.3393  0.4806
12123SOL    HW137225   3.463   5.746   4.118 -0.6607 -0.9076  0.2740
12123SOL    HW237226   3.346   5.812   4.188  0.4149  0.5618  0.7140
12124SOL     OW37227   6.895   4.337   4.965  0.2528 -0.8265  0.5795
12124SOL    HW137228   6.895   4.393   5.042 -1.0957  0.2459 -0.1602
12124SOL    HW237229   6.922   4.251   4.997  0.0210 -0.3236  2.1771
12125SOL     OW37230   2.094   2.856   5.370  0.2955  0.3143 -0.3581
12125SOL    HW137231   2.158   2.847   5.300  0.7076  1.1559 -0.0946
12125SOL    HW237232   2.136   2.912   5.435 -0.2534 -0.0921  0.3646
12126SOL     OW37233   1.158   0.660   6.372 -0.1850  0.2939 -0.2838
12126SOL    HW137234   1.165   0.743   6.420  0.0328  0.4419 -0.5660
12126SOL    HW237235   1.242   0.652   6.327 -0.8503  0.8299 -1.7139
12127SOL     OW37236   7.513   7.626   1.364 -0.0945  0.4892 -0.0110
12127SOL    HW137237   7.602   7.654   1.340  0.1620  0.8671  1.2724
12127SOL    HW237238   7.456   7.666   1.298  0.6373  0.7062 -0.5251
12128SOL     OW37239   1.936   0.356   1.430 -0.0478  0.1357 -0.7286
12128SOL    HW137240   1.866   0.418   1.451 -0.1017 -0.1986  0.1005
12128SOL    HW237241   1.995   0.360   1.505  1.4476  1.2654 -1.9215
12129SOL     OW37242   3.833   1.933   4.659  0.2013  0.2037 -0.0479
12129SOL    HW137243   3.865   2.015   4.697 -2.3980  1.3656 -0.2156
12129SOL    HW237244   3.788   1.889   4.731 -0.4760  0.0653 -0.5539
12130SOL     OW37245   2.318   5.507   3.190  0.6762 -0.2068  0.5263
12130SOL    HW137246   2.239   5.559   3.172  0.1910 -1.4514 -1.2790
12130SOL    HW237247   2.285   5.427   3.231  1.3186  0.3817  2.3009
12131SOL     OW37248   0.458   7.700   7.133 -0.0014  0.1838 -0.7835
12131SOL    HW137249   0.398   7.633   7.100  0.3564  0.9074 -3.1091
12131SOL    HW237250   0.504   7.732   7.055  0.5296  2.4642  0.3658
12132SOL     OW37251   7.808   3.483   7.793 -0.0105 -0.5477  0.0821
12132SOL    HW137252   7.741   3.512   7.731 -0.1365 -2.0229 -0.5130
12132SOL    HW237253   7.849   3.408   7.751  0.9342 -0.6511  1.1402
12133SOL     OW37254   1.248   2.261   4.647 -0.3175 -0.2394 -0.0505
12133SOL    HW137255   1.333   2.251   4.689 -0.6573  0.7588  0.8987
12133SOL    HW237256   1.202   2.179   4.667  0.4369 -0.8427 -0.6805
12134SOL     OW37257   1.099   5.822   1.890  0.3222  0.4283  0.0202
12134SOL    HW137258   1.080   5.775   1.971 -0.4066 -0.8414 -0.8465
12134SOL    HW237259   1.161   5.766   1.844 -0.8261  0.0932 -1.1877
12135SOL     OW37260   1.543   2.372   0.038  0.2490  0.4122 -0.1382
12135SOL    HW137261   1.581   2.458   0.055 -0.9684  1.0867 -0.7100
12135SOL    HW237262   1.510   2.377  -0.051 -0.5170 -0.4003  0.0842
12136SOL     OW37263   4.693   6.016   2.455  1.2021  0.0522  0.2682
12136SOL    HW137264   4.619   5.956   2.451  0.4559  0.9596  0.2207
12136SOL    HW237265   4.741   5.990   2.534  0.8991 -0.6145  0.2336
12137SOL     OW37266   3.855   6.260   4.086  0.0302 -0.5339 -0.1057
12137SOL    HW137267   3.774   6.220   4.054  0.3311  1.0482 -3.2262
12137SOL    HW237268   3.825   6.332   4.142 -0.8065  0.1399 -1.3623
12138SOL     OW37269   6.884   4.559   1.040  0.0563  0.2085  0.6168
12138SOL    HW137270   6.804   4.610   1.054 -0.4245 -0.4067  0.1374
12138SOL    HW237271   6.952   4.608   1.088 -0.6628  0.5518  1.3072
12139SOL     OW37272   3.742   6.250   3.242  0.0840  0.0977 -0.3899
12139SOL    HW137273   3.747   6.214   3.154 -0.3335  2.1137 -1.2968
12139SOL    HW237274   3.826   6.226   3.282 -0.0400 -1.5182 -1.0264
12140SOL     OW37275   1.957   0.192   4.779  0.1813 -0.2452 -0.8178
12140SOL    HW137276   1.918   0.216   4.695 -0.5648  2.0003  0.0995
12140SOL    HW237277   2.037   0.244   4.784 -0.5047  0.7358  0.4393
12141SOL     OW37278   3.518   1.317   0.556 -0.3603  0.2661 -0.6057
12141SOL    HW137279   3.606   1.290   0.583 -0.4585  0.8796  0.4142
12141SOL    HW237280   3.464   1.240   0.571 -0.3987  0.5568  1.0167
12142SOL     OW37281   4.445   0.176   1.308  0.4087 -0.3362 -0.2039
12142SOL    HW137282   4.416   0.087   1.330  1.9581 -0.2490  2.6901
12142SOL    HW237283   4.370   0.231   1.329 -0.8537 -0.9151 -2.7767
12143SOL     OW37284   7.974   0.110   0.878 -0.6983 -0.2499 -0.1989
12143SOL    HW137285   7.993   0.189   0.827  0.3214 -1.5570 -1.9622
12143SOL    HW237286   7.949   0.142   0.965  2.2814  1.9452 -0.0045
12144SOL     OW37287   7.818   5.464   5.874  0.0418 -0.2382  0.5809
12144SOL    HW137288   7.855   5.430   5.792 -1.0178 -2.2362  0.8591
12144SOL    HW237289   7.851   5.553   5.881 -0.8007  0.4432 -2.6446
12145SOL     OW37290   6.915   0.730   4.524 -1.0813  0.7885  0.7660
12145SOL    HW137291   6.985   0.727   4.588 -0.8936  1.4724  0.6025
12145SOL    HW237292   6.843   0.681   4.564 -0.2678 -0.5960  0.6158
12146SOL     OW37293   5.285   7.317   4.655  0.0984  0.2725 -0.1391
12146SOL    HW137294   5.332   7.325   4.738  0.1233  0.9209 -0.2167
12146SOL    HW237295   5.284   7.223   4.638  2.1070  0.2917 -0.5674
12147SOL     OW37296   3.462   3.976   6.627 -0.1724 -0.0084 -0.4088
12147SOL    HW137297   3.481   4.069   6.623  0.3528 -0.0718  0.3718
12147SOL    HW237298   3.376   3.967   6.587 -0.6607  0.9467  0.3804
12148SOL     OW37299   1.412   7.578   4.431  0.0877  0.0984 -0.0079
12148SOL    HW137300   1.392   7.538   4.515 -1.1872  0.7833  0.0443
12148SOL    HW237301   1.471   7.516   4.387 -1.9898 -1.9606 -0.0513
12149SOL     OW37302   3.464   3.294   7.208 -0.2977  0.1088 -0.1202
12149SOL    HW137303   3.508   3.321   7.288 -0.7946 -0.9135  0.5252
12149SOL    HW237304   3.506   3.344   7.138  0.6539  0.4585  0.6911
12150SOL     OW37305   3.444   7.060   0.246 -0.3576  0.1445 -0.0481
12150SOL    HW137306   3.536   7.083   0.233 -0.5698 -0.1734 -2.6349
12150SOL    HW237307   3.397   7.110   0.178 -1.7895 -1.5082 -0.3338
12151SOL     OW37308   1.667   2.953   4.468  0.2362 -0.4001 -0.4968
12151SOL    HW137309   1.673   2.908   4.384  1.7807  0.1465 -0.7122
12151SOL    HW237310   1.601   2.904   4.517 -0.7644 -0.6747 -2.0470
12152SOL     OW37311   6.328   2.144   5.092 -0.2277  0.2727 -0.1274
12152SOL    HW137312   6.271   2.072   5.119 -0.8692  0.0582 -1.9738
12152SOL    HW237313   6.286   2.182   5.015  0.7676  1.8180  0.0381
12153SOL     OW37314   0.809   6.730   1.346  0.4681  0.2045  0.0395
12153SOL    HW137315   0.736   6.763   1.399  1.4965  0.3841  1.3896
12153SOL    HW237316   0.767   6.678   1.278 -0.8834 -0.3752  1.2693
12154SOL     OW37317   2.690   2.431   0.836 -0.2001 -0.5855  0.1723
12154SOL    HW137318   2.752   2.492   0.795 -0.8027 -0.8461 -1.1770
12154SOL    HW237319   2.676   2.466   0.924  0.5037  0.4595 -0.1145
12155SOL     OW37320   4.585   4.078   4.838 -0.0797 -0.1353 -0.3437
12155SOL    HW137321   4.571   4.171   4.818 -1.1421 -0.1747  0.1587
12155SOL    HW237322   4.667   4.077   4.888  0.4810  0.4053 -1.2266
12156SOL     OW37323   3.265   1.258   4.902 -0.0884 -0.0283 -0.3277
12156SOL    HW137324   3.257   1.209   4.984  2.0667  0.0587 -0.0186
12156SOL    HW237325   3.203   1.331   4.912  0.1858  0.0191  1.2583
12157SOL     OW37326   3.513   6.504   2.552 -0.1446 -0.2431 -0.3604
12157SOL    HW137327   3.480   6.587   2.517  3.1641  0.5602 -2.0294
12157SOL    HW237328   3.495   6.441   2.483  1.1837  0.0967 -1.0613
12158SOL     OW37329   3.458   7.888   3.390 -0.1805  0.3555  0.2431
12158SOL    HW137330   3.411   7.969   3.410  0.2624  0.5301  0.5877
12158SOL    HW237331   3.550   7.909   3.406  0.0814  0.1840 -0.9908
12159SOL     OW37332   1.010   4.868   1.761 -0.4914 -0.3795 -0.3255
12159SOL    HW137333   0.928   4.820   1.764 -0.6433 -0.0770  0.6876
12159SOL    HW237334   1.060   4.837   1.837  0.1917 -0.3240 -0.7407
12160SOL     OW37335   3.327   7.062   0.487 -0.3508 -0.3621 -0.4511
12160SOL    HW137336   3.374   7.083   0.406 -1.4623 -1.8807 -1.5290
12160SOL    HW237337   3.266   6.993   0.463 -0.6846 -0.8969  1.7103
12161SOL     OW37338   3.064   4.590   2.196 -0.3306  0.2364  0.6017
12161SOL    HW137339   3.077   4.515   2.254  0.2861  2.1893  3.1756
12161SOL    HW237340   2.969   4.596   2.185 -0.3825 -0.9105  0.3400
12162SOL     OW37341   2.423   2.852   5.720 -0.3772 -0.6142 -0.0237
12162SOL    HW137342   2.371   2.782   5.760 -0.5740 -1.8246 -2.2481
12162SOL    HW237343   2.497   2.864   5.780 -0.8614 -2.0245  0.9185
12163SOL     OW37344   6.781   3.838   5.792  0.1483 -0.3843  0.1668
12163SOL    HW137345   6.739   3.826   5.877  0.1398  0.3508  0.2675
12163SOL    HW237346   6.727   3.787   5.732 -1.5456  1.3665  0.1025
12164SOL     OW37347   6.216   4.063   1.438 -0.2558 -0.0317 -0.0997
12164SOL    HW137348   6.170   4.147   1.432 -1.4477 -0.7385 -1.8687
12164SOL    HW237349   6.153   4.005   1.481 -0.1583 -0.4437 -0.5015
12165SOL     OW37350   3.178   3.720   0.703  0.1656 -0.0564 -0.3985
12165SOL    HW137351   3.175   3.702   0.797 -1.8391  1.5218 -0.0926
12165SOL    HW237352   3.271   3.715   0.680  0.8144  0.5315  1.8855
12166SOL     OW37353   4.123   6.601   0.689 -0.8364 -0.3646  0.1587
12166SOL    HW137354   4.106   6.651   0.609 -0.1972  0.7083  0.6609
12166SOL    HW237355   4.084   6.515   0.673 -1.7975  0.2283 -0.8191
12167SOL     OW37356   5.072   5.639   6.858  0.4718 -0.3962 -0.2847
12167SOL    HW137357   4.982   5.636   6.826  1.5456 -1.2295 -3.6066
12167SOL    HW237358   5.081   5.562   6.914 -0.8449 -0.2294  0.2075
12168SOL     OW37359   5.384   2.718   6.271 -0.0702  0.3817  0.0325
12168SOL    HW137360   5.448   2.788   6.283 -1.8184  2.1592 -0.5188
12168SOL    HW237361   5.386   2.700   6.177 -1.6967  1.8663 -0.3459
12169SOL     OW37362   4.412   6.975   7.434 -0.3825 -1.3933  0.2727
12169SOL    HW137363   4.345   6.982   7.502  0.1228 -1.2740  0.7588
12169SOL    HW237364   4.443   6.885   7.441 -1.4514 -1.8779 -0.8715
12170SOL     OW37365   2.966   0.467   3.077  0.0289 -0.3248 -0.0786
12170SOL    HW137366   3.005   0.474   3.165  2.1719  1.1504 -1.0706
12170SOL    HW237367   2.896   0.531   3.077  2.3029  2.3552 -0.4741
12171SOL     OW37368   7.728   0.691   7.791 -0.0035  0.0814 -0.3026
12171SOL    HW137369   7.714   0.762   7.854  0.9334  1.0408 -1.1354
12171SOL    HW237370   7.642   0.677   7.751 -0.3801  0.1588  0.4728
12172SOL     OW37371   8.003   1.952   6.478 -0.5393  0.0203 -0.1767
12172SOL    HW137372   8.026   1.987   6.392 -3.1584 -0.5498 -1.1930
12172SOL    HW237373   8.055   2.003   6.540  0.0042  1.7493 -1.9747
12173SOL     OW37374   7.933   1.474   2.177 -0.1704  0.5477 -0.4193
12173SOL    HW137375   7.965   1.534   2.245  1.3005 -0.1723 -0.4301
12173SOL    HW237376   7.866   1.422   2.221  1.3889 -0.5382  0.8443
12174SOL     OW37377   4.281   2.569   6.060 -0.1878  0.4942  0.1243
12174SOL    HW137378   4.359   2.622   6.044  0.8208 -1.0992 -0.4533
12174SOL    HW237379   4.232   2.572   5.978  1.5036 -1.9939 -1.1318
12175SOL     OW37380   2.593   6.130   1.188  0.0060  0.2054 -0.1655
12175SOL    HW137381   2.518   6.160   1.240  0.0066  1.1169 -0.6592
12175SOL    HW237382   2.652   6.091   1.252 -0.8465 -0.4632  0.2424
12176SOL     OW37383   4.289   6.596   2.366 -0.7939 -0.5253 -0.9733
12176SOL    HW137384   4.301   6.691   2.371 -0.0962 -0.6424 -0.2510
12176SOL    HW237385   4.360   6.566   2.309  0.1748 -0.8146  0.3499
12177SOL     OW37386   0.095   2.841   7.342  0.4312  0.7344 -0.4901
12177SOL    HW137387   0.078   2.820   7.434 -0.7403 -0.6364 -0.9819
12177SOL    HW237388   0.009   2.865   7.307  0.7200  0.4445 -1.4170
12178SOL     OW37389   7.015   7.964   7.804 -0.2654  0.3924  0.1737
12178SOL    HW137390   7.088   7.935   7.859 -0.6733 -0.8854  0.0503
12178SOL    HW237391   6.963   8.020   7.861  0.5195  0.9052  0.4122
12179SOL     OW37392   2.791   6.590   0.822 -0.4311 -0.4392  0.0854
12179SOL    HW137393   2.811   6.627   0.908  0.8798  1.9968 -1.1260
12179SOL    HW237394   2.725   6.649   0.785 -0.4600 -1.0210 -0.8327
12180SOL     OW37395   0.037   6.400   2.997 -0.1917 -0.0189  0.6474
12180SOL    HW137396   0.072   6.469   3.053 -0.3415  0.1412  0.5453
12180SOL    HW237397   0.105   6.385   2.931  0.0758 -0.3546  0.9914
12181SOL     OW37398   4.494   5.201   2.376  0.2398 -0.4033 -0.0044
12181SOL    HW137399   4.468   5.114   2.406  2.4802 -0.4771  2.0339
12181SOL    HW237400   4.574   5.220   2.425 -0.4621  3.0478  0.0306
12182SOL     OW37401   5.982   7.907   7.068  0.5278  0.4207  0.3417
12182SOL    HW137402   5.995   7.967   6.994  0.5991  0.3849  0.3250
12182SOL    HW237403   6.070   7.889   7.100  0.4841  0.5788  0.5498
12183SOL     OW37404   1.031   7.526   2.109 -0.1784 -0.0882  0.0126
12183SOL    HW137405   1.038   7.579   2.030 -0.1303 -0.8479 -0.5012
12183SOL    HW237406   1.075   7.578   2.176  1.1772 -0.1202 -0.8147
12184SOL     OW37407   7.106   5.488   5.107 -0.9593 -0.5346 -0.0693
12184SOL    HW137408   7.065   5.424   5.050 -3.4818  0.1496  0.8561
12184SOL    HW237409   7.108   5.568   5.055 -1.6179 -0.3597  0.1627
12185SOL     OW37410   0.000   4.047   4.700  0.1615 -0.2052 -0.1040
12185SOL    HW137411  -0.028   4.100   4.774  0.7356 -0.0917  0.0376
12185SOL    HW237412   0.074   4.095   4.662 -0.1247 -0.2588 -0.7503
12186SOL     OW37413   5.558   7.918   0.039 -0.0653  0.4476 -0.4266
12186SOL    HW137414   5.591   7.875   0.118 -1.6119 -1.1990 -0.6182
12186SOL    HW237415   5.613   7.996   0.030  3.2260 -1.6732 -0.3432
12187SOL     OW37416   1.654   3.250   3.213 -0.1138  0.5562 -0.0876
12187SOL    HW137417   1.659   3.284   3.302  0.6867 -2.2135  1.0230
12187SOL    HW237418   1.706   3.312   3.161  0.7498  1.3660  1.6647
12188SOL     OW37419   6.372   2.655   1.865  0.0610 -0.5352  0.1983
12188SOL    HW137420   6.341   2.602   1.792 -0.2039 -1.2126  0.7841
12188SOL    HW237421   6.297   2.660   1.925  0.1590  0.3078  0.2664
12189SOL     OW37422   4.570   2.703   3.451 -0.0212  0.0491  0.5682
12189SOL    HW137423   4.662   2.677   3.442 -0.6172 -2.0910  0.1134
12189SOL    HW237424   4.557   2.716   3.545  0.9451  1.3004  0.5546
12190SOL     OW37425   4.455   2.206   4.942 -0.6616 -0.0138 -0.4808
12190SOL    HW137426   4.506   2.287   4.935  1.5013 -1.3593 -0.8145
12190SOL    HW237427   4.457   2.185   5.036 -2.0903  0.7940 -0.2314
12191SOL     OW37428   7.231   4.450   1.223  0.3258  0.4312  0.2207
12191SOL    HW137429   7.326   4.465   1.225  0.2627  1.0763 -0.9198
12191SOL    HW237430   7.198   4.512   1.159 -0.3581 -2.4519 -2.4427
12192SOL     OW37431   0.245   1.790   0.402 -0.0752 -0.0214  0.2738
12192SOL    HW137432   0.179   1.842   0.356 -0.7387 -0.3716  0.8296
12192SOL    HW237433   0.326   1.808   0.354 -0.8192 -0.7448 -1.3346
12193SOL     OW37434   5.929   2.547   7.031 -0.4656 -0.0588  0.0110
12193SOL    HW137435   5.869   2.499   7.087 -0.9455  0.4485 -0.0562
12193SOL    HW237436   5.917   2.639   7.056  0.0181  0.0826 -0.2513
12194SOL     OW37437   7.610   2.694   1.418 -0.5625  0.0978  0.4545
12194SOL    HW137438   7.525   2.656   1.400 -1.6456  1.3836  2.4401
12194SOL    HW237439   7.619   2.689   1.514  1.3326  0.5128  0.3506
12195SOL     OW37440   5.254   6.228   5.720 -0.1921 -0.3665  0.5045
12195SOL    HW137441   5.205   6.199   5.643  2.1654 -2.0436 -0.5061
12195SOL    HW237442   5.259   6.149   5.775  1.7177 -0.4083  0.3258
12196SOL     OW37443   4.922   3.393   5.601 -0.0954 -0.0259 -0.0078
12196SOL    HW137444   4.961   3.471   5.562 -0.4841 -0.2376 -0.8485
12196SOL    HW237445   4.830   3.417   5.614 -0.1302 -0.2122  0.0892
12197SOL     OW37446   1.506   4.490   3.361 -0.0328 -0.1684 -0.3479
12197SOL    HW137447   1.475   4.401   3.377 -1.8361  0.7936  2.1280
12197SOL    HW237448   1.528   4.523   3.448  0.2019  1.9454 -1.1717
12198SOL     OW37449   5.407   4.911   6.546  0.2857  0.0520  0.3617
12198SOL    HW137450   5.495   4.948   6.548  0.0398  0.8005 -1.2469
12198SOL    HW237451   5.354   4.978   6.503 -0.3177 -1.7874 -1.9868
12199SOL     OW37452   4.360   2.552   1.583  0.7119  0.5573 -0.2131
12199SOL    HW137453   4.322   2.635   1.552  0.9737  1.3809  1.5419
12199SOL    HW237454   4.286   2.492   1.589  0.7673 -0.0035 -3.2745
12200SOL     OW37455   0.626   2.500   6.205  0.1486  0.4648  0.1435
12200SOL    HW137456   0.625   2.591   6.234  0.1719  0.9614 -1.3378
12200SOL    HW237457   0.534   2.473   6.208  0.4354 -0.5516  3.6764
12201SOL     OW37458   5.874   6.134   2.223 -0.1022 -0.0765  0.5288
12201SOL    HW137459   5.944   6.179   2.271 -0.3401  0.4187  0.4153
12201SOL    HW237460   5.897   6.041   2.230  1.0713  0.1336 -0.3080
12202SOL     OW37461   6.274   2.370   5.601 -0.0748 -0.3882  0.1687
12202SOL    HW137462   6.274   2.368   5.505  0.0515 -0.8602  0.1729
12202SOL    HW237463   6.309   2.456   5.623  1.9292 -1.0218 -0.2311
12203SOL     OW37464   0.034   2.263   2.352 -0.3183 -0.5667 -0.1898
12203SOL    HW137465   0.044   2.317   2.274  1.3886  0.1789  0.4956
12203SOL    HW237466   0.091   2.303   2.417  0.7552 -2.9427  0.4682
12204SOL     OW37467   3.837   1.198   7.203 -0.5801 -0.9971 -0.2444
12204SOL    HW137468   3.756   1.249   7.204  0.2354  0.4350  1.6281
12204SOL    HW237469   3.887   1.232   7.278  2.1639 -1.1322 -1.8479
12205SOL     OW37470   3.742   4.685   3.983  0.1632 -0.1456  0.5762
12205SOL    HW137471   3.714   4.777   3.991  1.3072  0.4472 -1.5089
12205SOL    HW237472   3.809   4.675   4.051 -0.3386  0.4001  1.1680
12206SOL     OW37473   6.458   5.235   7.682 -0.5921 -0.1682  0.0385
12206SOL    HW137474   6.430   5.241   7.591 -5.6498  1.1170  1.3598
12206SOL    HW237475   6.416   5.155   7.715 -2.0344  1.2667  1.9672
12207SOL     OW37476   4.451   0.687   4.480  0.1832  0.0643 -0.1903
12207SOL    HW137477   4.381   0.732   4.433 -0.1402  0.8035  0.9533
12207SOL    HW237478   4.526   0.747   4.474  0.5591 -0.4473 -0.8800
12208SOL     OW37479   0.278   5.924   3.823  0.0440 -0.2167 -0.2411
12208SOL    HW137480   0.241   5.955   3.740 -1.9902  1.2626  1.1179
12208SOL    HW237481   0.327   6.000   3.856 -0.7338 -0.1324  0.7600
12209SOL     OW37482   2.009   5.902   2.482 -0.3148 -0.2804 -0.6992
12209SOL    HW137483   2.058   5.982   2.465  0.3635 -0.7010 -0.7867
12209SOL    HW237484   1.956   5.888   2.404  2.0420 -1.6803 -2.2122
12210SOL     OW37485   6.956   2.733   2.470  0.1682 -0.1730  0.0976
12210SOL    HW137486   6.917   2.721   2.557  0.2875  0.3419  0.2270
12210SOL    HW237487   6.892   2.695   2.409 -0.1134 -0.1482  0.3752
12211SOL     OW37488   6.271   0.043   2.580 -0.3395  0.0433 -0.6385
12211SOL    HW137489   6.258   0.137   2.568 -1.8772 -0.0687 -0.0239
12211SOL    HW237490   6.207   0.003   2.521  0.2701 -0.6433 -0.8578
12212SOL     OW37491   0.834   7.078   1.153 -0.0729 -0.4111 -0.0785
12212SOL    HW137492   0.885   7.158   1.145  0.2450 -0.7574 -2.3405
12212SOL    HW237493   0.885   7.021   1.211  0.6457  0.3142  0.0032
12213SOL     OW37494   2.290   7.778   0.561  0.4568 -0.7362  0.2678
12213SOL    HW137495   2.271   7.732   0.643  1.9055  0.6929  1.4738
12213SOL    HW237496   2.215   7.836   0.548  0.1976 -1.0004  0.5626
12214SOL     OW37497   2.847   1.008   0.718  0.4356 -0.1762  0.2056
12214SOL    HW137498   2.890   1.003   0.633  0.2636 -0.1640  0.1184
12214SOL    HW237499   2.814   0.920   0.734 -2.8578  0.5902 -1.4696
12215SOL     OW37500   1.602   4.188   2.761  0.6283  0.1297 -0.2220
12215SOL    HW137501   1.685   4.213   2.720  0.5594  2.7361  1.0187
12215SOL    HW237502   1.536   4.238   2.713  0.2827  1.2225  1.3037
12216SOL     OW37503   5.182   0.649   6.628  0.0257 -0.3773  0.3532
12216SOL    HW137504   5.211   0.729   6.584  0.9675 -0.3704  0.9586
12216SOL    HW237505   5.086   0.653   6.625  0.0224  1.5421  1.7206
12217SOL     OW37506   4.825   0.683   0.573 -0.1694  0.3235 -0.5950
12217SOL    HW137507   4.870   0.735   0.641 -0.5770 -0.4672  0.3107
12217SOL    HW237508   4.751   0.643   0.619  0.1307 -1.0541 -1.2615
12218SOL     OW37509   5.089   3.163   5.166 -0.0435  0.1208 -0.4196
12218SOL    HW137510   5.133   3.118   5.238  1.7757 -1.0703 -2.1549
12218SOL    HW237511   5.131   3.249   5.163  0.4269 -0.1055 -0.5121
12219SOL     OW37512   0.635   6.122   5.769 -0.1891 -0.0801  0.3811
12219SOL    HW137513   0.577   6.099   5.696 -0.8541  0.4018  0.7432
12219SOL    HW237514   0.648   6.217   5.760  3.1251 -0.5773 -1.5443
12220SOL     OW37515   4.094   3.186   3.772 -0.3814 -0.2463 -0.1568
12220SOL    HW137516   4.107   3.255   3.836  1.9698  1.6402 -2.4202
12220SOL    HW237517   4.150   3.114   3.802 -0.8458 -0.1726  0.8945
12221SOL     OW37518   3.761   6.934   5.503  0.0904 -0.4281  0.1650
12221SOL    HW137519   3.773   6.910   5.595 -0.8899  1.1697  0.7458
12221SOL    HW237520   3.817   7.010   5.491  2.6597 -2.3928 -1.4767
12222SOL     OW37521   2.893   0.545   1.949  0.1552  0.2269 -0.4961
12222SOL    HW137522   2.979   0.588   1.945 -0.0893  0.8129  0.2314
12222SOL    HW237523   2.831   0.618   1.949 -0.2784 -0.1283  0.4378
12223SOL     OW37524   4.825   5.839   1.750  0.0432  0.0946 -0.0047
12223SOL    HW137525   4.838   5.773   1.818  1.3959  0.8922  0.5540
12223SOL    HW237526   4.825   5.922   1.797  0.5639  0.6301 -0.9234
12224SOL     OW37527   5.244   1.686   1.561 -0.0437 -0.1073 -0.0336
12224SOL    HW137528   5.260   1.704   1.469 -1.8726  0.3988 -0.2783
12224SOL    HW237529   5.155   1.651   1.565  0.6865 -2.0345  1.3263
12225SOL     OW37530   7.533   7.402   2.237  0.3374 -0.2235  0.3066
12225SOL    HW137531   7.543   7.415   2.143  0.4703  1.9096  0.5650
12225SOL    HW237532   7.622   7.403   2.272  0.2479  3.4982  0.8715
12226SOL     OW37533   6.471   6.457   3.643  0.6544 -0.0170 -0.0272
12226SOL    HW137534   6.527   6.404   3.588  0.4736  1.9488 -2.2544
12226SOL    HW237535   6.382   6.425   3.627  0.6698  0.1134 -0.3754
12227SOL     OW37536   6.456   2.172   4.696  0.5253  0.1908  0.1949
12227SOL    HW137537   6.532   2.226   4.677  0.0468  1.2269  1.1051
12227SOL    HW237538   6.491   2.095   4.741  0.9951  0.8898  1.0391
12228SOL     OW37539   7.151   4.093   0.177  0.7916 -0.3585  0.2741
12228SOL    HW137540   7.197   4.100   0.260  0.1745  1.3602  0.5285
12228SOL    HW237541   7.063   4.062   0.201  0.4754  0.5485  0.3553
12229SOL     OW37542   7.499   4.985   3.803 -0.4137 -0.4145 -0.0583
12229SOL    HW137543   7.529   4.897   3.779 -1.2229 -0.2761 -1.7171
12229SOL    HW237544   7.546   5.044   3.745 -0.8877  0.1442  0.1095
12230SOL     OW37545   5.658   5.377   1.482 -0.6783 -0.5959  0.1752
12230SOL    HW137546   5.624   5.423   1.405  0.9462 -0.4248 -0.4880
12230SOL    HW237547   5.628   5.286   1.471 -0.6340 -0.5288 -0.5733
12231SOL     OW37548   6.831   3.314   2.569 -0.1511  0.0549  0.2684
12231SOL    HW137549   6.816   3.256   2.494 -1.1995  0.8987 -0.2076
12231SOL    HW237550   6.757   3.296   2.628 -1.2917  1.8389 -0.5256
12232SOL     OW37551   0.980   2.293   6.655  0.4397 -0.3474 -0.1836
12232SOL    HW137552   0.918   2.304   6.727  1.5244  1.6213  0.5303
12232SOL    HW237553   1.005   2.201   6.658 -1.6475 -0.9530  0.1441
12233SOL     OW37554   3.921   6.821   2.745 -0.4429 -0.1670  0.1966
12233SOL    HW137555   3.848   6.879   2.721 -1.4614 -0.8237  1.5396
12233SOL    HW237556   3.980   6.823   2.669 -0.8487  1.9596 -0.1173
12234SOL     OW37557   3.639   3.783   3.583  0.5382 -0.3370  0.3153
12234SOL    HW137558   3.615   3.825   3.665  2.3932 -0.0235  0.7442
12234SOL    HW237559   3.566   3.724   3.563 -1.2522  1.6727  0.6707
12235SOL     OW37560   6.794   7.160   1.793  0.5938 -0.4100  0.4329
12235SOL    HW137561   6.800   7.083   1.736  1.2181 -1.7963  2.2663
12235SOL    HW237562   6.885   7.190   1.801  1.0654 -2.1741  3.0991
12236SOL     OW37563   3.172   0.766   1.232 -0.4958  0.2997 -0.2068
12236SOL    HW137564   3.103   0.741   1.293  0.8248 -1.5700  0.6351
12236SOL    HW237565   3.127   0.813   1.162 -2.0497  3.1728  2.4149
12237SOL     OW37566   0.264   1.478   7.192 -0.8684 -0.3050  0.2689
12237SOL    HW137567   0.220   1.506   7.112  0.0942 -0.1052 -0.2080
12237SOL    HW237568   0.355   1.465   7.165 -0.6852 -0.9392  1.1732
12238SOL     OW37569   0.313   6.863   4.966  0.6320 -0.2355 -0.4074
12238SOL    HW137570   0.332   6.924   5.037 -1.6420  0.0836  0.0023
12238SOL    HW237571   0.340   6.909   4.886 -0.8590  1.2729 -0.0899
12239SOL     OW37572   7.858   0.137   3.342 -0.3668  0.7433 -0.4140
12239SOL    HW137573   7.870   0.179   3.257 -0.5886 -1.5163 -1.6596
12239SOL    HW237574   7.800   0.063   3.323 -0.1824  0.0156  1.6614
12240SOL     OW37575   5.035   7.097   4.861 -0.4427  0.2407 -0.1077
12240SOL    HW137576   5.102   7.030   4.879 -0.4479  0.4800  0.8342
12240SOL    HW237577   5.077   7.180   4.884 -1.2056  0.3524  0.9837
12241SOL     OW37578   5.619   7.584   5.688 -0.1967  0.1371 -0.5171
12241SOL    HW137579   5.640   7.494   5.664  0.4977  0.2541 -0.3681
12241SOL    HW237580   5.697   7.634   5.663 -1.0692  0.9139 -1.8189
12242SOL     OW37581   5.988   2.529   1.941  0.5441  0.5248 -0.1510
12242SOL    HW137582   6.076   2.505   1.970  0.8175 -0.5830 -1.7358
12242SOL    HW237583   5.946   2.445   1.922 -0.2247  1.1042 -1.1089
12243SOL     OW37584   0.562   7.463   5.308 -0.2582 -0.6183  0.1512
12243SOL    HW137585   0.524   7.377   5.326 -3.0191  0.0170 -1.9887
12243SOL    HW237586   0.496   7.508   5.255  1.9585  2.0897 -0.5394
12244SOL     OW37587   6.439   4.060   2.737 -0.1082 -0.0146  0.0685
12244SOL    HW137588   6.523   4.015   2.729 -0.1113  0.2935 -2.5832
12244SOL    HW237589   6.462   4.152   2.752 -0.0435 -0.2349  1.4399
12245SOL     OW37590   5.446   0.819   6.466  0.4543 -0.5725  0.4744
12245SOL    HW137591   5.381   0.818   6.396 -0.2127  1.4310  0.9911
12245SOL    HW237592   5.519   0.868   6.430 -0.1041  0.9354  1.2900
12246SOL     OW37593   0.173   3.347   6.027  0.3360 -0.5150 -0.2356
12246SOL    HW137594   0.109   3.389   6.085 -1.2313 -0.7751 -1.7154
12246SOL    HW237595   0.160   3.253   6.042 -0.2060 -0.5874 -1.1288
12247SOL     OW37596   5.457   3.486   4.847 -0.0276 -0.7267  0.5247
12247SOL    HW137597   5.439   3.579   4.831 -0.3366 -1.0033 -0.8456
12247SOL    HW237598   5.438   3.443   4.764  0.2255 -2.0130  1.1057
12248SOL     OW37599   4.925   5.708   4.200  0.3950  0.4430 -0.4346
12248SOL    HW137600   4.925   5.613   4.204 -0.8391  0.4465  0.0757
12248SOL    HW237601   4.886   5.729   4.114 -0.3837  0.4747 -0.0858
12249SOL     OW37602   4.108   1.018   6.478  0.2047  0.5687 -0.5096
12249SOL    HW137603   4.037   1.071   6.514 -0.0301  0.3722 -0.6800
12249SOL    HW237604   4.187   1.071   6.492  0.3591 -0.1832  1.7585
12250SOL     OW37605   5.521   1.234   5.169 -0.5219  0.4284  0.6026
12250SOL    HW137606   5.525   1.239   5.264  0.6442 -0.3837  0.6146
12250SOL    HW237607   5.486   1.147   5.150  0.8452 -0.0842  0.3053
12251SOL     OW37608   7.045   6.361   2.539 -0.3766 -0.0282 -0.5680
12251SOL    HW137609   7.059   6.411   2.619  0.1977  0.0644 -0.7194
12251SOL    HW237610   6.979   6.295   2.562 -0.6611  0.3825 -0.1915
12252SOL     OW37611   1.669   7.701   4.218  0.3438 -0.0586  0.1985
12252SOL    HW137612   1.608   7.737   4.153 -0.8279  0.1620  1.3627
12252SOL    HW237613   1.733   7.770   4.231  0.9722 -0.3521 -1.1667
12253SOL     OW37614   6.947   3.679   3.936 -0.7009  0.4580  0.7256
12253SOL    HW137615   6.984   3.591   3.932 -2.0024 -0.1297  1.0573
12253SOL    HW237616   6.872   3.671   3.994  0.2425  2.2096  2.3129
12254SOL     OW37617   7.569   6.138   5.594 -0.1678  0.5270 -0.5690
12254SOL    HW137618   7.617   6.198   5.536 -1.3139  1.7863 -0.2738
12254SOL    HW237619   7.622   6.133   5.673 -0.0251  1.1157 -0.6221
12255SOL     OW37620   1.857   4.867   6.435  0.1388 -0.1452  0.0990
12255SOL    HW137621   1.942   4.908   6.422 -0.2564  0.7493  0.2984
12255SOL    HW237622   1.877   4.774   6.444  1.2071  0.1849  1.3477
12256SOL     OW37623   3.391   6.215   6.778  0.3559 -0.2446 -0.3614
12256SOL    HW137624   3.368   6.248   6.691 -1.6791  1.9950  0.8980
12256SOL    HW237625   3.346   6.131   6.784  0.8340 -0.6166 -1.5617
12257SOL     OW37626   2.862   3.751   5.474 -0.0006  0.2386  0.0545
12257SOL    HW137627   2.906   3.796   5.546 -0.4620 -0.3478  0.7191
12257SOL    HW237628   2.860   3.659   5.501  0.2819 -0.0714 -0.9500
12258SOL     OW37629   6.942   0.298   3.245 -0.1621 -0.8317 -0.3533
12258SOL    HW137630   7.034   0.317   3.262 -0.4127  0.5672 -0.4297
12258SOL    HW237631   6.914   0.245   3.319  0.7426 -1.4208 -0.4154
12259SOL     OW37632   4.699   4.917   0.960 -0.4786  0.0971  0.5407
12259SOL    HW137633   4.690   4.954   0.872 -0.4257 -0.1882  0.4122
12259SOL    HW237634   4.622   4.860   0.969  0.4327 -1.3018 -0.0375
12260SOL     OW37635   6.369   6.671   0.444 -0.4572 -0.0764 -0.4159
12260SOL    HW137636   6.355   6.718   0.362 -0.7298  1.1276  0.2800
12260SOL    HW237637   6.314   6.593   0.437 -0.0502 -0.2612 -1.5887
12261SOL     OW37638   3.596   2.420   0.496 -0.0228  0.1517 -0.0212
12261SOL    HW137639   3.576   2.438   0.588 -0.3287  0.8402 -0.2162
12261SOL    HW237640   3.641   2.499   0.466 -1.1766  0.5180 -0.8353
12262SOL     OW37641   5.685   4.495   7.338 -0.1192 -0.3378  0.1029
12262SOL    HW137642   5.668   4.495   7.244  0.8827 -1.9963 -0.1176
12262SOL    HW237643   5.600   4.517   7.377 -1.1230 -1.7169 -1.1416
12263SOL     OW37644   3.787   4.845   3.028  0.3474  0.0761 -0.2369
12263SOL    HW137645   3.746   4.929   3.006  0.1671  0.2372  0.6661
12263SOL    HW237646   3.828   4.816   2.946  0.0318  0.8258 -0.6725
12264SOL     OW37647   6.253   6.134   2.166 -0.0056  0.2327  0.8064
12264SOL    HW137648   6.212   6.071   2.108 -0.3842 -0.4435  1.7871
12264SOL    HW237649   6.233   6.219   2.127 -1.0108 -0.1669  0.4260
12265SOL     OW37650   4.563   0.137   7.580  0.0858 -0.2642 -0.3623
12265SOL    HW137651   4.589   0.045   7.569 -0.8014 -0.8351  1.7388
12265SOL    HW237652   4.619   0.169   7.651 -2.4715 -0.5828  2.0066
12266SOL     OW37653   3.105   0.749   1.893  0.2335  0.1268 -0.2942
12266SOL    HW137654   3.156   0.803   1.952  1.5592 -1.3773 -0.0099
12266SOL    HW237655   3.169   0.700   1.841 -0.8766  0.8088 -2.4796
12267SOL     OW37656   5.536   7.147   4.974 -0.4971 -0.2980 -0.0754
12267SOL    HW137657   5.619   7.189   5.000 -0.4083 -0.7133  0.3314
12267SOL    HW237658   5.562   7.059   4.946 -0.8205 -0.5070  0.2698
12268SOL     OW37659   7.242   4.083   3.174  0.6212  0.8103 -0.6642
12268SOL    HW137660   7.172   4.129   3.221 -0.0067  0.2625 -1.0517
12268SOL    HW237661   7.322   4.114   3.216  0.0669 -0.2527  1.3131
12269SOL     OW37662   0.574   2.620   3.955 -0.0599  0.1569 -0.5125
12269SOL    HW137663   0.627   2.574   3.891 -0.2235  0.0875 -0.5969
12269SOL    HW237664   0.636   2.644   4.024 -0.0757 -0.6480 -0.2171
12270SOL     OW37665   2.434   5.279   6.405  0.3590  0.2530  0.0877
12270SOL    HW137666   2.440   5.270   6.310 -0.7133  1.2450 -0.0860
12270SOL    HW237667   2.399   5.194   6.434 -1.2517  0.6387 -0.6259
12271SOL     OW37668   6.295   6.726   3.177  0.4381  0.1597  0.1239
12271SOL    HW137669   6.345   6.717   3.259  1.5669  0.0586 -0.5580
12271SOL    HW237670   6.228   6.792   3.197  1.9769  1.6463  0.5527
12272SOL     OW37671   5.642   1.023   6.502  0.5259 -0.2184  0.5387
12272SOL    HW137672   5.560   1.068   6.484  1.2770  0.9406 -0.0612
12272SOL    HW237673   5.637   1.002   6.596 -0.4099 -0.0849  0.5290
12273SOL     OW37674   5.610   2.378   3.390  0.3745 -0.4557  0.7255
12273SOL    HW137675   5.595   2.383   3.296 -1.1478  1.2472  1.0155
12273SOL    HW237676   5.529   2.340   3.425  0.5815 -0.2407  1.4445
12274SOL     OW37677   5.306   4.315   0.231 -0.0112  0.3432  0.9803
12274SOL    HW137678   5.260   4.393   0.199 -0.7248 -0.9514 -1.4120
12274SOL    HW237679   5.244   4.274   0.291 -1.9790 -1.1374 -1.8566
12275SOL     OW37680   0.050   1.659   2.849 -0.5677 -0.3350  0.1957
12275SOL    HW137681   0.030   1.580   2.899 -0.4654 -1.1465 -1.0104
12275SOL    HW237682   0.141   1.678   2.869 -0.6057 -0.4993  0.5242
12276SOL     OW37683   6.615   6.034   5.716  0.3107 -0.2997 -0.8616
12276SOL    HW137684   6.643   6.045   5.806  1.6598 -2.2420 -0.9846
12276SOL    HW237685   6.680   6.082   5.664 -0.8824  1.4604 -0.8365
12277SOL     OW37686   0.260   3.012   1.082 -0.1176  0.6114 -0.4528
12277SOL    HW137687   0.278   3.042   1.171  2.3776  1.7794 -1.2579
12277SOL    HW237688   0.330   2.950   1.063 -1.4038 -0.6716 -1.1696
12278SOL     OW37689   0.965   0.528   7.060 -0.1692  0.6179 -0.2360
12278SOL    HW137690   0.932   0.442   7.088  1.7663 -0.4506 -1.0300
12278SOL    HW237691   1.022   0.556   7.132 -1.0298  1.4173  0.1579
12279SOL     OW37692   5.194   4.555   0.145  0.1428 -0.1475  0.4164
12279SOL    HW137693   5.133   4.559   0.219 -0.8202  0.6582 -0.3892
12279SOL    HW237694   5.266   4.613   0.170 -0.4864  0.6264  0.4692
12280SOL     OW37695   3.060   7.580   5.444  0.7099  0.4835  0.4082
12280SOL    HW137696   3.144   7.536   5.457  0.3189  0.0173  1.5478
12280SOL    HW237697   3.025   7.591   5.533  0.2845  2.1205  0.0683
12281SOL     OW37698   2.192   5.501   2.120  0.0573 -0.0030 -0.5343
12281SOL    HW137699   2.136   5.437   2.075 -0.2352  0.9169 -1.5268
12281SOL    HW237700   2.132   5.566   2.154  0.4477  0.4173 -0.6445
12282SOL     OW37701   1.499   1.980   3.288 -0.4833 -0.8770 -0.1917
12282SOL    HW137702   1.507   1.888   3.314  2.5420 -0.3087  1.2471
12282SOL    HW237703   1.476   2.025   3.369  1.3050 -0.0241 -0.1140
12283SOL     OW37704   4.172   4.357   2.616 -0.5762 -0.0675 -0.7308
12283SOL    HW137705   4.181   4.417   2.690 -0.8082  0.2982 -0.9934
12283SOL    HW237706   4.126   4.281   2.652 -0.0490 -0.2005 -0.3344
12284SOL     OW37707   2.878   4.869   3.614  0.2802  0.5620  0.1807
12284SOL    HW137708   2.862   4.922   3.692  1.2824  1.0368  0.0890
12284SOL    HW237709   2.964   4.899   3.582 -0.7621  1.4621 -1.9821
12285SOL     OW37710   1.490   3.073   1.013 -0.0773 -0.5971  0.0244
12285SOL    HW137711   1.562   3.122   0.972 -1.6321  0.5479 -1.4368
12285SOL    HW237712   1.415   3.087   0.955 -0.8947 -3.8428  0.1282
12286SOL     OW37713   2.031   0.745   6.905  0.3171  0.2129 -0.2699
12286SOL    HW137714   1.998   0.835   6.914 -1.1974 -0.2199 -1.2343
12286SOL    HW237715   2.046   0.717   6.995 -0.0094  1.1404  0.0902
12287SOL     OW37716   7.337   3.330   0.693  0.0123  0.2535  0.5564
12287SOL    HW137717   7.424   3.309   0.726 -0.0500  0.6719  0.9903
12287SOL    HW237718   7.278   3.308   0.764  0.0405  3.1115  1.6071
12288SOL     OW37719   1.359   1.662   6.831  0.2092  0.1001 -0.0760
12288SOL    HW137720   1.335   1.664   6.738 -0.9828 -3.1412  0.0245
12288SOL    HW237721   1.433   1.602   6.835  0.6239  0.6684  1.0063
12289SOL     OW37722   6.186   7.485   3.235 -0.8603 -0.0668 -0.3318
12289SOL    HW137723   6.147   7.508   3.320  0.1481 -1.6421  0.6057
12289SOL    HW237724   6.279   7.470   3.255 -0.4530  0.2414 -1.8682
12290SOL     OW37725   0.634   7.688   1.162  0.1150  0.2377  0.1221
12290SOL    HW137726   0.668   7.649   1.242  2.1938  0.0516 -0.7828
12290SOL    HW237727   0.619   7.613   1.103 -1.1702  0.3911  0.2251
12291SOL     OW37728   3.037   7.311   1.884 -0.1350 -0.0868 -0.0715
12291SOL    HW137729   2.977   7.315   1.810  0.6383  1.5358 -0.6662
12291SOL    HW237730   3.021   7.225   1.924 -0.3797 -1.1239 -2.2694
12292SOL     OW37731   2.894   7.540   3.199  0.4680  0.1286  0.5033
12292SOL    HW137732   2.908   7.635   3.200  0.0371  0.2130  2.8352
12292SOL    HW237733   2.804   7.528   3.231  1.4803 -1.1267  3.1880
12293SOL     OW37734   1.713   3.175   5.220 -0.2916  1.0572  0.2260
12293SOL    HW137735   1.699   3.269   5.213 -0.5388  1.0216  0.2051
12293SOL    HW237736   1.740   3.148   5.132 -0.2277  1.1072  0.2303
12294SOL     OW37737   7.292   5.974   7.617 -0.2111 -0.1352 -0.4230
12294SOL    HW137738   7.377   5.945   7.583  0.8533  1.9364  0.3115
12294SOL    HW237739   7.256   6.028   7.548  0.1880  0.9277  0.1803
12295SOL     OW37740   1.429   0.200   3.024 -0.3865  0.3292 -0.5514
12295SOL    HW137741   1.458   0.280   2.980  1.7015  0.4434  0.9161
12295SOL    HW237742   1.465   0.129   2.971 -0.4000  0.3914 -0.6444
12296SOL     OW37743   5.150   0.989   3.288 -0.4669  0.2240  0.1237
12296SOL    HW137744   5.072   1.018   3.335 -0.9632 -1.1939  0.2340
12296SOL    HW237745   5.117   0.935   3.217  0.4069 -2.0074  1.3006
12297SOL     OW37746   3.548   7.256   5.172  0.6217  0.2872 -0.2163
12297SOL    HW137747   3.562   7.236   5.080  3.1226 -1.5460  0.4547
12297SOL    HW237748   3.501   7.179   5.206 -0.0557  0.8379  0.1159
12298SOL     OW37749   3.142   5.906   1.722 -0.2411  0.0305  0.2552
12298SOL    HW137750   3.178   5.990   1.692 -1.0367  0.0604 -0.6812
12298SOL    HW237751   3.118   5.921   1.813  0.9078  0.3892  0.5101
12299SOL     OW37752   6.967   3.641   5.910  0.6603  0.1250 -0.4208
12299SOL    HW137753   6.947   3.548   5.916 -0.4097  0.3645  0.1116
12299SOL    HW237754   6.956   3.663   5.818 -0.6250  0.0276 -0.3075
12300SOL     OW37755   4.473   1.505   0.486  0.6118  0.3378  0.3120
12300SOL    HW137756   4.408   1.496   0.555 -0.5237  1.0091 -0.6324
12300SOL    HW237757   4.439   1.451   0.414  0.8236  1.0959 -0.3731
12301SOL     OW37758   3.014   7.636   7.384 -0.7940 -0.7864 -0.1736
12301SOL    HW137759   2.919   7.624   7.379 -0.6956 -1.1534 -2.0604
12301SOL    HW237760   3.028   7.726   7.354 -0.4423 -1.4884 -2.3347
12302SOL     OW37761   2.636   0.632   6.772 -0.3009 -0.2333 -0.3600
12302SOL    HW137762   2.670   0.629   6.861  0.0109 -0.8213 -0.4940
12302SOL    HW237763   2.543   0.652   6.782 -0.1887  0.0941  0.0714
12303SOL     OW37764   7.695   1.571   6.494  0.0359  0.1244  0.1987
12303SOL    HW137765   7.697   1.479   6.518 -0.6806  0.1641  0.4433
12303SOL    HW237766   7.706   1.572   6.399  2.8996 -0.0358  0.4568
12304SOL     OW37767   1.644   5.778   1.097 -0.2733 -0.3218 -0.2368
12304SOL    HW137768   1.630   5.764   1.003 -0.7284  0.1018 -0.2359
12304SOL    HW237769   1.588   5.712   1.139 -0.3090 -0.3075 -0.2612
12305SOL     OW37770   5.431   2.496   6.470 -0.1255  0.8174  0.0818
12305SOL    HW137771   5.525   2.482   6.473 -0.1660  0.0551 -1.4897
12305SOL    HW237772   5.420   2.572   6.413 -0.5230 -0.1412 -1.1651
12306SOL     OW37773   3.548   5.781   1.531  0.2707  0.3243 -0.4418
12306SOL    HW137774   3.611   5.715   1.502  1.7997  1.3570  0.3975
12306SOL    HW237775   3.497   5.802   1.452  1.5584  0.0842 -1.3733
12307SOL     OW37776   0.218   3.817   0.717 -0.4068  0.6134  0.2539
12307SOL    HW137777   0.178   3.743   0.763 -1.1183  1.6306  1.3340
12307SOL    HW237778   0.198   3.801   0.625 -0.0669 -0.8115  0.4076
12308SOL     OW37779   7.364   0.170   0.917 -0.2104  0.7510 -0.0353
12308SOL    HW137780   7.443   0.122   0.941  0.9461  1.8298 -1.5397
12308SOL    HW237781   7.394   0.237   0.856 -1.9004  2.8380  1.2909
12309SOL     OW37782   2.321   1.275   5.156  0.5342 -0.7391  0.4344
12309SOL    HW137783   2.362   1.337   5.096 -0.3774 -0.3935  0.1655
12309SOL    HW237784   2.252   1.325   5.199 -0.9943 -1.8685 -0.6303
12310SOL     OW37785   7.325   3.130   6.095  0.0930 -0.5865 -0.0703
12310SOL    HW137786   7.253   3.079   6.133  0.2538 -0.7453  0.0233
12310SOL    HW237787   7.331   3.100   6.005 -0.5168  0.0381 -0.3216
12311SOL     OW37788   0.431   1.478   0.288  0.5787 -0.0414  0.1825
12311SOL    HW137789   0.500   1.455   0.350  1.4465  0.0609 -0.7360
12311SOL    HW237790   0.350   1.451   0.332  1.2560 -0.9133  0.9186
12312SOL     OW37791   1.453   5.844   3.949 -0.0947 -0.3374 -0.4999
12312SOL    HW137792   1.475   5.776   3.885  0.2979  0.9836 -1.8007
12312SOL    HW237793   1.538   5.882   3.973 -0.4709  1.2627 -1.5800
12313SOL     OW37794   2.846   1.783   7.291  0.1295 -0.1158  0.1335
12313SOL    HW137795   2.908   1.838   7.339  0.6199 -1.2820  0.8999
12313SOL    HW237796   2.776   1.765   7.354 -0.4886  0.3791 -0.4050
12314SOL     OW37797   6.066   4.335   0.026  0.1587 -0.1449 -0.2577
12314SOL    HW137798   5.998   4.397   0.001  2.5700  3.1325  0.5658
12314SOL    HW237799   6.119   4.325  -0.054 -0.0529 -0.9625 -0.3027
12315SOL     OW37800   5.036   0.346   4.698  0.1299  0.6198 -0.2031
12315SOL    HW137801   5.074   0.398   4.627 -0.3907  0.8956 -0.2901
12315SOL    HW237802   4.986   0.409   4.750  0.1178  0.3356  0.1357
12316SOL     OW37803   7.966   4.934   0.660 -0.3323 -0.0999 -0.1376
12316SOL    HW137804   7.965   4.843   0.687  1.6254  0.4689  2.1981
12316SOL    HW237805   7.991   4.931   0.567 -0.2479 -1.9145 -0.0903
12317SOL     OW37806   5.023   6.816   6.419 -0.0009 -0.1119  0.7150
12317SOL    HW137807   5.064   6.734   6.393 -0.2885 -0.2876  0.8247
12317SOL    HW237808   4.944   6.791   6.466 -1.0895  0.2416 -0.8650
12318SOL     OW37809   0.245   3.560   1.944  0.2522 -0.3768  0.3927
12318SOL    HW137810   0.302   3.514   1.883 -1.1714 -1.0833 -0.4548
12318SOL    HW237811   0.305   3.610   2.000  1.7133 -1.5640 -0.0517
12319SOL     OW37812   7.856   0.578   2.097 -0.3461 -0.0297 -0.0067
12319SOL    HW137813   7.948   0.591   2.120 -0.0348 -1.7956 -0.1343
12319SOL    HW237814   7.808   0.630   2.162  0.7075  0.0035  0.7680
12320SOL     OW37815   4.010   1.959   7.211 -0.5786  0.0053 -0.1425
12320SOL    HW137816   3.999   1.927   7.121  1.0025 -0.8438 -0.0696
12320SOL    HW237817   4.065   1.893   7.253 -0.6784  0.7782  1.2486
12321SOL     OW37818   7.795   2.393   2.695 -0.2325  0.8464  0.0631
12321SOL    HW137819   7.724   2.351   2.645 -0.3269 -0.0261  0.8974
12321SOL    HW237820   7.754   2.468   2.736 -0.3195  1.1766 -0.6149
12322SOL     OW37821   6.812   3.583   2.619 -0.1875 -0.2648  0.3630
12322SOL    HW137822   6.825   3.492   2.590  0.4882 -0.1180  0.1885
12322SOL    HW237823   6.765   3.625   2.548 -0.1645 -0.3848  0.2771
12323SOL     OW37824   6.025   5.401   7.354  0.0420  0.3665 -0.4331
12323SOL    HW137825   5.995   5.488   7.380  0.3474  0.2841  0.2245
12323SOL    HW237826   5.962   5.373   7.287 -0.3519  0.8843 -0.2908
12324SOL     OW37827   0.328   5.132   7.525  0.0698 -0.3903  0.2021
12324SOL    HW137828   0.380   5.173   7.594  1.6758  0.2851 -1.3335
12324SOL    HW237829   0.241   5.169   7.535  0.5208  0.4318  1.2549
12325SOL     OW37830   1.145   3.277   2.128  0.6111  0.0779  0.4937
12325SOL    HW137831   1.169   3.273   2.035 -0.6428 -0.9570  0.1889
12325SOL    HW237832   1.134   3.371   2.146 -1.1654  0.2228 -0.9880
12326SOL     OW37833   3.532   0.299   2.181  0.3443  0.4643 -0.0944
12326SOL    HW137834   3.499   0.371   2.235 -0.7095 -0.4714  0.5663
12326SOL    HW237835   3.473   0.226   2.200  0.3350 -0.0977 -2.0357
12327SOL     OW37836   4.988   0.935   0.680  0.0799 -0.1676  0.4352
12327SOL    HW137837   5.051   0.974   0.620  0.0561 -1.9664 -0.8385
12327SOL    HW237838   4.905   0.978   0.658  0.6125  1.3967  1.3473
12328SOL     OW37839   1.731   2.004   4.518 -0.1067  0.1063 -0.0935
12328SOL    HW137840   1.658   2.062   4.542  0.6666  1.4752 -0.9306
12328SOL    HW237841   1.753   2.029   4.428  0.8645 -0.8603 -0.1465
12329SOL     OW37842   6.201   0.375   3.297 -0.4381 -0.3833 -0.1321
12329SOL    HW137843   6.209   0.280   3.292  0.6592 -0.2763 -0.4981
12329SOL    HW237844   6.289   0.408   3.281 -0.8900  0.7140 -0.4528
12330SOL     OW37845   2.397   3.728   7.457 -0.8406 -0.1687  0.2452
12330SOL    HW137846   2.372   3.642   7.490 -0.5973 -0.9722 -1.5464
12330SOL    HW237847   2.443   3.710   7.375 -1.5734  1.7122 -0.6409
12331SOL     OW37848   4.547   3.407   0.793 -0.1908  0.5365 -0.1201
12331SOL    HW137849   4.600   3.354   0.854  0.2920  0.0721 -0.9258
12331SOL    HW237850   4.470   3.353   0.776  0.1751  0.1969 -0.7332
12332SOL     OW37851   5.708   5.820   1.776  0.2129  0.2478  0.0331
12332SOL    HW137852   5.773   5.889   1.776  1.9585 -1.2954 -1.2852
12332SOL    HW237853   5.703   5.791   1.685  2.7838 -4.1517  1.0181
12333SOL     OW37854   5.377   4.249   4.891 -0.4423 -0.5800  0.1214
12333SOL    HW137855   5.390   4.268   4.984  2.3161  1.0974 -0.5077
12333SOL    HW237856   5.288   4.279   4.873  0.0139  1.9671  1.6081
12334SOL     OW37857   5.913   0.788   4.126  0.3911 -0.0168 -0.2302
12334SOL    HW137858   5.867   0.871   4.112  1.8210  0.6789 -1.0706
12334SOL    HW237859   5.905   0.771   4.220  0.0999  1.0952 -0.0451
12335SOL     OW37860   5.654   1.701   1.477 -0.1311  0.6214 -0.5777
12335SOL    HW137861   5.675   1.709   1.384  0.3074  0.3355 -0.5049
12335SOL    HW237862   5.690   1.780   1.516  0.4283  0.3465 -0.5245
12336SOL     OW37863   5.038   3.391   0.207  0.2456 -0.0330  1.0421
12336SOL    HW137864   5.077   3.370   0.292 -1.0625 -2.0534  1.2046
12336SOL    HW237865   4.950   3.422   0.228 -0.5551 -1.7598  0.4222
12337SOL     OW37866   3.511   6.884   0.692  0.0172 -1.1915 -0.1136
12337SOL    HW137867   3.593   6.930   0.711 -0.2151 -1.5818  2.0298
12337SOL    HW237868   3.498   6.896   0.597  1.8182  0.0415 -0.2455
12338SOL     OW37869   6.905   7.170   0.605  0.2246 -0.4817  0.0593
12338SOL    HW137870   6.861   7.093   0.639 -1.6460  0.2293 -0.6505
12338SOL    HW237871   6.960   7.200   0.678 -3.1996  0.6760  2.3883
12339SOL     OW37872   6.327   7.346   2.951 -0.1939  0.3908 -0.3918
12339SOL    HW137873   6.253   7.285   2.941  0.3469 -0.3260 -0.1290
12339SOL    HW237874   6.358   7.330   3.040  2.2280 -1.5827 -1.4827
12340SOL     OW37875   7.534   1.960   7.739  0.0229 -0.5114  1.0124
12340SOL    HW137876   7.625   1.946   7.713 -0.3708  0.3504 -1.0398
12340SOL    HW237877   7.507   2.038   7.690 -2.0370 -1.1952  0.9668
12341SOL     OW37878   3.795   3.197   5.337 -0.2322 -0.1681  0.6321
12341SOL    HW137879   3.778   3.288   5.359  0.0140 -0.3752  1.7388
12341SOL    HW237880   3.887   3.194   5.312 -0.1075 -0.1918  1.0831
12342SOL     OW37881   2.524   4.185   3.348 -0.3402 -0.3409  0.0428
12342SOL    HW137882   2.453   4.209   3.408  0.3123 -0.0053  0.6893
12342SOL    HW237883   2.547   4.095   3.373 -0.1328 -0.2348  0.2380
12343SOL     OW37884   3.539   7.316   0.577  0.1166  0.3343  0.0236
12343SOL    HW137885   3.551   7.333   0.670 -0.1134  1.6288 -0.1671
12343SOL    HW237886   3.601   7.245   0.558 -0.7219 -0.8290  1.4043
12344SOL     OW37887   1.776   2.823   0.826 -0.6039 -1.1473 -0.5706
12344SOL    HW137888   1.785   2.828   0.921 -2.3241 -1.9029 -0.3196
12344SOL    HW237889   1.772   2.914   0.797  0.0859 -0.9113  0.0521
12345SOL     OW37890   5.908   2.103   6.095  0.4159 -0.8958 -0.3539
12345SOL    HW137891   5.834   2.043   6.089 -0.5477  0.0683  1.1340
12345SOL    HW237892   5.933   2.101   6.187  0.8551  0.3970 -0.4236
12346SOL     OW37893   7.201   3.495   1.818 -0.1956 -0.0760  0.2634
12346SOL    HW137894   7.236   3.487   1.729  0.6346 -4.2954  0.7769
12346SOL    HW237895   7.107   3.498   1.806 -0.1511 -1.6730 -0.8089
12347SOL     OW37896   1.560   5.810   6.073  0.0787  0.0053 -0.7809
12347SOL    HW137897   1.548   5.880   6.008 -0.5469  1.6456  0.9842
12347SOL    HW237898   1.473   5.774   6.086 -0.1612  0.9206  0.3852
12348SOL     OW37899   7.111   7.355   2.731  0.3098 -0.2573  0.2653
12348SOL    HW137900   7.136   7.344   2.640 -1.2494  1.4188 -0.4431
12348SOL    HW237901   7.132   7.272   2.773  1.6055 -0.8508 -1.4760
12349SOL     OW37902   0.085   4.906   7.375  0.5617  0.5929  0.4696
12349SOL    HW137903   0.103   4.931   7.284  0.2128  2.7784  0.9475
12349SOL    HW237904   0.010   4.847   7.369  2.3244 -1.6722 -0.8369
12350SOL     OW37905   6.883   2.000   4.986  0.4957 -0.6077  0.2330
12350SOL    HW137906   6.887   1.904   4.985 -0.4641 -0.6622 -0.6243
12350SOL    HW237907   6.836   2.021   5.067 -2.2944 -1.0670 -1.1515
12351SOL     OW37908   4.077   7.964   0.860  0.1084  0.2284  0.0308
12351SOL    HW137909   4.075   8.045   0.811  0.2917  0.0811 -0.2202
12351SOL    HW237910   4.171   7.945   0.872  0.1472  1.4848  2.4613
12352SOL     OW37911   4.984   6.604   5.189  0.0046  0.5839  0.3301
12352SOL    HW137912   4.983   6.650   5.274  1.2636  0.4921  0.4122
12352SOL    HW237913   4.989   6.674   5.124 -0.7101  0.6451  0.3333
12353SOL     OW37914   0.804   3.902   6.311 -0.0220 -0.1896 -0.2827
12353SOL    HW137915   0.838   3.852   6.237 -1.2682 -1.8640  0.2051
12353SOL    HW237916   0.820   3.846   6.387 -0.2151  0.7725  0.4783
12354SOL     OW37917   4.087   7.445   1.537 -0.0699  0.3424 -0.4656
12354SOL    HW137918   4.024   7.476   1.472 -0.3693 -0.7702 -0.7129
12354SOL    HW237919   4.145   7.386   1.488  0.4822  0.4896  0.0045
12355SOL     OW37920   4.259   3.531   5.589 -0.8147  0.1971 -0.8085
12355SOL    HW137921   4.215   3.449   5.566 -0.6597  0.0729 -0.6597
12355SOL    HW237922   4.345   3.523   5.549 -0.6404  0.0978 -0.4146
12356SOL     OW37923   0.429   6.768   5.738  0.7052  0.4131 -0.4915
12356SOL    HW137924   0.431   6.744   5.645  1.0314 -0.0526 -0.3660
12356SOL    HW237925   0.352   6.825   5.746  0.2464 -0.1303 -0.9061
12357SOL     OW37926   6.656   7.194   6.317 -0.0572 -0.1779  0.0605
12357SOL    HW137927   6.743   7.178   6.354  0.1799 -3.0577 -1.4530
12357SOL    HW237928   6.595   7.166   6.385  0.1668  0.7686  0.6826
12358SOL     OW37929   5.225   0.424   5.018  0.9999 -0.1124  0.4594
12358SOL    HW137930   5.142   0.457   4.983 -0.0920 -1.0521  2.0112
12358SOL    HW237931   5.281   0.502   5.024 -0.3109  0.8442  0.8411
12359SOL     OW37932   0.869   5.979   2.391 -0.1058  0.5269 -0.2478
12359SOL    HW137933   0.838   5.911   2.331 -1.2211 -0.9726  1.9085
12359SOL    HW237934   0.789   6.027   2.417  0.2058  0.5306  0.7505
12360SOL     OW37935   1.437   4.263   3.794  0.6025  0.1753 -0.7342
12360SOL    HW137936   1.369   4.302   3.738  1.7265  1.3938 -1.3058
12360SOL    HW237937   1.441   4.321   3.870 -0.6654 -1.2758  0.5042
12361SOL     OW37938   7.318   3.418   2.457 -0.3543  0.0694  0.1568
12361SOL    HW137939   7.243   3.361   2.439  1.3162 -2.2906  0.2391
12361SOL    HW237940   7.283   3.486   2.514 -2.5325 -0.6529 -0.2287
12362SOL     OW37941   5.390   3.578   2.304  0.0152 -0.3222  0.0506
12362SOL    HW137942   5.431   3.550   2.222  0.9851  1.0888  0.0186
12362SOL    HW237943   5.447   3.647   2.337 -2.9005  2.6705 -0.6090
12363SOL     OW37944   5.571   2.332   1.830  0.2249  0.4012  0.1065
12363SOL    HW137945   5.570   2.246   1.788 -1.1931  1.1650 -1.5486
12363SOL    HW237946   5.479   2.353   1.843  0.5417  1.7203  0.3666
12364SOL     OW37947   6.868   0.426   0.227  0.5324 -0.0731  0.0308
12364SOL    HW137948   6.962   0.429   0.206  0.8279  0.8987  1.3899
12364SOL    HW237949   6.845   0.517   0.245 -0.6003 -0.3566  0.0603
12365SOL     OW37950   1.536   0.502   7.453 -0.1729  0.5304  0.3504
12365SOL    HW137951   1.569   0.591   7.437 -0.0294  0.3364 -0.4883
12365SOL    HW237952   1.463   0.514   7.513 -0.4075  1.2646 -0.0674
12366SOL     OW37953   6.443   4.390   2.114 -0.1459  0.2024  0.4960
12366SOL    HW137954   6.389   4.327   2.162 -0.1696  0.5400  0.9159
12366SOL    HW237955   6.490   4.437   2.182 -0.2062  0.7111  0.1884
12367SOL     OW37956   1.827   4.768   4.859  0.0327  0.1510  0.1256
12367SOL    HW137957   1.889   4.742   4.792  1.2905  0.9679  0.9417
12367SOL    HW237958   1.873   4.834   4.912 -1.3333  0.4169  1.0631
12368SOL     OW37959   0.304   4.589   2.817 -0.5133 -0.2180 -0.4379
12368SOL    HW137960   0.296   4.558   2.726  0.8885  1.2374 -1.0944
12368SOL    HW237961   0.253   4.670   2.819 -0.1158  0.0224 -0.0590
12369SOL     OW37962   2.995   3.440   6.458 -0.2792  0.0693  0.7369
12369SOL    HW137963   2.925   3.409   6.401  0.1664 -0.4638  0.4748
12369SOL    HW237964   2.953   3.508   6.511 -1.1115 -0.5389  0.8878
12370SOL     OW37965   6.172   3.853   5.648  0.4090  0.1298  0.0799
12370SOL    HW137966   6.116   3.904   5.707  0.5957 -0.8920  1.1745
12370SOL    HW237967   6.171   3.765   5.685  2.3198 -0.0235 -0.1797
12371SOL     OW37968   2.052   7.183   2.841  0.1378  0.3192  0.1312
12371SOL    HW137969   1.992   7.248   2.879 -0.1786  0.0285  0.1310
12371SOL    HW237970   2.055   7.205   2.748  0.7634  0.9132  0.2806
12372SOL     OW37971   2.601   1.785   1.834 -0.2864 -0.1534  0.3567
12372SOL    HW137972   2.532   1.751   1.777  1.3045 -1.6945 -0.7374
12372SOL    HW237973   2.588   1.738   1.917 -2.4686  1.9381  1.3357
12373SOL     OW37974   5.951   6.566   5.119  0.1989  0.3080 -0.2785
12373SOL    HW137975   5.934   6.654   5.084  1.0851  0.7332  0.2946
12373SOL    HW237976   5.869   6.539   5.159  0.1961  1.3012  0.4074
12374SOL     OW37977   5.353   3.149   0.028  0.1237 -0.9796  0.3604
12374SOL    HW137978   5.394   3.076  -0.017 -1.0443 -1.6206  0.3004
12374SOL    HW237979   5.273   3.166  -0.021 -0.2886 -0.5495  1.1636
12375SOL     OW37980   4.255   4.562   4.138  0.4238 -0.0350  0.2901
12375SOL    HW137981   4.276   4.468   4.136  1.2191  0.1065  1.2656
12375SOL    HW237982   4.241   4.585   4.046  0.1742 -1.1137  0.0354
12376SOL     OW37983   0.594   5.897   2.751  0.3416 -0.0283 -0.3708
12376SOL    HW137984   0.639   5.919   2.833  0.8952  1.1845 -0.9613
12376SOL    HW237985   0.501   5.896   2.773  0.4816  0.3892  0.2548
12377SOL     OW37986   5.721   0.359   6.102  0.3751 -0.2337  0.3885
12377SOL    HW137987   5.738   0.311   6.183  0.2027  0.6369  0.9465
12377SOL    HW237988   5.650   0.419   6.123 -0.1716 -0.4885 -0.6137
12378SOL     OW37989   2.160   2.747   0.489 -0.2313  0.1921  0.0046
12378SOL    HW137990   2.200   2.747   0.402 -1.5297  0.9539 -0.6185
12378SOL    HW237991   2.213   2.809   0.540 -1.1352  1.9786 -1.1031
12379SOL     OW37992   0.283   6.068   5.578 -0.0571  0.2641 -0.0773
12379SOL    HW137993   0.364   6.075   5.527 -0.2935 -2.7396 -1.0905
12379SOL    HW237994   0.215   6.056   5.512 -0.5522 -2.3994  0.8020
12380SOL     OW37995   6.238   4.122   5.924 -0.4951  0.2452 -0.4490
12380SOL    HW137996   6.165   4.064   5.901  0.0320 -0.4223 -0.4543
12380SOL    HW237997   6.199   4.210   5.926 -1.5575 -0.2115  0.6359
12381SOL     OW37998   5.026   1.719   4.776  0.6823  0.0188 -0.2348
12381SOL    HW137999   5.023   1.655   4.705 -0.3319 -0.6606  0.3834
12381SOL    HW238000   4.960   1.688   4.838  1.0024  1.0268  0.6356
12382SOL     OW38001   2.106   3.900   2.213 -0.4457  0.7169  0.4111
12382SOL    HW138002   2.144   3.895   2.300 -1.8071 -0.4828  0.9920
12382SOL    HW238003   2.032   3.960   2.222 -1.6710 -0.7339  0.5875
12383SOL     OW38004   1.808   2.582   0.748  0.1117  0.5575  1.1072
12383SOL    HW138005   1.893   2.583   0.704  0.7293 -0.4821  2.2078
12383SOL    HW238006   1.798   2.671   0.783 -0.3254  1.3622 -0.9028
12384SOL     OW38007   3.184   3.315   0.835  0.8389  0.5318  0.1943
12384SOL    HW138008   3.245   3.368   0.886 -0.1995  1.7066  0.2336
12384SOL    HW238009   3.175   3.362   0.752 -0.7836  0.9232  0.5653
12385SOL     OW38010   1.722   6.879   6.642 -0.2435 -0.3528  0.1497
12385SOL    HW138011   1.688   6.809   6.587 -0.4615 -0.2427  0.1448
12385SOL    HW238012   1.689   6.960   6.602 -0.1751 -0.2586  0.2809
12386SOL     OW38013   0.299   6.018   4.623  0.0443  0.3299 -0.0646
12386SOL    HW138014   0.388   5.985   4.615 -0.1886 -1.1635  2.4860
12386SOL    HW238015   0.257   5.994   4.539  1.6406 -0.1749 -0.7584
12387SOL     OW38016   0.039   3.642   4.964 -0.0841  0.7214 -0.0007
12387SOL    HW138017  -0.003   3.634   5.050  0.5731  1.1986  0.3779
12387SOL    HW238018   0.081   3.556   4.950 -0.2639  0.6144  0.1119
12388SOL     OW38019   1.799   0.518   1.030  0.1588  0.2862  0.1814
12388SOL    HW138020   1.866   0.455   1.058 -0.5601 -0.4143  0.3646
12388SOL    HW238021   1.718   0.467   1.027 -0.4966  1.2689  0.6079
12389SOL     OW38022   2.592   5.517   4.970  0.1744  0.3654  0.4210
12389SOL    HW138023   2.682   5.485   4.966 -0.3646 -1.1132 -1.4520
12389SOL    HW238024   2.572   5.543   4.880 -2.0503 -1.7317  0.2092
12390SOL     OW38025   4.333   3.633   1.936 -0.1205 -0.0822 -0.0141
12390SOL    HW138026   4.306   3.597   2.020  0.3553 -1.2098 -0.3344
12390SOL    HW238027   4.319   3.728   1.945  1.4149  0.0016  1.8907
12391SOL     OW38028   5.878   0.186   5.961 -0.5838 -0.0643 -0.6607
12391SOL    HW138029   5.820   0.111   5.949  0.4096 -0.8883 -0.4531
12391SOL    HW238030   5.827   0.248   6.012 -0.7441 -1.4217  0.9005
12392SOL     OW38031   0.938   6.023   0.713 -0.0302  0.2247 -0.7745
12392SOL    HW138032   1.000   5.975   0.769 -2.0661 -1.0264  0.5252
12392SOL    HW238033   0.931   6.109   0.754 -0.5566 -0.2674  0.1984
12393SOL     OW38034   6.688   1.223   6.578 -0.7174 -0.4207  0.1021
12393SOL    HW138035   6.779   1.195   6.572 -1.0716 -1.4999 -0.5238
12393SOL    HW238036   6.654   1.213   6.489 -1.5986 -0.5845  0.4503
12394SOL     OW38037   5.745   1.263   7.282 -0.2585 -0.0756 -0.0461
12394SOL    HW138038   5.692   1.184   7.293 -1.7881  0.9306 -0.0288
12394SOL    HW238039   5.808   1.259   7.355 -0.4952 -1.1246  0.1233
12395SOL     OW38040   1.465   6.820   4.489  0.3189 -0.1680  0.2484
12395SOL    HW138041   1.496   6.782   4.407  0.2215  0.4157 -0.0580
12395SOL    HW238042   1.371   6.800   4.490 -0.1328  1.7180 -0.8420
12396SOL     OW38043   7.292   0.136   7.057  0.4329  0.2714 -0.2449
12396SOL    HW138044   7.375   0.150   7.010 -0.1268  1.5650 -0.9226
12396SOL    HW238045   7.253   0.223   7.062 -0.8785 -0.3097  0.0890
12397SOL     OW38046   1.681   4.230   6.628 -0.1081  0.2551  0.1289
12397SOL    HW138047   1.631   4.158   6.590 -1.6233  1.3904 -0.1091
12397SOL    HW238048   1.708   4.199   6.714 -1.0163 -0.4819  0.1573
12398SOL     OW38049   1.150   5.152   2.220 -0.0616  0.1580  0.3957
12398SOL    HW138050   1.132   5.136   2.127  2.4827  1.0870 -0.3417
12398SOL    HW238051   1.194   5.072   2.249 -1.7510 -0.5516  1.1450
12399SOL     OW38052   3.955   0.877   4.119  0.4472  0.0069 -0.3282
12399SOL    HW138053   3.916   0.965   4.122  2.7147  1.0666  1.7665
12399SOL    HW238054   3.881   0.819   4.101 -1.3289  2.2328 -0.7169
12400SOL     OW38055   2.437   4.958   5.489 -0.5576 -0.5398  0.5634
12400SOL    HW138056   2.462   4.972   5.397  2.4317  0.7035  1.4475
12400SOL    HW238057   2.492   4.885   5.518  1.1864  1.2996  2.2023
12401SOL     OW38058   2.707   1.254   1.109  0.3243  0.5462  0.4251
12401SOL    HW138059   2.645   1.295   1.048  0.2987 -0.1086  0.0028
12401SOL    HW238060   2.657   1.184   1.151  0.4354  0.7924  0.9734
12402SOL     OW38061   0.714   3.706   5.302 -0.1766 -0.0818 -0.3995
12402SOL    HW138062   0.676   3.620   5.286 -0.3241 -0.7308  2.6682
12402SOL    HW238063   0.808   3.693   5.290  0.0194 -1.2841  1.7839
12403SOL     OW38064   5.246   5.245   5.244 -0.3088  0.3662 -0.7687
12403SOL    HW138065   5.176   5.307   5.266  0.1077  0.8551 -0.7980
12403SOL    HW238066   5.288   5.284   5.167 -1.0182 -0.7341 -1.7395
12404SOL     OW38067   6.713   1.632   3.950  0.1002  0.2914 -0.0411
12404SOL    HW138068   6.671   1.718   3.958 -0.8521  0.0802 -2.1434
12404SOL    HW238069   6.646   1.576   3.910  0.8728 -1.3252  0.8322
12405SOL     OW38070   1.259   7.265   4.492  0.1813 -0.4984  0.2008
12405SOL    HW138071   1.219   7.347   4.463  0.8007 -0.0111  0.6789
12405SOL    HW238072   1.222   7.250   4.579  0.3588 -0.5173  0.2735
12406SOL     OW38073   2.231   3.366   0.582 -0.2688 -0.2710 -0.3994
12406SOL    HW138074   2.215   3.364   0.487 -2.0648  2.3557 -0.2707
12406SOL    HW238075   2.147   3.394   0.619  0.6140 -0.5140  1.9179
12407SOL     OW38076   5.596   3.668   0.768  0.4467  0.1528 -0.0972
12407SOL    HW138077   5.612   3.762   0.767 -1.5097  0.5416 -0.3423
12407SOL    HW238078   5.621   3.640   0.855 -2.1557  1.6166  1.2580
12408SOL     OW38079   5.513   7.517   7.543 -0.0992  0.2913 -0.3284
12408SOL    HW138080   5.490   7.592   7.489  1.2484 -0.2668 -1.7478
12408SOL    HW238081   5.445   7.452   7.525  0.8397 -0.2516 -2.1818
12409SOL     OW38082   1.166   5.391   5.502 -0.1258 -0.7357  0.6529
12409SOL    HW138083   1.212   5.464   5.462 -0.6484 -0.3805  0.6913
12409SOL    HW238084   1.121   5.347   5.429  1.1943 -1.7918  0.4267
12410SOL     OW38085   4.995   1.824   6.706 -0.1454  0.1962  0.4800
12410SOL    HW138086   4.990   1.734   6.737 -0.4278  0.1725  0.3731
12410SOL    HW238087   5.063   1.823   6.638  2.1390  0.6993  2.6066
12411SOL     OW38088   6.899   7.180   5.318  0.5162 -0.0108 -0.3584
12411SOL    HW138089   6.836   7.115   5.288  1.5118 -0.8210 -0.7640
12411SOL    HW238090   6.984   7.141   5.298  1.1919  0.3595  1.5746
12412SOL     OW38091   6.259   5.690   1.023 -0.3363 -0.1425  0.1845
12412SOL    HW138092   6.244   5.597   1.004 -1.1067  0.0092  0.0192
12412SOL    HW238093   6.273   5.730   0.938 -0.0120 -0.1009  0.2554
12413SOL     OW38094   3.674   1.049   0.637  0.2866 -0.2216 -0.3636
12413SOL    HW138095   3.591   1.074   0.596  0.3926 -0.5221 -0.7658
12413SOL    HW238096   3.669   1.087   0.724 -0.9459 -1.5426  0.1837
12414SOL     OW38097   2.532   5.630   7.929 -0.9360 -0.3083  0.1967
12414SOL    HW138098   2.619   5.639   7.967 -0.7195  1.7718 -0.6630
12414SOL    HW238099   2.548   5.594   7.842 -0.6950  1.6004 -0.6143
12415SOL     OW38100   2.235   4.437   7.076  0.2650  0.1471  0.2738
12415SOL    HW138101   2.299   4.490   7.028 -0.6255  1.2726  0.2932
12415SOL    HW238102   2.236   4.473   7.164 -1.5662  1.3063 -0.1337
12416SOL     OW38103   4.438   3.428   6.729 -0.2750  0.1102 -0.0190
12416SOL    HW138104   4.343   3.424   6.722 -0.2111 -0.4826 -0.6405
12416SOL    HW238105   4.464   3.505   6.679 -0.4520  0.4379  0.3966
12417SOL     OW38106   5.581   4.596   1.948 -0.6627 -0.0429  0.3197
12417SOL    HW138107   5.493   4.565   1.926  0.5326 -1.2159 -3.7347
12417SOL    HW238108   5.589   4.680   1.903  0.0369  0.4956  1.4102
12418SOL     OW38109   1.193   2.463   1.162 -0.2629 -0.1733  0.1607
12418SOL    HW138110   1.260   2.404   1.127 -0.7281 -1.4794  1.3584
12418SOL    HW238111   1.112   2.438   1.116 -0.0891  0.9646 -0.8169
12419SOL     OW38112   0.308   6.360   0.817 -0.1232 -0.6125 -0.0847
12419SOL    HW138113   0.303   6.300   0.743  0.9273 -1.6418  0.6467
12419SOL    HW238114   0.239   6.425   0.799  0.1854 -0.7402 -2.0164
12420SOL     OW38115   5.787   0.981   7.763 -0.0984 -0.6899 -0.1890
12420SOL    HW138116   5.867   0.997   7.813  0.5009  0.0465 -1.3480
12420SOL    HW238117   5.817   0.965   7.674 -1.2484 -0.3942 -0.6429
12421SOL     OW38118   6.592   1.132   1.452  0.4416  0.0116 -0.6487
12421SOL    HW138119   6.654   1.139   1.380  1.0091  2.2105 -0.0105
12421SOL    HW238120   6.507   1.120   1.410  0.9312 -0.1793 -1.6124
12422SOL     OW38121   7.299   6.222   5.935 -0.3889  0.2910  0.0053
12422SOL    HW138122   7.209   6.240   5.907 -0.5068 -1.5659 -0.9511
12422SOL    HW238123   7.289   6.165   6.012 -0.0289  0.2968  0.0569
12423SOL     OW38124   1.108   7.474   6.998  0.3109  0.3975  0.1292
12423SOL    HW138125   1.041   7.534   6.966  1.5646  0.9721 -1.5570
12423SOL    HW238126   1.085   7.390   6.958  1.0312  0.7854 -1.1683
12424SOL     OW38127   5.929   0.807   6.882 -0.1442 -0.0238  0.2739
12424SOL    HW138128   5.961   0.765   6.962 -1.0600 -0.2426  0.5348
12424SOL    HW238129   5.937   0.740   6.815 -0.9654 -0.4099  0.5481
12425SOL     OW38130   3.981   4.766   7.758 -0.2808 -0.1608 -0.0412
12425SOL    HW138131   4.043   4.789   7.689 -1.1956 -0.8017 -1.1180
12425SOL    HW238132   3.994   4.833   7.825  0.9549  0.2179 -0.6130
12426SOL     OW38133   5.950   1.825   1.480  0.2175  0.3514 -0.6016
12426SOL    HW138134   6.024   1.849   1.537 -0.8351  0.0749  0.9450
12426SOL    HW238135   5.984   1.755   1.425  1.0541  0.0510  0.2603
12427SOL     OW38136   1.403   2.323   5.116 -0.3368 -0.4785  0.1603
12427SOL    HW138137   1.492   2.359   5.120 -0.3594 -0.5046  1.2760
12427SOL    HW238138   1.358   2.364   5.190 -1.6791  0.6233 -1.2091
12428SOL     OW38139   2.919   0.681   6.445  0.0224  0.3775 -0.0356
12428SOL    HW138140   2.871   0.614   6.493 -1.7727  0.9819 -0.8977
12428SOL    HW238141   3.002   0.639   6.422 -0.3617 -0.9550  0.8898
12429SOL     OW38142   1.893   6.061   2.693  0.3527 -0.1276  0.4593
12429SOL    HW138143   1.877   6.138   2.639  1.0441 -0.6508 -0.5269
12429SOL    HW238144   1.905   5.989   2.630 -1.8460 -1.3913  1.3730
12430SOL     OW38145   3.467   4.516   2.941 -0.3324  0.0576  0.0286
12430SOL    HW138146   3.504   4.591   2.987  0.0576  1.3247 -2.2033
12430SOL    HW238147   3.520   4.508   2.861 -2.5028 -0.3876 -1.4850
12431SOL     OW38148   1.866   5.583   6.055  0.3520  0.0108 -0.0691
12431SOL    HW138149   1.785   5.551   6.094  0.5344  1.2166  1.3722
12431SOL    HW238150   1.936   5.537   6.102  0.5387 -0.6161 -0.9306
12432SOL     OW38151   2.190   2.811   5.988 -0.3110  0.1906 -0.6362
12432SOL    HW138152   2.115   2.865   5.961 -1.1883 -0.0731  1.1105
12432SOL    HW238153   2.200   2.747   5.918 -1.0155  0.9188 -1.4253
12433SOL     OW38154   7.684   0.718   2.248  0.1933 -0.3071 -0.3909
12433SOL    HW138155   7.647   0.740   2.163  0.8892 -0.6601 -0.7925
12433SOL    HW238156   7.609   0.718   2.307 -0.3701 -0.5472 -1.0950
12434SOL     OW38157   0.766   7.619   6.617  0.5363  0.9764  0.4180
12434SOL    HW138158   0.762   7.524   6.629  0.1595  1.1701  2.1720
12434SOL    HW238159   0.848   7.634   6.570 -0.3605 -0.3274 -1.7073
12435SOL     OW38160   3.877   5.271   1.025 -0.1358 -0.0181 -0.3844
12435SOL    HW138161   3.858   5.187   0.983  2.7607 -1.6904  1.3074
12435SOL    HW238162   3.887   5.249   1.118 -1.1379  2.5976  0.4516
12436SOL     OW38163   3.912   0.822   3.275 -0.1173  0.2908  0.2426
12436SOL    HW138164   3.886   0.770   3.351 -0.6067 -0.0063 -0.1177
12436SOL    HW238165   4.003   0.846   3.292  0.0144 -0.4045  0.5704
12437SOL     OW38166   0.361   5.944   7.274  0.3005  0.2031 -0.6037
12437SOL    HW138167   0.430   5.924   7.211  2.3426  0.8785  1.2906
12437SOL    HW238168   0.383   6.032   7.307 -0.7126 -0.0926  0.9805
12438SOL     OW38169   6.636   1.006   5.994 -0.4199  0.1387  0.2518
12438SOL    HW138170   6.567   1.055   6.039 -0.9119 -0.4541  0.1612
12438SOL    HW238171   6.717   1.034   6.037 -0.6713  1.0958  0.1320
12439SOL     OW38172   6.826   5.604   6.509 -0.1324  0.4441  0.2791
12439SOL    HW138173   6.820   5.673   6.575  0.9221 -0.7386  1.6590
12439SOL    HW238174   6.753   5.623   6.449 -2.3371  0.5033  2.7986
12440SOL     OW38175   0.802   6.738   2.350 -0.1619 -0.0380 -0.1676
12440SOL    HW138176   0.783   6.644   2.348  0.1652 -0.2009  2.0829
12440SOL    HW238177   0.898   6.743   2.348 -0.1671  0.4210 -2.9269
12441SOL     OW38178   0.132   0.669   0.597  0.2807 -0.4963 -0.2130
12441SOL    HW138179   0.154   0.654   0.689  0.6061 -0.1498 -0.2274
12441SOL    HW238180   0.037   0.670   0.594  0.2545  0.7102  0.3432
12442SOL     OW38181   7.202   3.880   0.626  0.3457 -0.3203  0.4351
12442SOL    HW138182   7.240   3.792   0.633 -0.9127 -0.8207  1.3866
12442SOL    HW238183   7.252   3.932   0.690  0.9268 -0.3893  0.0494
12443SOL     OW38184   1.016   5.238   1.516  0.3052  0.3140 -0.3114
12443SOL    HW138185   0.982   5.327   1.503 -1.0596 -0.1663 -0.2361
12443SOL    HW238186   1.019   5.200   1.427 -1.2776 -0.2872 -0.1403
12444SOL     OW38187   7.174   3.468   4.406 -0.7670  0.2557 -0.3458
12444SOL    HW138188   7.261   3.456   4.442 -0.6755 -1.3478 -1.0017
12444SOL    HW238189   7.138   3.543   4.452  1.4905  1.8804 -1.0943
12445SOL     OW38190   6.784   7.487   5.656  0.3278  0.1154 -0.4416
12445SOL    HW138191   6.696   7.467   5.624  0.1091 -0.9173  0.7304
12445SOL    HW238192   6.776   7.486   5.751  1.6617 -0.2543 -0.3161
12446SOL     OW38193   4.918   7.667   3.118 -0.4090 -0.3756 -0.0803
12446SOL    HW138194   4.852   7.598   3.105 -0.0049 -0.5984 -1.0648
12446SOL    HW238195   4.888   7.739   3.063  0.5832 -0.7928 -1.2206
12447SOL     OW38196   1.565   3.570   6.326 -0.4831 -0.3005 -0.2778
12447SOL    HW138197   1.499   3.613   6.271 -0.5546  0.1153  0.1313
12447SOL    HW238198   1.515   3.525   6.394 -0.3235  0.4894  0.3717
12448SOL     OW38199   6.464   7.322   1.976  0.2708 -0.4950  0.4674
12448SOL    HW138200   6.406   7.296   2.047  0.6274 -1.2458  0.4926
12448SOL    HW238201   6.466   7.247   1.918  1.5858 -0.6719  0.7127
12449SOL     OW38202   7.384   4.364   7.863  0.4944  0.0682  0.4232
12449SOL    HW138203   7.331   4.437   7.896  1.1904  1.0057 -0.4677
12449SOL    HW238204   7.323   4.311   7.811  0.3524  1.0151 -0.4095
12450SOL     OW38205   2.600   2.065   3.154  0.5806  0.5011  0.4658
12450SOL    HW138206   2.606   2.097   3.064  0.0616 -0.8950 -0.0822
12450SOL    HW238207   2.561   1.979   3.147  0.0830  0.5564  2.0843
12451SOL     OW38208   5.989   7.449   2.213 -0.1317 -0.5285  0.2982
12451SOL    HW138209   6.064   7.401   2.248  0.6905 -0.0395 -0.7362
12451SOL    HW238210   5.956   7.501   2.286 -0.3376 -1.7804  1.1327
12452SOL     OW38211   2.143   6.781   7.886 -0.5953 -0.3051  0.9167
12452SOL    HW138212   2.065   6.831   7.910 -0.4530  0.0659  0.6159
12452SOL    HW238213   2.213   6.846   7.882 -0.1628 -0.7068  1.6559
12453SOL     OW38214   2.896   6.264   1.795  0.2740 -0.1342  0.0649
12453SOL    HW138215   2.948   6.206   1.740 -2.9425 -1.7555 -1.5718
12453SOL    HW238216   2.858   6.327   1.734 -1.4584 -0.4620  0.7453
12454SOL     OW38217   2.738   0.302   2.080 -0.5071 -0.0768 -0.2777
12454SOL    HW138218   2.760   0.306   2.173 -3.8837  2.7284  0.6041
12454SOL    HW238219   2.789   0.373   2.041 -0.6380  0.0968 -0.1382
12455SOL     OW38220   1.467   5.752   0.164 -0.0502 -0.0307  0.1560
12455SOL    HW138221   1.528   5.695   0.118  0.9312  0.8781  0.2901
12455SOL    HW238222   1.519   5.792   0.234 -1.1536 -0.3116  1.1723
12456SOL     OW38223   7.328   6.421   5.350 -0.1175  0.2833  0.0170
12456SOL    HW138224   7.375   6.337   5.347  0.8089  0.7904  0.0203
12456SOL    HW238225   7.238   6.397   5.371 -0.1549 -0.8291 -1.3032
12457SOL     OW38226   2.066   1.403   5.224  0.2439  0.1613 -0.3755
12457SOL    HW138227   1.973   1.424   5.229  0.7112  2.2033  1.4298
12457SOL    HW238228   2.078   1.332   5.288  0.1265  0.9066  0.5020
12458SOL     OW38229   2.436   0.417   1.404 -0.6858  0.3518 -0.6704
12458SOL    HW138230   2.411   0.326   1.419 -0.1458  0.3243  0.1051
12458SOL    HW238231   2.386   0.443   1.326 -3.9591  0.6116  1.3191
12459SOL     OW38232   3.036   0.912   6.635 -0.4945 -0.2424 -0.0322
12459SOL    HW138233   3.019   0.955   6.719 -0.5899 -0.6227  0.1480
12459SOL    HW238234   3.044   0.984   6.572  1.7540  0.1717  0.6576
12460SOL     OW38235   1.693   0.377   4.318  0.0024  0.1485 -0.2634
12460SOL    HW138236   1.736   0.309   4.267 -1.2266 -0.6203 -0.3394
12460SOL    HW238237   1.665   0.442   4.254  1.9224  1.2063 -0.1043
12461SOL     OW38238   4.732   4.594   2.570  0.1695  0.3088  0.0800
12461SOL    HW138239   4.722   4.499   2.570  0.4090  0.2711 -1.2811
12461SOL    HW238240   4.686   4.623   2.492 -0.0226  1.3404  0.5542
12462SOL     OW38241   6.348   0.079   4.763  0.0240  0.0688 -0.0120
12462SOL    HW138242   6.341   0.106   4.671 -1.4184 -2.2036 -0.6638
12462SOL    HW238243   6.424   0.022   4.766 -1.0116 -1.3858 -0.2821
12463SOL     OW38244   5.400   6.390   5.393 -0.2568  0.0776 -0.1545
12463SOL    HW138245   5.398   6.408   5.487 -0.4754  0.9396 -0.3123
12463SOL    HW238246   5.332   6.447   5.357  0.6752  0.6932 -0.9826
12464SOL     OW38247   2.478   2.640   0.407 -0.0004  0.3380  0.6547
12464SOL    HW138248   2.551   2.680   0.454  1.9222 -0.5178 -1.4349
12464SOL    HW238249   2.458   2.561   0.458  1.7649 -0.3591  0.3575
12465SOL     OW38250   7.435   2.448   5.338  0.0069  0.1408 -0.2315
12465SOL    HW138251   7.436   2.434   5.433 -1.7755  4.3593  0.6285
12465SOL    HW238252   7.523   2.479   5.317  0.0161  0.5157  0.3440
12466SOL     OW38253   6.019   0.544   2.669 -0.3329 -0.4434 -0.2722
12466SOL    HW138254   6.105   0.519   2.704  0.0970  1.3122  0.0213
12466SOL    HW238255   6.001   0.629   2.709 -1.0134  0.4315 -2.3249
12467SOL     OW38256   7.775   5.711   6.360  0.3142 -0.4622  0.0252
12467SOL    HW138257   7.824   5.786   6.394  0.8574 -0.2109 -1.2760
12467SOL    HW238258   7.776   5.722   6.265 -1.4414 -0.9885 -0.0869
12468SOL     OW38259   0.287   7.987   6.337 -0.3753  0.0490 -0.2847
12468SOL    HW138260   0.239   8.069   6.330 -0.8253 -0.0639  1.1313
12468SOL    HW238261   0.338   7.995   6.418  1.7343  0.0055 -1.5434
12469SOL     OW38262   7.890   5.403   2.707  0.0471 -0.0740  0.0346
12469SOL    HW138263   7.867   5.389   2.615 -0.2691  0.1405  0.0788
12469SOL    HW238264   7.913   5.316   2.739  1.6892  0.0813 -0.6495
12470SOL     OW38265   5.614   3.032   4.857 -0.8309  0.2130 -0.4210
12470SOL    HW138266   5.620   3.040   4.762  0.2386  0.5586 -0.3345
12470SOL    HW238267   5.579   2.944   4.872 -1.5175  0.3532 -1.1312
12471SOL     OW38268   1.405   2.383   7.694  0.4580  0.2320 -0.3466
12471SOL    HW138269   1.413   2.478   7.687 -1.0045  0.4146  0.1053
12471SOL    HW238270   1.344   2.369   7.767 -1.2773 -0.9676 -1.9473
12472SOL     OW38271   5.825   5.899   4.277  0.1622  0.5108 -0.2387
12472SOL    HW138272   5.765   5.861   4.341 -0.0413 -0.1104 -0.7889
12472SOL    HW238273   5.864   5.974   4.322  0.6711 -0.4180  0.9118
12473SOL     OW38274   2.691   7.590   7.950 -0.3866  0.1070  0.4463
12473SOL    HW138275   2.699   7.532   7.874  0.9000  0.3128  0.4070
12473SOL    HW238276   2.678   7.677   7.913 -1.0292  0.0352  0.4903
12474SOL     OW38277   5.644   4.447   7.067  0.1125 -0.0898 -0.3774
12474SOL    HW138278   5.714   4.495   7.023  0.7573 -0.6527  0.0132
12474SOL    HW238279   5.634   4.367   7.017 -0.0446 -0.1504 -0.2501
12475SOL     OW38280   2.951   1.047   0.032 -0.2116 -0.0274  0.2208
12475SOL    HW138281   2.957   0.996   0.113  0.9869 -0.9182 -0.3800
12475SOL    HW238282   2.915   0.985  -0.032  2.8846 -0.8200 -0.9649
12476SOL     OW38283   5.316   5.173   5.636 -0.2466 -0.1431  0.3582
12476SOL    HW138284   5.390   5.232   5.648 -0.6881  0.1740  1.7440
12476SOL    HW238285   5.341   5.094   5.685  0.2540 -1.0687 -1.3124
12477SOL     OW38286   1.878   5.895   0.175 -0.3657 -0.1777 -0.2785
12477SOL    HW138287   1.928   5.971   0.146 -0.1082 -0.3667 -0.3271
12477SOL    HW238288   1.805   5.932   0.225  1.7375 -0.0036  2.8882
12478SOL     OW38289   4.341   7.975   1.465  0.3866 -0.0606 -0.5473
12478SOL    HW138290   4.250   7.948   1.459  0.4161 -0.2397 -0.2393
12478SOL    HW238291   4.343   8.036   1.539  0.2325  1.1771 -1.5400
12479SOL     OW38292   7.903   4.733   4.718  0.3015  0.4156  0.0796
12479SOL    HW138293   7.854   4.786   4.781  0.2843  1.4582 -0.7800
12479SOL    HW238294   7.973   4.791   4.687  1.4280 -0.6738  0.4635
12480SOL     OW38295   6.859   7.813   3.500  0.2314  0.9898 -0.1442
12480SOL    HW138296   6.780   7.785   3.545 -0.9393  2.3758 -1.2402
12480SOL    HW238297   6.859   7.764   3.418  1.1050  0.2034  0.3092
12481SOL     OW38298   3.160   5.853   0.773 -0.5350 -0.6793 -0.0496
12481SOL    HW138299   3.231   5.871   0.835 -0.8026 -0.0864  0.0944
12481SOL    HW238300   3.138   5.761   0.788 -0.4773 -0.5942  0.6158
12482SOL     OW38301   0.375   4.421   0.713  0.2731 -0.1045 -0.3597
12482SOL    HW138302   0.388   4.441   0.620 -1.0013 -0.0125 -0.5367
12482SOL    HW238303   0.301   4.361   0.714  2.0162 -2.4087  0.4025
12483SOL     OW38304   4.597   6.851   0.757  0.0546  0.2584  0.3455
12483SOL    HW138305   4.523   6.792   0.751 -0.3288  0.6155  1.3620
12483SOL    HW238306   4.670   6.796   0.784 -0.8635  0.5798  3.9369
12484SOL     OW38307   1.035   1.130   3.064 -0.2519 -0.1667 -0.4051
12484SOL    HW138308   1.113   1.087   3.028  2.4755  2.2080  2.0925
12484SOL    HW238309   1.013   1.197   3.000 -0.0116 -0.6452 -0.9970
12485SOL     OW38310   3.425   0.143   3.233  0.0534 -0.7588 -0.3549
12485SOL    HW138311   3.396   0.226   3.272 -1.2409  0.5488 -3.7176
12485SOL    HW238312   3.361   0.079   3.265 -1.1528  0.3037 -0.5362
12486SOL     OW38313   0.913   0.784   1.706 -0.1443 -0.2716  0.5252
12486SOL    HW138314   0.940   0.700   1.668 -2.2018 -0.1046 -1.4943
12486SOL    HW238315   0.942   0.779   1.797  2.6293 -1.8281 -0.3248
12487SOL     OW38316   0.025   1.342   1.592 -0.4286 -0.3043  0.1693
12487SOL    HW138317   0.053   1.332   1.683 -0.0794  1.0741  0.2330
12487SOL    HW238318  -0.046   1.406   1.596  1.2154  1.7063 -0.7403
12488SOL     OW38319   0.574   4.975   1.505  0.0813  0.0464  0.3323
12488SOL    HW138320   0.613   5.051   1.461 -2.0856  0.0509 -1.7953
12488SOL    HW238321   0.592   4.902   1.446  0.2614 -0.6898  1.2779
12489SOL     OW38322   0.978   5.398   2.478  0.3691  0.4951  0.9977
12489SOL    HW138323   0.923   5.377   2.554 -1.7794  1.0352 -0.3306
12489SOL    HW238324   0.931   5.468   2.434  1.9541  0.6930 -0.4573
12490SOL     OW38325   3.006   4.036   0.982  0.3999 -0.5706  0.0133
12490SOL    HW138326   2.979   3.951   1.018  3.4249 -1.2355  1.0015
12490SOL    HW238327   2.928   4.069   0.937 -1.0121 -3.6608 -0.0501
12491SOL     OW38328   6.643   2.174   7.173  0.0730 -0.0090  0.5196
12491SOL    HW138329   6.588   2.097   7.159 -0.5566  0.5360 -0.0568
12491SOL    HW238330   6.643   2.187   7.268  0.8012 -1.1470  0.7054
12492SOL     OW38331   0.128   4.054   3.067  0.1418 -0.4690  0.5580
12492SOL    HW138332   0.169   4.139   3.047 -1.3205  0.2031  0.2252
12492SOL    HW238333   0.123   4.010   2.982 -1.8431  0.4335  0.1325
12493SOL     OW38334   3.361   7.492   5.697  0.1749  0.4952 -0.2465
12493SOL    HW138335   3.324   7.444   5.622 -1.0095  0.0117  0.5993
12493SOL    HW238336   3.400   7.423   5.751 -0.1296  0.6783  0.2064
12494SOL     OW38337   4.839   1.852   3.289 -0.9905  0.2383  0.0145
12494SOL    HW138338   4.840   1.938   3.245  1.7810 -0.3258 -1.2247
12494SOL    HW238339   4.890   1.796   3.231  0.1428 -1.3921  2.4760
12495SOL     OW38340   5.288   6.807   6.663 -0.0136  0.2818 -0.2074
12495SOL    HW138341   5.333   6.821   6.746 -0.3792  2.3722 -0.3124
12495SOL    HW238342   5.357   6.809   6.597  0.0762  0.4585 -0.1086
12496SOL     OW38343   5.950   7.086   3.384 -0.3454  0.5798 -0.3638
12496SOL    HW138344   5.880   7.022   3.400 -1.1469  0.7965 -2.6255
12496SOL    HW238345   5.905   7.170   3.377  0.6574  1.4290  2.1656
12497SOL     OW38346   0.624   1.183   3.880  0.1168 -0.2176 -0.2436
12497SOL    HW138347   0.572   1.105   3.858 -3.4336  1.1849  2.2736
12497SOL    HW238348   0.563   1.256   3.872  2.5005  1.9942  0.3095
12498SOL     OW38349   4.344   7.371   7.134 -0.5407 -0.4601  0.2572
12498SOL    HW138350   4.427   7.345   7.175 -1.3092 -1.6037  1.1521
12498SOL    HW238351   4.303   7.430   7.197  0.1305  1.1598 -0.7471
12499SOL     OW38352   0.150   4.977   7.855  0.1018 -0.3157  0.6022
12499SOL    HW138353   0.115   5.067   7.851 -0.3849 -0.4182 -4.7399
12499SOL    HW238354   0.084   4.928   7.903 -0.7168  1.7331  1.7188
12500SOL     OW38355   2.268   6.906   6.488 -0.2047 -0.0004 -0.2867
12500SOL    HW138356   2.265   6.952   6.571 -0.5441 -0.7425  0.1186
12500SOL    HW238357   2.282   6.814   6.512  1.1351 -0.0396 -1.0977
12501SOL     OW38358   4.758   3.638   5.900 -0.1668 -0.2011 -0.0853
12501SOL    HW138359   4.708   3.674   5.827  1.3001  1.9064 -0.1403
12501SOL    HW238360   4.810   3.712   5.932 -0.1786 -1.2565  2.6178
12502SOL     OW38361   4.707   1.674   5.189  0.3929  0.6318 -0.3058
12502SOL    HW138362   4.793   1.698   5.225  0.6760  0.2722 -0.7218
12502SOL    HW238363   4.692   1.585   5.221  1.4317 -0.3784 -2.3971
12503SOL     OW38364   5.564   1.030   6.777 -0.4773  0.1656  0.0410
12503SOL    HW138365   5.481   0.984   6.788 -0.4804 -0.4777 -2.2311
12503SOL    HW238366   5.593   1.050   6.866 -2.3065 -0.9433  0.9253
12504SOL     OW38367   6.575   1.284   4.965 -0.5598  0.0978  0.2729
12504SOL    HW138368   6.490   1.243   4.983  0.0753 -2.5940 -2.1782
12504SOL    HW238369   6.607   1.240   4.887  1.7546  3.1864 -0.7278
12505SOL     OW38370   5.640   1.846   1.040  0.3022 -0.1650  0.2672
12505SOL    HW138371   5.598   1.817   0.958 -0.7193 -1.0770  1.0787
12505SOL    HW238372   5.586   1.920   1.069  1.2908  0.8538 -0.3922
12506SOL     OW38373   6.745   6.914   2.664  0.0632  0.3363 -0.5291
12506SOL    HW138374   6.701   6.931   2.580  0.8319 -1.2158 -1.2895
12506SOL    HW238375   6.758   6.819   2.666 -1.3649  0.0956  2.1265
12507SOL     OW38376   0.125   0.942   7.752 -0.3806  1.1886 -0.1375
12507SOL    HW138377   0.040   0.986   7.764 -0.7568  0.1992  0.9657
12507SOL    HW238378   0.141   0.947   7.658 -2.9567 -0.8772 -0.8072
12508SOL     OW38379   2.912   3.363   3.869 -0.3984  0.2414 -0.3023
12508SOL    HW138380   2.914   3.335   3.960  0.2915  0.8765 -0.1121
12508SOL    HW238381   2.832   3.325   3.834 -0.3906 -0.4684  0.4151
12509SOL     OW38382   5.165   3.470   2.183  0.2055 -0.3097 -0.5428
12509SOL    HW138383   5.150   3.516   2.101 -1.4553 -0.3983 -0.3212
12509SOL    HW238384   5.243   3.512   2.220  0.8947 -0.1784 -2.0724
12510SOL     OW38385   6.812   1.607   4.532 -0.1185 -0.2955  0.8189
12510SOL    HW138386   6.736   1.561   4.566  1.0084 -2.2862  0.8009
12510SOL    HW238387   6.887   1.562   4.572  1.0791  1.0036  0.1271
12511SOL     OW38388   4.113   3.715   3.573 -0.8155  0.3832  0.1463
12511SOL    HW138389   4.111   3.809   3.553 -1.5271  0.3680  0.1299
12511SOL    HW238390   4.034   3.680   3.532 -1.1419 -0.0311  1.1038
12512SOL     OW38391   2.927   3.852   4.974  0.1076  0.3864  0.0093
12512SOL    HW138392   2.962   3.875   5.060  0.2392 -1.2090  0.4265
12512SOL    HW238393   2.853   3.795   4.994 -0.1429  0.3764 -0.9385
12513SOL     OW38394   3.185   4.337   3.907  0.2079 -0.2634 -0.2329
12513SOL    HW138395   3.187   4.340   3.812  0.8198 -1.5815 -0.2925
12513SOL    HW238396   3.149   4.421   3.934  0.4004  0.2752 -1.6118
12514SOL     OW38397   5.465   0.800   2.284 -0.0115 -0.1029  0.1253
12514SOL    HW138398   5.451   0.888   2.249  0.0586 -0.1273  0.0363
12514SOL    HW238399   5.531   0.762   2.227  1.2166  0.3823  1.1793
12515SOL     OW38400   3.940   1.927   3.331 -0.5444 -0.0359  0.7624
12515SOL    HW138401   3.966   1.996   3.270  0.3999 -1.7491 -0.8988
12515SOL    HW238402   3.885   1.868   3.279 -0.1200 -1.2964  1.6911
12516SOL     OW38403   5.008   5.535   5.998 -0.2703  0.0611 -0.3228
12516SOL    HW138404   5.043   5.623   5.982 -0.7481  0.2540 -0.3275
12516SOL    HW238405   4.928   5.531   5.945 -1.4032  0.3891  1.2884
12517SOL     OW38406   0.369   1.246   5.245 -0.0598  0.0359 -0.4266
12517SOL    HW138407   0.339   1.181   5.182 -0.7498  0.7767 -0.8884
12517SOL    HW238408   0.296   1.258   5.305  1.1157 -1.7531  1.4654
12518SOL     OW38409   6.608   5.466   4.349 -0.0400 -0.1800  0.0511
12518SOL    HW138410   6.647   5.543   4.309 -0.2628 -0.2582 -0.3182
12518SOL    HW238411   6.665   5.393   4.322 -0.8788 -0.4123 -1.1602
12519SOL     OW38412   0.506   3.874   2.791  0.6699 -0.5272  0.9432
12519SOL    HW138413   0.510   3.963   2.824 -0.4510  0.2179 -0.7639
12519SOL    HW238414   0.441   3.831   2.846 -1.0788  0.6489 -0.1004
12520SOL     OW38415   2.643   6.896   7.352 -0.1922  0.5801  0.8543
12520SOL    HW138416   2.659   6.822   7.293 -2.2016  1.4178 -0.8568
12520SOL    HW238417   2.651   6.858   7.440 -0.9201 -1.6245  0.0452
12521SOL     OW38418   4.375   0.649   4.175  0.1588 -0.3073 -0.2288
12521SOL    HW138419   4.384   0.554   4.183 -1.2659 -0.4990 -0.6990
12521SOL    HW238420   4.301   0.671   4.231  1.4308  0.7600  1.1077
12522SOL     OW38421   4.811   5.724   2.716 -0.2630 -0.6598 -0.3995
12522SOL    HW138422   4.730   5.678   2.694 -0.9387 -0.7814  2.0235
12522SOL    HW238423   4.851   5.669   2.783 -0.1801  1.3329  1.2640
12523SOL     OW38424   6.430   0.450   7.590  0.6129  0.1805 -0.0659
12523SOL    HW138425   6.430   0.544   7.570 -2.9578  0.9455  2.4453
12523SOL    HW238426   6.483   0.443   7.669 -0.1927  0.3426  0.4973
12524SOL     OW38427   1.926   5.882   3.169 -0.0179  0.5967  0.4103
12524SOL    HW138428   2.014   5.919   3.166 -0.2268  1.0819  0.3045
12524SOL    HW238429   1.877   5.929   3.101 -0.8615  1.6333  1.6965
12525SOL     OW38430   4.785   0.079   0.755 -0.0876 -0.1356  0.0727
12525SOL    HW138431   4.800   0.080   0.850  1.5259  0.0534 -0.1627
12525SOL    HW238432   4.738   0.160   0.737  1.5602  0.9317  0.4304
12526SOL     OW38433   5.188   5.371   3.013  0.0279  0.2849 -0.1226
12526SOL    HW138434   5.153   5.346   3.099  0.3732 -0.0906 -0.0849
12526SOL    HW238435   5.240   5.295   2.986  0.4167  0.6470 -0.3917
12527SOL     OW38436   7.949   7.911   7.291 -0.6250  0.3206 -0.2032
12527SOL    HW138437   7.941   7.831   7.342 -0.5294 -0.8062 -1.8702
12527SOL    HW238438   8.042   7.915   7.269 -0.7527  0.4852 -0.7258
12528SOL     OW38439   2.806   6.501   6.967  0.1197  0.3008  0.3017
12528SOL    HW138440   2.817   6.594   6.946  3.7348 -0.0662  0.0775
12528SOL    HW238441   2.826   6.495   7.060 -1.3565 -0.1365  0.6172
12529SOL     OW38442   7.239   0.948   2.140  0.3380 -0.4536  0.3374
12529SOL    HW138443   7.238   1.043   2.149 -0.2256 -0.5122  1.0092
12529SOL    HW238444   7.304   0.931   2.072 -0.5822  0.4995 -0.8362
12530SOL     OW38445   7.681   2.835   6.641  0.4142 -0.3063 -0.1579
12530SOL    HW138446   7.721   2.785   6.570  1.1898 -0.1453  0.1564
12530SOL    HW238447   7.629   2.771   6.689  0.5495 -0.5884 -0.3840
12531SOL     OW38448   4.542   1.287   4.735  0.1332  0.5333  0.0838
12531SOL    HW138449   4.593   1.215   4.697  0.3830  0.4633  0.5465
12531SOL    HW238450   4.461   1.245   4.765 -0.4524  0.7434 -1.1648
12532SOL     OW38451   1.849   2.216   0.977  0.2317 -0.1313  0.7129
12532SOL    HW138452   1.877   2.216   1.069 -1.0770 -1.5000  1.1564
12532SOL    HW238453   1.891   2.293   0.939  1.8396 -0.2571  2.1296
12533SOL     OW38454   6.280   0.307   7.964 -0.0897 -0.6185 -0.3943
12533SOL    HW138455   6.280   0.248   8.039  2.7095  1.5410  1.5496
12533SOL    HW238456   6.370   0.341   7.961 -0.7001  1.0429 -3.4018
12534SOL     OW38457   3.433   6.571   4.755 -0.1965 -0.0620 -0.1666
12534SOL    HW138458   3.446   6.605   4.667  0.3255  0.3103  0.0516
12534SOL    HW238459   3.430   6.476   4.744 -0.9171  0.0072 -0.6808
12535SOL     OW38460   4.116   2.468   3.702 -0.4019  0.6341 -0.1262
12535SOL    HW138461   4.071   2.548   3.731 -0.5957  0.4001  0.2276
12535SOL    HW238462   4.208   2.492   3.699 -0.6103  1.3414 -1.5802
12536SOL     OW38463   1.732   3.133   0.880 -0.6165 -0.4359  0.4181
12536SOL    HW138464   1.758   3.191   0.808 -1.6056  1.7244  1.7152
12536SOL    HW238465   1.774   3.170   0.957 -0.2576 -2.2249  1.1276
12537SOL     OW38466   0.868   3.172   2.534 -0.1519  0.3056  0.5954
12537SOL    HW138467   0.867   3.186   2.629 -0.1311  1.0393  0.4920
12537SOL    HW238468   0.874   3.077   2.524  0.4450  0.2600  1.3287
12538SOL     OW38469   6.455   3.611   4.212 -0.1394  0.2629  0.3629
12538SOL    HW138470   6.545   3.599   4.244 -0.4028 -1.1436  0.6374
12538SOL    HW238471   6.400   3.584   4.285 -0.7607 -0.8939 -0.4883
12539SOL     OW38472   0.943   4.874   6.854  0.4268 -0.0355  0.3725
12539SOL    HW138473   0.886   4.904   6.783  1.1305  0.5047  0.0171
12539SOL    HW238474   0.884   4.849   6.925 -0.2082  3.2275  1.1292
12540SOL     OW38475   2.093   1.254   5.724 -0.4620  0.1327 -0.3914
12540SOL    HW138476   2.169   1.311   5.711 -0.9562  0.5839 -1.5219
12540SOL    HW238477   2.129   1.166   5.730  0.1134  0.2526 -1.7578
12541SOL     OW38478   6.479   4.949   0.669 -0.1707 -0.0912  0.1337
12541SOL    HW138479   6.455   4.889   0.598 -0.1853  1.6241 -1.4050
12541SOL    HW238480   6.567   4.978   0.647 -0.2538  0.6121  0.6943
12542SOL     OW38481   1.480   3.203   7.121  0.2057 -0.1853 -0.0834
12542SOL    HW138482   1.394   3.212   7.162  0.2187 -1.0871  0.1734
12542SOL    HW238483   1.467   3.139   7.052  1.2647 -2.7510  1.9123
12543SOL     OW38484   1.657   5.559   4.983 -0.0683  0.3264 -0.0152
12543SOL    HW138485   1.647   5.504   4.905  0.3190 -1.5950  1.2280
12543SOL    HW238486   1.597   5.633   4.968 -0.6307 -0.4263 -1.7440
12544SOL     OW38487   2.633   1.615   2.071 -0.3930 -0.1350  0.2557
12544SOL    HW138488   2.555   1.602   2.125 -0.0459 -0.9305  0.5852
12544SOL    HW238489   2.674   1.529   2.068  0.4415  0.2613  0.0396
12545SOL     OW38490   2.510   0.980   5.631  0.2484  0.6983  0.5574
12545SOL    HW138491   2.601   1.000   5.609  1.3427 -2.6158  1.4986
12545SOL    HW238492   2.487   0.907   5.574 -2.1275  1.8964 -0.1434
12546SOL     OW38493   5.193   2.618   1.193 -0.5044  0.4758  0.3938
12546SOL    HW138494   5.210   2.709   1.171  1.1336  0.3509  0.9785
12546SOL    HW238495   5.197   2.615   1.288 -2.0092  0.0298  0.4687
12547SOL     OW38496   5.285   5.231   1.283 -0.4440  0.1629 -0.4427
12547SOL    HW138497   5.275   5.320   1.316 -0.2231  0.4947 -1.2544
12547SOL    HW238498   5.238   5.230   1.199 -2.2547 -1.0705  0.5028
12548SOL     OW38499   5.470   6.376   1.707 -0.2771 -0.0803  0.4114
12548SOL    HW138500   5.402   6.309   1.716 -1.0913  0.6832  0.1141
12548SOL    HW238501   5.446   6.423   1.627  1.1411 -0.3852 -0.2161
12549SOL     OW38502   3.735   2.042   7.290  0.2171  0.0991  0.2499
12549SOL    HW138503   3.826   2.047   7.260 -0.2008  0.3007 -1.0480
12549SOL    HW238504   3.736   1.974   7.357  1.8230  1.8628  2.1871
12550SOL     OW38505   5.262   2.011   2.050 -0.8759  0.2047 -0.1329
12550SOL    HW138506   5.323   1.976   2.115 -1.2872 -0.1230  0.0835
12550SOL    HW238507   5.273   2.106   2.054  0.6352  0.1056 -1.0922
12551SOL     OW38508   0.570   7.307   6.875  0.6137  0.0346  0.0256
12551SOL    HW138509   0.635   7.303   6.805  0.3452 -2.4197 -0.1844
12551SOL    HW238510   0.589   7.230   6.929 -0.2350  0.9472  1.7260
12552SOL     OW38511   5.257   7.827   6.236 -0.1275 -0.0242  0.4691
12552SOL    HW138512   5.291   7.909   6.270  0.8184 -0.7644  1.3605
12552SOL    HW238513   5.179   7.808   6.288 -0.5700  0.4796  0.0065
12553SOL     OW38514   0.462   1.798   6.139 -0.0242  0.4261 -0.0639
12553SOL    HW138515   0.515   1.718   6.151  1.1591  0.9712 -1.4232
12553SOL    HW238516   0.449   1.831   6.228  0.2545 -0.7822  0.4452
12554SOL     OW38517   0.486   0.983   6.041 -0.1442  0.4923  0.5978
12554SOL    HW138518   0.460   0.934   6.119 -0.2079 -1.9856 -0.8724
12554SOL    HW238519   0.465   1.074   6.062  0.0513 -0.0351  3.5210
12555SOL     OW38520   0.687   3.083   5.305 -0.0350  0.2697  0.0252
12555SOL    HW138521   0.770   3.111   5.267  0.8768 -0.9186  1.0194
12555SOL    HW238522   0.669   3.147   5.374 -0.1624  0.7706 -0.4767
12556SOL     OW38523   6.809   5.972   2.826  0.3034  0.4043 -0.3134
12556SOL    HW138524   6.727   5.940   2.787  1.6156 -0.2842 -2.6789
12556SOL    HW238525   6.833   5.905   2.889  0.6103 -1.0003 -1.8612
12557SOL     OW38526   5.632   3.210   0.099  0.1099  0.0903  0.3965
12557SOL    HW138527   5.680   3.228   0.180  1.2812  0.7879 -0.4330
12557SOL    HW238528   5.606   3.118   0.107  1.6461 -0.3389  0.8648
12558SOL     OW38529   1.059   2.038   2.490  0.4809  0.2836 -0.0070
12558SOL    HW138530   0.986   2.042   2.552 -0.4281 -0.7626 -0.9626
12558SOL    HW238531   1.090   2.128   2.483 -0.2679  0.6294  0.9376
12559SOL     OW38532   6.403   2.841   1.547 -0.2535 -0.2962  0.1127
12559SOL    HW138533   6.468   2.878   1.606 -1.6130  0.2007  1.3554
12559SOL    HW238534   6.319   2.863   1.586 -1.1903 -1.1357 -1.3098
12560SOL     OW38535   1.221   3.530   3.830 -0.8872  0.1306 -0.0877
12560SOL    HW138536   1.133   3.567   3.831 -1.5848 -1.3970 -1.8170
12560SOL    HW238537   1.212   3.444   3.791  1.1140 -0.8568  1.4031
12561SOL     OW38538   5.306   1.283   4.979 -0.4506 -0.0076  0.3118
12561SOL    HW138539   5.295   1.191   5.004  0.3499 -0.0682  0.4883
12561SOL    HW238540   5.389   1.308   5.019 -0.1176  0.4745 -0.6594
12562SOL     OW38541   6.548   0.666   0.216 -0.0969  0.3317 -0.3504
12562SOL    HW138542   6.482   0.611   0.258 -0.2614  1.8435  1.4912
12562SOL    HW238543   6.630   0.643   0.261  0.0108  0.8632 -0.2695
12563SOL     OW38544   0.762   2.645   0.997 -0.1718  0.2712 -0.5985
12563SOL    HW138545   0.692   2.669   1.058  0.5287  1.8735 -0.3530
12563SOL    HW238546   0.834   2.705   1.020  1.3407 -1.4100 -0.7370
12564SOL     OW38547   0.713   3.116   4.705  0.3537  0.1106  0.2193
12564SOL    HW138548   0.795   3.158   4.678 -0.3470  1.2685 -0.1582
12564SOL    HW238549   0.677   3.080   4.624 -1.5954  3.3184 -0.4957
12565SOL     OW38550   6.159   7.845   4.085 -0.5494  0.3550  0.0255
12565SOL    HW138551   6.071   7.849   4.122 -0.5789  0.2084 -0.0310
12565SOL    HW238552   6.148   7.873   3.994 -0.5634  0.1729 -0.0283
12566SOL     OW38553   0.049   1.902   3.258 -1.1248  0.5840  0.5944
12566SOL    HW138554   0.076   1.814   3.235 -2.7686  0.2580 -0.2342
12566SOL    HW238555   0.130   1.947   3.282 -0.1374 -0.8369  0.0291
12567SOL     OW38556   3.043   4.567   3.993  0.0757 -0.4817  0.2500
12567SOL    HW138557   3.056   4.573   4.087 -0.3740  0.5925  0.2622
12567SOL    HW238558   2.948   4.571   3.981  0.1027 -1.0296 -0.2323
12568SOL     OW38559   5.437   6.038   1.926  0.3033  0.0633 -0.3545
12568SOL    HW138560   5.392   5.968   1.879  0.7509 -1.1929  0.9769
12568SOL    HW238561   5.412   6.025   2.018 -0.4505  2.3322 -0.1843
12569SOL     OW38562   0.516   5.155   4.451 -0.1313 -0.2850  0.0535
12569SOL    HW138563   0.567   5.123   4.377 -1.4967  1.0047 -1.5115
12569SOL    HW238564   0.484   5.076   4.494  2.3905 -1.1043  0.5731
12570SOL     OW38565   3.029   1.959   2.210 -0.6639 -0.1138 -1.0641
12570SOL    HW138566   3.010   1.891   2.145 -2.7504 -0.1247 -0.5135
12570SOL    HW238567   2.952   1.959   2.267  0.6876  0.5775  0.8222
12571SOL     OW38568   0.884   4.953   0.830 -0.3696  0.0521  0.5674
12571SOL    HW138569   0.849   4.952   0.741 -1.3858  1.8209  0.8965
12571SOL    HW238570   0.886   4.861   0.856  2.2445 -0.7922 -2.0832
12572SOL     OW38571   7.893   1.157   5.151  0.2081 -0.5160  0.0247
12572SOL    HW138572   7.871   1.083   5.096 -0.2150 -1.1420  1.0079
12572SOL    HW238573   7.811   1.206   5.160  1.1216  2.0257 -3.3303
12573SOL     OW38574   6.548   4.025   0.327  0.3436 -0.0045 -0.0378
12573SOL    HW138575   6.589   4.042   0.412 -0.1475 -0.6360  0.3355
12573SOL    HW238576   6.537   3.930   0.324 -1.1761  0.1396 -0.0765
12574SOL     OW38577   2.379   5.734   2.800  0.3554  0.3421  0.2354
12574SOL    HW138578   2.362   5.650   2.843 -2.2586  1.2390  1.1486
12574SOL    HW238579   2.429   5.784   2.865  1.9425 -0.4545 -0.3209
12575SOL     OW38580   0.015   2.982   4.838  0.3281 -0.8023 -0.2989
12575SOL    HW138581  -0.054   3.045   4.858  1.0262 -0.4785  1.2493
12575SOL    HW238582  -0.022   2.926   4.771 -0.9476  0.1814 -0.4477
12576SOL     OW38583   6.997   3.426   2.084 -0.0383 -0.4036 -0.0654
12576SOL    HW138584   6.986   3.479   2.005 -0.7245  0.0573  0.3213
12576SOL    HW238585   7.040   3.346   2.055  1.2735  0.4726 -0.6355
12577SOL     OW38586   0.838   0.193   5.042 -0.0258  0.3474  0.5491
12577SOL    HW138587   0.876   0.146   4.968 -1.5624 -1.3968  0.8129
12577SOL    HW238588   0.817   0.280   5.007 -1.8288 -0.8114 -1.4776
12578SOL     OW38589   4.632   6.871   6.024  0.5324 -0.6286 -0.0970
12578SOL    HW138590   4.715   6.919   6.025  0.1095  0.1250  0.4840
12578SOL    HW238591   4.642   6.805   5.956  1.6095 -0.5512 -0.0210
12579SOL     OW38592   1.561   3.995   2.179  0.5286 -0.0745 -0.9210
12579SOL    HW138593   1.579   3.903   2.157 -0.1971 -0.3682 -0.3528
12579SOL    HW238594   1.560   3.996   2.275 -0.5197  0.3009 -0.9269
12580SOL     OW38595   6.071   1.103   5.575  0.1299 -0.4008 -0.1222
12580SOL    HW138596   6.080   1.017   5.615  0.0260  0.3606  1.6575
12580SOL    HW238597   6.035   1.158   5.644  0.7584  1.2148 -1.0061
12581SOL     OW38598   0.122   0.317   6.021  0.1151  0.4201 -0.4419
12581SOL    HW138599   0.095   0.392   5.968 -2.1946  0.3962  0.5628
12581SOL    HW238600   0.095   0.240   5.971  0.0674  0.3347 -0.2874
12582SOL     OW38601   3.784   6.770   2.392 -0.5266 -0.3939  0.1078
12582SOL    HW138602   3.697   6.808   2.385 -0.4684 -0.5592 -1.9914
12582SOL    HW238603   3.769   6.676   2.407 -0.7112 -0.3939 -0.0777
12583SOL     OW38604   7.828   0.207   1.133 -0.3677  0.1633  0.6833
12583SOL    HW138605   7.759   0.241   1.191  0.2318 -0.1920  1.6333
12583SOL    HW238606   7.868   0.136   1.183 -0.7169 -1.0749 -0.7356
12584SOL     OW38607   0.027   0.108   5.860  0.1745  0.1307 -0.4676
12584SOL    HW138608   0.072   0.087   5.779  0.1482  2.3379 -1.1148
12584SOL    HW238609  -0.066   0.102   5.837  0.1531 -0.5631 -0.2160
12585SOL     OW38610   6.806   6.153   5.577 -0.1297 -0.4848  0.2049
12585SOL    HW138611   6.898   6.125   5.568 -0.1908 -0.2006 -1.7433
12585SOL    HW238612   6.766   6.129   5.494 -1.5100  0.5663  0.5406
12586SOL     OW38613   5.510   3.843   6.294  0.0842  0.6690  0.3566
12586SOL    HW138614   5.428   3.846   6.344 -0.7373 -0.5631 -0.8618
12586SOL    HW238615   5.559   3.919   6.326 -0.6145  0.2596  2.6402
12587SOL     OW38616   2.927   6.505   2.882 -0.1116 -0.3457 -0.1373
12587SOL    HW138617   2.968   6.591   2.874  0.7417 -0.7017  0.3615
12587SOL    HW238618   2.941   6.463   2.796 -1.0796  0.2354 -0.5970
12588SOL     OW38619   0.191   7.516   0.527  0.0115  0.0737 -0.2726
12588SOL    HW138620   0.139   7.481   0.599  2.1812 -1.6784  0.5591
12588SOL    HW238621   0.136   7.506   0.450 -0.6498 -2.4514  0.4283
12589SOL     OW38622   6.351   3.151   0.901  0.1579 -0.5789  0.2648
12589SOL    HW138623   6.281   3.090   0.925 -1.6130  1.2775  0.0951
12589SOL    HW238624   6.314   3.238   0.916  1.7452  0.5373 -1.6624
12590SOL     OW38625   3.933   2.104   3.860 -0.3258  0.0541 -0.2039
12590SOL    HW138626   3.879   2.041   3.811 -1.7083  1.1881 -0.1932
12590SOL    HW238627   3.944   2.064   3.946 -0.0895 -0.7555 -0.5948
12591SOL     OW38628   0.370   4.923   1.684 -0.5479 -0.2478 -0.2874
12591SOL    HW138629   0.364   5.014   1.715  0.0813  0.6588 -2.5790
12591SOL    HW238630   0.427   4.928   1.607 -1.5454 -2.3783 -1.2473
12592SOL     OW38631   5.827   7.428   4.895  0.0760 -0.3719 -0.5472
12592SOL    HW138632   5.803   7.345   4.936  2.0694 -0.7609 -0.0801
12592SOL    HW238633   5.915   7.414   4.861  1.1992  2.0537  1.0643
12593SOL     OW38634   3.680   2.480   7.181 -0.0072  0.2427  0.0415
12593SOL    HW138635   3.654   2.394   7.148 -0.3907 -0.7918  2.7987
12593SOL    HW238636   3.736   2.462   7.256  0.5810  2.4384  0.2141
12594SOL     OW38637   5.427   3.572   4.076 -0.2062  0.3275 -0.4765
12594SOL    HW138638   5.343   3.595   4.035 -0.3128  1.6450  0.4190
12594SOL    HW238639   5.489   3.636   4.042  0.3441 -0.3658 -0.7891
12595SOL     OW38640   0.700   3.953   0.372 -0.9693 -0.2452  0.1187
12595SOL    HW138641   0.618   3.906   0.357 -2.2598  1.5135  1.2460
12595SOL    HW238642   0.709   4.010   0.295 -1.2865  0.1802  0.3893
12596SOL     OW38643   3.565   2.445   2.449 -0.2830 -0.9279 -0.4037
12596SOL    HW138644   3.607   2.361   2.433  2.2569 -0.2454  1.7798
12596SOL    HW238645   3.519   2.433   2.532 -0.4848 -0.3804 -0.4336
12597SOL     OW38646   5.732   3.321   2.744  0.5333 -0.8731 -0.0023
12597SOL    HW138647   5.780   3.398   2.772 -1.4246 -0.0065  1.1421
12597SOL    HW238648   5.799   3.253   2.735  1.9534  0.2439  1.5948
12598SOL     OW38649   0.082   1.257   0.357 -0.2438 -0.0308  0.4652
12598SOL    HW138650   0.021   1.192   0.321 -1.5620  1.7627 -0.7235
12598SOL    HW238651   0.026   1.327   0.390  1.1524  1.4236 -0.1264
12599SOL     OW38652   3.754   7.421   4.256 -0.0262  0.8426 -0.0030
12599SOL    HW138653   3.761   7.364   4.180  2.2684  0.9006  0.0974
12599SOL    HW238654   3.679   7.387   4.305 -0.0107 -0.7445 -1.0305
12600SOL     OW38655   6.604   2.466   1.879 -0.2082  0.3800  0.0386
12600SOL    HW138656   6.606   2.394   1.942  1.5563  2.3478  2.4200
12600SOL    HW238657   6.516   2.502   1.885 -0.8327 -0.9758 -0.5440
12601SOL     OW38658   4.200   4.905   1.492  0.0663  0.2828  0.6994
12601SOL    HW138659   4.110   4.885   1.466  0.5541 -0.8122 -0.2043
12601SOL    HW238660   4.196   4.911   1.588 -0.8036 -0.6209  0.7393
12602SOL     OW38661   7.677   5.762   7.026  0.0065 -0.7032 -0.3120
12602SOL    HW138662   7.644   5.672   7.028 -0.1788 -0.6394  1.5289
12602SOL    HW238663   7.769   5.755   7.054  0.7709 -0.5474 -2.5471
12603SOL     OW38664   4.044   3.794   6.438 -0.9184 -0.3158 -0.3919
12603SOL    HW138665   4.048   3.887   6.417 -0.0383  0.0475  1.1965
12603SOL    HW238666   3.951   3.772   6.435 -0.9555 -0.0628 -3.3350
12604SOL     OW38667   1.285   7.695   5.845 -0.0918 -0.0926 -0.2992
12604SOL    HW138668   1.299   7.779   5.800 -0.0025 -0.4539 -0.9624
12604SOL    HW238669   1.196   7.669   5.819 -0.5367  0.3059  0.7668
12605SOL     OW38670   5.027   4.301   5.540  0.0412  0.0756  0.3118
12605SOL    HW138671   5.047   4.259   5.456 -1.6831  1.0850 -0.6618
12605SOL    HW238672   5.005   4.228   5.598 -0.0915 -0.5635 -0.5160
12606SOL     OW38673   3.663   7.026   7.155  0.1057  0.1205 -0.3239
12606SOL    HW138674   3.583   6.994   7.196  0.6751  0.4249  1.0866
12606SOL    HW238675   3.701   6.949   7.112 -0.2337 -0.3284  0.1688
12607SOL     OW38676   2.384   6.462   2.718  0.1477  0.0621 -0.2314
12607SOL    HW138677   2.357   6.551   2.697  0.8285 -0.2785 -2.8035
12607SOL    HW238678   2.392   6.462   2.814 -0.3326  2.5935 -0.1165
12608SOL     OW38679   7.459   5.224   2.684 -0.2023  0.9203  0.1871
12608SOL    HW138680   7.373   5.205   2.721 -0.4071  1.1254 -0.1750
12608SOL    HW238681   7.495   5.139   2.661  0.1924  0.7320  1.4175
12609SOL     OW38682   6.540   3.031   4.404  0.0189  0.4449 -0.1915
12609SOL    HW138683   6.556   3.023   4.498  0.0400  0.1300 -0.2204
12609SOL    HW238684   6.587   2.957   4.365  1.3068  1.4518 -0.6011
12610SOL     OW38685   5.226   0.276   7.432 -0.1238 -0.4755 -0.1166
12610SOL    HW138686   5.190   0.346   7.486  1.6934 -0.3959  1.0598
12610SOL    HW238687   5.181   0.197   7.461 -0.8613 -0.0789 -0.1634
12611SOL     OW38688   6.553   6.916   1.946 -0.1306 -0.6173 -0.2134
12611SOL    HW138689   6.488   6.961   1.999 -2.3768 -3.4891 -0.2804
12611SOL    HW238690   6.548   6.959   1.860 -1.6990 -0.4916 -0.0892
12612SOL     OW38691   5.951   4.668   7.421  0.1823 -0.2044  0.1010
12612SOL    HW138692   5.893   4.595   7.443  0.6148 -0.0654  1.8462
12612SOL    HW238693   6.031   4.626   7.390 -0.3985 -0.4117 -1.1818
12613SOL     OW38694   1.494   2.112   1.731  0.1586 -0.4133 -0.5885
12613SOL    HW138695   1.486   2.028   1.777 -2.2037  1.3114  2.5670
12613SOL    HW238696   1.407   2.130   1.698  0.4808  1.0463 -0.6991
12614SOL     OW38697   2.383   6.755   1.510 -0.4932 -0.0730 -0.0838
12614SOL    HW138698   2.350   6.800   1.588  0.4507 -1.0478  0.9269
12614SOL    HW238699   2.378   6.819   1.440  0.2190  1.3873  1.1580
12615SOL     OW38700   0.427   7.403   0.388 -0.1131  0.2743  0.3418
12615SOL    HW138701   0.346   7.448   0.415  0.1535  0.3202  1.0751
12615SOL    HW238702   0.416   7.390   0.294 -0.5188  1.2200  0.2449
12616SOL     OW38703   2.543   0.514   1.642  0.4656 -0.1306  0.2509
12616SOL    HW138704   2.504   0.455   1.577  2.7331 -4.9949  2.8462
12616SOL    HW238705   2.468   0.562   1.678 -1.7334 -2.0880 -1.4095
12617SOL     OW38706   7.162   3.282   3.647 -0.0631 -0.0356 -0.1146
12617SOL    HW138707   7.247   3.291   3.691 -0.0226  2.0604 -0.5360
12617SOL    HW238708   7.113   3.222   3.703  1.3001 -0.4017  0.7490
12618SOL     OW38709   4.264   5.884   3.176 -0.1541  0.1496  0.2701
12618SOL    HW138710   4.346   5.866   3.222  1.0028  2.0988 -0.8768
12618SOL    HW238711   4.287   5.875   3.083 -1.3759  0.3050 -0.0606
12619SOL     OW38712   3.929   0.220   5.227  0.2405  0.1498 -0.4257
12619SOL    HW138713   3.953   0.295   5.172 -0.5925  1.2357  0.6111
12619SOL    HW238714   3.836   0.233   5.245  0.1523 -1.0000 -0.0008
12620SOL     OW38715   0.782   7.364   4.027 -0.1978  0.1557 -0.7964
12620SOL    HW138716   0.699   7.395   3.992 -1.0591 -0.6616  0.4184
12620SOL    HW238717   0.798   7.420   4.103  0.4863  0.4520 -1.1491
12621SOL     OW38718   3.417   1.341   4.225  0.1814 -0.0277 -0.3914
12621SOL    HW138719   3.429   1.393   4.304 -0.5661  0.7193 -0.7568
12621SOL    HW238720   3.442   1.400   4.154  1.3943 -0.8637 -0.7097
12622SOL     OW38721   6.766   5.019   4.014 -0.8670 -0.2646 -0.1533
12622SOL    HW138722   6.737   5.072   4.089  0.1133 -0.9249  0.7210
12622SOL    HW238723   6.812   5.081   3.957  0.2700 -0.1301  0.8619
12623SOL     OW38724   5.141   2.054   2.742  0.6176 -0.3960  0.1752
12623SOL    HW138725   5.162   1.964   2.768  1.2362  0.0185  1.1896
12623SOL    HW238726   5.046   2.058   2.743  0.5979 -0.8815  0.7145
12624SOL     OW38727   1.030   3.100   4.844  0.0812  0.8766  0.5008
12624SOL    HW138728   0.975   3.023   4.862 -0.0776  0.9991  0.5393
12624SOL    HW238729   1.017   3.117   4.750  1.0156  0.1537  0.2204
12625SOL     OW38730   4.654   5.406   3.786 -0.2979 -0.4819 -0.0366
12625SOL    HW138731   4.654   5.311   3.798  2.8056 -0.4029  1.4559
12625SOL    HW238732   4.735   5.425   3.739 -0.8390  1.4420 -0.2822
12626SOL     OW38733   6.504   2.077   7.935  0.5232 -0.0238 -0.1771
12626SOL    HW138734   6.470   1.992   7.906  0.3984 -0.0890  0.1555
12626SOL    HW238735   6.504   2.071   8.030 -0.4908  0.7462 -0.1212
12627SOL     OW38736   5.492   5.341   6.981 -0.4956 -0.3984  0.0933
12627SOL    HW138737   5.530   5.261   6.945 -0.1034 -1.2782  2.2942
12627SOL    HW238738   5.550   5.366   7.053 -0.7669  1.7474 -0.3465
12628SOL     OW38739   0.293   2.425   4.239  0.0245  0.7519 -0.2585
12628SOL    HW138740   0.355   2.367   4.193  0.7270  0.7132  0.7143
12628SOL    HW238741   0.207   2.389   4.217  0.4621 -1.2151  0.9920
12629SOL     OW38742   7.917   4.190   3.423  0.6017 -1.0351  0.6222
12629SOL    HW138743   7.902   4.139   3.344  0.6645 -2.0554  1.2527
12629SOL    HW238744   7.939   4.125   3.490 -0.5859 -0.3163  1.7648
12630SOL     OW38745   7.952   2.489   0.014 -0.0281  0.1531  0.3358
12630SOL    HW138746   7.870   2.445   0.035 -0.4608  1.4330  1.3986
12630SOL    HW238747   8.019   2.435   0.057 -0.3670 -0.4781  0.0867
12631SOL     OW38748   1.509   7.830   4.010  0.3681  0.5150 -0.1858
12631SOL    HW138749   1.465   7.772   3.948  1.5720  0.8582 -1.4095
12631SOL    HW238750   1.463   7.816   4.093  0.1397 -1.6506 -0.6106
12632SOL     OW38751   0.815   4.495   0.691  0.2807 -0.1199  0.0268
12632SOL    HW138752   0.734   4.461   0.728  0.6056 -0.0213  0.8482
12632SOL    HW238753   0.881   4.429   0.713  0.7223  0.5511  0.7685
12633SOL     OW38754   0.020   6.821   6.889  0.0424  0.1698  0.2385
12633SOL    HW138755   0.087   6.755   6.907 -0.1156 -0.1435 -0.2907
12633SOL    HW238756   0.058   6.874   6.818 -1.0315 -1.2054 -1.4504
12634SOL     OW38757   6.167   6.490   7.814  0.0911  0.4482  0.2739
12634SOL    HW138758   6.243   6.487   7.755  0.2627 -0.5087  0.5265
12634SOL    HW238759   6.202   6.521   7.897 -0.0358  1.1863  0.0662
12635SOL     OW38760   5.612   7.305   2.762  0.3381 -0.0596  0.2009
12635SOL    HW138761   5.619   7.347   2.676 -0.7865  1.0798  0.6257
12635SOL    HW238762   5.583   7.216   2.743 -0.6989  0.4212 -0.5984
12636SOL     OW38763   0.571   4.009   5.924  0.3536 -0.6874 -0.2363
12636SOL    HW138764   0.544   4.007   5.832 -1.0526 -1.9580  0.1630
12636SOL    HW238765   0.610   4.096   5.936 -1.6282  0.4309 -1.4242
12637SOL     OW38766   4.653   6.790   0.476 -0.6808 -0.3910 -0.5226
12637SOL    HW138767   4.640   6.840   0.556  2.0925 -0.7745  0.2875
12637SOL    HW238768   4.587   6.722   0.478 -1.4534  0.3691  0.7920
12638SOL     OW38769   7.416   4.066   1.480  0.2232  0.0446 -0.0136
12638SOL    HW138770   7.510   4.076   1.489  0.2084  1.1442 -0.8607
12638SOL    HW238771   7.380   4.099   1.563  0.5238  0.9113 -0.2236
12639SOL     OW38772   6.594   6.749   0.542 -0.0783 -0.5065 -0.6237
12639SOL    HW138773   6.580   6.827   0.489  1.7051  0.8378  0.7805
12639SOL    HW238774   6.514   6.698   0.532 -1.0469  1.2096 -2.0363
12640SOL     OW38775   5.007   2.684   4.858  0.4106 -0.3560  0.3938
12640SOL    HW138776   5.079   2.637   4.900  0.2756  0.0449  1.0984
12640SOL    HW238777   5.036   2.697   4.768  1.4462  0.2575  0.7997
12641SOL     OW38778   1.028   3.098   1.886  0.1222  0.4502 -0.4195
12641SOL    HW138779   0.986   3.072   1.804  0.3217  2.0589 -1.0837
12641SOL    HW238780   0.964   3.154   1.929  1.2524  2.3959 -1.1355
12642SOL     OW38781   6.647   1.986   2.608  0.0141  0.1455 -0.0928
12642SOL    HW138782   6.741   1.998   2.613  0.0063  0.0348  0.5051
12642SOL    HW238783   6.628   1.920   2.676 -0.5917  0.8005  0.3955
12643SOL     OW38784   3.606   3.541   5.923  0.1031  0.1366 -0.1666
12643SOL    HW138785   3.676   3.604   5.938  0.2946 -0.2138  0.4721
12643SOL    HW238786   3.643   3.477   5.863  0.1147  0.3010 -0.3337
12644SOL     OW38787   1.202   5.175   2.758 -0.0041  0.2249 -0.5406
12644SOL    HW138788   1.189   5.091   2.714  0.3797  0.8952 -1.9914
12644SOL    HW238789   1.252   5.153   2.837  0.3568 -0.8791 -1.0554
12645SOL     OW38790   7.729   1.379   5.272 -0.0556  0.0604  0.1405
12645SOL    HW138791   7.756   1.450   5.329 -0.5219  1.9479 -1.8283
12645SOL    HW238792   7.689   1.315   5.330 -1.3048  2.2562  1.8551
12646SOL     OW38793   7.857   6.371   4.339  0.0490 -0.0501  0.1155
12646SOL    HW138794   7.908   6.290   4.346 -0.5521 -0.4582 -0.1520
12646SOL    HW238795   7.784   6.348   4.282 -1.6709 -0.1148  2.2450
12647SOL     OW38796   0.014   0.878   0.159  0.0507  0.0129 -0.0090
12647SOL    HW138797  -0.075   0.903   0.134 -1.1172 -1.2371  2.5505
12647SOL    HW238798   0.035   0.935   0.233  1.5942  0.5806 -0.8344
12648SOL     OW38799   0.634   5.869   4.008  0.5190 -0.0566 -0.9135
12648SOL    HW138800   0.625   5.838   3.918  0.3172  1.9163 -1.6294
12648SOL    HW238801   0.726   5.895   4.015  0.4895 -0.0324 -0.5949
12649SOL     OW38802   2.169   6.064   4.050  0.9774 -0.1289 -0.1067
12649SOL    HW138803   2.150   6.151   4.014  0.0663 -0.5865 -0.7512
12649SOL    HW238804   2.262   6.051   4.031  0.9525  0.4096 -0.6484
12650SOL     OW38805   1.806   7.396   4.921 -0.5021 -0.6302  0.0967
12650SOL    HW138806   1.735   7.338   4.894  0.6877 -1.8713 -0.4987
12650SOL    HW238807   1.877   7.377   4.859  0.7347 -0.2446  1.3460
12651SOL     OW38808   1.783   6.894   4.304 -0.5093  0.2711 -0.2137
12651SOL    HW138809   1.792   6.981   4.342 -0.6591  0.5940 -0.9007
12651SOL    HW238810   1.840   6.838   4.357  1.6800  1.2835 -1.4109
12652SOL     OW38811   1.571   0.246   6.706 -0.5399 -0.3923 -0.1910
12652SOL    HW138812   1.479   0.221   6.703 -0.3734 -0.9743 -0.6365
12652SOL    HW238813   1.570   0.340   6.723 -1.1944 -0.7277  1.9201
12653SOL     OW38814   6.764   6.082   1.767 -0.6935  0.0468  0.6627
12653SOL    HW138815   6.827   6.145   1.732 -1.7147  0.3024 -0.7635
12653SOL    HW238816   6.725   6.127   1.842  0.3221  0.1342  1.1655
12654SOL     OW38817   6.429   5.022   4.938  0.1112  0.2708 -0.2649
12654SOL    HW138818   6.341   4.983   4.934  0.2784  0.0125 -2.6711
12654SOL    HW238819   6.420   5.106   4.894  0.4684  1.6967  2.1661
12655SOL     OW38820   1.090   7.128   5.978  0.5037 -0.1774  0.3693
12655SOL    HW138821   1.183   7.108   5.991  0.5488  0.1112  0.5008
12655SOL    HW238822   1.088   7.222   5.960  0.2558 -0.2205  0.1604
12656SOL     OW38823   4.035   0.006   7.306 -0.7173 -0.6244 -0.1241
12656SOL    HW138824   4.088   0.086   7.310 -0.2408 -0.9745  1.4049
12656SOL    HW238825   4.091  -0.061   7.345 -1.6650 -1.3886 -0.0408
12657SOL     OW38826   3.203   4.401   7.329  0.0474  0.1069  0.5530
12657SOL    HW138827   3.155   4.381   7.409 -1.0135 -0.7603 -0.2701
12657SOL    HW238828   3.209   4.496   7.327 -0.3574  0.1552  1.4087
12658SOL     OW38829   2.370   6.465   1.389  0.4253  0.5413 -0.3989
12658SOL    HW138830   2.366   6.557   1.414  1.8327  0.1528  1.5110
12658SOL    HW238831   2.461   6.450   1.366  0.5985 -0.7215  0.9638
12659SOL     OW38832   3.175   6.348   4.638 -0.0061 -0.4990  0.7349
12659SOL    HW138833   3.164   6.374   4.547  2.5723 -0.3035  0.4258
12659SOL    HW238834   3.141   6.259   4.642  2.4615 -1.6435 -1.1717
12660SOL     OW38835   4.295   5.405   0.640  0.0135 -0.0809  0.3099
12660SOL    HW138836   4.248   5.359   0.571  1.0339  0.4443 -0.7642
12660SOL    HW238837   4.290   5.497   0.615 -0.1366  0.1840  1.2790
12661SOL     OW38838   6.419   4.745   6.505 -0.0319  0.4429 -0.3792
12661SOL    HW138839   6.451   4.835   6.500  0.0060  0.5495  1.3432
12661SOL    HW238840   6.468   4.698   6.437  1.5840  1.2301  0.2031
12662SOL     OW38841   1.912   0.505   0.292 -0.1659  0.1232 -0.2536
12662SOL    HW138842   1.865   0.423   0.279  0.1524  0.1109 -1.4848
12662SOL    HW238843   2.002   0.478   0.311  0.4997  0.1240 -2.9112
12663SOL     OW38844   5.242   7.523   7.984 -0.5118 -0.2072  0.3980
12663SOL    HW138845   5.262   7.438   7.945 -0.0329 -0.0526  0.2963
12663SOL    HW238846   5.323   7.548   8.030 -0.6845  0.1453  0.5148
12664SOL     OW38847   1.668   1.270   2.382  0.0710 -0.1299 -0.1487
12664SOL    HW138848   1.723   1.347   2.391 -1.1537  0.5389  2.3340
12664SOL    HW238849   1.642   1.270   2.290  0.7386  1.9442 -0.3869
12665SOL     OW38850   0.380   7.582   0.720 -0.4608 -0.3155 -0.3132
12665SOL    HW138851   0.303   7.555   0.670 -1.3014 -0.2154  0.8856
12665SOL    HW238852   0.440   7.617   0.654 -1.4273 -0.4040 -1.2709
12666SOL     OW38853   0.601   4.354   7.373  0.3026 -0.6216 -0.1981
12666SOL    HW138854   0.652   4.273   7.368 -0.1077 -0.8299 -1.2894
12666SOL    HW238855   0.610   4.393   7.285 -0.8954 -0.3478 -0.2153
12667SOL     OW38856   1.734   4.607   3.162  0.2828 -0.4439 -0.5292
12667SOL    HW138857   1.782   4.685   3.190  2.8983 -1.5949 -1.4413
12667SOL    HW238858   1.727   4.617   3.067  0.0152 -0.9970 -0.5709
12668SOL     OW38859   0.550   2.124   1.219 -0.2622 -0.5663  0.0289
12668SOL    HW138860   0.481   2.174   1.262 -1.2140 -2.4075  0.7796
12668SOL    HW238861   0.513   2.100   1.134  0.4137  0.4498 -0.5703
12669SOL     OW38862   7.026   6.198   5.855 -0.2055  0.1215 -0.4454
12669SOL    HW138863   6.984   6.235   5.778  1.0891  0.9876 -0.7702
12669SOL    HW238864   6.985   6.243   5.929  0.1935  1.0251 -0.7572
12670SOL     OW38865   7.244   0.910   5.743 -0.7131  0.3356 -0.3373
12670SOL    HW138866   7.202   0.840   5.693  1.1009 -0.7890 -0.3673
12670SOL    HW238867   7.178   0.936   5.808 -1.8737 -0.5229 -1.1360
12671SOL     OW38868   6.915   0.710   7.175 -0.2762  0.3939  0.3820
12671SOL    HW138869   6.998   0.750   7.149  1.9268 -1.8327  3.2951
12671SOL    HW238870   6.915   0.624   7.133 -0.5282 -0.0486  1.2534
12672SOL     OW38871   1.839   5.595   0.827  0.5034 -0.0046 -0.0214
12672SOL    HW138872   1.931   5.590   0.856  1.0497 -2.2350 -1.7576
12672SOL    HW238873   1.790   5.550   0.896  1.2375 -1.7605 -0.5669
12673SOL     OW38874   3.949   6.313   2.509  0.0347 -0.3514 -0.1266
12673SOL    HW138875   3.942   6.387   2.569  0.3251 -0.5051  0.0998
12673SOL    HW238876   4.021   6.336   2.450 -0.6693  0.0880 -0.8318
12674SOL     OW38877   1.466   1.715   0.238 -0.2448 -0.0459  0.0512
12674SOL    HW138878   1.534   1.783   0.236  0.1845 -0.2296  3.2071
12674SOL    HW238879   1.401   1.744   0.173  1.8141  1.2168 -1.5605
12675SOL     OW38880   6.133   5.283   1.441  0.0639 -0.0156  0.3433
12675SOL    HW138881   6.113   5.346   1.371  0.7301  1.0915  1.1094
12675SOL    HW238882   6.228   5.270   1.434  0.0601 -0.2485  0.7490
12676SOL     OW38883   3.564   1.470   1.023 -0.2077 -0.1971  0.5056
12676SOL    HW138884   3.512   1.420   1.086  1.2145 -2.5582 -0.0476
12676SOL    HW238885   3.500   1.502   0.959 -1.2838 -0.6503  1.3243
12677SOL     OW38886   4.112   0.443   2.693 -0.2001  0.3570  0.5218
12677SOL    HW138887   4.146   0.487   2.771 -1.9982  0.1313  1.4885
12677SOL    HW238888   4.017   0.447   2.702 -0.4515 -0.6995 -1.1013
12678SOL     OW38889   4.933   5.150   0.796  0.3294  0.2408 -0.1828
12678SOL    HW138890   4.987   5.215   0.752  1.9465 -0.0026  1.3232
12678SOL    HW238891   4.863   5.201   0.838  0.7410  0.8397 -0.2188
12679SOL     OW38892   3.113   5.593   0.883  0.0137  0.0744 -0.0950
12679SOL    HW138893   3.026   5.595   0.842 -0.3253  0.8386  0.6523
12679SOL    HW238894   3.104   5.530   0.954  0.0605  0.1885  0.0112
12680SOL     OW38895   6.287   2.982   4.355 -0.0384  0.0421  0.6132
12680SOL    HW138896   6.376   2.998   4.384 -0.1954 -0.3307  1.3295
12680SOL    HW238897   6.271   2.890   4.374  0.4405 -0.7483 -2.2951
12681SOL     OW38898   0.903   2.496   4.851  0.7858 -0.9171  0.0992
12681SOL    HW138899   0.937   2.439   4.921 -0.5837 -1.5542  0.2644
12681SOL    HW238900   0.852   2.562   4.897  1.1623 -0.3996 -0.2078
12682SOL     OW38901   3.973   3.655   7.412  0.4037  0.1139  0.5452
12682SOL    HW138902   4.055   3.698   7.391 -0.7143  2.6822  1.1155
12682SOL    HW238903   3.955   3.677   7.503 -0.6333 -0.9166  0.6294
12683SOL     OW38904   5.212   7.072   6.812 -0.0665  0.6782 -0.0161
12683SOL    HW138905   5.221   7.039   6.723 -0.5996  0.2641  0.0785
12683SOL    HW238906   5.254   7.006   6.867 -1.3168  0.0348  0.1925
12684SOL     OW38907   2.641   0.205   1.608 -0.2240 -0.2214  0.3665
12684SOL    HW138908   2.638   0.208   1.512 -0.9036 -0.8452  0.3606
12684SOL    HW238909   2.701   0.276   1.632 -1.4436  1.1488 -0.4345
12685SOL     OW38910   3.599   6.056   6.085 -0.0098  0.3230  0.8645
12685SOL    HW138911   3.687   6.035   6.116  1.0880  0.3062 -1.9452
12685SOL    HW238912   3.611   6.134   6.031 -1.5329 -0.2300 -0.3400
12686SOL     OW38913   6.095   6.542   1.779  0.0887 -0.3113 -0.0156
12686SOL    HW138914   6.060   6.454   1.764 -0.3027 -0.1369 -0.1347
12686SOL    HW238915   6.143   6.563   1.698  0.0401 -0.3447 -0.0530
12687SOL     OW38916   4.283   1.452   6.392 -0.7471  0.0996 -0.0160
12687SOL    HW138917   4.298   1.359   6.410 -1.4387 -0.2948 -1.3518
12687SOL    HW238918   4.269   1.490   6.479  0.6626 -0.8092  0.6542
12688SOL     OW38919   2.779   0.407   0.416 -0.1789  0.5170 -0.1080
12688SOL    HW138920   2.824   0.387   0.498 -0.9962 -1.7055 -0.1334
12688SOL    HW238921   2.813   0.343   0.354 -0.9944  0.9046 -0.9768
12689SOL     OW38922   5.818   5.747   5.254 -0.2528 -0.4360  0.1706
12689SOL    HW138923   5.786   5.834   5.230 -0.9047 -0.6551  0.2198
12689SOL    HW238924   5.773   5.726   5.336  1.8751  0.2570  1.5983
12690SOL     OW38925   0.293   1.874   7.010  0.0466 -0.1656 -0.1036
12690SOL    HW138926   0.300   1.904   6.919 -1.7727 -0.1718 -0.2732
12690SOL    HW238927   0.248   1.790   7.004 -0.1581 -0.1295  0.8082
12691SOL     OW38928   0.593   0.167   4.523  0.5629 -0.1232  0.6818
12691SOL    HW138929   0.668   0.226   4.519  0.7073 -0.3312 -3.6216
12691SOL    HW238930   0.517   0.225   4.527  0.8126  0.2467  0.1388
12692SOL     OW38931   5.389   1.019   3.403 -0.2988 -0.0272 -0.0972
12692SOL    HW138932   5.450   1.002   3.332 -1.2748 -2.7017 -0.4257
12692SOL    HW238933   5.303   1.021   3.361 -0.8036 -0.6767  0.8606
12693SOL     OW38934   2.624   7.199   7.623 -0.0239  0.6524  0.6523
12693SOL    HW138935   2.535   7.230   7.607  0.0511  1.5886  1.9126
12693SOL    HW238936   2.676   7.278   7.633  0.7728  0.1171  0.8525
12694SOL     OW38937   1.079   1.920   5.412  0.2021  0.1213 -0.3483
12694SOL    HW138938   0.996   1.960   5.438 -0.0918 -1.0275  0.5489
12694SOL    HW238939   1.114   1.979   5.344 -1.0288  0.9527 -0.2872
12695SOL     OW38940   6.789   4.767   0.722 -0.6680 -0.6680  0.0003
12695SOL    HW138941   6.847   4.793   0.794  1.5088 -1.7210 -1.2519
12695SOL    HW238942   6.717   4.720   0.764 -0.1710 -0.0712  1.5792
12696SOL     OW38943   5.351   2.488   3.958  0.3561  0.2269  0.0341
12696SOL    HW138944   5.445   2.484   3.940  0.3182  0.2871 -0.1876
12696SOL    HW238945   5.314   2.418   3.904  0.3794 -0.4352  0.8593
12697SOL     OW38946   4.284   2.802   4.477 -0.5089  0.3931  0.3203
12697SOL    HW138947   4.340   2.739   4.522 -0.1623 -0.3382 -1.0697
12697SOL    HW238948   4.344   2.852   4.422 -1.2079 -0.7108 -1.5473
12698SOL     OW38949   7.291   5.217   6.806  0.4077  0.3605  0.2178
12698SOL    HW138950   7.297   5.227   6.901  1.6669  0.5679  0.1285
12698SOL    HW238951   7.319   5.127   6.789 -0.5903  0.0593  0.0970
12699SOL     OW38952   5.404   3.121   6.100  0.0351 -0.0371  0.4672
12699SOL    HW138953   5.463   3.047   6.116  0.9937  0.7003  0.4786
12699SOL    HW238954   5.339   3.087   6.039  0.3146 -0.9543  0.6625
12700SOL     OW38955   6.679   4.674   4.332  0.5754 -0.1550 -0.1635
12700SOL    HW138956   6.619   4.749   4.329  1.0324  0.2623  0.6402
12700SOL    HW238957   6.624   4.600   4.359  0.0798 -0.1578 -1.1678
12701SOL     OW38958   0.994   4.327   0.795  0.6097  0.1677  0.1080
12701SOL    HW138959   0.934   4.255   0.815  0.8582 -0.1590 -0.3307
12701SOL    HW238960   1.081   4.290   0.807  0.7502  0.1905 -0.8262
12702SOL     OW38961   5.091   5.667   6.225 -0.2303 -0.3554 -0.2201
12702SOL    HW138962   5.008   5.712   6.211 -0.1702 -0.4509 -0.9061
12702SOL    HW238963   5.083   5.586   6.174  0.8274  0.2836 -1.4635
12703SOL     OW38964   5.905   3.906   4.874 -0.3701  0.0152  0.5443
12703SOL    HW138965   5.876   3.959   4.800  0.3103 -0.1607  0.1419
12703SOL    HW238966   6.000   3.919   4.877 -0.2831 -0.6563  0.8521
12704SOL     OW38967   0.020   2.203   1.208 -1.1253  0.6247  0.5716
12704SOL    HW138968  -0.023   2.127   1.248 -1.9204  1.3395  1.1221
12704SOL    HW238969   0.046   2.173   1.121 -0.9669 -0.4255  0.9655
12705SOL     OW38970   4.269   0.030   6.216 -0.0378 -0.1618  0.4558
12705SOL    HW138971   4.287   0.123   6.205  1.1923 -0.3936  0.3744
12705SOL    HW238972   4.335  -0.014   6.163 -0.5720 -1.0919  0.5305
12706SOL     OW38973   2.969   0.128   1.223 -0.4361  0.2831  0.0444
12706SOL    HW138974   2.916   0.128   1.303 -1.6406  0.5819 -0.7328
12706SOL    HW238975   2.919   0.075   1.161 -1.1869  2.6472 -1.5374
12707SOL     OW38976   5.990   2.913   3.991 -0.0786 -0.4113  0.1468
12707SOL    HW138977   6.047   2.852   3.945  0.0331  0.1596 -0.4967
12707SOL    HW238978   5.932   2.947   3.923  0.4208  0.8334  0.3054
12708SOL     OW38979   5.339   5.602   6.998  0.3740 -0.2427  0.2171
12708SOL    HW138980   5.387   5.529   6.960  0.5053  0.1078 -0.3008
12708SOL    HW238981   5.295   5.644   6.924  1.3416  0.9721  0.3048
12709SOL     OW38982   3.852   2.462   5.196  0.0116 -0.2404 -0.0607
12709SOL    HW138983   3.828   2.554   5.210  1.0346 -0.0775  0.7434
12709SOL    HW238984   3.929   2.466   5.138 -1.3224 -0.7143 -1.9576
12710SOL     OW38985   2.378   0.798   0.984 -0.1811  0.1835  0.4552
12710SOL    HW138986   2.441   0.761   1.047 -1.0580 -2.5653 -0.1640
12710SOL    HW238987   2.390   0.747   0.904 -2.0626  0.7119 -0.2304
12711SOL     OW38988   1.344   2.182   5.916  0.1360  0.4085 -0.2179
12711SOL    HW138989   1.422   2.238   5.909  0.7324 -0.2801  0.6508
12711SOL    HW238990   1.310   2.178   5.827  1.4281  0.2664 -0.7411
12712SOL     OW38991   6.531   2.871   1.968 -0.3362 -0.0131  0.3160
12712SOL    HW138992   6.470   2.804   1.936  0.5869 -0.0985 -1.3448
12712SOL    HW238993   6.478   2.924   2.028 -2.2324  0.2748 -1.5116
12713SOL     OW38994   4.608   1.104   5.005 -0.2371 -0.3518 -0.4633
12713SOL    HW138995   4.658   1.174   4.963  0.6848 -0.6601  0.1015
12713SOL    HW238996   4.606   1.033   4.940 -2.1076  0.5433 -1.4833
12714SOL     OW38997   3.039   0.137   0.904 -0.1012 -0.0604  0.1012
12714SOL    HW138998   2.956   0.173   0.936  0.0841 -0.1958  0.7603
12714SOL    HW238999   3.103   0.206   0.923  0.2637 -0.7162  1.3997
12715SOL     OW39000   1.306   6.294   3.493  0.5841 -0.1584  0.2737
12715SOL    HW139001   1.339   6.227   3.433  1.8657 -1.0805  1.9351
12715SOL    HW239002   1.350   6.374   3.464  3.0284 -1.0317  1.3240
12716SOL     OW39003   0.920   3.022   0.935  0.4978 -0.2906 -0.0470
12716SOL    HW139004   0.846   3.021   0.875  0.1515 -0.9196  0.3756
12716SOL    HW239005   0.989   2.974   0.889  0.2379 -0.7616  0.0435
12717SOL     OW39006   6.942   4.857   1.177  0.6621 -0.2701  0.8912
12717SOL    HW139007   6.952   4.827   1.267 -0.7407 -2.8834  0.2864
12717SOL    HW239008   6.851   4.884   1.170  0.5905 -0.6778  0.1033
12718SOL     OW39009   2.806   6.810   5.986  0.4866 -0.1156 -0.2609
12718SOL    HW139010   2.764   6.725   5.999  0.9424 -0.3963 -0.5909
12718SOL    HW239011   2.860   6.823   6.064 -0.1764  0.2315  0.1495
12719SOL     OW39012   6.318   0.459   4.102  0.0179  0.0437  0.9958
12719SOL    HW139013   6.260   0.456   4.178  0.1029 -0.6221  1.0387
12719SOL    HW239014   6.328   0.553   4.084 -3.6478  0.2476 -0.9692
12720SOL     OW39015   6.390   1.437   1.957 -0.4086 -0.2681 -0.0847
12720SOL    HW139016   6.438   1.512   1.991  0.0959 -0.2136 -0.8802
12720SOL    HW239017   6.458   1.378   1.924 -0.8204 -0.8531  0.0983
12721SOL     OW39018   6.683   3.328   3.082 -0.1581 -0.0667 -0.2511
12721SOL    HW139019   6.706   3.360   2.995 -0.3202  0.3053 -0.1618
12721SOL    HW239020   6.747   3.369   3.140 -1.3428  1.4368  0.0710
12722SOL     OW39021   6.126   7.038   1.463  0.0756 -0.4408 -0.4718
12722SOL    HW139022   6.159   7.058   1.375  1.1747 -1.6158 -0.3452
12722SOL    HW239023   6.070   6.962   1.450 -1.3651  0.5757 -0.4324
12723SOL     OW39024   7.577   1.773   4.416 -0.0912 -0.2338 -0.4000
12723SOL    HW139025   7.545   1.747   4.330  0.3232 -2.4421  0.0427
12723SOL    HW239026   7.499   1.790   4.468 -0.3364  1.4332 -1.2645
12724SOL     OW39027   6.514   4.999   5.201  0.2276 -0.1971  0.4049
12724SOL    HW139028   6.423   5.001   5.232  0.4675 -1.0803  1.1978
12724SOL    HW239029   6.506   5.013   5.106 -0.6902  0.2884  0.5373
12725SOL     OW39030   0.399   1.972   5.383  0.5419  0.2693  0.5432
12725SOL    HW139031   0.393   2.061   5.347  0.2121 -0.5579 -1.5842
12725SOL    HW239032   0.315   1.957   5.425 -0.0294  0.4121 -0.5117
12726SOL     OW39033   4.950   3.498   1.631  0.5201  0.1550  0.5591
12726SOL    HW139034   4.997   3.568   1.585  0.4222 -0.5426 -0.6326
12726SOL    HW239035   5.016   3.432   1.649  0.3640 -0.0094  0.5351
12727SOL     OW39036   6.829   2.790   3.860 -0.3355  0.0744  0.3884
12727SOL    HW139037   6.846   2.725   3.929 -0.6243  0.3639  0.7380
12727SOL    HW239038   6.735   2.808   3.868 -0.1011  1.1643  0.8521
12728SOL     OW39039   1.090   7.744   0.576  0.1166  0.2093  0.1765
12728SOL    HW139040   1.005   7.751   0.532 -0.5558 -0.9716  1.2095
12728SOL    HW239041   1.094   7.819   0.635  1.0285  1.8087 -1.8168
12729SOL     OW39042   0.080   2.785   4.587 -0.1834 -0.9438 -0.3311
12729SOL    HW139043   0.096   2.693   4.608  1.0377 -0.5677  0.5354
12729SOL    HW239044   0.126   2.799   4.504  0.7577 -0.8154  0.1975
12730SOL     OW39045   2.081   4.488   0.080 -0.4348 -0.3142  0.1988
12730SOL    HW139046   2.068   4.416   0.017  1.2832  0.3132 -0.9583
12730SOL    HW239047   1.999   4.538   0.076 -1.5324 -1.9911  0.7765
12731SOL     OW39048   1.088   0.320   4.635 -0.0896 -0.5113 -0.2843
12731SOL    HW139049   1.150   0.252   4.663 -0.3887 -0.9048 -0.5574
12731SOL    HW239050   1.136   0.402   4.646 -0.1057 -0.6600  1.1473
12732SOL     OW39051   1.538   7.979   6.889 -0.4647  0.2713  0.1651
12732SOL    HW139052   1.482   8.038   6.941 -0.3749  0.6703 -0.1832
12732SOL    HW239053   1.602   7.946   6.952 -1.0813 -0.1769  0.5658
12733SOL     OW39054   6.519   4.132   5.927 -0.7616  0.0981  0.0380
12733SOL    HW139055   6.426   4.118   5.943 -0.6865 -1.5030 -0.6814
12733SOL    HW239056   6.536   4.084   5.845  0.5231  1.0488 -0.2722
12734SOL     OW39057   2.382   0.018   3.988 -0.4659 -0.3552  0.5393
12734SOL    HW139058   2.441  -0.022   4.052  0.8664  0.5607 -0.1008
12734SOL    HW239059   2.359  -0.054   3.929  0.7044 -0.5350  0.2863
12735SOL     OW39060   2.890   6.827   6.922  0.0550 -0.6458 -0.0141
12735SOL    HW139061   2.966   6.885   6.917  0.9093 -1.8034 -0.8072
12735SOL    HW239062   2.908   6.770   6.997  0.7599 -1.9556 -1.1319
12736SOL     OW39063   0.917   7.759   0.204 -0.2951 -0.0778  0.0598
12736SOL    HW139064   0.981   7.823   0.234  0.8417 -1.5803  0.9796
12736SOL    HW239065   0.962   7.675   0.210 -1.7332 -0.9953 -1.1043
12737SOL     OW39066   7.882   4.409   6.801 -0.0776  0.0721  0.0880
12737SOL    HW139067   7.928   4.403   6.717  1.4006 -0.0935  0.8788
12737SOL    HW239068   7.950   4.432   6.864 -0.9158 -0.9983  1.4425
12738SOL     OW39069   3.379   4.790   1.231  0.1938 -0.5932 -0.5045
12738SOL    HW139070   3.361   4.697   1.218  1.8067 -1.3689  2.1955
12738SOL    HW239071   3.304   4.822   1.282 -0.2097 -0.4290 -1.1753
12739SOL     OW39072   7.671   2.032   2.572  0.2083 -0.2666 -0.3320
12739SOL    HW139073   7.598   2.089   2.595  0.8675  0.8189 -0.8245
12739SOL    HW239074   7.676   1.970   2.644  0.9563  1.7984  1.5316
12740SOL     OW39075   6.704   4.042   0.566  0.2285  0.0157  0.2959
12740SOL    HW139076   6.651   4.074   0.639  2.5182 -0.2069  2.1588
12740SOL    HW239077   6.749   3.965   0.601  1.3989 -0.1052 -1.3700
12741SOL     OW39078   7.955   0.080   7.999  0.0054  0.0422 -0.5272
12741SOL    HW139079   7.876   0.108   7.953 -1.2920  1.0310  2.0748
12741SOL    HW239080   7.929   0.002   8.048  0.9809 -0.3175 -0.5543
12742SOL     OW39081   5.056   0.776   1.814 -0.2486  0.1144 -0.3811
12742SOL    HW139082   5.081   0.788   1.906 -0.4560 -0.2054 -0.2782
12742SOL    HW239083   5.136   0.794   1.765 -0.6090  2.1912 -0.2738
12743SOL     OW39084   5.264   6.149   5.418 -0.0071  0.8558 -0.2756
12743SOL    HW139085   5.294   6.236   5.390  2.8111 -0.7579 -3.0438
12743SOL    HW239086   5.345   6.103   5.442 -1.5255 -0.7350  2.1382
12744SOL     OW39087   7.901   5.377   4.015 -0.0027  0.0947 -0.1114
12744SOL    HW139088   7.950   5.333   3.946  0.7880  2.1379 -0.9326
12744SOL    HW239089   7.921   5.470   4.004 -0.6164  0.5973  2.2790
12745SOL     OW39090   2.975   5.124   3.384  0.0891 -0.1281 -0.0035
12745SOL    HW139091   2.994   5.172   3.303 -1.1171  0.8711  0.2826
12745SOL    HW239092   3.002   5.183   3.454 -0.9656 -0.0427  0.3458
12746SOL     OW39093   6.108   4.960   3.831  0.2199 -0.5348  0.1552
12746SOL    HW139094   6.139   5.024   3.894 -0.5576 -0.8783  0.9137
12746SOL    HW239095   6.038   5.006   3.783  0.9538 -0.2039 -0.6176
12747SOL     OW39096   6.371   2.562   7.880  0.1425 -0.0423 -0.2042
12747SOL    HW139097   6.311   2.636   7.889 -0.5150 -0.6618  0.5846
12747SOL    HW239098   6.396   2.564   7.787 -0.8740  0.4039 -0.4912
12748SOL     OW39099   1.973   3.263   5.554 -0.0239 -0.0102  0.1506
12748SOL    HW139100   2.058   3.288   5.592  1.1561 -1.0257 -1.6410
12748SOL    HW239101   1.996   3.217   5.473 -2.2450 -1.6076  0.3245
12749SOL     OW39102   0.493   6.130   4.060 -0.3532  0.3551 -0.2499
12749SOL    HW139103   0.402   6.099   4.068  0.4969 -2.0716  1.0840
12749SOL    HW239104   0.545   6.050   4.059  1.8131  1.6956 -1.0830
12750SOL     OW39105   7.610   5.306   2.187 -0.3773  0.7129 -0.3970
12750SOL    HW139106   7.588   5.384   2.239  2.4015  2.5060 -1.6813
12750SOL    HW239107   7.525   5.269   2.164 -1.7791  2.3098  1.7753
12751SOL     OW39108   5.635   2.388   3.080 -0.2143  0.2222  0.0352
12751SOL    HW139109   5.593   2.313   3.039  0.9051 -0.0218 -0.6984
12751SOL    HW239110   5.660   2.445   3.007 -0.4413  0.9894  0.5388
12752SOL     OW39111   4.913   5.233   4.097  0.3030 -0.2465 -0.3655
12752SOL    HW139112   4.952   5.289   4.030 -0.8659  0.4632 -0.4894
12752SOL    HW239113   4.830   5.276   4.118  0.0260 -1.1940  0.5581
12753SOL     OW39114   6.769   7.612   7.189  0.0369  0.0473 -0.1439
12753SOL    HW139115   6.802   7.603   7.100  0.6734 -0.7164  0.1666
12753SOL    HW239116   6.828   7.675   7.231 -0.1842  0.3053 -0.2108
12754SOL     OW39117   6.886   0.094   5.408 -0.2370  0.2805  0.1146
12754SOL    HW139118   6.899   0.023   5.345  0.1197  0.4419 -0.0007
12754SOL    HW239119   6.836   0.055   5.479  1.9295 -0.7432  1.1691
12755SOL     OW39120   7.591   6.065   6.616  0.2389  0.2358  0.5605
12755SOL    HW139121   7.622   6.014   6.691  0.1814  0.2477  0.5921
12755SOL    HW239122   7.611   6.156   6.639 -0.5489  0.3208  0.9368
12756SOL     OW39123   5.693   5.862   4.992  0.1248 -0.3901  0.1777
12756SOL    HW139124   5.693   5.913   4.910  0.0147 -3.2767 -1.7604
12756SOL    HW239125   5.634   5.910   5.050 -1.9930  0.3800 -2.4210
12757SOL     OW39126   1.231   1.018   5.202 -0.3537  0.2017  0.5285
12757SOL    HW139127   1.204   1.107   5.179 -0.5727  0.0129  0.0403
12757SOL    HW239128   1.164   0.988   5.264 -0.1255  0.4748  0.9086
12758SOL     OW39129   0.896   3.453   4.532 -0.1267  0.0855 -0.2281
12758SOL    HW139130   0.962   3.522   4.533 -0.7993  0.7781  2.5327
12758SOL    HW239131   0.946   3.372   4.544  0.2856  0.6184  2.1107
12759SOL     OW39132   0.391   4.135   4.302  0.1533  0.0726  0.4313
12759SOL    HW139133   0.482   4.104   4.308  0.3188  0.6462  0.8773
12759SOL    HW239134   0.374   4.138   4.208  0.7616  0.4427  0.3291
12760SOL     OW39135   0.317   1.960   6.381 -0.2337  0.3280  0.4845
12760SOL    HW139136   0.310   1.939   6.474 -0.0879 -1.7696  0.0795
12760SOL    HW239137   0.410   1.975   6.366 -0.2930  0.9629  0.7081
12761SOL     OW39138   6.282   3.843   0.873 -0.4214  0.3016 -0.3715
12761SOL    HW139139   6.268   3.783   0.800 -0.1616 -0.1216 -0.0770
12761SOL    HW239140   6.203   3.897   0.875 -1.6250 -1.4240  0.6824
12762SOL     OW39141   7.702   2.001   2.988 -0.0987 -0.4218  0.3598
12762SOL    HW139142   7.727   1.968   3.074 -1.2677 -1.9770  0.1464
12762SOL    HW239143   7.689   2.095   3.001 -2.7942 -0.9888  2.5433
12763SOL     OW39144   4.897   2.839   0.273  0.0138  0.5810  0.2153
12763SOL    HW139145   4.867   2.901   0.339 -1.8787 -0.5868  0.5208
12763SOL    HW239146   4.891   2.754   0.315  0.6806 -0.0195 -0.8366
12764SOL     OW39147   7.807   1.947   4.847 -0.1969  0.0433  0.5668
12764SOL    HW139148   7.771   1.879   4.790  2.5724 -0.7839 -0.3200
12764SOL    HW239149   7.867   1.900   4.905  0.4646  1.5197  1.1196
12765SOL     OW39150   3.287   1.190   2.518  0.0886 -0.5973  0.0671
12765SOL    HW139151   3.235   1.270   2.512 -0.9761 -1.0583  2.3030
12765SOL    HW239152   3.368   1.211   2.471 -0.7667  1.2721 -0.6608
12766SOL     OW39153   2.360   1.300   6.899  0.1079 -0.1424 -0.2464
12766SOL    HW139154   2.300   1.357   6.851 -0.5749  0.4437  1.2396
12766SOL    HW239155   2.447   1.335   6.879  0.0899 -1.3024 -2.8266
12767SOL     OW39156   0.582   2.106   0.472 -0.6053 -0.3293  0.2360
12767SOL    HW139157   0.618   2.064   0.550  1.3050  1.4967  0.4213
12767SOL    HW239158   0.502   2.148   0.502  0.1491  0.4227  1.2984
12768SOL     OW39159   0.156   6.193   3.165  0.4402  0.2679  0.0914
12768SOL    HW139160   0.090   6.239   3.112  1.2309  1.0768 -0.2292
12768SOL    HW239161   0.230   6.182   3.106  0.7519 -0.2488  0.5736
12769SOL     OW39162   1.134   3.821   5.111  1.0065  0.5356 -0.3511
12769SOL    HW139163   1.161   3.913   5.107 -1.4435  1.2672 -1.3940
12769SOL    HW239164   1.140   3.790   5.021  1.7538 -0.3597 -0.0166
12770SOL     OW39165   5.439   5.765   5.320  0.0705  0.0294 -0.1090
12770SOL    HW139166   5.472   5.804   5.239  2.0001 -0.5741  0.3241
12770SOL    HW239167   5.419   5.839   5.376 -0.8884  0.4427 -0.9686
12771SOL     OW39168   5.828   2.734   4.170 -0.5452 -0.2402  0.4203
12771SOL    HW139169   5.770   2.762   4.241  0.2078 -1.5534  1.6087
12771SOL    HW239170   5.911   2.776   4.188 -0.5572  0.0298 -0.1324
12772SOL     OW39171   1.702   2.068   5.676  0.3773  0.0061  0.2038
12772SOL    HW139172   1.653   2.050   5.756  0.3370  0.7911  0.3694
12772SOL    HW239173   1.671   2.154   5.648  0.6478 -0.1073 -0.4654
12773SOL     OW39174   7.684   6.158   7.328  0.4987  0.6167  0.2315
12773SOL    HW139175   7.667   6.183   7.237  0.9536  1.5854  0.4016
12773SOL    HW239176   7.690   6.241   7.375  0.0716  0.1259  1.1915
12774SOL     OW39177   2.568   7.803   6.508 -0.2747 -0.2869  0.2468
12774SOL    HW139178   2.510   7.786   6.434  0.5591  2.2040 -1.1054
12774SOL    HW239179   2.516   7.858   6.567  0.5414  1.7097 -0.8307
12775SOL     OW39180   7.999   6.622   4.313  0.0993 -0.1890 -0.0432
12775SOL    HW139181   7.946   6.542   4.311  1.4122 -1.1193  0.8932
12775SOL    HW239182   7.994   6.651   4.404 -0.3526  0.8155 -0.3745
12776SOL     OW39183   4.528   5.359   0.730  0.3374 -0.1081 -0.1353
12776SOL    HW139184   4.440   5.360   0.694  0.2413 -1.5919  0.0029
12776SOL    HW239185   4.519   5.319   0.816  1.2299 -0.9691 -0.4161
12777SOL     OW39186   1.292   1.779   4.761 -0.2808 -0.6179 -0.0456
12777SOL    HW139187   1.297   1.842   4.690 -1.0730 -0.3272  0.1445
12777SOL    HW239188   1.375   1.731   4.757  0.7561  1.0626  0.4097
12778SOL     OW39189   0.669   5.993   0.624  0.0956 -0.4113  0.1704
12778SOL    HW139190   0.642   5.912   0.582  2.4441 -1.4281  0.4713
12778SOL    HW239191   0.762   5.981   0.642  0.4789  2.2875  0.4084
12779SOL     OW39192   4.651   3.795   3.576 -0.7657 -0.1004 -0.4349
12779SOL    HW139193   4.588   3.844   3.523 -2.8657 -0.9407  1.1521
12779SOL    HW239194   4.621   3.704   3.572  1.6633 -0.9525 -1.3874
12780SOL     OW39195   2.236   1.626   5.184  0.1242 -0.7332  0.4573
12780SOL    HW139196   2.168   1.560   5.197  0.5974 -1.1758  0.6609
12780SOL    HW239197   2.214   1.695   5.246 -0.4453 -0.6284  0.1538
12781SOL     OW39198   1.029   0.897   5.344  0.5791  0.1270 -0.0521
12781SOL    HW139199   0.995   0.810   5.322  2.1157 -0.7963  1.0470
12781SOL    HW239200   0.950   0.951   5.354 -0.3763 -0.7788 -2.0238
12782SOL     OW39201   0.247   5.350   0.832  0.2699  0.1569  0.2352
12782SOL    HW139202   0.160   5.355   0.871  0.7162 -0.7109  1.3749
12782SOL    HW239203   0.254   5.261   0.798  1.2035 -0.2221  1.3630
12783SOL     OW39204   5.025   7.030   2.321 -0.0695  0.2777  0.5809
12783SOL    HW139205   5.015   6.981   2.239  0.3646  1.6430 -0.3226
12783SOL    HW239206   4.970   7.108   2.309 -0.7243  0.0742  1.9723
12784SOL     OW39207   7.520   2.514   1.683  0.4418  0.7524 -0.2651
12784SOL    HW139208   7.558   2.546   1.765 -1.4423 -1.0903  1.4432
12784SOL    HW239209   7.582   2.448   1.653 -0.1065 -0.4885  1.1849
12785SOL     OW39210   2.045   5.459   1.724  0.6524  0.1280  0.0210
12785SOL    HW139211   2.069   5.552   1.719  0.8105  0.0612 -0.4927
12785SOL    HW239212   2.127   5.414   1.740  0.6096  0.0545  0.0340
12786SOL     OW39213   6.519   2.848   3.059 -0.8857 -0.0418 -0.3972
12786SOL    HW139214   6.468   2.928   3.049 -1.2599 -0.3805 -1.3916
12786SOL    HW239215   6.479   2.803   3.133 -1.2032  0.3098 -0.3522
12787SOL     OW39216   1.370   5.583   3.562 -0.1873  0.2167  0.9328
12787SOL    HW139217   1.393   5.608   3.473  1.0251 -0.5751  1.0011
12787SOL    HW239218   1.279   5.553   3.556  0.0761 -0.4279 -0.1798
12788SOL     OW39219   0.995   2.512   5.797 -0.2778  0.3982 -0.1290
12788SOL    HW139220   0.935   2.581   5.827  0.9672  2.2373 -1.5948
12788SOL    HW239221   0.950   2.472   5.723 -0.3268  0.7613 -0.2988
12789SOL     OW39222   7.502   3.492   5.872 -0.1369 -0.3490 -0.0904
12789SOL    HW139223   7.453   3.492   5.789 -0.2595  0.2783 -0.0210
12789SOL    HW239224   7.562   3.418   5.864  1.0228  0.6774 -1.4374
12790SOL     OW39225   5.663   3.925   0.832  0.3523 -0.0083  0.3263
12790SOL    HW139226   5.615   4.007   0.824 -1.0172 -0.8578 -0.6076
12790SOL    HW239227   5.727   3.941   0.902  0.5402  2.0196 -0.2444
12791SOL     OW39228   7.820   3.861   0.015  0.0528 -0.3827 -0.0397
12791SOL    HW139229   7.787   3.784   0.061 -0.9627  0.2810  0.3966
12791SOL    HW239230   7.867   3.826  -0.061 -1.1882 -1.4074 -0.3696
12792SOL     OW39231   0.966   6.466   3.081  0.3772 -0.3499 -0.6549
12792SOL    HW139232   1.054   6.503   3.075  0.2426  0.5229  1.7312
12792SOL    HW239233   0.928   6.506   3.159 -2.3454 -0.3109 -1.8744
12793SOL     OW39234   6.029   0.089   0.210  0.6023  0.4511 -0.1005
12793SOL    HW139235   6.014  -0.005   0.216  1.8793  0.0117 -2.5674
12793SOL    HW239236   5.951   0.128   0.249 -0.9040 -1.6411 -0.8459
12794SOL     OW39237   3.315   0.766   1.586 -0.1345  0.4852 -0.1342
12794SOL    HW139238   3.352   0.786   1.672 -0.2594  1.5552 -0.3110
12794SOL    HW239239   3.382   0.794   1.524  0.1415 -0.6897 -0.3967
12795SOL     OW39240   6.163   5.592   5.839 -0.3409  0.6581  0.1464
12795SOL    HW139241   6.102   5.526   5.806  4.0550 -4.5894  0.9328
12795SOL    HW239242   6.144   5.597   5.933  0.9408 -1.9855  0.6494
12796SOL     OW39243   4.044   2.330   3.968  0.2483 -0.6746 -0.1723
12796SOL    HW139244   4.016   2.241   3.946  0.2215 -0.9191  0.8208
12796SOL    HW239245   4.042   2.376   3.884  1.5219 -1.9370 -0.9458
12797SOL     OW39246   4.735   3.756   3.142  0.1974 -0.2100  0.4552
12797SOL    HW139247   4.670   3.810   3.188  0.6824 -0.5576  1.5873
12797SOL    HW239248   4.701   3.749   3.053  0.4091  2.4961  0.0576
12798SOL     OW39249   0.135   6.127   3.637  0.2476 -0.4675  0.1609
12798SOL    HW139250   0.128   6.096   3.546  2.2639 -0.5902 -0.0095
12798SOL    HW239251   0.061   6.086   3.682 -0.7361 -0.4842 -1.3951
12799SOL     OW39252   3.975   7.398   0.020 -0.3678  0.2048  0.1454
12799SOL    HW139253   3.953   7.309  -0.007 -3.6625  0.6591  0.9467
12799SOL    HW239254   3.915   7.454  -0.029  0.2137  1.8144  1.1929
12800SOL     OW39255   7.024   0.621   6.128  0.6032  0.3282 -0.0426
12800SOL    HW139256   6.971   0.571   6.066 -0.0212  0.9801 -0.0360
12800SOL    HW239257   6.961   0.673   6.177  1.2058  0.7201  0.3187
12801SOL     OW39258   1.700   3.680   1.713 -0.7929 -0.1930 -0.3106
12801SOL    HW139259   1.613   3.643   1.729 -1.3864  0.2506 -2.2407
12801SOL    HW239260   1.693   3.721   1.627  0.9987  0.9151  0.0262
12802SOL     OW39261   5.031   3.370   2.969  0.3856  0.3133 -0.1891
12802SOL    HW139262   5.112   3.420   2.974 -0.8664  2.4485  0.0879
12802SOL    HW239263   4.991   3.381   3.055  0.0542 -1.2200 -0.1168
12803SOL     OW39264   6.584   5.897   6.970 -0.2823  0.5119 -0.2022
12803SOL    HW139265   6.505   5.877   6.919 -1.2435  1.9742  0.6244
12803SOL    HW239266   6.645   5.932   6.905 -1.0813  1.2995 -0.5657
12804SOL     OW39267   7.371   6.888   1.004  0.6061  0.3999  0.2327
12804SOL    HW139268   7.453   6.885   0.954  0.0990  0.2299 -0.5856
12804SOL    HW239269   7.343   6.980   0.998  0.9968  0.5763  0.9514
12805SOL     OW39270   3.008   1.678   1.822  0.3431 -0.1221 -0.2893
12805SOL    HW139271   3.000   1.602   1.765 -0.8664  1.3197 -2.1538
12805SOL    HW239272   2.948   1.743   1.786  1.0178  1.6108  1.4597
12806SOL     OW39273   7.506   3.749   5.256 -1.2621  0.3735  0.2291
12806SOL    HW139274   7.467   3.724   5.172 -0.9975  0.8164 -0.0302
12806SOL    HW239275   7.436   3.795   5.302 -0.7972  2.0037 -0.6199
12807SOL     OW39276   4.385   5.856   0.062  0.1414 -0.2751 -0.0166
12807SOL    HW139277   4.375   5.767   0.096 -0.7708 -0.6266 -1.1796
12807SOL    HW239278   4.479   5.865   0.047  0.3938 -0.6015  1.2434
12808SOL     OW39279   7.899   1.108   7.773 -0.0562 -0.0716 -0.0620
12808SOL    HW139280   7.899   1.103   7.677  0.7043 -0.1534 -0.0631
12808SOL    HW239281   7.806   1.116   7.797 -0.2647 -0.2542 -0.7932
12809SOL     OW39282   4.343   4.500   5.185  0.1987  0.0363 -0.8854
12809SOL    HW139283   4.328   4.556   5.261  1.4566  2.2522 -2.1688
12809SOL    HW239284   4.354   4.561   5.112  4.5419 -1.6286 -1.9243
12810SOL     OW39285   7.483   6.392   4.811  0.2862 -0.2825  0.0743
12810SOL    HW139286   7.443   6.467   4.765 -2.9360 -0.2383  2.6035
12810SOL    HW239287   7.528   6.431   4.886 -0.7602 -0.7657  0.9803
12811SOL     OW39288   7.119   5.303   1.432 -0.1277 -0.2186 -0.1107
12811SOL    HW139289   7.065   5.224   1.439  0.1356 -0.4672 -0.7601
12811SOL    HW239290   7.072   5.369   1.482 -0.3860 -0.7719  0.3891
12812SOL     OW39291   4.592   6.069   3.032  0.1175 -0.1511  0.0531
12812SOL    HW139292   4.666   6.104   2.983  0.8220 -1.0137  0.4752
12812SOL    HW239293   4.626   6.055   3.120 -0.2490 -1.4946  0.0064
12813SOL     OW39294   5.607   7.778   6.798  0.1037  0.4261  0.0669
12813SOL    HW139295   5.685   7.756   6.849  0.4696  1.3773 -0.0500
12813SOL    HW239296   5.561   7.695   6.787  0.7660 -0.0407  0.6940
12814SOL     OW39297   1.231   2.202   2.749  0.8253 -0.4625  0.4355
12814SOL    HW139298   1.278   2.119   2.737  1.3466 -0.0245 -0.6638
12814SOL    HW239299   1.204   2.227   2.660  0.1991  0.2710  0.8266
12815SOL     OW39300   0.436   7.901   1.283 -0.5546 -0.1395 -0.6965
12815SOL    HW139301   0.386   7.937   1.209 -1.4900 -1.1206 -0.5715
12815SOL    HW239302   0.473   7.819   1.249 -0.0670 -0.0445 -0.3996
12816SOL     OW39303   6.826   4.335   7.965  0.1931 -0.1433  0.0499
12816SOL    HW139304   6.851   4.396   7.896  0.5028  1.3140  1.3860
12816SOL    HW239305   6.909   4.297   7.994  0.2073  0.1967  0.4602
12817SOL     OW39306   6.590   7.975   3.007 -0.4888 -0.1910  0.8220
12817SOL    HW139307   6.528   7.903   3.017  0.6018 -1.3218 -0.2030
12817SOL    HW239308   6.676   7.932   3.002  0.1956  1.1904  0.2713
12818SOL     OW39309   2.542   7.280   3.984  0.2506 -0.1574  0.1291
12818SOL    HW139310   2.486   7.296   3.909 -1.4293  0.3322  1.4176
12818SOL    HW239311   2.491   7.220   4.039  1.5430 -0.7175  0.7622
12819SOL     OW39312   5.358   6.166   6.724  0.3383 -0.2121 -0.3029
12819SOL    HW139313   5.272   6.169   6.765 -0.1781 -2.9779 -0.9865
12819SOL    HW239314   5.370   6.253   6.686 -2.0622  0.2915 -0.0402
12820SOL     OW39315   2.497   2.349   6.750 -0.1743  0.2158  0.7431
12820SOL    HW139316   2.496   2.417   6.682  2.9511 -0.8294 -0.5072
12820SOL    HW239317   2.423   2.371   6.807 -3.1891  1.0324 -3.0763
12821SOL     OW39318   5.992   1.771   4.836  0.4075 -0.4236 -0.2226
12821SOL    HW139319   5.956   1.838   4.778 -0.2979  0.5181  1.2431
12821SOL    HW239320   5.917   1.714   4.856  0.6523 -0.7650 -0.2855
12822SOL     OW39321   3.988   3.472   0.365  0.0496  0.3680 -0.3768
12822SOL    HW139322   4.012   3.479   0.272  0.2506 -1.3003 -0.4802
12822SOL    HW239323   3.897   3.444   0.363 -0.3396  1.5532 -0.0331
12823SOL     OW39324   1.329   5.763   2.286  0.2474  1.0598 -0.7972
12823SOL    HW139325   1.327   5.859   2.285 -0.6508  1.0843  0.8417
12823SOL    HW239326   1.245   5.737   2.247 -0.2402  0.9817  0.2777
12824SOL     OW39327   3.887   4.486   6.020  0.0883  0.5039  0.0076
12824SOL    HW139328   3.846   4.460   6.103  0.7790  0.8931  0.4823
12824SOL    HW239329   3.822   4.466   5.954 -1.2132  1.9123  0.8220
12825SOL     OW39330   1.810   2.535   5.373 -0.0465  0.1404  0.8007
12825SOL    HW139331   1.820   2.565   5.283 -2.8662 -2.3736 -0.5326
12825SOL    HW239332   1.730   2.578   5.404 -1.7362 -2.4560  0.3387
12826SOL     OW39333   6.479   2.047   3.469  0.4072 -0.0833  0.3883
12826SOL    HW139334   6.452   2.099   3.393 -0.8911  0.4229  1.1685
12826SOL    HW239335   6.574   2.057   3.472  0.3930  0.5175 -0.7107
12827SOL     OW39336   7.257   3.813   1.669 -0.4519 -0.1207 -0.7969
12827SOL    HW139337   7.209   3.755   1.610  0.3748 -1.2604 -0.3794
12827SOL    HW239338   7.202   3.891   1.676 -1.1919 -0.5062 -2.0262
12828SOL     OW39339   4.207   6.126   0.359  0.0911 -0.0825 -0.2992
12828SOL    HW139340   4.150   6.064   0.404 -1.3274 -1.2784 -3.4333
12828SOL    HW239341   4.156   6.207   0.355  0.2793  0.0701  0.3181
12829SOL     OW39342   2.483   4.043   4.529  0.2072  0.3629  0.3068
12829SOL    HW139343   2.444   4.038   4.616 -0.3005 -0.2893  0.0559
12829SOL    HW239344   2.422   3.995   4.472 -1.7593  4.3343 -1.2810
12830SOL     OW39345   2.088   3.829   3.318  0.3729  0.0279  0.3067
12830SOL    HW139346   2.066   3.883   3.242 -1.0611  1.6579  1.7898
12830SOL    HW239347   2.183   3.816   3.312  0.7855  2.7112 -0.1467
12831SOL     OW39348   7.347   7.795   4.855  0.0660 -0.7901  0.2229
12831SOL    HW139349   7.344   7.725   4.920 -1.8651 -0.7343  0.2456
12831SOL    HW239350   7.418   7.852   4.884  0.7874 -2.0039  0.9478
12832SOL     OW39351   1.112   4.056   0.008  0.4543  0.0481  0.5211
12832SOL    HW139352   1.073   4.019   0.087  0.2821 -0.7291  0.0857
12832SOL    HW239353   1.193   4.096   0.038  1.2236 -1.6684  0.8726
12833SOL     OW39354   0.849   6.030   4.979  0.0080 -0.3045  0.0538
12833SOL    HW139355   0.837   6.023   5.074 -0.3821 -0.9717 -0.0419
12833SOL    HW239356   0.934   6.074   4.970  1.3385 -2.5329  0.7359
12834SOL     OW39357   6.066   5.908   6.088 -0.3176 -0.0623  0.4216
12834SOL    HW139358   6.070   5.992   6.132 -1.4563  0.4567 -0.3972
12834SOL    HW239359   5.988   5.914   6.032  1.0896 -0.6321 -1.7341
12835SOL     OW39360   5.495   0.724   0.511  0.2775  0.5190  0.5272
12835SOL    HW139361   5.450   0.712   0.595  0.6144  2.0851  0.9606
12835SOL    HW239362   5.582   0.754   0.535  0.5733  0.4136 -0.3896
12836SOL     OW39363   3.500   0.922   6.245  0.0058 -0.0816  0.1005
12836SOL    HW139364   3.445   0.991   6.208  0.3016 -0.4273 -1.0153
12836SOL    HW239365   3.447   0.886   6.317 -0.6804  0.4522 -0.1189
12837SOL     OW39366   7.630   4.612   6.194 -0.1790 -0.6902  0.3574
12837SOL    HW139367   7.709   4.660   6.219 -0.2278  0.1314 -0.9563
12837SOL    HW239368   7.564   4.639   6.259  0.0562  0.3148  0.1995
12838SOL     OW39369   7.764   0.743   7.416  0.1084  1.1704 -0.4706
12838SOL    HW139370   7.829   0.810   7.437  0.9336  0.3966 -0.5063
12838SOL    HW239371   7.699   0.789   7.363  1.0988  1.7563 -1.2143
12839SOL     OW39372   3.902   0.596   1.506 -0.1893  0.3560 -0.2042
12839SOL    HW139373   3.915   0.514   1.554  2.0287  1.0718  0.5145
12839SOL    HW239374   3.903   0.570   1.414  1.7460 -0.3296 -0.0378
12840SOL     OW39375   7.570   7.204   0.744  0.2355 -0.4416  0.2156
12840SOL    HW139376   7.622   7.253   0.808  2.7155  0.8329 -2.5168
12840SOL    HW239377   7.607   7.116   0.747  2.2784  0.2884 -1.2253
12841SOL     OW39378   0.449   4.844   6.308  0.0646 -0.0745 -0.3864
12841SOL    HW139379   0.443   4.880   6.396  4.2796 -0.9312  0.4539
12841SOL    HW239380   0.430   4.918   6.251  0.8294  1.4780  1.2731
12842SOL     OW39381   3.970   1.248   3.229 -0.2844 -0.2227 -0.4302
12842SOL    HW139382   3.995   1.169   3.181 -1.9726 -0.4591 -0.9910
12842SOL    HW239383   3.914   1.297   3.169  1.7285  2.0956 -0.5720
12843SOL     OW39384   7.032   5.586   0.941 -0.4738  0.3477  0.0495
12843SOL    HW139385   7.040   5.573   1.035  0.4959 -0.6967 -0.1611
12843SOL    HW239386   7.028   5.498   0.904 -0.9994  0.7449 -0.8783
12844SOL     OW39387   3.271   3.808   1.903  0.4448  0.2933  0.1156
12844SOL    HW139388   3.269   3.767   1.989 -3.7258  1.7244  0.9060
12844SOL    HW239389   3.302   3.897   1.919 -0.0558  0.4718  0.1096
12845SOL     OW39390   6.059   4.738   4.750 -0.4598 -0.4673  0.4644
12845SOL    HW139391   6.097   4.823   4.727 -0.6096 -0.3273  0.7211
12845SOL    HW239392   5.972   4.759   4.783 -1.6441 -0.9593 -2.1448
12846SOL     OW39393   3.833   7.362   3.854 -0.0690 -0.0828  0.2399
12846SOL    HW139394   3.888   7.362   3.933  0.5152 -1.1495 -0.1460
12846SOL    HW239395   3.845   7.275   3.817 -0.1439  0.4951 -1.1726
12847SOL     OW39396   5.029   1.942   6.395  0.2934  0.4643 -0.0247
12847SOL    HW139397   5.101   1.882   6.415  0.0304 -0.6315 -2.0384
12847SOL    HW239398   5.031   2.007   6.465  1.1002 -1.4327  1.8262
12848SOL     OW39399   0.497   0.377   6.348 -0.2849 -0.4430  0.0089
12848SOL    HW139400   0.523   0.297   6.303  1.2491  1.2468 -2.3533
12848SOL    HW239401   0.427   0.414   6.294  0.8464  1.0898 -0.4840
12849SOL     OW39402   7.626   5.573   2.814 -0.0400 -0.0482 -0.4745
12849SOL    HW139403   7.637   5.485   2.778  1.2801 -0.4272  0.7533
12849SOL    HW239404   7.714   5.612   2.809 -0.3050  0.6696  0.3153
12850SOL     OW39405   1.712   7.731   5.627  0.0400  0.3538  1.0322
12850SOL    HW139406   1.693   7.638   5.644 -1.1938  0.3626 -0.1424
12850SOL    HW239407   1.773   7.756   5.697  1.1828 -1.5917  0.7929
12851SOL     OW39408   1.493   1.042   5.100  0.8040  0.1059 -0.2346
12851SOL    HW139409   1.407   1.001   5.094  1.4208 -1.2994  0.1203
12851SOL    HW239410   1.476   1.129   5.136 -0.6980  0.8047 -2.4571
12852SOL     OW39411   6.485   1.753   1.156 -0.1228  0.2264  0.1905
12852SOL    HW139412   6.431   1.828   1.132 -1.6029 -1.2240 -1.2437
12852SOL    HW239413   6.453   1.681   1.102  2.6650 -0.9637 -0.0641
12853SOL     OW39414   7.841   0.147   5.568  0.1953 -0.5335  0.4320
12853SOL    HW139415   7.798   0.223   5.529 -0.4380 -1.4557 -0.7453
12853SOL    HW239416   7.822   0.153   5.661  1.2810  1.4515  0.5910
12854SOL     OW39417   6.107   0.229   5.372  0.1063  0.1196  0.3461
12854SOL    HW139418   6.057   0.168   5.316  1.5757 -2.3018  1.4935
12854SOL    HW239419   6.058   0.231   5.454  1.1314 -1.2995  1.0478
12855SOL     OW39420   0.194   6.604   6.175  0.3521  0.0798 -0.4634
12855SOL    HW139421   0.148   6.521   6.192  0.6346 -0.3423 -1.6572
12855SOL    HW239422   0.134   6.654   6.120  1.3632 -0.5790 -2.2493
12856SOL     OW39423   0.338   2.627   2.662 -0.0066 -0.0265 -0.1040
12856SOL    HW139424   0.361   2.718   2.642  1.0373 -0.2908 -0.1650
12856SOL    HW239425   0.273   2.633   2.731 -1.0265  0.8093 -1.0954
12857SOL     OW39426   5.999   6.756   5.970 -0.4549 -0.2207 -0.0486
12857SOL    HW139427   6.067   6.698   5.935 -0.0271 -0.8401  1.7265
12857SOL    HW239428   6.045   6.814   6.030 -0.8860  2.0306 -1.7694
12858SOL     OW39429   0.131   3.916   6.814  0.1071 -0.8642  0.4174
12858SOL    HW139430   0.195   3.856   6.852  1.7130 -0.8412 -2.0161
12858SOL    HW239431   0.113   3.880   6.727 -0.6146  0.9533 -0.2339
12859SOL     OW39432   6.828   2.686   2.713  0.5634 -0.3786 -0.5612
12859SOL    HW139433   6.889   2.627   2.756 -0.0477 -1.5228 -1.2199
12859SOL    HW239434   6.749   2.682   2.766  0.1043 -1.1214 -1.2775
12860SOL     OW39435   0.178   4.852   4.796 -0.2090 -0.6816  0.0166
12860SOL    HW139436   0.139   4.934   4.765 -0.9282 -0.6139  1.0323
12860SOL    HW239437   0.199   4.869   4.888  0.3693 -1.3872  0.0232
12861SOL     OW39438   4.795   2.217   7.805 -0.0534 -0.2649  0.1301
12861SOL    HW139439   4.723   2.221   7.869 -1.6963  2.1569 -1.7194
12861SOL    HW239440   4.817   2.308   7.788  1.0676 -0.8826 -1.9693
12862SOL     OW39441   4.428   5.267   7.747 -0.1903  0.2328 -0.2519
12862SOL    HW139442   4.389   5.180   7.737  1.2226 -0.6648  1.4585
12862SOL    HW239443   4.506   5.252   7.801  0.0796  2.5730  0.1076
12863SOL     OW39444   6.091   4.791   0.467 -0.0986  0.5358 -0.7454
12863SOL    HW139445   6.084   4.886   0.457 -1.8251  0.6838  1.2732
12863SOL    HW239446   6.169   4.767   0.417 -0.7948  2.7043 -3.0457
12864SOL     OW39447   7.206   2.693   1.778 -0.0276 -0.2491 -0.3806
12864SOL    HW139448   7.220   2.722   1.868  1.7925 -0.7434 -0.4658
12864SOL    HW239449   7.217   2.598   1.782 -2.2640 -0.5826 -0.7525
12865SOL     OW39450   0.262   4.197   3.760 -0.0438  0.3819  0.3930
12865SOL    HW139451   0.242   4.109   3.726 -0.5598 -0.5622  2.8911
12865SOL    HW239452   0.178   4.242   3.762 -0.3625 -0.1987  1.9257
12866SOL     OW39453   0.160   3.957   5.161 -0.0923  0.1656  0.1167
12866SOL    HW139454   0.176   4.048   5.186 -0.9609  0.1947  0.6111
12866SOL    HW239455   0.078   3.934   5.206 -0.1791 -0.6790 -0.4537
12867SOL     OW39456   3.450   1.222   3.262 -0.3725 -0.2407 -0.5816
12867SOL    HW139457   3.460   1.261   3.175 -0.3329  0.5618 -0.2229
12867SOL    HW239458   3.363   1.248   3.290 -0.6314 -1.0298 -0.6364
12868SOL     OW39459   3.297   0.988   0.911 -1.0359  0.1855  0.1612
12868SOL    HW139460   3.218   0.940   0.934 -0.3206 -0.7131  0.8082
12868SOL    HW239461   3.367   0.923   0.917 -0.2021  1.0362 -0.1083
12869SOL     OW39462   4.470   2.650   6.840  0.0938 -0.2160  0.0940
12869SOL    HW139463   4.525   2.640   6.917 -1.1414  0.4917  1.1196
12869SOL    HW239464   4.501   2.730   6.798  0.1746 -0.1017  0.3726
12870SOL     OW39465   3.950   2.606   2.156  0.5440  0.0447 -0.5603
12870SOL    HW139466   4.009   2.581   2.085 -1.1757  0.5303 -2.2208
12870SOL    HW239467   3.978   2.552   2.230  1.4814 -1.5205 -1.9927
12871SOL     OW39468   5.238   0.317   2.637  0.1103  0.4619 -0.1762
12871SOL    HW139469   5.320   0.345   2.676  0.5510 -0.1479 -0.6383
12871SOL    HW239470   5.180   0.393   2.645 -0.6174 -0.3342  3.7065
12872SOL     OW39471   4.773   1.232   2.434 -0.3101  0.1827  0.5630
12872SOL    HW139472   4.733   1.148   2.458 -1.0632  0.0041 -1.1938
12872SOL    HW239473   4.866   1.212   2.422 -0.3428 -0.2153  0.9470
12873SOL     OW39474   3.918   6.176   6.775  0.8021  0.2155 -0.3424
12873SOL    HW139475   3.913   6.110   6.705 -0.3141 -0.4878  0.3656
12873SOL    HW239476   3.992   6.231   6.751  1.0816 -0.6424 -1.5349
12874SOL     OW39477   4.720   0.084   6.098 -0.3425  0.0416 -0.1364
12874SOL    HW139478   4.669   0.158   6.067  1.5920  1.5041  0.0038
12874SOL    HW239479   4.810   0.103   6.071  0.3069 -1.9942  0.3777
12875SOL     OW39480   0.363   6.133   7.530 -0.0626 -0.6103  0.0452
12875SOL    HW139481   0.306   6.058   7.511 -1.1885  0.3344 -0.3585
12875SOL    HW239482   0.437   6.094   7.576 -0.3461 -2.0631 -0.6522
12876SOL     OW39483   6.493   2.089   1.231  0.4137  0.1970 -0.3864
12876SOL    HW139484   6.440   2.115   1.156  0.5696  0.0624 -0.5446
12876SOL    HW239485   6.458   2.140   1.304  0.4596  0.5570 -0.6119
12877SOL     OW39486   0.876   0.051   5.378 -0.1292  0.2657  0.0388
12877SOL    HW139487   0.877   0.145   5.363 -0.2856  0.4565  1.1736
12877SOL    HW239488   0.785   0.031   5.400 -0.2959 -0.3098 -1.1220
12878SOL     OW39489   1.570   6.358   0.909 -0.1918 -0.0969  0.3942
12878SOL    HW139490   1.542   6.273   0.943 -0.7756  0.5755  1.6690
12878SOL    HW239491   1.663   6.364   0.933 -0.1047 -0.4443  0.1480
12879SOL     OW39492   6.941   1.810   5.329  0.4171 -0.1855  0.2030
12879SOL    HW139493   6.857   1.821   5.374  1.1927 -0.5690  1.8039
12879SOL    HW239494   6.917   1.799   5.237 -1.2319  0.5296  0.4985
12880SOL     OW39495   2.401   4.613   6.076 -0.2206 -0.3245  0.5052
12880SOL    HW139496   2.382   4.528   6.036  0.4695  0.7594 -2.3991
12880SOL    HW239497   2.319   4.662   6.069  0.5562  0.8228 -2.4896
12881SOL     OW39498   3.008   1.706   7.532  0.8385  0.3432  0.7771
12881SOL    HW139499   3.023   1.788   7.578  1.2131  0.3109  0.7140
12881SOL    HW239500   2.913   1.695   7.532  0.7552  1.0146  0.3713
12882SOL     OW39501   7.008   2.800   1.611  0.1485 -0.4703 -0.0033
12882SOL    HW139502   7.090   2.762   1.644 -0.4415 -1.8921 -0.0994
12882SOL    HW239503   6.939   2.746   1.650 -0.8669  1.6750  1.3608
12883SOL     OW39504   4.992   0.324   1.466  0.2161  0.6510  0.6965
12883SOL    HW139505   4.986   0.324   1.562 -1.9057  1.9145  0.6417
12883SOL    HW239506   4.973   0.415   1.441  0.6721  0.3269 -0.9340
12884SOL     OW39507   7.491   6.258   6.371 -0.0401 -0.5861  0.0639
12884SOL    HW139508   7.413   6.257   6.315 -0.2057 -1.3067  0.3023
12884SOL    HW239509   7.562   6.286   6.313 -0.5387  0.4857 -0.0597
12885SOL     OW39510   5.193   3.136   7.811  0.0190  0.0157  0.3233
12885SOL    HW139511   5.266   3.127   7.749  0.2311 -0.5682  0.6482
12885SOL    HW239512   5.165   3.046   7.828 -0.9978  0.2539 -0.0451
12886SOL     OW39513   4.895   5.126   5.706 -0.1057 -0.9405 -0.2796
12886SOL    HW139514   4.902   5.031   5.697  4.1855 -1.0143  1.6095
12886SOL    HW239515   4.868   5.140   5.797  0.6645 -0.4326 -0.1119
12887SOL     OW39516   4.646   3.021   7.652 -0.5893 -0.7201 -0.1996
12887SOL    HW139517   4.651   2.995   7.744 -1.9767  0.7795  0.3528
12887SOL    HW239518   4.715   3.087   7.643 -0.0568 -1.2988 -0.4048
12888SOL     OW39519   0.260   1.416   6.384 -0.0190  0.2638 -0.4329
12888SOL    HW139520   0.236   1.499   6.424 -0.6023  1.8206 -3.7064
12888SOL    HW239521   0.268   1.435   6.290 -0.5117 -3.4396 -1.3963
12889SOL     OW39522   3.557   0.481   4.623  0.7567  0.0904 -0.2085
12889SOL    HW139523   3.532   0.427   4.548 -0.2456 -0.3268  0.3989
12889SOL    HW239524   3.631   0.533   4.592 -1.0741  1.6772 -2.2625
12890SOL     OW39525   7.846   2.360   4.071 -0.0483 -0.3108  0.1407
12890SOL    HW139526   7.763   2.346   4.026  0.2068  0.6745 -0.6909
12890SOL    HW239527   7.824   2.411   4.149 -0.3216 -0.7925  0.3796
12891SOL     OW39528   1.441   7.227   1.133  1.5306  0.3122 -0.2792
12891SOL    HW139529   1.425   7.205   1.225 -1.2593  3.3961  0.1727
12891SOL    HW239530   1.488   7.310   1.136  0.4373  1.0224 -1.5835
12892SOL     OW39531   4.719   6.252   6.836  0.1391 -0.4153 -0.6933
12892SOL    HW139532   4.773   6.213   6.905  0.7585  0.0747 -0.8903
12892SOL    HW239533   4.629   6.243   6.868  0.2732 -1.8675 -0.6815
12893SOL     OW39534   6.279   1.127   6.024  0.2246 -0.1208 -0.1576
12893SOL    HW139535   6.241   1.210   5.994  0.2660 -0.1224 -0.2153
12893SOL    HW239536   6.277   1.133   6.119  0.1034 -0.1100 -0.1610
12894SOL     OW39537   6.580   7.717   5.150  0.4039  0.2800  0.0620
12894SOL    HW139538   6.615   7.705   5.238 -0.3449 -1.0327  0.1969
12894SOL    HW239539   6.528   7.797   5.156  3.5601  2.5417 -0.2393
12895SOL     OW39540   3.917   0.669   3.752  0.3083 -0.8426 -0.2744
12895SOL    HW139541   3.867   0.705   3.825  3.1639  1.2582  0.7937
12895SOL    HW239542   3.978   0.608   3.793  1.7413  0.1364 -0.8819
12896SOL     OW39543   1.343   1.627   3.911 -0.7197 -0.0694  0.4287
12896SOL    HW139544   1.319   1.698   3.852 -0.0009  2.0309  2.4885
12896SOL    HW239545   1.278   1.630   3.981 -0.3988 -1.1412  0.7955
12897SOL     OW39546   2.252   3.802   0.130 -0.3266 -0.4096 -0.5808
12897SOL    HW139547   2.241   3.762   0.044  0.3808 -2.9236  0.4081
12897SOL    HW239548   2.168   3.786   0.174  0.2846 -1.7887  0.1529
12898SOL     OW39549   3.690   1.408   0.250  0.0909  0.0692 -0.0655
12898SOL    HW139550   3.650   1.410   0.337 -0.6443  3.9337 -0.2781
12898SOL    HW239551   3.616   1.399   0.190  0.6540 -3.3025 -0.4011
12899SOL     OW39552   1.923   0.539   3.191 -0.4304  0.7774 -0.8238
12899SOL    HW139553   1.946   0.526   3.099  2.0564  1.7175 -0.4059
12899SOL    HW239554   1.911   0.634   3.199 -1.4634  0.6229 -0.3155
12900SOL     OW39555   1.854   2.713   6.228 -0.5845 -0.2729 -0.3525
12900SOL    HW139556   1.851   2.691   6.135 -0.0013 -0.4729 -0.3299
12900SOL    HW239557   1.823   2.634   6.273 -1.3039 -0.0167 -0.3949
12901SOL     OW39558   3.396   2.342   1.118  0.9349  0.4064  0.0038
12901SOL    HW139559   3.336   2.290   1.064  0.6547  0.5642  0.1631
12901SOL    HW239560   3.341   2.378   1.188  0.8479  2.0703 -0.8843
12902SOL     OW39561   2.703   1.700   5.797  0.2099  0.6264  0.4772
12902SOL    HW139562   2.631   1.762   5.807 -0.2498  0.0088  1.0931
12902SOL    HW239563   2.751   1.705   5.880  0.5852  0.6752  0.2598
12903SOL     OW39564   4.531   5.858   7.247  0.0349  0.3089  0.4403
12903SOL    HW139565   4.478   5.787   7.285  0.4909 -0.5846 -0.5387
12903SOL    HW239566   4.599   5.813   7.197 -0.3648  1.4264 -1.1972
12904SOL     OW39567   2.797   0.573   2.501 -0.2832 -0.7000  0.1358
12904SOL    HW139568   2.764   0.585   2.590  1.1793 -0.8028  0.7349
12904SOL    HW239569   2.878   0.625   2.499 -0.2571 -0.7676 -1.1047
12905SOL     OW39570   4.806   6.469   6.425  0.1425 -0.5493 -0.5464
12905SOL    HW139571   4.809   6.540   6.361  0.2850 -1.4557 -1.5754
12905SOL    HW239572   4.724   6.424   6.407 -0.9465  0.5101  1.4286
12906SOL     OW39573   3.790   4.030   6.582  0.4051  0.3912  0.2526
12906SOL    HW139574   3.885   4.031   6.592  0.3625  2.1463  0.8343
12906SOL    HW239575   3.757   4.000   6.667  0.4099  1.7943  0.7729
12907SOL     OW39576   2.515   6.810   0.325 -0.4164  0.1706 -0.2745
12907SOL    HW139577   2.607   6.814   0.300 -0.6072  1.4748 -0.8900
12907SOL    HW239578   2.507   6.730   0.376  1.5550  1.2403  1.8857
12908SOL     OW39579   3.926   5.907   7.589  0.0751 -0.1545 -0.5223
12908SOL    HW139580   3.866   5.860   7.647 -0.7591  0.6554 -0.6983
12908SOL    HW239581   3.982   5.839   7.552 -0.3840 -0.8684  0.0640
12909SOL     OW39582   4.802   2.487   4.668  0.0759 -0.1746 -0.6699
12909SOL    HW139583   4.801   2.402   4.711  1.1516 -0.5934 -1.4289
12909SOL    HW239584   4.852   2.473   4.588 -1.2312  0.7622 -1.6934
12910SOL     OW39585   4.984   3.142   3.163 -0.1638 -1.0016 -0.6586
12910SOL    HW139586   5.047   3.082   3.202 -0.2456 -0.8158 -0.2323
12910SOL    HW239587   5.038   3.211   3.124 -0.1007  0.3459  1.6024
12911SOL     OW39588   4.334   2.023   3.200 -0.2323  0.2301 -0.6622
12911SOL    HW139589   4.363   2.066   3.281 -1.6122 -0.9856  0.5290
12911SOL    HW239590   4.387   1.945   3.194  0.0742  0.4697 -1.1048
12912SOL     OW39591   2.735   4.737   6.138  0.0144  0.1731  0.1826
12912SOL    HW139592   2.678   4.780   6.074 -1.9843 -0.0311  1.7305
12912SOL    HW239593   2.708   4.645   6.137  0.6845 -0.0404  0.5930
12913SOL     OW39594   1.677   6.157   3.987  0.0098  0.6442  0.1760
12913SOL    HW139595   1.654   6.178   4.078  2.6442  0.2730  1.0210
12913SOL    HW239596   1.711   6.067   3.991 -0.8633  0.2028 -1.4124
12914SOL     OW39597   1.477   0.413   2.867 -0.2349 -0.2874 -0.5201
12914SOL    HW139598   1.502   0.505   2.878  0.8680 -0.6516  0.1236
12914SOL    HW239599   1.381   0.414   2.867 -0.2395  0.7506  0.4744
12915SOL     OW39600   6.354   2.771   3.850  0.1930  0.6515 -0.0883
12915SOL    HW139601   6.401   2.694   3.881 -0.3725  1.3362  2.7220
12915SOL    HW239602   6.382   2.842   3.907 -1.1893  1.9658 -0.9570
12916SOL     OW39603   3.678   6.209   6.618 -0.5890  0.4595  0.2462
12916SOL    HW139604   3.747   6.223   6.683 -0.3687  0.0157  0.1142
12916SOL    HW239605   3.614   6.277   6.636 -0.3390  0.5866  0.6750
12917SOL     OW39606   2.207   6.002   5.636 -0.5123 -0.7211  0.0956
12917SOL    HW139607   2.180   6.084   5.594  0.4376 -0.0275  0.7836
12917SOL    HW239608   2.179   5.933   5.575  0.7422  0.2388 -1.6565
12918SOL     OW39609   1.005   5.514   1.518 -0.1609  0.0785 -0.1387
12918SOL    HW139610   0.938   5.582   1.504 -3.1758 -2.5723  0.1721
12918SOL    HW239611   1.037   5.494   1.430 -1.3462 -0.0018 -0.5757
12919SOL     OW39612   4.063   7.482   0.287  0.0072  0.1980  0.2526
12919SOL    HW139613   4.028   7.484   0.198 -0.9453 -0.7263  0.5908
12919SOL    HW239614   4.130   7.551   0.287 -0.2479  0.4870 -1.0541
12920SOL     OW39615   5.515   3.043   0.961  0.0032  0.1703 -0.2954
12920SOL    HW139616   5.487   3.134   0.970  1.7712  0.6234  1.2265
12920SOL    HW239617   5.438   2.991   0.983 -0.5006  1.3233  0.7720
12921SOL     OW39618   2.783   4.647   0.006 -0.0175  0.3401 -0.3426
12921SOL    HW139619   2.866   4.636  -0.041 -0.7352  1.3502 -1.9110
12921SOL    HW239620   2.723   4.586  -0.036  0.0340 -0.8513  1.1993
12922SOL     OW39621   2.803   3.117   3.634 -0.7393  0.0245  0.1351
12922SOL    HW139622   2.781   3.092   3.724 -0.3801 -0.3011  0.1316
12922SOL    HW239623   2.748   3.060   3.579 -0.8275  0.0989  0.1466
12923SOL     OW39624   1.204   0.970   0.997 -0.6463 -0.3729  0.2126
12923SOL    HW139625   1.280   0.977   0.939 -0.1644 -0.3318  0.8396
12923SOL    HW239626   1.207   1.049   1.050 -0.3692 -0.9926  1.1418
12924SOL     OW39627   6.906   3.626   7.142  0.0005 -0.2123  0.2373
12924SOL    HW139628   7.001   3.626   7.127 -0.1183 -0.8611 -0.6214
12924SOL    HW239629   6.875   3.548   7.096 -1.1488  0.8259 -0.8527
12925SOL     OW39630   2.621   4.487   6.218 -0.4597  0.1219 -0.4697
12925SOL    HW139631   2.529   4.504   6.198 -0.8155 -0.5197  0.5070
12925SOL    HW239632   2.624   4.482   6.314  0.0196 -2.7288 -0.5544
12926SOL     OW39633   1.812   0.588   5.764  0.1389  0.0753 -0.1268
12926SOL    HW139634   1.832   0.506   5.809  3.0209  0.1744 -1.0156
12926SOL    HW239635   1.740   0.567   5.705 -0.3860 -1.3023  0.9642
12927SOL     OW39636   0.615   3.207   1.042 -0.8806  0.4927  0.0471
12927SOL    HW139637   0.686   3.271   1.049 -0.7188  0.5246 -1.4566
12927SOL    HW239638   0.558   3.225   1.117 -0.2095  1.6125  0.3049
12928SOL     OW39639   6.943   7.964   1.137  0.4010 -0.0930 -0.4586
12928SOL    HW139640   6.952   8.048   1.181  0.0333  0.3245 -1.1667
12928SOL    HW239641   7.032   7.940   1.111  0.5516 -0.0988  0.0559
12929SOL     OW39642   7.625   3.604   4.094  0.2861  0.2742  0.2339
12929SOL    HW139643   7.589   3.676   4.145 -0.2384  0.8974 -0.9524
12929SOL    HW239644   7.711   3.636   4.065 -0.1329  0.6317 -0.6616
12930SOL     OW39645   0.414   2.065   0.228  0.3546 -0.1494 -0.3526
12930SOL    HW139646   0.454   2.003   0.288 -0.7430  0.3189  0.8970
12930SOL    HW239647   0.320   2.049   0.235  0.0656  1.4681 -0.1772
12931SOL     OW39648   3.544   2.154   5.459 -0.5630  0.5864  0.2723
12931SOL    HW139649   3.487   2.137   5.385  0.0847 -2.8205  0.4253
12931SOL    HW239650   3.485   2.182   5.529 -1.8344 -1.0186 -0.1155
12932SOL     OW39651   5.968   3.359   6.108  0.2309  0.4537 -0.0583
12932SOL    HW139652   5.921   3.441   6.123 -0.1377  0.4408 -1.0755
12932SOL    HW239653   5.943   3.333   6.019  0.4947 -0.6596  0.1764
12933SOL     OW39654   7.221   6.846   4.338 -0.0244 -0.0604  0.2361
12933SOL    HW139655   7.238   6.905   4.411  0.4087  0.1415 -0.0264
12933SOL    HW239656   7.151   6.788   4.369 -0.7640  0.8731  0.3443
12934SOL     OW39657   0.488   0.098   0.843  0.3202 -0.3160  0.0801
12934SOL    HW139658   0.405   0.116   0.886 -0.3045 -2.1354 -0.2713
12934SOL    HW239659   0.498   0.003   0.849  1.9544 -0.2302 -0.6672
12935SOL     OW39660   4.074   5.563   7.174  0.3370 -0.5808 -0.8214
12935SOL    HW139661   4.036   5.615   7.103  0.8524  2.9753  1.2507
12935SOL    HW239662   4.009   5.569   7.245  2.2769  1.0831  0.9515
12936SOL     OW39663   7.567   1.269   0.681  0.0944  0.5046 -0.3815
12936SOL    HW139664   7.520   1.231   0.754 -0.1635  0.9084 -0.3315
12936SOL    HW239665   7.499   1.313   0.629  0.1329 -0.5163 -1.3461
12937SOL     OW39666   0.024   2.546   1.479 -0.3906  0.1987 -0.0162
12937SOL    HW139667   0.031   2.471   1.539  0.0770 -0.0683 -0.3981
12937SOL    HW239668  -0.052   2.525   1.424 -2.6556  1.7588  2.2693
12938SOL     OW39669   7.331   0.358   1.277  0.0058  0.9698  0.8522
12938SOL    HW139670   7.276   0.380   1.352 -2.1557 -0.6600 -0.1349
12938SOL    HW239671   7.273   0.368   1.201  1.7682  1.4101 -0.5072
12939SOL     OW39672   1.765   2.463   6.335  0.4045 -0.1749  0.2584
12939SOL    HW139673   1.677   2.433   6.360  0.4807 -1.7684 -1.1933
12939SOL    HW239674   1.823   2.400   6.377  0.7820  0.0194  0.0236
12940SOL     OW39675   5.642   6.735   5.443 -0.1304 -0.1123 -0.1738
12940SOL    HW139676   5.687   6.677   5.504 -0.3763 -1.3649 -1.1288
12940SOL    HW239677   5.553   6.700   5.437 -0.2051  0.1781 -0.9773
12941SOL     OW39678   3.703   4.462   5.811 -0.2163 -0.0448  0.4912
12941SOL    HW139679   3.658   4.535   5.769 -0.2899 -0.8132 -0.8037
12941SOL    HW239680   3.642   4.389   5.806  0.8535 -0.9155 -0.6736
12942SOL     OW39681   0.596   4.683   3.162 -0.1605  0.2443 -0.1090
12942SOL    HW139682   0.589   4.593   3.194 -0.9920  1.6101  4.3282
12942SOL    HW239683   0.689   4.698   3.152  0.0857 -0.7629  0.4962
12943SOL     OW39684   7.530   6.119   4.829 -0.1831  0.2925  0.1744
12943SOL    HW139685   7.496   6.205   4.804  1.7212  0.9621 -0.2835
12943SOL    HW239686   7.453   6.071   4.861 -1.0719  2.6058  1.7675
12944SOL     OW39687   4.460   2.023   2.822  0.1709  0.4073 -0.0287
12944SOL    HW139688   4.391   2.056   2.765 -0.5620  0.6764  0.9805
12944SOL    HW239689   4.440   1.930   2.833  0.7151  0.1951 -0.7512
12945SOL     OW39690   4.417   7.616   1.757  0.3151  0.3438 -0.8431
12945SOL    HW139691   4.443   7.611   1.665  1.7709  0.3632 -0.4483
12945SOL    HW239692   4.349   7.549   1.766  1.6838 -1.2081 -1.4557
12946SOL     OW39693   0.811   7.948   4.581 -0.1307 -0.2154  0.3378
12946SOL    HW139694   0.737   8.009   4.578 -0.8437 -1.0975 -1.3209
12946SOL    HW239695   0.849   7.960   4.668 -1.6274  0.9631  0.8617
12947SOL     OW39696   7.531   2.189   3.279  0.2792 -0.1125 -0.0414
12947SOL    HW139697   7.544   2.149   3.193 -0.3442 -0.3442 -0.0386
12947SOL    HW239698   7.600   2.254   3.287  0.2817 -0.0241 -0.7627
12948SOL     OW39699   2.292   3.898   6.764  0.5255  0.2198 -0.1580
12948SOL    HW139700   2.384   3.922   6.754  0.3036  0.9903 -0.4533
12948SOL    HW239701   2.277   3.831   6.697  1.1499 -0.7767  0.6616
12949SOL     OW39702   5.623   1.019   7.285  0.2490 -0.1047 -0.3298
12949SOL    HW139703   5.554   0.979   7.338  1.4778 -1.0831  0.5987
12949SOL    HW239704   5.669   0.945   7.245  0.8531  0.5235 -0.8250
12950SOL     OW39705   0.671   7.072   5.671  0.8518  0.2620  0.4868
12950SOL    HW139706   0.589   7.096   5.627  1.4727  0.5231 -0.5712
12950SOL    HW239707   0.681   7.137   5.740  1.0422  1.3504 -0.5138
12951SOL     OW39708   0.773   5.792   2.180 -0.2063  0.6650 -0.5789
12951SOL    HW139709   0.855   5.753   2.152 -0.3126 -0.2619  0.3516
12951SOL    HW239710   0.711   5.771   2.110  0.0309  0.2087 -0.6513
12952SOL     OW39711   1.624   2.319   5.605  0.4539 -0.3436  0.3371
12952SOL    HW139712   1.562   2.356   5.542  0.7691 -2.1197 -1.1063
12952SOL    HW239713   1.670   2.395   5.641 -1.8533  0.9431  0.7295
12953SOL     OW39714   7.140   5.846   2.126  0.3170  0.1312 -0.5866
12953SOL    HW139715   7.137   5.812   2.215 -1.4231 -0.3442 -0.7907
12953SOL    HW239716   7.065   5.905   2.120  0.4342  0.1882 -1.7144
12954SOL     OW39717   3.251   7.178   2.275 -0.1110 -0.5222  0.3329
12954SOL    HW139718   3.241   7.193   2.369  2.5933  0.5521  0.5326
12954SOL    HW239719   3.234   7.085   2.264 -0.3359 -0.6966  1.8959
12955SOL     OW39720   2.725   0.369   3.931  0.1354 -0.6312  0.2902
12955SOL    HW139721   2.815   0.399   3.942 -0.6112  2.9147 -1.5885
12955SOL    HW239722   2.730   0.299   3.867  1.5885 -0.8733  0.6435
12956SOL     OW39723   6.997   7.250   7.055 -0.3191  0.5182  0.0278
12956SOL    HW139724   7.068   7.312   7.040 -1.6903  1.5703 -2.9546
12956SOL    HW239725   6.917   7.301   7.039 -1.5973 -1.3957 -0.0515
12957SOL     OW39726   1.861   6.754   0.872 -0.1005 -0.2112 -0.2069
12957SOL    HW139727   1.843   6.752   0.778 -0.8903 -0.3682 -0.0603
12957SOL    HW239728   1.916   6.832   0.884  2.1923 -1.5876 -1.1470
12958SOL     OW39729   1.820   6.699   6.829  0.2086 -0.1922 -0.3275
12958SOL    HW139730   1.770   6.751   6.766  1.5034  0.9515 -0.4635
12958SOL    HW239731   1.755   6.642   6.871 -0.9235  0.1185 -1.5948
12959SOL     OW39732   3.669   5.754   0.653 -0.3594  0.0851  0.0013
12959SOL    HW139733   3.629   5.668   0.637 -0.9944  0.1915  0.9565
12959SOL    HW239734   3.762   5.735   0.665 -0.1039 -0.1936 -1.9807
12960SOL     OW39735   3.736   6.192   2.412  0.0323 -0.5899 -0.7065
12960SOL    HW139736   3.802   6.226   2.473 -0.7272 -0.1712 -0.1036
12960SOL    HW239737   3.677   6.265   2.398  0.7554 -0.3374 -2.7854
12961SOL     OW39738   6.479   6.747   3.733 -0.1819 -0.2304  0.1549
12961SOL    HW139739   6.507   6.663   3.696  2.3498  0.8478 -0.6047
12961SOL    HW239740   6.522   6.751   3.818  2.5433  1.6293 -1.1855
12962SOL     OW39741   6.804   7.594   2.108 -0.0786 -0.6039 -0.1301
12962SOL    HW139742   6.740   7.596   2.036 -1.4532  1.2787  1.0342
12962SOL    HW239743   6.768   7.531   2.171  0.5426 -1.3996 -0.5436
12963SOL     OW39744   1.588   2.184   0.839  0.1247  0.0947 -0.1677
12963SOL    HW139745   1.616   2.247   0.772 -0.1579  0.0187 -0.3620
12963SOL    HW239746   1.641   2.205   0.916  0.4606  0.1788 -0.4191
12964SOL     OW39747   1.626   7.660   7.658  0.1160  0.3331 -0.4650
12964SOL    HW139748   1.718   7.636   7.649 -0.1708 -0.9436 -0.2231
12964SOL    HW239749   1.579   7.581   7.632 -0.9260  1.1443 -1.1028
12965SOL     OW39750   3.467   4.649   4.760 -0.2980  0.1622  0.3930
12965SOL    HW139751   3.461   4.650   4.664  0.9090 -1.1535  0.2822
12965SOL    HW239752   3.509   4.733   4.782 -0.3753  0.3737 -0.2350
12966SOL     OW39753   4.272   6.197   1.310  0.4199 -0.0993 -0.2555
12966SOL    HW139754   4.345   6.143   1.342 -0.2958 -1.5271 -0.9275
12966SOL    HW239755   4.193   6.148   1.334 -0.3585  1.5359  0.6694
12967SOL     OW39756   2.422   2.887   4.235  0.1689 -0.2874  0.2357
12967SOL    HW139757   2.429   2.807   4.182  1.1688  0.4952 -0.8671
12967SOL    HW239758   2.352   2.937   4.194  0.1972 -0.1698  0.3303
12968SOL     OW39759   4.872   0.339   2.412  0.6295 -0.5606  0.4754
12968SOL    HW139760   4.856   0.426   2.374  0.4038 -0.6544  0.3569
12968SOL    HW239761   4.791   0.317   2.457  1.1947 -0.0701  1.7612
12969SOL     OW39762   4.211   0.886   6.275  0.0444  0.0267  0.1887
12969SOL    HW139763   4.182   0.927   6.357 -3.1567  1.7086 -1.6008
12969SOL    HW239764   4.134   0.839   6.243  0.9581  0.0253 -2.2300
12970SOL     OW39765   7.783   1.724   0.774  0.0050 -0.4365  0.2049
12970SOL    HW139766   7.853   1.787   0.757 -0.9730  0.6897  0.2230
12970SOL    HW239767   7.779   1.671   0.695 -0.2687  0.6159 -0.4987
12971SOL     OW39768   5.005   5.607   1.083 -0.1474  0.0095  0.6226
12971SOL    HW139769   4.982   5.519   1.053  0.6465 -0.6218  1.7680
12971SOL    HW239770   5.015   5.658   1.002 -0.7622 -0.9111 -0.0550
12972SOL     OW39771   1.946   7.065   5.424 -0.1027 -0.2254  0.4241
12972SOL    HW139772   2.036   7.033   5.427  1.1186  2.9260  0.4354
12972SOL    HW239773   1.925   7.069   5.330 -0.5007 -1.5123  0.4371
12973SOL     OW39774   5.151   7.846   5.979 -0.2551  0.2599  0.0286
12973SOL    HW139775   5.082   7.781   5.992 -2.7672  2.8723  0.9414
12973SOL    HW239776   5.192   7.856   6.065 -0.9005  0.9041  0.2718
12974SOL     OW39777   5.793   6.599   1.060  0.1212 -0.2630 -0.2711
12974SOL    HW139778   5.854   6.648   1.004  1.9050 -2.7931 -0.7035
12974SOL    HW239779   5.849   6.561   1.127 -1.4724 -0.3244  1.0725
12975SOL     OW39780   3.411   2.615   4.612 -0.5763 -0.0835 -0.1867
12975SOL    HW139781   3.338   2.601   4.553 -0.3466  1.2610 -0.8372
12975SOL    HW239782   3.472   2.671   4.563 -0.2419  0.8416  1.1921
12976SOL     OW39783   6.000   1.511   3.225  0.6330  0.3764 -0.7259
12976SOL    HW139784   6.071   1.451   3.249 -1.0376 -1.2633  0.2881
12976SOL    HW239785   5.943   1.460   3.168 -0.1929  1.3956 -0.8452
12977SOL     OW39786   6.135   5.086   3.316  0.3734 -0.3784 -0.4874
12977SOL    HW139787   6.174   5.008   3.355 -1.1602 -0.6473  0.6224
12977SOL    HW239788   6.052   5.055   3.279 -0.3311  0.7255  0.0996
12978SOL     OW39789   4.853   1.120   6.267 -0.0039 -0.5015 -0.1782
12978SOL    HW139790   4.757   1.115   6.260 -0.2912  3.1035 -1.0015
12978SOL    HW239791   4.885   1.097   6.180 -0.4819  1.9022 -1.0629
12979SOL     OW39792   0.712   0.485   6.480  0.0266  0.5294  0.1062
12979SOL    HW139793   0.647   0.442   6.425 -0.9188  3.2098 -1.0560
12979SOL    HW239794   0.762   0.540   6.420  1.6590  0.5365  1.3813
12980SOL     OW39795   5.562   6.224   5.672  0.8114  0.1091 -0.2659
12980SOL    HW139796   5.654   6.250   5.665  0.6855  0.4340 -0.7015
12980SOL    HW239797   5.513   6.305   5.658  0.4711  0.1785  1.1354
12981SOL     OW39798   5.370   3.706   0.363 -0.4479  0.4410 -0.4975
12981SOL    HW139799   5.400   3.689   0.273  1.7806 -0.6938  0.3909
12981SOL    HW239800   5.436   3.666   0.418 -2.6086 -0.3428  1.6973
12982SOL     OW39801   3.943   2.981   2.430 -0.0498 -0.2678  0.2631
12982SOL    HW139802   4.003   2.921   2.474  0.2732 -0.3051 -0.2229
12982SOL    HW239803   3.866   2.928   2.410  0.8592 -0.9578 -1.5845
12983SOL     OW39804   5.750   5.880   7.661 -0.1539 -0.5199 -0.0156
12983SOL    HW139805   5.835   5.889   7.618 -0.2480 -0.6338 -0.2256
12983SOL    HW239806   5.766   5.821   7.735  0.1981  0.3580  0.6275
12984SOL     OW39807   6.712   4.266   5.697  0.0088 -0.0647 -0.4123
12984SOL    HW139808   6.646   4.331   5.721 -0.6669 -0.8698 -0.0472
12984SOL    HW239809   6.796   4.309   5.713 -0.3422 -0.4784  3.4262
12985SOL     OW39810   5.133   1.831   5.121  0.6165  0.5353 -0.2428
12985SOL    HW139811   5.200   1.768   5.148  0.0383 -0.4807 -1.1077
12985SOL    HW239812   5.050   1.786   5.136  0.2267  0.6078 -1.9600
12986SOL     OW39813   0.819   0.899   0.349 -0.1800  0.3967 -0.4348
12986SOL    HW139814   0.802   0.836   0.419 -0.8229  0.2832 -0.6867
12986SOL    HW239815   0.793   0.983   0.385  1.3730  0.6574  0.1693
12987SOL     OW39816   5.152   6.792   5.912 -0.0435  0.0146 -0.1869
12987SOL    HW139817   5.195   6.707   5.912 -0.2167 -0.0733  0.2317
12987SOL    HW239818   5.161   6.824   5.822  0.3246 -0.2915 -0.2604
12988SOL     OW39819   6.056   7.560   5.756 -0.3789  0.2566  0.3218
12988SOL    HW139820   6.078   7.511   5.677 -0.2773  0.0620  0.4732
12988SOL    HW239821   6.085   7.650   5.737  1.6919 -0.2346  1.0019
12989SOL     OW39822   0.069   6.586   4.020  0.0254  0.7113 -0.1096
12989SOL    HW139823   0.079   6.681   4.013  0.4991  0.6371 -0.5067
12989SOL    HW239824   0.157   6.553   4.034 -0.4194  0.5147  2.8000
12990SOL     OW39825   6.203   2.886   5.381 -0.0582  0.5687 -0.4296
12990SOL    HW139826   6.188   2.825   5.308  2.2760 -0.2060 -0.3592
12990SOL    HW239827   6.180   2.972   5.346 -1.9321 -0.1297 -1.0456
12991SOL     OW39828   0.246   0.546   3.373 -0.2604 -0.4287 -0.2618
12991SOL    HW139829   0.244   0.621   3.433 -1.2877 -1.7790  1.5271
12991SOL    HW239830   0.338   0.519   3.373 -0.2675 -0.5469  0.9620
12992SOL     OW39831   2.857   0.663   3.282  0.1001 -0.1572  0.3844
12992SOL    HW139832   2.936   0.654   3.336  1.7254  0.0719 -1.7725
12992SOL    HW239833   2.887   0.712   3.205 -1.4612 -2.3835 -1.8178
12993SOL     OW39834   3.176   1.575   3.186 -0.1262  0.0262 -0.3138
12993SOL    HW139835   3.139   1.502   3.236 -0.8349  1.7961  1.9118
12993SOL    HW239836   3.120   1.581   3.108 -0.3390 -1.5034 -0.3079
12994SOL     OW39837   3.993   6.293   4.465  0.4293  0.5762  0.0846
12994SOL    HW139838   3.961   6.204   4.451  0.4585  0.6051 -0.1723
12994SOL    HW239839   4.088   6.284   4.473  0.4650  0.6221 -0.2718
12995SOL     OW39840   7.451   4.948   2.317  0.3909  0.1577 -0.0355
12995SOL    HW139841   7.365   4.957   2.276  0.8189 -1.9730 -1.6202
12995SOL    HW239842   7.513   4.967   2.246  1.1755 -1.6254  0.1141
12996SOL     OW39843   2.985   0.260   7.903  0.3259  0.0301  0.5434
12996SOL    HW139844   2.972   0.354   7.910 -1.1893 -0.1546  0.5639
12996SOL    HW239845   2.906   0.222   7.942  0.5866 -1.2305 -0.1040
12997SOL     OW39846   2.566   2.592   5.823 -0.2141  0.4398  0.3865
12997SOL    HW139847   2.582   2.687   5.825  0.8056  0.2901  0.2220
12997SOL    HW239848   2.471   2.583   5.816 -0.5127  1.4305  2.4618
12998SOL     OW39849   2.321   6.624   3.648 -0.0098  0.5390  0.3276
12998SOL    HW139850   2.250   6.584   3.598 -0.6196  2.6318 -0.5716
12998SOL    HW239851   2.372   6.550   3.681 -0.6137 -0.9700 -1.9237
12999SOL     OW39852   4.570   2.231   2.150 -0.2069  0.4079  0.0815
12999SOL    HW139853   4.640   2.271   2.200  1.4927  0.7975 -2.4016
12999SOL    HW239854   4.505   2.205   2.215  1.9270  0.6244  2.4443
13000SOL     OW39855   6.700   2.079   0.587  0.6031  0.1434 -0.4466
13000SOL    HW139856   6.745   1.996   0.571  1.9076  0.5722  0.8386
13000SOL    HW239857   6.643   2.062   0.662  1.4794  0.5995  0.3420
13001SOL     OW39858   0.630   2.127   2.711 -0.5450 -0.5843 -0.6294
13001SOL    HW139859   0.651   2.200   2.654  1.6270  0.0470  0.8426
13001SOL    HW239860   0.683   2.054   2.678 -0.1374 -0.5286 -0.1167
13002SOL     OW39861   0.293   3.447   5.131  0.1744 -0.0446  0.1914
13002SOL    HW139862   0.323   3.357   5.115 -1.8503 -0.6281 -0.6926
13002SOL    HW239863   0.285   3.485   5.043 -2.2339 -0.1778  0.2918
13003SOL     OW39864   0.739   1.917   7.097  0.2274 -0.1511  0.6389
13003SOL    HW139865   0.826   1.885   7.120  0.3735  0.2215  0.6116
13003SOL    HW239866   0.680   1.872   7.157  0.3723 -0.8445  0.2772
13004SOL     OW39867   5.367   1.754   4.804  0.2347  0.0719  0.0019
13004SOL    HW139868   5.290   1.812   4.799 -0.0899 -0.4511 -1.8313
13004SOL    HW239869   5.396   1.760   4.895 -2.9312 -0.9052  1.2183
13005SOL     OW39870   4.107   6.407   2.329 -0.2674 -0.2980 -0.2732
13005SOL    HW139871   4.142   6.351   2.259  2.2392  1.0420 -0.2093
13005SOL    HW239872   4.177   6.470   2.346 -1.8504  1.0448  1.6620
13006SOL     OW39873   3.022   7.326   7.850 -0.3318  0.0768 -0.1080
13006SOL    HW139874   3.039   7.371   7.768  3.1481  0.2277  0.5566
13006SOL    HW239875   2.999   7.396   7.912 -0.9728  0.1808 -0.4521
13007SOL     OW39876   7.395   3.307   1.973 -0.0666  0.0335  0.6044
13007SOL    HW139877   7.479   3.298   1.927 -1.5857 -0.9214 -2.2607
13007SOL    HW239878   7.360   3.390   1.941 -0.5343  0.0768  1.2169
13008SOL     OW39879   5.376   2.396   3.606 -0.1811 -0.0794  0.3963
13008SOL    HW139880   5.351   2.342   3.681  2.2095 -1.1306  0.5003
13008SOL    HW239881   5.351   2.345   3.529 -0.2373 -0.1646  0.4714
13009SOL     OW39882   6.329   6.629   4.909  0.5977 -0.2482  0.2076
13009SOL    HW139883   6.319   6.576   4.988 -0.4335  0.0095  0.2638
13009SOL    HW239884   6.241   6.661   4.891  0.9706  0.3380 -0.6009
13010SOL     OW39885   2.682   2.510   4.497  0.0091  0.0252 -0.3766
13010SOL    HW139886   2.765   2.553   4.517  0.8091 -1.4353 -0.3714
13010SOL    HW239887   2.653   2.549   4.415  1.4655 -0.4419 -1.1562
13011SOL     OW39888   7.866   3.979   1.350 -0.7112  0.3361 -0.8242
13011SOL    HW139889   7.791   3.953   1.298 -1.5373  0.8908  0.0554
13011SOL    HW239890   7.896   3.898   1.391 -2.8854  0.5420  1.4138
13012SOL     OW39891   3.541   0.131   1.758 -0.3062  0.2889  0.1228
13012SOL    HW139892   3.523   0.038   1.750  0.6634  0.1760 -0.9548
13012SOL    HW239893   3.473   0.164   1.817 -1.9040 -0.7196 -1.0930
13013SOL     OW39894   1.835   3.436   1.671 -0.0991 -0.3845 -0.2535
13013SOL    HW139895   1.759   3.489   1.692 -0.5197 -0.9727 -0.2717
13013SOL    HW239896   1.809   3.386   1.593 -0.4440 -2.0800  0.8900
13014SOL     OW39897   3.596   6.172   4.113  0.0144 -0.5602 -0.0940
13014SOL    HW139898   3.522   6.232   4.098 -0.4535 -1.3056 -0.8263
13014SOL    HW239899   3.583   6.140   4.202  1.1724  1.6414  0.9503
13015SOL     OW39900   7.180   2.314   1.356  0.1653 -0.0823 -0.1115
13015SOL    HW139901   7.180   2.406   1.331  1.6844 -0.2812 -0.9879
13015SOL    HW239902   7.088   2.290   1.362 -0.2456  1.1371 -1.2058
13016SOL     OW39903   2.168   0.213   7.941 -0.3388 -0.6237 -0.2278
13016SOL    HW139904   2.118   0.232   7.862  1.8504 -2.7063 -2.3150
13016SOL    HW239905   2.112   0.155   7.993 -1.1343 -0.6807 -1.1407
13017SOL     OW39906   4.400   0.655   2.088  0.4952  0.3246 -0.1506
13017SOL    HW139907   4.306   0.646   2.075  0.6873 -0.2244 -1.2299
13017SOL    HW239908   4.421   0.589   2.154  0.1632  0.2782 -0.0888
13018SOL     OW39909   3.235   7.828   0.204 -0.2093 -0.4123 -0.4043
13018SOL    HW139910   3.202   7.747   0.242 -2.6334  0.2335 -0.9855
13018SOL    HW239911   3.236   7.811   0.110  0.3597 -0.1354 -0.4513
13019SOL     OW39912   6.697   6.337   6.809  0.4738 -0.1090  0.3121
13019SOL    HW139913   6.657   6.268   6.862  0.0974 -0.1767 -0.0491
13019SOL    HW239914   6.632   6.407   6.808  0.6359  0.0411  0.2500
13020SOL     OW39915   1.062   2.617   5.464 -0.3228 -0.0496 -0.1350
13020SOL    HW139916   0.976   2.579   5.480 -1.3145  2.0064 -0.3093
13020SOL    HW239917   1.055   2.708   5.492  1.5499  0.3976 -0.9167
13021SOL     OW39918   5.102   1.499   7.080 -0.3539  0.1431 -0.4676
13021SOL    HW139919   5.196   1.505   7.064 -0.6209  2.5799 -1.5473
13021SOL    HW239920   5.094   1.497   7.176  0.7636  0.4084 -0.3553
13022SOL     OW39921   1.340   6.195   3.071 -0.2238 -0.4657  0.1463
13022SOL    HW139922   1.246   6.192   3.089 -0.2457 -0.2823  0.0646
13022SOL    HW239923   1.355   6.282   3.036 -0.0122 -0.4755  0.2110
13023SOL     OW39924   7.307   5.658   0.136  0.0064 -0.4386 -0.0580
13023SOL    HW139925   7.286   5.566   0.121 -0.7033 -0.4489  0.8807
13023SOL    HW239926   7.336   5.691   0.051 -0.4502 -1.3470 -0.5766
13024SOL     OW39927   1.700   2.646   6.955 -0.3438 -0.3782  0.2836
13024SOL    HW139928   1.663   2.574   6.904 -1.0718 -1.8588  2.7138
13024SOL    HW239929   1.637   2.658   7.027  0.5321  1.7022  0.7633
13025SOL     OW39930   0.077   0.123   3.734 -0.0711  0.2846 -0.4280
13025SOL    HW139931   0.090   0.091   3.644 -0.6569  1.4923 -0.9624
13025SOL    HW239932  -0.008   0.167   3.731 -0.8770 -1.0479  1.1368
13026SOL     OW39933   1.723   5.432   4.715 -0.4812  0.0252  0.3409
13026SOL    HW139934   1.713   5.359   4.654 -1.1314  1.1522 -0.9540
13026SOL    HW239935   1.815   5.456   4.710 -0.1956 -0.9047  1.0210
13027SOL     OW39936   3.332   2.730   1.861  0.4817 -0.2736 -0.0822
13027SOL    HW139937   3.293   2.747   1.775 -1.0321  2.2486  1.0033
13027SOL    HW239938   3.260   2.695   1.914  0.6026  0.9061  0.9144
13028SOL     OW39939   3.479   0.075   5.732  0.5621 -1.0233 -0.1814
13028SOL    HW139940   3.499   0.152   5.678  0.7002 -0.4863  0.6153
13028SOL    HW239941   3.541   0.008   5.703 -1.9622 -2.1651 -3.5452
13029SOL     OW39942   5.323   5.443   0.869 -0.3822 -0.5943  0.0025
13029SOL    HW139943   5.278   5.526   0.886  0.5649 -0.2326  0.8246
13029SOL    HW239944   5.309   5.427   0.775  0.2771  1.0252 -0.4097
13030SOL     OW39945   1.072   4.712   6.658 -0.9195 -0.2654 -0.5318
13030SOL    HW139946   1.027   4.768   6.721 -0.0761 -1.8197  1.5509
13030SOL    HW239947   1.003   4.662   6.616 -1.5580  1.2946 -1.4545
13031SOL     OW39948   2.513   6.275   4.211  0.2199 -0.0904  0.2400
13031SOL    HW139949   2.485   6.187   4.186  0.7072  0.1342 -1.1728
13031SOL    HW239950   2.445   6.332   4.175  0.8869  0.2312 -0.5465
13032SOL     OW39951   7.752   3.848   6.507  0.0834 -0.3209  0.4035
13032SOL    HW139952   7.671   3.810   6.542  0.6752 -3.0073 -0.8302
13032SOL    HW239953   7.723   3.918   6.449 -1.4387 -1.4817 -0.3211
13033SOL     OW39954   2.904   6.681   4.955 -0.4033 -0.0561  0.4070
13033SOL    HW139955   2.827   6.727   4.921 -0.3487  0.3901  0.8823
13033SOL    HW239956   2.928   6.620   4.885 -0.3382  0.7927 -0.3230
13034SOL     OW39957   4.017   1.881   2.044 -0.1827  0.6387 -0.5703
13034SOL    HW139958   3.959   1.958   2.038  2.0863  2.4662 -0.3460
13034SOL    HW239959   4.102   1.917   2.069  1.2488 -1.8511 -1.5276
13035SOL     OW39960   1.879   4.289   3.103 -0.5946 -0.5321  0.3983
13035SOL    HW139961   1.948   4.311   3.040 -1.8225  0.5860 -0.6047
13035SOL    HW239962   1.850   4.202   3.077  0.1387 -0.8373  0.5740
13036SOL     OW39963   7.533   3.599   0.851  0.2116  0.3451  0.5106
13036SOL    HW139964   7.584   3.678   0.829  0.9212  0.2805  1.8270
13036SOL    HW239965   7.476   3.626   0.923  0.2561 -0.2627  0.7814
13037SOL     OW39966   2.674   7.001   6.909  0.4167  0.0340 -0.1053
13037SOL    HW139967   2.706   7.087   6.936 -0.7656  0.8589 -1.2328
13037SOL    HW239968   2.752   6.945   6.912  1.4596  1.4066 -0.4766
13038SOL     OW39969   6.896   1.351   4.821 -0.1341  0.2379 -0.3969
13038SOL    HW139970   6.883   1.324   4.730  0.7851 -1.1509 -0.1678
13038SOL    HW239971   6.991   1.344   4.834 -0.0551  2.0038  0.2249
13039SOL     OW39972   7.766   2.702   6.415 -0.1905 -0.0557  0.1352
13039SOL    HW139973   7.738   2.612   6.430 -0.2454 -0.1571 -0.5380
13039SOL    HW239974   7.703   2.737   6.352 -0.2465  0.5007  0.4814
13040SOL     OW39975   7.909   0.000   7.036  0.2786  0.0277  0.3523
13040SOL    HW139976   7.877   0.084   7.070 -1.4648 -0.3762 -0.2005
13040SOL    HW239977   7.923  -0.054   7.114 -2.4121 -0.4465  0.6068
13041SOL     OW39978   4.349   4.812   2.233 -0.4576 -0.4266 -0.2412
13041SOL    HW139979   4.272   4.865   2.254  0.9432  1.6592 -0.0696
13041SOL    HW239980   4.313   4.726   2.210 -2.6952 -0.2045  1.9106
13042SOL     OW39981   3.793   4.209   1.053  0.1149  0.6300  0.0793
13042SOL    HW139982   3.883   4.179   1.064 -0.4837 -2.2677 -1.6646
13042SOL    HW239983   3.800   4.302   1.031  2.7194  0.3034 -0.7366
13043SOL     OW39984   6.850   0.685   0.052  0.3981 -0.5058 -0.3059
13043SOL    HW139985   6.761   0.652   0.040 -0.1286  1.1447 -1.2781
13043SOL    HW239986   6.849   0.727   0.138  0.4074 -0.9802 -0.0716
13044SOL     OW39987   6.473   4.596   5.789 -0.0821 -0.0255 -0.4332
13044SOL    HW139988   6.478   4.586   5.694  0.9110  0.7773 -0.4834
13044SOL    HW239989   6.548   4.651   5.811 -1.0347  0.8927  0.6600
13045SOL     OW39990   3.824   3.759   7.201 -0.0768 -0.7373  0.1119
13045SOL    HW139991   3.824   3.853   7.216 -0.1549 -0.6545 -0.4124
13045SOL    HW239992   3.883   3.724   7.268  2.5377 -0.0021 -1.6458
13046SOL     OW39993   1.470   5.064   1.436 -0.0116  0.1777  0.0779
13046SOL    HW139994   1.519   5.023   1.364  0.0732 -0.5153  0.5206
13046SOL    HW239995   1.385   5.020   1.436 -0.1203  0.3892  0.2014
13047SOL     OW39996   2.315   0.770   2.499 -0.3878  0.0602  0.2866
13047SOL    HW139997   2.384   0.761   2.433  0.4611 -1.9369  1.3559
13047SOL    HW239998   2.236   0.787   2.448  0.5547  0.4714 -1.1059
13048SOL     OW39999   6.780   5.221   7.721 -0.0451  0.2119  0.2868
13048SOL    HW140000   6.688   5.193   7.725 -0.2140  0.7671  0.3150
13048SOL    HW240001   6.818   5.171   7.649 -0.5058  0.3802 -0.0724
13049SOL     OW40002   5.348   6.566   3.776  0.1222  0.3178  0.0649
13049SOL    HW140003   5.391   6.640   3.819  0.7723  0.9227 -1.5662
13049SOL    HW240004   5.266   6.603   3.742  0.8809  0.5756 -1.5738
13050SOL     OW40005   3.057   1.828   2.758 -0.0182 -0.1917  0.1959
13050SOL    HW140006   3.060   1.775   2.678  1.4018  2.2166 -1.4826
13050SOL    HW240007   2.964   1.838   2.777 -0.4292  0.1404 -1.8454
13051SOL     OW40008   0.566   3.799   0.971 -0.1612 -0.3023 -0.1412
13051SOL    HW140009   0.554   3.885   0.931  0.6907  0.5378  1.3402
13051SOL    HW240010   0.477   3.768   0.986 -0.4813  0.3056 -0.7271
13052SOL     OW40011   4.690   6.853   0.217 -0.3715 -0.4435 -0.0278
13052SOL    HW140012   4.691   6.827   0.309  2.0357 -0.4042  0.0418
13052SOL    HW240013   4.672   6.772   0.168  0.3214 -0.8804  0.4267
13053SOL     OW40014   1.808   6.436   3.480  0.2145 -0.8327  0.2562
13053SOL    HW140015   1.830   6.467   3.392 -1.2016  0.1682  0.2188
13053SOL    HW240016   1.767   6.351   3.467 -2.6086  0.5074 -0.4041
13054SOL     OW40017   2.511   1.420   7.319 -0.2903  0.0407  0.1930
13054SOL    HW140018   2.586   1.378   7.361 -0.2909  0.4815  0.6426
13054SOL    HW240019   2.487   1.360   7.248  0.4633 -0.1196  0.0650
13055SOL     OW40020   4.655   3.171   1.170 -0.0213 -0.3879 -0.0842
13055SOL    HW140021   4.663   3.185   1.075 -1.1494 -0.7148 -0.2422
13055SOL    HW240022   4.639   3.257   1.206  0.1098 -0.3027 -0.2269
13056SOL     OW40023   5.862   7.707   3.194  0.0980 -0.6316  0.4166
13056SOL    HW140024   5.852   7.802   3.182 -0.2165 -0.4388  2.0062
13056SOL    HW240025   5.956   7.693   3.191  0.2306 -0.0659  1.4324
13057SOL     OW40026   2.958   7.965   4.758 -0.8104 -0.5105  0.2412
13057SOL    HW140027   3.033   8.001   4.806 -1.3862  0.9005  0.1316
13057SOL    HW240028   2.987   7.963   4.667 -1.2020  0.9365  0.0603
13058SOL     OW40029   5.611   1.507   0.893  0.3727  0.3013 -0.2682
13058SOL    HW140030   5.558   1.463   0.959 -0.5134 -0.3135 -1.3596
13058SOL    HW240031   5.548   1.545   0.832  1.1651  0.5875 -0.9312
13059SOL     OW40032   3.020   1.821   6.628 -0.0235 -0.0899 -0.0566
13059SOL    HW140033   2.972   1.787   6.703 -1.2090 -0.5056 -0.9819
13059SOL    HW240034   3.035   1.745   6.572  1.3746  0.1076  0.0077
13060SOL     OW40035   5.072   2.354   6.367 -0.0422  0.5987  0.5627
13060SOL    HW140036   5.153   2.396   6.394  0.1322 -0.0954  1.1656
13060SOL    HW240037   5.076   2.267   6.407 -1.0831  0.5531  0.5914
13061SOL     OW40038   6.368   6.596   0.806 -0.1756 -0.5031 -0.3457
13061SOL    HW140039   6.405   6.512   0.776  0.4709  0.2066 -1.6298
13061SOL    HW240040   6.444   6.655   0.810 -0.7858  0.3095 -0.5458
13062SOL     OW40041   1.883   2.667   3.255 -0.3589  0.8074 -0.6241
13062SOL    HW140042   1.802   2.653   3.304 -1.3285  0.4557 -2.2541
13062SOL    HW240043   1.910   2.580   3.227  0.8181  0.8783  0.2254
13063SOL     OW40044   5.943   3.349   2.073  0.4863  0.1600  0.0732
13063SOL    HW140045   6.037   3.333   2.081  0.3636 -0.2213  0.8146
13063SOL    HW240046   5.937   3.428   2.018  1.2810  0.8881  0.9957
13064SOL     OW40047   3.285   2.812   3.701  0.4292  0.0161 -0.1946
13064SOL    HW140048   3.339   2.889   3.684 -0.0523  0.4355  0.1896
13064SOL    HW240049   3.207   2.825   3.648  0.7465 -0.6563 -0.8512
13065SOL     OW40050   0.556   6.725   6.535  0.2541  0.0762 -0.1086
13065SOL    HW140051   0.544   6.740   6.441  0.2780 -1.5702 -0.3984
13065SOL    HW240052   0.648   6.700   6.544  0.1795 -0.0478  0.3222
13066SOL     OW40053   0.484   5.013   6.056 -0.0881  0.0435  0.1412
13066SOL    HW140054   0.528   4.965   5.986 -1.3273 -1.3419  0.2549
13066SOL    HW240055   0.421   5.068   6.010  0.2317  0.3603  0.0837
13067SOL     OW40056   4.625   5.039   6.581  0.3525 -0.6989 -0.1670
13067SOL    HW140057   4.705   5.036   6.528  1.2158  1.0148  0.9656
13067SOL    HW240058   4.656   5.048   6.671 -1.1134  0.0060  0.2970
13068SOL     OW40059   3.703   4.584   0.377 -0.4569 -0.3896 -0.3085
13068SOL    HW140060   3.608   4.570   0.370 -0.3655 -0.7738 -0.8323
13068SOL    HW240061   3.716   4.615   0.466 -1.2167  0.7371 -0.5649
13069SOL     OW40062   1.208   5.440   7.343  0.3969  0.7992  0.6693
13069SOL    HW140063   1.118   5.473   7.346  0.0090  0.0646 -1.3988
13069SOL    HW240064   1.219   5.393   7.426 -1.7142 -0.4895  0.2771
13070SOL     OW40065   1.789   7.997   7.458  0.6885 -0.1797  0.2044
13070SOL    HW140066   1.791   7.973   7.550  1.7715  0.4746  0.3724
13070SOL    HW240067   1.696   8.003   7.436  0.4220 -0.2470  1.2785
13071SOL     OW40068   5.406   4.752   7.918 -0.6449 -0.8339  0.1622
13071SOL    HW140069   5.319   4.780   7.946  0.6408  0.2326  3.5471
13071SOL    HW240070   5.446   4.831   7.883  0.2513 -0.2706  2.3232
13072SOL     OW40071   3.453   4.279   3.073 -0.0203 -0.0031 -0.4585
13072SOL    HW140072   3.431   4.343   3.006 -0.9401 -0.2380 -0.3934
13072SOL    HW240073   3.393   4.298   3.146  0.4591 -0.2251  0.0019
13073SOL     OW40074   1.509   4.889   6.122 -0.5270  0.1841  0.4306
13073SOL    HW140075   1.503   4.878   6.027  0.1449 -1.2805  0.5321
13073SOL    HW240076   1.603   4.893   6.140 -0.6021 -0.8555  1.1431
13074SOL     OW40077   7.038   2.632   6.841 -0.1523  1.0702 -0.1937
13074SOL    HW140078   7.033   2.727   6.852 -1.2558  1.1350 -0.9601
13074SOL    HW240079   7.070   2.599   6.925  1.4970  2.1968 -0.3322
13075SOL     OW40080   6.323   7.387   6.908 -0.5040 -0.1013  0.0800
13075SOL    HW140081   6.302   7.300   6.874 -0.8793  0.7842 -2.1484
13075SOL    HW240082   6.266   7.446   6.859 -0.4758  1.3945  1.7554
13076SOL     OW40083   6.511   0.270   4.141 -0.1855 -0.5919 -0.3628
13076SOL    HW140084   6.452   0.345   4.135  0.1775 -0.3217 -0.5765
13076SOL    HW240085   6.596   0.308   4.161  0.1553 -0.8819 -1.2205
13077SOL     OW40086   3.323   3.094   3.748 -0.3827 -0.1693  0.2355
13077SOL    HW140087   3.302   3.124   3.836 -0.1591  1.9803 -0.3995
13077SOL    HW240088   3.243   3.112   3.698 -0.0635 -0.1903 -0.2830
13078SOL     OW40089   0.511   4.005   3.600  0.0232 -0.3819 -0.2928
13078SOL    HW140090   0.500   4.060   3.678 -1.9800  1.1156 -1.5328
13078SOL    HW240091   0.604   4.008   3.581  0.0464  2.4150 -0.1259
13079SOL     OW40092   3.210   2.934   7.581 -0.0856 -0.0175  0.0231
13079SOL    HW140093   3.156   2.902   7.653 -1.1238 -0.2062 -0.8228
13079SOL    HW240094   3.169   3.016   7.554  0.3388  0.0881 -0.3196
13080SOL     OW40095   6.156   3.541   2.998 -0.2882 -0.1868  0.2500
13080SOL    HW140096   6.156   3.486   3.076  1.9388 -0.7968 -0.0797
13080SOL    HW240097   6.108   3.490   2.933 -1.0216 -0.2713  0.8526
13081SOL     OW40098   5.385   1.009   2.076  0.0911  0.3035 -0.2620
13081SOL    HW140099   5.434   0.940   2.031  0.6207 -0.3119  1.2090
13081SOL    HW240100   5.372   1.076   2.009  1.8485 -0.0772 -1.0424
13082SOL     OW40101   0.196   2.045   3.593  0.3663  0.0748  0.1286
13082SOL    HW140102   0.284   2.031   3.630  0.5323  1.9022  0.5170
13082SOL    HW240103   0.167   1.957   3.567  1.9557 -0.6875  0.7706
13083SOL     OW40104   7.821   7.045   4.118  0.4085 -0.0437  0.1247
13083SOL    HW140105   7.894   7.073   4.063  1.1006 -0.1866  0.9424
13083SOL    HW240106   7.863   7.006   4.195 -0.5265  0.3246  0.8424
13084SOL     OW40107   3.414   4.914   0.964 -0.0940  0.5656  0.1492
13084SOL    HW140108   3.441   4.892   0.874 -1.1207 -1.0222  0.1906
13084SOL    HW240109   3.450   4.844   1.018 -1.4612  0.2177  0.6437
13085SOL     OW40110   5.865   5.121   4.079 -0.4406 -0.2489 -0.0778
13085SOL    HW140111   5.955   5.133   4.050 -0.3275 -0.1348  0.3031
13085SOL    HW240112   5.864   5.034   4.120 -0.9327 -1.0092 -1.6349
13086SOL     OW40113   0.035   5.210   0.125 -0.4980 -0.0082  0.8092
13086SOL    HW140114  -0.000   5.128   0.091  0.6183 -0.3622  0.4471
13086SOL    HW240115   0.010   5.276   0.061  0.3506 -0.4279  0.0261
13087SOL     OW40116   7.504   6.356   2.597  0.1847  0.2244  0.8064
13087SOL    HW140117   7.498   6.381   2.689  0.6525  0.9291  0.6573
13087SOL    HW240118   7.545   6.270   2.598 -1.8894 -0.8075  1.3547
13088SOL     OW40119   1.971   6.593   2.525 -0.1225  0.7168 -0.3984
13088SOL    HW140120   2.013   6.570   2.442  0.1087 -2.0336  0.3646
13088SOL    HW240121   2.034   6.650   2.569  2.0166 -1.6460 -0.1523
13089SOL     OW40122   0.895   2.177   2.241 -0.5399  0.1647 -0.0197
13089SOL    HW140123   0.854   2.097   2.274  0.5723 -0.7549 -0.7947
13089SOL    HW240124   0.823   2.239   2.233 -1.6330 -1.1152 -0.4808
13090SOL     OW40125   7.111   2.623   6.077 -0.7610  0.2403 -0.0787
13090SOL    HW140126   7.097   2.566   6.001 -2.3925  1.8742 -1.0806
13090SOL    HW240127   7.047   2.693   6.067  0.2705  1.5529  1.8139
13091SOL     OW40128   0.752   5.708   2.631 -0.0855  0.6533 -0.7314
13091SOL    HW140129   0.683   5.652   2.593 -0.1188  1.8486 -2.5668
13091SOL    HW240130   0.705   5.774   2.680 -0.0504 -0.7589  1.3359
13092SOL     OW40131   4.634   3.392   7.747  0.3178 -0.6226 -0.2600
13092SOL    HW140132   4.593   3.474   7.775 -0.3257  0.4467 -3.8077
13092SOL    HW240133   4.681   3.360   7.825 -1.7538  1.5712  2.0635
13093SOL     OW40134   3.212   3.035   6.650 -0.0659 -0.2865 -0.1957
13093SOL    HW140135   3.251   2.953   6.621 -0.3969 -0.5047 -0.0263
13093SOL    HW240136   3.268   3.065   6.721  0.0548 -0.3650 -0.2586
13094SOL     OW40137   7.135   0.180   4.559 -0.6585 -0.3443  0.5381
13094SOL    HW140138   7.094   0.099   4.530 -0.6580  0.3622 -1.5848
13094SOL    HW240139   7.221   0.181   4.517 -0.4448  0.5101  0.9663
13095SOL     OW40140   4.750   5.348   5.677 -0.1373 -0.2034  0.0482
13095SOL    HW140141   4.708   5.343   5.591 -0.0680  0.9478 -0.0548
13095SOL    HW240142   4.801   5.267   5.683 -0.2336 -0.3471 -0.9422
13096SOL     OW40143   6.857   0.167   3.014 -0.5844 -0.1814  0.0334
13096SOL    HW140144   6.882   0.234   3.078 -1.4312  0.3200 -0.1428
13096SOL    HW240145   6.864   0.084   3.062  0.0973  0.0625  0.3653
13097SOL     OW40146   2.349   5.375   0.820 -0.1965  0.2617 -0.1059
13097SOL    HW140147   2.352   5.398   0.727  0.1227 -2.2394 -0.7892
13097SOL    HW240148   2.372   5.282   0.823  1.5976  0.6583  2.6595
13098SOL     OW40149   4.582   1.879   5.781  0.1471  0.2736 -0.3673
13098SOL    HW140150   4.546   1.899   5.694 -0.3350  0.1463 -0.2030
13098SOL    HW240151   4.602   1.965   5.818  1.3469  0.2873 -1.0043
13099SOL     OW40152   0.658   3.034   3.774  0.0644 -0.1687 -0.3610
13099SOL    HW140153   0.563   3.027   3.767 -0.0368  0.3740  0.3149
13099SOL    HW240154   0.690   2.946   3.754 -0.6251 -0.5426  0.1280
13100SOL     OW40155   6.129   1.283   7.708 -0.2665 -0.5669 -0.0853
13100SOL    HW140156   6.164   1.255   7.792 -2.2396  0.2855  1.0994
13100SOL    HW240157   6.136   1.379   7.710  1.8374 -0.6054 -1.9474
13101SOL     OW40158   6.919   7.610   6.148  0.0162  0.5636 -0.1584
13101SOL    HW140159   6.905   7.592   6.055 -1.3575  2.8167 -0.4720
13101SOL    HW240160   6.867   7.544   6.194 -1.1244  0.8188 -1.0589
13102SOL     OW40161   1.474   1.259   1.452  0.1258 -0.1988  0.4155
13102SOL    HW140162   1.505   1.258   1.542 -0.8114  1.4817  0.7869
13102SOL    HW240163   1.385   1.292   1.457 -0.2782 -0.9572 -1.0568
13103SOL     OW40164   0.138   5.198   2.294 -0.1566  0.1637 -0.4999
13103SOL    HW140165   0.160   5.115   2.253  0.7658  0.7205 -1.1831
13103SOL    HW240166   0.132   5.260   2.221  1.2966  1.1381  0.1638
13104SOL     OW40167   3.240   2.557   0.917  0.4078 -0.1143  0.3581
13104SOL    HW140168   3.286   2.616   0.857  0.3204 -1.7158 -1.3867
13104SOL    HW240169   3.193   2.615   0.977  0.0608  1.5991 -1.4757
13105SOL     OW40170   5.636   1.116   1.152  0.0308  0.2707  0.4658
13105SOL    HW140171   5.720   1.070   1.155 -0.0496 -0.3084 -2.5382
13105SOL    HW240172   5.573   1.054   1.187  0.4980 -0.3079  0.2868
13106SOL     OW40173   2.094   0.964   7.338 -0.3728  0.2296 -0.3329
13106SOL    HW140174   2.104   1.049   7.381 -0.8145  0.9232 -1.5354
13106SOL    HW240175   2.180   0.948   7.299 -0.6427  0.7649 -1.1844
13107SOL     OW40176   0.923   5.884   6.022  0.2831 -0.0964  0.2496
13107SOL    HW140177   0.850   5.933   6.060  0.0457  1.0186 -1.5482
13107SOL    HW240178   0.883   5.825   5.959  0.8653  0.0580 -0.2782
13108SOL     OW40179   1.238   0.205   6.891  0.5245  0.4956 -0.0982
13108SOL    HW140180   1.273   0.137   6.833  1.7422  0.1779  0.9785
13108SOL    HW240181   1.143   0.197   6.882  0.5962 -1.8596  0.5514
13109SOL     OW40182   1.730   3.735   2.372  0.2913  0.4709  0.3244
13109SOL    HW140183   1.651   3.691   2.402 -0.8571  1.2008 -1.4856
13109SOL    HW240184   1.712   3.828   2.384  0.9997  0.6350  0.1793
13110SOL     OW40185   0.085   0.541   7.445 -0.4508 -0.1130 -0.5514
13110SOL    HW140186   0.044   0.560   7.529 -1.4514 -1.1913 -0.7821
13110SOL    HW240187   0.100   0.627   7.406 -0.1526  0.3889  0.6388
13111SOL     OW40188   6.537   5.674   0.052  0.0131 -0.0229  0.0388
13111SOL    HW140189   6.566   5.739   0.116 -0.1996  0.7287 -0.6235
13111SOL    HW240190   6.525   5.722  -0.029  3.0571 -1.4478 -1.3935
13112SOL     OW40191   0.306   4.708   3.233 -0.1291 -0.0980 -0.1749
13112SOL    HW140192   0.396   4.694   3.206 -0.8559 -0.3992 -2.7763
13112SOL    HW240193   0.285   4.796   3.203 -0.7491 -0.1149  0.1847
13113SOL     OW40194   2.948   4.839   1.683  0.0480  0.1712 -0.2028
13113SOL    HW140195   2.892   4.772   1.721 -0.0484 -1.3877 -2.7929
13113SOL    HW240196   2.973   4.895   1.756 -1.9436 -1.1924  1.6413
13114SOL     OW40197   1.250   5.931   0.128 -0.3726 -0.0612 -0.2542
13114SOL    HW140198   1.330   5.886   0.153 -0.4244 -0.3377 -0.5712
13114SOL    HW240199   1.188   5.912   0.199 -0.9422 -1.9712 -1.1942
13115SOL     OW40200   6.660   0.641   2.724 -0.1537  0.2930 -0.2394
13115SOL    HW140201   6.646   0.733   2.705 -0.9939  0.4306  0.9452
13115SOL    HW240202   6.657   0.598   2.638  0.3579  1.3562 -0.8180
13116SOL     OW40203   0.502   7.488   0.997 -0.3524 -0.0735 -0.1123
13116SOL    HW140204   0.425   7.480   0.940 -1.8416 -0.5351  1.8526
13116SOL    HW240205   0.515   7.401   1.033 -0.0736  0.4129  1.0047
13117SOL     OW40206   6.151   1.289   4.697  0.0181 -0.0516 -0.0268
13117SOL    HW140207   6.186   1.273   4.785  1.3380  0.6673 -0.3868
13117SOL    HW240208   6.056   1.282   4.706  0.0946  0.6281  1.5884
13118SOL     OW40209   5.566   7.238   2.086  0.0480  0.0994 -0.3216
13118SOL    HW140210   5.478   7.233   2.123  0.2247  0.4811  0.1511
13118SOL    HW240211   5.551   7.261   1.994 -0.3882 -0.8759 -0.5164
13119SOL     OW40212   2.961   5.249   4.537 -0.5954 -0.0261 -0.3121
13119SOL    HW140213   3.035   5.309   4.542 -1.3764  1.2516 -2.6205
13119SOL    HW240214   2.992   5.178   4.480 -1.4838  1.1948 -2.4277
13120SOL     OW40215   3.370   6.898   1.802  0.2542  0.1026  0.0573
13120SOL    HW140216   3.455   6.884   1.843 -0.3060  0.2002  1.3121
13120SOL    HW240217   3.323   6.816   1.816  0.6283 -0.5153 -1.9610
13121SOL     OW40218   0.117   0.574   5.967 -0.1155 -0.0231  0.0011
13121SOL    HW140219   0.155   0.623   6.041 -1.1877  0.2139  0.4094
13121SOL    HW240220   0.031   0.613   5.955 -1.3051 -2.2575  0.8002
13122SOL     OW40221   4.733   1.933   7.501  0.7019  0.1234  0.1965
13122SOL    HW140222   4.670   1.946   7.572  0.8093  0.0490  0.3067
13122SOL    HW240223   4.700   1.857   7.453  0.9628 -0.2058  0.5367
13123SOL     OW40224   1.388   4.579   3.795 -0.2978 -0.1039 -0.1886
13123SOL    HW140225   1.449   4.605   3.726  0.2378 -0.1762  0.2527
13123SOL    HW240226   1.347   4.661   3.823 -2.3147 -0.3025 -2.2184
13124SOL     OW40227   5.018   2.154   7.531  0.1654 -0.3719 -0.7106
13124SOL    HW140228   4.977   2.069   7.544  0.3612 -0.3853 -0.1578
13124SOL    HW240229   5.110   2.134   7.516  0.1860 -0.2646 -0.7255
13125SOL     OW40230   3.208   3.008   7.235  0.1370  0.5002  0.4455
13125SOL    HW140231   3.188   3.046   7.321 -0.2168 -1.3712  1.2340
13125SOL    HW240232   3.123   2.986   7.198  0.3658 -0.1377  0.2911
13126SOL     OW40233   7.077   0.290   4.025 -0.5401 -0.3217  0.3185
13126SOL    HW140234   7.023   0.369   4.030 -0.3851 -0.2864  1.9640
13126SOL    HW240235   7.026   0.223   4.071 -0.4194 -1.0624 -0.5768
13127SOL     OW40236   6.231   6.134   2.420  0.1343  0.0009  0.4861
13127SOL    HW140237   6.183   6.213   2.444 -0.2175  0.0252 -0.2512
13127SOL    HW240238   6.229   6.134   2.324  0.1502 -0.8854  0.4801
13128SOL     OW40239   4.294   1.277   7.605 -0.1379 -0.6034  1.0224
13128SOL    HW140240   4.348   1.218   7.552 -0.2918 -1.1926  1.5137
13128SOL    HW240241   4.306   1.363   7.565 -2.2807 -1.3932 -1.6515
13129SOL     OW40242   7.417   6.918   6.446 -0.0370  0.5823 -0.3527
13129SOL    HW140243   7.350   6.886   6.507  0.8124  0.7505  0.7097
13129SOL    HW240244   7.371   6.929   6.363 -1.4035  0.9897  0.4159
13130SOL     OW40245   3.833   6.183   7.030  0.4075 -0.3784  0.1745
13130SOL    HW140246   3.870   6.166   6.943 -1.0037 -0.7017 -0.3868
13130SOL    HW240247   3.743   6.152   7.024 -0.1363  0.8793  1.3235
13131SOL     OW40248   7.843   3.618   3.505 -0.0904 -0.3700 -0.5305
13131SOL    HW140249   7.858   3.664   3.422 -1.9798  3.6631  1.0782
13131SOL    HW240250   7.750   3.597   3.504  0.1566 -1.5525  0.0529
13132SOL     OW40251   2.685   4.682   0.674 -0.6078 -0.2883 -0.1111
13132SOL    HW140252   2.733   4.633   0.608  0.1068 -1.3804  1.1752
13132SOL    HW240253   2.752   4.723   0.729 -1.1469 -0.5169  0.7536
13133SOL     OW40254   3.784   2.647   1.731 -0.3157  0.3062  0.3007
13133SOL    HW140255   3.719   2.691   1.785 -2.5583 -0.3495 -1.7015
13133SOL    HW240256   3.787   2.558   1.766 -0.2156  0.4318  0.6186
13134SOL     OW40257   5.494   5.683   0.570 -0.0216  0.2017  0.2229
13134SOL    HW140258   5.526   5.755   0.516  1.1708 -0.6507 -0.2489
13134SOL    HW240259   5.547   5.686   0.650  0.7688 -0.7586 -0.2416
13135SOL     OW40260   0.033   7.356   7.998  0.2123 -0.1435 -0.3657
13135SOL    HW140261  -0.016   7.431   8.032 -0.8692 -1.6365  1.6316
13135SOL    HW240262  -0.034   7.293   7.974  1.0959 -0.4412 -2.2304
13136SOL     OW40263   6.491   5.017   8.002  0.1749  0.3528  0.6715
13136SOL    HW140264   6.581   4.995   7.978 -0.0655  0.7617 -0.6676
13136SOL    HW240265   6.442   5.008   7.921 -0.9515  0.4017  1.3326
13137SOL     OW40266   4.919   5.118   5.987  0.3031  0.5260  0.6123
13137SOL    HW140267   5.005   5.076   5.986  1.9340  3.4956  2.5582
13137SOL    HW240268   4.898   5.127   6.080 -0.5425  2.7256  0.2514
13138SOL     OW40269   1.611   2.816   2.084  0.1477  0.2691  0.2567
13138SOL    HW140270   1.542   2.883   2.074 -1.2713 -1.2995 -1.0296
13138SOL    HW240271   1.595   2.779   2.171 -1.6382 -1.0716 -0.5784
13139SOL     OW40272   5.335   1.673   6.921  0.3752  0.3544 -0.0343
13139SOL    HW140273   5.274   1.659   6.993 -0.1907  0.9046 -0.4019
13139SOL    HW240274   5.352   1.767   6.921  0.1070  0.4100 -0.8284
13140SOL     OW40275   2.342   0.752   6.003 -0.1579  0.1305  0.0914
13140SOL    HW140276   2.253   0.768   5.972 -0.5489 -0.9096  0.6450
13140SOL    HW240277   2.396   0.754   5.924 -1.1866 -2.8862 -0.8193
13141SOL     OW40278   7.043   0.405   7.311  0.3526  0.1685 -0.6581
13141SOL    HW140279   6.984   0.409   7.236 -0.1322  1.2481 -0.2355
13141SOL    HW240280   7.033   0.490   7.354  0.0125 -0.7267  1.1092
13142SOL     OW40281   4.439   7.754   4.630 -0.2723  0.0467  0.0520
13142SOL    HW140282   4.397   7.831   4.592  1.8007  1.6594  0.8298
13142SOL    HW240283   4.434   7.768   4.725 -0.3219 -1.0477  0.2236
13143SOL     OW40284   5.568   7.973   1.143 -0.4061 -0.1314 -0.0804
13143SOL    HW140285   5.559   8.051   1.088  0.5066  1.1242  1.4128
13143SOL    HW240286   5.662   7.956   1.145 -0.4865 -0.5509  0.5403
13144SOL     OW40287   0.039   3.488   1.744  0.4967 -0.3878  0.6775
13144SOL    HW140288   0.104   3.422   1.769  0.5872  0.0027  1.5309
13144SOL    HW240289   0.018   3.468   1.653  3.3563  0.6821 -0.3531
13145SOL     OW40290   6.423   5.395   1.420 -0.4014  0.0682 -0.3941
13145SOL    HW140291   6.502   5.445   1.400 -0.3609 -0.3920 -1.4405
13145SOL    HW240292   6.392   5.363   1.335 -0.8051 -1.1130  0.1697
13146SOL     OW40293   4.021   3.240   0.190  0.4408 -0.0883  0.0106
13146SOL    HW140294   3.986   3.252   0.279  2.2231  0.8839  0.6383
13146SOL    HW240295   4.079   3.164   0.197 -0.8984 -1.2377 -0.8390
13147SOL     OW40296   3.269   2.361   3.382 -0.2429 -0.2360  0.3742
13147SOL    HW140297   3.197   2.321   3.431  1.0666 -1.0559  1.6973
13147SOL    HW240298   3.251   2.455   3.386 -1.8460 -0.4776 -0.3365
13148SOL     OW40299   4.401   5.547   3.144 -0.0880 -0.1173 -0.6152
13148SOL    HW140300   4.451   5.469   3.118 -1.1532 -0.7369 -0.8875
13148SOL    HW240301   4.378   5.589   3.061 -0.7811 -0.3465 -0.5470
13149SOL     OW40302   5.505   5.410   0.510  0.2037 -0.3878  0.5198
13149SOL    HW140303   5.410   5.422   0.505  0.3350  0.8243  0.6988
13149SOL    HW240304   5.538   5.490   0.551  1.3081 -0.7906  0.4640
13150SOL     OW40305   1.778   7.938   7.010 -0.0607 -0.0301 -0.3740
13150SOL    HW140306   1.759   7.999   7.081 -1.5904  0.2401 -0.9744
13150SOL    HW240307   1.824   7.865   7.052 -0.6916  0.2480  0.8454
13151SOL     OW40308   5.587   1.878   0.149 -0.3630 -0.2898  0.5706
13151SOL    HW140309   5.667   1.829   0.133  0.2393  0.8911 -0.1051
13151SOL    HW240310   5.612   1.948   0.209 -0.0502  2.1189 -2.1427
13152SOL     OW40311   3.762   6.031   3.449 -0.1218 -0.5488  0.1007
13152SOL    HW140312   3.846   5.991   3.427 -0.0503 -0.0930 -0.4783
13152SOL    HW240313   3.747   6.008   3.541  0.9711 -0.0346  0.4129
13153SOL     OW40314   5.909   7.457   5.981  0.3540  0.4604 -0.4201
13153SOL    HW140315   5.993   7.447   6.025  0.7808 -1.1789 -1.5008
13153SOL    HW240316   5.928   7.517   5.908  0.4328  0.5876 -0.2955
13154SOL     OW40317   4.693   4.822   0.062  0.2060  0.6204  0.0022
13154SOL    HW140318   4.613   4.842   0.112 -2.1583 -1.0708 -2.7423
13154SOL    HW240319   4.703   4.727   0.071  1.4240  0.7004 -0.3887
13155SOL     OW40320   5.151   5.721   1.302 -0.4275  0.3092 -0.3720
13155SOL    HW140321   5.087   5.749   1.368  0.3308  0.2824  0.3925
13155SOL    HW240322   5.099   5.675   1.236 -1.1659  0.0267  0.3847
13156SOL     OW40323   7.281   2.932   1.707 -0.0393 -0.2779 -0.9827
13156SOL    HW140324   7.271   2.942   1.613  0.0501  0.0535 -0.9570
13156SOL    HW240325   7.270   2.838   1.722 -0.2401 -0.3061 -1.2987
13157SOL     OW40326   7.324   5.078   7.796 -0.5588  0.2485  0.1193
13157SOL    HW140327   7.233   5.064   7.819 -0.4958 -0.2603  0.0713
13157SOL    HW240328   7.342   5.012   7.728  0.0492 -0.1597  0.6657
13158SOL     OW40329   7.404   7.263   3.193 -0.3304 -0.0614  0.0952
13158SOL    HW140330   7.371   7.316   3.266 -1.1338 -3.4521  2.4048
13158SOL    HW240331   7.496   7.287   3.186 -0.8571  2.3069  0.3114
13159SOL     OW40332   2.651   1.327   5.959 -0.2982  0.3189 -0.2057
13159SOL    HW140333   2.660   1.233   5.976 -2.3143  0.3003  1.0447
13159SOL    HW240334   2.694   1.369   6.034  0.1151  0.4036 -0.4859
13160SOL     OW40335   0.924   7.015   0.074  0.2591 -0.4553  0.5776
13160SOL    HW140336   0.870   7.062   0.010  2.0270  0.2150 -0.5090
13160SOL    HW240337   0.982   7.082   0.110  1.5698 -1.4463  0.3828
13161SOL     OW40338   0.846   0.322   4.060  0.3380  1.0897  0.4608
13161SOL    HW140339   0.807   0.259   4.120  0.5897 -1.2674 -1.7172
13161SOL    HW240340   0.927   0.281   4.031  0.8594  2.7277 -0.5445
13162SOL     OW40341   4.095   5.910   4.270  0.3107 -0.3387  0.2402
13162SOL    HW140342   4.187   5.936   4.280  1.1002 -1.9843 -1.9781
13162SOL    HW240343   4.073   5.933   4.180 -1.2108 -0.7880  0.4685
13163SOL     OW40344   1.811   4.485   4.927  0.1894 -0.5757 -0.2961
13163SOL    HW140345   1.730   4.451   4.888 -0.6035  0.2885  0.5448
13163SOL    HW240346   1.812   4.578   4.902  0.8887 -0.5630 -0.2324
13164SOL     OW40347   3.308   0.016   6.658 -0.2037 -0.4767 -0.2401
13164SOL    HW140348   3.264   0.033   6.742 -0.5675  0.7703 -0.6693
13164SOL    HW240349   3.277   0.085   6.600  1.2568 -0.3997 -0.9588
13165SOL     OW40350   4.679   7.265   4.450  0.2085  0.5611  0.6812
13165SOL    HW140351   4.765   7.296   4.420 -0.2690  1.9521  0.6495
13165SOL    HW240352   4.647   7.335   4.507 -0.2307 -0.6647  1.9966
13166SOL     OW40353   6.279   4.252   7.514  0.4641  0.2531 -0.5319
13166SOL    HW140354   6.365   4.219   7.542 -0.4714 -0.5637  1.6613
13166SOL    HW240355   6.225   4.173   7.504 -0.3552  0.8113 -0.6513
13167SOL     OW40356   4.314   6.962   0.489 -0.0739 -0.1518  0.4934
13167SOL    HW140357   4.339   6.979   0.398  3.2450 -1.0062  1.1032
13167SOL    HW240358   4.257   6.885   0.485 -0.1931 -0.0076 -0.8746
13168SOL     OW40359   1.823   6.683   2.748 -0.7724  0.5133 -0.1018
13168SOL    HW140360   1.849   6.654   2.660 -1.4460  0.7749 -0.3979
13168SOL    HW240361   1.856   6.615   2.806 -1.6193 -0.4512 -0.7059
13169SOL     OW40362   6.387   0.122   3.604 -0.0138  0.2067 -0.3896
13169SOL    HW140363   6.457   0.175   3.641 -1.2418  2.1581 -0.7137
13169SOL    HW240364   6.381   0.046   3.661  1.0611  0.9783  0.7962
13170SOL     OW40365   3.552   3.717   3.069  0.1245 -0.1012 -0.0913
13170SOL    HW140366   3.586   3.697   2.982 -2.4925 -0.5779 -1.0827
13170SOL    HW240367   3.537   3.631   3.109  2.6242  0.0891  1.4864
13171SOL     OW40368   3.132   1.390   4.592 -0.0139  0.0615  0.5444
13171SOL    HW140369   3.105   1.300   4.575 -0.4526  0.2912  0.0091
13171SOL    HW240370   3.094   1.410   4.678  0.8398 -0.5551  1.0840
13172SOL     OW40371   0.467   0.815   0.806 -0.0878 -0.1595 -0.0624
13172SOL    HW140372   0.542   0.767   0.772  0.3573  0.9536 -0.7172
13172SOL    HW240373   0.449   0.776   0.891  1.5649 -0.1139  0.3372
13173SOL     OW40374   5.147   7.816   1.121  0.0776 -0.6465  0.1036
13173SOL    HW140375   5.112   7.776   1.200 -0.0648 -1.4898 -0.3819
13173SOL    HW240376   5.235   7.780   1.113  0.3366 -0.0619  0.2237
13174SOL     OW40377   7.936   2.986   1.106  0.3185  0.6321  0.3230
13174SOL    HW140378   7.985   3.041   1.045  2.7468 -0.8473  0.8109
13174SOL    HW240379   7.924   2.903   1.059  3.4332 -1.0354  2.1435
13175SOL     OW40380   5.085   7.409   3.678  0.0743 -0.2876  0.0751
13175SOL    HW140381   5.020   7.425   3.609  0.3569  2.8544  0.4009
13175SOL    HW240382   5.154   7.359   3.635 -2.1599 -3.2323 -0.4332
13176SOL     OW40383   6.742   2.016   1.377  0.0680  0.2058 -0.2858
13176SOL    HW140384   6.708   2.039   1.464  1.7352  0.7066  0.2806
13176SOL    HW240385   6.666   2.016   1.320 -1.0000  0.2973  1.1005
13177SOL     OW40386   7.492   6.367   6.869 -0.1267  0.0639  0.2599
13177SOL    HW140387   7.443   6.430   6.816  0.9456  1.1200  0.4722
13177SOL    HW240388   7.567   6.344   6.815 -0.4661 -0.9789  0.2250
13178SOL     OW40389   2.004   4.081   3.566  0.5953  0.2160  0.4012
13178SOL    HW140390   1.995   4.174   3.548 -0.7592  0.7619  3.3229
13178SOL    HW240391   1.935   4.040   3.514  0.6586  0.9234 -0.2606
13179SOL     OW40392   7.453   2.929   7.905 -0.3754 -0.5887  0.5580
13179SOL    HW140393   7.400   2.994   7.859  1.4438  0.8243  0.3242
13179SOL    HW240394   7.446   2.850   7.851 -1.3788 -0.1414 -0.0077
13180SOL     OW40395   3.935   4.000   2.130  0.2121  0.0853 -0.4766
13180SOL    HW140396   3.916   3.968   2.219  0.8598 -1.3941 -0.8300
13180SOL    HW240397   3.990   4.077   2.143  1.8675 -1.1831  0.4255
13181SOL     OW40398   3.176   5.834   5.653 -0.5291 -0.1709  0.2997
13181SOL    HW140399   3.161   5.784   5.572 -0.3572 -0.3886  0.4013
13181SOL    HW240400   3.088   5.846   5.690 -0.3952 -3.7073  2.2429
13182SOL     OW40401   0.714   0.822   4.324 -0.4895  0.1981  0.3011
13182SOL    HW140402   0.657   0.867   4.387 -1.1269  0.6844 -0.5991
13182SOL    HW240403   0.660   0.812   4.246  0.1939 -0.6666 -0.0747
13183SOL     OW40404   7.061   4.928   5.967  0.4450 -0.7215 -0.1277
13183SOL    HW140405   6.975   4.906   6.004 -0.0652  1.4402  0.0977
13183SOL    HW240406   7.098   4.991   6.029  1.6904 -0.7373 -0.8284
13184SOL     OW40407   7.559   7.741   0.418  0.3637 -0.1651  0.0340
13184SOL    HW140408   7.523   7.788   0.494  0.6304  0.6516 -0.3360
13184SOL    HW240409   7.641   7.705   0.450 -0.0449 -0.7544  0.4436
13185SOL     OW40410   2.964   2.968   7.100 -0.9772 -0.1414  0.1790
13185SOL    HW140411   2.871   2.988   7.107 -1.1329 -0.8152  0.1335
13185SOL    HW240412   2.993   3.017   7.023 -1.3087  0.0242  0.1556
13186SOL     OW40413   3.971   1.178   0.403  0.2259 -0.8876  0.2005
13186SOL    HW140414   3.909   1.106   0.410  1.7751 -2.2989  0.0426
13186SOL    HW240415   3.923   1.254   0.437 -1.6653 -1.8253 -0.2160
13187SOL     OW40416   3.297   3.263   0.356 -0.2983 -0.1692 -0.3581
13187SOL    HW140417   3.382   3.225   0.376 -0.8283 -0.9126  0.5599
13187SOL    HW240418   3.237   3.223   0.419 -1.1380  1.1451 -0.2684
13188SOL     OW40419   1.299   4.213   7.690 -0.7443 -0.2489 -0.1658
13188SOL    HW140420   1.213   4.172   7.687 -0.5161 -0.6846 -2.0456
13188SOL    HW240421   1.351   4.164   7.626 -0.0300  1.9814 -1.3993
13189SOL     OW40422   6.543   4.172   0.778 -0.4716 -0.0578  0.1379
13189SOL    HW140423   6.538   4.261   0.743 -1.8918 -0.8219 -1.7763
13189SOL    HW240424   6.477   4.169   0.847 -0.0987  0.4888  0.5227
13190SOL     OW40425   6.857   1.762   1.441 -0.6364  0.0840  0.1589
13190SOL    HW140426   6.809   1.838   1.410  0.2115  0.1073 -1.1765
13190SOL    HW240427   6.944   1.795   1.464 -0.5433 -0.3262  0.4176
13191SOL     OW40428   5.925   6.496   4.858 -1.0256  0.1720  0.3892
13191SOL    HW140429   5.847   6.456   4.894 -0.0080 -0.2551  2.2381
13191SOL    HW240430   5.966   6.541   4.932  1.0078 -0.4886 -0.2698
13192SOL     OW40431   1.327   0.894   4.399  0.3061  0.4013  0.1533
13192SOL    HW140432   1.257   0.841   4.360  1.0421  0.1259 -0.8591
13192SOL    HW240433   1.383   0.918   4.324  0.4224  1.9531  0.7090
13193SOL     OW40434   6.948   0.955   5.165  0.2509  0.4251  0.4289
13193SOL    HW140435   6.854   0.950   5.185  0.2761  1.8137  0.9977
13193SOL    HW240436   6.951   0.973   5.071 -0.0239 -0.0440  0.3223
13194SOL     OW40437   4.213   1.776   7.572 -0.4547 -0.0856 -0.3287
13194SOL    HW140438   4.235   1.711   7.639  0.4104  2.3390  1.9046
13194SOL    HW240439   4.120   1.764   7.556 -0.7564 -0.5553  1.5895
13195SOL     OW40440   5.589   5.137   0.449 -0.1220 -0.0592 -0.5839
13195SOL    HW140441   5.631   5.216   0.416 -0.7688  0.0973 -1.0574
13195SOL    HW240442   5.499   5.143   0.419 -0.6003 -0.1954  0.7403
13196SOL     OW40443   7.739   2.309   7.846  0.3665 -0.0382 -0.5505
13196SOL    HW140444   7.786   2.266   7.775  1.5015  0.3006 -0.0154
13196SOL    HW240445   7.765   2.261   7.925 -1.0997 -0.6002 -0.3704
13197SOL     OW40446   7.309   1.023   5.342  0.5572 -0.1349  0.0493
13197SOL    HW140447   7.239   1.034   5.277  1.2117 -0.2195 -0.6895
13197SOL    HW240448   7.301   0.933   5.372 -0.5110  0.2513  1.0102
13198SOL     OW40449   3.013   4.441   6.863  0.7051  0.2042  0.1819
13198SOL    HW140450   2.918   4.430   6.857  0.5768  0.0918  1.7897
13198SOL    HW240451   3.037   4.489   6.785 -0.7916  0.8773  0.1024
13199SOL     OW40452   2.619   6.415   3.279  0.3699 -0.2137 -0.1399
13199SOL    HW140453   2.576   6.477   3.337  1.1299 -0.1255  0.3511
13199SOL    HW240454   2.579   6.429   3.193  0.4851  0.8961 -0.0183
13200SOL     OW40455   6.552   2.514   0.242  0.4647 -0.4474  0.3069
13200SOL    HW140456   6.502   2.433   0.251 -0.6077  0.1181 -0.4637
13200SOL    HW240457   6.625   2.503   0.304 -0.2345 -1.5545  0.9768
13201SOL     OW40458   4.407   2.419   0.180  0.3846  0.3398  0.3513
13201SOL    HW140459   4.430   2.501   0.137 -1.2570  0.8727  0.4186
13201SOL    HW240460   4.363   2.446   0.261  2.4643 -0.6324  1.9072
13202SOL     OW40461   3.820   4.220   5.670  0.3748  0.5612  0.5738
13202SOL    HW140462   3.854   4.310   5.675  1.9470 -0.0402  1.3204
13202SOL    HW240463   3.892   4.165   5.703 -0.6097 -0.9651  0.2730
13203SOL     OW40464   5.551   5.531   1.290  0.0098  0.1360 -0.0517
13203SOL    HW140465   5.590   5.617   1.281  2.5767 -1.0417 -1.1381
13203SOL    HW240466   5.560   5.491   1.203  0.3276 -1.7601  0.8004
13204SOL     OW40467   7.627   6.343   0.508  0.0296  0.5550  0.2713
13204SOL    HW140468   7.582   6.268   0.546  0.5452 -0.3321 -0.8333
13204SOL    HW240469   7.564   6.381   0.447  0.5456 -0.3620 -0.8679
13205SOL     OW40470   4.621   7.704   0.854  0.3668 -0.1998  0.1718
13205SOL    HW140471   4.680   7.647   0.805  0.3905 -0.7139  0.7889
13205SOL    HW240472   4.676   7.740   0.924  1.1318  2.7725 -1.7600
13206SOL     OW40473   4.757   7.648   5.959  0.0991  0.1541  0.3897
13206SOL    HW140474   4.733   7.737   5.986 -0.2364 -0.1103  1.0001
13206SOL    HW240475   4.697   7.591   6.009 -0.7834 -0.3642 -1.1685
13207SOL     OW40476   4.290   3.913   1.536  0.2709  0.5142  0.3985
13207SOL    HW140477   4.342   3.923   1.616 -2.6847 -0.2825  2.6054
13207SOL    HW240478   4.283   3.818   1.523  0.3440  0.6305 -0.5286
13208SOL     OW40479   6.376   0.176   4.491 -0.0270 -0.7255  0.2434
13208SOL    HW140480   6.378   0.253   4.434 -2.1082 -0.7391  0.0436
13208SOL    HW240481   6.334   0.108   4.438 -3.2861 -0.3535  2.0661
13209SOL     OW40482   0.086   2.002   5.103 -0.0470 -0.5548  0.0833
13209SOL    HW140483   0.067   1.995   5.197  1.1538  1.1005  0.4861
13209SOL    HW240484   0.075   2.095   5.083  2.3896 -0.3980 -0.7954
13210SOL     OW40485   0.935   2.861   0.530  0.5222  0.3420  0.1279
13210SOL    HW140486   0.897   2.889   0.447  0.5714  0.3139  0.0957
13210SOL    HW240487   0.965   2.771   0.515  1.0576  0.5346 -0.0025
13211SOL     OW40488   3.212   5.548   0.090  0.0600  0.5017 -0.3529
13211SOL    HW140489   3.132   5.557   0.038 -0.1686 -0.2467 -0.1368
13211SOL    HW240490   3.226   5.454   0.098  1.4313  0.6142 -1.0856
13212SOL     OW40491   5.674   6.581   5.217  0.3286 -0.1824 -0.5364
13212SOL    HW140492   5.598   6.591   5.160 -0.6020  0.7770  0.8252
13212SOL    HW240493   5.673   6.658   5.273  1.8234 -0.5785  0.1009
13213SOL     OW40494   6.740   5.407   6.016  0.1623 -0.2374  0.4215
13213SOL    HW140495   6.741   5.395   5.921  1.1562  0.3767  0.3400
13213SOL    HW240496   6.653   5.377   6.043 -1.5534  2.8099 -1.1293
13214SOL     OW40497   7.093   2.829   5.056  0.2820  0.2385 -0.7163
13214SOL    HW140498   7.145   2.897   5.100 -1.1925  0.4370  0.8744
13214SOL    HW240499   7.104   2.846   4.963  1.6560  1.3255 -0.3869
13215SOL     OW40500   4.013   7.651   6.063 -0.1747  0.0714 -0.2709
13215SOL    HW140501   3.945   7.679   6.002 -1.0357 -0.5408  0.3743
13215SOL    HW240502   4.005   7.710   6.138 -0.6946 -0.6372  0.2464
13216SOL     OW40503   6.340   5.962   0.470 -0.0909  0.5514 -0.3576
13216SOL    HW140504   6.401   5.889   0.456 -1.0396 -0.1071 -1.1468
13216SOL    HW240505   6.319   5.993   0.382  0.5163  2.0001 -0.0356
13217SOL     OW40506   3.856   3.823   4.635  0.4845 -0.3850  0.0303
13217SOL    HW140507   3.799   3.750   4.660 -0.0422 -0.4066 -1.1898
13217SOL    HW240508   3.842   3.833   4.541  1.7007  0.3073 -0.0890
13218SOL     OW40509   4.325   6.813   1.978 -0.5449  1.1879  0.8918
13218SOL    HW140510   4.418   6.813   1.952 -0.3066  0.6603  1.7027
13218SOL    HW240511   4.325   6.856   2.063 -0.8448 -0.0495  1.5369
13219SOL     OW40512   0.826   4.455   2.120  0.1350 -0.1719  0.1017
13219SOL    HW140513   0.736   4.477   2.097 -0.0960 -2.4863 -1.7133
13219SOL    HW240514   0.879   4.511   2.064 -0.1298  1.3184  1.2960
13220SOL     OW40515   1.380   5.982   2.578  0.4301 -0.4571  0.2226
13220SOL    HW140516   1.290   5.957   2.560  0.3655 -0.8704  1.1030
13220SOL    HW240517   1.424   5.977   2.493 -0.4466  0.0699 -0.2659
13221SOL     OW40518   4.813   2.062   3.519  0.3024  0.3370  0.4349
13221SOL    HW140519   4.785   2.023   3.602 -0.0727  0.6911  0.4793
13221SOL    HW240520   4.846   1.988   3.468  0.5631  0.1182  0.9101
13222SOL     OW40521   0.991   0.190   4.387  0.0398  0.1180  0.4748
13222SOL    HW140522   0.911   0.236   4.413  0.5454  1.5751 -0.4353
13222SOL    HW240523   1.060   0.232   4.439  0.4506  0.0964 -0.0501
13223SOL     OW40524   3.431   7.000   7.932 -0.0388 -0.7074 -0.5918
13223SOL    HW140525   3.514   6.966   7.965 -0.2168  0.6972  1.4291
13223SOL    HW240526   3.404   6.935   7.866  2.5997 -1.2227 -1.2930
13224SOL     OW40527   0.610   1.938   7.999  0.5441 -0.3217 -0.2126
13224SOL    HW140528   0.629   1.973   8.085  0.8958 -0.9109 -0.0410
13224SOL    HW240529   0.526   1.977   7.974  0.6544  0.1806  0.2078
13225SOL     OW40530   4.432   4.555   7.468 -0.0556 -0.2673 -0.2761
13225SOL    HW140531   4.422   4.470   7.512  0.3196 -0.1333  0.0822
13225SOL    HW240532   4.414   4.536   7.376  0.5998 -0.8666 -0.2972
13226SOL     OW40533   1.182   3.637   2.454  0.2588  0.0089 -0.2098
13226SOL    HW140534   1.171   3.718   2.503  1.1332 -0.5371  0.9658
13226SOL    HW240535   1.133   3.571   2.505  0.2269 -0.3530 -0.7005
13227SOL     OW40536   1.618   1.686   2.174 -1.2055 -0.0246 -0.5929
13227SOL    HW140537   1.543   1.745   2.179 -2.2406 -1.2289 -1.4517
13227SOL    HW240538   1.679   1.730   2.115 -2.0530  0.1045 -1.3901
13228SOL     OW40539   3.447   5.669   2.917 -0.2555  0.0547  0.5425
13228SOL    HW140540   3.482   5.749   2.877 -1.9879  1.7926  2.2288
13228SOL    HW240541   3.523   5.616   2.937  0.8399  0.3979 -2.3324
13229SOL     OW40542   7.143   7.790   5.141  0.4897  0.3999 -0.1166
13229SOL    HW140543   7.105   7.774   5.055 -0.1451  0.7534  0.0866
13229SOL    HW240544   7.207   7.721   5.153 -0.6688 -0.7251 -0.1376
13230SOL     OW40545   6.415   7.870   1.624  0.0035  0.1922 -0.1074
13230SOL    HW140546   6.434   7.782   1.591 -0.7107 -0.7914  1.9259
13230SOL    HW240547   6.497   7.918   1.614  0.4435 -0.7204 -1.1389
13231SOL     OW40548   6.633   3.279   1.418  0.2178 -0.2123  0.3786
13231SOL    HW140549   6.568   3.251   1.354  0.7670  0.3456 -0.4377
13231SOL    HW240550   6.611   3.370   1.437  0.2087 -0.2990  0.8031
13232SOL     OW40551   1.257   1.704   2.607 -0.0535 -0.1418  0.1924
13232SOL    HW140552   1.177   1.706   2.554 -1.1972 -0.3325  1.8305
13232SOL    HW240553   1.282   1.611   2.608 -0.3624 -0.2246  0.4459
13233SOL     OW40554   1.168   2.891   2.419 -0.0999 -0.0394  0.1068
13233SOL    HW140555   1.097   2.933   2.370 -0.2794  0.1663  0.5399
13233SOL    HW240556   1.149   2.798   2.415 -0.6869  0.0479  0.6660
13234SOL     OW40557   6.702   7.844   6.257  0.3221  0.0939  0.1703
13234SOL    HW140558   6.697   7.759   6.301  0.0875  0.9856  1.9836
13234SOL    HW240559   6.787   7.879   6.284 -0.2274  1.0603  0.7025
13235SOL     OW40560   0.068   0.655   0.883  0.2652 -0.1899  0.6567
13235SOL    HW140561   0.099   0.745   0.885 -0.1838  0.0259 -0.8793
13235SOL    HW240562  -0.027   0.662   0.889  0.0841 -0.4058 -1.2701
13236SOL     OW40563   2.122   5.315   3.984 -0.4983  0.6649  0.2365
13236SOL    HW140564   2.152   5.400   3.952 -1.0438 -0.2637 -3.0932
13236SOL    HW240565   2.202   5.261   3.988 -0.1629  1.2249  2.2851
13237SOL     OW40566   7.094   6.402   0.714  0.2571 -0.2955  0.5937
13237SOL    HW140567   7.140   6.465   0.769  0.2350 -0.3587  0.6864
13237SOL    HW240568   7.157   6.331   0.701  0.2594 -0.2838  0.5457
13238SOL     OW40569   5.727   0.464   6.877  0.2870  0.2929  0.2282
13238SOL    HW140570   5.785   0.502   6.811  0.2597  2.3952  1.3251
13238SOL    HW240571   5.667   0.409   6.827  1.3466  0.4498 -1.2798
13239SOL     OW40572   5.276   5.134   2.408  0.3973 -0.4966 -0.1599
13239SOL    HW140573   5.256   5.084   2.329  0.2803 -1.4099  0.4378
13239SOL    HW240574   5.368   5.115   2.426  0.3318 -0.5628  0.1123
13240SOL     OW40575   7.268   7.705   0.435  0.4668  0.1201 -0.3038
13240SOL    HW140576   7.290   7.612   0.440  0.5729  0.2113  2.0745
13240SOL    HW240577   7.352   7.749   0.420  1.2896  0.0805  3.2901
13241SOL     OW40578   3.649   7.680   6.313 -0.0927 -0.1356 -0.0504
13241SOL    HW140579   3.558   7.663   6.338 -0.7054  0.7259 -1.5204
13241SOL    HW240580   3.643   7.707   6.222  1.4491  1.5767  0.3013
13242SOL     OW40581   5.534   6.821   6.537  0.0427  0.0246  0.0658
13242SOL    HW140582   5.564   6.901   6.494 -1.0808 -1.0301 -2.9351
13242SOL    HW240583   5.612   6.785   6.578  0.9275  1.7822  0.0090
13243SOL     OW40584   0.570   4.072   5.652 -0.3135 -0.1648 -0.0909
13243SOL    HW140585   0.607   4.034   5.572  0.8255 -0.7525  0.6966
13243SOL    HW240586   0.475   4.063   5.640 -0.1167 -2.4090 -0.3582
13244SOL     OW40587   6.622   3.430   7.183  0.0774  0.4779 -0.3315
13244SOL    HW140588   6.552   3.493   7.199 -0.3432 -0.4850  1.8945
13244SOL    HW240589   6.681   3.439   7.258  1.4688  0.0859 -1.3302
13245SOL     OW40590   6.895   3.415   0.978 -0.1528  0.2540  0.7164
13245SOL    HW140591   6.937   3.489   0.934 -1.2593 -0.1488 -1.1118
13245SOL    HW240592   6.817   3.452   1.019  0.5068  0.4941  1.8058
13246SOL     OW40593   1.357   3.980   0.230 -0.1604 -0.4089 -0.0320
13246SOL    HW140594   1.365   4.067   0.190  2.0069  0.2947  1.7541
13246SOL    HW240595   1.292   3.991   0.299  0.4006 -0.1004  0.4489
13247SOL     OW40596   4.323   4.344   1.290 -0.5215 -0.3687 -0.4055
13247SOL    HW140597   4.276   4.314   1.368 -0.3830 -2.3236 -1.0255
13247SOL    HW240598   4.383   4.412   1.323 -2.9131  1.3920  0.5744
13248SOL     OW40599   4.374   1.568   3.377  0.6983 -0.2212  0.1403
13248SOL    HW140600   4.330   1.617   3.307  1.5944 -0.7243 -0.7978
13248SOL    HW240601   4.331   1.482   3.377  0.2976 -0.0270  0.6224
13249SOL     OW40602   0.819   0.878   2.902  0.6193  0.3130  0.1687
13249SOL    HW140603   0.893   0.936   2.887  1.2924 -0.2674  1.1312
13249SOL    HW240604   0.747   0.917   2.852  1.6050  0.8026 -0.9018
13250SOL     OW40605   2.317   0.031   2.689 -0.6105  0.5786  0.3697
13250SOL    HW140606   2.290   0.097   2.753  2.1804  2.2272  0.0333
13250SOL    HW240607   2.410   0.017   2.708 -0.6181 -1.6973 -0.9792
13251SOL     OW40608   7.292   2.148   2.383  0.3722  0.3205 -0.0978
13251SOL    HW140609   7.345   2.090   2.437 -1.9750  0.1331  2.2328
13251SOL    HW240610   7.264   2.217   2.443 -0.6071  1.3210 -1.6472
13252SOL     OW40611   3.128   2.315   2.564 -0.0979 -0.0767 -0.1003
13252SOL    HW140612   3.152   2.258   2.490  0.8641 -0.8528  0.7799
13252SOL    HW240613   3.097   2.255   2.631 -0.4794  0.5828  0.3211
13253SOL     OW40614   6.963   4.838   7.169 -0.0397 -0.9471  0.2944
13253SOL    HW140615   6.910   4.901   7.120  0.4686  1.2030  2.3453
13253SOL    HW240616   7.033   4.814   7.109 -0.2135  0.5068 -0.5324
13254SOL     OW40617   6.130   5.565   2.805  0.2067 -0.6277  0.1551
13254SOL    HW140618   6.198   5.502   2.828  0.3549  0.0653  1.7261
13254SOL    HW240619   6.087   5.586   2.888 -0.3110  0.7916 -0.4301
13255SOL     OW40620   6.863   7.583   0.683 -0.2815 -0.4047  0.2964
13255SOL    HW140621   6.795   7.517   0.666 -0.6861  0.0694  0.0506
13255SOL    HW240622   6.873   7.582   0.778 -1.2923  0.1567  0.4263
13256SOL     OW40623   2.998   2.110   3.015  0.3970  0.8342  0.0529
13256SOL    HW140624   3.027   2.183   3.069 -0.1755  0.1432  1.3361
13256SOL    HW240625   3.034   2.032   3.057  1.2326  0.3600 -1.4509
13257SOL     OW40626   2.808   0.902   0.208  0.0033  0.3408  0.3476
13257SOL    HW140627   2.741   0.912   0.140 -1.1716  1.5642  1.6327
13257SOL    HW240628   2.768   0.845   0.273  0.2326  0.9708  1.0593
13258SOL     OW40629   7.517   6.039   5.931  0.0934 -0.2307  1.0376
13258SOL    HW140630   7.451   6.099   5.897  2.0697  1.6017  0.2598
13258SOL    HW240631   7.485   5.952   5.905 -2.1146  0.5384  0.9487
13259SOL     OW40632   4.297   4.372   3.211  0.3332 -0.3282  0.0264
13259SOL    HW140633   4.352   4.350   3.286  0.8544 -2.6269 -0.9430
13259SOL    HW240634   4.358   4.391   3.141 -0.1511  2.0369  0.1750
13260SOL     OW40635   6.538   0.594   6.188 -0.5589 -0.0929  0.1133
13260SOL    HW140636   6.585   0.614   6.107  1.5897 -2.8414  0.5028
13260SOL    HW240637   6.515   0.679   6.225 -0.1685  1.2583 -2.5536
13261SOL     OW40638   1.975   2.077   7.964  0.7116  0.1217  0.5004
13261SOL    HW140639   1.958   2.059   8.056  2.1838 -1.0924  0.5804
13261SOL    HW240640   2.069   2.097   7.961  0.9930 -1.2018 -0.8980
13262SOL     OW40641   0.370   0.767   4.927 -0.0327  0.1099 -0.4108
13262SOL    HW140642   0.361   0.775   4.832 -1.1359 -0.5770 -0.3833
13262SOL    HW240643   0.452   0.718   4.939 -0.0616 -0.1078 -1.0238
13263SOL     OW40644   5.008   7.443   7.682  0.0088 -0.1138  0.7951
13263SOL    HW140645   5.018   7.365   7.736  1.5153 -1.4502 -1.2556
13263SOL    HW240646   4.927   7.428   7.633  0.7221 -0.8227 -0.1981
13264SOL     OW40647   4.123   5.238   6.784  0.1238  0.5525 -0.3160
13264SOL    HW140648   4.031   5.263   6.789 -0.2817 -0.9492  0.6434
13264SOL    HW240649   4.137   5.216   6.692 -0.6344  0.2721 -0.3735
13265SOL     OW40650   0.797   2.627   1.581 -0.0201 -0.1173  0.6799
13265SOL    HW140651   0.784   2.597   1.491 -0.3989  2.4868 -0.1967
13265SOL    HW240652   0.724   2.685   1.598  1.0603  0.9173  2.0061
13266SOL     OW40653   2.041   3.146   4.778 -0.1735 -0.1864  0.0519
13266SOL    HW140654   2.003   3.088   4.845 -0.4483  0.3781  0.3883
13266SOL    HW240655   1.993   3.125   4.698  0.8364 -1.5962 -0.2441
13267SOL     OW40656   5.935   5.689   4.168 -0.0200 -0.6045  0.2205
13267SOL    HW140657   5.870   5.745   4.210 -0.0023 -0.1505 -0.3494
13267SOL    HW240658   6.019   5.727   4.192 -0.0145 -0.2258 -0.3751
13268SOL     OW40659   7.874   3.167   3.090  0.3133  0.4766  0.1853
13268SOL    HW140660   7.906   3.215   3.167 -0.2966  0.7061  0.3058
13268SOL    HW240661   7.950   3.159   3.033  0.2342  2.5292 -0.3056
13269SOL     OW40662   3.795   7.423   5.596  0.1072  0.2560 -0.4867
13269SOL    HW140663   3.820   7.509   5.630  0.4251  0.2222 -0.6303
13269SOL    HW240664   3.735   7.442   5.524 -1.1890  0.3068  0.5761
13270SOL     OW40665   7.588   4.796   3.139  0.1885  0.1389  0.0791
13270SOL    HW140666   7.513   4.826   3.191 -2.3480 -0.8154 -2.7518
13270SOL    HW240667   7.612   4.712   3.178 -3.2649 -1.7927 -1.4542
13271SOL     OW40668   5.673   7.893   6.342  0.7406  0.2020 -0.0057
13271SOL    HW140669   5.665   7.969   6.401 -0.7393  0.0416  0.0427
13271SOL    HW240670   5.656   7.929   6.255  1.6026  0.1908 -0.1906
13272SOL     OW40671   0.086   5.768   5.720 -1.2016  0.2317  0.2259
13272SOL    HW140672   0.131   5.841   5.762 -0.9157 -0.5335  1.2787
13272SOL    HW240673   0.017   5.743   5.781  0.1244 -1.8214  1.0066
13273SOL     OW40674   3.362   3.735   4.313  0.2878 -0.8091 -0.4779
13273SOL    HW140675   3.342   3.659   4.259 -1.6605 -0.3907 -0.4203
13273SOL    HW240676   3.421   3.702   4.380 -1.3441 -2.5434  0.1724
13274SOL     OW40677   0.312   6.483   5.404 -0.3870 -0.5582  0.2535
13274SOL    HW140678   0.262   6.489   5.485 -0.7079  1.5411 -0.0378
13274SOL    HW240679   0.246   6.480   5.335 -0.2650  2.5871 -0.1540
13275SOL     OW40680   6.274   3.523   7.788 -0.6082 -0.0325 -0.4291
13275SOL    HW140681   6.313   3.436   7.797 -1.0236 -0.0604  1.4184
13275SOL    HW240682   6.308   3.572   7.863 -0.9946  1.1722 -1.0241
13276SOL     OW40683   2.125   3.460   2.265 -0.1502 -0.3634  0.4643
13276SOL    HW140684   2.102   3.459   2.172  0.3152 -1.0510  0.3519
13276SOL    HW240685   2.187   3.532   2.274  0.8195 -1.1190 -0.0172
13277SOL     OW40686   4.577   3.044   0.699  0.1654 -0.1687 -0.2080
13277SOL    HW140687   4.603   2.964   0.745  0.9144  1.0751  1.6661
13277SOL    HW240688   4.488   3.061   0.729  0.4147  0.2903  0.2816
13278SOL     OW40689   7.397   0.473   5.052 -0.2695  0.4099  0.3604
13278SOL    HW140690   7.427   0.387   5.080  0.6687  1.0706  1.5141
13278SOL    HW240691   7.348   0.507   5.128 -3.0296 -0.1476 -1.0360
13279SOL     OW40692   6.195   6.757   7.694  0.5095  0.0362 -0.1101
13279SOL    HW140693   6.128   6.692   7.669  1.7796 -1.3676 -0.0204
13279SOL    HW240694   6.179   6.831   7.636 -1.5344  0.0157  0.3524
13280SOL     OW40695   6.609   1.333   0.011 -0.2637  0.1048  0.3736
13280SOL    HW140696   6.525   1.376   0.029  0.4577  0.7070  2.6252
13280SOL    HW240697   6.588   1.240   0.009 -1.3590  0.3435 -1.6299
13281SOL     OW40698   6.193   7.668   6.907 -0.4379 -0.0589 -0.2792
13281SOL    HW140699   6.251   7.743   6.906  0.2573 -0.5908 -0.7403
13281SOL    HW240700   6.144   7.673   6.825 -0.8383  0.2221 -0.0287
13282SOL     OW40701   5.801   6.802   7.903  0.2240  0.0042  0.6757
13282SOL    HW140702   5.737   6.826   7.970 -1.0851  2.8600 -1.4218
13282SOL    HW240703   5.755   6.740   7.847 -0.4261  1.3005 -0.2650
13283SOL     OW40704   4.022   6.042   1.190  0.1733  0.4585  0.2784
13283SOL    HW140705   4.021   5.956   1.150  0.4594  1.5426 -2.2471
13283SOL    HW240706   3.933   6.075   1.180  0.1227  0.5682  1.0166
13284SOL     OW40707   5.846   4.800   6.639 -0.2346 -0.2577  0.1316
13284SOL    HW140708   5.858   4.711   6.605 -0.1854 -0.2367  0.0945
13284SOL    HW240709   5.935   4.833   6.652 -0.2497 -0.1344 -0.0646
13285SOL     OW40710   0.962   5.691   2.812 -0.3191 -0.0506 -0.2414
13285SOL    HW140711   0.877   5.691   2.767  0.0262  2.5026 -1.0135
13285SOL    HW240712   1.001   5.607   2.788 -1.7038 -0.3296 -1.6932
13286SOL     OW40713   7.760   4.794   5.852  0.2175 -0.4148  0.0957
13286SOL    HW140714   7.780   4.803   5.946  0.0875 -1.7369  0.2667
13286SOL    HW240715   7.667   4.813   5.846 -0.0153 -1.4021  0.4159
13287SOL     OW40716   4.679   3.123   5.721 -0.1971 -0.2196  0.8048
13287SOL    HW140717   4.700   3.188   5.788  0.0818 -0.0673  0.5681
13287SOL    HW240718   4.743   3.053   5.735  0.8998  0.5209 -0.3112
13288SOL     OW40719   0.682   1.330   6.813  0.0483  0.3175  0.3722
13288SOL    HW140720   0.736   1.316   6.735  0.7808 -3.4776  1.3187
13288SOL    HW240721   0.705   1.418   6.843  2.6660  0.4230 -1.5547
13289SOL     OW40722   1.190   6.422   4.040 -0.2448 -0.0292  0.0363
13289SOL    HW140723   1.259   6.410   3.975 -0.9744  1.2217 -1.0264
13289SOL    HW240724   1.231   6.475   4.109 -0.5490  2.2311 -1.4196
13290SOL     OW40725   3.967   4.168   0.764  0.0172 -0.3646 -0.0564
13290SOL    HW140726   4.042   4.139   0.711  0.4883  0.7695 -0.0437
13290SOL    HW240727   3.987   4.139   0.852 -0.1554 -1.1530 -0.2756
13291SOL     OW40728   0.336   1.395   4.208  1.0477 -0.2465 -0.2522
13291SOL    HW140729   0.261   1.336   4.214 -0.3719  1.4894  0.0099
13291SOL    HW240730   0.406   1.342   4.170 -0.5514 -1.7326 -1.2642
13292SOL     OW40731   4.722   6.905   6.902  0.2347 -0.2585  0.2405
13292SOL    HW140732   4.629   6.895   6.879  0.1796  0.3374  0.1786
13292SOL    HW240733   4.723   6.910   6.997  0.1930 -0.2198  0.2396
13293SOL     OW40734   3.818   7.597   5.229 -0.1176  0.2976 -0.1022
13293SOL    HW140735   3.912   7.612   5.222  0.0233  0.1710  1.1877
13293SOL    HW240736   3.783   7.622   5.144  1.1181  0.0590 -0.7053
13294SOL     OW40737   2.544   0.899   0.047  0.0077  0.0683 -0.2083
13294SOL    HW140738   2.541   0.835  -0.024 -1.2108  0.9248 -0.9688
13294SOL    HW240739   2.557   0.983   0.003 -0.3329  0.5645  0.6165
13295SOL     OW40740   0.735   7.601   1.884  0.0531 -0.0465 -0.1017
13295SOL    HW140741   0.716   7.507   1.893  1.2490 -0.1626  1.6729
13295SOL    HW240742   0.826   7.604   1.855 -0.1560  0.5923 -0.7184
13296SOL     OW40743   7.315   4.189   4.975 -0.2715 -0.3696  0.1607
13296SOL    HW140744   7.321   4.108   4.924  2.4722  0.4122 -0.9265
13296SOL    HW240745   7.317   4.159   5.066 -0.0817 -1.5560 -0.2119
13297SOL     OW40746   3.601   7.190   5.638  0.0798  0.3561  0.4970
13297SOL    HW140747   3.675   7.246   5.617 -2.0379  3.0165 -0.4824
13297SOL    HW240748   3.633   7.101   5.624  2.8490  1.4017 -0.4941
13298SOL     OW40749   6.804   4.212   2.622 -0.4319 -0.4897  0.5567
13298SOL    HW140750   6.846   4.136   2.584  0.5026 -0.1177  0.8159
13298SOL    HW240751   6.779   4.184   2.710  1.8823  0.0999  1.4905
13299SOL     OW40752   0.273   5.672   7.835  0.2031 -0.8953 -0.0239
13299SOL    HW140753   0.251   5.698   7.924  1.3843  0.5844 -0.1235
13299SOL    HW240754   0.354   5.719   7.815 -1.4824  1.1609 -2.8838
13300SOL     OW40755   1.172   2.950   4.070  0.2897 -0.0561  0.3351
13300SOL    HW140756   1.159   2.949   4.165 -1.4797 -1.4122  0.1207
13300SOL    HW240757   1.260   2.914   4.057  0.4608 -0.0657  1.4336
13301SOL     OW40758   0.173   5.379   6.389 -0.2830 -0.3728 -0.2473
13301SOL    HW140759   0.185   5.299   6.440  0.8285 -0.0201  0.0725
13301SOL    HW240760   0.159   5.447   6.454  0.0951 -0.0927 -0.4548
13302SOL     OW40761   5.519   6.859   0.309 -0.5244 -0.1170  0.2064
13302SOL    HW140762   5.580   6.892   0.243 -0.6077  1.4433  0.8700
13302SOL    HW240763   5.434   6.860   0.266 -0.4257 -0.1049  0.0091
13303SOL     OW40764   0.724   7.069   3.484  0.0878 -0.4572  0.1561
13303SOL    HW140765   0.680   7.150   3.509  0.1047 -0.1971 -0.6118
13303SOL    HW240766   0.763   7.088   3.399 -0.2459 -1.3930 -0.2292
13304SOL     OW40767   4.331   5.645   2.852 -0.2121  0.1786 -0.8564
13304SOL    HW140768   4.243   5.667   2.821 -1.0892  0.4520  1.5609
13304SOL    HW240769   4.373   5.730   2.867 -0.7136  0.1557  0.9243
13305SOL     OW40770   5.045   4.027   4.000  0.3020  0.1395  0.3067
13305SOL    HW140771   5.121   3.994   3.951  1.2252 -0.1122  1.8428
13305SOL    HW240772   5.073   4.113   4.032  1.1132 -1.1158  3.2906
13306SOL     OW40773   2.185   6.544   1.925  0.2401  0.5875  0.6646
13306SOL    HW140774   2.156   6.464   1.969  0.1764  0.3389  0.1778
13306SOL    HW240775   2.160   6.531   1.834 -0.5744  1.5560  0.7497
13307SOL     OW40776   4.245   6.813   2.936 -0.2070 -0.3132 -0.2988
13307SOL    HW140777   4.274   6.728   2.903  0.3210  0.4131 -1.7824
13307SOL    HW240778   4.276   6.876   2.871 -0.9054  0.9846  0.5832
13308SOL     OW40779   3.879   2.602   6.976 -0.1080  0.0677 -0.6119
13308SOL    HW140780   3.833   2.599   7.060 -1.2726  0.8002 -1.1900
13308SOL    HW240781   3.932   2.522   6.974 -1.2524 -0.7436  0.1606
13309SOL     OW40782   3.130   0.691   7.420 -0.3174 -0.2854  0.1259
13309SOL    HW140783   3.097   0.614   7.466  1.0411 -0.1336  1.4526
13309SOL    HW240784   3.222   0.697   7.448  0.4501  0.1114 -2.2692
13310SOL     OW40785   1.326   3.727   0.082  0.3706  0.1763  0.0877
13310SOL    HW140786   1.420   3.724   0.100  0.5646  1.2568 -0.6392
13310SOL    HW240787   1.301   3.817   0.102 -0.7533 -0.3755  1.3396
13311SOL     OW40788   3.840   6.130   2.746 -0.4172  0.0940 -0.6894
13311SOL    HW140789   3.767   6.192   2.741 -0.7797 -0.3581 -1.1261
13311SOL    HW240790   3.801   6.046   2.721  0.0191 -0.3514  0.0798
13312SOL     OW40791   3.332   0.911   6.486 -0.0236  0.0696  0.0011
13312SOL    HW140792   3.270   0.889   6.416 -3.2707  2.9210  1.6610
13312SOL    HW240793   3.288   0.884   6.567  1.7906  0.4871  1.1872
13313SOL     OW40794   5.826   7.535   0.117 -0.0789  0.6243 -0.1936
13313SOL    HW140795   5.821   7.601   0.187 -0.0618  0.1685  0.2450
13313SOL    HW240796   5.757   7.472   0.138  0.1474  0.3010 -0.3981
13314SOL     OW40797   5.081   6.040   5.579  0.3811  0.3798 -0.4048
13314SOL    HW140798   5.155   6.063   5.523  1.6429 -2.0554  0.1188
13314SOL    HW240799   5.032   5.975   5.528  1.2813 -1.5106  1.0154
13315SOL     OW40800   1.408   6.931   0.766 -0.4891  0.1706  0.0873
13315SOL    HW140801   1.441   6.902   0.851 -0.5090  0.2394  0.1183
13315SOL    HW240802   1.397   6.851   0.716  2.2147  0.2487 -0.8257
13316SOL     OW40803   3.777   7.360   3.213 -0.2845  0.0687  1.0344
13316SOL    HW140804   3.857   7.413   3.208 -1.5493  2.0685  0.6986
13316SOL    HW240805   3.760   7.334   3.123  0.7823 -1.7283  1.2964
13317SOL     OW40806   0.840   0.078   7.646 -0.4791 -0.7161  0.1782
13317SOL    HW140807   0.827   0.082   7.551  1.0954  0.3932 -0.0380
13317SOL    HW240808   0.838  -0.016   7.666 -1.3252 -0.9433 -0.8670
13318SOL     OW40809   2.286   2.583   1.841 -0.3420  0.2773  0.2444
13318SOL    HW140810   2.221   2.527   1.885  1.3185 -0.8720  1.3650
13318SOL    HW240811   2.317   2.530   1.768 -0.8528  0.9361 -0.4580
13319SOL     OW40812   7.175   0.864   1.396  0.2841  0.2951  0.3145
13319SOL    HW140813   7.216   0.903   1.318  0.6366 -1.9771 -0.7156
13319SOL    HW240814   7.083   0.889   1.390  0.3458  0.3152 -0.7379
13320SOL     OW40815   4.926   1.841   4.300 -0.2647  0.1179  0.1240
13320SOL    HW140816   4.831   1.850   4.308 -0.4230 -0.0594 -1.3143
13320SOL    HW240817   4.941   1.746   4.306 -0.5925 -0.2263 -3.1019
13321SOL     OW40818   4.770   4.131   3.200  0.3308 -0.3674  0.4473
13321SOL    HW140819   4.719   4.072   3.255  0.6671  0.7404  2.0106
13321SOL    HW240820   4.706   4.195   3.168 -0.0264 -1.4857 -1.2161
13322SOL     OW40821   4.620   5.580   1.547 -0.6524  0.0851 -0.3187
13322SOL    HW140822   4.557   5.641   1.510 -0.6621 -0.2835 -0.9252
13322SOL    HW240823   4.574   5.538   1.620 -0.6825  0.7091  0.0298
13323SOL     OW40824   6.751   0.904   7.085 -0.4139 -0.1184  0.1290
13323SOL    HW140825   6.808   0.841   7.130 -0.0820  0.0220 -0.0958
13323SOL    HW240826   6.778   0.900   6.994 -1.0305 -0.3383 -0.0479
13324SOL     OW40827   4.791   3.240   3.627  0.4607  0.1539 -0.1310
13324SOL    HW140828   4.827   3.165   3.676  1.1667  0.0247 -0.8393
13324SOL    HW240829   4.781   3.207   3.538 -2.9471 -0.3409  0.3032
13325SOL     OW40830   3.891   5.716   7.017  0.6257 -0.6442  0.2410
13325SOL    HW140831   3.819   5.679   7.068  1.7989 -0.8500  1.7975
13325SOL    HW240832   3.870   5.691   6.926 -1.5091 -0.2610  0.5596
13326SOL     OW40833   2.437   1.778   3.132 -0.0026 -0.6744 -0.0619
13326SOL    HW140834   2.439   1.816   3.044 -0.6885  2.6004  1.1869
13326SOL    HW240835   2.398   1.692   3.121  0.3762 -0.5612 -3.0005
13327SOL     OW40836   3.852   4.217   3.915 -0.8622 -0.2254  0.0746
13327SOL    HW140837   3.898   4.256   3.990  0.1774 -2.0370  0.4295
13327SOL    HW240838   3.864   4.281   3.845  0.4924  0.2656  0.7126
13328SOL     OW40839   2.326   5.837   3.088  0.6543 -0.0492 -0.1287
13328SOL    HW140840   2.418   5.816   3.068  0.2399 -2.9450  0.6831
13328SOL    HW240841   2.324   5.847   3.183 -0.2906 -2.7865  0.2094
13329SOL     OW40842   4.776   5.642   6.466 -0.5179  0.3485  0.1467
13329SOL    HW140843   4.770   5.649   6.370  0.9757  1.5049  0.0965
13329SOL    HW240844   4.870   5.634   6.483 -0.6104  1.7645  1.5691
13330SOL     OW40845   6.134   2.457   2.912  0.7447 -0.3621  0.2072
13330SOL    HW140846   6.057   2.506   2.940  1.7652  0.5351  1.5908
13330SOL    HW240847   6.100   2.389   2.853 -0.9639  0.5887  0.0432
13331SOL     OW40848   3.134   5.011   3.047 -0.1229 -0.1455  0.3234
13331SOL    HW140849   3.060   4.963   3.085 -2.2394  1.8267 -1.0246
13331SOL    HW240850   3.143   4.975   2.959 -0.2920  0.4476  0.0600
13332SOL     OW40851   7.174   7.874   4.150 -0.1808  0.1056 -0.2178
13332SOL    HW140852   7.142   7.857   4.061 -2.8774 -0.6462  0.7812
13332SOL    HW240853   7.133   7.956   4.175 -0.9169 -0.5777  0.9172
13333SOL     OW40854   0.002   6.136   4.314  0.0107 -0.2955  0.0060
13333SOL    HW140855   0.015   6.066   4.250 -2.3869 -1.5353  0.7765
13333SOL    HW240856  -0.027   6.091   4.393  1.3300  1.3500  1.4976
13334SOL     OW40857   3.725   3.404   0.288 -0.2667  0.2036 -0.4309
13334SOL    HW140858   3.760   3.366   0.207  2.3932  0.1321  0.6339
13334SOL    HW240859   3.673   3.333   0.327  0.2129 -0.5142 -1.0491
13335SOL     OW40860   5.190   3.229   6.227 -0.3238  0.0590  0.0026
13335SOL    HW140861   5.160   3.300   6.171 -1.1456 -0.9458 -0.8501
13335SOL    HW240862   5.268   3.195   6.184 -0.8087 -0.5460 -0.4097
13336SOL     OW40863   7.747   1.175   6.826  0.2641  0.9750  0.1661
13336SOL    HW140864   7.670   1.138   6.869  0.6906  0.0202  0.1227
13336SOL    HW240865   7.783   1.236   6.891  1.2398 -0.8798  1.4552
13337SOL     OW40866   1.376   0.275   6.422 -0.3924 -0.1575 -0.0085
13337SOL    HW140867   1.326   0.275   6.504 -1.3940 -0.8606 -0.5998
13337SOL    HW240868   1.443   0.207   6.436 -0.4920 -0.2039  0.2587
13338SOL     OW40869   4.938   2.305   4.450 -0.3590  0.6946  0.5192
13338SOL    HW140870   4.880   2.239   4.487 -0.0385 -0.2321 -0.5603
13338SOL    HW240871   4.989   2.258   4.384  0.7944  1.7415  0.6206
13339SOL     OW40872   3.862   4.754   0.213  0.5143  0.6051 -0.0614
13339SOL    HW140873   3.782   4.768   0.262  0.5225  2.2443 -0.4544
13339SOL    HW240874   3.932   4.784   0.271  0.6875  0.7617 -0.3472
13340SOL     OW40875   5.700   1.771   5.137  0.1017  0.3009 -0.1967
13340SOL    HW140876   5.757   1.774   5.060  0.1634  0.4110 -0.1469
13340SOL    HW240877   5.714   1.683   5.173  0.6274  0.5045  0.1091
13341SOL     OW40878   5.140   7.325   6.081  0.1366 -0.4381 -0.0337
13341SOL    HW140879   5.205   7.255   6.079 -0.8161 -1.3361 -0.0715
13341SOL    HW240880   5.133   7.349   6.174 -1.1881 -1.9969  0.3105
13342SOL     OW40881   7.407   2.671   5.943  0.1768 -0.5061 -0.5915
13342SOL    HW140882   7.365   2.714   6.018  2.0350 -1.8159  1.3355
13342SOL    HW240883   7.345   2.683   5.871 -0.5558  3.1267  0.3920
13343SOL     OW40884   0.985   5.205   7.919 -0.1541  0.0180  0.1613
13343SOL    HW140885   0.893   5.189   7.896 -0.5725  0.9736  1.0756
13343SOL    HW240886   1.029   5.123   7.899 -1.7049 -1.4122  2.1545
13344SOL     OW40887   0.856   4.599   6.566 -0.1255 -0.0860 -0.2052
13344SOL    HW140888   0.824   4.512   6.540  3.2162 -1.0665 -1.4844
13344SOL    HW240889   0.831   4.656   6.493 -2.4770  0.1878  0.7111
13345SOL     OW40890   0.340   0.461   0.294 -0.6519  0.9428 -0.0007
13345SOL    HW140891   0.340   0.365   0.302  0.6189  0.9893  0.7320
13345SOL    HW240892   0.413   0.480   0.236 -1.1232  1.4676 -0.4380
13346SOL     OW40893   7.394   6.940   3.723  0.0181 -0.4072  0.1238
13346SOL    HW140894   7.371   7.022   3.766 -1.3642 -1.0325  0.6298
13346SOL    HW240895   7.325   6.927   3.658 -1.3811 -2.4689  1.8680
13347SOL     OW40896   4.307   7.444   7.891 -0.1090 -0.1354 -0.2075
13347SOL    HW140897   4.283   7.449   7.799 -1.0543 -2.0694 -0.1027
13347SOL    HW240898   4.393   7.403   7.891  0.3310  0.7468 -0.2394
13348SOL     OW40899   2.239   6.349   0.824 -0.0355 -0.7373  0.4120
13348SOL    HW140900   2.187   6.331   0.746 -0.9625 -0.7945  1.0278
13348SOL    HW240901   2.244   6.445   0.828  0.2775 -0.7414  0.1134
13349SOL     OW40902   5.225   6.650   7.194 -0.2336 -0.2527  0.1032
13349SOL    HW140903   5.176   6.714   7.142 -0.5672 -1.2958 -0.9209
13349SOL    HW240904   5.315   6.680   7.192 -0.6706  1.2988  1.3945
13350SOL     OW40905   1.460   7.182   0.170 -0.3595  0.2645  0.0413
13350SOL    HW140906   1.393   7.131   0.125  0.7345  0.2115 -1.6210
13350SOL    HW240907   1.531   7.119   0.186 -0.3434  0.5119  1.0155
13351SOL     OW40908   1.862   4.486   1.906 -0.4245 -0.0234  0.2051
13351SOL    HW140909   1.844   4.454   1.994 -0.5101  3.2834  1.5529
13351SOL    HW240910   1.954   4.513   1.909 -0.6849  0.9885 -0.3675
13352SOL     OW40911   0.099   1.002   4.892  0.5971 -0.3472  0.3743
13352SOL    HW140912   0.071   0.919   4.853 -0.7632 -0.4514  1.5163
13352SOL    HW240913   0.018   1.050   4.909  1.3930  1.5802 -0.9583
13353SOL     OW40914   3.557   4.301   3.373 -0.2701 -0.1210 -0.1083
13353SOL    HW140915   3.528   4.211   3.385  0.5738 -0.2643  0.9381
13353SOL    HW240916   3.527   4.324   3.284 -0.0994 -1.5621 -0.5586
13354SOL     OW40917   6.850   4.444   2.097 -0.1262  0.1014  0.2923
13354SOL    HW140918   6.798   4.412   2.023 -0.7550 -0.1710  0.8512
13354SOL    HW240919   6.785   4.474   2.161  0.4183  0.3652  0.7272
13355SOL     OW40920   6.709   0.137   1.306  0.3561  0.0627 -0.3683
13355SOL    HW140921   6.722   0.154   1.399  0.1053 -1.1789 -0.0805
13355SOL    HW240922   6.794   0.151   1.266  1.0284 -1.5511  0.4198
13356SOL     OW40923   1.228   4.163   5.826  0.0210 -0.2425  0.0075
13356SOL    HW140924   1.182   4.246   5.811  1.3795  0.5303 -0.0511
13356SOL    HW240925   1.182   4.123   5.899 -0.6817  0.5508  0.0179
13357SOL     OW40926   4.016   7.417   5.424  0.6895 -0.2360  0.2018
13357SOL    HW140927   3.932   7.429   5.470 -0.0687 -1.8143 -0.7047
13357SOL    HW240928   4.053   7.338   5.463  0.4066 -1.1477 -1.2902
13358SOL     OW40929   6.109   5.558   3.071 -0.2038 -0.1423 -0.5396
13358SOL    HW140930   6.085   5.474   3.110 -0.1985 -0.9534 -2.2015
13358SOL    HW240931   6.077   5.623   3.133 -1.7224 -1.3253 -0.0285
13359SOL     OW40932   2.523   2.595   6.900 -0.0680 -0.3548  0.0078
13359SOL    HW140933   2.472   2.646   6.964 -1.7300 -0.8515 -0.8703
13359SOL    HW240934   2.552   2.660   6.836  0.9322  0.0236  0.8245
13360SOL     OW40935   0.314   1.894   4.680  0.0284 -0.4343  0.0042
13360SOL    HW140936   0.319   1.988   4.697  0.1482 -0.2960 -0.7595
13360SOL    HW240937   0.227   1.880   4.644  0.5554 -0.3531 -1.3632
13361SOL     OW40938   1.816   0.919   1.955 -0.4303  0.4785 -0.1607
13361SOL    HW140939   1.763   0.867   1.896  0.5693 -2.0363  0.9942
13361SOL    HW240940   1.841   0.996   1.904 -1.3915 -0.4987 -2.2184
13362SOL     OW40941   7.752   0.419   5.839  0.1341  0.4478  0.1083
13362SOL    HW140942   7.764   0.329   5.869 -0.5122 -0.1386 -1.3198
13362SOL    HW240943   7.658   0.435   5.851 -0.1496  0.1840 -1.5674
13363SOL     OW40944   6.242   2.474   3.692 -0.0759 -0.0585 -0.1607
13363SOL    HW140945   6.167   2.421   3.667  0.3711 -2.1245  2.4044
13363SOL    HW240946   6.218   2.512   3.776  1.7408 -0.9449  0.8376
13364SOL     OW40947   7.067   4.565   2.256  0.1767 -0.7079  0.3133
13364SOL    HW140948   7.008   4.595   2.325  1.3897 -1.4742  1.7248
13364SOL    HW240949   7.087   4.474   2.279  2.9313 -0.0886  0.6238
13365SOL     OW40950   0.591   3.724   3.863  0.1350 -0.2557 -0.3359
13365SOL    HW140951   0.554   3.785   3.927 -0.2825 -1.1008  0.2487
13365SOL    HW240952   0.673   3.695   3.902  0.6586  0.3890 -0.9057
13366SOL     OW40953   7.518   0.075   6.923  0.5160 -0.1950 -0.0328
13366SOL    HW140954   7.535  -0.001   6.867 -1.8780  0.3619 -1.6705
13366SOL    HW240955   7.542   0.151   6.870  2.1462  0.2911  1.2989
13367SOL     OW40956   2.369   1.663   7.308 -0.4013  0.5101  0.6030
13367SOL    HW140957   2.415   1.579   7.313 -0.0661  0.4217 -2.1884
13367SOL    HW240958   2.349   1.674   7.215 -2.3891  2.5207  1.1694
13368SOL     OW40959   7.850   1.417   0.878 -0.4942 -0.3350  0.1839
13368SOL    HW140960   7.781   1.468   0.834 -1.9834 -1.0777  1.5515
13368SOL    HW240961   7.875   1.472   0.953 -0.8973 -0.8578  0.7057
13369SOL     OW40962   1.414   4.765   1.754  0.3431 -0.1858  0.2683
13369SOL    HW140963   1.408   4.692   1.692 -0.0939 -0.2109  0.3365
13369SOL    HW240964   1.467   4.831   1.709 -1.2985  0.4640 -0.8202
13370SOL     OW40965   0.050   5.230   3.419  0.2044  0.2022 -0.0451
13370SOL    HW140966   0.045   5.140   3.385  3.1700  0.0238 -0.2937
13370SOL    HW240967   0.091   5.280   3.348  0.5761  1.2632  0.8967
13371SOL     OW40968   7.469   0.383   4.255 -0.4177 -0.4992 -0.4024
13371SOL    HW140969   7.455   0.476   4.273 -0.1042 -0.3791 -0.7808
13371SOL    HW240970   7.563   0.370   4.271 -0.5965 -0.9099  0.3590
13372SOL     OW40971   3.736   4.870   3.303  0.6838  0.3001  0.6220
13372SOL    HW140972   3.789   4.861   3.224  0.4066 -0.5358  0.5204
13372SOL    HW240973   3.683   4.791   3.305 -1.0169  1.3872  0.4006
13373SOL     OW40974   7.505   3.170   7.559 -0.4073 -0.4111 -0.4570
13373SOL    HW140975   7.488   3.261   7.535  1.5486  0.3576  0.8349
13373SOL    HW240976   7.575   3.175   7.624 -0.9781 -2.7893  0.4441
13374SOL     OW40977   4.129   1.824   0.443 -0.3589  0.1751 -0.6148
13374SOL    HW140978   4.175   1.747   0.409 -1.9591 -1.7087  1.1465
13374SOL    HW240979   4.037   1.806   0.425 -0.7343  1.8578 -0.4619
13375SOL     OW40980   1.835   3.042   3.233  1.2128 -0.3041 -0.7104
13375SOL    HW140981   1.769   3.112   3.230  0.9231 -0.6008 -1.8114
13375SOL    HW240982   1.856   3.033   3.326  0.3122  0.3721 -0.4227
13376SOL     OW40983   1.725   2.222   3.455  0.2406 -0.2819  0.3949
13376SOL    HW140984   1.681   2.259   3.378  2.0361  0.0147 -0.5427
13376SOL    HW240985   1.747   2.133   3.429 -0.4328 -0.6683  1.1263
13377SOL     OW40986   2.893   4.011   4.742  0.8925  0.3598 -0.3205
13377SOL    HW140987   2.941   4.091   4.765 -0.1236  0.7890  0.3942
13377SOL    HW240988   2.903   3.955   4.819  1.4929 -0.1656 -0.7704
13378SOL     OW40989   0.764   0.284   1.492 -0.2063  0.1785 -0.0205
13378SOL    HW140990   0.697   0.221   1.464 -0.0609  0.5199 -1.1516
13378SOL    HW240991   0.715   0.364   1.509 -0.3086 -0.0561  0.8449
13379SOL     OW40992   0.529   1.481   7.160  0.0785 -0.2179  0.1180
13379SOL    HW140993   0.527   1.576   7.150  1.0293  0.1689  2.7764
13379SOL    HW240994   0.619   1.457   7.138 -0.0250 -0.4395 -0.0677
13380SOL     OW40995   3.261   4.951   5.487 -0.0080  0.0936  0.2251
13380SOL    HW140996   3.223   5.000   5.414 -0.5917 -0.4266  0.1690
13380SOL    HW240997   3.196   4.959   5.557  0.6219  0.7307  0.7585
13381SOL     OW40998   3.695   5.597   2.926 -0.4836  0.1284 -0.2723
13381SOL    HW140999   3.774   5.614   2.874  0.0287  1.0543  0.7621
13381SOL    HW241000   3.691   5.502   2.934  1.0110  0.0957  0.3677
13382SOL     OW41001   0.086   4.924   2.218  0.2286  0.0504  0.0119
13382SOL    HW141002  -0.008   4.942   2.217  0.3617  0.7908 -0.2774
13382SOL    HW241003   0.122   4.978   2.147  0.8736 -0.1905  0.1451
13383SOL     OW41004   3.155   0.736   2.517 -0.4543 -0.1429 -0.4745
13383SOL    HW141005   3.250   0.726   2.517 -0.4894 -0.5081 -0.2614
13383SOL    HW241006   3.128   0.714   2.428 -0.1246  2.2649 -1.2285
13384SOL     OW41007   6.693   2.545   6.016  0.7831 -0.2427  0.0564
13384SOL    HW141008   6.759   2.481   6.045  0.9182 -0.5269 -0.8499
13384SOL    HW241009   6.624   2.492   5.976  1.0513  0.1739 -1.0068
13385SOL     OW41010   0.174   4.431   1.176  0.3075 -0.1282 -0.1183
13385SOL    HW141011   0.103   4.424   1.112  0.6488 -0.6872 -0.4407
13385SOL    HW241012   0.172   4.348   1.223  1.1299 -0.3944 -0.5375
13386SOL     OW41013   6.803   7.324   6.705  0.3316 -0.3466 -0.1869
13386SOL    HW141014   6.748   7.349   6.779 -0.7751 -0.1754 -1.0243
13386SOL    HW241015   6.885   7.371   6.718  0.8811 -1.7652  1.8777
13387SOL     OW41016   2.641   3.032   2.372  0.0864 -0.0581  0.1706
13387SOL    HW141017   2.607   3.120   2.356  0.3841 -0.0659 -0.5096
13387SOL    HW241018   2.563   2.978   2.383 -0.0967  0.3278  0.8399
13388SOL     OW41019   7.130   3.194   4.633  0.0797 -0.4151 -0.5326
13388SOL    HW141020   7.069   3.202   4.560  0.5821  0.8967 -0.8321
13388SOL    HW241021   7.216   3.192   4.592  0.5812  3.1223  0.0451
13389SOL     OW41022   3.810   6.669   5.993  0.1860 -0.5147 -0.1034
13389SOL    HW141023   3.802   6.658   6.088 -0.6883 -1.1364 -0.2359
13389SOL    HW241024   3.720   6.671   5.961  0.4264  1.2640 -0.7689
13390SOL     OW41025   1.954   2.219   0.596  0.1679  0.2804  0.0627
13390SOL    HW141026   2.020   2.272   0.550  0.0605 -0.3482 -0.8459
13390SOL    HW241027   1.996   2.134   0.607 -0.8097 -0.4354 -1.4072
13391SOL     OW41028   0.392   7.633   2.113 -0.3844  0.3671  0.3189
13391SOL    HW141029   0.437   7.607   2.193 -1.1276  0.9073  0.9156
13391SOL    HW241030   0.413   7.726   2.102 -1.2156  0.5855  0.5175
13392SOL     OW41031   4.690   4.789   5.747  0.1839  0.2123  0.3491
13392SOL    HW141032   4.764   4.844   5.722 -0.2794  1.5363  1.7110
13392SOL    HW241033   4.719   4.699   5.728  1.4547  0.8167 -0.7251
13393SOL     OW41034   4.892   5.375   2.724 -0.4482  0.5079 -0.4347
13393SOL    HW141035   4.948   5.433   2.775 -0.3872  0.8518 -0.8845
13393SOL    HW241036   4.905   5.288   2.763  0.3279  0.5997 -0.4764
13394SOL     OW41037   2.732   3.130   0.497  0.0380  0.2999  0.4476
13394SOL    HW141038   2.668   3.194   0.467  0.1690  0.3934  0.3685
13394SOL    HW241039   2.776   3.101   0.417 -1.3410 -1.3306  0.2232
13395SOL     OW41040   5.142   2.302   6.772 -0.2011  0.2158 -0.1917
13395SOL    HW141041   5.138   2.397   6.782  1.3700  0.3940 -0.9748
13395SOL    HW241042   5.118   2.268   6.858  1.5165  1.4077  0.8240
13396SOL     OW41043   0.055   3.837   6.286 -0.5066  0.2778 -0.2667
13396SOL    HW141044  -0.020   3.871   6.238  1.2324  1.6851 -2.2035
13396SOL    HW241045   0.079   3.756   6.240 -0.5428  0.0843  0.0480
13397SOL     OW41046   6.717   2.544   7.706  0.1714 -0.3244 -0.0781
13397SOL    HW141047   6.642   2.535   7.648  1.5705 -1.7464 -1.7800
13397SOL    HW241048   6.695   2.490   7.783 -0.6200 -0.5762 -0.4769
13398SOL     OW41049   4.536   2.150   1.053  0.0499  0.3019  0.4982
13398SOL    HW141050   4.447   2.132   1.024 -0.0325  1.7243 -0.2375
13398SOL    HW241051   4.551   2.089   1.125 -0.4135 -2.0618 -1.3068
13399SOL     OW41052   4.900   7.725   2.054 -0.7116  0.0315 -0.2483
13399SOL    HW141053   4.931   7.637   2.033  1.1015  0.5339  0.1640
13399SOL    HW241054   4.909   7.732   2.149 -0.2275  0.8646 -0.3477
13400SOL     OW41055   4.480   2.197   2.395 -0.6870  0.3892  0.3417
13400SOL    HW141056   4.388   2.181   2.372 -1.0295  2.2636  0.2313
13400SOL    HW241057   4.516   2.110   2.411 -2.0113 -0.5403 -1.3272
13401SOL     OW41058   1.112   3.297   7.591 -0.1126  0.1412  0.1409
13401SOL    HW141059   1.207   3.289   7.603  0.1492  0.9507 -1.2099
13401SOL    HW241060   1.083   3.356   7.661  0.5537  0.7277 -0.0675
13402SOL     OW41061   7.373   3.125   1.058  0.2621  0.1843  0.2176
13402SOL    HW141062   7.342   3.213   1.038  1.4589  0.2606 -1.4519
13402SOL    HW241063   7.467   3.134   1.070  0.3752 -0.8393  0.2504
13403SOL     OW41064   7.906   3.204   4.502 -0.5630 -0.4674 -0.0294
13403SOL    HW141065   7.889   3.189   4.409 -1.4637 -0.5324  0.1314
13403SOL    HW241066   7.832   3.162   4.547  0.0202 -0.7066  0.7328
13404SOL     OW41067   7.173   6.856   0.714  0.3838 -0.0553  0.0207
13404SOL    HW141068   7.122   6.833   0.636  2.0151 -0.6510 -0.9134
13404SOL    HW241069   7.222   6.934   0.689 -1.2890  1.5737  1.4933
13405SOL     OW41070   2.259   4.681   4.845 -0.2852 -0.4934  0.2652
13405SOL    HW141071   2.257   4.595   4.803 -0.1524 -0.8029  0.8769
13405SOL    HW241072   2.241   4.663   4.938 -1.7079  0.2910  0.1819
13406SOL     OW41073   3.794   7.021   7.567 -0.1425 -1.5282  0.1123
13406SOL    HW141074   3.867   7.002   7.509 -0.3952 -0.0450 -0.7404
13406SOL    HW241075   3.729   6.953   7.547 -0.0142 -1.3484 -0.9964
13407SOL     OW41076   2.879   1.554   1.605  0.5088 -0.6081 -0.3218
13407SOL    HW141077   2.863   1.649   1.608 -2.7886 -1.0600  0.1565
13407SOL    HW241078   2.828   1.523   1.531  0.2123 -2.1870  0.4897
13408SOL     OW41079   3.197   1.057   3.140 -0.2180 -0.1372  0.3420
13408SOL    HW141080   3.167   1.083   3.053  1.3645  0.4701 -0.0505
13408SOL    HW241081   3.292   1.053   3.132 -0.1487 -1.7232  1.6110
13409SOL     OW41082   4.029   1.637   5.480  0.2085 -0.1124  0.0298
13409SOL    HW141083   4.042   1.616   5.387  0.5386  0.2736 -0.0124
13409SOL    HW241084   3.995   1.556   5.518  1.6044 -0.7949 -0.1061
13410SOL     OW41085   3.070   3.353   4.813  1.3250 -0.0248 -0.2967
13410SOL    HW141086   3.072   3.263   4.778  1.1713 -0.2578  0.2818
13410SOL    HW241087   3.127   3.350   4.889  1.0573  0.2890 -0.0817
13411SOL     OW41088   5.805   4.749   4.866  0.2043 -0.0534 -0.1770
13411SOL    HW141089   5.755   4.684   4.915 -0.4542  0.9360  0.5010
13411SOL    HW241090   5.833   4.703   4.787 -1.1684 -0.8624 -0.2315
13412SOL     OW41091   1.089   2.045   2.097 -0.0949  0.6925  0.1225
13412SOL    HW141092   1.027   2.094   2.151 -0.0176  1.0353 -0.0953
13412SOL    HW241093   1.138   1.991   2.159 -1.2425 -0.2886  0.2025
13413SOL     OW41094   2.926   3.616   2.376  0.0837 -0.4398 -0.0138
13413SOL    HW141095   2.882   3.571   2.305  0.7726  0.3609 -0.9858
13413SOL    HW241096   2.935   3.706   2.346 -2.3745  0.7355  2.3800
13414SOL     OW41097   7.344   5.248   2.059 -0.7419  0.2377 -0.3505
13414SOL    HW141098   7.290   5.285   2.129 -0.1186 -1.4122  1.0769
13414SOL    HW241099   7.282   5.198   2.006 -0.8376 -0.7844  0.6741
13415SOL     OW41100   7.801   4.361   5.692 -0.1046 -0.0016 -0.4006
13415SOL    HW141101   7.853   4.438   5.716  0.8762 -0.7517 -0.0416
13415SOL    HW241102   7.835   4.291   5.748 -1.2055 -0.6224 -0.4903
13416SOL     OW41103   2.654   7.649   7.597 -0.4283 -0.3368 -0.1129
13416SOL    HW141104   2.559   7.649   7.591 -0.5166 -1.2579  0.8777
13416SOL    HW241105   2.675   7.725   7.652 -0.6597 -0.6517  0.4143
13417SOL     OW41106   7.625   6.864   3.847  0.0831 -0.4343 -0.5037
13417SOL    HW141107   7.554   6.902   3.795  0.8301  0.4551 -0.9151
13417SOL    HW241108   7.583   6.795   3.899 -0.9018 -0.5608 -1.4222
13418SOL     OW41109   6.442   4.466   6.049 -0.4578  0.7689  0.0506
13418SOL    HW141110   6.463   4.375   6.028 -1.3997  0.3452  0.8395
13418SOL    HW241111   6.429   4.508   5.965 -1.3089 -0.1584 -0.2943
13419SOL     OW41112   0.434   4.939   5.333  0.0541  0.1640 -1.0280
13419SOL    HW141113   0.528   4.933   5.322 -0.0503 -1.1102 -1.3125
13419SOL    HW241114   0.422   4.998   5.407  1.1430 -1.4846  0.5341
13420SOL     OW41115   6.112   4.461   7.150 -0.6800 -0.2394 -0.4309
13420SOL    HW141116   6.207   4.453   7.140 -0.4968  1.6606 -0.6045
13420SOL    HW241117   6.084   4.377   7.185  1.6423  0.4698  3.6697
13421SOL     OW41118   1.653   2.025   7.410 -0.2321 -0.0285 -0.0513
13421SOL    HW141119   1.729   2.058   7.458  0.4670 -1.2737 -0.2595
13421SOL    HW241120   1.588   2.004   7.477  0.8701 -2.0973  0.4435
13422SOL     OW41121   1.492   0.256   1.524  0.6244  0.2360 -0.5027
13422SOL    HW141122   1.479   0.185   1.586  0.6466  1.8079  1.4075
13422SOL    HW241123   1.457   0.333   1.569  0.1019  1.3662 -2.7025
13423SOL     OW41124   6.222   2.295   6.865 -0.7218 -1.0815  0.0597
13423SOL    HW141125   6.257   2.372   6.820 -0.5537 -2.6116 -2.6541
13423SOL    HW241126   6.269   2.292   6.948  0.6451  0.6711 -0.5896
13424SOL     OW41127   1.992   5.716   1.243  0.6006 -0.7772  0.0868
13424SOL    HW141128   2.076   5.704   1.288  0.3326  0.2734  0.8990
13424SOL    HW241129   2.015   5.762   1.163  0.5844  2.0231  1.5476
13425SOL     OW41130   7.274   0.478   4.560  0.3845 -0.3912 -0.2194
13425SOL    HW141131   7.277   0.484   4.656  0.0337  1.9117 -0.2898
13425SOL    HW241132   7.268   0.384   4.542  2.3365 -1.0197  1.9332
13426SOL     OW41133   0.993   0.001   3.002  0.4234  0.5217  0.0461
13426SOL    HW141134   1.000  -0.094   2.997  0.4174  0.4104  1.6755
13426SOL    HW241135   0.979   0.029   2.911 -0.5142 -1.0982 -0.3502
13427SOL     OW41136   6.933   7.568   2.735  0.4234 -0.0509 -0.3018
13427SOL    HW141137   6.989   7.491   2.725  0.8597  0.3884 -1.3496
13427SOL    HW241138   6.953   7.622   2.659  0.8896  1.6010  0.9600
13428SOL     OW41139   2.499   0.019   0.413  0.0664 -0.1947 -0.3424
13428SOL    HW141140   2.526  -0.019   0.497 -2.3018  2.6063  1.9370
13428SOL    HW241141   2.465  -0.055   0.363  1.4745 -1.9696  1.1731
13429SOL     OW41142   4.328   7.192   5.599 -0.6616  0.1233 -0.1036
13429SOL    HW141143   4.295   7.188   5.509  1.9756 -2.4133 -1.1094
13429SOL    HW241144   4.294   7.113   5.641 -0.7870  0.6132  0.7513
13430SOL     OW41145   1.340   5.034   2.432 -0.1909  0.2598  0.2030
13430SOL    HW141146   1.425   5.044   2.475  0.2102  1.2946 -0.7930
13430SOL    HW241147   1.297   4.963   2.480  2.0217 -1.6756 -0.5221
13431SOL     OW41148   4.795   0.979   3.986 -0.1436  0.1537  0.2070
13431SOL    HW141149   4.820   0.923   4.059  0.2475  1.0398  0.7719
13431SOL    HW241150   4.702   0.994   3.997 -0.1433  0.0425  0.3611
13432SOL     OW41151   0.954   5.224   7.010  0.4253  0.2027 -0.3608
13432SOL    HW141152   0.978   5.147   6.959 -2.9352 -1.4712  0.2675
13432SOL    HW241153   0.895   5.274   6.954 -0.7493  0.0383  0.6696
13433SOL     OW41154   0.129   6.714   0.998  0.7840 -0.0056 -0.1919
13433SOL    HW141155   0.192   6.762   1.052  1.3780 -0.6773 -0.2853
13433SOL    HW241156   0.182   6.663   0.938  0.1446  0.8298 -1.5349
13434SOL     OW41157   3.007   6.965   1.631  0.0914  0.2864  0.3453
13434SOL    HW141158   2.957   7.001   1.704 -0.4473  1.9058 -0.7599
13434SOL    HW241159   3.087   7.018   1.628  0.4702 -0.2849  0.2397
13435SOL     OW41160   2.498   1.440   1.275  0.0086  0.6927  0.0269
13435SOL    HW141161   2.506   1.398   1.189  0.1080  0.9192 -0.0753
13435SOL    HW241162   2.463   1.527   1.255  2.0783  1.5830 -0.0062
13436SOL     OW41163   2.087   0.715   6.633 -0.1700 -0.0817 -0.0343
13436SOL    HW141164   2.088   0.803   6.598 -1.3613 -0.0527 -0.0566
13436SOL    HW241165   2.054   0.725   6.723  0.6101 -0.4073  0.3043
13437SOL     OW41166   3.176   7.644   0.415  0.2382  0.3433  0.2271
13437SOL    HW141167   3.208   7.568   0.462  1.7459  1.1478  0.5819
13437SOL    HW241168   3.081   7.636   0.416  0.3057 -0.5160  1.9463
13438SOL     OW41169   0.522   0.703   2.921 -1.2234  0.4991 -0.1594
13438SOL    HW141170   0.601   0.658   2.894 -0.9139  1.5028 -0.9820
13438SOL    HW241171   0.473   0.638   2.971 -0.0935 -0.2649 -0.0188
13439SOL     OW41172   5.494   2.656   3.010 -0.0657 -0.0973  0.0950
13439SOL    HW141173   5.514   2.647   3.103  0.6669 -2.1499 -0.2070
13439SOL    HW241174   5.503   2.749   2.992  2.1095  0.0534  1.5985
13440SOL     OW41175   3.788   1.695   6.762  0.1867  0.4255  1.3574
13440SOL    HW141176   3.804   1.736   6.677 -1.7140  0.8062  1.1392
13440SOL    HW241177   3.874   1.663   6.789  1.8087  4.2957  1.4547
13441SOL     OW41178   7.388   0.928   0.735  0.2435  0.3275  0.3638
13441SOL    HW141179   7.394   0.957   0.826  0.7702  1.3384  0.0181
13441SOL    HW241180   7.312   0.974   0.700  1.4773  1.8792 -0.3736
13442SOL     OW41181   2.451   3.512   4.954 -0.8738 -0.6563 -0.0054
13442SOL    HW141182   2.513   3.440   4.936 -1.5132 -0.8270 -1.7465
13442SOL    HW241183   2.410   3.529   4.869 -0.3481  2.1703  0.2058
13443SOL     OW41184   2.846   7.020   5.792 -0.5520  0.6471 -0.1176
13443SOL    HW141185   2.823   6.957   5.860  0.9885  1.5039  1.2836
13443SOL    HW241186   2.774   7.083   5.792 -0.5592  0.6530  0.7604
13444SOL     OW41187   7.732   2.814   2.222 -0.3100  0.1410  0.0929
13444SOL    HW141188   7.675   2.891   2.232 -1.0508 -0.4149  0.2076
13444SOL    HW241189   7.773   2.826   2.137  0.9217  1.5374  0.8393
13445SOL     OW41190   0.855   6.256   1.265  0.1028 -0.2861  0.0695
13445SOL    HW141191   0.871   6.175   1.314 -2.3045 -0.0351  1.3788
13445SOL    HW241192   0.762   6.254   1.243 -0.3206  2.6244  1.1368
13446SOL     OW41193   4.344   6.388   3.078  0.4856  0.3806  0.2640
13446SOL    HW141194   4.265   6.377   3.130 -0.3142 -0.2619 -1.0272
13446SOL    HW241195   4.382   6.471   3.108 -0.8195  0.8330  0.7153
13447SOL     OW41196   6.125   7.660   0.402  0.1071 -0.4672 -0.2578
13447SOL    HW141197   6.180   7.736   0.419  0.1907 -0.7411  0.7383
13447SOL    HW241198   6.186   7.593   0.371  0.4282 -0.9349  1.3432
13448SOL     OW41199   5.582   1.127   7.965 -0.6478 -0.2873  0.7746
13448SOL    HW141200   5.490   1.102   7.962 -0.8182 -0.0114 -3.9245
13448SOL    HW241201   5.627   1.057   7.917  1.3818  0.3702  1.6066
13449SOL     OW41202   5.763   5.500   3.063  0.3941 -0.3356 -0.5087
13449SOL    HW141203   5.733   5.425   3.011  2.2941 -0.5726 -1.3606
13449SOL    HW241204   5.761   5.468   3.153 -0.0261 -0.9728 -0.7308
13450SOL     OW41205   5.802   3.581   6.111 -0.1432  0.5078 -0.3839
13450SOL    HW141206   5.801   3.609   6.202 -1.2651 -3.3865  1.0356
13450SOL    HW241207   5.709   3.572   6.088  0.0713 -1.6403 -0.6752
13451SOL     OW41208   0.798   2.674   5.946 -0.0489  0.5257 -0.5671
13451SOL    HW141209   0.798   2.630   6.031  0.6627  0.1587 -0.7520
13451SOL    HW241210   0.707   2.696   5.930 -0.9246 -3.2292 -1.6995
13452SOL     OW41211   3.161   3.662   6.655  0.3694 -0.4885 -1.0507
13452SOL    HW141212   3.215   3.583   6.664 -0.1324 -0.7810 -0.4734
13452SOL    HW241213   3.184   3.715   6.732 -0.9748 -1.1353 -0.1620
13453SOL     OW41214   4.777   4.826   3.050 -0.1157  0.4138  0.4549
13453SOL    HW141215   4.816   4.890   3.110  1.9981  0.2119 -0.6117
13453SOL    HW241216   4.790   4.742   3.095 -0.0604  0.4308  0.4721
13454SOL     OW41217   0.035   7.045   3.850 -0.5019 -0.1802 -0.4875
13454SOL    HW141218  -0.029   7.017   3.785 -1.1499  1.4840 -0.6155
13454SOL    HW241219   0.119   7.044   3.804 -0.7146 -0.5757 -0.8711
13455SOL     OW41220   7.578   6.100   7.776 -0.3248 -0.1846  0.7963
13455SOL    HW141221   7.508   6.166   7.781 -0.0923  0.2891 -1.2334
13455SOL    HW241222   7.587   6.082   7.682  1.3972 -1.1944  1.1160
13456SOL     OW41223   4.576   6.582   1.017  0.1010  0.2136 -0.2903
13456SOL    HW141224   4.639   6.514   1.040  1.0212  1.2734  0.4511
13456SOL    HW241225   4.560   6.629   1.100 -0.8742  0.6010 -0.6829
13457SOL     OW41226   2.888   1.284   4.381 -0.3935  0.1827 -0.8260
13457SOL    HW141227   2.954   1.230   4.424 -2.0262  0.3271  2.1053
13457SOL    HW241228   2.938   1.350   4.334  1.5581 -1.2157 -0.8235
13458SOL     OW41229   2.728   7.016   0.711  0.2178 -0.3062 -0.7611
13458SOL    HW141230   2.737   7.050   0.621 -0.0454 -0.8214 -0.9838
13458SOL    HW241231   2.679   6.935   0.701  3.2300 -2.3166 -0.5946
13459SOL     OW41232   3.915   5.193   2.147  0.4861 -0.5633  0.2030
13459SOL    HW141233   3.854   5.230   2.212 -0.4705 -2.5096  0.4983
13459SOL    HW241234   3.863   5.126   2.102  1.7726 -0.6973 -1.1253
13460SOL     OW41235   3.967   2.685   4.983 -0.3192 -0.4597 -0.2116
13460SOL    HW141236   3.950   2.724   5.069  2.3228 -2.9248  1.6199
13460SOL    HW241237   4.059   2.706   4.965 -0.8671  0.1832 -2.6437
13461SOL     OW41238   4.162   2.525   1.972  0.5674 -0.2754  0.6447
13461SOL    HW141239   4.109   2.446   1.980  0.6106 -0.2566  1.2058
13461SOL    HW241240   4.251   2.495   1.989  0.3359  0.2476  3.2702
13462SOL     OW41241   4.103   1.228   7.401 -0.3485  0.5003  0.1047
13462SOL    HW141242   4.146   1.203   7.319 -0.5103  0.3640  0.0583
13462SOL    HW241243   4.156   1.299   7.436  1.1510 -1.0521  1.1179
13463SOL     OW41244   4.957   1.675   5.279 -0.4058  0.6308  0.0628
13463SOL    HW141245   4.993   1.722   5.354  1.2825 -0.5590  0.0797
13463SOL    HW241246   4.954   1.583   5.307 -1.8768  0.4532 -0.5769
13464SOL     OW41247   7.988   1.326   6.382 -0.0730  0.5062 -0.0514
13464SOL    HW141248   8.079   1.340   6.408 -0.6199  0.5288  2.0464
13464SOL    HW241249   7.985   1.349   6.289  1.7043  2.1319  0.2446
13465SOL     OW41250   0.620   2.886   7.565 -0.2134 -0.2911 -0.1706
13465SOL    HW141251   0.621   2.923   7.476  1.9422 -0.7102 -0.3654
13465SOL    HW241252   0.559   2.812   7.559  0.5812 -0.8832 -1.5755
13466SOL     OW41253   6.224   2.485   4.012 -0.1518  0.1124 -0.2701
13466SOL    HW141254   6.225   2.409   4.070 -1.9776  0.0333 -0.2866
13466SOL    HW241255   6.292   2.468   3.948  0.7444 -0.6034  0.8463
13467SOL     OW41256   7.664   0.795   2.536  0.3482 -0.3789  0.1752
13467SOL    HW141257   7.720   0.749   2.597  2.1185  1.7189  0.2639
13467SOL    HW241258   7.648   0.880   2.577 -0.9058 -0.0230 -0.9619
13468SOL     OW41259   1.545   3.157   0.467 -0.3048  0.1146  0.5709
13468SOL    HW141260   1.502   3.216   0.406 -1.6062  0.1815  1.4992
13468SOL    HW241261   1.636   3.154   0.438 -0.3656  1.9688  0.0529
13469SOL     OW41262   6.797   5.288   2.584 -0.4008  0.7762  0.4396
13469SOL    HW141263   6.796   5.310   2.491 -0.9209 -0.5131  0.1059
13469SOL    HW241264   6.879   5.240   2.596 -1.9078 -2.2129 -0.2226
13470SOL     OW41265   0.990   3.917   2.984  0.0046 -0.0445  0.3229
13470SOL    HW141266   1.041   3.837   2.999  1.8703  0.8133 -1.1027
13470SOL    HW241267   0.935   3.896   2.909 -1.5985 -0.8546  1.6514
13471SOL     OW41268   7.972   3.317   1.064  0.0392  0.3614 -0.2065
13471SOL    HW141269   7.887   3.342   1.029  1.1302  0.7041 -2.8527
13471SOL    HW241270   7.985   3.375   1.139 -0.5951  2.8049 -1.8618
13472SOL     OW41271   1.682   5.670   1.875 -0.2995  0.4156 -0.5002
13472SOL    HW141272   1.649   5.671   1.965 -1.8226  0.9625 -1.0386
13472SOL    HW241273   1.703   5.762   1.856 -0.9182  0.4548 -1.0206
13473SOL     OW41274   2.223   2.294   2.948  0.0516 -0.4455 -0.0312
13473SOL    HW141275   2.230   2.208   2.989 -0.8539 -0.4416  0.1546
13473SOL    HW241276   2.292   2.346   2.990 -1.1217 -0.3049  1.8767
13474SOL     OW41277   1.253   1.609   7.581 -0.2168 -0.6069  0.6970
13474SOL    HW141278   1.183   1.585   7.642  0.5528  1.9990  2.7723
13474SOL    HW241279   1.333   1.574   7.622 -0.0657 -2.7353 -1.1820
13475SOL     OW41280   1.696   0.386   3.291  0.4011 -0.5898 -0.1086
13475SOL    HW141281   1.773   0.425   3.250 -0.8969  0.7157 -1.4476
13475SOL    HW241282   1.685   0.434   3.373  0.1987  0.2459 -0.6128
13476SOL     OW41283   7.397   5.975   3.960 -1.1292  0.1552  0.1199
13476SOL    HW141284   7.383   6.040   3.891  1.2662  1.5790  0.8655
13476SOL    HW241285   7.456   5.911   3.921  0.7374  1.2914  0.9128
13477SOL     OW41286   4.373   0.021   4.413 -0.3381 -0.6989 -0.0285
13477SOL    HW141287   4.439  -0.043   4.388  0.1511 -0.2437  0.0659
13477SOL    HW241288   4.316   0.029   4.337 -0.2035 -0.9991 -0.1607
13478SOL     OW41289   7.020   1.231   3.925  0.0442 -0.3903  0.2582
13478SOL    HW141290   7.050   1.267   3.841 -1.3172  0.1638 -0.0337
13478SOL    HW241291   6.979   1.148   3.902 -0.5653 -0.1164  0.3063
13479SOL     OW41292   7.910   2.138   2.734  0.0199  0.1564 -0.0778
13479SOL    HW141293   7.837   2.084   2.705  0.1213  0.1056 -0.2464
13479SOL    HW241294   7.876   2.227   2.736 -0.0974  0.1092  0.0236
13480SOL     OW41295   5.166   2.806   0.314  0.2875  0.4394  0.5850
13480SOL    HW141296   5.075   2.796   0.284 -0.2121  0.1329  2.1320
13480SOL    HW241297   5.213   2.735   0.269  0.1083  1.5044 -1.4070
13481SOL     OW41298   5.333   0.477   0.005  0.7198  0.3134  0.1876
13481SOL    HW141299   5.380   0.544   0.053  0.4515  1.3732 -0.9654
13481SOL    HW241300   5.241   0.492   0.026  0.7160 -0.2589  0.6039
13482SOL     OW41301   7.866   1.083   0.284  0.3176  0.0433 -0.3055
13482SOL    HW141302   7.830   0.999   0.312 -0.4419 -0.0225 -1.4388
13482SOL    HW241303   7.791   1.143   0.282  0.6688  0.4882 -0.5002
13483SOL     OW41304   6.807   1.710   6.676 -0.1116 -1.1291 -0.2234
13483SOL    HW141305   6.899   1.691   6.690 -0.1448 -0.8512  0.3823
13483SOL    HW241306   6.806   1.788   6.621  0.0129 -1.6923 -1.0481
13484SOL     OW41307   4.752   2.257   6.646 -0.2025 -0.1782 -0.3140
13484SOL    HW141308   4.711   2.337   6.679 -1.1707 -0.9526  0.4104
13484SOL    HW241309   4.784   2.212   6.724 -0.1553 -0.7680 -0.6696
13485SOL     OW41310   5.509   6.167   5.963 -0.4529  0.3101 -0.0220
13485SOL    HW141311   5.497   6.072   5.960  2.9030 -0.2460  0.4667
13485SOL    HW241312   5.542   6.190   5.876  0.8490  0.6033  0.5137
13486SOL     OW41313   5.639   3.995   6.035 -0.0908 -0.1775  0.0580
13486SOL    HW141314   5.598   3.973   6.118 -1.4540 -2.0892 -1.0519
13486SOL    HW241315   5.713   4.051   6.059 -0.5282 -0.5494  2.5207
13487SOL     OW41316   1.388   3.145   3.265  0.7952  0.1643 -0.2570
13487SOL    HW141317   1.446   3.219   3.282 -0.3237  0.8220  0.8878
13487SOL    HW241318   1.327   3.177   3.199 -0.0634  0.4846  0.6781
13488SOL     OW41319   6.513   4.404   5.435  0.0606 -0.4792  0.3501
13488SOL    HW141320   6.495   4.344   5.362 -0.6428 -1.3438  1.2107
13488SOL    HW241321   6.440   4.467   5.431  0.1247 -0.4133  0.1985
13489SOL     OW41322   1.904   0.118   2.845 -0.3705 -0.1158  0.2829
13489SOL    HW141323   1.956   0.141   2.923 -0.3382 -0.7626  0.4595
13489SOL    HW241324   1.939   0.033   2.817 -0.6988 -0.1074 -0.1602
13490SOL     OW41325   6.095   1.595   4.028 -0.6621  0.3838  0.0999
13490SOL    HW141326   6.178   1.636   4.005 -0.7164  0.1547 -0.5122
13490SOL    HW241327   6.102   1.578   4.122  0.9431 -1.8082 -0.3606
13491SOL     OW41328   7.319   6.666   0.839  0.0532  0.3035  0.3259
13491SOL    HW141329   7.320   6.732   0.908 -2.3828  0.2699  0.4880
13491SOL    HW241330   7.264   6.703   0.771  0.7043 -0.5402 -0.6933
13492SOL     OW41331   6.181   3.992   7.150 -0.0500 -0.1293  0.6311
13492SOL    HW141332   6.202   3.921   7.211 -0.8784  0.2162  1.3445
13492SOL    HW241333   6.092   3.972   7.120 -0.3240  0.6440  0.9063
13493SOL     OW41334   1.915   0.327   7.457 -0.3056 -0.2249  0.6718
13493SOL    HW141335   1.959   0.254   7.415 -0.1870 -0.2228  0.7924
13493SOL    HW241336   1.822   0.306   7.450 -0.2910 -0.1946  0.3552
13494SOL     OW41337   7.450   2.913   4.614 -0.6920 -0.1205 -0.6805
13494SOL    HW141338   7.446   2.897   4.708 -0.4622 -2.0706 -0.9610
13494SOL    HW241339   7.418   2.832   4.574  0.7513  0.0410 -2.2879
13495SOL     OW41340   4.962   2.996   3.553 -0.2382 -0.1100 -0.8347
13495SOL    HW141341   4.994   3.071   3.503 -0.3532  1.1645  0.8976
13495SOL    HW241342   5.037   2.937   3.560  0.8040  1.3079  0.3950
13496SOL     OW41343   7.391   5.349   7.079  0.1111 -0.2289 -0.5115
13496SOL    HW141344   7.387   5.255   7.096  1.4977 -0.2606 -0.2001
13496SOL    HW241345   7.356   5.389   7.159 -1.1693 -0.4716 -0.9340
13497SOL     OW41346   4.305   4.710   5.356 -0.9812 -0.6469 -0.1563
13497SOL    HW141347   4.290   4.752   5.441 -2.0482 -0.4271 -0.4338
13497SOL    HW241348   4.371   4.765   5.314 -2.1557  0.6524 -0.4007
13498SOL     OW41349   0.376   5.553   0.506  0.8988 -0.5468  0.6006
13498SOL    HW141350   0.444   5.621   0.505 -1.6248  2.1968  0.4252
13498SOL    HW241351   0.341   5.556   0.595 -0.4805 -0.2273  0.0671
13499SOL     OW41352   6.682   6.475   7.621 -0.0218  0.0878 -0.3204
13499SOL    HW141353   6.603   6.509   7.663 -1.1964 -0.7326 -1.7470
13499SOL    HW241354   6.751   6.487   7.686 -1.5979 -0.5542  1.5898
13500SOL     OW41355   7.352   5.941   4.948 -0.1844 -0.5907  0.0146
13500SOL    HW141356   7.322   5.970   5.034 -0.4156  0.2716 -0.3497
13500SOL    HW241357   7.371   5.847   4.959 -0.0854 -0.4581  1.0315
13501SOL     OW41358   3.101   1.029   2.406 -0.2593 -0.1242 -0.4897
13501SOL    HW141359   3.183   1.076   2.416 -0.1142 -0.4032 -0.3736
13501SOL    HW241360   3.116   0.970   2.332  0.2598 -1.4888  0.6612
13502SOL     OW41361   3.597   0.977   7.543  0.7515  0.0296  0.5388
13502SOL    HW141362   3.691   0.960   7.555  1.1464  2.2422  0.9278
13502SOL    HW241363   3.587   1.071   7.558 -1.2071  0.2443 -1.5735
13503SOL     OW41364   4.303   5.806   1.342  0.6119  0.2817 -0.2043
13503SOL    HW141365   4.234   5.799   1.277  1.3016 -1.1676 -0.8251
13503SOL    HW241366   4.267   5.765   1.421  0.6469 -0.2038 -0.4380
13504SOL     OW41367   2.776   5.629   1.178  0.2552 -0.3059  0.5700
13504SOL    HW141368   2.700   5.672   1.216 -0.6391 -1.9181  0.6774
13504SOL    HW241369   2.744   5.592   1.095  1.0611 -0.5395  0.3506
13505SOL     OW41370   2.806   6.190   4.136 -0.2393  0.1166 -0.4267
13505SOL    HW141371   2.785   6.096   4.134  0.0733 -0.0298  1.4309
13505SOL    HW241372   2.767   6.221   4.217 -0.2044  1.5818 -0.9539
13506SOL     OW41373   3.379   6.220   2.743  0.2714  0.4028 -0.1749
13506SOL    HW141374   3.349   6.283   2.677  0.9018  2.5148  1.4403
13506SOL    HW241375   3.299   6.174   2.770 -0.1865  0.3901 -1.4994
13507SOL     OW41376   7.194   2.184   6.729  0.0132 -0.0438 -0.4046
13507SOL    HW141377   7.282   2.171   6.764  0.0489 -1.2413 -0.8883
13507SOL    HW241378   7.136   2.175   6.804  0.3431  1.8682  0.1265
13508SOL     OW41379   7.103   1.691   5.998  0.3886 -0.0550 -0.2878
13508SOL    HW141380   7.113   1.698   6.093  0.1823 -0.3670 -0.2396
13508SOL    HW241381   7.118   1.779   5.965  1.5521 -0.1529 -0.0624
13509SOL     OW41382   0.710   5.082   4.628  0.3816 -0.3234 -0.3288
13509SOL    HW141383   0.657   5.144   4.579 -0.1795 -0.7742 -0.2970
13509SOL    HW241384   0.695   4.998   4.584  0.3600 -0.6176  0.2324
13510SOL     OW41385   3.903   4.799   7.370  0.5166 -0.2399  0.0149
13510SOL    HW141386   3.821   4.753   7.384  0.7667 -0.3275  1.2385
13510SOL    HW241387   3.878   4.889   7.352  0.1921 -0.0201  1.5125
13511SOL     OW41388   6.920   1.369   2.656 -0.1342  0.6703  0.1334
13511SOL    HW141389   6.993   1.335   2.708 -0.1792 -3.2185 -1.9830
13511SOL    HW241390   6.886   1.442   2.708  3.5888  1.0043  2.4503
13512SOL     OW41391   4.532   1.076   3.977 -0.3825  0.3645  0.3678
13512SOL    HW141392   4.440   1.098   3.986  0.1159  2.3916  1.2079
13512SOL    HW241393   4.564   1.133   3.907  0.4155  0.3696  0.7162
13513SOL     OW41394   3.196   2.389   1.897  0.6336  0.5459 -0.1350
13513SOL    HW141395   3.119   2.332   1.896  1.1856 -0.2993  1.4128
13513SOL    HW241396   3.163   2.474   1.926  0.6239 -0.5730  3.7168
13514SOL     OW41397   0.835   6.777   0.637  0.6913  0.2433  0.9823
13514SOL    HW141398   0.930   6.783   0.637  0.6807  0.8870 -0.5393
13514SOL    HW241399   0.805   6.863   0.667  0.5825  0.3630  0.5277
13515SOL     OW41400   1.475   1.055   7.480  0.0542  0.1130  0.0065
13515SOL    HW141401   1.458   1.111   7.556  0.9480 -0.4664  0.6565
13515SOL    HW241402   1.455   1.110   7.405 -0.4307  0.8427  0.6525
13516SOL     OW41403   0.149   1.551   4.611  0.2522  0.2225 -0.5770
13516SOL    HW141404   0.130   1.633   4.566  1.7318  0.1546 -1.4210
13516SOL    HW241405   0.220   1.573   4.672 -0.6042 -0.0475  0.5389
13517SOL     OW41406   6.932   3.735   6.827  0.4253  0.4906 -0.4345
13517SOL    HW141407   6.946   3.655   6.879 -0.8246  0.9368  0.6475
13517SOL    HW241408   6.915   3.803   6.892  2.2691  1.8583 -1.2925
13518SOL     OW41409   2.331   2.928   5.125 -0.4757  0.1118 -0.2994
13518SOL    HW141410   2.278   2.856   5.089 -0.9084 -0.4511  1.3613
13518SOL    HW241411   2.269   3.001   5.134 -0.4192  0.1832 -0.4827
13519SOL     OW41412   3.749   5.914   3.715 -0.0869  0.0025 -0.1622
13519SOL    HW141413   3.827   5.866   3.687 -0.9478 -0.3703 -2.0633
13519SOL    HW241414   3.708   5.857   3.780  0.1226 -0.7697 -0.6985
13520SOL     OW41415   5.818   4.699   0.465  0.1527  0.3404 -0.1849
13520SOL    HW141416   5.896   4.655   0.499  1.2800  0.5788 -2.2845
13520SOL    HW241417   5.845   4.735   0.381 -1.8861  1.5617 -0.4028
13521SOL     OW41418   4.358   1.151   2.934  0.6377  0.5858  0.5503
13521SOL    HW141419   4.433   1.100   2.904  0.2784 -0.7330  1.7655
13521SOL    HW241420   4.340   1.212   2.863  1.8221 -0.1970 -0.4590
13522SOL     OW41421   5.070   5.479   4.202 -0.0876 -0.0648  0.3060
13522SOL    HW141422   5.108   5.449   4.285 -0.0142  1.0556  0.6969
13522SOL    HW241423   4.983   5.439   4.200 -0.3415  0.4194  1.2412
13523SOL     OW41424   1.111   4.842   2.231  0.3455  0.2944  0.5551
13523SOL    HW141425   1.043   4.879   2.175 -0.4151 -0.3399  1.0387
13523SOL    HW241426   1.067   4.771   2.277  1.5906 -0.7881  0.1341
13524SOL     OW41427   4.029   4.049   5.680  0.0452 -0.0822 -0.8374
13524SOL    HW141428   4.047   3.958   5.657  0.7268  0.1688 -1.3480
13524SOL    HW241429   4.115   4.090   5.685 -0.2637  0.5799 -0.8013
13525SOL     OW41430   2.402   2.738   1.125 -0.9418 -0.2002  0.2524
13525SOL    HW141431   2.327   2.797   1.112 -0.8701 -0.0124  0.6656
13525SOL    HW241432   2.443   2.770   1.205  1.6823  1.9502 -1.7535
13526SOL     OW41433   5.208   4.229   3.778  0.5105 -0.4940  0.0487
13526SOL    HW141434   5.238   4.222   3.869  0.4730 -1.9792 -0.0258
13526SOL    HW241435   5.282   4.198   3.726 -0.1590 -1.5761 -0.2925
13527SOL     OW41436   4.066   0.073   4.750 -0.1805  0.3900 -0.4537
13527SOL    HW141437   4.149   0.106   4.716  0.9456 -3.7297 -2.4092
13527SOL    HW241438   4.075   0.080   4.845  2.4531  0.1097 -0.5946
13528SOL     OW41439   1.747   1.815   4.284 -0.5557 -0.7391 -0.0304
13528SOL    HW141440   1.791   1.768   4.213  0.3177 -0.9316  0.6132
13528SOL    HW241441   1.718   1.897   4.245 -0.4438 -1.0136 -0.7021
13529SOL     OW41442   4.734   3.141   3.341  0.2264  0.2425  0.0489
13529SOL    HW141443   4.672   3.070   3.360 -0.6443  0.7329 -0.8350
13529SOL    HW241444   4.807   3.099   3.296  0.4131 -0.3010  0.8436
13530SOL     OW41445   4.535   0.436   6.940  0.2589 -0.1105 -0.1839
13530SOL    HW141446   4.607   0.373   6.941 -0.1763 -0.6063  0.0389
13530SOL    HW241447   4.495   0.428   7.026 -1.5435 -1.5499 -1.1142
13531SOL     OW41448   3.055   6.962   3.343  0.6349  0.7369 -0.2337
13531SOL    HW141449   3.060   6.907   3.264  0.1592  0.8394 -0.3362
13531SOL    HW241450   3.003   6.910   3.405  0.3338  0.9958 -0.2688
13532SOL     OW41451   6.696   2.400   6.492  0.6725 -0.6465  0.1911
13532SOL    HW141452   6.662   2.416   6.581  0.7131  1.0609 -0.0622
13532SOL    HW241453   6.640   2.331   6.457 -1.3178  0.7387  0.4887
13533SOL     OW41454   7.091   2.045   1.203  0.3389  0.0605 -0.1636
13533SOL    HW141455   7.055   1.991   1.273  1.3694 -0.4890 -0.0396
13533SOL    HW241456   7.109   2.130   1.244  0.6660 -0.1674  0.1710
13534SOL     OW41457   7.038   6.182   0.446  0.1193  0.5365  0.2618
13534SOL    HW141458   6.997   6.164   0.362  0.6505  3.6474 -0.7948
13534SOL    HW241459   7.069   6.096   0.476 -3.1985 -1.2690 -0.9092
13535SOL     OW41460   5.267   5.796   1.845  0.2697 -0.0407 -0.1555
13535SOL    HW141461   5.191   5.837   1.887  0.9578  0.9141  0.1792
13535SOL    HW241462   5.260   5.703   1.869 -0.6754  0.0651  0.0295
13536SOL     OW41463   5.992   0.247   5.612 -0.3989 -0.2037  0.0130
13536SOL    HW141464   5.968   0.326   5.659 -1.3138  0.1521 -1.0072
13536SOL    HW241465   5.909   0.210   5.582 -0.0500 -1.9884  1.1046
13537SOL     OW41466   5.695   6.698   4.023 -0.3681  0.1820 -0.1877
13537SOL    HW141467   5.770   6.679   3.966 -0.9214  0.7301 -1.1240
13537SOL    HW241468   5.688   6.793   4.023 -1.8220  0.1119 -1.1611
13538SOL     OW41469   0.790   7.773   2.097 -0.1487  0.1766 -0.2889
13538SOL    HW141470   0.777   7.698   2.038 -2.8827  0.2914  0.0345
13538SOL    HW241471   0.792   7.735   2.185  2.1495  0.1866 -0.2808
13539SOL     OW41472   7.033   7.098   1.331 -0.1790  0.3394  0.4597
13539SOL    HW141473   6.992   7.051   1.404  1.3501 -0.8421  0.6065
13539SOL    HW241474   7.120   7.121   1.362  0.7636 -0.7785 -1.1913
13540SOL     OW41475   0.646   4.681   0.083  0.0187  0.0358 -0.0703
13540SOL    HW141476   0.682   4.758   0.039 -1.4609  1.1611  0.6384
13540SOL    HW241477   0.642   4.614   0.014 -1.5037  1.5179 -1.5184
13541SOL     OW41478   6.654   6.366   2.556  0.0703  0.2503 -0.4844
13541SOL    HW141479   6.607   6.380   2.639  0.9236  1.8847 -0.2332
13541SOL    HW241480   6.587   6.379   2.489 -0.3972  0.0148 -0.0723
13542SOL     OW41481   2.290   1.190   6.549  0.7801  0.1159  0.3887
13542SOL    HW141482   2.198   1.213   6.550  0.0967 -1.9586 -2.1912
13542SOL    HW241483   2.334   1.263   6.592 -1.7559  2.7013 -1.0829
13543SOL     OW41484   4.302   2.327   1.328 -0.0318  0.3488  0.2194
13543SOL    HW141485   4.397   2.344   1.332  0.3230 -1.3487 -0.4203
13543SOL    HW241486   4.295   2.234   1.308 -1.8615  0.1396  1.5569
13544SOL     OW41487   3.632   5.508   3.191  0.0042 -0.9737  0.0449
13544SOL    HW141488   3.678   5.545   3.266  0.2233 -1.6064  0.2274
13544SOL    HW241489   3.661   5.561   3.117 -1.3503  0.6490  0.5857
13545SOL     OW41490   2.234   5.142   7.542  0.0570 -0.1237  0.0257
13545SOL    HW141491   2.149   5.098   7.551 -0.0333  0.3579  1.8345
13545SOL    HW241492   2.274   5.136   7.628  0.8876  1.5975 -0.1874
13546SOL     OW41493   5.322   1.334   3.923 -0.3083  0.0519 -0.2082
13546SOL    HW141494   5.274   1.348   3.841  3.7242 -1.6097 -3.2598
13546SOL    HW241495   5.302   1.243   3.947  0.6328 -0.4070 -1.0752
13547SOL     OW41496   3.136   0.948   3.807  0.3016  0.0868  0.3096
13547SOL    HW141497   3.220   0.980   3.775  0.0397  1.1040  0.5894
13547SOL    HW241498   3.158   0.878   3.869  0.8842 -0.4118 -0.4470
13548SOL     OW41499   2.011   5.071   4.101 -0.0723 -0.5414 -0.3131
13548SOL    HW141500   1.995   4.989   4.148 -0.8930  0.4073  1.1213
13548SOL    HW241501   2.107   5.077   4.096  0.1467  0.0460  2.6833
13549SOL     OW41502   2.345   1.553   3.446 -0.2103 -0.3069  0.2589
13549SOL    HW141503   2.269   1.598   3.410 -0.2354 -0.7321 -0.2411
13549SOL    HW241504   2.408   1.622   3.463 -0.2990 -0.0585 -0.3664
13550SOL     OW41505   0.620   3.181   1.606  0.4092  0.2130  0.2534
13550SOL    HW141506   0.527   3.203   1.600 -0.2480 -1.7043  2.0596
13550SOL    HW241507   0.664   3.265   1.619 -1.2155  1.0477  0.6678
13551SOL     OW41508   2.859   7.635   7.056  0.4729 -0.2916 -0.7597
13551SOL    HW141509   2.880   7.728   7.047 -0.1327 -0.2025 -1.3397
13551SOL    HW241510   2.822   7.628   7.144 -2.6494  0.6893 -1.8619
13552SOL     OW41511   7.858   0.527   7.141 -0.4442 -0.2613  0.1973
13552SOL    HW141512   7.808   0.570   7.072  0.4948  0.4436 -0.0510
13552SOL    HW241513   7.903   0.598   7.186 -0.3478 -0.8044  0.9812
13553SOL     OW41514   7.125   1.580   7.281 -0.8739  0.0996  0.0410
13553SOL    HW141515   7.186   1.612   7.347  0.7346  0.6190 -1.6138
13553SOL    HW241516   7.122   1.486   7.294  0.2943  0.0697  0.1758
13554SOL     OW41517   6.815   0.671   6.675  0.1379 -0.0515  0.2874
13554SOL    HW141518   6.864   0.600   6.634 -1.4887 -1.8351  1.2581
13554SOL    HW241519   6.736   0.679   6.621  1.4996  3.1128 -1.5595
13555SOL     OW41520   7.036   3.236   4.348  0.3428  0.3773 -0.5800
13555SOL    HW141521   7.070   3.324   4.364  1.2415  0.0243 -0.4643
13555SOL    HW241522   6.967   3.248   4.283  1.4569  1.0023 -1.6891
13556SOL     OW41523   0.907   0.005   2.023 -0.3875  0.3470  0.3514
13556SOL    HW141524   0.877  -0.085   2.034 -2.6021  1.0003  0.0266
13556SOL    HW241525   0.970  -0.000   1.951 -1.1126 -0.8224 -0.2341
13557SOL     OW41526   1.183   0.459   6.008 -0.3616 -0.2301 -0.0001
13557SOL    HW141527   1.221   0.399   6.072 -0.8962  0.2127  0.7521
13557SOL    HW241528   1.249   0.528   5.998 -0.8045  0.3628  1.0508
13558SOL     OW41529   7.258   0.722   7.896  0.6338 -0.4422 -0.5450
13558SOL    HW141530   7.171   0.687   7.914  0.2381  0.6168 -0.3779
13558SOL    HW241531   7.317   0.662   7.942 -0.2239  1.0877  2.8348
13559SOL     OW41532   2.366   5.256   7.310 -0.1233  0.1302 -0.1424
13559SOL    HW141533   2.299   5.325   7.305 -2.3640 -1.9081 -0.1096
13559SOL    HW241534   2.344   5.207   7.390  1.1573 -0.8412 -0.3654
13560SOL     OW41535   5.865   1.168   6.449  0.1133 -0.1783 -0.1446
13560SOL    HW141536   5.850   1.260   6.428  1.5134  0.1586  0.2610
13560SOL    HW241537   5.784   1.139   6.492 -0.0646  1.0527  0.3727
13561SOL     OW41538   6.984   5.356   4.429  0.5570 -0.1088  0.0329
13561SOL    HW141539   6.940   5.307   4.360 -0.2793 -0.8760  1.0843
13561SOL    HW241540   6.962   5.448   4.411  0.8571 -0.2423 -1.0571
13562SOL     OW41541   1.342   1.465   5.484  0.0833 -0.3263 -0.4273
13562SOL    HW141542   1.260   1.514   5.477 -1.1828 -2.1035  0.9522
13562SOL    HW241543   1.401   1.523   5.532 -1.5152 -0.2302  1.5829
13563SOL     OW41544   1.946   6.585   6.615 -0.2797  0.2015 -0.0172
13563SOL    HW141545   1.860   6.548   6.595 -0.2690 -1.9029  3.0841
13563SOL    HW241546   1.933   6.629   6.700  1.3054  1.5622 -0.4297
13564SOL     OW41547   1.394   4.357   5.011 -0.3639  0.1321 -0.4545
13564SOL    HW141548   1.453   4.409   5.066  0.0752 -0.7422 -0.0816
13564SOL    HW241549   1.322   4.334   5.069  0.3362 -1.2053 -0.0655
13565SOL     OW41550   7.186   0.550   6.627 -0.0936 -0.9815  0.2935
13565SOL    HW141551   7.269   0.575   6.587 -0.1080  0.1585  0.9475
13565SOL    HW241552   7.122   0.556   6.555  0.3517 -1.7667 -0.1854
13566SOL     OW41553   5.791   5.397   4.554  0.3487  0.2167  0.3713
13566SOL    HW141554   5.800   5.353   4.470  1.9396  1.1369  0.0042
13566SOL    HW241555   5.742   5.336   4.609  2.1626 -1.8770 -0.2082
13567SOL     OW41556   2.241   2.310   0.861  0.1396 -0.1719 -0.1002
13567SOL    HW141557   2.192   2.381   0.902  1.4135 -0.1864  1.5283
13567SOL    HW241558   2.295   2.274   0.931  0.6200 -1.8004 -1.2408
13568SOL     OW41559   6.447   0.329   1.460 -0.2094 -0.1911 -0.4114
13568SOL    HW141560   6.485   0.259   1.408  0.6276 -1.2527  1.5094
13568SOL    HW241561   6.373   0.288   1.505  0.5812 -0.0223  1.0998
13569SOL     OW41562   7.079   5.280   2.127  0.2424  0.1322 -0.7761
13569SOL    HW141563   7.020   5.232   2.184  1.4639 -1.0559 -0.4525
13569SOL    HW241564   7.041   5.271   2.040 -0.7866  0.5867 -0.3786
13570SOL     OW41565   6.530   5.303   0.929 -0.4718 -0.0342  0.1256
13570SOL    HW141566   6.600   5.241   0.948 -0.2575 -0.2112 -1.1544
13570SOL    HW241567   6.477   5.305   1.009  0.2348 -0.9107  0.6256
13571SOL     OW41568   0.022   0.865   4.003  0.0594 -0.2880 -0.2363
13571SOL    HW141569  -0.062   0.873   4.047  1.0580  0.7431  1.6304
13571SOL    HW241570   0.086   0.858   4.075  1.7587  1.2104 -1.5025
13572SOL     OW41571   7.012   3.974   7.250  0.4492 -0.0555  0.0360
13572SOL    HW141572   6.973   3.961   7.164 -1.2308 -1.0030  0.8750
13572SOL    HW241573   6.991   4.064   7.273  0.5600  0.0769 -0.3866
13573SOL     OW41574   0.169   0.912   2.370  0.5764  0.0530 -0.6139
13573SOL    HW141575   0.236   0.845   2.380 -0.4784 -0.9933 -0.2849
13573SOL    HW241576   0.086   0.865   2.382 -0.2166  1.3122 -0.9459
13574SOL     OW41577   2.094   6.357   3.971 -0.0523  0.5574  0.3373
13574SOL    HW141578   2.041   6.383   3.895 -1.3826 -0.7855  0.7480
13574SOL    HW241579   2.166   6.420   3.973 -0.5446  1.2450 -1.4312
13575SOL     OW41580   3.732   4.597   4.574 -0.0605 -0.1781 -0.4320
13575SOL    HW141581   3.662   4.660   4.591  1.6200  1.5976  0.3516
13575SOL    HW241582   3.722   4.575   4.481 -2.7504 -1.4820  0.0779
13576SOL     OW41583   2.045   4.001   6.558 -0.2050  0.3296  0.3043
13576SOL    HW141584   2.126   4.008   6.609  0.4908  0.0931 -0.7324
13576SOL    HW241585   1.999   4.083   6.574  0.2039  0.4336  0.9762
13577SOL     OW41586   5.984   6.424   5.916  0.1959 -0.3810 -0.0978
13577SOL    HW141587   6.010   6.448   6.005 -0.8208 -1.5385  0.5395
13577SOL    HW241588   6.023   6.491   5.860 -0.5786  1.3596  1.3786
13578SOL     OW41589   5.009   6.568   1.334  0.5950 -0.0630 -0.1624
13578SOL    HW141590   5.030   6.614   1.415  1.2112 -0.8539  0.1416
13578SOL    HW241591   4.957   6.492   1.362  1.2126 -0.6048 -0.4435
13579SOL     OW41592   2.754   7.147   0.444 -0.3107 -0.3649 -0.4030
13579SOL    HW141593   2.683   7.151   0.380  1.8937  0.8725 -2.9682
13579SOL    HW241594   2.796   7.062   0.428 -0.3946 -0.5162  0.1645
13580SOL     OW41595   2.534   4.341   4.773 -0.4219  0.5682 -0.1118
13580SOL    HW141596   2.549   4.289   4.694  0.0861  1.4713 -0.6191
13580SOL    HW241597   2.443   4.370   4.766 -1.3974 -1.8806  1.1723
13581SOL     OW41598   4.397   2.937   2.889 -0.4689  0.1041 -0.1391
13581SOL    HW141599   4.320   2.993   2.878 -0.0817  0.5742 -0.5359
13581SOL    HW241600   4.415   2.939   2.983 -0.6867  0.3482 -0.1025
13582SOL     OW41601   3.727   3.841   4.384  0.3885  0.3648  0.2242
13582SOL    HW141602   3.671   3.893   4.441  0.6600 -0.0739  0.8970
13582SOL    HW241603   3.700   3.751   4.399 -0.6180  0.3288 -1.5151
13583SOL     OW41604   6.156   7.959   6.500  0.2415  0.0852 -0.5030
13583SOL    HW141605   6.092   7.888   6.496 -0.1119  0.3888 -0.3654
13583SOL    HW241606   6.109   8.035   6.466  0.5125  0.3231 -0.3534
13584SOL     OW41607   2.725   4.150   7.271  0.9208  0.2380  0.2438
13584SOL    HW141608   2.660   4.201   7.319 -1.4695  0.7356 -3.2070
13584SOL    HW241609   2.709   4.059   7.299  0.5531  0.6219  1.3461
13585SOL     OW41610   3.593   4.886   2.515 -0.3283 -0.1301  0.5228
13585SOL    HW141611   3.659   4.948   2.545  0.6586 -0.1902 -1.4014
13585SOL    HW241612   3.523   4.940   2.478  0.9775 -0.0753 -2.0718
13586SOL     OW41613   5.880   3.052   6.349  0.8265 -0.0024  0.0749
13586SOL    HW141614   5.945   3.118   6.370  0.9854  0.5256 -1.8933
13586SOL    HW241615   5.800   3.102   6.331  0.5486 -0.4573  0.0304
13587SOL     OW41616   2.415   5.745   3.708  0.2433  0.0045 -0.1617
13587SOL    HW141617   2.460   5.783   3.633  0.9463 -1.3995 -0.4909
13587SOL    HW241618   2.332   5.713   3.673 -0.3684  1.2171  0.1247
13588SOL     OW41619   5.941   7.614   5.096  0.2380 -0.2966 -0.0410
13588SOL    HW141620   5.983   7.690   5.055 -1.1106  2.5015  3.2081
13588SOL    HW241621   5.857   7.606   5.051 -0.0584  0.9046  0.2532
13589SOL     OW41622   5.354   7.117   1.220  0.2008 -0.4196 -0.0195
13589SOL    HW141623   5.294   7.069   1.163 -0.8133 -1.2221  1.6362
13589SOL    HW241624   5.298   7.160   1.285  1.2683  0.9774  0.0273
13590SOL     OW41625   7.042   5.939   5.828 -0.0856  0.0117 -0.2785
13590SOL    HW141626   7.118   5.932   5.770  1.7546 -1.2392  2.0920
13590SOL    HW241627   7.045   6.030   5.859  0.4839 -0.0270 -0.1986
13591SOL     OW41628   4.482   2.063   6.655  0.3871  0.1399 -0.1458
13591SOL    HW141629   4.553   2.000   6.662  1.2648  0.9014 -1.7170
13591SOL    HW241630   4.517   2.143   6.696 -0.2177  0.0342  0.6117
13592SOL     OW41631   3.507   3.179   1.506 -0.1165  0.0835  0.0965
13592SOL    HW141632   3.589   3.227   1.490  0.4603 -0.6288  0.8208
13592SOL    HW241633   3.527   3.089   1.478 -1.0174  0.1346 -0.7597
13593SOL     OW41634   5.134   1.799   7.801 -0.1498  0.7309 -0.0581
13593SOL    HW141635   5.092   1.715   7.819  1.2444 -0.0254 -0.1461
13593SOL    HW241636   5.068   1.865   7.822 -1.5039 -0.4031 -0.6489
13594SOL     OW41637   7.451   6.216   1.897 -0.5046 -0.0945  0.1918
13594SOL    HW141638   7.499   6.297   1.914  0.2885 -0.7213  0.9496
13594SOL    HW241639   7.476   6.157   1.967  0.2524 -1.5934 -1.2776
13595SOL     OW41640   2.424   7.822   5.599 -0.2263 -0.1323  0.2374
13595SOL    HW141641   2.430   7.912   5.632  1.2083  0.3280 -1.1728
13595SOL    HW241642   2.340   7.820   5.553 -0.0516  0.6422 -0.1404
13596SOL     OW41643   1.634   6.768   6.230  0.1483 -0.1688  0.1526
13596SOL    HW141644   1.544   6.802   6.235 -0.1015 -0.6813 -0.7097
13596SOL    HW241645   1.632   6.706   6.158  0.4848 -2.3219  1.8980
13597SOL     OW41646   0.529   2.906   0.485 -0.0696 -0.1346  0.0626
13597SOL    HW141647   0.522   2.869   0.573  0.5135 -0.9699 -0.2261
13597SOL    HW241648   0.441   2.898   0.448 -0.0678 -0.7697  0.1912
13598SOL     OW41649   7.637   1.303   0.267  0.2999 -0.0931  0.5395
13598SOL    HW141650   7.675   1.387   0.289  0.2419  0.0882 -0.0224
13598SOL    HW241651   7.564   1.292   0.328  2.3652 -1.3424  2.9534
13599SOL     OW41652   3.733   2.996   7.418 -0.6956  0.0523 -0.7513
13599SOL    HW141653   3.774   2.937   7.480  0.3536  0.1447 -1.3286
13599SOL    HW241654   3.641   2.969   7.415 -1.0363  0.7757  1.6626
13600SOL     OW41655   5.910   7.777   6.470  0.6724  0.1098  0.2067
13600SOL    HW141656   5.936   7.729   6.391 -0.2281 -0.5510  0.2992
13600SOL    HW241657   5.816   7.791   6.460  0.5703  0.1256  1.1079
13601SOL     OW41658   5.946   6.815   5.612  0.1621 -0.2337 -0.5753
13601SOL    HW141659   5.920   6.855   5.695 -1.2511  0.1334 -1.1585
13601SOL    HW241660   5.900   6.730   5.612  0.6161 -0.4820 -0.7347
13602SOL     OW41661   7.732   6.950   1.364  0.2784 -0.2621  0.5450
13602SOL    HW141662   7.644   6.959   1.400  0.6233  1.6149  1.0245
13602SOL    HW241663   7.779   6.896   1.428 -0.5753 -1.5614  0.1219
13603SOL     OW41664   1.397   6.234   0.680 -0.2227  0.1192  0.0443
13603SOL    HW141665   1.442   6.277   0.752 -1.2222  0.5575  0.4242
13603SOL    HW241666   1.423   6.142   0.687 -0.9690 -0.0105  1.4964
13604SOL     OW41667   7.184   6.243   5.110  0.2512 -0.1333 -0.9685
13604SOL    HW141668   7.184   6.149   5.132 -0.4609 -0.0028 -0.3330
13604SOL    HW241669   7.200   6.287   5.194  2.5333  0.2970 -1.5673
13605SOL     OW41670   2.552   7.457   6.548  0.0355  0.0712  0.1325
13605SOL    HW141671   2.593   7.506   6.476 -1.0589  1.5557  0.4682
13605SOL    HW241672   2.503   7.523   6.596 -0.7234 -1.2250  1.1908
13606SOL     OW41673   0.653   6.196   4.352  0.0108 -0.1049  0.1206
13606SOL    HW141674   0.598   6.118   4.341 -0.9450  0.2821  1.7105
13606SOL    HW241675   0.604   6.267   4.310  0.6730 -0.2534 -0.9417
13607SOL     OW41676   5.592   7.554   7.107  0.1841 -0.2010 -0.1752
13607SOL    HW141677   5.593   7.649   7.107  0.6729 -0.1699 -1.8291
13607SOL    HW241678   5.678   7.529   7.074  0.0906 -1.2148  0.3159
13608SOL     OW41679   0.465   5.178   2.701 -0.2599  0.7008 -1.0643
13608SOL    HW141680   0.533   5.117   2.729 -1.0131  0.2000 -0.2562
13608SOL    HW241681   0.489   5.203   2.612  0.9009  0.4360 -0.8427
13609SOL     OW41682   5.426   2.270   0.114  0.1549 -0.4716  0.1290
13609SOL    HW141683   5.348   2.222   0.085 -0.8848  0.9422  0.4654
13609SOL    HW241684   5.432   2.345   0.055  0.5994  0.0290  0.7883
13610SOL     OW41685   5.946   3.782   7.106 -0.0914  0.1743 -0.2129
13610SOL    HW141686   5.944   3.758   7.199 -0.8148  0.9849 -0.0008
13610SOL    HW241687   6.011   3.723   7.067  1.2908  0.7769  1.0675
13611SOL     OW41688   3.508   2.382   3.199  0.6574 -0.6136  0.0221
13611SOL    HW141689   3.523   2.297   3.240 -0.3104 -0.4743  0.6930
13611SOL    HW241690   3.423   2.411   3.233 -0.6755 -0.8928 -2.7072
13612SOL     OW41691   3.543   1.154   4.985  0.8676  0.7597 -0.1108
13612SOL    HW141692   3.593   1.098   5.045  2.9749  1.1913 -1.3747
13612SOL    HW241693   3.559   1.116   4.899 -0.4989  1.3106 -0.6258
13613SOL     OW41694   2.419   1.430   4.305 -0.1112 -0.1625  0.3544
13613SOL    HW141695   2.348   1.479   4.347  0.8466  0.4774  1.2900
13613SOL    HW241696   2.475   1.403   4.377  1.3946  0.6486 -0.4721
13614SOL     OW41697   3.401   0.738   2.866 -0.0251  0.2651  0.2775
13614SOL    HW141698   3.375   0.799   2.797 -0.2383 -1.2648 -1.0553
13614SOL    HW241699   3.415   0.655   2.820  1.6451 -0.3604  1.8155
13615SOL     OW41700   5.033   4.952   2.315  0.3995 -0.1144 -0.1342
13615SOL    HW141701   5.043   4.953   2.410  2.2168 -0.2726 -0.2917
13615SOL    HW241702   4.972   5.023   2.297  1.3685  1.0677  1.0414
13616SOL     OW41703   0.926   0.494   4.265 -0.9186  0.6495 -0.0818
13616SOL    HW141704   0.876   0.458   4.339 -2.4945  1.0899 -0.8896
13616SOL    HW241705   0.872   0.475   4.188  1.0236 -0.4607 -1.2557
13617SOL     OW41706   2.391   2.377   6.998  0.0694  0.3269 -0.8296
13617SOL    HW141707   2.308   2.424   6.990 -0.0900  1.1835  3.5306
13617SOL    HW241708   2.458   2.443   6.981 -0.1712  0.7540 -0.1562
13618SOL     OW41709   7.517   7.382   4.791  0.8017 -0.3606 -0.0524
13618SOL    HW141710   7.461   7.350   4.862  0.2406  0.1866 -0.2318
13618SOL    HW241711   7.491   7.331   4.714  0.0976  0.3048 -0.2762
13619SOL     OW41712   0.166   3.735   7.412 -0.4214  0.2458 -0.3333
13619SOL    HW141713   0.166   3.656   7.357  0.4850 -0.7244  1.0217
13619SOL    HW241714   0.131   3.706   7.496 -2.2811  1.8239 -0.4783
13620SOL     OW41715   7.542   5.278   4.796  0.6360  0.2660 -0.2327
13620SOL    HW141716   7.547   5.373   4.788  2.5251  0.6479  3.3956
13620SOL    HW241717   7.464   5.263   4.849  1.6029  0.0593  1.1815
13621SOL     OW41718   4.308   4.736   6.054  0.4432 -0.0800 -0.0788
13621SOL    HW141719   4.256   4.671   6.102 -0.7288  0.2532 -0.8632
13621SOL    HW241720   4.279   4.727   5.963  0.4997  1.3267 -0.2474
13622SOL     OW41721   6.679   5.044   2.725  0.1535  0.0447 -0.4185
13622SOL    HW141722   6.656   4.976   2.662  0.6691 -0.0793 -0.4799
13622SOL    HW241723   6.723   5.111   2.673  0.8654 -0.2030 -0.1414
13623SOL     OW41724   2.417   7.583   6.798 -0.4627 -0.0559  0.2012
13623SOL    HW141725   2.494   7.624   6.837 -0.8174  2.0015 -1.0725
13623SOL    HW241726   2.441   7.491   6.787  0.3592 -0.2968  3.2750
13624SOL     OW41727   4.539   0.435   6.254 -0.6876 -0.2859 -0.4056
13624SOL    HW141728   4.553   0.381   6.176  2.0714  1.6736 -1.4588
13624SOL    HW241729   4.510   0.520   6.219  0.5566  0.6060  0.6444
13625SOL     OW41730   5.661   6.103   7.104  0.0755  0.3548  0.0384
13625SOL    HW141731   5.749   6.124   7.135  0.4223 -2.1429  0.9508
13625SOL    HW241732   5.604   6.159   7.157  1.0687  2.2014 -0.7429
13626SOL     OW41733   0.496   4.820   0.865  0.3975 -0.2561 -0.4759
13626SOL    HW141734   0.415   4.784   0.828  0.3609 -1.3351  0.5822
13626SOL    HW241735   0.565   4.783   0.812  0.1870  1.7492 -2.2630
13627SOL     OW41736   7.704   1.849   2.767  0.1571  0.3752 -0.2492
13627SOL    HW141737   7.643   1.779   2.788  0.0913  0.9427  1.7011
13627SOL    HW241738   7.725   1.888   2.852  3.9973 -0.4117 -0.6170
13628SOL     OW41739   4.998   7.315   0.121  0.4078 -0.7075 -0.2568
13628SOL    HW141740   5.026   7.293   0.033  1.6355 -2.1686  0.4554
13628SOL    HW241741   5.055   7.388   0.147 -0.0906 -0.1406 -0.7086
13629SOL     OW41742   5.848   6.535   7.806  0.2588  0.2921  0.1986
13629SOL    HW141743   5.906   6.459   7.799  2.4615  1.5366  2.9193
13629SOL    HW241744   5.805   6.525   7.891  1.3397  2.4314  1.0851
13630SOL     OW41745   6.855   1.977   7.336 -0.3169  0.8822 -0.2621
13630SOL    HW141746   6.789   1.914   7.367 -0.6980  1.6886  0.6408
13630SOL    HW241747   6.827   2.000   7.248 -0.2074 -0.1477 -0.5825
13631SOL     OW41748   0.166   7.609   6.399  0.0619  0.1820  0.1234
13631SOL    HW141749   0.095   7.544   6.393 -1.7470  1.9873  0.7857
13631SOL    HW241750   0.218   7.581   6.474 -0.7543 -0.4461  0.4693
13632SOL     OW41751   2.061   4.968   0.473  0.1037  0.8758  0.7539
13632SOL    HW141752   2.071   4.956   0.568 -0.2682 -1.8872  0.5172
13632SOL    HW241753   1.970   4.947   0.455  1.0546 -2.7058 -0.6383
13633SOL     OW41754   5.625   5.013   5.262 -0.7902 -0.2216  0.2809
13633SOL    HW141755   5.685   4.939   5.252 -1.0830 -0.2518 -1.7380
13633SOL    HW241756   5.545   4.984   5.218 -0.1180  2.0967 -2.8239
13634SOL     OW41757   0.322   5.999   1.229 -0.0266 -0.3314  0.4508
13634SOL    HW141758   0.344   6.054   1.154 -0.3166 -1.1598 -0.2618
13634SOL    HW241759   0.399   5.944   1.242 -0.9251 -2.0577 -0.9822
13635SOL     OW41760   7.018   3.950   1.448  0.2472 -0.2550  0.6237
13635SOL    HW141761   6.999   3.940   1.354 -0.2301 -1.1493  0.8012
13635SOL    HW241762   7.054   4.038   1.456  2.6910 -1.0143 -0.8049
13636SOL     OW41763   2.078   0.013   6.444  0.5140  0.1884 -0.0817
13636SOL    HW141764   2.046  -0.065   6.488 -0.5881  0.7618  0.1534
13636SOL    HW241765   2.003   0.046   6.395  1.6726 -0.3830 -2.3834
13637SOL     OW41766   4.853   6.074   0.636  0.0818 -0.6199 -0.5427
13637SOL    HW141767   4.787   6.142   0.623  0.1698 -0.3503  0.3598
13637SOL    HW241768   4.919   6.092   0.569  0.3907  0.5529  0.0489
13638SOL     OW41769   2.866   7.681   2.654  0.6437 -0.3630  0.1509
13638SOL    HW141770   2.904   7.737   2.586  3.6207  0.8402  2.5681
13638SOL    HW241771   2.939   7.628   2.685 -1.3762 -3.3340  0.2530
13639SOL     OW41772   0.938   0.080   4.822  0.1394  0.1283 -0.2861
13639SOL    HW141773   1.021   0.059   4.779  0.8198 -0.6347  1.3084
13639SOL    HW241774   0.904  -0.005   4.851 -0.7291  0.5290 -0.0942
13640SOL     OW41775   7.196   6.664   5.501  0.5423 -0.0021  0.1701
13640SOL    HW141776   7.226   6.573   5.499 -0.7610 -0.4389 -0.4704
13640SOL    HW241777   7.232   6.703   5.422 -1.4543 -0.8578 -1.2497
13641SOL     OW41778   5.993   0.059   1.488  0.2583 -0.3969 -0.3623
13641SOL    HW141779   6.061  -0.001   1.519 -0.3710 -0.8159  0.2270
13641SOL    HW241780   6.025   0.146   1.510 -0.0338 -0.6670  1.2047
13642SOL     OW41781   4.727   5.031   2.434  0.3258  0.1920  0.1953
13642SOL    HW141782   4.764   4.972   2.500 -0.3607  0.3943  0.7752
13642SOL    HW241783   4.754   5.118   2.463  0.1685  0.2672  0.1149
13643SOL     OW41784   3.027   7.081   4.871  0.0677  0.2385 -0.2695
13643SOL    HW141785   3.027   7.070   4.776 -1.7392  0.8090 -0.3684
13643SOL    HW241786   2.935   7.094   4.894  0.2661 -1.3947  1.7564
13644SOL     OW41787   3.980   0.018   5.383  0.6557  0.3261  0.0196
13644SOL    HW141788   3.969   0.097   5.331 -0.1633  1.2898  1.5991
13644SOL    HW241789   3.903  -0.035   5.362 -0.0252  1.0112  0.7323
13645SOL     OW41790   6.221   6.786   3.662  0.8014 -0.7327  0.0053
13645SOL    HW141791   6.306   6.744   3.678  0.6032 -0.5541  1.7691
13645SOL    HW241792   6.171   6.720   3.613  1.3197 -1.6059  0.6098
13646SOL     OW41793   0.617   1.247   2.720 -0.2650  0.2133 -0.0307
13646SOL    HW141794   0.607   1.294   2.637 -3.4177 -0.4888 -0.2087
13646SOL    HW241795   0.578   1.305   2.786  1.3734  0.3714  0.8418
13647SOL     OW41796   6.548   2.827   7.813  0.3703 -0.3164  0.0442
13647SOL    HW141797   6.504   2.782   7.741 -0.8351  0.4344  0.2804
13647SOL    HW241798   6.497   2.805   7.891 -0.8852  2.1684  0.0343
13648SOL     OW41799   7.373   6.527   1.670  0.1475 -0.1619  0.2238
13648SOL    HW141800   7.301   6.474   1.704  0.4234  0.2966  1.5717
13648SOL    HW241801   7.405   6.576   1.745  0.1921  1.6058 -0.8848
13649SOL     OW41802   2.894   5.767   4.465  0.1831 -0.3050 -0.1380
13649SOL    HW141803   2.961   5.792   4.529 -0.3712  3.1432 -0.7336
13649SOL    HW241804   2.811   5.780   4.511 -0.2013  1.5704 -1.2672
13650SOL     OW41805   6.196   7.857   7.234  0.2504 -0.2685 -0.1414
13650SOL    HW141806   6.236   7.815   7.159 -0.4241 -1.4088  0.1101
13650SOL    HW241807   6.211   7.950   7.221  2.2458 -0.6023 -0.4588
13651SOL     OW41808   0.373   0.350   4.610  0.4458  0.0625 -0.1011
13651SOL    HW141809   0.369   0.344   4.706 -0.4020  0.4543 -0.0998
13651SOL    HW241810   0.428   0.426   4.592 -0.3239  0.6853  0.1045
13652SOL     OW41811   6.002   3.071   3.035 -0.0099  0.0959  0.0246
13652SOL    HW141812   6.079   3.122   3.012  0.4707 -0.7269 -0.2098
13652SOL    HW241813   5.930   3.116   2.991 -0.2391  2.7806  2.7764
13653SOL     OW41814   6.678   0.954   4.866  0.2910  0.2744 -0.1255
13653SOL    HW141815   6.633   0.971   4.949  0.3463  2.9278 -0.5435
13653SOL    HW241816   6.709   0.864   4.873  0.0600  0.3350  2.6239
13654SOL     OW41817   1.133   3.363   5.145 -0.5962 -0.2525  0.8009
13654SOL    HW141818   1.103   3.449   5.117 -0.0736 -0.8222 -1.7780
13654SOL    HW241819   1.053   3.311   5.153 -0.9226  0.4703  2.4923
13655SOL     OW41820   5.860   4.818   3.890 -0.1186 -0.1327  0.7120
13655SOL    HW141821   5.804   4.827   3.813 -1.5265  0.1724  1.7161
13655SOL    HW241822   5.940   4.865   3.867 -0.9052  0.8330 -0.2049
13656SOL     OW41823   2.823   0.151   3.630  0.0097 -0.1797  0.1645
13656SOL    HW141824   2.871   0.114   3.704 -0.6643 -0.6032  0.3962
13656SOL    HW241825   2.731   0.140   3.653 -0.2174  1.2460  0.0428
13657SOL     OW41826   3.319   3.551   0.341 -0.0068 -0.4353  0.2109
13657SOL    HW141827   3.300   3.458   0.356  1.0051 -0.6258  0.3429
13657SOL    HW241828   3.233   3.590   0.325 -0.7754 -0.9494  2.5963
13658SOL     OW41829   2.473   6.431   3.769  0.9792 -0.1755  0.2086
13658SOL    HW141830   2.532   6.410   3.697  0.9024  0.2337  0.0250
13658SOL    HW241831   2.525   6.413   3.848  1.3400  0.1521  0.0469
13659SOL     OW41832   1.256   4.079   5.063 -0.2565 -0.0246 -0.1207
13659SOL    HW141833   1.253   4.155   5.122  1.2095  0.7611 -1.0239
13659SOL    HW241834   1.336   4.033   5.086  0.0072 -0.0628 -1.0791
13660SOL     OW41835   1.398   4.313   4.469  0.7481 -0.0066 -0.2283
13660SOL    HW141836   1.341   4.360   4.408 -0.9071 -0.9853  0.5040
13660SOL    HW241837   1.357   4.325   4.554  2.2839  0.1904  0.5250
13661SOL     OW41838   2.132   6.722   6.110  0.3670  0.7443 -0.5410
13661SOL    HW141839   2.090   6.665   6.045 -0.4068  1.3794 -0.6276
13661SOL    HW241840   2.072   6.721   6.185  0.1452  1.7148 -0.6879
13662SOL     OW41841   7.239   1.169   2.489  0.2800 -0.1148  0.1473
13662SOL    HW141842   7.276   1.081   2.502  0.1621 -0.1136  0.5027
13662SOL    HW241843   7.305   1.215   2.437 -0.0130 -0.6578 -0.7312
13663SOL     OW41844   1.974   7.194   0.680 -0.0373  0.0006  0.1237
13663SOL    HW141845   1.938   7.172   0.594  1.6557 -0.0678 -0.6180
13663SOL    HW241846   1.915   7.260   0.715 -0.6997  0.1068 -1.1468
13664SOL     OW41847   4.254   1.655   6.634 -0.0255  0.0074  0.4948
13664SOL    HW141848   4.163   1.684   6.633  0.1002  0.7407  3.2630
13664SOL    HW241849   4.283   1.667   6.725  1.7977 -3.3916  0.5527
13665SOL     OW41850   7.084   1.654   4.227  0.6824 -0.5101 -0.0812
13665SOL    HW141851   7.063   1.586   4.163  1.0444 -1.4331  0.7633
13665SOL    HW241852   7.175   1.679   4.206  0.1005  0.7604 -1.2906
13666SOL     OW41853   5.292   5.236   2.098  0.1340  0.1370  0.1550
13666SOL    HW141854   5.368   5.274   2.053  0.0520 -0.4380 -0.4873
13666SOL    HW241855   5.327   5.157   2.140 -0.1809 -0.3096 -0.4216
13667SOL     OW41856   3.328   5.995   2.296 -0.0463  0.2676 -0.3433
13667SOL    HW141857   3.366   5.927   2.241  0.4072 -1.2920  1.7814
13667SOL    HW241858   3.385   5.998   2.373 -1.9756  0.6786  1.1329
13668SOL     OW41859   4.577   3.463   6.378  0.2576  0.8056 -0.1012
13668SOL    HW141860   4.641   3.400   6.410 -0.5342  0.4151  0.7941
13668SOL    HW241861   4.607   3.486   6.291  0.0799 -1.5442 -0.8702
13669SOL     OW41862   0.859   6.957   2.655  0.7223 -0.1294 -0.4888
13669SOL    HW141863   0.868   7.044   2.693  2.0909 -0.3213 -0.3450
13669SOL    HW241864   0.945   6.937   2.620  0.1115 -0.9504 -1.5687
13670SOL     OW41865   6.009   7.211   0.457  0.7105  0.0270  0.3497
13670SOL    HW141866   6.023   7.267   0.381  0.3239 -1.9908 -1.2978
13670SOL    HW241867   5.918   7.182   0.450  0.9772 -1.0352  0.9602
13671SOL     OW41868   1.237   0.533   0.220  0.2144  0.2393 -0.8102
13671SOL    HW141869   1.142   0.527   0.235  0.1803  0.6678 -0.8460
13671SOL    HW241870   1.256   0.461   0.160 -0.1800  0.4785 -1.2274
13672SOL     OW41871   4.818   6.105   1.806 -0.1169  0.6461  0.1041
13672SOL    HW141872   4.822   6.181   1.748  0.8545  0.0443 -0.6506
13672SOL    HW241873   4.724   6.093   1.824 -0.3916  1.1787 -0.8989
13673SOL     OW41874   5.234   3.488   2.525  0.0875 -0.1970 -0.3821
13673SOL    HW141875   5.263   3.480   2.616  1.2576 -0.9384 -0.7993
13673SOL    HW241876   5.315   3.501   2.475 -0.2454 -2.3993 -1.6088
13674SOL     OW41877   5.468   3.435   1.653 -0.2728 -0.2467 -0.6249
13674SOL    HW141878   5.416   3.434   1.733  1.3176  4.2777  0.7607
13674SOL    HW241879   5.550   3.391   1.678  0.2120  1.1247  0.3282
13675SOL     OW41880   3.967   2.761   2.904 -0.2328  0.2704 -0.2256
13675SOL    HW141881   3.992   2.696   2.838 -2.3977 -0.8608 -0.0328
13675SOL    HW241882   3.875   2.781   2.884 -0.0332  2.2738  0.5767
13676SOL     OW41883   0.166   5.026   1.967  0.2790 -0.1710 -0.5156
13676SOL    HW141884   0.116   4.965   1.912 -0.2956  0.1497 -0.3605
13676SOL    HW241885   0.214   5.080   1.904  0.1487 -0.2481 -0.6839
13677SOL     OW41886   3.932   4.445   2.975  0.2190 -0.0229 -0.1795
13677SOL    HW141887   3.866   4.376   2.983 -1.6275  1.8372  1.7690
13677SOL    HW241888   3.975   4.446   3.061  2.4166 -0.7289 -1.1868
13678SOL     OW41889   3.088   2.618   7.274 -0.2232  0.7636 -0.1820
13678SOL    HW141890   3.113   2.525   7.271  0.2105  0.7742  1.5549
13678SOL    HW241891   3.075   2.643   7.183  0.7689 -0.7186 -0.7709
13679SOL     OW41892   4.813   7.172   2.189 -0.3651 -0.4059  0.3603
13679SOL    HW141893   4.801   7.250   2.244 -2.6382 -1.4801  1.5598
13679SOL    HW241894   4.813   7.206   2.100  0.4787  1.1171  0.8988
13680SOL     OW41895   0.042   2.400   5.347  0.5894 -0.3614 -0.1113
13680SOL    HW141896   0.124   2.358   5.373  1.2978  0.9002 -0.2700
13680SOL    HW241897   0.008   2.439   5.428  0.8748  0.3311 -0.3214
13681SOL     OW41898   5.510   4.309   4.393 -0.1085  0.5238  0.3513
13681SOL    HW141899   5.572   4.379   4.376 -1.2237  1.2714 -0.7882
13681SOL    HW241900   5.509   4.300   4.488 -0.1066  2.2060  0.5337
13682SOL     OW41901   4.142   6.725   1.429 -0.4230  0.0031 -0.6470
13682SOL    HW141902   4.139   6.630   1.438 -0.5378 -0.2231 -2.6280
13682SOL    HW241903   4.071   6.757   1.485 -0.0801 -1.0142  0.4132
13683SOL     OW41904   5.340   4.313   5.792  0.2040 -0.5254  0.3348
13683SOL    HW141905   5.418   4.325   5.846  1.0451 -1.3122 -0.6709
13683SOL    HW241906   5.308   4.225   5.814  1.0805 -1.2306 -1.0583
13684SOL     OW41907   0.913   3.106   4.297  0.0517 -0.4588  1.3768
13684SOL    HW141908   0.968   3.030   4.277  0.6913  0.3255  0.1098
13684SOL    HW241909   0.864   3.122   4.217 -0.1706  0.3990  1.6766
13685SOL     OW41910   7.279   6.399   0.169  0.0669  0.0870  0.7775
13685SOL    HW141911   7.192   6.431   0.194  0.1838 -1.0460  2.9027
13685SOL    HW241912   7.282   6.410   0.074 -3.2531 -1.7257  0.2849
13686SOL     OW41913   5.968   2.398   3.844 -0.0763 -0.1687 -0.2403
13686SOL    HW141914   5.945   2.395   3.751  3.7168 -0.1798 -1.3117
13686SOL    HW241915   5.984   2.491   3.862 -0.3568 -0.2230  0.3249
13687SOL     OW41916   6.512   1.800   1.428 -0.0526 -0.5249 -0.3936
13687SOL    HW141917   6.535   1.793   1.335  1.3877 -1.0570 -0.0255
13687SOL    HW241918   6.421   1.830   1.428  0.6392  1.8896 -1.9672
13688SOL     OW41919   6.814   4.256   3.393  0.5220 -0.1450  0.0304
13688SOL    HW141920   6.780   4.340   3.425  0.5036 -0.3694  0.6168
13688SOL    HW241921   6.745   4.193   3.412  0.2879 -0.1961 -0.9601
13689SOL     OW41922   3.053   1.321   3.298  0.2768  0.3751  0.3059
13689SOL    HW141923   3.028   1.240   3.254  0.3356  1.1115 -1.1447
13689SOL    HW241924   3.107   1.292   3.372  2.1074 -0.8455 -1.4049
13690SOL     OW41925   2.313   7.874   2.436 -0.1162  0.1884  0.0846
13690SOL    HW141926   2.254   7.926   2.382 -0.0127 -1.2699 -1.5332
13690SOL    HW241927   2.313   7.917   2.521  0.0006  2.8039 -1.1623
13691SOL     OW41928   7.097   0.177   0.826 -0.0082 -0.5595 -0.5435
13691SOL    HW141929   7.188   0.147   0.829 -0.6573 -2.7155  2.4289
13691SOL    HW241930   7.095   0.252   0.885 -0.4372 -1.7059  0.9632
13692SOL     OW41931   4.071   2.924   5.865 -0.2533 -0.0123  0.1082
13692SOL    HW141932   4.154   2.958   5.831  0.2712  1.4444  2.5759
13692SOL    HW241933   4.074   2.830   5.846  0.0257  0.5905 -3.5017
13693SOL     OW41934   5.827   0.543   5.197  0.7980 -0.3792  0.0072
13693SOL    HW141935   5.734   0.566   5.194  0.2849 -2.1781  0.6942
13693SOL    HW241936   5.870   0.612   5.147 -1.1547 -0.6704 -2.2634
13694SOL     OW41937   2.308   4.534   0.525  0.3157 -0.5730 -0.0895
13694SOL    HW141938   2.355   4.519   0.607  0.9505  1.1872 -0.0983
13694SOL    HW241939   2.376   4.557   0.462 -0.3780  0.3031 -0.5411
13695SOL     OW41940   6.565   2.206   5.207  0.1230  0.0257  0.0056
13695SOL    HW141941   6.486   2.207   5.153  1.8952  0.8777 -2.7995
13695SOL    HW241942   6.575   2.296   5.237 -0.1893 -0.1754  0.7226
13696SOL     OW41943   2.267   3.950   6.337  0.1490 -0.1936  0.0774
13696SOL    HW141944   2.216   3.896   6.277 -0.0766 -1.6197  1.4540
13696SOL    HW241945   2.204   3.979   6.403  0.5205  0.6857  0.0509
13697SOL     OW41946   0.948   7.900   6.197  0.2949 -0.0492 -0.0851
13697SOL    HW141947   0.902   7.980   6.220  0.4615  0.2057 -0.6168
13697SOL    HW241948   0.892   7.858   6.132 -0.3700 -0.9601  1.0407
13698SOL     OW41949   3.077   2.243   0.069  0.0295  0.3560  0.6287
13698SOL    HW141950   3.162   2.203   0.089 -0.3461  0.0963  1.7820
13698SOL    HW241951   3.015   2.196   0.124 -1.2571 -0.9913 -1.7836
13699SOL     OW41952   1.951   0.728   7.808 -0.1295 -0.1227 -0.5472
13699SOL    HW141953   1.977   0.693   7.893 -0.0660 -0.4108 -0.6821
13699SOL    HW241954   1.980   0.819   7.809  3.6522 -1.1236 -1.7976
13700SOL     OW41955   4.748   5.594   5.952 -0.7686  0.2370  0.4435
13700SOL    HW141956   4.749   5.675   5.902 -0.8645 -0.0079  0.0371
13700SOL    HW241957   4.655   5.573   5.962 -0.7629 -1.2393 -1.8213
13701SOL     OW41958   4.493   3.166   1.938 -0.1571 -0.1227 -0.1326
13701SOL    HW141959   4.493   3.228   2.012  0.8118  0.0803 -0.2993
13701SOL    HW241960   4.407   3.179   1.897 -0.6617 -0.1655  0.8938
13702SOL     OW41961   0.209   1.435   3.844 -0.8240 -0.1270 -0.2942
13702SOL    HW141962   0.167   1.520   3.861 -0.4573 -0.1945  1.0908
13702SOL    HW241963   0.156   1.395   3.776 -1.1954  1.0825 -0.7428
13703SOL     OW41964   0.679   2.028   2.040 -0.2986  0.4497  0.1337
13703SOL    HW141965   0.681   2.057   1.948  1.7064 -0.5384 -0.1828
13703SOL    HW241966   0.596   1.981   2.048 -0.7366  0.9700 -1.0230
13704SOL     OW41967   1.299   6.150   5.457  0.2581 -0.2675 -0.3333
13704SOL    HW141968   1.253   6.092   5.395  2.4219 -2.3388 -0.1367
13704SOL    HW241969   1.389   6.153   5.425  0.9347  0.3634  1.5268
13705SOL     OW41970   6.706   0.268   3.814  0.1312 -0.1701  0.7275
13705SOL    HW141971   6.643   0.336   3.840  1.2008  0.9203  0.5582
13705SOL    HW241972   6.711   0.276   3.719  1.4963  0.6826  0.8375
13706SOL     OW41973   6.009   4.083   3.160 -0.4620  0.3658  0.2277
13706SOL    HW141974   6.074   4.147   3.132  0.8597  0.2538  2.7048
13706SOL    HW241975   6.058   4.020   3.213 -2.0240 -1.7419 -0.6913
13707SOL     OW41976   2.468   6.538   5.892  0.2526 -0.1306 -0.2181
13707SOL    HW141977   2.384   6.504   5.924  0.5162  1.2376  2.2552
13707SOL    HW241978   2.487   6.487   5.814 -2.5760 -0.9045 -0.5130
13708SOL     OW41979   5.726   6.356   2.162  0.0555  0.0454 -0.3454
13708SOL    HW141980   5.773   6.277   2.189 -2.0336 -1.4757 -0.9311
13708SOL    HW241981   5.785   6.399   2.100  1.4643 -0.7286  0.4128
13709SOL     OW41982   4.954   1.119   3.407  0.5687 -0.1110 -0.2373
13709SOL    HW141983   4.882   1.168   3.447  0.1584 -0.3408 -0.6735
13709SOL    HW241984   5.018   1.109   3.477  0.0428 -0.1548  0.2507
13710SOL     OW41985   4.771   4.759   4.784  0.0750 -0.5273 -0.8193
13710SOL    HW141986   4.813   4.793   4.863  0.1876 -0.1975 -1.0206
13710SOL    HW241987   4.678   4.755   4.807  0.1521 -0.8083 -0.5381
13711SOL     OW41988   3.597   3.213   4.481  0.3962 -0.0129  0.5058
13711SOL    HW141989   3.507   3.217   4.450  0.6428 -1.1491 -0.4451
13711SOL    HW241990   3.591   3.225   4.576 -0.6356  0.9326  0.3407
13712SOL     OW41991   1.709   4.821   2.642  0.4886  0.5047  0.1043
13712SOL    HW141992   1.665   4.742   2.613  1.1498  0.4062 -0.6613
13712SOL    HW241993   1.684   4.888   2.578 -1.7139  1.4921  1.8437
13713SOL     OW41994   3.605   6.654   0.824 -0.2683 -0.2875 -0.0560
13713SOL    HW141995   3.550   6.719   0.780 -1.4448 -0.5979  0.8816
13713SOL    HW241996   3.613   6.686   0.913 -0.8585 -1.3841  0.4203
13714SOL     OW41997   5.687   6.638   2.619 -0.6236  0.4729 -0.0920
13714SOL    HW141998   5.709   6.687   2.698 -1.2633 -1.3587  1.3102
13714SOL    HW241999   5.758   6.575   2.609 -0.6958  0.4949 -0.8257
13715SOL     OW42000   1.385   5.217   5.367 -0.2383  0.2366  0.2317
13715SOL    HW142001   1.334   5.215   5.448 -2.9012  0.2472 -1.3595
13715SOL    HW242002   1.398   5.310   5.349 -1.9434  0.3407 -0.6550
13716SOL     OW42003   6.104   7.436   6.719 -0.2139 -0.5788  0.0042
13716SOL    HW142004   6.150   7.425   6.635 -2.7071 -1.2773 -1.3601
13716SOL    HW242005   6.080   7.528   6.721  1.5402 -0.0864  0.9656
13717SOL     OW42006   0.926   4.250   7.563 -0.3884  0.0273 -0.1122
13717SOL    HW142007   0.852   4.259   7.624 -0.9459 -1.3972 -0.5273
13717SOL    HW242008   0.985   4.188   7.607  0.0318  0.3152 -0.2701
13718SOL     OW42009   7.022   1.595   3.163 -0.1553  0.1754 -0.0771
13718SOL    HW142010   7.037   1.643   3.244 -0.7097 -0.0156  0.1466
13718SOL    HW242011   7.008   1.504   3.191  2.3904 -0.4667 -0.5923
13719SOL     OW42012   4.534   2.109   0.710  0.0751  0.2263 -0.2559
13719SOL    HW142013   4.593   2.184   0.719 -1.3460  1.4998 -1.0931
13719SOL    HW242014   4.511   2.109   0.617  1.2169 -2.2043 -0.6123
13720SOL     OW42015   0.627   1.232   4.165  0.3164 -0.1890 -0.0390
13720SOL    HW142016   0.683   1.309   4.175 -0.4079  0.5590 -1.4090
13720SOL    HW242017   0.635   1.209   4.072 -2.8995  1.0388 -0.7677
13721SOL     OW42018   2.207   0.000   4.593 -0.1487 -0.5855 -0.4027
13721SOL    HW142019   2.131  -0.057   4.585 -0.2211 -0.5420 -0.0123
13721SOL    HW242020   2.202   0.058   4.516 -2.2453  1.5191  1.1782
13722SOL     OW42021   3.677   0.564   2.595 -0.4296 -0.9582  0.9137
13722SOL    HW142022   3.712   0.481   2.566 -1.7744 -0.4881 -2.4619
13722SOL    HW242023   3.751   0.625   2.591 -0.5904 -0.8369 -2.1924
13723SOL     OW42024   6.824   7.522   3.731  0.3514 -0.3838 -0.2196
13723SOL    HW142025   6.872   7.440   3.744 -0.9321 -1.5863 -2.3733
13723SOL    HW242026   6.744   7.511   3.781  0.0244 -0.6124 -0.7847
13724SOL     OW42027   6.610   2.952   2.676 -0.6900 -0.5652 -0.1151
13724SOL    HW142028   6.655   2.872   2.701 -0.6478 -0.3508  0.5140
13724SOL    HW242029   6.641   2.971   2.587  1.5475  0.3395  0.7863
13725SOL     OW42030   1.185   2.757   5.826  0.3742  0.3690 -0.2547
13725SOL    HW142031   1.123   2.827   5.847  1.3910  0.5283  2.5387
13725SOL    HW242032   1.152   2.680   5.871  1.8175  0.2920  0.7200
13726SOL     OW42033   7.177   2.793   2.027 -0.1096  0.1216  0.4346
13726SOL    HW142034   7.173   2.807   2.121 -0.3306 -0.3231  0.4956
13726SOL    HW242035   7.086   2.784   2.000 -0.2937  3.2722 -0.3185
13727SOL     OW42036   4.633   7.715   6.684  0.8722 -0.5731 -0.0480
13727SOL    HW142037   4.654   7.623   6.696  0.4376 -0.5168  1.3603
13727SOL    HW242038   4.579   7.737   6.761  0.7858  0.7867 -0.4767
13728SOL     OW42039   3.660   3.142   3.807 -0.0759  1.1508 -0.3048
13728SOL    HW142040   3.750   3.159   3.834 -0.6351  2.4568  0.8840
13728SOL    HW242041   3.615   3.226   3.818 -1.1738  0.8384 -2.0531
13729SOL     OW42042   3.878   6.711   3.734  0.0287  0.0394  0.1841
13729SOL    HW142043   3.936   6.660   3.790  0.4651  0.2788 -0.0486
13729SOL    HW242044   3.797   6.719   3.785  0.2269 -0.2192  0.5458
13730SOL     OW42045   2.415   1.356   5.516  0.0659  0.0064  0.0099
13730SOL    HW142046   2.365   1.389   5.590  0.5459  1.0234 -0.0940
13730SOL    HW242047   2.493   1.316   5.555  1.4940  2.6039  0.0195
13731SOL     OW42048   3.548   7.219   1.263 -0.0000  0.4827 -0.4905
13731SOL    HW142049   3.507   7.294   1.306  2.7226  1.4497  0.6773
13731SOL    HW242050   3.553   7.152   1.331  3.3192  1.6321  0.6451
13732SOL     OW42051   6.135   2.912   5.925  0.1233 -0.0974 -0.5551
13732SOL    HW142052   6.089   2.968   5.863  0.8657  0.6597 -0.4327
13732SOL    HW242053   6.084   2.918   6.006  1.0629  1.6983 -0.0494
13733SOL     OW42054   2.873   7.552   6.130 -0.4742  0.2740  0.3929
13733SOL    HW142055   2.921   7.633   6.151 -0.1271  0.2471 -0.2674
13733SOL    HW242056   2.932   7.482   6.157  0.4545  0.2279 -1.6213
13734SOL     OW42057   5.497   1.449   5.542  0.3290  0.0216  0.2841
13734SOL    HW142058   5.549   1.382   5.498 -0.0311 -1.0516  1.4469
13734SOL    HW242059   5.557   1.523   5.551  1.3377 -0.8132  0.6526
13735SOL     OW42060   5.993   2.312   6.609 -0.9198 -1.0611  0.0976
13735SOL    HW142061   6.042   2.257   6.671  1.6447  0.0375 -0.8096
13735SOL    HW242062   5.942   2.371   6.664 -2.0183 -2.8210  1.0824
13736SOL     OW42063   1.035   2.508   2.719 -0.1473  0.0793  0.2608
13736SOL    HW142064   0.994   2.545   2.798  0.5458 -0.2916  0.8071
13736SOL    HW242065   1.057   2.418   2.743  0.8601  0.2320 -0.0573
13737SOL     OW42066   5.809   7.640   0.807 -0.7371 -0.0774 -0.2187
13737SOL    HW142067   5.876   7.613   0.745  0.5468 -0.5736  1.3234
13737SOL    HW242068   5.819   7.735   0.813  0.6172 -0.2545  0.8173
13738SOL     OW42069   2.665   0.465   0.190 -0.4994 -0.7205 -0.2058
13738SOL    HW142070   2.604   0.393   0.206  0.2610 -1.3635 -0.1260
13738SOL    HW242071   2.725   0.464   0.265 -0.8709  0.4285  0.1337
13739SOL     OW42072   4.219   2.971   0.611  0.0615  0.6406  0.4385
13739SOL    HW142073   4.266   3.012   0.683  1.0774 -0.8141  0.6491
13739SOL    HW242074   4.196   3.043   0.553  0.9290  1.6090  1.2701
13740SOL     OW42075   2.803   4.607   5.354  0.1712 -0.1681 -0.0129
13740SOL    HW142076   2.820   4.631   5.263 -0.1882 -2.4523 -0.7398
13740SOL    HW242077   2.708   4.617   5.363  0.1289 -0.4802 -0.0821
13741SOL     OW42078   7.367   2.643   4.552  0.2368 -0.3759 -0.1326
13741SOL    HW142079   7.312   2.660   4.628  2.5741  0.7890  1.4173
13741SOL    HW242080   7.312   2.589   4.494 -2.5417  0.8354  1.1751
13742SOL     OW42081   5.811   0.713   4.359 -0.0044  0.1332  0.0939
13742SOL    HW142082   5.741   0.666   4.314 -0.5825  1.4450 -0.4071
13742SOL    HW242083   5.766   0.770   4.421  0.6754  0.1918  0.5483
13743SOL     OW42084   5.502   6.033   0.253 -0.6279 -0.3151 -0.1399
13743SOL    HW142085   5.453   5.955   0.227  0.2709 -0.8950 -0.1415
13743SOL    HW242086   5.517   6.021   0.347  0.5845 -0.7703 -0.3763
13744SOL     OW42087   3.626   6.855   1.922 -0.3748  0.0794 -0.0387
13744SOL    HW142088   3.689   6.870   1.992  0.0998 -1.0178 -0.2062
13744SOL    HW242089   3.619   6.759   1.917 -2.8948  0.1466  0.7310
13745SOL     OW42090   7.646   4.596   4.969 -0.9198 -0.7784 -0.6458
13745SOL    HW142091   7.627   4.686   4.998 -0.2154 -0.2268 -1.8516
13745SOL    HW242092   7.663   4.549   5.051 -1.0252  0.2410 -0.0063
13746SOL     OW42093   0.003   4.878   1.072  0.2353 -0.2694  0.7599
13746SOL    HW142094   0.016   4.812   1.004 -2.1663  0.5156 -0.5915
13746SOL    HW242095  -0.081   4.856   1.111 -0.5590  1.8585  0.3736
13747SOL     OW42096   4.330   4.493   6.577 -0.4098  0.4861  0.5736
13747SOL    HW142097   4.250   4.544   6.589 -0.3292  1.2328 -1.5576
13747SOL    HW242098   4.392   4.556   6.539  0.2614 -0.7537 -0.4495
13748SOL     OW42099   3.751   5.656   6.804 -0.1804 -0.0765 -0.1555
13748SOL    HW142100   3.733   5.747   6.780 -0.3657 -0.7591 -2.8660
13748SOL    HW242101   3.682   5.634   6.867  0.7517  2.0407  1.7700
13749SOL     OW42102   4.149   5.960   5.214  0.4490  0.8098 -0.5327
13749SOL    HW142103   4.236   5.937   5.182  0.0208 -0.1345 -1.0529
13749SOL    HW242104   4.161   5.972   5.309  0.8590 -0.7732 -0.3631
13750SOL     OW42105   0.474   5.216   0.024 -0.3826 -0.0894 -0.6395
13750SOL    HW142106   0.453   5.297  -0.022  0.7056  0.4081 -0.3049
13750SOL    HW242107   0.445   5.147  -0.035 -0.8054  0.5431 -1.1865
13751SOL     OW42108   2.545   4.719   5.887 -0.7391 -0.5249  0.1445
13751SOL    HW142109   2.481   4.768   5.835 -1.0862 -0.6884  0.4167
13751SOL    HW242110   2.493   4.654   5.934 -0.4871 -0.0693  1.0699
13752SOL     OW42111   5.560   1.075   4.778  0.0444 -0.0476  0.2331
13752SOL    HW142112   5.535   1.105   4.690  0.1073  2.7028  1.0523
13752SOL    HW242113   5.484   1.028   4.810  0.6161 -2.6726 -1.8476
13753SOL     OW42114   1.917   1.606   1.977  0.5775  0.0539 -0.4731
13753SOL    HW142115   1.878   1.683   2.019 -0.1571 -0.8975  0.6668
13753SOL    HW242116   1.847   1.542   1.974  1.3957 -0.8645 -0.6389
13754SOL     OW42117   3.375   3.760   4.689 -0.6771  0.1868  0.0110
13754SOL    HW142118   3.303   3.812   4.723 -0.8011  0.8481 -1.2112
13754SOL    HW242119   3.442   3.823   4.664  0.1394 -0.3914  0.6670
13755SOL     OW42120   5.691   7.417   2.512 -0.3646 -0.0680  0.1373
13755SOL    HW142121   5.701   7.350   2.445  1.9919  0.0983  0.2148
13755SOL    HW242122   5.639   7.486   2.470  1.5694  0.3115 -1.8367
13756SOL     OW42123   4.559   3.809   1.278 -0.2606 -0.4441  0.0159
13756SOL    HW142124   4.641   3.765   1.255  0.5237 -0.0386  1.8639
13756SOL    HW242125   4.523   3.757   1.349 -0.7221  0.3642  0.3882
13757SOL     OW42126   7.654   0.436   6.402 -0.0279 -0.0978  0.6408
13757SOL    HW142127   7.563   0.431   6.375  0.0264  0.1657  0.4078
13757SOL    HW242128   7.665   0.362   6.462 -1.0472  1.3159  2.6462
13758SOL     OW42129   2.370   7.834   1.914  0.2261  0.0035  0.3976
13758SOL    HW142130   2.280   7.801   1.912  0.3152 -0.3547  1.4918
13758SOL    HW242131   2.361   7.929   1.924 -0.0229  0.2625 -1.7474
13759SOL     OW42132   1.827   5.400   3.905 -0.0940 -0.3495  0.3207
13759SOL    HW142133   1.843   5.450   3.825  1.1625 -0.5202  0.4372
13759SOL    HW242134   1.732   5.399   3.914 -0.2602 -0.2536 -1.1159
13760SOL     OW42135   4.639   6.537   5.243  0.6177 -0.5445  0.0320
13760SOL    HW142136   4.605   6.450   5.262  1.0090 -0.8191 -0.4931
13760SOL    HW242137   4.729   6.522   5.214  1.6702  0.2840  2.6209
13761SOL     OW42138   7.792   4.392   2.606  0.1203 -0.0001 -0.1827
13761SOL    HW142139   7.824   4.466   2.657  1.4644 -0.2681 -0.6028
13761SOL    HW242140   7.849   4.319   2.630  0.2728 -0.3249 -1.4514
13762SOL     OW42141   1.505   5.901   7.054  0.9155  0.1261  0.5150
13762SOL    HW142142   1.572   5.876   6.991  0.7160  1.4464 -0.2571
13762SOL    HW242143   1.546   5.971   7.105  0.6683 -0.1442  1.0919
13763SOL     OW42144   1.984   3.775   3.564  0.0749 -0.6840  0.3323
13763SOL    HW142145   2.046   3.827   3.512  1.1498 -2.6382 -0.4789
13763SOL    HW242146   1.908   3.764   3.506 -0.8546  1.2304  1.1092
13764SOL     OW42147   6.867   7.974   3.222  0.1012  0.3448 -0.4992
13764SOL    HW142148   6.834   7.889   3.191  0.7543  0.2707 -1.0162
13764SOL    HW242149   6.960   7.958   3.239  0.1834  0.9117 -0.4191
13765SOL     OW42150   3.707   1.823   3.524  0.7480  0.2299 -0.9853
13765SOL    HW142151   3.647   1.801   3.453  1.4621  0.6096 -1.7207
13765SOL    HW242152   3.762   1.745   3.534  0.9336  0.3405 -1.1454
13766SOL     OW42153   3.504   7.856   5.296  0.1338 -0.4109 -0.4615
13766SOL    HW142154   3.452   7.935   5.308 -0.7772 -1.1057  0.3070
13766SOL    HW242155   3.458   7.789   5.346  0.4123 -1.6333 -1.7808
13767SOL     OW42156   7.534   6.370   1.518  0.1513 -0.1213 -0.1026
13767SOL    HW142157   7.485   6.421   1.582  0.7227 -1.5321  1.5515
13767SOL    HW242158   7.611   6.423   1.499 -0.5475  0.7864 -0.4483
13768SOL     OW42159   4.718   3.732   4.820 -0.3522  0.2070 -0.0142
13768SOL    HW142160   4.648   3.737   4.755 -0.9907 -1.0789  0.5495
13768SOL    HW242161   4.765   3.651   4.799  0.5381  0.6885  0.0584
13769SOL     OW42162   2.649   4.888   1.749 -0.0207  0.5531  0.2315
13769SOL    HW142163   2.689   4.802   1.762 -1.1497  0.2082  1.7197
13769SOL    HW242164   2.664   4.909   1.657  1.2372 -0.7278  0.1174
13770SOL     OW42165   4.592   6.134   5.720 -0.6624 -0.1402  0.1730
13770SOL    HW142166   4.504   6.098   5.728  0.1089 -1.9688  0.8064
13770SOL    HW242167   4.641   6.068   5.671  0.4032  0.8238 -0.1158
13771SOL     OW42168   5.017   2.871   4.257  0.6638  0.4619 -0.5949
13771SOL    HW142169   5.023   2.777   4.236  3.3476  0.5895 -0.6430
13771SOL    HW242170   5.015   2.914   4.171  0.4445  0.5129 -0.5659
13772SOL     OW42171   0.695   4.454   6.248 -0.5550 -0.2217  0.0368
13772SOL    HW142172   0.729   4.365   6.258 -0.3402 -0.1308  0.1417
13772SOL    HW242173   0.625   4.460   6.313 -2.0344 -1.0024 -1.4026
13773SOL     OW42174   3.062   4.763   5.370 -0.2322  0.3522 -0.1056
13773SOL    HW142175   3.102   4.694   5.423 -0.8960 -0.0561 -0.1245
13773SOL    HW242176   2.988   4.721   5.327  1.6237 -0.0019 -3.2705
13774SOL     OW42177   0.072   0.845   5.671 -0.0902 -0.2249 -0.0969
13774SOL    HW142178  -0.006   0.898   5.688  0.1765  0.0326  0.3493
13774SOL    HW242179   0.065   0.821   5.578  0.3557  1.5630 -0.6461
13775SOL     OW42180   0.791   4.121   1.928 -0.0489 -0.3934  0.5317
13775SOL    HW142181   0.776   4.067   2.005 -1.0344 -0.6097  0.2113
13775SOL    HW242182   0.718   4.099   1.869  1.5196 -1.4153 -1.1412
13776SOL     OW42183   5.229   1.174   6.955  0.4800 -0.0209  0.3781
13776SOL    HW142184   5.321   1.162   6.934  0.5718  0.9273  0.1755
13776SOL    HW242185   5.191   1.209   6.874 -0.1447 -0.7806  0.3304
13777SOL     OW42186   3.694   1.097   4.424 -0.1378  0.2603  0.0264
13777SOL    HW142187   3.653   1.094   4.510 -0.6001 -0.5235 -0.2147
13777SOL    HW242188   3.775   1.047   4.435  0.6916  1.6133  0.4405
13778SOL     OW42189   6.942   4.853   2.191 -0.2538  0.2575 -0.7115
13778SOL    HW142190   6.905   4.896   2.113 -2.4642 -0.1587  0.0331
13778SOL    HW242191   6.866   4.817   2.236  1.1801 -1.2103  0.6375
13779SOL     OW42192   7.485   7.103   2.993  0.3513 -0.2665 -0.1482
13779SOL    HW142193   7.450   7.179   3.039  0.5816  0.1781 -0.6967
13779SOL    HW242194   7.451   7.028   3.041 -1.8646  0.1262 -1.0057
13780SOL     OW42195   0.266   3.128   3.507 -0.3285  0.8264 -0.8288
13780SOL    HW142196   0.177   3.096   3.523 -0.0605  0.6500  0.3987
13780SOL    HW242197   0.322   3.053   3.525  0.1978  1.5133  0.5605
13781SOL     OW42198   1.038   5.918   3.237 -0.9276  0.4392 -0.9460
13781SOL    HW142199   0.953   5.922   3.282 -0.0045  1.1623  0.8314
13781SOL    HW242200   1.058   6.009   3.214  0.4441  0.6606  0.8759
13782SOL     OW42201   3.443   7.697   7.677 -0.4494 -0.1221  0.9765
13782SOL    HW142202   3.365   7.643   7.681 -0.9033  0.3173 -0.8510
13782SOL    HW242203   3.498   7.666   7.749 -1.6290 -1.4948  1.3264
13783SOL     OW42204   3.732   5.076   4.898 -0.2577 -0.4471 -0.2168
13783SOL    HW142205   3.790   5.149   4.875 -0.5866 -0.5409 -1.4019
13783SOL    HW242206   3.792   5.003   4.915  0.0057 -0.3747 -0.8012
13784SOL     OW42207   5.629   4.467   3.181  0.1817 -0.6005  0.3100
13784SOL    HW142208   5.640   4.478   3.276 -1.6264 -1.0071  0.6068
13784SOL    HW242209   5.643   4.555   3.145 -0.2795 -0.1865  1.1020
13785SOL     OW42210   6.224   4.697   7.761  0.2670  0.2828  0.1814
13785SOL    HW142211   6.258   4.608   7.775  0.9053  0.4012 -0.5554
13785SOL    HW242212   6.233   4.711   7.666  2.5991  2.0742  0.5673
13786SOL     OW42213   1.770   6.412   3.917  0.1116 -0.0222  0.0046
13786SOL    HW142214   1.707   6.473   3.953 -0.1902 -0.3499  0.0360
13786SOL    HW242215   1.744   6.327   3.952 -0.5099 -0.4315 -1.3934
13787SOL     OW42216   2.088   4.839   6.691 -0.6218 -0.5947 -0.4278
13787SOL    HW142217   1.998   4.822   6.720 -1.2224  0.5453 -1.4784
13787SOL    HW242218   2.095   4.934   6.692  0.4873 -0.6651 -0.6469
13788SOL     OW42219   7.339   1.558   4.014  0.2897 -0.1310  0.2109
13788SOL    HW142220   7.289   1.481   4.042 -0.8729  0.0410 -1.2425
13788SOL    HW242221   7.415   1.522   3.969 -0.3345 -0.4502 -0.6071
13789SOL     OW42222   1.716   1.593   3.630  0.3494  0.1906  0.1747
13789SOL    HW142223   1.747   1.556   3.712 -0.5504  0.1684  0.5126
13789SOL    HW242224   1.644   1.535   3.603 -2.3107  2.5599  1.6221
13790SOL     OW42225   3.850   7.655   4.166 -0.3598 -0.4251  0.5295
13790SOL    HW142226   3.893   7.669   4.251  1.2684  0.4012 -0.3805
13790SOL    HW242227   3.818   7.565   4.170  2.7430 -1.6496  0.7842
13791SOL     OW42228   0.862   3.885   6.005 -0.0983 -0.0523  0.3045
13791SOL    HW142229   0.865   3.915   5.914  0.6894 -0.2610  0.2566
13791SOL    HW242230   0.816   3.801   6.001  2.8113 -1.7608 -0.4090
13792SOL     OW42231   1.332   5.599   6.096  0.5851 -0.1145 -0.0874
13792SOL    HW142232   1.270   5.631   6.031  0.5807  0.8593  0.3803
13792SOL    HW242233   1.361   5.515   6.062  0.1282  0.1028 -1.0470
13793SOL     OW42234   1.480   4.700   7.370 -0.2331  0.1788 -0.3038
13793SOL    HW142235   1.564   4.740   7.344 -0.1254  0.5223  0.5416
13793SOL    HW242236   1.502   4.644   7.444 -0.8825  0.9871  0.5288
13794SOL     OW42237   2.171   4.584   6.744 -0.3517  0.3737  0.1781
13794SOL    HW142238   2.152   4.671   6.708 -0.1253 -0.2814 -1.6641
13794SOL    HW242239   2.085   4.545   6.760 -0.4530  1.1178  1.5422
13795SOL     OW42240   5.915   0.072   7.528 -0.2429 -0.4789  0.1733
13795SOL    HW142241   5.921   0.044   7.619 -0.1163  0.5386  0.4925
13795SOL    HW242242   6.005   0.084   7.500 -0.2246 -1.9396 -0.4789
13796SOL     OW42243   1.553   3.097   2.085 -0.5259  0.5142 -0.2848
13796SOL    HW142244   1.485   3.069   2.024 -1.0806 -0.2196  0.6248
13796SOL    HW242245   1.511   3.090   2.171  1.3947 -2.4218  0.5777
13797SOL     OW42246   6.460   5.927   6.160 -0.1551 -0.2544  0.4395
13797SOL    HW142247   6.416   5.955   6.080 -0.7244 -2.8569 -0.2491
13797SOL    HW242248   6.403   5.859   6.196  1.3882 -0.9909  1.6163
13798SOL     OW42249   3.430   7.972   7.838 -0.1146 -0.3171  0.3884
13798SOL    HW142250   3.419   7.978   7.743  3.3332  0.7741 -0.0748
13798SOL    HW242251   3.430   7.878   7.856  0.6099 -0.6045 -0.9715
13799SOL     OW42252   7.067   6.010   1.831  0.1129  0.2128  0.0806
13799SOL    HW142253   7.109   6.058   1.759 -0.7656  0.5732 -0.1995
13799SOL    HW242254   7.074   5.918   1.805  0.0152  0.3237 -0.3489
13800SOL     OW42255   7.292   3.790   7.715  0.6504 -0.3479 -0.0693
13800SOL    HW142256   7.295   3.842   7.795 -0.8773 -0.0379 -0.1806
13800SOL    HW242257   7.233   3.838   7.658  0.6905 -1.2449 -0.8880
13801SOL     OW42258   7.340   0.554   6.282 -0.0135  0.1718 -0.1521
13801SOL    HW142259   7.309   0.479   6.232  2.2158 -0.6320 -0.4579
13801SOL    HW242260   7.284   0.627   6.255 -1.2769 -1.0585 -0.9423
13802SOL     OW42261   6.101   3.179   4.395 -0.6479  0.3858  0.0918
13802SOL    HW142262   6.156   3.101   4.386  0.2641  1.1078 -0.9436
13802SOL    HW242263   6.028   3.163   4.335  0.7179  1.2461 -1.9498
13803SOL     OW42264   6.840   6.215   1.359 -0.1423  0.7411  0.2000
13803SOL    HW142265   6.773   6.215   1.428 -0.0101 -1.2928  0.4060
13803SOL    HW242266   6.904   6.150   1.388  0.8030  1.0793 -1.0429
13804SOL     OW42267   3.288   7.611   3.402 -0.4901 -0.6441  0.1736
13804SOL    HW142268   3.317   7.605   3.311 -0.9119 -0.3977  0.0208
13804SOL    HW242269   3.331   7.690   3.435 -2.5339  0.8895 -0.6448
13805SOL     OW42270   1.570   5.422   1.842 -0.3076 -0.1101  0.5643
13805SOL    HW142271   1.627   5.499   1.844  1.0686 -1.0160 -1.4277
13805SOL    HW242272   1.506   5.439   1.911  1.7372  1.4289  2.2228
13806SOL     OW42273   2.330   3.370   5.331 -0.4341  0.4193 -0.2095
13806SOL    HW142274   2.337   3.457   5.291 -0.3587  0.4338 -0.1657
13806SOL    HW242275   2.315   3.311   5.257  0.5214  0.3415 -0.3595
13807SOL     OW42276   5.712   0.202   3.549 -0.2202  0.4931 -0.8121
13807SOL    HW142277   5.704   0.296   3.564  1.5890  0.8510 -1.8051
13807SOL    HW242278   5.780   0.194   3.482  0.6416 -1.5800  0.2218
13808SOL     OW42279   1.128   4.320   3.004 -0.0496 -0.0893 -0.0047
13808SOL    HW142280   1.041   4.280   3.002  0.3391 -0.9453 -0.2482
13808SOL    HW242281   1.174   4.274   3.074 -0.2008  1.2676  1.0282
13809SOL     OW42282   0.241   2.119   2.218  0.2549 -0.0317 -0.2124
13809SOL    HW142283   0.164   2.140   2.271  0.3443 -1.4634  0.5177
13809SOL    HW242284   0.308   2.181   2.248 -0.7817  1.7561 -1.3948
13810SOL     OW42285   6.951   0.996   1.831 -0.0824  0.2109  0.1206
13810SOL    HW142286   6.889   1.026   1.765 -0.0612 -1.3438 -0.6447
13810SOL    HW242287   7.036   1.031   1.802 -0.1053 -0.3090 -0.5668
13811SOL     OW42288   5.712   1.599   4.054  0.6587  0.4554 -0.2681
13811SOL    HW142289   5.667   1.674   4.094  0.0024 -0.2893  0.4365
13811SOL    HW242290   5.772   1.638   3.991  0.3072  1.5742  0.0598
13812SOL     OW42291   2.581   0.307   1.034 -0.2867 -0.4965  0.7218
13812SOL    HW142292   2.567   0.273   1.123 -1.1832 -2.4040 -0.0877
13812SOL    HW242293   2.523   0.254   0.979  0.8068  0.1324 -1.1141
13813SOL     OW42294   6.807   2.098   7.922  0.3739  0.0707  0.2043
13813SOL    HW142295   6.812   2.097   8.017 -0.9366  1.8796  0.3590
13813SOL    HW242296   6.714   2.081   7.903  0.3378  1.0769 -0.6480
13814SOL     OW42297   4.129   1.477   8.000 -0.0198  0.7900  0.0477
13814SOL    HW142298   4.125   1.529   7.920 -0.9469  2.6035  1.1870
13814SOL    HW242299   4.040   1.479   8.034  0.9029  2.9194  2.7596
13815SOL     OW42300   5.240   1.066   3.909 -0.6617 -0.4775  0.3407
13815SOL    HW142301   5.149   1.058   3.882 -0.1185  1.6200 -2.5137
13815SOL    HW242302   5.273   0.976   3.909 -1.9038 -1.0063 -1.9960
13816SOL     OW42303   5.575   5.956   0.530  0.2794 -0.3277 -0.1475
13816SOL    HW142304   5.513   6.006   0.582 -0.1136 -1.3182  0.3692
13816SOL    HW242305   5.651   5.944   0.588 -0.1240 -1.3552  0.2006
13817SOL     OW42306   2.632   6.739   2.440 -0.0516  0.1202 -0.1809
13817SOL    HW142307   2.700   6.732   2.373 -0.7018 -0.9696 -0.7694
13817SOL    HW242308   2.677   6.721   2.522  1.1764  3.4097  0.0088
13818SOL     OW42309   4.936   1.236   7.283  0.0890 -0.0713  0.4242
13818SOL    HW142310   5.013   1.287   7.307  0.8090 -0.6541 -0.6108
13818SOL    HW242311   4.863   1.286   7.321  0.8668  1.0911  0.4659
13819SOL     OW42312   5.823   2.321   1.902 -0.1644  0.0697  0.1178
13819SOL    HW142313   5.808   2.235   1.939  0.6866 -0.4185 -0.6324
13819SOL    HW242314   5.748   2.336   1.844  0.8215 -1.2212 -1.5964
13820SOL     OW42315   2.987   7.534   2.346 -0.1130  0.0463  0.6754
13820SOL    HW142316   2.901   7.571   2.326 -0.3500 -1.1714 -0.7895
13820SOL    HW242317   3.012   7.487   2.266  2.0136  0.5216  0.9988
13821SOL     OW42318   0.295   3.026   2.815 -0.2254 -0.2399  0.2723
13821SOL    HW142319   0.351   3.052   2.742  0.7141  0.4392  1.2016
13821SOL    HW242320   0.254   2.945   2.786  1.0149 -0.5944 -0.5660
13822SOL     OW42321   7.255   2.964   1.429  0.3412  0.0645 -0.7866
13822SOL    HW142322   7.265   2.900   1.359  0.0522 -0.0060 -0.7640
13822SOL    HW242323   7.169   3.004   1.413  1.1778  1.6023 -1.7575
13823SOL     OW42324   4.945   7.200   0.360 -0.1996  0.1580 -0.0683
13823SOL    HW142325   4.852   7.187   0.342  0.5665 -3.7551 -2.3843
13823SOL    HW242326   4.986   7.202   0.273  1.9090  1.7862  0.8945
13824SOL     OW42327   5.873   3.044   7.778 -0.1702  0.5596  0.1642
13824SOL    HW142328   5.945   2.990   7.746  0.0706  0.3224  1.0734
13824SOL    HW242329   5.893   3.059   7.870 -1.3468  0.3998  0.4633
13825SOL     OW42330   6.136   1.002   0.782 -0.1096 -0.0917  0.1067
13825SOL    HW142331   6.089   1.065   0.726 -1.0286 -0.8104  0.0410
13825SOL    HW242332   6.227   1.009   0.754 -0.6630 -1.1195 -2.2204
13826SOL     OW42333   1.991   7.570   5.467  0.3738 -0.2172 -0.4867
13826SOL    HW142334   1.905   7.529   5.460 -0.3611  1.2779 -0.7560
13826SOL    HW242335   1.977   7.660   5.438  2.2422 -0.1835 -1.4924
13827SOL     OW42336   4.212   2.940   6.822 -0.3274 -0.1002 -0.0970
13827SOL    HW142337   4.178   2.974   6.739 -1.5473 -0.9277  0.0257
13827SOL    HW242338   4.190   3.007   6.886  1.4107  0.9518 -0.5468
13828SOL     OW42339   3.515   4.818   1.748  0.3962  0.5481  0.1276
13828SOL    HW142340   3.522   4.769   1.666 -2.0641 -0.6434  0.5397
13828SOL    HW242341   3.552   4.760   1.814 -1.1518 -0.1995  0.3874
13829SOL     OW42342   5.960   1.444   0.174 -0.6393 -0.1917 -0.2811
13829SOL    HW142343   5.934   1.399   0.093  0.0459 -1.5197  0.1974
13829SOL    HW242344   5.880   1.444   0.227 -0.8113 -0.2749 -0.5333
13830SOL     OW42345   1.015   1.128   4.148 -0.0800  0.7633  0.3182
13830SOL    HW142346   0.994   1.211   4.107  0.7016  0.9199  0.2133
13830SOL    HW242347   1.105   1.110   4.121  1.1090  1.6859  3.2128
13831SOL     OW42348   4.902   1.042   7.076  0.0709  0.4477  0.4268
13831SOL    HW142349   4.829   1.051   7.014  0.4439  1.4405  0.1165
13831SOL    HW242350   4.891   1.115   7.136  0.6161  0.4012  0.5816
13832SOL     OW42351   3.413   1.147   1.617  0.5268 -0.1915  0.2534
13832SOL    HW142352   3.477   1.079   1.634  0.2343 -0.2392  1.2121
13832SOL    HW242353   3.458   1.229   1.639 -0.4488 -0.3553  3.4117
13833SOL     OW42354   0.207   6.635   6.851  0.1661  0.6388  0.1357
13833SOL    HW142355   0.298   6.663   6.859  0.2537  0.5699 -0.5317
13833SOL    HW242356   0.204   6.549   6.894 -0.3312  2.0311  3.1096
13834SOL     OW42357   6.923   6.492   5.190 -0.2002 -0.3777 -0.1043
13834SOL    HW142358   6.883   6.553   5.252  1.2077  0.6572 -0.1704
13834SOL    HW242359   7.005   6.533   5.165 -0.2669 -1.2442 -1.9238
13835SOL     OW42360   4.703   5.002   6.854  0.0744 -0.3719 -0.4825
13835SOL    HW142361   4.793   5.009   6.885  0.3134 -1.4444 -0.8926
13835SOL    HW242362   4.654   5.065   6.908  0.9462 -0.2675  0.2092
13836SOL     OW42363   2.205   0.852   3.936  0.6798  0.1066  0.3210
13836SOL    HW142364   2.237   0.835   3.847  0.2315  0.9889 -0.0279
13836SOL    HW242365   2.140   0.783   3.951 -2.4330  2.3227 -1.7618
13837SOL     OW42366   3.830   2.817   2.231  0.0976  0.3831 -0.2393
13837SOL    HW142367   3.762   2.776   2.285  0.8308 -1.0770 -0.3571
13837SOL    HW242368   3.889   2.745   2.208  2.1349  1.6852  0.5057
13838SOL     OW42369   6.670   5.169   6.426  0.1732  0.4259  0.4215
13838SOL    HW142370   6.737   5.207   6.483 -0.1248  1.2284  0.2350
13838SOL    HW242371   6.623   5.243   6.389 -1.2816 -0.1204  1.0841
13839SOL     OW42372   4.276   3.958   6.205  0.1315 -0.2481  0.0002
13839SOL    HW142373   4.358   3.965   6.156 -0.0758  0.2097 -0.2946
13839SOL    HW242374   4.303   3.947   6.296  0.5390  1.3292  0.1020
13840SOL     OW42375   5.955   6.636   7.217 -0.0556 -0.4929  0.5468
13840SOL    HW142376   6.016   6.570   7.183 -1.1144 -1.4467  0.4198
13840SOL    HW242377   5.924   6.599   7.300  1.7611  1.3574  2.1789
13841SOL     OW42378   3.228   1.530   2.741  0.0553  0.0916  0.0377
13841SOL    HW142379   3.289   1.537   2.813 -0.8757  0.7075  0.7906
13841SOL    HW242380   3.187   1.444   2.751  0.6625 -0.2542 -0.3756
13842SOL     OW42381   2.230   2.239   3.885 -0.3356  0.6218  0.3502
13842SOL    HW142382   2.216   2.334   3.882  1.8306  1.0176  1.1991
13842SOL    HW242383   2.263   2.216   3.799 -0.2484  0.7400  0.3528
13843SOL     OW42384   2.845   6.702   6.696  0.0242 -0.4340  0.3244
13843SOL    HW142385   2.768   6.741   6.654 -0.2582 -0.0777  1.1463
13843SOL    HW242386   2.867   6.763   6.767  1.6324 -0.0522 -0.4551
13844SOL     OW42387   6.183   2.232   4.898  0.0630 -0.0573 -0.5659
13844SOL    HW142388   6.091   2.229   4.924  0.1252  0.2696 -0.2981
13844SOL    HW242389   6.184   2.196   4.809 -0.3553  0.1556 -0.6583
13845SOL     OW42390   1.819   7.593   2.660  0.3916  0.2019  0.0976
13845SOL    HW142391   1.832   7.502   2.632 -1.0949 -0.0621  0.1993
13845SOL    HW242392   1.806   7.642   2.579 -1.3585 -0.1348  0.1321
13846SOL     OW42393   3.277   4.423   1.437  0.0811  0.1051  0.7114
13846SOL    HW142394   3.243   4.335   1.420 -0.6851  0.8195 -1.8803
13846SOL    HW242395   3.362   4.425   1.393  0.7652  0.2244  2.0123
13847SOL     OW42396   6.177   7.842   0.157 -0.0796  0.1037  0.2363
13847SOL    HW142397   6.253   7.876   0.110  0.0339  0.5582  0.7291
13847SOL    HW242398   6.204   7.844   0.249 -0.2506 -0.8838  0.3120
13848SOL     OW42399   3.094   4.451   5.746 -0.1319 -0.3268 -0.3176
13848SOL    HW142400   3.079   4.451   5.840 -1.4876 -1.8869 -0.4950
13848SOL    HW242401   3.041   4.523   5.713 -0.6477 -0.5664 -0.0205
13849SOL     OW42402   2.138   7.373   4.500  0.7508 -0.1745  0.2964
13849SOL    HW142403   2.089   7.292   4.485 -0.2889  0.1976  1.5109
13849SOL    HW242404   2.225   7.355   4.464 -0.5246 -0.4631 -3.0020
13850SOL     OW42405   2.465   1.954   4.615  0.0212 -0.2877 -0.4400
13850SOL    HW142406   2.398   2.010   4.576 -0.8736 -1.0803 -0.0751
13850SOL    HW242407   2.514   2.013   4.673 -2.2999 -0.2406  1.6554
13851SOL     OW42408   3.929   7.643   4.451  0.0315 -0.2384 -0.3852
13851SOL    HW142409   3.949   7.723   4.499 -3.2530  1.3044 -1.3279
13851SOL    HW242410   3.900   7.582   4.519 -1.2698  0.7594 -0.0109
13852SOL     OW42411   3.996   4.709   5.434 -0.2646 -0.2280  0.0190
13852SOL    HW142412   4.010   4.654   5.357 -1.5332  1.1403 -1.2667
13852SOL    HW242413   4.082   4.715   5.475  0.6433 -0.3852 -1.7442
13853SOL     OW42414   5.365   4.299   5.160  0.4423  0.1892 -0.2348
13853SOL    HW142415   5.348   4.373   5.219 -0.7568  0.6617 -1.1369
13853SOL    HW242416   5.295   4.237   5.178  0.9248 -0.3430 -0.1355
13854SOL     OW42417   3.785   6.889   1.700  0.3020  0.5215  0.1375
13854SOL    HW142418   3.845   6.943   1.749  0.5352 -0.8522  1.4417
13854SOL    HW242419   3.711   6.874   1.759  0.0416 -0.2066 -0.3526
13855SOL     OW42420   0.094   0.357   5.636  0.0312  0.0939 -0.3240
13855SOL    HW142421   0.046   0.440   5.626  1.1345  0.5970 -1.8142
13855SOL    HW242422   0.052   0.297   5.575  2.6932  1.2694 -3.6499
13856SOL     OW42423   0.868   1.125   2.732 -0.4383  0.2809  0.0754
13856SOL    HW142424   0.784   1.170   2.732 -1.2672 -1.1561 -1.9102
13856SOL    HW242425   0.918   1.167   2.661  0.0003  0.1762  0.3175
13857SOL     OW42426   5.293   4.747   2.097 -0.2537  0.1192  0.6104
13857SOL    HW142427   5.333   4.799   2.028 -0.0740  0.5407  1.0269
13857SOL    HW242428   5.269   4.664   2.054  0.9442 -0.0940  0.3239
13858SOL     OW42429   0.851   2.004   4.886  0.6225 -0.6573  0.6868
13858SOL    HW142430   0.901   1.923   4.878  1.6227  0.1587 -2.1368
13858SOL    HW242431   0.782   1.996   4.821  0.1083  0.3673  1.0835
13859SOL     OW42432   3.132   4.675   7.313  0.1466  0.0480  0.1805
13859SOL    HW142433   3.060   4.728   7.346  0.5180  0.0977  0.9264
13859SOL    HW242434   3.127   4.684   7.217  1.0001  2.5158  0.3046
13860SOL     OW42435   4.926   4.966   4.016  0.0361 -0.4348 -0.6014
13860SOL    HW142436   4.907   5.056   4.045 -0.3858 -1.3789  2.3485
13860SOL    HW242437   4.999   4.938   4.072 -2.1185 -3.0640  1.1318
13861SOL     OW42438   6.077   7.528   3.909  0.2463  0.3171  0.5370
13861SOL    HW142439   6.011   7.579   3.861  1.0049 -1.7019 -2.9745
13861SOL    HW242440   6.037   7.442   3.920  1.0417  0.0517  1.4997
13862SOL     OW42441   3.231   4.821   7.519 -0.0890 -0.0995 -0.0091
13862SOL    HW142442   3.213   4.743   7.468  1.5074 -1.5558  1.4975
13862SOL    HW242443   3.301   4.866   7.471  2.6346 -2.3504  1.5384
13863SOL     OW42444   2.388   0.848   2.934  0.0563  0.4979  0.1627
13863SOL    HW142445   2.460   0.895   2.892 -0.3887 -0.1480 -1.4008
13863SOL    HW242446   2.373   0.772   2.878 -1.1415  0.0471  1.0425
13864SOL     OW42447   4.982   3.260   1.958  0.4831 -0.0160  0.6038
13864SOL    HW142448   5.018   3.259   1.869  0.2985  0.0968  0.5286
13864SOL    HW242449   4.915   3.327   1.956  1.2772  0.8141  1.1408
13865SOL     OW42450   1.581   0.381   2.002 -0.0687  0.5131 -0.3186
13865SOL    HW142451   1.528   0.454   2.035 -1.6631 -0.4440 -0.6386
13865SOL    HW242452   1.521   0.307   2.001  1.7985 -1.1412  1.0968
13866SOL     OW42453   1.802   7.969   0.328 -0.0317  0.3665 -0.2434
13866SOL    HW142454   1.713   7.963   0.363 -0.4084  0.7413 -1.1031
13866SOL    HW242455   1.804   7.904   0.258  1.1309 -1.3288  1.2730
13867SOL     OW42456   2.227   3.911   7.049 -0.5212  0.3053  0.2912
13867SOL    HW142457   2.193   4.000   7.051  0.3123  0.6347  2.5306
13867SOL    HW242458   2.262   3.900   6.960 -1.4564  1.8555 -0.3098
13868SOL     OW42459   0.780   4.333   6.610 -0.0232 -0.7695 -0.2370
13868SOL    HW142460   0.796   4.314   6.517 -1.4424 -1.8232 -0.3096
13868SOL    HW242461   0.803   4.251   6.655  1.3177 -0.0505  0.4630
13869SOL     OW42462   5.328   3.426   3.698 -0.1124 -0.5749  0.1041
13869SOL    HW142463   5.349   3.518   3.714 -1.0154 -0.6684  2.2128
13869SOL    HW242464   5.257   3.429   3.634 -0.8302  0.2866  0.9043
13870SOL     OW42465   5.638   3.389   1.896 -0.5154  0.3661  0.3881
13870SOL    HW142466   5.690   3.355   1.969  0.2231  0.0682 -0.2530
13870SOL    HW242467   5.696   3.381   1.820 -2.4011 -2.7227 -0.9528
13871SOL     OW42468   6.963   6.947   6.318 -0.2260 -0.1208 -0.2916
13871SOL    HW142469   6.875   6.917   6.292 -0.6468 -0.4374  1.4151
13871SOL    HW242470   7.019   6.923   6.244 -1.9049  2.1170 -2.4783
13872SOL     OW42471   7.680   7.334   0.950 -0.1048 -0.0555  0.3800
13872SOL    HW142472   7.613   7.388   0.992 -2.2014 -0.4171 -2.2318
13872SOL    HW242473   7.714   7.279   1.021 -0.8440  1.8127  2.2679
13873SOL     OW42474   6.256   3.283   1.369 -0.0199 -0.2683  0.2727
13873SOL    HW142475   6.305   3.273   1.450 -1.6048 -2.1479  1.0976
13873SOL    HW242476   6.165   3.265   1.394 -0.9124  1.4411 -1.4876
13874SOL     OW42477   6.266   7.976   2.853  0.3384 -0.7741  0.0621
13874SOL    HW142478   6.188   7.936   2.892 -1.9439  2.6786 -0.5691
13874SOL    HW242479   6.256   7.962   2.759  1.1419 -1.3018  0.0419
13875SOL     OW42480   3.441   2.805   3.277 -0.1503 -0.1783 -0.1640
13875SOL    HW142481   3.513   2.847   3.323 -1.5265  2.3657 -0.1413
13875SOL    HW242482   3.483   2.753   3.208  1.7273 -0.2509  0.9849
13876SOL     OW42483   6.595   2.718   2.836 -0.1422  0.1527 -0.2998
13876SOL    HW142484   6.583   2.755   2.923  0.9108  0.1513 -0.1452
13876SOL    HW242485   6.523   2.655   2.826 -0.0797 -0.0805  0.6937
13877SOL     OW42486   5.560   0.317   4.710  0.0550  0.1609  0.1352
13877SOL    HW142487   5.608   0.319   4.793  0.6987 -1.4044 -0.1559
13877SOL    HW242488   5.472   0.288   4.734  0.6155 -1.6689  0.1744
13878SOL     OW42489   2.823   2.291   2.022  0.2447  0.2103  0.2204
13878SOL    HW142490   2.862   2.271   2.107 -0.4993 -1.2774  0.2387
13878SOL    HW242491   2.799   2.383   2.028 -1.4292 -0.2872  2.3015
13879SOL     OW42492   3.799   1.453   7.504 -0.1493 -0.3580 -0.4814
13879SOL    HW142493   3.737   1.502   7.450  0.9703  0.3928 -1.1358
13879SOL    HW242494   3.883   1.466   7.460  0.6117 -0.6449  0.8522
13880SOL     OW42495   4.193   3.190   7.041 -0.3245 -0.2476  0.0885
13880SOL    HW142496   4.146   3.199   7.124 -0.3744 -1.3323  0.2015
13880SOL    HW242497   4.281   3.161   7.067  0.4678  1.8199 -0.1180
13881SOL     OW42498   5.341   0.007   2.622 -0.1259  0.0840  0.1437
13881SOL    HW142499   5.277   0.021   2.552  1.0315  0.2167 -0.9117
13881SOL    HW242500   5.361  -0.086   2.619 -1.6882 -0.3660  1.7732
13882SOL     OW42501   7.136   1.872   2.152  0.1973 -0.2462 -0.0250
13882SOL    HW142502   7.082   1.907   2.223 -0.4539 -0.0733 -0.5939
13882SOL    HW242503   7.087   1.894   2.072  1.0449 -0.2142 -0.5398
13883SOL     OW42504   7.615   4.048   2.342 -0.1261  0.2638  0.0455
13883SOL    HW142505   7.577   4.129   2.376  2.0598  1.3349  0.1047
13883SOL    HW242506   7.705   4.071   2.322  0.7583 -2.3406  0.6872
13884SOL     OW42507   0.175   7.182   7.602 -0.3028  0.0691  0.2080
13884SOL    HW142508   0.115   7.257   7.602  1.7092  1.7839  1.6895
13884SOL    HW242509   0.170   7.148   7.692  0.3804 -0.2663  0.1241
13885SOL     OW42510   7.787   0.047   1.684  0.2061  0.5004 -0.1314
13885SOL    HW142511   7.804   0.024   1.775  1.3317 -0.0554 -0.4661
13885SOL    HW242512   7.856   0.003   1.634 -2.3527 -2.1378 -1.6502
13886SOL     OW42513   1.248   3.490   1.677  0.1176 -0.0362  0.2381
13886SOL    HW142514   1.337   3.521   1.695  0.2385 -0.0252 -0.3293
13886SOL    HW242515   1.233   3.422   1.742  0.9810 -0.8137 -0.3314
13887SOL     OW42516   6.018   2.208   5.622 -0.0581  0.0530 -0.1327
13887SOL    HW142517   5.975   2.259   5.553  0.2336 -0.9964 -1.1110
13887SOL    HW242518   6.100   2.255   5.638 -0.2403  0.4433 -0.3144
13888SOL     OW42519   3.014   1.857   5.106 -0.3446  0.3853  0.4768
13888SOL    HW142520   3.005   1.936   5.052 -1.2061 -0.2979 -0.4260
13888SOL    HW242521   2.926   1.819   5.106  0.1728 -0.8470  0.4697
13889SOL     OW42522   0.097   2.688   3.104 -0.0080 -0.3007  0.1119
13889SOL    HW142523   0.014   2.683   3.152 -0.3355 -0.6238 -0.4672
13889SOL    HW242524   0.125   2.779   3.114 -1.1595  0.1862 -0.8436
13890SOL     OW42525   6.789   1.151   1.629 -0.0526 -0.0488 -0.0691
13890SOL    HW142526   6.741   1.149   1.546  0.5431 -1.4428 -0.4050
13890SOL    HW242527   6.865   1.206   1.610 -1.0646  1.5374  0.2482
13891SOL     OW42528   0.268   4.672   7.411  0.0824 -0.0322 -0.0945
13891SOL    HW142529   0.322   4.595   7.431  0.7953  0.1498 -1.2147
13891SOL    HW242530   0.193   4.637   7.364 -0.7415 -0.2715  1.3500
13892SOL     OW42531   4.315   6.782   4.036 -0.3173  0.4997  0.2281
13892SOL    HW142532   4.365   6.812   4.112 -1.8511  0.7717  1.1939
13892SOL    HW242533   4.279   6.698   4.063  0.1347  0.0060 -0.6864
13893SOL     OW42534   4.098   2.412   3.074 -0.0899  0.3651  0.4219
13893SOL    HW142535   4.119   2.351   3.145  0.7223 -0.1273 -0.2228
13893SOL    HW242536   4.176   2.467   3.066  0.3690 -0.4627 -0.9804
13894SOL     OW42537   5.303   6.354   4.994 -0.0088 -0.2224 -0.1854
13894SOL    HW142538   5.225   6.347   5.049  0.3620 -2.0669  0.1641
13894SOL    HW242539   5.328   6.263   4.975  2.6426  0.2553  0.5697
13895SOL     OW42540   6.369   4.189   0.997  0.0179  0.2530  0.0328
13895SOL    HW142541   6.289   4.179   1.048 -1.8050  2.5616 -2.1455
13895SOL    HW242542   6.418   4.259   1.041 -0.8659  1.2313 -0.4856
13896SOL     OW42543   2.025   5.888   6.585 -0.2242 -0.2648  0.0261
13896SOL    HW142544   1.978   5.862   6.506 -2.7554  0.0136  1.3435
13896SOL    HW242545   1.958   5.923   6.643  1.5460 -0.3271  2.2703
13897SOL     OW42546   6.416   7.337   3.236 -0.2020 -1.0677  0.0500
13897SOL    HW142547   6.487   7.400   3.247 -1.8430  0.5574  2.4440
13897SOL    HW242548   6.441   7.263   3.292 -0.7974 -0.0390  1.7525
13898SOL     OW42549   3.250   5.291   3.448  0.0500  0.5217 -0.1208
13898SOL    HW142550   3.329   5.251   3.410 -0.9076  0.3601 -2.0416
13898SOL    HW242551   3.280   5.377   3.478  1.7254 -0.8077  2.4267
13899SOL     OW42552   1.448   5.341   7.000  0.0564 -0.4683  0.1286
13899SOL    HW142553   1.369   5.381   7.036  0.0868  1.6313 -1.9707
13899SOL    HW242554   1.508   5.414   6.984  0.3874 -1.3001 -3.1995
13900SOL     OW42555   4.107   4.244   2.115  0.1140 -0.4911 -0.1291
13900SOL    HW142556   4.139   4.270   2.201  0.4354 -2.3182  0.3443
13900SOL    HW242557   4.186   4.233   2.062  0.2059 -2.9168  0.4268
13901SOL     OW42558   7.141   6.659   7.712  0.8194  0.0862 -0.0239
13901SOL    HW142559   7.220   6.651   7.658  0.0465  0.3608 -1.2589
13901SOL    HW242560   7.136   6.753   7.731  0.5395  0.1364 -0.3466
13902SOL     OW42561   3.047   5.819   6.851  0.0453  0.4211  0.3117
13902SOL    HW142562   2.982   5.749   6.838  1.3790 -0.6240 -1.0677
13902SOL    HW242563   3.044   5.837   6.945 -1.1251 -0.7008  0.5199
13903SOL     OW42564   0.528   4.643   5.284  0.5016  0.0048  0.4451
13903SOL    HW142565   0.523   4.552   5.314  0.5941 -0.1711 -0.0647
13903SOL    HW242566   0.522   4.637   5.189  2.3015  0.3791  0.2668
13904SOL     OW42567   2.614   0.859   5.316  0.3323  0.5740 -0.0072
13904SOL    HW142568   2.529   0.823   5.339  0.2203  0.5337 -0.4598
13904SOL    HW242569   2.600   0.954   5.314 -0.0564  0.5179 -1.3592
13905SOL     OW42570   4.826   3.790   7.459  0.4304 -0.1243  0.6660
13905SOL    HW142571   4.852   3.720   7.399 -0.8760 -0.5021  0.5068
13905SOL    HW242572   4.785   3.856   7.403  1.1342  0.5285  0.8917
13906SOL     OW42573   6.495   0.376   5.930 -0.4041 -0.0262  0.0218
13906SOL    HW142574   6.514   0.467   5.908  0.4069 -0.1194  0.3237
13906SOL    HW242575   6.479   0.333   5.846  1.8988 -0.2163 -0.3606
13907SOL     OW42576   6.844   0.308   1.891  0.4768  0.2171  0.4497
13907SOL    HW142577   6.841   0.401   1.911  0.4069 -0.2625  2.9510
13907SOL    HW242578   6.923   0.297   1.838 -0.5604  1.9304 -1.5615
13908SOL     OW42579   1.036   2.982   6.639 -0.4510 -0.7497 -0.1066
13908SOL    HW142580   1.023   2.899   6.592 -0.4878 -0.7691 -0.0628
13908SOL    HW242581   1.123   3.012   6.612  0.3922 -1.7680  1.3338
13909SOL     OW42582   4.568   3.347   4.479 -0.8397 -0.6542 -0.1321
13909SOL    HW142583   4.550   3.438   4.505 -0.5158  0.0303 -2.1497
13909SOL    HW242584   4.661   3.336   4.497 -0.6249 -0.1969 -0.9021
13910SOL     OW42585   5.875   5.556   2.190  0.2557  0.7803  0.2937
13910SOL    HW142586   5.810   5.622   2.213  0.4526  0.8535  0.6325
13910SOL    HW242587   5.956   5.605   2.175  0.0273  0.8050 -1.0631
13911SOL     OW42588   5.460   1.963   0.466  0.0745 -0.1947 -0.2925
13911SOL    HW142589   5.395   2.012   0.416  0.9376  1.5156  0.1799
13911SOL    HW242590   5.544   1.986   0.424  0.6548 -0.0034  0.9448
13912SOL     OW42591   1.230   7.132   4.967 -0.1024  0.0014 -0.2091
13912SOL    HW142592   1.297   7.200   4.972 -0.9630  0.8439  0.2947
13912SOL    HW242593   1.278   7.052   4.946  1.1367  0.4441  0.8370
13913SOL     OW42594   6.543   6.087   3.241 -0.3272 -0.5272  0.2088
13913SOL    HW142595   6.461   6.133   3.226 -0.4601  0.0649  2.4454
13913SOL    HW242596   6.559   6.096   3.335  2.0889 -0.9960 -0.0952
13914SOL     OW42597   1.827   3.531   6.308 -0.0199  0.5819  0.0636
13914SOL    HW142598   1.879   3.588   6.366  0.6864  0.2816 -0.2616
13914SOL    HW242599   1.738   3.564   6.316 -0.4738 -0.9915  3.2846
13915SOL     OW42600   3.605   6.909   3.967  0.2742 -0.6200 -0.0252
13915SOL    HW142601   3.612   6.895   4.061 -2.7409  0.5988  0.4876
13915SOL    HW242602   3.626   6.824   3.928  1.3927 -1.1947  1.7019
13916SOL     OW42603   6.559   5.249   0.126  0.2909 -0.3119 -0.2323
13916SOL    HW142604   6.576   5.215   0.213 -0.6079 -0.0463  0.0598
13916SOL    HW242605   6.532   5.173   0.075 -1.3907 -0.1227  0.3324
13917SOL     OW42606   1.106   7.947   7.554 -0.5161  0.2032  0.3541
13917SOL    HW142607   1.187   7.997   7.567 -0.2254 -0.3909  0.8853
13917SOL    HW242608   1.114   7.910   7.466  0.5862 -1.2512  1.0267
13918SOL     OW42609   6.521   3.678   6.669  0.3731 -0.5890 -0.0672
13918SOL    HW142610   6.550   3.616   6.737  0.1932 -1.0344 -0.3970
13918SOL    HW242611   6.428   3.690   6.686  0.5615  0.1931  0.4715
13919SOL     OW42612   6.463   5.399   3.569  0.6345  0.5625  0.0445
13919SOL    HW142613   6.531   5.334   3.588 -0.5097 -0.5465  0.4914
13919SOL    HW242614   6.473   5.417   3.475  0.1930 -1.2298 -0.3853
13920SOL     OW42615   1.864   4.740   6.828  0.4232  0.5189  0.3778
13920SOL    HW142616   1.811   4.661   6.830  0.6655  0.2605 -1.5417
13920SOL    HW242617   1.801   4.811   6.839 -0.2936  0.1837 -1.1871
13921SOL     OW42618   4.492   7.768   5.384  0.1683  0.8403  0.0665
13921SOL    HW142619   4.404   7.775   5.346 -0.8541 -4.9252  0.4297
13921SOL    HW242620   4.476   7.753   5.478  1.3426 -0.9389  0.0411
13922SOL     OW42621   5.711   2.048   2.339  0.1424  0.5568 -0.3068
13922SOL    HW142622   5.672   1.989   2.404 -1.5596  1.8252 -0.0941
13922SOL    HW242623   5.762   2.110   2.392 -3.1727  3.0958  0.2754
13923SOL     OW42624   7.089   4.324   2.059 -0.1070  0.8730 -0.3657
13923SOL    HW142625   7.126   4.327   2.147  0.4190 -2.0174 -0.3954
13923SOL    HW242626   7.003   4.365   2.067  0.5895  2.1020  1.1097
13924SOL     OW42627   6.384   5.502   0.498  0.3751  0.1662  0.2499
13924SOL    HW142628   6.380   5.467   0.587 -1.5018 -0.0148  0.1191
13924SOL    HW242629   6.453   5.568   0.502 -0.3571  0.8863  2.1203
13925SOL     OW42630   1.501   3.038   6.821  0.0902 -0.2374 -0.1131
13925SOL    HW142631   1.444   3.060   6.747 -0.7873 -2.9447 -0.3351
13925SOL    HW242632   1.477   2.949   6.844  4.3437 -1.6633 -0.3310
13926SOL     OW42633   6.680   7.707   4.585 -0.1887  0.8528 -0.2054
13926SOL    HW142634   6.769   7.690   4.615 -0.0781  0.6612 -0.6322
13926SOL    HW242635   6.692   7.754   4.502 -0.4656 -0.5804 -1.0793
13927SOL     OW42636   0.669   0.436   0.824  0.0387  0.3782  0.2369
13927SOL    HW142637   0.589   0.408   0.779 -0.5957 -0.6731  1.9645
13927SOL    HW242638   0.699   0.359   0.871 -0.0495  1.7368  2.6668
13928SOL     OW42639   6.722   6.737   7.512 -0.7336  0.1331 -0.6683
13928SOL    HW142640   6.721   6.643   7.531  0.9514  0.5461  1.8961
13928SOL    HW242641   6.636   6.768   7.540 -0.1508 -0.1820  1.7159
13929SOL     OW42642   1.472   4.971   6.693 -0.4225 -0.0657 -0.3445
13929SOL    HW142643   1.484   4.920   6.773 -1.1520  0.0211 -0.1777
13929SOL    HW242644   1.427   5.050   6.720  1.1730  0.9454 -0.5215
13930SOL     OW42645   3.057   4.344   5.158 -0.1206 -0.5605  0.2408
13930SOL    HW142646   3.135   4.310   5.113  0.6149  1.1798  0.1511
13930SOL    HW242647   3.029   4.418   5.104  0.0384  0.7990  1.9553
13931SOL     OW42648   2.622   6.634   5.229 -0.2309  0.1915 -0.7006
13931SOL    HW142649   2.663   6.569   5.172  0.7353  1.3371 -1.3572
13931SOL    HW242650   2.601   6.707   5.171  0.0931  1.0870  0.2767
13932SOL     OW42651   7.686   0.552   4.137 -0.4344  0.3723 -0.3051
13932SOL    HW142652   7.692   0.496   4.215 -0.0977 -0.1662 -0.7152
13932SOL    HW242653   7.765   0.533   4.088 -1.3301 -0.4053 -1.5094
13933SOL     OW42654   2.091   5.197   5.313 -0.0657 -0.0614 -0.1502
13933SOL    HW142655   2.059   5.271   5.366  1.9978  0.1949  0.8395
13933SOL    HW242656   2.109   5.128   5.377  0.3467 -0.5611 -0.8001
13934SOL     OW42657   7.850   2.278   6.507 -0.2463  0.2868  0.5670
13934SOL    HW142658   7.885   2.322   6.584 -1.3959 -1.2463  2.0497
13934SOL    HW242659   7.790   2.341   6.468  0.7528  1.2800  0.5731
13935SOL     OW42660   2.544   0.046   5.726  0.1991 -0.2359 -0.8515
13935SOL    HW142661   2.493   0.078   5.800 -0.3562  0.1100 -1.3730
13935SOL    HW242662   2.629   0.088   5.736  0.2329 -0.4378 -0.2422
13936SOL     OW42663   7.821   0.851   5.503 -0.3083 -0.3095  0.2328
13936SOL    HW142664   7.751   0.833   5.440  0.2810 -1.5396 -0.0819
13936SOL    HW242665   7.805   0.942   5.531 -0.8496  0.1065 -1.3396
13937SOL     OW42666   5.781   0.828   2.151 -0.1224 -0.0421 -0.5054
13937SOL    HW142667   5.773   0.923   2.139 -1.5512 -0.1235 -0.4702
13937SOL    HW242668   5.700   0.793   2.112 -0.2423 -1.1266  0.6636
13938SOL     OW42669   4.552   5.926   4.898  0.3064 -0.0255  0.5142
13938SOL    HW142670   4.638   5.884   4.896  0.2728 -0.0698 -0.6784
13938SOL    HW242671   4.526   5.933   4.806 -1.1960 -0.4570  0.8785
13939SOL     OW42672   4.088   1.162   2.082 -0.1307  0.0289  0.8500
13939SOL    HW142673   4.012   1.105   2.092 -0.2193 -0.0085  0.0124
13939SOL    HW242674   4.161   1.113   2.121 -0.0774 -0.9329 -0.4191
13940SOL     OW42675   5.407   1.877   4.125 -0.4321 -0.2062 -0.2388
13940SOL    HW142676   5.495   1.849   4.150 -0.4306 -0.8735 -0.9337
13940SOL    HW242677   5.353   1.860   4.202  0.1741  0.9470  0.4773
13941SOL     OW42678   3.880   5.374   5.170 -0.1653 -0.2698 -0.3615
13941SOL    HW142679   3.961   5.399   5.125  0.7504 -0.1218  1.2778
13941SOL    HW242680   3.843   5.456   5.200  0.4825 -0.4827  1.1358
13942SOL     OW42681   2.977   3.511   5.587  0.7532  0.1345 -0.1445
13942SOL    HW142682   3.047   3.527   5.650  0.8087 -0.5203 -0.0337
13942SOL    HW242683   2.909   3.467   5.638 -0.5214  2.3337  0.1908
13943SOL     OW42684   7.428   6.583   1.931 -0.2550 -0.0542  0.5775
13943SOL    HW142685   7.369   6.593   2.007 -0.1948 -0.1598  0.6379
13943SOL    HW242686   7.488   6.513   1.956  0.6820  0.8833  1.0115
13944SOL     OW42687   6.671   3.291   0.833  0.4516 -0.2127  0.2431
13944SOL    HW142688   6.743   3.239   0.869  0.9948 -0.6905 -1.4694
13944SOL    HW242689   6.603   3.227   0.813 -0.0420  0.1116  0.8540
13945SOL     OW42690   4.558   3.910   3.266 -0.3029 -0.0983  0.0398
13945SOL    HW142691   4.551   3.993   3.314 -0.7181  0.1370 -0.4150
13945SOL    HW242692   4.468   3.878   3.261 -0.2441 -0.1962 -0.4458
13946SOL     OW42693   4.814   3.445   4.412  0.1162  0.1186  0.1386
13946SOL    HW142694   4.871   3.406   4.347 -0.5125 -0.5274 -0.0359
13946SOL    HW242695   4.748   3.493   4.361  1.5375  2.4846  0.3388
13947SOL     OW42696   0.026   6.430   7.384  0.2015  0.3016  0.8211
13947SOL    HW142697   0.049   6.337   7.376 -1.4919 -0.1606  0.9010
13947SOL    HW242698  -0.054   6.430   7.437 -1.3209  1.5948 -1.3402
13948SOL     OW42699   1.152   5.268   5.837 -0.3779  0.2658  0.2369
13948SOL    HW142700   1.149   5.296   5.929 -0.9116  0.9031  0.0337
13948SOL    HW242701   1.213   5.328   5.795  0.6464 -0.6600  0.3725
13949SOL     OW42702   6.384   4.365   7.228  0.0408  0.0993 -0.6875
13949SOL    HW142703   6.441   4.371   7.152 -0.4919 -2.5524 -1.4150
13949SOL    HW242704   6.390   4.273   7.255 -3.0272 -0.0642 -0.1672
13950SOL     OW42705   3.835   3.687   5.940  0.5382 -0.0759 -0.0265
13950SOL    HW142706   3.905   3.661   5.880 -0.3305  1.5726 -1.8918
13950SOL    HW242707   3.871   3.762   5.988  0.3802  0.2123 -0.3502
13951SOL     OW42708   6.333   3.032   3.392  0.1537 -0.3783  0.2752
13951SOL    HW142709   6.387   3.061   3.319 -0.2014  0.0003  0.1530
13951SOL    HW242710   6.393   2.990   3.453  0.8729  1.4894  0.9257
13952SOL     OW42711   4.273   1.889   0.223  0.2491 -0.3191 -0.2266
13952SOL    HW142712   4.259   1.885   0.317  2.5065  0.7961  0.2213
13952SOL    HW242713   4.353   1.839   0.208  0.1161 -0.1968 -1.5195
13953SOL     OW42714   2.377   3.121   0.507 -0.1415 -0.4120  0.1439
13953SOL    HW142715   2.321   3.178   0.559 -1.6060 -0.2646 -1.4625
13953SOL    HW242716   2.427   3.181   0.451  0.3225 -0.6199  0.3288
13954SOL     OW42717   5.509   7.537   1.642  0.7010 -0.7391 -0.3707
13954SOL    HW142718   5.510   7.567   1.733 -1.1139 -2.4202  0.2734
13954SOL    HW242719   5.447   7.596   1.598  0.4153 -0.8680 -0.1440
13955SOL     OW42720   6.945   0.261   1.179  0.5014 -0.2525  0.7325
13955SOL    HW142721   6.945   0.296   1.268 -1.8081  3.5834 -0.5302
13955SOL    HW242722   7.002   0.322   1.130  3.0593 -3.1930 -0.2854
13956SOL     OW42723   1.538   6.146   3.736 -0.5733  0.3555  0.6738
13956SOL    HW142724   1.581   6.146   3.822 -0.5013  0.2481  0.6379
13956SOL    HW242725   1.563   6.063   3.697 -0.2031  0.6214  0.3465
13957SOL     OW42726   2.224   3.508   3.467  0.3786  0.1873  0.2618
13957SOL    HW142727   2.177   3.582   3.505 -0.0812 -0.1122  0.2801
13957SOL    HW242728   2.168   3.432   3.485  1.5456 -0.4031  1.5710
13958SOL     OW42729   7.402   3.876   2.128 -0.2206  0.2030 -0.2759
13958SOL    HW142730   7.429   3.939   2.062 -2.3181 -0.6993 -2.1619
13958SOL    HW242731   7.382   3.796   2.079 -1.2479 -0.7381  1.5199
13959SOL     OW42732   2.864   0.788   3.745 -0.6839  0.0869 -0.0381
13959SOL    HW142733   2.898   0.823   3.827  1.2472  0.6348 -1.0249
13959SOL    HW242734   2.937   0.738   3.708 -1.7476 -0.7349 -1.0964
13960SOL     OW42735   6.393   3.270   7.845  0.3053 -0.1388 -0.2799
13960SOL    HW142736   6.445   3.254   7.923 -0.6776 -1.3014  0.1656
13960SOL    HW242737   6.432   3.214   7.778 -0.0994 -0.6732 -0.0684
13961SOL     OW42738   6.628   1.346   1.151 -0.1803  0.5357  0.1892
13961SOL    HW142739   6.543   1.388   1.154 -0.0461  0.7487  1.1669
13961SOL    HW242740   6.690   1.415   1.175  0.3640  0.5940 -1.2657
13962SOL     OW42741   3.280   6.662   3.394  0.3137  0.4699  0.2134
13962SOL    HW142742   3.291   6.749   3.432 -1.3546  0.6238  0.4385
13962SOL    HW242743   3.298   6.675   3.300 -0.7463  1.2743  0.0933
13963SOL     OW42744   4.137   2.813   3.390  0.4163 -0.0813 -0.1276
13963SOL    HW142745   4.129   2.770   3.305 -0.4470 -1.2696  0.5265
13963SOL    HW242746   4.067   2.774   3.443  0.7909  0.8083  1.0553
13964SOL     OW42747   7.976   5.381   0.915 -0.1048  0.4707 -0.3997
13964SOL    HW142748   7.938   5.374   1.002  1.7696  1.0595  0.5018
13964SOL    HW242749   7.912   5.338   0.858 -1.0831 -0.4558  1.3156
13965SOL     OW42750   2.424   1.762   4.422 -0.6113  0.0150  0.3544
13965SOL    HW142751   2.466   1.813   4.491 -0.0569  0.8407 -0.5752
13965SOL    HW242752   2.496   1.734   4.366 -1.1127 -0.1344 -0.2239
13966SOL     OW42753   1.919   0.819   5.735  0.1245 -0.4310  0.1607
13966SOL    HW142754   1.913   0.837   5.641 -1.3304  0.6135  0.4175
13966SOL    HW242755   1.868   0.739   5.747 -0.7107  0.0983  0.2120
13967SOL     OW42756   5.256   6.326   3.919  0.1521 -0.3222 -0.0472
13967SOL    HW142757   5.285   6.410   3.883 -0.3010 -0.9140 -1.8827
13967SOL    HW242758   5.181   6.348   3.974  1.0114  0.6391  0.7858
13968SOL     OW42759   4.087   2.232   3.307  0.3958  0.5504 -0.6326
13968SOL    HW142760   4.162   2.195   3.354 -0.8153 -0.9246  0.2385
13968SOL    HW242761   4.046   2.291   3.370  0.4343  0.8506 -0.8835
13969SOL     OW42762   6.247   3.817   7.342 -0.3379  0.0251 -0.4922
13969SOL    HW142763   6.339   3.810   7.366  0.1167 -0.0029 -2.1586
13969SOL    HW242764   6.203   3.836   7.425  1.1866  0.3589  0.2854
13970SOL     OW42765   7.493   7.724   0.133  0.2309 -0.0752  0.9255
13970SOL    HW142766   7.485   7.633   0.161  3.5934  0.2560  3.6192
13970SOL    HW242767   7.478   7.775   0.212 -0.3960  1.6817 -0.2701
13971SOL     OW42768   4.577   4.154   6.209  0.0395 -0.2603  0.1721
13971SOL    HW142769   4.535   4.111   6.134  0.0874  0.1376 -0.0803
13971SOL    HW242770   4.514   4.219   6.238  0.7316  0.7778 -0.6002
13972SOL     OW42771   5.107   5.048   2.591  0.0360 -0.2834 -0.3731
13972SOL    HW142772   5.172   5.068   2.524 -0.0853 -0.7630 -0.6339
13972SOL    HW242773   5.062   5.132   2.606 -1.2619 -0.5712 -2.3140
13973SOL     OW42774   2.312   0.425   2.671  0.0712  0.4544 -0.4482
13973SOL    HW142775   2.309   0.358   2.739  0.3213  0.0032 -0.8776
13973SOL    HW242776   2.357   0.384   2.598  0.0007  1.0073 -0.8135
13974SOL     OW42777   6.404   8.002   6.033  0.4868  0.3481  0.0019
13974SOL    HW142778   6.471   8.022   6.098 -0.6302  1.8659  0.7522
13974SOL    HW242779   6.445   8.020   5.949  2.2067 -2.3707  0.1249
13975SOL     OW42780   6.096   4.094   4.365  0.0529 -0.4726  0.2142
13975SOL    HW142781   6.109   4.187   4.381 -0.3227 -0.4022  0.1236
13975SOL    HW242782   6.001   4.082   4.373  0.1617 -0.9657  0.8612
13976SOL     OW42783   1.315   2.928   7.744  0.2863 -0.0099  0.1870
13976SOL    HW142784   1.335   2.861   7.809  0.2116  0.4467  0.6903
13976SOL    HW242785   1.289   3.004   7.796 -0.5875  0.0990 -0.4020
13977SOL     OW42786   1.545   1.793   5.619 -0.0070  0.1870 -0.1886
13977SOL    HW142787   1.514   1.821   5.533  0.7143  0.1921 -0.4472
13977SOL    HW242788   1.497   1.848   5.681  0.2474  0.9156 -0.6278
13978SOL     OW42789   3.558   3.852   5.017  0.0215  0.3580  0.2536
13978SOL    HW142790   3.650   3.830   5.001  0.2525  0.4665  1.3563
13978SOL    HW242791   3.555   3.876   5.110 -0.5587  3.1088 -0.3810
13979SOL     OW42792   1.263   0.373   2.072 -0.4483 -0.0141  0.0977
13979SOL    HW142793   1.271   0.310   2.001  1.1568  0.7602 -0.4569
13979SOL    HW242794   1.169   0.389   2.079 -0.9969 -2.8295  0.6335
13980SOL     OW42795   1.208   0.168   2.660 -0.0267 -0.2283 -0.3707
13980SOL    HW142796   1.182   0.190   2.571  0.1911 -1.5944 -0.8034
13980SOL    HW242797   1.136   0.115   2.695 -0.7949  1.5231  0.8266
13981SOL     OW42798   6.369   3.315   0.211 -0.2760 -0.3105  0.3453
13981SOL    HW142799   6.390   3.288   0.301 -2.6317  0.9813  1.3949
13981SOL    HW242800   6.419   3.256   0.156  0.7289 -1.6175  2.5173
13982SOL     OW42801   0.450   6.330   3.066 -0.1587 -0.2631  0.1264
13982SOL    HW142802   0.470   6.411   3.114  2.5400 -0.3998 -0.6117
13982SOL    HW242803   0.383   6.357   3.002 -0.6440  0.9174  1.0763
13983SOL     OW42804   0.727   2.961   0.309  0.1864 -0.2782  0.0448
13983SOL    HW142805   0.665   2.952   0.382  1.2260  0.5876  1.0773
13983SOL    HW242806   0.683   3.016   0.246 -1.2860 -2.1515 -0.6529
13984SOL     OW42807   7.355   1.553   5.612  0.0838  0.6112 -0.2411
13984SOL    HW142808   7.362   1.556   5.708  0.8214 -1.5000 -0.1823
13984SOL    HW242809   7.286   1.488   5.596  1.7248 -0.9719 -1.1260
13985SOL     OW42810   4.455   6.945   6.863 -0.1852 -0.7474 -0.3171
13985SOL    HW142811   4.417   6.879   6.805  1.7797 -0.4790 -2.0322
13985SOL    HW242812   4.449   7.026   6.813  1.3085 -0.4587 -0.0628
13986SOL     OW42813   1.738   2.685   4.034 -0.1493  0.6269 -0.2434
13986SOL    HW142814   1.820   2.721   4.066 -0.2198  0.3586  0.2486
13986SOL    HW242815   1.755   2.663   3.942 -0.2377  2.3246 -0.7060
13987SOL     OW42816   5.401   6.917   3.643  0.4810  0.3509  0.0463
13987SOL    HW142817   5.361   6.991   3.688 -1.6639 -1.1342  0.7300
13987SOL    HW242818   5.428   6.952   3.558  0.7399  2.1984  0.8430
13988SOL     OW42819   4.893   5.468   3.220 -0.2426  0.5816 -0.2557
13988SOL    HW142820   4.979   5.426   3.224 -0.7332 -0.4045  2.7471
13988SOL    HW242821   4.835   5.399   3.188 -0.2017  0.7699 -0.7570
13989SOL     OW42822   4.529   6.733   7.433 -0.5882  0.1108  0.0237
13989SOL    HW142823   4.472   6.657   7.422 -2.3282  1.4661 -0.8813
13989SOL    HW242824   4.607   6.712   7.382 -1.0329 -1.0757 -0.1859
13990SOL     OW42825   4.765   0.101   2.805 -0.0568 -0.4813 -0.4488
13990SOL    HW142826   4.742   0.123   2.715 -0.6489  1.1084  0.0644
13990SOL    HW242827   4.801   0.182   2.842  0.9679 -1.3305  0.5116
13991SOL     OW42828   3.870   6.640   3.475  1.1354  0.0015 -0.4622
13991SOL    HW142829   3.780   6.631   3.445  1.2548  0.5374 -1.0188
13991SOL    HW242830   3.862   6.676   3.563  0.8013  1.1184 -0.9193
13992SOL     OW42831   6.963   0.115   0.390 -0.4675 -0.0856  0.0769
13992SOL    HW142832   6.933   0.041   0.337  1.0344 -0.9125  0.3210
13992SOL    HW242833   7.007   0.173   0.327  1.7460 -1.3032  0.4265
13993SOL     OW42834   3.538   5.983   2.466 -0.1052 -0.7179 -0.9581
13993SOL    HW142835   3.576   6.071   2.464  0.0905 -0.8008 -2.4332
13993SOL    HW242836   3.578   5.940   2.542  1.3692 -0.2027 -1.4128
13994SOL     OW42837   1.383   3.590   1.237 -0.4964 -0.4801 -0.3145
13994SOL    HW142838   1.370   3.678   1.271 -0.6746 -1.7263  3.3523
13994SOL    HW242839   1.472   3.590   1.204 -0.7910  1.2658 -1.2246
13995SOL     OW42840   0.090   2.155   7.184 -0.0634 -0.4874 -0.1228
13995SOL    HW142841   0.040   2.119   7.111 -0.2263 -1.1511  0.3020
13995SOL    HW242842   0.116   2.243   7.155  1.4827 -1.4094 -1.7372
13996SOL     OW42843   1.248   0.380   6.666 -0.1329 -0.4412  0.3773
13996SOL    HW142844   1.219   0.314   6.728  1.0430  0.2443  1.7270
13996SOL    HW242845   1.175   0.390   6.605  0.1059 -3.8848 -0.7077
13997SOL     OW42846   3.019   7.670   4.544 -0.2527  0.0254 -0.0844
13997SOL    HW142847   2.924   7.659   4.537 -0.2956  0.2623  0.1029
13997SOL    HW242848   3.034   7.764   4.529  0.0878 -0.2361 -1.5023
13998SOL     OW42849   5.386   4.664   3.035 -0.6771 -0.5896 -0.6661
13998SOL    HW142850   5.402   4.610   3.112 -0.8328 -1.2533 -1.0984
13998SOL    HW242851   5.416   4.611   2.961 -0.5685  0.0225 -1.0713
13999SOL     OW42852   7.005   3.434   2.907  0.3114 -0.0773 -0.2491
13999SOL    HW142853   7.011   3.475   2.994  0.6851 -0.0020 -0.3053
13999SOL    HW242854   6.916   3.452   2.878  0.0819 -0.3961  0.2618
14000SOL     OW42855   2.267   7.723   0.307 -0.0312  0.2267  0.1739
14000SOL    HW142856   2.287   7.754   0.395 -0.7830 -0.7227  0.6883
14000SOL    HW242857   2.173   7.706   0.307  0.3770 -2.3908  0.0565
14001SOL     OW42858   7.354   7.283   5.307 -0.0638  0.6819  0.5225
14001SOL    HW142859   7.418   7.315   5.370 -0.7316  0.6273  1.2357
14001SOL    HW242860   7.274   7.329   5.328  0.0172  1.6524 -1.1441
14002SOL     OW42861   0.151   4.432   2.172 -0.4105  0.7862 -0.4724
14002SOL    HW142862   0.227   4.490   2.175 -0.6126  1.0062  1.4201
14002SOL    HW242863   0.102   4.453   2.251 -0.4826 -2.0170  0.3273
14003SOL     OW42864   0.454   2.175   6.758 -0.4310  0.8028  0.2165
14003SOL    HW142865   0.443   2.080   6.749  0.6375  0.5207  1.5591
14003SOL    HW242866   0.474   2.188   6.851  0.7766  2.1919 -0.1987
14004SOL     OW42867   0.406   7.746   5.887 -0.1147  0.3174 -0.4373
14004SOL    HW142868   0.355   7.797   5.949 -1.4629  0.8023 -1.8885
14004SOL    HW242869   0.494   7.783   5.892 -0.5865  1.3990  0.0275
14005SOL     OW42870   3.202   2.594   2.470  0.1656 -0.0239 -0.0287
14005SOL    HW142871   3.188   2.508   2.510  2.0418 -0.3914 -0.0989
14005SOL    HW242872   3.113   2.627   2.454 -0.6306 -1.0485  1.8631
14006SOL     OW42873   3.423   6.757   2.166 -0.7606 -0.2796 -0.1891
14006SOL    HW142874   3.484   6.831   2.164 -0.6412 -0.3871 -0.6018
14006SOL    HW242875   3.451   6.701   2.093 -2.4806  0.5647 -1.5467
14007SOL     OW42876   6.690   3.984   6.641 -0.7784  0.2430 -0.0783
14007SOL    HW142877   6.651   3.921   6.581 -1.4177  0.9721 -0.4492
14007SOL    HW242878   6.634   3.981   6.719  0.9648 -1.8937  1.2333
14008SOL     OW42879   3.636   3.951   1.692 -0.6356  0.2258  0.4534
14008SOL    HW142880   3.632   4.036   1.649 -1.6466 -0.0885 -0.1023
14008SOL    HW242881   3.675   3.969   1.778 -1.1572  1.3006  0.4770
14009SOL     OW42882   0.505   1.159   4.390 -0.0838 -0.0419  0.0904
14009SOL    HW142883   0.557   1.192   4.317  0.5762 -0.0452  0.5572
14009SOL    HW242884   0.512   1.226   4.457  2.4445 -1.6658  1.6082
14010SOL     OW42885   6.747   2.656   6.397  0.1899 -0.1207  0.3600
14010SOL    HW142886   6.753   2.569   6.436 -0.2380  0.7095  2.3987
14010SOL    HW242887   6.805   2.710   6.450  0.2032  0.9142 -0.6792
14011SOL     OW42888   4.331   7.293   6.626 -0.3366 -0.6905 -0.0061
14011SOL    HW142889   4.306   7.222   6.685 -1.6877 -0.2294  0.0021
14011SOL    HW242890   4.393   7.252   6.565 -0.1054 -1.5455  0.7785
14012SOL     OW42891   6.475   4.426   6.342 -0.5503  0.5146  0.5223
14012SOL    HW142892   6.546   4.488   6.363 -0.8032  0.5309  1.3673
14012SOL    HW242893   6.464   4.434   6.247  2.2365 -1.2721 -0.0657
14013SOL     OW42894   6.706   5.146   7.263 -0.3240 -0.3348 -0.1016
14013SOL    HW142895   6.712   5.101   7.179  0.0147  1.3679 -1.0151
14013SOL    HW242896   6.755   5.227   7.252 -0.7251  0.1919  1.5667
14014SOL     OW42897   1.927   6.092   7.769  0.1645 -0.3159 -0.2948
14014SOL    HW142898   1.937   6.008   7.813 -0.8651 -0.7314 -0.8291
14014SOL    HW242899   1.991   6.149   7.812  1.0339 -1.4213 -0.0745
14015SOL     OW42900   6.217   1.908   5.218 -0.5233  0.3200  0.1618
14015SOL    HW142901   6.192   1.818   5.196  2.0111 -0.5300  0.4710
14015SOL    HW242902   6.195   1.917   5.311  1.8333 -1.0633  0.9357
14016SOL     OW42903   4.457   7.070   3.064  0.5388  0.5737  0.3620
14016SOL    HW142904   4.480   7.022   2.985 -1.8788 -1.2344  0.6277
14016SOL    HW242905   4.468   7.007   3.136 -2.4724  0.3174  0.7481
14017SOL     OW42906   0.851   2.464   5.569 -0.5015 -0.5794 -0.3277
14017SOL    HW142907   0.811   2.378   5.584 -1.5343  0.1059  1.0318
14017SOL    HW242908   0.778   2.525   5.571  0.1966  0.3422 -1.4963
14018SOL     OW42909   5.790   0.369   7.264  0.4120  0.3311 -0.2369
14018SOL    HW142910   5.846   0.344   7.191 -1.6162  3.1397 -3.0141
14018SOL    HW242911   5.834   0.444   7.304  0.9534 -0.5037  0.8009
14019SOL     OW42912   0.616   6.422   4.030 -0.3847 -0.3538  0.3652
14019SOL    HW142913   0.606   6.332   4.000 -1.2333 -0.2936  0.4318
14019SOL    HW242914   0.527   6.458   4.027 -0.0316  0.5387  0.1608
14020SOL     OW42915   0.395   5.060   7.836 -0.5166  0.2921  0.0415
14020SOL    HW142916   0.433   4.988   7.887  0.8318  1.4473  0.7367
14020SOL    HW242917   0.301   5.043   7.837 -0.3830 -0.5287  1.6568
14021SOL     OW42918   2.877   2.827   7.399  0.2361  0.2189  0.1375
14021SOL    HW142919   2.905   2.908   7.359  3.7530  0.5415  2.7417
14021SOL    HW242920   2.954   2.769   7.394 -0.2608 -0.9175  3.0231
14022SOL     OW42921   7.860   5.517   4.705  0.0022  0.0789  0.1843
14022SOL    HW142922   7.903   5.600   4.726 -2.3376  1.5557 -0.4877
14022SOL    HW242923   7.893   5.494   4.619  0.9767  0.0636  0.5473
14023SOL     OW42924   3.651   2.130   2.655  0.1039  0.3320 -0.3362
14023SOL    HW142925   3.719   2.148   2.721 -1.0739 -1.4021  1.4770
14023SOL    HW242926   3.604   2.212   2.646  1.4653  1.1312 -0.4796
14024SOL     OW42927   0.995   4.043   4.061 -0.5300 -0.4455  0.1683
14024SOL    HW142928   0.973   4.103   3.989 -0.1291  1.6445  1.6884
14024SOL    HW242929   1.069   4.084   4.104 -0.4770 -1.8880  1.5181
14025SOL     OW42930   4.178   4.192   7.536 -0.2878  0.3260 -0.4469
14025SOL    HW142931   4.105   4.166   7.592 -0.1350  1.9886  0.6077
14025SOL    HW242932   4.137   4.229   7.458 -0.5486  0.0336 -0.4479
14026SOL     OW42933   2.410   6.284   5.037 -0.1826  0.2682 -0.5843
14026SOL    HW142934   2.361   6.245   4.964 -1.8082  1.3127 -0.0874
14026SOL    HW242935   2.399   6.378   5.027 -0.1008  0.4477  0.7810
14027SOL     OW42936   0.373   5.181   1.826  0.3989 -0.2144 -0.0841
14027SOL    HW142937   0.462   5.154   1.849  0.8303 -0.5824 -2.0641
14027SOL    HW242938   0.383   5.238   1.750 -1.0128  0.3348  0.1005
14028SOL     OW42939   5.381   3.907   1.592 -0.2405 -0.4398  0.2504
14028SOL    HW142940   5.419   3.822   1.571  2.6061  0.3817  1.6483
14028SOL    HW242941   5.428   3.969   1.536 -0.7223  0.4624  0.8321
14029SOL     OW42942   5.364   2.635   0.750 -0.3384 -0.3349 -0.3498
14029SOL    HW142943   5.407   2.715   0.718  1.5535 -1.5480 -1.0128
14029SOL    HW242944   5.281   2.632   0.701  0.6866 -0.0442 -2.2181
14030SOL     OW42945   1.046   6.721   1.149  0.1729  0.0907 -0.3105
14030SOL    HW142946   1.004   6.750   1.229 -0.2092 -0.6309 -0.2468
14030SOL    HW242947   1.029   6.627   1.145  0.2650  0.1037 -1.1892
14031SOL     OW42948   2.826   0.821   7.913  0.6806  0.5788 -0.2439
14031SOL    HW142949   2.892   0.753   7.898  1.1248  0.6586  1.2203
14031SOL    HW242950   2.742   0.776   7.906  0.9280  0.1687 -0.6098
14032SOL     OW42951   6.147   3.141   5.247 -0.5187  1.3064  0.0497
14032SOL    HW142952   6.100   3.167   5.168  0.2733 -1.1033 -1.3015
14032SOL    HW242953   6.236   3.174   5.235 -0.4859  1.2376  0.1008
14033SOL     OW42954   6.672   0.134   4.531 -0.3632  0.3010  0.3495
14033SOL    HW142955   6.580   0.121   4.510 -0.3339  0.5249  0.0801
14033SOL    HW242956   6.674   0.150   4.625 -0.5470 -0.2013  0.4423
14034SOL     OW42957   5.862   5.572   3.773  0.2904 -0.0580 -0.5006
14034SOL    HW142958   5.902   5.494   3.735  0.7686 -0.9016  1.5811
14034SOL    HW242959   5.937   5.625   3.801 -0.0169 -0.1920  0.6164
14035SOL     OW42960   0.865   2.376   6.249 -0.1361  0.2558  0.9377
14035SOL    HW142961   0.777   2.413   6.242 -0.1924 -0.0444 -0.1276
14035SOL    HW242962   0.897   2.407   6.333 -1.4084  0.0510  1.5308
14036SOL     OW42963   2.429   6.145   3.490 -0.3074 -0.8686 -0.5616
14036SOL    HW142964   2.432   6.049   3.495  1.3948 -0.7808  0.4061
14036SOL    HW242965   2.520   6.173   3.494 -0.8722  0.9205  1.7286
14037SOL     OW42966   0.853   6.939   3.975 -0.4356  0.3834 -0.3310
14037SOL    HW142967   0.875   6.861   4.026 -1.6335  0.4668  0.3628
14037SOL    HW242968   0.806   6.905   3.898 -0.7927  0.3956 -0.1227
14038SOL     OW42969   6.861   1.275   7.772  0.5060  0.6089  0.1114
14038SOL    HW142970   6.773   1.300   7.746 -0.0400 -0.8046  0.5027
14038SOL    HW242971   6.910   1.270   7.689  0.3969  1.9518 -0.0548
14039SOL     OW42972   5.461   2.806   5.637  0.0600  0.2814  0.5703
14039SOL    HW142973   5.410   2.831   5.560  0.1899 -1.4301 -0.1175
14039SOL    HW242974   5.489   2.889   5.676 -1.4094  1.2019 -0.2695
14040SOL     OW42975   2.919   0.409   1.160  0.3274 -0.4932  0.2818
14040SOL    HW142976   2.957   0.333   1.204  0.8917 -0.4427 -0.1194
14040SOL    HW242977   2.955   0.484   1.207 -0.5023 -0.4647  0.9065
14041SOL     OW42978   3.618   4.254   5.040  0.1941  0.7234 -0.5745
14041SOL    HW142979   3.544   4.194   5.044  1.2985 -0.6588  0.2558
14041SOL    HW242980   3.601   4.309   4.964 -1.4921  0.2175 -0.6064
14042SOL     OW42981   4.153   7.045   7.775 -0.0842 -0.1387 -0.2551
14042SOL    HW142982   4.233   7.090   7.748  0.0527 -0.2212  0.0196
14042SOL    HW242983   4.163   6.956   7.741  0.3121 -0.3850  0.5018
14043SOL     OW42984   5.131   1.650   1.868  0.3903 -0.2440 -0.1909
14043SOL    HW142985   5.184   1.571   1.885 -1.6454 -1.4624  0.8891
14043SOL    HW242986   5.048   1.616   1.835  1.0898  1.7237 -4.6333
14044SOL     OW42987   2.802   5.215   6.530  0.2801  0.3384 -0.7160
14044SOL    HW142988   2.773   5.293   6.483  1.5808  0.1376 -1.9248
14044SOL    HW242989   2.891   5.235   6.559 -0.0699  0.0081  0.6703
14045SOL     OW42990   3.458   4.085   4.197  0.4691  0.1956 -0.1087
14045SOL    HW142991   3.422   4.154   4.141 -0.7770 -1.8680 -2.0107
14045SOL    HW242992   3.538   4.058   4.151 -0.9367 -2.0031 -1.4440
14046SOL     OW42993   3.372   3.483   1.897 -0.1014  0.6860 -0.5153
14046SOL    HW142994   3.372   3.516   1.808 -2.0629  2.0143 -0.1000
14046SOL    HW242995   3.325   3.549   1.947 -1.5469 -1.3158  0.9541
14047SOL     OW42996   1.004   3.355   7.358  0.0392  0.2560  0.3816
14047SOL    HW142997   0.934   3.291   7.348  1.1508 -0.7814 -1.3289
14047SOL    HW242998   1.038   3.340   7.446 -0.7321 -0.4338  0.5750
14048SOL     OW42999   1.282   0.878   3.604 -0.1948 -0.0945 -0.3780
14048SOL    HW143000   1.290   0.828   3.686  0.1352  0.2069 -0.2262
14048SOL    HW243001   1.188   0.882   3.588 -0.2308 -0.6760 -0.3341
14049SOL     OW43002   5.097   2.772   5.843 -0.2006  0.4565 -0.1066
14049SOL    HW143003   5.119   2.680   5.854  0.6136  0.8821  2.4214
14049SOL    HW243004   5.128   2.814   5.923 -2.9087  2.5286 -0.0002
14050SOL     OW43005   7.872   2.423   7.210  0.2689  0.0842  0.0246
14050SOL    HW143006   7.820   2.409   7.131 -0.7424  1.1305  0.4661
14050SOL    HW243007   7.958   2.450   7.178 -0.6471  2.3374 -0.7936
14051SOL     OW43008   6.328   5.782   2.866  0.3280 -0.4362  0.2746
14051SOL    HW143009   6.259   5.735   2.819  0.5971  0.4784 -1.1125
14051SOL    HW243010   6.293   5.870   2.879  0.5521 -0.4660  1.1588
14052SOL     OW43011   6.218   4.577   0.930  0.0278 -0.0899  0.2636
14052SOL    HW143012   6.171   4.501   0.963 -0.3088  0.1020  0.2331
14052SOL    HW243013   6.285   4.595   0.996 -1.2433  0.8785  1.3382
14053SOL     OW43014   6.128   7.890   5.207 -0.4587 -0.1041  0.1238
14053SOL    HW143015   6.215   7.918   5.235 -0.3859 -0.8029  0.5958
14053SOL    HW243016   6.138   7.870   5.114 -0.0767 -0.3390  0.2128
14054SOL     OW43017   7.478   1.377   6.578 -0.8511 -0.5823  0.1623
14054SOL    HW143018   7.419   1.348   6.647 -1.0065 -3.6505 -1.0821
14054SOL    HW243019   7.426   1.374   6.498 -0.5462  2.4290 -0.2419
14055SOL     OW43020   7.217   7.696   7.158  0.5657 -0.4124 -0.3638
14055SOL    HW143021   7.204   7.785   7.191 -0.9162  0.3309 -2.7004
14055SOL    HW243022   7.294   7.703   7.101  0.1037 -0.4492 -1.0082
14056SOL     OW43023   6.011   7.916   5.771 -0.6061 -0.0860 -0.2215
14056SOL    HW143024   5.993   8.009   5.784 -1.1110 -0.4089  1.6463
14056SOL    HW243025   5.971   7.873   5.847 -0.2903 -1.8210 -0.9952
14057SOL     OW43026   3.552   7.359   8.003 -0.5094  0.0292  0.0371
14057SOL    HW143027   3.595   7.348   8.088  0.9979 -1.2026 -0.8338
14057SOL    HW243028   3.586   7.287   7.949 -0.6231  1.3659 -1.9310
14058SOL     OW43029   4.441   7.955   3.167 -0.0674 -0.2847  0.2729
14058SOL    HW143030   4.388   7.877   3.186 -0.7852  0.3911  1.0726
14058SOL    HW243031   4.456   7.950   3.073 -0.9581 -0.8591  0.1434
14059SOL     OW43032   7.289   0.562   7.568 -0.1565  0.2230  0.0492
14059SOL    HW143033   7.313   0.646   7.608 -0.9844  1.1866 -1.3596
14059SOL    HW243034   7.267   0.585   7.478  0.6113 -1.6956 -0.6627
14060SOL     OW43035   5.101   4.999   1.377 -0.0715  0.2065  0.1092
14060SOL    HW143036   5.139   5.087   1.376  2.7721 -0.9266 -0.1523
14060SOL    HW243037   5.095   4.974   1.285  1.6709 -0.7864  0.2029
14061SOL     OW43038   5.735   3.973   7.545  0.0510  0.5387  1.0876
14061SOL    HW143039   5.771   4.017   7.622  2.2858 -0.7064  0.8176
14061SOL    HW243040   5.687   4.042   7.499  3.7381  2.9563  0.4292
14062SOL     OW43041   5.787   0.775   5.782  0.1727 -0.3938  0.2777
14062SOL    HW143042   5.706   0.736   5.747  0.8573 -0.0897 -1.7857
14062SOL    HW243043   5.765   0.867   5.794 -0.6452 -0.8235  2.6394
14063SOL     OW43044   4.301   1.644   4.627  0.4785  0.3353  0.1789
14063SOL    HW143045   4.353   1.606   4.698 -0.6497 -0.1200  0.7738
14063SOL    HW243046   4.246   1.709   4.670 -1.6986 -1.3479  0.1150
14064SOL     OW43047   5.292   1.569   5.309  0.1623  0.0087 -0.1919
14064SOL    HW143048   5.244   1.540   5.386  1.8177  0.2296  0.9817
14064SOL    HW243049   5.300   1.491   5.255  1.7605 -1.0377  1.4180
14065SOL     OW43050   0.089   5.433   7.060  0.1539 -0.0900 -0.1880
14065SOL    HW143051   0.002   5.394   7.062  1.7837 -4.3215 -1.0930
14065SOL    HW243052   0.107   5.446   6.967  0.7908 -0.0123 -0.0562
14066SOL     OW43053   5.041   5.075   1.828  0.1061 -0.1436 -0.5325
14066SOL    HW143054   5.041   5.161   1.786  0.8431 -0.0202 -0.2914
14066SOL    HW243055   4.968   5.079   1.890 -0.8869 -0.2712 -1.6659
14067SOL     OW43056   5.631   4.012   5.529 -0.2266  0.3770 -0.6897
14067SOL    HW143057   5.628   4.105   5.505 -0.8464  0.8970  1.2663
14067SOL    HW243058   5.577   4.005   5.607 -1.3947 -1.9343 -1.6279
14068SOL     OW43059   7.619   5.428   0.829  0.2865  0.6052 -0.3814
14068SOL    HW143060   7.621   5.521   0.848  0.3749  0.4690  0.2989
14068SOL    HW243061   7.640   5.422   0.735 -0.8200  1.3258 -0.6866
14069SOL     OW43062   1.100   1.475   5.357 -0.1894  0.4608  0.3645
14069SOL    HW143063   1.033   1.409   5.340 -0.5625  0.9400 -0.0592
14069SOL    HW243064   1.133   1.498   5.270  0.1099  0.6491  0.5302
14070SOL     OW43065   3.053   1.990   7.125  0.2489  0.1363 -0.4653
14070SOL    HW143066   3.044   1.994   7.220  0.2959 -0.5575 -0.4290
14070SOL    HW243067   3.024   2.076   7.095  0.0256  0.2846  0.1603
14071SOL     OW43068   1.582   2.688   7.426  0.2211  0.6324  0.4366
14071SOL    HW143069   1.662   2.637   7.439  0.4218  0.8341  0.0222
14071SOL    HW243070   1.570   2.736   7.508 -0.5427 -0.8571  1.2335
14072SOL     OW43071   4.455   7.681   4.914  0.1039 -0.1233  0.2282
14072SOL    HW143072   4.479   7.626   4.989  1.8645  1.1276  0.6592
14072SOL    HW243073   4.478   7.628   4.838  1.2417 -0.2367  0.6291
14073SOL     OW43074   3.467   7.200   1.911  0.3736  0.1036 -0.3795
14073SOL    HW143075   3.411   7.250   1.851  0.1640  0.7003  0.3049
14073SOL    HW243076   3.488   7.120   1.863 -0.4428  0.2210 -0.9444
14074SOL     OW43077   4.817   0.190   4.021 -0.8305 -0.1041 -0.2968
14074SOL    HW143078   4.782   0.277   4.038 -0.8352 -0.2221  0.3465
14074SOL    HW243079   4.742   0.132   4.027 -0.6048 -0.3124  0.6999
14075SOL     OW43080   5.985   2.320   2.181  0.5818  0.1274 -0.1665
14075SOL    HW143081   5.994   2.412   2.157  0.2572  0.3648  0.5945
14075SOL    HW243082   6.050   2.306   2.250  1.5808 -0.5718 -1.2177
14076SOL     OW43083   5.960   2.415   7.421  0.4463 -0.0908  0.1598
14076SOL    HW143084   6.035   2.374   7.465 -0.7932 -0.8359  1.6867
14076SOL    HW243085   5.884   2.383   7.470 -0.8504  0.9083 -1.1373
14077SOL     OW43086   3.879   2.042   7.641  0.0115  0.1651  0.5649
14077SOL    HW143087   3.846   2.025   7.729  0.4617  0.5240  0.8059
14077SOL    HW243088   3.923   2.127   7.647  1.2934 -0.4512  0.3512
14078SOL     OW43089   2.434   7.236   1.491 -0.8177  0.6104  0.0044
14078SOL    HW143090   2.339   7.234   1.502 -0.6292 -0.0031  2.1616
14078SOL    HW243091   2.460   7.324   1.516 -0.7985  0.6733 -0.2407
14079SOL     OW43092   0.905   7.617   3.913  0.1662  0.1636 -0.1137
14079SOL    HW143093   0.972   7.592   3.850 -0.3691 -1.7094 -0.0145
14079SOL    HW243094   0.822   7.609   3.866 -0.4745 -3.5712  1.2743
14080SOL     OW43095   7.794   7.407   6.759 -0.6212 -0.0190  0.2404
14080SOL    HW143096   7.744   7.353   6.821 -0.0298 -0.0268  0.7103
14080SOL    HW243097   7.873   7.356   6.741 -1.0374 -0.2864 -0.9704
14081SOL     OW43098   7.037   0.123   6.020  0.3856 -0.1063 -0.0400
14081SOL    HW143099   6.984   0.137   5.941  1.1182 -0.3370 -0.5798
14081SOL    HW243100   7.109   0.067   5.991  0.8867  0.1456  0.6985
14082SOL     OW43101   0.902   3.533   2.779  0.2740 -0.1357 -0.0487
14082SOL    HW143102   0.810   3.518   2.804  0.3559 -0.2331  0.2000
14082SOL    HW243103   0.952   3.491   2.848  0.5147 -1.0802 -0.7767
14083SOL     OW43104   7.070   1.572   0.273  0.4126  0.6332 -0.2077
14083SOL    HW143105   7.008   1.606   0.208 -2.6913  0.4515  2.3871
14083SOL    HW243106   7.059   1.477   0.269  1.4713  0.5222 -0.5540
14084SOL     OW43107   6.398   6.712   7.184 -0.3531 -0.3177 -0.3504
14084SOL    HW143108   6.341   6.782   7.217 -1.8646 -1.8152  0.3718
14084SOL    HW243109   6.346   6.632   7.193  0.6609 -1.3408 -2.7980
14085SOL     OW43110   7.736   1.103   5.471 -0.1303 -0.5820  0.2360
14085SOL    HW143111   7.723   1.181   5.525 -2.8827 -0.5090 -0.3648
14085SOL    HW243112   7.798   1.130   5.404  0.7386  0.3591  1.3862
14086SOL     OW43113   3.293   3.673   2.119 -0.0638 -0.2479 -0.1869
14086SOL    HW143114   3.387   3.673   2.138  0.1338 -2.5066 -0.8884
14086SOL    HW243115   3.252   3.713   2.196  1.5131  2.0001 -0.4167
14087SOL     OW43116   4.132   3.013   2.925  0.0789 -0.1080  0.1562
14087SOL    HW143117   4.143   3.009   3.020  1.0343  1.4069  0.1412
14087SOL    HW243118   4.072   2.941   2.905  1.8220 -2.0909  1.5856
14088SOL     OW43119   0.661   0.694   1.739  0.4242  0.7534 -0.9393
14088SOL    HW143120   0.744   0.734   1.714  0.1338  1.2874 -1.0511
14088SOL    HW243121   0.658   0.613   1.688  2.4487 -1.0489  1.5276
14089SOL     OW43122   4.912   3.683   7.228 -0.0488 -0.0012  0.6824
14089SOL    HW143123   4.945   3.594   7.217 -0.7129 -0.2212  0.4018
14089SOL    HW243124   4.828   3.683   7.183  0.0297  0.8239  0.5131
14090SOL     OW43125   1.508   4.766   6.908 -0.0500  0.5191 -0.1448
14090SOL    HW143126   1.441   4.701   6.889  0.6714  0.0372 -1.1241
14090SOL    HW243127   1.573   4.720   6.961  0.1332  0.6277 -0.2727
14091SOL     OW43128   0.842   7.328   2.177  0.5571  0.0310  0.0992
14091SOL    HW143129   0.886   7.413   2.176 -0.8129  0.7849  0.8580
14091SOL    HW243130   0.759   7.343   2.131  0.4923 -1.0165 -0.1613
14092SOL     OW43131   5.840   1.296   6.931  0.1964  0.2287 -0.7581
14092SOL    HW143132   5.806   1.207   6.929  0.5464 -0.0025  1.3090
14092SOL    HW243133   5.919   1.294   6.877 -1.5892  0.1687 -3.5606
14093SOL     OW43134   6.526   5.426   3.306 -0.8502 -0.1622  0.2067
14093SOL    HW143135   6.523   5.452   3.214 -0.5193  0.4347  0.3595
14093SOL    HW243136   6.589   5.355   3.309 -1.1355 -0.4302 -0.0846
14094SOL     OW43137   1.108   6.948   0.692  0.0301  0.3053  0.0285
14094SOL    HW143138   1.117   6.871   0.748  1.0506 -1.3706 -2.2751
14094SOL    HW243139   1.193   6.991   0.696  0.2641 -0.0855 -0.5472
14095SOL     OW43140   7.945   1.985   5.763 -0.8287  0.5513 -0.0079
14095SOL    HW143141   8.022   1.933   5.788 -1.7233 -0.9386 -0.1975
14095SOL    HW243142   7.889   1.983   5.841 -1.0735  0.8526 -0.1729
14096SOL     OW43143   2.223   5.820   7.358 -0.1372  0.0485  0.2568
14096SOL    HW143144   2.247   5.738   7.317  0.1593  0.1991  0.1289
14096SOL    HW243145   2.187   5.795   7.443 -0.9490 -0.2779 -0.1721
14097SOL     OW43146   5.403   5.837   6.493  0.3294  0.1430 -0.1903
14097SOL    HW143147   5.464   5.896   6.536 -0.5619  0.9605 -0.0095
14097SOL    HW243148   5.333   5.825   6.557  0.4437 -1.0312 -0.2672
14098SOL     OW43149   1.207   6.591   3.021 -0.3843  0.0619 -0.3742
14098SOL    HW143150   1.273   6.617   3.085 -0.1539 -1.6543  0.1280
14098SOL    HW243151   1.253   6.532   2.961 -1.4961 -1.4837  0.2163
14099SOL     OW43152   4.073   7.034   0.163 -0.5898 -0.2518  0.1050
14099SOL    HW143153   4.117   6.960   0.120 -0.1706 -0.5215  0.9674
14099SOL    HW243154   4.144   7.094   0.184 -0.9160  0.3560 -0.4771
14100SOL     OW43155   2.248   5.543   4.336  0.2634  0.4419 -0.2280
14100SOL    HW143156   2.239   5.448   4.340  0.7468  0.1988 -2.8142
14100SOL    HW243157   2.335   5.557   4.299 -0.8215  1.7267 -2.5177
14101SOL     OW43158   7.686   4.974   7.035 -0.1222  0.1894  0.1778
14101SOL    HW143159   7.676   4.881   7.014 -1.1861  0.8156 -2.4671
14101SOL    HW243160   7.597   5.003   7.057  0.3885  0.3856  2.1762
14102SOL     OW43161   1.472   1.030   7.962 -0.0422  0.3388  0.0520
14102SOL    HW143162   1.563   1.008   7.980 -0.0017  0.4272 -0.0428
14102SOL    HW243163   1.461   1.015   7.868 -0.1098  0.3778  0.0531
14103SOL     OW43164   7.782   0.814   1.611 -0.9054  0.3388 -0.0204
14103SOL    HW143165   7.738   0.782   1.690  0.1974  0.0360  0.4906
14103SOL    HW243166   7.855   0.866   1.644  0.8853 -1.5709 -0.7762
14104SOL     OW43167   1.414   1.754   6.552 -0.1928  0.0649  0.1748
14104SOL    HW143168   1.415   1.847   6.574 -2.9788 -0.4712  3.3303
14104SOL    HW243169   1.347   1.746   6.484 -1.6357  0.1858  1.5223
14105SOL     OW43170   5.904   7.901   0.898  0.4007  0.0164 -0.3987
14105SOL    HW143171   5.914   7.848   0.978  1.6571  1.7759  0.7003
14105SOL    HW243172   5.993   7.913   0.867  0.1495  1.4369 -0.6227
14106SOL     OW43173   3.093   2.233   7.799 -0.2926 -0.4704 -0.1451
14106SOL    HW143174   3.182   2.266   7.810 -0.6015  0.2873  0.1711
14106SOL    HW243175   3.066   2.206   7.887 -1.2696  1.6836  0.2812
14107SOL     OW43176   4.977   5.088   6.484  0.3808 -0.3297  0.3792
14107SOL    HW143177   4.924   5.097   6.405 -0.8739  0.5399  1.2823
14107SOL    HW243178   4.971   5.173   6.527  1.0473 -0.7902  1.4244
14108SOL     OW43179   7.108   2.804   3.709  0.0275  0.0796 -0.5260
14108SOL    HW143180   7.021   2.778   3.737 -0.2235  2.0104  0.6264
14108SOL    HW243181   7.167   2.760   3.770 -0.0395 -1.7279 -1.6848
14109SOL     OW43182   7.880   4.195   4.378 -0.1374  0.1245 -0.5515
14109SOL    HW143183   7.826   4.134   4.328  0.5035 -0.4344 -0.5883
14109SOL    HW243184   7.927   4.139   4.440 -0.6828  0.7758  0.4576
14110SOL     OW43185   3.685   0.140   6.944 -0.3007  0.1437 -0.0134
14110SOL    HW143186   3.641   0.095   6.872  1.7395 -1.2016 -0.5230
14110SOL    HW243187   3.756   0.080   6.969  0.5869  1.7156  1.4239
14111SOL     OW43188   6.688   1.549   4.935 -0.6929 -0.3210  0.1313
14111SOL    HW143189   6.636   1.469   4.945 -0.2677 -0.5376  0.6095
14111SOL    HW243190   6.746   1.530   4.862 -0.2286 -0.6450  0.5834
14112SOL     OW43191   1.779   1.908   7.821  0.9554  0.6793 -0.6033
14112SOL    HW143192   1.714   1.974   7.799  0.5824  0.7829  0.7644
14112SOL    HW243193   1.855   1.959   7.850  1.1830  0.5275 -0.9255
14113SOL     OW43194   3.773   0.693   4.296 -0.2439 -0.1825 -0.8135
14113SOL    HW143195   3.687   0.730   4.316  0.0499 -0.7021  1.6630
14113SOL    HW243196   3.830   0.723   4.367  0.9078 -2.2246 -0.7797
14114SOL     OW43197   2.687   3.090   5.663  0.2288  0.0255  0.1447
14114SOL    HW143198   2.719   3.000   5.670  0.1038 -0.0459 -0.1869
14114SOL    HW243199   2.616   3.085   5.598  1.6356  0.7319 -1.5299
14115SOL     OW43200   5.946   7.232   1.246  0.5149  0.3899  0.2969
14115SOL    HW143201   5.962   7.139   1.266  0.1573  0.2038 -0.2447
14115SOL    HW243202   5.851   7.239   1.240  0.5814  0.4910 -0.9849
14116SOL     OW43203   2.165   5.791   0.139  0.3840 -0.0316  0.0758
14116SOL    HW143204   2.069   5.787   0.133  0.4409 -0.9956 -0.3892
14116SOL    HW243205   2.182   5.848   0.214 -0.5664 -0.5014  0.6695
14117SOL     OW43206   5.738   2.291   5.687  0.0488  0.3289 -0.0074
14117SOL    HW143207   5.667   2.345   5.652 -0.6725 -0.8633 -0.4389
14117SOL    HW243208   5.707   2.201   5.676  0.6849 -0.1565  1.8274
14118SOL     OW43209   0.059   0.599   0.298  0.1346 -0.1148  0.1348
14118SOL    HW143210  -0.002   0.672   0.307  1.9095  1.3215  1.0962
14118SOL    HW243211   0.070   0.588   0.203  0.7984  1.7506 -0.0403
14119SOL     OW43212   7.441   6.373   2.329 -0.3258  0.0751 -0.7799
14119SOL    HW143213   7.457   6.279   2.320 -0.4650  0.0263 -0.5130
14119SOL    HW243214   7.472   6.395   2.417  0.2762  0.4020 -1.0652
14120SOL     OW43215   7.935   7.930   0.534  0.3705  0.2661  0.5077
14120SOL    HW143216   7.888   7.910   0.614  0.2270 -0.1784  0.3116
14120SOL    HW243217   7.869   7.964   0.474  0.8101  2.6652  1.2754
14121SOL     OW43218   6.463   4.733   0.486 -0.2234  0.5091  0.5643
14121SOL    HW143219   6.406   4.686   0.546  1.2460  0.3883  1.9483
14121SOL    HW243220   6.532   4.671   0.464 -0.7454  0.5401 -1.3434
14122SOL     OW43221   1.958   4.257   4.268 -0.4833 -0.2038  0.6392
14122SOL    HW143222   2.009   4.258   4.187 -0.7490  1.2075  0.4691
14122SOL    HW243223   1.868   4.275   4.240 -0.6084  0.1121  1.2327
14123SOL     OW43224   2.804   0.434   7.519 -0.0454 -0.2377  0.2835
14123SOL    HW143225   2.880   0.454   7.574 -0.1201 -0.1299  0.3484
14123SOL    HW243226   2.784   0.517   7.476 -0.1091 -0.2727  0.2456
14124SOL     OW43227   2.915   4.232   1.586  0.6590  0.1875  0.2037
14124SOL    HW143228   2.915   4.328   1.591  2.6113  0.2928 -0.9286
14124SOL    HW243229   2.851   4.212   1.517  2.5005  0.9252 -1.8430
14125SOL     OW43230   2.306   3.767   4.832 -0.1403 -0.3383  0.9502
14125SOL    HW143231   2.285   3.677   4.807  0.5558  0.1146 -1.4725
14125SOL    HW243232   2.220   3.809   4.843 -0.4844 -0.7577 -0.0343
14126SOL     OW43233   0.465   3.995   7.404 -0.2048 -0.7071 -0.7871
14126SOL    HW143234   0.529   4.066   7.393 -1.4985  0.4511 -1.1140
14126SOL    HW243235   0.432   3.979   7.315 -0.3016 -1.3635 -0.6353
14127SOL     OW43236   3.834   3.290   6.136 -0.4160  0.2007  0.3274
14127SOL    HW143237   3.822   3.385   6.140 -1.3572  0.1817 -1.2331
14127SOL    HW243238   3.877   3.275   6.052 -2.5062 -0.9011 -0.6315
14128SOL     OW43239   1.570   6.728   4.722 -0.0965 -0.2935 -0.1691
14128SOL    HW143240   1.545   6.761   4.636 -0.9348  0.2115  0.2517
14128SOL    HW243241   1.487   6.707   4.765  0.1350  1.5676  1.3394
14129SOL     OW43242   0.495   0.648   7.626 -0.2645  0.0118  0.1830
14129SOL    HW143243   0.475   0.584   7.694 -0.0080 -0.7426 -0.4446
14129SOL    HW243244   0.529   0.724   7.674 -2.3356  0.4322  1.0875
14130SOL     OW43245   5.344   3.968   3.929 -0.1870  0.1730  0.1809
14130SOL    HW143246   5.433   3.968   3.895 -0.8265  1.3989 -1.6655
14130SOL    HW243247   5.296   3.909   3.870 -1.0915  1.4286 -0.3811
14131SOL     OW43248   4.951   6.793   5.002 -0.0804 -0.5221 -0.0208
14131SOL    HW143249   4.897   6.867   5.030  0.2726 -0.2178 -0.1357
14131SOL    HW243250   4.926   6.778   4.910  0.9073  0.4261 -0.4682
14132SOL     OW43251   2.411   6.179   3.214 -0.3886 -0.2942 -0.6589
14132SOL    HW143252   2.412   6.262   3.166 -3.6567 -0.0031 -0.4835
14132SOL    HW243253   2.438   6.203   3.303  0.6203  0.1767 -1.0802
14133SOL     OW43254   6.647   1.762   3.390 -0.3698  0.1245  0.1161
14133SOL    HW143255   6.668   1.743   3.481  0.4698  0.7277  0.0616
14133SOL    HW243256   6.707   1.833   3.366 -0.4737 -0.1313 -0.9445
14134SOL     OW43257   6.875   6.902   4.841  0.3406 -0.4233 -0.8037
14134SOL    HW143258   6.789   6.939   4.821 -0.5593 -2.4905 -0.9923
14134SOL    HW243259   6.859   6.809   4.853  2.5418 -0.8344 -0.6427
14135SOL     OW43260   3.323   4.012   5.332 -0.8070  0.1092 -0.1690
14135SOL    HW143261   3.380   3.990   5.405  0.5056  0.3332 -1.0860
14135SOL    HW243262   3.241   4.041   5.373 -1.1737 -2.5052  1.1427
14136SOL     OW43263   5.944   1.694   0.812  0.4630 -0.1456 -0.2027
14136SOL    HW143264   5.948   1.602   0.838 -0.2425  0.1792  1.1262
14136SOL    HW243265   5.851   1.710   0.794  0.6611  0.1712 -0.9751
14137SOL     OW43266   0.437   4.007   0.799  0.2605  0.0803 -0.7703
14137SOL    HW143267   0.406   4.078   0.856  1.8352  0.1284  0.0909
14137SOL    HW243268   0.361   3.949   0.789 -0.3331  0.5801  0.6025
14138SOL     OW43269   0.941   5.418   0.532  0.0800 -0.6539  0.3555
14138SOL    HW143270   0.866   5.360   0.521 -0.1081 -0.5091  0.8756
14138SOL    HW243271   0.947   5.433   0.626  0.0642  0.2609  0.2156
14139SOL     OW43272   3.097   0.598   6.903  0.2481  0.2087 -0.2518
14139SOL    HW143273   3.137   0.603   6.990 -1.3608  1.0118  0.4684
14139SOL    HW243274   3.028   0.533   6.912  0.8047 -0.5632 -1.2692
14140SOL     OW43275   6.627   7.173   0.549 -0.4773 -0.2231 -0.1837
14140SOL    HW143276   6.592   7.189   0.636  0.6138  0.6539  0.1149
14140SOL    HW243277   6.721   7.188   0.557 -0.6813  2.9697 -2.1474
14141SOL     OW43278   3.354   5.766   4.812  0.3156  0.4129 -0.1993
14141SOL    HW143279   3.307   5.702   4.759  1.4523 -0.4050 -0.2722
14141SOL    HW243280   3.338   5.740   4.902  0.1341  0.4961 -0.2085
14142SOL     OW43281   7.028   7.769   5.848  0.2117  0.4057  0.0943
14142SOL    HW143282   7.100   7.832   5.848  0.5829  0.0474 -1.9484
14142SOL    HW243283   7.071   7.684   5.839 -0.4013  0.0966  0.0504
14143SOL     OW43284   0.813   1.567   7.316  0.8120 -0.5868  0.1572
14143SOL    HW143285   0.833   1.491   7.371  1.2209 -0.5965  0.0015
14143SOL    HW243286   0.892   1.581   7.264  1.8629  1.6269  2.1291
14144SOL     OW43287   6.772   1.522   1.541  0.2092  0.1242  0.1881
14144SOL    HW143288   6.680   1.505   1.559 -0.2305 -0.2016 -2.0639
14144SOL    HW243289   6.775   1.615   1.516  0.5928  0.2700  0.7557
14145SOL     OW43290   1.454   0.741   3.190 -0.2317 -0.3541 -0.5124
14145SOL    HW143291   1.423   0.831   3.201 -0.2790 -0.4128 -0.1666
14145SOL    HW243292   1.471   0.733   3.096 -0.0922  0.0589 -0.5249
14146SOL     OW43293   1.682   2.737   2.357  0.0402 -0.3943  0.5952
14146SOL    HW143294   1.723   2.654   2.382  0.4426 -0.3736  0.0285
14146SOL    HW243295   1.734   2.804   2.402 -0.4896 -0.4638  1.3185
14147SOL     OW43296   3.770   5.606   3.415  0.3855 -0.0256 -0.1979
14147SOL    HW143297   3.848   5.601   3.471  0.4262 -2.5903 -0.3411
14147SOL    HW243298   3.703   5.645   3.470  1.8196  2.6596 -0.2073
14148SOL     OW43299   3.707   7.801   3.172  0.6101 -0.5138  0.1627
14148SOL    HW143300   3.730   7.779   3.263  0.0461  0.6675  0.6164
14148SOL    HW243301   3.620   7.765   3.160 -0.8242  2.2676  1.2975
14149SOL     OW43302   7.004   2.907   6.824 -0.4143  0.5677 -0.2037
14149SOL    HW143303   7.025   2.983   6.878  2.3886  0.0187 -0.3667
14149SOL    HW243304   6.908   2.907   6.819 -0.5978  2.8336  1.5411
14150SOL     OW43305   2.831   5.775   2.537  0.8044  0.1038  0.1476
14150SOL    HW143306   2.781   5.706   2.495 -0.0175  0.5094  0.4420
14150SOL    HW243307   2.802   5.855   2.494  1.1344  0.3530  0.3868
14151SOL     OW43308   0.243   3.556   3.716 -0.2668 -0.1116  0.0604
14151SOL    HW143309   0.291   3.503   3.653 -0.0633  0.8990 -0.6500
14151SOL    HW243310   0.289   3.640   3.718 -1.6782  0.7039 -0.2412
14152SOL     OW43311   6.284   1.043   2.362  0.3885 -0.6185  0.5081
14152SOL    HW143312   6.233   1.071   2.437  1.2870  1.9715  0.2635
14152SOL    HW243313   6.371   1.023   2.398  0.3120 -1.1517  0.4011
14153SOL     OW43314   7.148   0.356   5.860  0.0307  0.2202  0.0749
14153SOL    HW143315   7.138   0.318   5.773 -0.7027 -3.4198  1.5216
14153SOL    HW243316   7.067   0.404   5.875 -0.0264  0.4914 -1.0793
14154SOL     OW43317   7.705   3.383   0.553  0.1313  0.6125  0.0704
14154SOL    HW143318   7.654   3.349   0.479 -0.4022  2.1281 -0.3080
14154SOL    HW243319   7.751   3.459   0.517 -0.1512  1.3886  1.2829
14155SOL     OW43320   3.077   5.268   3.173 -0.1470  0.0568  0.3881
14155SOL    HW143321   3.156   5.275   3.226  0.4180  0.1254 -0.4402
14155SOL    HW243322   3.093   5.194   3.115 -0.0440  0.9972 -0.8233
14156SOL     OW43323   4.263   6.585   7.175 -0.5683 -0.2285 -0.0724
14156SOL    HW143324   4.324   6.611   7.106 -0.4400 -0.7041 -0.1454
14156SOL    HW243325   4.181   6.567   7.129 -0.3532 -1.0034 -0.1751
14157SOL     OW43326   3.601   3.408   3.768 -0.1436  0.0199 -0.1687
14157SOL    HW143327   3.598   3.452   3.853  0.4370 -0.8442  0.3044
14157SOL    HW243328   3.688   3.427   3.735  0.2669 -1.1303  0.2338
14158SOL     OW43329   5.716   4.709   3.121 -0.1838  0.1409 -0.1640
14158SOL    HW143330   5.785   4.712   3.187  1.3559  0.4637 -1.7346
14158SOL    HW243331   5.669   4.792   3.132  0.4875  0.4971  0.0933
14159SOL     OW43332   5.082   4.510   0.389 -0.3377 -0.7431 -0.3204
14159SOL    HW143333   5.036   4.589   0.418  0.0634 -0.7352  0.3191
14159SOL    HW243334   5.043   4.439   0.439  0.9724 -0.6096  0.9792
14160SOL     OW43335   1.622   2.070   6.344  0.0834 -0.0102  0.2870
14160SOL    HW143336   1.550   2.086   6.282  0.4993 -1.2179 -0.5313
14160SOL    HW243337   1.656   1.984   6.320  1.1150  0.0752  1.3656
14161SOL     OW43338   0.816   3.215   2.805  0.1212 -0.0503 -0.7264
14161SOL    HW143339   0.721   3.207   2.801  0.1580 -0.3373 -1.0141
14161SOL    HW243340   0.834   3.234   2.898 -0.3824  2.2600 -1.0273
14162SOL     OW43341   6.224   4.080   4.082 -0.1659 -0.4737  0.4029
14162SOL    HW143342   6.158   4.141   4.115 -0.7013 -1.6914  1.6575
14162SOL    HW243343   6.302   4.099   4.134 -0.1262 -0.4099  0.3217
14163SOL     OW43344   1.375   1.503   2.225  0.0124 -0.2464 -0.4625
14163SOL    HW143345   1.465   1.500   2.258 -0.5682 -1.5436  1.1659
14163SOL    HW243346   1.384   1.502   2.130  1.7145 -0.3344 -0.3360
14164SOL     OW43347   5.937   6.218   7.853  0.3049 -0.0456  0.0601
14164SOL    HW143348   5.880   6.147   7.883 -0.3150 -0.8129 -2.6501
14164SOL    HW243349   6.020   6.175   7.832 -0.2045 -0.1608 -1.9978
14165SOL     OW43350   4.718   2.728   1.723  0.4523  0.3935  0.0781
14165SOL    HW143351   4.669   2.708   1.643  0.3517  2.1044 -0.3194
14165SOL    HW243352   4.808   2.700   1.703  0.0342 -1.1544  0.1840
14166SOL     OW43353   6.875   7.911   0.234  0.1151  0.3569 -0.2802
14166SOL    HW143354   6.956   7.872   0.202 -0.1627  0.3539 -1.0146
14166SOL    HW243355   6.806   7.863   0.187 -0.3381  0.0017  0.7217
14167SOL     OW43356   2.002   5.260   4.867 -0.4451  0.3659  0.4005
14167SOL    HW143357   1.961   5.232   4.949 -1.0166 -1.6265 -0.5138
14167SOL    HW243358   1.967   5.202   4.801  2.4521 -0.2469 -0.7636
14168SOL     OW43359   0.854   1.301   1.729 -0.3088  0.6297  0.1849
14168SOL    HW143360   0.852   1.377   1.671 -2.0309  0.0751 -0.5527
14168SOL    HW243361   0.763   1.276   1.739  0.1815 -1.0439  0.8294
14169SOL     OW43362   5.104   2.011   1.197 -1.0181 -0.4396 -0.0538
14169SOL    HW143363   5.151   2.084   1.158  0.8136 -0.9029  1.1270
14169SOL    HW243364   5.109   1.941   1.132  0.9360 -0.8157  0.4173
14170SOL     OW43365   1.529   1.421   3.820  0.0040  0.0494 -0.1554
14170SOL    HW143366   1.553   1.413   3.913 -0.7633 -2.2384 -0.0965
14170SOL    HW243367   1.485   1.506   3.815  0.5916  0.5016  1.4312
14171SOL     OW43368   3.894   0.486   3.173  0.3371 -0.1557  0.7424
14171SOL    HW143369   3.841   0.485   3.093 -0.2092 -0.0113  1.1025
14171SOL    HW243370   3.952   0.561   3.162  0.3649 -0.2236  0.4152
14172SOL     OW43371   1.439   7.752   1.418 -0.0715 -0.2382  0.0359
14172SOL    HW143372   1.520   7.758   1.368 -0.9663  0.0799 -1.4347
14172SOL    HW243373   1.386   7.825   1.387 -0.5482  0.1692  1.7079
14173SOL     OW43374   6.539   1.208   6.827 -0.0522  0.0242 -1.0064
14173SOL    HW143375   6.565   1.153   6.753  0.6443 -0.0178 -0.7425
14173SOL    HW243376   6.534   1.148   6.901 -0.9412  0.0315 -1.0490
14174SOL     OW43377   6.417   6.177   7.774  0.2411  0.7954 -0.0183
14174SOL    HW143378   6.489   6.133   7.729 -1.3473  1.8181 -3.9391
14174SOL    HW243379   6.461   6.241   7.831  2.6929  2.8964 -3.8046
14175SOL     OW43380   5.154   4.980   4.992  0.0647 -0.1158  0.1771
14175SOL    HW143381   5.075   4.991   5.044 -0.5169 -0.0071 -0.7022
14175SOL    HW243382   5.125   4.994   4.901  1.3847  1.6152 -0.0493
14176SOL     OW43383   6.366   3.402   2.606  0.1762  1.1494  0.4573
14176SOL    HW143384   6.345   3.473   2.666 -1.6647  1.2468 -0.2508
14176SOL    HW243385   6.386   3.445   2.523 -0.3153  0.8745  0.1932
14177SOL     OW43386   2.882   1.315   5.318 -0.4788 -0.2768 -0.2274
14177SOL    HW143387   2.885   1.292   5.411  0.7907  0.1382 -0.1462
14177SOL    HW243388   2.791   1.339   5.303 -0.2551  2.0954  1.5502
14178SOL     OW43389   3.046   5.765   3.321  0.5730 -0.6665 -1.0744
14178SOL    HW143390   3.016   5.855   3.308 -0.4456 -0.8399  0.0015
14178SOL    HW243391   2.979   5.711   3.279 -0.2701 -1.0183  0.6294
14179SOL     OW43392   6.862   3.159   6.703 -0.4837 -0.0024 -0.4435
14179SOL    HW143393   6.811   3.240   6.702 -1.7358 -0.7184  1.0499
14179SOL    HW243394   6.905   3.160   6.789 -0.1886 -0.7274 -0.5789
14180SOL     OW43395   7.690   5.778   5.713  0.1819 -0.5562 -0.1456
14180SOL    HW143396   7.630   5.752   5.782  0.6813  0.2490  0.6066
14180SOL    HW243397   7.633   5.805   5.641 -0.3538 -0.0692  0.4504
14181SOL     OW43398   0.836   7.738   2.720  0.0814  0.6414 -0.6970
14181SOL    HW143399   0.782   7.767   2.793 -0.1240  0.0684 -0.6183
14181SOL    HW243400   0.924   7.728   2.758  0.1978  1.3298 -0.7686
14182SOL     OW43401   5.185   7.721   4.355 -0.1024  0.1772 -0.1086
14182SOL    HW143402   5.211   7.632   4.331 -1.2400 -0.1020 -0.3706
14182SOL    HW243403   5.196   7.724   4.450 -0.6712 -0.4624 -0.0157
14183SOL     OW43404   7.911   4.586   5.460  0.6252 -0.1632  0.0378
14183SOL    HW143405   7.960   4.665   5.481 -0.9010  1.4300 -1.9683
14183SOL    HW243406   7.884   4.551   5.545  0.1873  2.2340  0.9578
14184SOL     OW43407   7.908   2.469   6.764  0.3223 -0.0885 -0.2267
14184SOL    HW143408   7.968   2.486   6.691 -0.4807  1.4857 -0.5377
14184SOL    HW243409   7.927   2.538   6.828 -0.6609 -0.0055 -0.0102
14185SOL     OW43410   3.065   2.771   5.381  0.0214  0.0253 -0.3534
14185SOL    HW143411   3.002   2.843   5.371  1.4881  1.2805 -0.9407
14185SOL    HW243412   3.054   2.718   5.303 -0.0700  0.4235 -0.6123
14186SOL     OW43413   0.154   6.420   5.603  0.1221  0.3145  0.3313
14186SOL    HW143414   0.146   6.442   5.695 -1.4188 -1.4115  0.6644
14186SOL    HW243415   0.118   6.332   5.596  3.1068 -0.9066 -1.4073
14187SOL     OW43416   7.941   6.983   2.052 -0.0259 -0.0584 -0.4177
14187SOL    HW143417   7.892   6.984   2.133  1.3798  0.7205  0.4669
14187SOL    HW243418   7.909   7.059   2.003 -1.0728 -0.6930 -0.7368
14188SOL     OW43419   1.120   1.571   7.139 -0.5410 -0.2350  0.2412
14188SOL    HW143420   1.192   1.594   7.198 -0.9309  0.6458  0.4058
14188SOL    HW243421   1.087   1.656   7.108 -0.8738 -0.6595 -0.5985
14189SOL     OW43422   0.761   7.167   0.506 -0.1927  0.5016  0.0163
14189SOL    HW143423   0.714   7.114   0.443 -0.3566  0.0445  0.5174
14189SOL    HW243424   0.728   7.140   0.591  1.2245 -0.1034  0.4145
14190SOL     OW43425   4.798   3.914   0.385  0.2214  0.6230  0.0155
14190SOL    HW143426   4.833   3.867   0.461 -0.7715  0.2251  0.2366
14190SOL    HW243427   4.796   3.849   0.316 -0.0299  0.6547 -0.0080
14191SOL     OW43428   7.952   5.111   2.665 -0.5682 -0.0485  0.3643
14191SOL    HW143429   7.883   5.077   2.607  0.7037  1.0271 -1.8748
14191SOL    HW243430   8.034   5.080   2.626  0.3299  0.3768  1.8454
14192SOL     OW43431   2.653   0.372   3.394  0.4921  0.7832 -0.5207
14192SOL    HW143432   2.627   0.290   3.351 -0.8847  0.7723  0.2757
14192SOL    HW243433   2.611   0.441   3.343 -2.2655  0.7079  1.4337
14193SOL     OW43434   6.012   3.086   5.505 -0.2505  0.3473  0.1980
14193SOL    HW143435   5.957   3.035   5.446 -2.1483  1.3671  0.9864
14193SOL    HW243436   6.076   3.128   5.448 -0.2482 -0.8845 -0.7586
14194SOL     OW43437   0.700   4.964   3.367 -0.2650 -0.0673 -0.1358
14194SOL    HW143438   0.676   5.020   3.292  1.2067 -1.6718 -1.9016
14194SOL    HW243439   0.625   4.906   3.378 -0.0769 -0.5198 -1.1036
14195SOL     OW43440   3.568   6.358   5.138  0.4485 -0.2491  0.3364
14195SOL    HW143441   3.519   6.435   5.107  0.0954  0.0581  1.6086
14195SOL    HW243442   3.567   6.298   5.064  0.2007  0.7196 -0.4750
14196SOL     OW43443   1.596   2.468   4.167 -0.2245 -0.5096  0.2687
14196SOL    HW143444   1.649   2.534   4.123  0.5082 -1.1527  0.1715
14196SOL    HW243445   1.527   2.447   4.104 -2.4190  2.4453  1.4803
14197SOL     OW43446   2.154   3.491   7.800  0.2358 -0.2815 -0.0863
14197SOL    HW143447   2.191   3.566   7.847  0.4784 -0.5365  0.1383
14197SOL    HW243448   2.209   3.481   7.722 -0.5691  0.5466 -0.7769
14198SOL     OW43449   4.802   7.910   1.474 -0.3114  0.8280  0.4829
14198SOL    HW143450   4.727   7.850   1.473  1.4163 -1.6284 -2.9984
14198SOL    HW243451   4.771   7.986   1.422  0.0988 -1.2507 -3.1650
14199SOL     OW43452   6.974   4.073   5.027 -0.3837 -0.1290 -0.2154
14199SOL    HW143453   7.026   4.023   5.090 -0.7566 -0.4312 -0.1491
14199SOL    HW243454   7.018   4.058   4.943  0.6634  1.0078  0.0855
14200SOL     OW43455   2.401   7.264   4.458 -0.5171  0.2784  0.0882
14200SOL    HW143456   2.461   7.189   4.452  0.0188  0.4722  2.2823
14200SOL    HW243457   2.433   7.326   4.391  1.0605 -0.0889  0.4734
14201SOL     OW43458   5.665   0.845   4.568 -0.2463  0.3000 -0.1210
14201SOL    HW143459   5.611   0.769   4.547  0.1381 -0.2357  0.7546
14201SOL    HW243460   5.611   0.897   4.628  0.6585 -0.9264  1.8669
14202SOL     OW43461   0.794   7.556   6.169 -0.0938  0.5862 -0.8774
14202SOL    HW143462   0.781   7.466   6.200 -1.9879  0.4627 -1.8938
14202SOL    HW243463   0.766   7.554   6.078 -0.0189  2.1778 -0.9598
14203SOL     OW43464   5.283   7.254   4.943 -0.5701 -0.1527 -0.2886
14203SOL    HW143465   5.267   7.316   5.014 -1.7038  0.6722 -1.2310
14203SOL    HW243466   5.372   7.222   4.959 -0.7731  0.0461  1.4568
14204SOL     OW43467   6.526   2.748   5.845 -0.3801  0.1020  0.8197
14204SOL    HW143468   6.536   2.839   5.876 -0.2171  0.8285 -1.2381
14204SOL    HW243469   6.614   2.711   5.854 -0.5694 -0.0791  2.2240
14205SOL     OW43470   0.096   0.681   2.781  0.3866 -0.1067 -0.0499
14205SOL    HW143471   0.178   0.729   2.770  0.1079  0.7406  1.2938
14205SOL    HW243472   0.122   0.590   2.794  1.1199  0.1743  0.4868
14206SOL     OW43473   2.793   5.439   1.934  0.6163  0.2136  0.0566
14206SOL    HW143474   2.791   5.467   2.025 -1.2430  0.1132  0.0747
14206SOL    HW243475   2.885   5.448   1.908  1.5955 -1.6705  2.5100
14207SOL     OW43476   7.060   5.729   4.982  0.1847  0.3060  0.5098
14207SOL    HW143477   7.004   5.802   5.009 -1.4167 -0.9015  0.6681
14207SOL    HW243478   7.100   5.758   4.900 -0.4147  1.3542  0.5645
14208SOL     OW43479   3.244   3.128   4.033  0.2527 -0.2525  0.1224
14208SOL    HW143480   3.189   3.106   4.108  3.3689 -1.1300  2.3479
14208SOL    HW243481   3.222   3.219   4.014 -2.2930 -0.7032  0.4970
14209SOL     OW43482   6.850   4.248   0.234 -0.3762  0.5183  0.4104
14209SOL    HW143483   6.783   4.314   0.217  0.9636  1.4592 -1.5430
14209SOL    HW243484   6.830   4.177   0.174  0.4366  0.8775 -0.3064
14210SOL     OW43485   2.191   4.076   1.591 -0.0778  0.1654  0.4198
14210SOL    HW143486   2.163   3.985   1.602  1.9377 -0.2437  2.9652
14210SOL    HW243487   2.110   4.123   1.568 -2.4860 -1.3850  4.5171
14211SOL     OW43488   5.808   5.683   5.980 -0.2407  0.1577  0.1942
14211SOL    HW143489   5.796   5.708   5.888  1.0650 -0.5727 -0.2007
14211SOL    HW243490   5.825   5.766   6.025  0.9840  0.3382 -0.5655
14212SOL     OW43491   2.463   6.287   0.561 -0.1281  0.1413  0.7249
14212SOL    HW143492   2.400   6.215   0.571  1.7309 -1.6056  0.4713
14212SOL    HW243493   2.434   6.332   0.481 -1.1800 -0.4884  0.7320
14213SOL     OW43494   1.285   3.820   2.191  0.1485 -0.7805 -0.3650
14213SOL    HW143495   1.247   3.841   2.277  0.3433 -1.4015 -0.1158
14213SOL    HW243496   1.379   3.820   2.207  0.1682 -1.3872 -0.4572
14214SOL     OW43497   6.330   4.577   0.678 -0.3113 -0.1295 -0.1304
14214SOL    HW143498   6.274   4.580   0.756  0.4382  2.5915  0.4169
14214SOL    HW243499   6.410   4.533   0.708 -0.5403 -0.2849  0.2603
14215SOL     OW43500   0.109   7.730   3.370  0.0571  0.2633 -0.4582
14215SOL    HW143501   0.184   7.764   3.419  0.3478  0.4504 -1.0173
14215SOL    HW243502   0.132   7.639   3.351  0.1186  0.3038 -0.5800
14216SOL     OW43503   3.616   4.325   5.309 -0.3330 -0.1727 -0.4630
14216SOL    HW143504   3.632   4.419   5.308  2.5835 -0.5581 -1.0969
14216SOL    HW243505   3.620   4.299   5.217  0.8690 -1.1325 -0.1721
14217SOL     OW43506   1.156   7.293   3.910  0.1064  0.0474 -0.1352
14217SOL    HW143507   1.193   7.228   3.850 -0.4966  1.0998 -1.7399
14217SOL    HW243508   1.065   7.264   3.923  0.2454 -0.1961  0.2998
14218SOL     OW43509   1.974   4.712   5.706 -0.2346 -0.5364  0.0036
14218SOL    HW143510   2.016   4.645   5.653 -1.9504 -2.1819  0.6219
14218SOL    HW243511   1.890   4.727   5.664 -0.1587  0.7777  0.2609
14219SOL     OW43512   0.088   4.717   0.107 -0.6209  0.0989  0.4482
14219SOL    HW143513   0.032   4.642   0.128 -0.9075 -0.1295 -1.0333
14219SOL    HW243514   0.177   4.687   0.125 -0.7848 -0.3545  0.5177
14220SOL     OW43515   0.924   4.756   3.977 -0.1501  0.3857 -0.2485
14220SOL    HW143516   0.975   4.775   3.899 -1.1101 -1.4030 -1.3708
14220SOL    HW243517   0.925   4.838   4.027 -0.8057  2.0839 -2.8519
14221SOL     OW43518   2.402   6.967   2.462  0.3513  0.3869  0.3602
14221SOL    HW143519   2.401   6.929   2.550  0.8847 -0.9748 -0.1905
14221SOL    HW243520   2.495   6.974   2.441  0.2203  0.4851 -0.1907
14222SOL     OW43521   5.283   5.090   4.738 -0.0963  0.3768 -0.1000
14222SOL    HW143522   5.264   5.091   4.644  0.1842  1.3736 -0.1592
14222SOL    HW243523   5.247   5.172   4.771 -0.1134  0.0782  0.6535
14223SOL     OW43524   0.795   1.919   0.586  0.4201 -0.5336 -0.2397
14223SOL    HW143525   0.865   1.961   0.636  0.4269 -0.9268  0.0886
14223SOL    HW243526   0.839   1.850   0.536  0.5143  0.2628 -1.2954
14224SOL     OW43527   1.733   6.604   5.442 -0.6316  0.2833 -0.4667
14224SOL    HW143528   1.656   6.654   5.471 -1.0155 -0.1282 -0.7747
14224SOL    HW243529   1.719   6.590   5.349 -1.1963 -1.5495 -0.1425
14225SOL     OW43530   2.312   1.053   0.880  0.3490  0.3044 -0.3396
14225SOL    HW143531   2.216   1.051   0.883  0.3192 -0.4621 -1.2140
14225SOL    HW243532   2.339   0.983   0.940  0.2987 -0.5991 -1.3325
14226SOL     OW43533   7.167   1.298   4.908 -0.4389 -0.1637 -0.0088
14226SOL    HW143534   7.250   1.346   4.906  0.3432 -1.4538  0.3908
14226SOL    HW243535   7.181   1.224   4.849 -0.0367 -2.3525  2.6445
14227SOL     OW43536   2.969   1.365   2.738  0.1136  0.3316  0.3717
14227SOL    HW143537   2.883   1.357   2.781  0.1719  0.6671  0.5495
14227SOL    HW243538   3.020   1.292   2.775 -0.7001 -1.1012 -1.1871
14228SOL     OW43539   0.083   3.337   4.645 -0.4701  0.0165  0.3293
14228SOL    HW143540   0.139   3.374   4.578  0.7135 -0.1474  1.2004
14228SOL    HW243541   0.030   3.271   4.599 -0.4804  0.6923 -0.6387
14229SOL     OW43542   6.849   6.808   3.770 -0.0236 -0.0183 -0.2346
14229SOL    HW143543   6.884   6.727   3.733 -0.1552  0.8418 -2.3562
14229SOL    HW243544   6.779   6.778   3.829  0.4020 -1.4714 -0.4227
14230SOL     OW43545   1.986   4.989   7.581  0.3298 -0.2805  0.5528
14230SOL    HW143546   2.016   4.927   7.514 -0.3849 -0.2299  0.1779
14230SOL    HW243547   1.974   4.935   7.659  0.7874 -0.4125  0.5318
14231SOL     OW43548   7.926   5.791   0.799  0.3920 -0.1418  0.5028
14231SOL    HW143549   7.898   5.730   0.732  2.2511  0.6326 -1.0535
14231SOL    HW243550   7.945   5.737   0.876  0.1913 -1.2720 -0.2346
14232SOL     OW43551   6.832   2.681   0.364 -0.0526  0.0608 -0.0074
14232SOL    HW143552   6.891   2.645   0.430  1.6458  0.8706 -1.0036
14232SOL    HW243553   6.773   2.739   0.413 -2.0248 -2.8974  1.4405
14233SOL     OW43554   0.485   3.976   3.326 -0.0856 -0.1060  0.2847
14233SOL    HW143555   0.505   3.984   3.420  0.7972 -0.6133  0.1543
14233SOL    HW243556   0.441   4.058   3.304  1.6746  0.9791  0.6572
14234SOL     OW43557   1.670   5.158   1.145 -0.4076 -0.0534 -0.0540
14234SOL    HW143558   1.593   5.102   1.132 -0.8077  0.7686 -1.3898
14234SOL    HW243559   1.645   5.242   1.108  1.0721  0.2857 -0.3470
14235SOL     OW43560   0.118   0.911   6.933 -0.3054  0.4671 -0.6418
14235SOL    HW143561   0.026   0.935   6.917 -0.3856 -0.2000 -1.2182
14235SOL    HW243562   0.168   0.985   6.900 -0.6076  0.4872 -1.0641
14236SOL     OW43563   6.227   5.663   1.439  0.2603  0.4371  0.6757
14236SOL    HW143564   6.249   5.606   1.512 -1.0867 -0.6463  0.2705
14236SOL    HW243565   6.310   5.706   1.416  1.1273 -0.7361  1.5101
14237SOL     OW43566   1.913   5.711   4.569  0.0924  0.2370  0.0681
14237SOL    HW143567   1.889   5.791   4.523  0.1549  0.6046  0.6651
14237SOL    HW243568   1.866   5.716   4.652 -0.7995 -0.8929 -0.3450
14238SOL     OW43569   0.921   4.274   2.811 -0.5398 -0.5684  0.1725
14238SOL    HW143570   1.009   4.310   2.821  0.2864 -1.8741 -1.7034
14238SOL    HW243571   0.879   4.331   2.748 -0.3356 -1.0373 -0.3995
14239SOL     OW43572   6.335   0.364   5.357 -0.1042  0.3860 -0.2119
14239SOL    HW143573   6.300   0.442   5.314 -0.6722  0.0345 -0.3983
14239SOL    HW243574   6.259   0.307   5.368  0.1467  0.2239  0.7198
14240SOL     OW43575   2.552   5.541   6.265 -0.6907 -0.0756  0.1343
14240SOL    HW143576   2.576   5.548   6.173 -0.5081 -0.0619  0.1829
14240SOL    HW243577   2.594   5.616   6.307  0.0344 -0.6187  0.3966
14241SOL     OW43578   2.792   5.557   2.171 -0.0285  0.1170  0.1352
14241SOL    HW143579   2.882   5.581   2.195 -0.2227  1.5676 -0.4865
14241SOL    HW243580   2.740   5.633   2.195 -1.4220 -1.4016  2.1995
14242SOL     OW43581   3.890   2.728   3.507 -0.0570 -0.6135 -0.1421
14242SOL    HW143582   3.870   2.657   3.568 -0.3814  0.2808  0.8012
14242SOL    HW243583   3.913   2.802   3.562 -1.2597  0.4889 -1.0678
14243SOL     OW43584   5.945   1.240   1.385 -0.4151 -0.3703 -0.3399
14243SOL    HW143585   5.897   1.229   1.467 -0.7930 -0.7785 -0.6177
14243SOL    HW243586   5.880   1.269   1.322 -0.2056 -0.4526 -0.5979
14244SOL     OW43587   0.600   3.646   3.086 -0.3431  0.5586  0.2854
14244SOL    HW143588   0.648   3.595   3.151 -1.6160 -2.5486 -1.0171
14244SOL    HW243589   0.614   3.599   3.003 -1.9879  2.0858 -0.9433
14245SOL     OW43590   6.334   5.006   6.044 -0.4648 -0.2920 -0.5562
14245SOL    HW143591   6.306   4.922   6.081 -0.3774 -0.5509 -1.0733
14245SOL    HW243592   6.417   4.986   6.000 -1.0567 -0.2074 -1.7416
14246SOL     OW43593   6.943   4.895   6.854  0.2490 -0.0640  0.1845
14246SOL    HW143594   7.011   4.859   6.798 -0.6510 -1.0623 -0.2893
14246SOL    HW243595   6.890   4.820   6.881 -1.4461  0.8166 -0.5191
14247SOL     OW43596   0.993   6.449   1.111  0.1316 -0.0302  0.1408
14247SOL    HW143597   0.975   6.430   1.019 -0.4132  0.5242  0.1290
14247SOL    HW243598   0.955   6.375   1.158 -1.6541  0.7890  0.0664
14248SOL     OW43599   1.057   7.900   3.262  0.0903 -0.0272 -0.2475
14248SOL    HW143600   1.001   7.823   3.250 -0.1096 -0.0266  0.6043
14248SOL    HW243601   1.064   7.939   3.175  0.7163 -1.3750 -0.8253
14249SOL     OW43602   5.052   3.531   3.570  0.8069 -0.3451  0.5795
14249SOL    HW143603   4.995   3.603   3.596  2.3127  1.1432 -0.0752
14249SOL    HW243604   4.993   3.468   3.529 -0.7206 -0.0523  2.2041
14250SOL     OW43605   0.934   7.013   5.747 -0.0992  0.3515 -0.2636
14250SOL    HW143606   0.839   7.020   5.737 -0.3352 -0.9714  0.7611
14250SOL    HW243607   0.954   7.068   5.823 -0.3222 -0.7518  0.6219
14251SOL     OW43608   1.000   1.467   7.626  0.7043 -0.4841 -0.3091
14251SOL    HW143609   1.041   1.434   7.707 -1.8783 -1.0835  0.8563
14251SOL    HW243610   0.971   1.555   7.648  0.5154 -0.4243 -0.7956
14252SOL     OW43611   6.192   6.889   7.290  0.4275 -0.0901  0.4041
14252SOL    HW143612   6.125   6.853   7.231  0.0040 -1.2558  1.5380
14252SOL    HW243613   6.146   6.902   7.373  1.2039  0.7594  0.7193
14253SOL     OW43614   0.755   2.492   3.809  0.3017  1.2519 -0.4743
14253SOL    HW143615   0.815   2.567   3.804 -0.4743  1.8720 -0.7654
14253SOL    HW243616   0.787   2.431   3.743  1.6076  0.8225  0.5309
14254SOL     OW43617   4.147   0.921   1.763  0.2077  0.1819  0.2436
14254SOL    HW143618   4.080   0.854   1.748  0.5519  0.0038 -0.5176
14254SOL    HW243619   4.151   0.929   1.859 -1.0528  0.3602  0.2956
14255SOL     OW43620   4.383   0.628   5.556 -0.0163  0.5206  0.5123
14255SOL    HW143621   4.404   0.554   5.499  1.1927  1.5824 -0.4819
14255SOL    HW243622   4.367   0.701   5.496 -0.6300  1.2215  1.4912
14256SOL     OW43623   2.897   2.999   5.355 -0.2663  0.6909 -0.1984
14256SOL    HW143624   2.974   3.053   5.375 -1.8494  2.5663  1.2028
14256SOL    HW243625   2.848   3.051   5.291 -0.5433 -0.3491 -0.8507
14257SOL     OW43626   1.734   7.085   5.915  0.1521 -0.3021 -0.1722
14257SOL    HW143627   1.658   7.028   5.908 -0.6642  0.5214  1.4005
14257SOL    HW243628   1.769   7.090   5.826  0.2892 -3.2376 -0.3826
14258SOL     OW43629   3.483   6.889   5.457 -0.2488 -0.0326 -0.5293
14258SOL    HW143630   3.473   6.838   5.378  0.7126 -1.8802  0.4785
14258SOL    HW243631   3.578   6.900   5.467 -0.2955 -0.5964  0.7931
14259SOL     OW43632   4.771   3.191   3.999  0.0576  0.1424  0.8366
14259SOL    HW143633   4.694   3.239   3.967  0.4153 -0.6318 -1.3653
14259SOL    HW243634   4.843   3.253   3.993 -0.3966  1.0156  3.3376
14260SOL     OW43635   4.323   6.490   6.732 -0.6937  0.2866 -0.4685
14260SOL    HW143636   4.285   6.534   6.808  0.3558  0.1407  0.1551
14260SOL    HW243637   4.274   6.525   6.658 -1.3540  0.8580  0.2183
14261SOL     OW43638   4.114   7.178   7.137  0.3020  0.7571 -0.1327
14261SOL    HW143639   4.167   7.256   7.121  0.4033  0.8660  0.6568
14261SOL    HW243640   4.046   7.208   7.197 -0.8221  0.6744 -1.3340
14262SOL     OW43641   2.597   5.289   5.499  0.0914  0.5834 -0.2332
14262SOL    HW143642   2.520   5.346   5.497  0.8516  1.7533  1.1903
14262SOL    HW243643   2.616   5.270   5.407 -1.9455  0.1506 -0.5971
14263SOL     OW43644   2.231   7.680   6.613  0.6343  0.6458  0.6635
14263SOL    HW143645   2.295   7.673   6.684  0.6166  0.1304  0.6325
14263SOL    HW243646   2.283   7.671   6.533  0.4231 -0.7012  0.6551
14264SOL     OW43647   1.387   2.768   5.649 -0.0262 -0.4318  0.1621
14264SOL    HW143648   1.401   2.858   5.620  0.1303 -1.1281 -2.0569
14264SOL    HW243649   1.318   2.775   5.715 -2.2583  1.0264 -2.1390
14265SOL     OW43650   5.832   1.787   0.164 -0.1984 -0.2446 -0.2968
14265SOL    HW143651   5.804   1.763   0.252  0.2249  1.1258  0.2313
14265SOL    HW243652   5.901   1.724   0.142 -0.4880 -0.7516  0.2368
14266SOL     OW43653   6.208   3.603   0.697  0.5988 -0.0347 -0.3898
14266SOL    HW143654   6.234   3.585   0.606  1.4090 -0.8049 -0.0158
14266SOL    HW243655   6.146   3.533   0.718 -1.5753  1.5570 -1.1409
14267SOL     OW43656   5.610   5.997   0.987 -0.0469 -0.3728  0.2970
14267SOL    HW143657   5.686   6.054   0.988  0.2275 -0.7389  0.7330
14267SOL    HW243658   5.558   6.027   0.912  0.9996 -0.7271 -0.5966
14268SOL     OW43659   0.050   4.614   6.934 -0.1357  0.0259  0.2445
14268SOL    HW143660  -0.013   4.673   6.892  1.8912  0.5119 -2.3996
14268SOL    HW243661   0.116   4.672   6.973  0.9492 -0.4008 -0.8674
14269SOL     OW43662   6.582   7.980   2.175  0.3888  0.2026 -0.8930
14269SOL    HW143663   6.539   7.898   2.199  0.2887 -0.1019 -2.0602
14269SOL    HW243664   6.514   8.047   2.182  0.4738  0.2063  0.0726
14270SOL     OW43665   7.900   1.042   3.524  0.2299  0.0935 -0.4464
14270SOL    HW143666   7.860   1.057   3.610 -1.1313  0.2025 -1.0676
14270SOL    HW243667   7.896   1.127   3.481  0.2687 -0.1169 -0.8685
14271SOL     OW43668   0.182   5.879   7.543  0.2581 -0.2265  0.5012
14271SOL    HW143669   0.140   5.798   7.512  0.9678 -0.8710  1.1615
14271SOL    HW243670   0.112   5.944   7.543  0.1986 -0.1743 -2.3352
14272SOL     OW43671   0.629   2.611   6.571  0.5876 -0.2145  0.0593
14272SOL    HW143672   0.662   2.687   6.620  1.0433 -0.1231 -0.3742
14272SOL    HW243673   0.675   2.616   6.487  0.8369 -1.1372  0.1373
14273SOL     OW43674   1.282   7.593   5.390 -0.4389 -0.1106 -0.1442
14273SOL    HW143675   1.218   7.617   5.323 -0.4159  1.8184  0.4772
14273SOL    HW243676   1.250   7.634   5.470  1.7304  1.2656  0.1106
14274SOL     OW43677   7.355   2.922   5.564 -0.3891 -0.2889  0.0616
14274SOL    HW143678   7.439   2.888   5.595 -0.4709 -0.5511  0.0029
14274SOL    HW243679   7.377   2.977   5.489 -0.3716 -1.3104 -0.7003
14275SOL     OW43680   7.990   3.983   1.920  0.2889 -0.2684 -0.1901
14275SOL    HW143681   8.055   3.986   1.991  0.8185  0.3037 -0.6842
14275SOL    HW243682   8.031   3.931   1.852  0.4667  0.5381 -0.7176
14276SOL     OW43683   4.332   7.137   4.103  0.2083 -0.7048 -0.0832
14276SOL    HW143684   4.296   7.075   4.167 -0.2979 -0.8565 -0.5092
14276SOL    HW243685   4.260   7.199   4.087  0.1788 -0.9200 -0.8293
14277SOL     OW43686   6.450   6.985   6.771 -0.9056 -1.1133  0.2214
14277SOL    HW143687   6.416   6.899   6.793 -1.9992 -0.4765  1.1664
14277SOL    HW243688   6.373   7.043   6.775 -0.1819 -0.0747 -0.2737
14278SOL     OW43689   6.598   7.230   2.443  0.2881 -0.3772 -0.1352
14278SOL    HW143690   6.582   7.242   2.536 -0.3736 -0.6195 -0.2112
14278SOL    HW243691   6.690   7.205   2.438  0.4423  0.0657  0.4110
14279SOL     OW43692   7.426   4.921   0.362 -0.2006  0.3314  0.7286
14279SOL    HW143693   7.520   4.920   0.344 -0.2244  0.4364  0.5922
14279SOL    HW243694   7.417   4.979   0.437 -0.4144  2.5689 -0.8899
14280SOL     OW43695   1.653   7.562   1.942  0.6166 -0.3396 -0.6213
14280SOL    HW143696   1.718   7.630   1.929  0.4069 -0.0657 -0.2839
14280SOL    HW243697   1.702   7.481   1.943  0.9114 -0.1615 -0.6868
14281SOL     OW43698   2.697   4.001   7.805 -0.1611 -0.0579 -0.4141
14281SOL    HW143699   2.698   4.077   7.863  1.2372  0.0362 -0.5372
14281SOL    HW243700   2.704   3.925   7.863 -0.4164 -0.0454 -0.3653
14282SOL     OW43701   0.761   7.892   6.678 -0.3441 -0.5242  0.0427
14282SOL    HW143702   0.832   7.875   6.615 -1.5409  0.0162 -1.5162
14282SOL    HW243703   0.717   7.808   6.687 -0.5169 -0.4754 -0.3102
14283SOL     OW43704   6.998   6.342   7.477  0.2568 -0.3660  0.0072
14283SOL    HW143705   7.064   6.391   7.427 -1.7905  2.0660 -0.5086
14283SOL    HW243706   6.934   6.313   7.411  0.0705 -1.5289  0.6604
14284SOL     OW43707   5.134   0.216   3.332 -0.1737  0.2996 -0.4221
14284SOL    HW143708   5.113   0.176   3.247  0.4380 -0.8242 -0.0584
14284SOL    HW243709   5.150   0.143   3.390 -1.3486  1.0522  0.8941
14285SOL     OW43710   7.223   3.829   7.407  0.3720 -0.3872  0.1696
14285SOL    HW143711   7.178   3.880   7.339  0.5595 -1.1851 -0.5800
14285SOL    HW243712   7.198   3.738   7.388  2.3893 -0.8731 -0.3648
14286SOL     OW43713   7.934   3.267   4.008  0.0330 -0.5771  0.4495
14286SOL    HW143714   8.012   3.300   3.962 -0.1510 -0.2185  0.3846
14286SOL    HW243715   7.862   3.283   3.946 -0.0756 -1.0004  0.4667
14287SOL     OW43716   5.572   3.696   7.845  0.7019  0.1863  0.8471
14287SOL    HW143717   5.664   3.689   7.819  0.8625 -0.1891  1.4906
14287SOL    HW243718   5.556   3.618   7.898 -0.5257 -0.7799 -0.8219
14288SOL     OW43719   0.688   1.149   0.417  0.5060 -0.3442 -0.1028
14288SOL    HW143720   0.629   1.214   0.378  0.4786 -0.5390 -0.3843
14288SOL    HW243721   0.647   1.128   0.502  1.9529  2.0929  1.3085
14289SOL     OW43722   5.328   7.691   5.138  0.0395  0.5294 -0.0883
14289SOL    HW143723   5.339   7.735   5.054  0.1946  2.1443  0.7440
14289SOL    HW243724   5.398   7.726   5.193 -0.2453 -0.2761  0.8270
14290SOL     OW43725   3.135   4.327   6.500  0.2332 -0.1215 -0.1556
14290SOL    HW143726   3.177   4.312   6.585  1.3919 -0.8029 -0.8202
14290SOL    HW243727   3.100   4.416   6.506  0.5958 -0.0362  0.9099
14291SOL     OW43728   2.656   7.898   4.469  0.0580 -0.3832  0.2768
14291SOL    HW143729   2.582   7.845   4.438  0.7373 -0.6252 -0.9882
14291SOL    HW243730   2.704   7.920   4.389 -0.5301  2.6896  0.6755
14292SOL     OW43731   0.528   3.041   5.089  0.1334 -0.1810  0.7018
14292SOL    HW143732   0.599   3.067   5.148  0.2115 -2.0949  1.5371
14292SOL    HW243733   0.566   2.971   5.035 -0.7947 -0.4777  0.4099
14293SOL     OW43734   1.337   7.720   0.233 -0.2968 -0.4581  0.0466
14293SOL    HW143735   1.311   7.777   0.160 -0.0429  1.6044  1.4738
14293SOL    HW243736   1.411   7.670   0.199  1.0846  1.8589 -0.5766
14294SOL     OW43737   3.193   4.237   2.046 -0.1849 -0.1025 -0.0897
14294SOL    HW143738   3.195   4.193   1.962  2.1370  0.1825 -0.2627
14294SOL    HW243739   3.206   4.167   2.110 -1.4827 -0.2575  0.0319
14295SOL     OW43740   4.503   5.010   4.496  0.5779  0.5635 -0.1272
14295SOL    HW143741   4.443   5.015   4.422 -1.7719 -1.5190  1.5082
14295SOL    HW243742   4.571   4.948   4.468 -1.2133 -1.5455 -0.0286
14296SOL     OW43743   3.005   2.510   0.015  0.0998 -0.0722  0.5255
14296SOL    HW143744   3.043   2.423   0.010  0.8549  0.2498  0.5463
14296SOL    HW243745   2.961   2.512   0.100 -1.8477 -1.1780 -0.3912
14297SOL     OW43746   0.329   6.329   4.615 -0.4869 -0.1448 -0.1239
14297SOL    HW143747   0.282   6.314   4.533  1.4584 -1.3478 -1.1061
14297SOL    HW243748   0.341   6.242   4.652  2.4907 -0.1974 -0.8969
14298SOL     OW43749   4.861   3.730   0.591  0.1471  0.5487 -0.0888
14298SOL    HW143750   4.814   3.691   0.665  0.5641  0.4272  0.1110
14298SOL    HW243751   4.948   3.691   0.594 -0.3042 -0.6846 -1.6033
14299SOL     OW43752   2.631   3.338   6.927  0.5084  0.6339  0.2608
14299SOL    HW143753   2.666   3.362   7.013  0.0692  0.8325  0.3892
14299SOL    HW243754   2.640   3.417   6.875 -1.9737  1.4990  1.0138
14300SOL     OW43755   2.142   7.647   4.606  0.6483 -0.0303  0.2266
14300SOL    HW143756   2.167   7.555   4.611 -1.1651 -0.5273  1.5580
14300SOL    HW243757   2.054   7.646   4.567  1.1079  1.2586 -0.9154
14301SOL     OW43758   6.694   1.587   2.220 -0.0523 -0.1528 -0.2049
14301SOL    HW143759   6.735   1.657   2.170 -0.3068  1.4569  1.6914
14301SOL    HW243760   6.749   1.511   2.205 -0.0261  0.2699 -2.7260
14302SOL     OW43761   1.231   7.270   6.191  0.6339  0.8274  0.7658
14302SOL    HW143762   1.153   7.326   6.192  0.4135  0.5195  1.5643
14302SOL    HW243763   1.217   7.208   6.262  1.0266 -0.0409  0.1063
14303SOL     OW43764   7.745   6.765   3.376 -0.1291  0.1707 -0.1955
14303SOL    HW143765   7.808   6.710   3.328  0.3264 -0.7403  1.3686
14303SOL    HW243766   7.730   6.718   3.458 -2.9977  0.2826 -0.5661
14304SOL     OW43767   6.262   2.811   7.942  0.5720 -0.4714 -0.2679
14304SOL    HW143768   6.252   2.813   8.037  1.0472 -1.4282 -0.1907
14304SOL    HW243769   6.258   2.903   7.916  0.8781 -0.1694  0.7187
14305SOL     OW43770   1.195   0.143   7.841  0.0650 -0.1829 -0.1625
14305SOL    HW143771   1.233   0.133   7.754 -0.1272  0.5118 -0.3314
14305SOL    HW243772   1.168   0.235   7.845  1.2793  0.1498  1.1022
14306SOL     OW43773   3.300   0.941   2.715  0.3208  0.4778 -0.2014
14306SOL    HW143774   3.234   0.993   2.760 -0.2546 -2.4431  2.6507
14306SOL    HW243775   3.269   0.936   2.624 -1.3894  2.1391  0.2230
14307SOL     OW43776   5.268   3.918   7.275 -0.1723 -0.5083 -0.0561
14307SOL    HW143777   5.203   3.971   7.321  0.5548  1.9995 -1.6889
14307SOL    HW243778   5.333   3.897   7.342 -1.9657 -2.0335  1.3212
14308SOL     OW43779   4.136   7.521   4.952 -0.1648  0.0432 -0.1069
14308SOL    HW143780   4.126   7.454   4.884 -1.9978  1.1774 -1.0386
14308SOL    HW243781   4.059   7.577   4.941  0.3289  1.1882  1.8952
14309SOL     OW43782   5.817   6.554   3.760  0.4800 -0.3849 -0.5175
14309SOL    HW143783   5.842   6.543   3.668 -2.1363 -1.0325 -1.2619
14309SOL    HW243784   5.768   6.475   3.781  2.2088 -0.9094  1.9485
14310SOL     OW43785   0.346   6.993   1.752 -0.3145  0.0850 -0.3308
14310SOL    HW143786   0.308   6.984   1.839  0.2217 -1.0408 -0.1932
14310SOL    HW243787   0.270   6.987   1.693 -0.6440  0.5630  0.0337
14311SOL     OW43788   2.488   4.458   1.123  0.2624  0.0202  0.4642
14311SOL    HW143789   2.450   4.524   1.065  2.3312  0.4167 -0.5107
14311SOL    HW243790   2.574   4.440   1.086  1.0518 -0.8484  2.5902
14312SOL     OW43791   4.515   4.035   0.029 -0.0630 -0.1412 -0.5385
14312SOL    HW143792   4.525   4.043   0.124 -1.0129  0.6110 -0.4896
14312SOL    HW243793   4.472   3.951   0.016  0.8119 -0.6277 -0.3686
14313SOL     OW43794   5.515   5.415   5.569 -0.5247 -0.6534 -0.3556
14313SOL    HW143795   5.485   5.355   5.500 -1.4682 -2.0441  1.1829
14313SOL    HW243796   5.586   5.367   5.612 -1.7058 -0.9918  1.2969
14314SOL     OW43797   6.345   1.214   5.558  0.0044 -0.4458 -0.0270
14314SOL    HW143798   6.358   1.232   5.465 -0.4832 -0.2617 -0.0605
14314SOL    HW243799   6.252   1.192   5.566 -0.3123  1.0321  0.6481
14315SOL     OW43800   0.284   6.767   2.101 -0.5907 -0.3853 -0.6572
14315SOL    HW143801   0.223   6.741   2.169 -1.7521  0.7222 -1.2273
14315SOL    HW243802   0.245   6.845   2.062  0.9566  0.0789 -1.3710
14316SOL     OW43803   0.885   5.892   1.080  0.2849 -0.2732  0.4858
14316SOL    HW143804   0.798   5.903   1.040  0.7433 -1.7993 -1.0502
14316SOL    HW243805   0.877   5.935   1.165 -1.2941  1.5492 -0.4962
14317SOL     OW43806   7.124   0.822   6.689 -0.1632  0.3534  0.4294
14317SOL    HW143807   7.200   0.763   6.692  1.3795  2.1409 -0.8896
14317SOL    HW243808   7.106   0.832   6.595 -0.0694  2.2929  0.5834
14318SOL     OW43809   0.194   6.916   5.794  0.0195 -0.0448 -0.6803
14318SOL    HW143810   0.136   6.905   5.718  1.3247 -0.6770 -1.6320
14318SOL    HW243811   0.149   6.872   5.866  0.2204 -2.3626 -1.8825
14319SOL     OW43812   7.284   0.749   5.373 -0.2134  0.4068 -0.0367
14319SOL    HW143813   7.192   0.730   5.356  0.2951 -2.2020 -0.2691
14319SOL    HW243814   7.321   0.666   5.405  2.3749  0.9639 -1.2879
14320SOL     OW43815   1.786   6.369   1.720  0.0649  0.4089  0.3555
14320SOL    HW143816   1.739   6.346   1.800  2.1417  1.6205  2.0013
14320SOL    HW243817   1.729   6.434   1.677 -0.6793  0.3934  1.2817
14321SOL     OW43818   1.987   5.326   2.000 -0.2684  0.3852  0.1612
14321SOL    HW143819   2.015   5.235   1.991  1.3007  0.7381  0.9868
14321SOL    HW243820   1.966   5.354   1.911  2.1387  0.0490 -0.5930
14322SOL     OW43821   6.099   5.146   7.829  0.3228  0.0651 -0.2886
14322SOL    HW143822   6.087   5.161   7.735 -1.0241  0.8424 -0.0317
14322SOL    HW243823   6.029   5.085   7.852 -0.6973  1.4992  0.5588
14323SOL     OW43824   1.213   7.121   7.419  0.4524  0.2262 -0.0401
14323SOL    HW143825   1.166   7.046   7.382 -0.5840  1.1066 -0.5467
14323SOL    HW243826   1.276   7.144   7.351  1.4716 -0.7781  0.5235
14324SOL     OW43827   7.421   0.289   0.172  0.1358 -0.0113 -0.5063
14324SOL    HW143828   7.351   0.285   0.237 -0.3778 -0.0424 -1.0545
14324SOL    HW243829   7.405   0.215   0.113  1.0531 -0.4573 -0.2284
14325SOL     OW43830   2.002   1.601   6.871 -0.3838  0.4410 -0.9257
14325SOL    HW143831   1.907   1.585   6.872 -0.0694 -2.5668  2.4363
14325SOL    HW243832   2.012   1.686   6.912 -1.6163  0.0289  0.3063
14326SOL     OW43833   5.822   1.298   7.742  0.0289 -0.5554  0.1618
14326SOL    HW143834   5.747   1.239   7.729  0.1151 -0.4939 -0.6547
14326SOL    HW243835   5.898   1.240   7.745  0.1705 -0.4659 -1.1630
14327SOL     OW43836   7.576   4.707   6.464  0.2023 -0.4603 -0.0342
14327SOL    HW143837   7.658   4.736   6.504  0.4012 -0.8628 -0.1468
14327SOL    HW243838   7.518   4.783   6.471  0.7296 -0.0221 -0.3578
14328SOL     OW43839   4.119   6.068   1.863  0.1179  0.0634 -0.1471
14328SOL    HW143840   4.109   6.162   1.873  0.2700 -0.0610  1.6049
14328SOL    HW243841   4.165   6.057   1.780 -1.9102  1.3624 -1.5299
14329SOL     OW43842   4.415   3.162   6.707 -0.7943 -0.0023 -0.5818
14329SOL    HW143843   4.345   3.144   6.770 -0.0875  1.2090  0.6168
14329SOL    HW243844   4.435   3.255   6.720 -0.0102  0.0514 -1.9877
14330SOL     OW43845   3.240   4.754   5.117 -0.4545 -0.3455  0.3134
14330SOL    HW143846   3.330   4.785   5.111  0.2025 -2.1376  0.2381
14330SOL    HW243847   3.220   4.754   5.210 -0.0911 -0.6719  0.3934
14331SOL     OW43848   5.213   1.169   1.140 -0.2764  0.7436  0.7599
14331SOL    HW143849   5.180   1.229   1.207  0.8557  0.7264  1.3430
14331SOL    HW243850   5.134   1.135   1.097 -0.9654  2.8973  0.1869
14332SOL     OW43851   1.906   7.888   0.942  0.4036 -0.3808  0.7609
14332SOL    HW143852   1.971   7.861   1.007 -0.5239  0.7551  2.2388
14332SOL    HW243853   1.926   7.981   0.927 -0.6830 -0.0879  1.0449
14333SOL     OW43854   6.571   7.891   4.774 -0.5696 -0.1747  0.1961
14333SOL    HW143855   6.566   7.823   4.706 -0.4510 -1.0922  1.0839
14333SOL    HW243856   6.626   7.852   4.842  0.2026  1.1429  0.3628
14334SOL     OW43857   4.045   4.568   0.603  0.1293 -0.3736 -0.0917
14334SOL    HW143858   4.092   4.523   0.533  0.3826 -2.0125  1.0606
14334SOL    HW243859   4.007   4.497   0.655 -2.3647  0.8558 -0.1114
14335SOL     OW43860   1.149   1.644   1.288  0.2075 -0.4572 -0.2754
14335SOL    HW143861   1.116   1.554   1.288 -2.5505  0.4580  1.1304
14335SOL    HW243862   1.091   1.691   1.228  1.5972  0.4454 -0.9666
14336SOL     OW43863   6.753   6.982   3.312 -0.3007 -0.6399 -0.7366
14336SOL    HW143864   6.833   6.984   3.259  0.3302 -1.5934  0.1270
14336SOL    HW243865   6.742   6.889   3.334 -0.2948 -0.2262  1.1312
14337SOL     OW43866   2.250   5.355   4.845  0.1405  0.3522  0.2431
14337SOL    HW143867   2.161   5.322   4.856  0.4786 -2.0654 -2.8127
14337SOL    HW243868   2.306   5.277   4.855  1.8731  1.6311  1.0959
14338SOL     OW43869   1.521   5.973   0.668  0.5628  0.1377  0.6064
14338SOL    HW143870   1.450   5.909   0.669  1.0650 -0.4693 -0.8397
14338SOL    HW243871   1.571   5.953   0.589  3.9604 -1.2308  2.8149
14339SOL     OW43872   6.584   5.371   6.287  0.1864 -0.3025 -0.0141
14339SOL    HW143873   6.520   5.404   6.350  0.0377  0.5476 -0.5954
14339SOL    HW243874   6.546   5.390   6.201  1.2793  0.3895 -0.3732
14340SOL     OW43875   2.712   5.289   7.039  0.5050 -0.5950  0.1268
14340SOL    HW143876   2.805   5.279   7.059  0.6318 -0.6629 -0.4955
14340SOL    HW243877   2.706   5.278   6.944  0.1824  1.6123 -0.1671
14341SOL     OW43878   5.329   1.159   2.952 -0.2523  0.2431 -0.0630
14341SOL    HW143879   5.284   1.200   3.026 -0.2423 -0.9907  0.6409
14341SOL    HW243880   5.304   1.067   2.956  0.7583 -0.0828 -0.8479
14342SOL     OW43881   2.174   7.861   5.451 -0.4496  0.4732  0.4189
14342SOL    HW143882   2.080   7.849   5.463 -0.1412 -1.6349  1.0375
14342SOL    HW243883   2.187   7.857   5.356 -0.7219 -1.9456  0.4245
14343SOL     OW43884   1.554   4.116   7.267  0.1157 -0.0834  0.1379
14343SOL    HW143885   1.575   4.208   7.282 -0.3087 -0.0627  0.6193
14343SOL    HW243886   1.621   4.068   7.316  0.6362 -0.0434 -0.5146
14344SOL     OW43887   5.938   7.195   5.495  0.6982  0.1349  0.1414
14344SOL    HW143888   5.871   7.129   5.515  0.2498 -0.1270 -1.9478
14344SOL    HW243889   6.015   7.144   5.471  0.3366  0.2818 -1.5263
14345SOL     OW43890   0.939   2.092   0.386  0.3250  0.0103  0.2850
14345SOL    HW143891   0.922   2.010   0.431 -0.9619 -0.7150 -1.4153
14345SOL    HW243892   1.034   2.100   0.386  0.4647 -1.3573  0.6930
14346SOL     OW43893   4.984   7.934   7.911  0.3333 -0.3660 -0.2090
14346SOL    HW143894   5.045   8.007   7.902  0.9561 -0.7748  0.5453
14346SOL    HW243895   5.032   7.858   7.879  0.7390 -0.9306  1.6189
14347SOL     OW43896   6.529   5.980   5.124 -0.3534  0.1637 -0.3874
14347SOL    HW143897   6.580   5.973   5.044  0.6390  0.6280  0.1767
14347SOL    HW243898   6.552   5.902   5.174  0.4491  0.7516  0.2043
14348SOL     OW43899   5.666   3.907   2.720 -0.0636 -0.2441 -0.3065
14348SOL    HW143900   5.757   3.934   2.715 -0.6810  2.0129 -0.7612
14348SOL    HW243901   5.634   3.914   2.630 -1.0043  0.3714  0.0513
14349SOL     OW43902   0.082   0.269   5.211  0.1065 -0.6706  0.3152
14349SOL    HW143903   0.121   0.201   5.156 -0.8206  0.5656 -2.0293
14349SOL    HW243904   0.142   0.343   5.204 -1.5092  0.5718 -1.7423
14350SOL     OW43905   1.461   0.387   4.875 -0.3401 -0.2161 -0.5353
14350SOL    HW143906   1.522   0.353   4.809  0.8258 -1.4029  1.0496
14350SOL    HW243907   1.393   0.320   4.882 -2.0608  1.1959 -2.4418
14351SOL     OW43908   2.695   1.808   0.283 -0.2966  0.1621  0.0170
14351SOL    HW143909   2.656   1.817   0.196  2.5897 -0.4072 -1.4534
14351SOL    HW243910   2.786   1.784   0.266  0.1702 -0.8075  3.2326
14352SOL     OW43911   4.477   6.615   3.245 -0.7919  0.4450 -0.2372
14352SOL    HW143912   4.488   6.570   3.328  0.9565  1.7599  0.3160
14352SOL    HW243913   4.563   6.607   3.202 -0.1482  3.6836  0.1936
14353SOL     OW43914   1.069   6.114   6.123  0.3611  0.9020  0.0398
14353SOL    HW143915   1.128   6.075   6.188 -2.1373  0.6756  2.3405
14353SOL    HW243916   1.033   6.038   6.075  2.2958  1.0739 -1.8540
14354SOL     OW43917   6.949   1.027   2.764  0.4569  0.2280  0.3280
14354SOL    HW143918   7.027   1.080   2.746 -1.0659  2.1660 -0.9757
14354SOL    HW243919   6.957   0.952   2.705  1.5368  0.1839  0.5164
14355SOL     OW43920   2.280   3.221   4.664 -0.1121  0.4628 -0.3044
14355SOL    HW143921   2.206   3.163   4.685  0.6352 -1.1305 -1.7633
14355SOL    HW243922   2.341   3.207   4.736  0.1084 -0.7152 -0.6887
14356SOL     OW43923   1.777   3.589   2.100  0.6092  0.1913 -0.0141
14356SOL    HW143924   1.778   3.578   2.195 -0.7223 -1.1270 -0.1249
14356SOL    HW243925   1.752   3.503   2.066  2.4705  0.2283 -1.6456
14357SOL     OW43926   5.813   3.638   4.835  0.1346 -0.2133  0.2956
14357SOL    HW143927   5.786   3.622   4.925  1.6758 -0.6838  0.7195
14357SOL    HW243928   5.805   3.732   4.823  0.7005 -0.0377  1.2092
14358SOL     OW43929   1.611   6.875   2.722  0.0189  0.0517 -0.8848
14358SOL    HW143930   1.559   6.874   2.801 -1.2183  1.0184 -1.6531
14358SOL    HW243931   1.680   6.810   2.737 -1.8018 -1.7930 -0.1167
14359SOL     OW43932   4.500   4.409   5.556  0.3312 -0.4019 -0.2249
14359SOL    HW143933   4.405   4.410   5.544 -0.0492 -1.6344  2.0059
14359SOL    HW243934   4.521   4.317   5.571  1.9069 -0.1493 -0.7473
14360SOL     OW43935   7.774   6.405   7.474  0.1675 -0.5366  0.6479
14360SOL    HW143936   7.731   6.487   7.452  0.0910 -0.6769  0.2753
14360SOL    HW243937   7.759   6.395   7.568  1.8190  0.8394  1.1219
14361SOL     OW43938   4.254   3.861   2.774 -0.5549 -0.8239  0.3142
14361SOL    HW143939   4.280   3.912   2.851  0.6394 -0.5849 -0.2257
14361SOL    HW243940   4.285   3.772   2.792  1.0572 -0.4576 -0.4952
14362SOL     OW43941   3.489   7.665   5.503 -0.4812 -0.5509 -0.0929
14362SOL    HW143942   3.421   7.608   5.539 -0.4121 -1.4875 -1.3869
14362SOL    HW243943   3.548   7.605   5.457 -0.5830  0.6052 -1.7747
14363SOL     OW43944   4.815   0.495   0.350  0.0638 -0.0385  0.0363
14363SOL    HW143945   4.827   0.564   0.415  2.1009  0.7445 -1.0714
14363SOL    HW243946   4.747   0.528   0.292  0.1109  0.4442  0.2538
14364SOL     OW43947   1.113   0.727   2.220  0.5312 -0.2321 -0.1205
14364SOL    HW143948   1.140   0.812   2.255 -1.1260 -0.7086  2.5793
14364SOL    HW243949   1.154   0.663   2.279 -0.0387 -1.2302 -0.7879
14365SOL     OW43950   0.483   4.595   6.889 -0.8325  0.6001  0.2938
14365SOL    HW143951   0.536   4.655   6.837 -1.9320  0.4881 -0.9994
14365SOL    HW243952   0.512   4.508   6.861 -1.3397  0.5378 -0.0377
14366SOL     OW43953   4.076   4.147   2.779 -0.1384  0.4386 -0.4167
14366SOL    HW143954   4.061   4.053   2.788 -0.2172  0.4786 -0.1373
14366SOL    HW243955   4.097   4.177   2.867  4.2120 -0.0595 -1.0489
14367SOL     OW43956   7.801   4.863   1.245  0.2904 -0.2088  0.2098
14367SOL    HW143957   7.708   4.862   1.264  0.2704 -0.5820  0.0915
14367SOL    HW243958   7.835   4.936   1.297 -0.5556  1.9237 -2.0419
14368SOL     OW43959   6.045   3.793   2.439  0.2677 -0.3226 -0.2020
14368SOL    HW143960   6.089   3.738   2.374 -0.3896  1.3653 -2.2044
14368SOL    HW243961   6.115   3.844   2.479  0.5676 -0.5727 -0.4071
14369SOL     OW43962   3.774   5.395   1.495 -0.1615  0.6348  0.2934
14369SOL    HW143963   3.847   5.332   1.495 -0.4838  0.2551  0.0124
14369SOL    HW243964   3.758   5.412   1.403  0.1929  1.4588  0.3778
14370SOL     OW43965   5.458   2.711   1.000  0.4219  0.1607  0.4564
14370SOL    HW143966   5.410   2.793   0.987 -1.0777 -0.6237  0.7497
14370SOL    HW243967   5.437   2.659   0.923  0.3449 -0.4046  0.8513
14371SOL     OW43968   0.480   4.455   1.722  0.3060  0.1014 -0.0599
14371SOL    HW143969   0.557   4.397   1.727  0.7117  0.2841 -2.8143
14371SOL    HW243970   0.423   4.414   1.657 -1.7126  0.3170  1.4631
14372SOL     OW43971   1.534   0.815   7.723  0.0242 -0.5397 -0.4700
14372SOL    HW143972   1.534   0.881   7.653  0.3841  0.7177  0.6762
14372SOL    HW243973   1.600   0.751   7.696  1.7349  1.0515 -0.3119
14373SOL     OW43974   3.610   1.528   7.316 -0.1774  0.3851 -0.3588
14373SOL    HW143975   3.516   1.523   7.330 -0.1674  1.0587 -0.0020
14373SOL    HW243976   3.620   1.576   7.234 -0.1582 -0.4711 -0.8670
14374SOL     OW43977   5.148   3.026   6.824 -0.0937  0.1746  0.4650
14374SOL    HW143978   5.095   3.076   6.887 -0.5986  0.5852 -0.2688
14374SOL    HW243979   5.135   2.935   6.849 -1.6538  0.2205 -0.0613
14375SOL     OW43980   4.026   7.877   6.204 -0.5178  0.3448 -0.7256
14375SOL    HW143981   4.082   7.955   6.210 -0.2197  0.1048 -0.3191
14375SOL    HW243982   3.994   7.864   6.293  0.4091 -0.7021 -0.5336
14376SOL     OW43983   6.660   3.919   2.609 -0.2033 -0.3535  0.3118
14376SOL    HW143984   6.658   3.862   2.532  1.5516 -0.6624  0.4433
14376SOL    HW243985   6.677   3.859   2.682 -1.3479 -0.0041  0.8811
14377SOL     OW43986   0.824   6.251   0.521 -0.1439 -0.7748 -0.0215
14377SOL    HW143987   0.825   6.157   0.507 -0.0965 -0.7015 -0.5195
14377SOL    HW243988   0.731   6.273   0.530 -0.1014 -1.0297  1.2595
14378SOL     OW43989   1.368   2.763   4.016  0.5956 -0.6774  0.3439
14378SOL    HW143990   1.406   2.801   3.937 -2.2710  1.2856 -0.2601
14378SOL    HW243991   1.443   2.742   4.071  2.5843  1.2545 -1.4155
14379SOL     OW43992   5.393   4.939   5.147  0.1635  0.9943 -0.4341
14379SOL    HW143993   5.401   4.848   5.118  0.5360  1.3120 -1.3593
14379SOL    HW243994   5.311   4.969   5.110  0.8561  1.5382 -1.5655
14380SOL     OW43995   5.418   5.320   0.218  0.3033  0.1156 -0.0724
14380SOL    HW143996   5.450   5.250   0.162  0.9639 -1.2793  1.9565
14380SOL    HW243997   5.488   5.386   0.216 -0.1266  0.5853 -1.6255
14381SOL     OW43998   4.550   0.684   4.809 -0.0063  0.2046  0.0405
14381SOL    HW143999   4.498   0.694   4.729  0.5041 -0.0461 -0.3253
14381SOL    HW244000   4.577   0.774   4.831  0.2745  0.2197 -0.3563
14382SOL     OW44001   3.159   5.370   6.148 -0.9589  0.0416  0.0830
14382SOL    HW144002   3.197   5.449   6.108  2.4274 -1.4798 -0.0790
14382SOL    HW244003   3.164   5.387   6.242 -1.3094  0.4548  0.0305
14383SOL     OW44004   3.941   7.551   1.972 -0.5919  0.1812 -0.2962
14383SOL    HW144005   3.895   7.624   2.015 -1.7778 -2.2020  2.8959
14383SOL    HW244006   3.872   7.487   1.955  0.7655 -1.2211 -0.6253
14384SOL     OW44007   4.584   7.565   4.070  0.4404 -0.0910  0.3668
14384SOL    HW144008   4.505   7.536   4.116  0.0043 -0.9514 -0.8835
14384SOL    HW244009   4.655   7.554   4.134 -0.2956 -0.2321  1.1741
14385SOL     OW44010   7.852   5.370   6.948  0.7000  0.6239  0.1517
14385SOL    HW144011   7.853   5.387   6.853  0.3686 -0.7596 -0.1147
14385SOL    HW244012   7.772   5.319   6.962  0.9452  0.5023  1.1334
14386SOL     OW44013   1.837   5.433   2.891  0.1313 -0.1410 -0.3200
14386SOL    HW144014   1.780   5.505   2.918 -0.4197 -0.5660 -0.3325
14386SOL    HW244015   1.836   5.437   2.795  0.5176  0.1521 -0.3145
14387SOL     OW44016   5.956   2.812   7.093 -0.4274 -0.4011  0.6521
14387SOL    HW144017   6.027   2.833   7.153  0.0578 -1.9177  0.6517
14387SOL    HW244018   5.965   2.875   7.022  0.3425  0.0038  1.1009
14388SOL     OW44019   7.795   2.970   0.172 -0.0814  0.2219 -0.7086
14388SOL    HW144020   7.859   3.027   0.215  0.0001 -0.7224  0.4832
14388SOL    HW244021   7.745   2.932   0.244  1.2251 -2.8156 -1.2561
14389SOL     OW44022   4.559   3.735   7.583  0.2645 -0.2869 -0.4078
14389SOL    HW144023   4.537   3.725   7.490 -0.0482  0.5165 -0.4349
14389SOL    HW244024   4.591   3.825   7.589 -1.4517  0.3043  0.5757
14390SOL     OW44025   2.257   2.608   6.760 -0.0502  0.3855 -0.1560
14390SOL    HW144026   2.220   2.611   6.848 -0.2935 -2.9543 -0.0167
14390SOL    HW244027   2.191   2.650   6.705 -1.4347 -0.3595  0.8645
14391SOL     OW44028   2.835   6.017   2.397 -0.0918  0.6358 -0.2204
14391SOL    HW144029   2.914   6.071   2.390  0.4015 -0.2692 -2.1604
14391SOL    HW244030   2.763   6.081   2.393  0.5161  1.3434 -0.1530
14392SOL     OW44031   5.777   4.923   7.599  0.3067 -0.5700 -0.9331
14392SOL    HW144032   5.686   4.896   7.587 -0.0029  0.2495 -0.4969
14392SOL    HW244033   5.811   4.933   7.510 -0.4196  0.3552 -1.1217
14393SOL     OW44034   2.960   5.697   2.761 -0.7492 -0.0966 -0.3747
14393SOL    HW144035   2.900   5.724   2.691 -1.3846  0.3671  0.3304
14393SOL    HW244036   2.946   5.603   2.770 -0.7856 -0.1286 -0.7504
14394SOL     OW44037   2.465   2.274   1.197 -0.4239  0.5704  0.1431
14394SOL    HW144038   2.531   2.244   1.260  0.6359 -1.2916 -1.7155
14394SOL    HW244039   2.441   2.362   1.227  1.7317  0.6867  1.7838
14395SOL     OW44040   6.784   0.718   0.348 -0.0591 -0.4009 -0.2130
14395SOL    HW144041   6.763   0.807   0.377  0.5901  0.3652 -1.9221
14395SOL    HW244042   6.852   0.688   0.408  1.7481  1.3922 -1.2439
14396SOL     OW44043   6.421   5.706   3.101 -0.2708 -0.1825 -0.2328
14396SOL    HW144044   6.414   5.743   3.013 -1.0383 -1.6149 -0.8034
14396SOL    HW244045   6.344   5.739   3.147 -0.8961 -0.9389 -0.7069
14397SOL     OW44046   0.874   1.620   3.144 -0.2021  0.6251  0.2406
14397SOL    HW144047   0.883   1.662   3.229 -0.6534  1.4667 -0.1205
14397SOL    HW244048   0.908   1.684   3.081  1.8848 -0.6949 -0.0824
14398SOL     OW44049   4.045   1.510   4.673  0.3736 -0.1847  0.3640
14398SOL    HW144050   4.089   1.491   4.756  3.3320  2.2383 -0.4743
14398SOL    HW244051   4.113   1.549   4.618 -1.7396 -0.6146 -2.8463
14399SOL     OW44052   7.318   3.739   6.376  0.0494 -0.1442  0.0966
14399SOL    HW144053   7.328   3.696   6.291  0.4216 -0.0721  0.1008
14399SOL    HW244054   7.230   3.715   6.405  0.2458 -0.8983  0.0938
14400SOL     OW44055   2.343   2.243   5.072 -0.1749  0.0870  0.3946
14400SOL    HW144056   2.344   2.151   5.048 -0.4015  0.4087 -0.9685
14400SOL    HW244057   2.257   2.274   5.042  0.7185  1.2082 -1.1994
14401SOL     OW44058   0.767   0.699   0.836  0.0454 -0.2933 -0.6512
14401SOL    HW144059   0.753   0.604   0.833  1.0451 -0.4515 -0.5973
14401SOL    HW244060   0.842   0.711   0.894  0.4042  0.4738 -1.2493
14402SOL     OW44061   0.100   0.634   2.226  0.6432  0.5008  0.0351
14402SOL    HW144062   0.193   0.648   2.245  0.1127  0.5688  3.1282
14402SOL    HW244063   0.055   0.697   2.283 -1.3268 -0.2598 -0.6303
14403SOL     OW44064   6.997   2.595   0.569 -0.2715  0.4989 -0.1192
14403SOL    HW144065   6.932   2.577   0.637 -0.4414  0.6976 -0.2302
14403SOL    HW244066   7.081   2.571   0.610 -0.1068  2.6333  0.9348
14404SOL     OW44067   6.334   0.123   2.191 -0.0618  0.0528  0.1830
14404SOL    HW144068   6.250   0.100   2.152 -1.4718  0.5990  2.6604
14404SOL    HW244069   6.333   0.219   2.194 -0.6082  0.0287  2.5946
14405SOL     OW44070   4.682   2.130   2.951  0.1108 -0.4185  0.0398
14405SOL    HW144071   4.603   2.079   2.935  0.9896 -1.4176 -1.3739
14405SOL    HW244072   4.687   2.189   2.876 -0.1783  0.8522  0.9855
14406SOL     OW44073   5.040   5.617   0.373  0.3163  0.0266 -0.1633
14406SOL    HW144074   5.093   5.538   0.359 -0.2334 -0.6277  1.2880
14406SOL    HW244075   5.020   5.648   0.285  1.7264 -0.6433 -0.7541
14407SOL     OW44076   4.595   7.357   2.189  0.1166  0.7155  0.4599
14407SOL    HW144077   4.511   7.383   2.151  0.4043 -0.3453 -1.0083
14407SOL    HW244078   4.646   7.438   2.193 -0.8521  1.3096  1.0618
14408SOL     OW44079   0.031   0.878   1.730 -0.0114  0.2032  0.6528
14408SOL    HW144080  -0.026   0.873   1.807  0.4118  3.3797  1.3033
14408SOL    HW244081   0.091   0.805   1.740 -1.5214 -0.9255  2.0011
14409SOL     OW44082   3.219   5.400   2.582  0.6164  0.3125 -0.4284
14409SOL    HW144083   3.192   5.389   2.491  1.8844 -0.3326 -0.7533
14409SOL    HW244084   3.228   5.494   2.593  0.4142  0.3973 -0.9538
14410SOL     OW44085   0.592   0.941   4.560 -0.1993  0.3639 -0.1644
14410SOL    HW144086   0.590   1.017   4.501  2.0059  0.4273 -0.2302
14410SOL    HW244087   0.622   0.977   4.644 -0.0884 -0.2839  0.0766
14411SOL     OW44088   4.665   1.261   1.317 -0.1579 -0.3805  0.5182
14411SOL    HW144089   4.664   1.320   1.393  0.5252 -0.1027  0.3270
14411SOL    HW244090   4.674   1.320   1.242  1.0567 -0.7471  0.3573
14412SOL     OW44091   7.041   5.316   3.477  0.4396  0.0799  0.2229
14412SOL    HW144092   7.059   5.223   3.468  0.0673  0.1021 -0.8444
14412SOL    HW244093   6.997   5.341   3.396  0.1253  1.0914  0.6782
14413SOL     OW44094   1.155   1.501   1.916  0.3046 -0.2832 -0.3966
14413SOL    HW144095   1.117   1.548   1.842 -0.1182 -0.0326 -0.0222
14413SOL    HW244096   1.239   1.470   1.884  0.8476  1.1990 -0.4839
14414SOL     OW44097   6.293   5.226   5.722  0.2720 -0.1577 -0.5576
14414SOL    HW144098   6.381   5.256   5.697  0.3729 -0.8867 -1.1083
14414SOL    HW244099   6.279   5.147   5.670 -0.0777 -0.9558  0.6947
14415SOL     OW44100   1.307   1.832   5.037 -0.2009 -0.4441 -0.4651
14415SOL    HW144101   1.388   1.781   5.039  0.8506  1.1327 -0.0411
14415SOL    HW244102   1.291   1.848   4.944 -1.1742 -2.4188 -0.6775
14416SOL     OW44103   0.192   2.604   5.635 -0.2610  0.2625 -0.0327
14416SOL    HW144104   0.204   2.697   5.619 -0.0181  0.0332 -1.2826
14416SOL    HW244105   0.098   2.590   5.630 -0.4238  0.6757  1.6052
14417SOL     OW44106   6.438   5.540   5.817 -0.3317 -0.2649  0.3096
14417SOL    HW144107   6.348   5.572   5.825 -0.2906 -0.3420  1.1742
14417SOL    HW244108   6.486   5.613   5.778 -0.7204 -0.1370  0.0645
14418SOL     OW44109   3.327   0.296   5.517 -0.1159  0.3510  0.4933
14418SOL    HW144110   3.297   0.363   5.456  1.5317  0.9826  0.3017
14418SOL    HW244111   3.354   0.346   5.595 -1.0189 -0.3229  1.2527
14419SOL     OW44112   4.661   1.469   1.122 -0.6659  0.8416 -0.3300
14419SOL    HW144113   4.687   1.535   1.187  1.6256 -0.3762  0.0912
14419SOL    HW244114   4.714   1.489   1.045 -0.0601 -0.3691 -0.2509
14420SOL     OW44115   7.448   0.287   7.449 -0.6259  0.2007 -0.0818
14420SOL    HW144116   7.502   0.215   7.483 -2.0523 -0.7674  0.1984
14420SOL    HW244117   7.371   0.288   7.505 -0.8312  1.7024 -0.3506
14421SOL     OW44118   0.885   0.319   7.219  0.2086  0.4202 -0.0218
14421SOL    HW144119   0.811   0.314   7.278  1.0898  2.2491  1.3326
14421SOL    HW244120   0.937   0.240   7.238 -0.2946  0.2175  0.5343
14422SOL     OW44121   3.690   6.908   4.862 -0.3140  0.0799 -0.1640
14422SOL    HW144122   3.782   6.923   4.883 -0.5959  0.2518  0.9994
14422SOL    HW244123   3.673   6.818   4.888 -1.0128  0.7080  1.7545
14423SOL     OW44124   2.352   6.155   6.130  0.5894  0.3244  0.8356
14423SOL    HW144125   2.437   6.113   6.139  1.1245  1.1178 -0.2633
14423SOL    HW244126   2.350   6.186   6.039 -0.3558  1.4063  1.1946
14424SOL     OW44127   2.066   0.453   1.656 -0.0127 -0.5547 -0.3806
14424SOL    HW144128   2.041   0.515   1.725 -1.2010 -0.3724 -0.9619
14424SOL    HW244129   2.151   0.419   1.685 -0.0132  0.2757  0.6620
14425SOL     OW44130   4.698   7.517   0.639 -0.1588  0.0447  0.2418
14425SOL    HW144131   4.790   7.492   0.627 -0.2704 -0.8531  1.0969
14425SOL    HW244132   4.653   7.434   0.654 -0.8260  0.6112  1.5576
14426SOL     OW44133   4.024   0.848   1.359  0.3101 -0.5553  0.5841
14426SOL    HW144134   3.979   0.884   1.435  0.9999  0.1502  0.6672
14426SOL    HW244135   4.069   0.770   1.393 -0.8333 -1.2763  0.4941
14427SOL     OW44136   0.998   7.381   5.237 -0.2497 -0.2478 -0.1147
14427SOL    HW144137   0.960   7.346   5.318  1.9845 -0.9408  0.7082
14427SOL    HW244138   1.087   7.346   5.235  0.2755  1.0445 -2.0804
14428SOL     OW44139   0.763   0.745   7.962  0.2657 -0.6192  0.2258
14428SOL    HW144140   0.793   0.664   8.003  2.3279  0.6153  1.3118
14428SOL    HW244141   0.676   0.759   7.998  0.4368 -1.6430  1.0931
14429SOL     OW44142   6.502   5.821   7.828 -0.6061 -0.2272  0.6631
14429SOL    HW144143   6.456   5.749   7.785  0.6931  0.5507 -2.2850
14429SOL    HW244144   6.457   5.900   7.798  0.2337  0.3480  0.8798
14430SOL     OW44145   0.195   4.017   0.047  0.4122 -0.4967 -0.2118
14430SOL    HW144146   0.270   4.023  -0.013  1.8528 -1.5086  1.4030
14430SOL    HW244147   0.211   3.937   0.098 -0.7126  0.3378  1.5496
14431SOL     OW44148   4.149   2.821   2.588  0.2984  0.6616  0.4697
14431SOL    HW144149   4.222   2.856   2.638  1.9993  0.3197 -1.6481
14431SOL    HW244150   4.135   2.733   2.624  3.4586 -0.7615 -1.4566
14432SOL     OW44151   3.210   5.398   4.293  0.6172  0.2428 -0.2998
14432SOL    HW144152   3.209   5.319   4.240 -0.4284 -0.3348  0.5420
14432SOL    HW244153   3.118   5.427   4.295  0.4173 -0.3791  2.0708
14433SOL     OW44154   6.501   6.989   3.028  0.5377  0.0797  0.1761
14433SOL    HW144155   6.545   7.074   3.033  1.7181 -0.3905 -1.2894
14433SOL    HW244156   6.412   7.009   2.998  1.2925  0.7460 -1.8218
14434SOL     OW44157   5.565   7.928   2.274  0.0405  0.2516 -0.6807
14434SOL    HW144158   5.580   7.976   2.355  0.8553 -1.6123  0.3375
14434SOL    HW244159   5.545   7.839   2.303 -2.1298  0.0832 -2.4492
14435SOL     OW44160   0.296   0.508   6.721 -0.6163 -0.0567  0.3684
14435SOL    HW144161   0.373   0.499   6.776 -0.8364 -0.0581  0.6829
14435SOL    HW244162   0.290   0.426   6.673  0.0684  0.2820 -0.3023
14436SOL     OW44163   3.862   1.774   0.796  0.0081 -0.1880 -0.3695
14436SOL    HW144164   3.845   1.793   0.704  0.7596  0.4994 -0.3813
14436SOL    HW244165   3.938   1.716   0.795 -0.3193 -0.6251 -0.2008
14437SOL     OW44166   2.644   2.256   4.563 -0.2599  0.0724  0.2280
14437SOL    HW144167   2.652   2.347   4.534 -0.2251 -0.0538 -0.1712
14437SOL    HW244168   2.670   2.204   4.486 -0.7900 -0.2802  0.2798
14438SOL     OW44169   7.330   1.476   1.464 -0.1575 -0.4379  0.4627
14438SOL    HW144170   7.316   1.497   1.371 -0.4817 -1.5137  0.2608
14438SOL    HW244171   7.398   1.410   1.464  0.2944  0.0188  1.0455
14439SOL     OW44172   6.530   1.424   1.561  0.1764  0.1443 -0.1694
14439SOL    HW144173   6.435   1.419   1.550  0.2401  1.5557 -1.8662
14439SOL    HW244174   6.565   1.398   1.476  1.2312  1.3232 -0.1177
14440SOL     OW44175   5.603   4.210   3.708 -0.3915 -0.0218 -0.5268
14440SOL    HW144176   5.679   4.253   3.670 -1.2868  1.1007 -1.1153
14440SOL    HW244177   5.528   4.258   3.674 -1.3041  0.5569  2.0236
14441SOL     OW44178   6.025   2.219   5.207  0.3115 -0.0244  0.0994
14441SOL    HW144179   5.963   2.190   5.273 -0.3485 -0.2948 -0.6248
14441SOL    HW244180   6.101   2.249   5.257 -0.7379  1.1604  1.0456
14442SOL     OW44181   6.365   1.290   4.047  0.4003  0.0553  0.4240
14442SOL    HW144182   6.353   1.359   4.112  0.1692  2.2373 -1.7817
14442SOL    HW244183   6.280   1.282   4.004  0.9251 -0.2707 -0.5816
14443SOL     OW44184   4.744   3.970   7.862 -0.4123  0.3257 -0.2192
14443SOL    HW144185   4.691   4.005   7.933 -0.6979  0.0740 -0.3079
14443SOL    HW244186   4.824   3.938   7.905 -0.9685 -0.6391  0.1063
14444SOL     OW44187   7.479   4.431   3.519  0.2354  0.1719 -0.3119
14444SOL    HW144188   7.395   4.386   3.515  0.0767  0.5328 -2.9560
14444SOL    HW244189   7.539   4.367   3.556 -1.2997  0.1991  2.4927
14445SOL     OW44190   2.073   2.214   1.482  0.0723  0.0543  0.0558
14445SOL    HW144191   2.108   2.132   1.517  3.4212  1.0337 -0.6304
14445SOL    HW244192   2.029   2.255   1.556  1.8090 -0.6035  1.5230
14446SOL     OW44193   7.279   4.578   4.166  0.1027 -0.1176 -0.0071
14446SOL    HW144194   7.321   4.534   4.091 -0.1364  1.8458 -1.3678
14446SOL    HW244195   7.252   4.663   4.132  3.0071  2.3601  3.1390
14447SOL     OW44196   3.048   1.856   3.501  0.0507  0.0748  0.0872
14447SOL    HW144197   3.056   1.788   3.568  1.5414 -0.4012 -0.5280
14447SOL    HW244198   3.016   1.809   3.424  1.3931 -0.0182 -0.4336
14448SOL     OW44199   5.181   1.724   0.621  0.2508  0.3862  0.0916
14448SOL    HW144200   5.107   1.664   0.631 -1.1277  1.6142 -1.8237
14448SOL    HW244201   5.217   1.703   0.535 -1.3031  3.2106 -1.4054
14449SOL     OW44202   3.547   5.182   4.335 -0.3864 -0.7588 -0.0697
14449SOL    HW144203   3.636   5.180   4.299 -0.6906 -1.3910 -0.8134
14449SOL    HW244204   3.490   5.182   4.258 -1.0430 -1.0080  0.4100
14450SOL     OW44205   6.333   2.688   0.377 -0.0757 -0.2663 -0.7160
14450SOL    HW144206   6.314   2.658   0.466  0.4198  0.7817 -0.2424
14450SOL    HW244207   6.411   2.638   0.352  0.6446  0.4721 -0.0007
14451SOL     OW44208   0.314   0.168   5.410 -0.0009 -0.2883 -1.0186
14451SOL    HW144209   0.405   0.184   5.437 -0.4452  0.3511  0.2163
14451SOL    HW244210   0.292   0.243   5.355  0.5168 -0.9497 -2.1502
14452SOL     OW44211   0.921   5.708   5.449 -0.7986 -0.7097 -1.0106
14452SOL    HW144212   0.854   5.653   5.491 -0.6565 -0.3734 -0.3377
14452SOL    HW244213   0.969   5.647   5.392 -0.4816 -1.3382 -0.0905
14453SOL     OW44214   0.784   4.329   4.157 -0.2388 -0.2687 -0.4403
14453SOL    HW144215   0.796   4.420   4.128 -1.1816 -0.2321 -0.7542
14453SOL    HW244216   0.758   4.282   4.078  0.9635 -0.9740 -0.4261
14454SOL     OW44217   4.201   1.249   1.561 -0.0043  0.6045  0.1057
14454SOL    HW144218   4.178   1.193   1.488 -0.3891 -2.5602  2.4601
14454SOL    HW244219   4.118   1.279   1.597 -0.1143 -1.5275  1.8111
14455SOL     OW44220   2.214   5.552   6.886  0.0096 -0.4468  0.3116
14455SOL    HW144221   2.208   5.570   6.792 -0.8533 -1.4067  0.1683
14455SOL    HW244222   2.155   5.616   6.926 -0.3673 -0.6637  0.1089
14456SOL     OW44223   2.217   4.688   1.341 -0.3807 -0.2588  0.0574
14456SOL    HW144224   2.263   4.611   1.376 -0.5840 -0.6572 -0.5422
14456SOL    HW244225   2.271   4.717   1.268  0.0087  0.5368  0.6474
14457SOL     OW44226   4.401   6.195   4.556  0.0455  0.4406 -0.8725
14457SOL    HW144227   4.433   6.114   4.594 -1.3767 -0.1318 -0.8295
14457SOL    HW244228   4.479   6.239   4.523  1.2271  0.4428  1.6862
14458SOL     OW44229   0.586   4.906   2.770 -0.2721  0.2787 -0.0627
14458SOL    HW144230   0.670   4.905   2.816 -0.5456 -0.1578  0.4365
14458SOL    HW244231   0.535   4.837   2.812 -1.7581  2.0857  1.2784
14459SOL     OW44232   1.095   7.260   7.938 -0.4766  0.1304  0.2316
14459SOL    HW144233   1.061   7.349   7.930  0.2575  0.4636  0.6819
14459SOL    HW244234   1.119   7.252   8.030 -0.3486 -0.4640  0.1499
14460SOL     OW44235   7.758   5.991   3.913 -0.2932 -0.6365  0.0643
14460SOL    HW144236   7.722   5.999   3.825  2.1072 -1.0974 -1.0298
14460SOL    HW244237   7.689   5.945   3.963 -1.6671 -0.4158 -1.5391
14461SOL     OW44238   0.055   4.499   7.228 -0.3199 -0.0101  0.4168
14461SOL    HW144239   0.135   4.447   7.231  1.8057  2.9466 -0.9807
14461SOL    HW244240   0.043   4.519   7.136 -0.3395  2.8910  0.9669
14462SOL     OW44241   0.412   5.856   6.301  0.0841  0.1133  0.1483
14462SOL    HW144242   0.397   5.918   6.229  0.9645  2.1781  1.6439
14462SOL    HW244243   0.335   5.864   6.356 -0.1572 -0.7499 -0.0548
14463SOL     OW44244   6.888   2.727   0.108 -0.5393 -0.7221  0.3929
14463SOL    HW144245   6.971   2.690   0.078 -0.5092 -0.0204 -0.4096
14463SOL    HW244246   6.890   2.714   0.203  0.6230 -0.4671  0.4274
14464SOL     OW44247   3.328   2.063   7.482 -0.0770  0.3209 -0.4650
14464SOL    HW144248   3.263   2.134   7.475  0.0238  0.2940 -1.9534
14464SOL    HW244249   3.413   2.108   7.479 -0.0150  0.1673 -1.0773
14465SOL     OW44250   3.302   0.989   7.945  0.3031 -0.4918  0.5621
14465SOL    HW144251   3.381   1.040   7.927  2.0726 -2.9212  0.8726
14465SOL    HW244252   3.263   1.030   8.022  0.5957  1.4144 -0.2583
14466SOL     OW44253   6.861   6.186   2.641  0.6338 -0.2250  0.0113
14466SOL    HW144254   6.776   6.199   2.600  0.5548  2.4806  0.8622
14466SOL    HW244255   6.845   6.123   2.712 -0.4564 -0.4076 -0.3856
14467SOL     OW44256   6.791   5.933   0.821 -0.8617  0.4952 -0.3870
14467SOL    HW144257   6.786   5.989   0.743  1.5360 -0.5549 -1.3889
14467SOL    HW244258   6.699   5.922   0.848 -1.6595  2.0728 -2.1571
14468SOL     OW44259   0.109   3.185   2.978  0.1564  0.2822  0.0383
14468SOL    HW144260   0.169   3.155   2.910  0.1194  0.7265 -0.1915
14468SOL    HW244261   0.144   3.269   3.006 -0.7791  0.9383 -0.6631
14469SOL     OW44262   6.000   7.039   6.032 -0.2083  0.4867 -0.2894
14469SOL    HW144263   5.919   7.008   6.073  1.0724 -1.3986  0.9452
14469SOL    HW244264   6.024   7.117   6.083  0.4600 -0.8435  1.5109
14470SOL     OW44265   4.323   3.210   4.511  0.1657  0.0275 -0.8693
14470SOL    HW144266   4.406   3.246   4.480  0.8211 -1.7101 -1.2808
14470SOL    HW244267   4.345   3.164   4.592 -0.8096  1.2609  0.1313
14471SOL     OW44268   6.572   6.969   1.650 -0.1392  0.2874 -0.1767
14471SOL    HW144269   6.581   6.944   1.558  1.4796  1.8806 -0.5251
14471SOL    HW244270   6.489   7.016   1.654 -0.8051 -0.8347 -0.5468
14472SOL     OW44271   1.444   3.315   3.851  0.4927  0.1642  0.0966
14472SOL    HW144272   1.370   3.294   3.909 -1.3425  1.5497 -1.5909
14472SOL    HW244273   1.482   3.394   3.889 -0.8207  1.1783 -0.5806
14473SOL     OW44274   6.267   4.085   3.812 -0.5088  0.4377  0.2690
14473SOL    HW144275   6.250   4.178   3.794 -1.9213 -0.0627 -1.1753
14473SOL    HW244276   6.240   4.073   3.903 -0.6746  1.3630  0.3515
14474SOL     OW44277   6.243   0.752   2.519  0.1244  0.1889  0.6296
14474SOL    HW144278   6.277   0.664   2.536 -0.0075 -0.0350 -0.2070
14474SOL    HW244279   6.273   0.772   2.430 -2.6596 -0.4086 -0.5537
14475SOL     OW44280   2.660   4.744   1.055 -0.1211 -0.7594  0.1596
14475SOL    HW144281   2.691   4.830   1.026 -0.8353 -0.4933  0.1724
14475SOL    HW244282   2.740   4.692   1.067  0.3840  0.2193  1.1775
14476SOL     OW44283   2.197   2.714   2.365 -0.0362  0.1684 -0.0465
14476SOL    HW144284   2.259   2.771   2.411  0.4531  2.3661 -3.1610
14476SOL    HW244285   2.242   2.630   2.360  1.2122  0.7557  0.6941
14477SOL     OW44286   2.461   4.076   1.542 -0.5137  0.0193  0.5170
14477SOL    HW144287   2.496   4.147   1.596 -0.9506  1.1105 -0.5904
14477SOL    HW244288   2.366   4.085   1.550 -0.5982  0.5310 -0.8193
14478SOL     OW44289   3.683   0.760   3.166  0.1721 -0.2233 -0.7705
14478SOL    HW144290   3.702   0.737   3.076  0.2180  0.7473 -1.0246
14478SOL    HW244291   3.764   0.797   3.200  0.0848 -0.3555 -0.4061
14479SOL     OW44292   1.702   0.222   3.744  0.1909 -0.7422 -0.5609
14479SOL    HW144293   1.740   0.212   3.657  0.0190 -1.2385 -0.5814
14479SOL    HW244294   1.611   0.192   3.735 -0.3525  0.8224 -0.6101
14480SOL     OW44295   6.127   6.881   4.062  0.1959 -0.8754  0.7456
14480SOL    HW144296   6.096   6.819   4.128 -1.2521 -0.5535  0.3913
14480SOL    HW244297   6.079   6.858   3.983 -0.7830  1.0067  0.7331
14481SOL     OW44298   5.592   4.634   0.947  0.1195 -0.2516  0.7300
14481SOL    HW144299   5.510   4.621   0.995 -0.7149 -2.0958 -1.0743
14481SOL    HW244300   5.584   4.722   0.910 -1.4796 -0.7125 -0.1207
14482SOL     OW44301   7.594   2.293   3.007 -0.8155  0.5931  0.0071
14482SOL    HW144302   7.628   2.342   3.082  0.0068  0.9849 -0.6054
14482SOL    HW244303   7.586   2.358   2.937 -2.6444  0.4660  0.0425
14483SOL     OW44304   5.069   2.200   4.785  0.2259 -0.2084  0.3115
14483SOL    HW144305   5.111   2.123   4.822  1.8554 -1.1199 -3.0659
14483SOL    HW244306   4.976   2.178   4.782  0.4963 -1.4706  0.6470
14484SOL     OW44307   5.776   6.030   7.998  0.1922  0.1101  0.1866
14484SOL    HW144308   5.688   6.064   7.984  0.5077  0.4984 -0.9740
14484SOL    HW244309   5.778   5.948   7.949 -0.3916 -1.4032  2.5275
14485SOL     OW44310   2.058   5.635   3.089 -0.4498 -0.5647 -0.2066
14485SOL    HW144311   1.997   5.692   3.136 -2.3195 -2.5038 -0.1538
14485SOL    HW244312   2.085   5.687   3.012 -1.1741  0.7946  0.4235
14486SOL     OW44313   2.668   7.348   6.030  0.1110  0.1054 -0.3383
14486SOL    HW144314   2.602   7.403   5.989  0.8319  0.7126 -0.6988
14486SOL    HW244315   2.732   7.409   6.066 -1.0440 -0.3048  2.8018
14487SOL     OW44316   5.792   6.770   4.963 -0.2968 -0.4974  0.2967
14487SOL    HW144317   5.879   6.799   4.936 -1.0220  2.4554  0.7854
14487SOL    HW244318   5.743   6.764   4.881 -0.0945 -0.4283  0.1688
14488SOL     OW44319   7.992   3.265   0.444 -0.1822  0.0232 -0.5815
14488SOL    HW144320   8.072   3.315   0.461 -0.0473  0.1954 -1.6361
14488SOL    HW244321   7.958   3.243   0.531  2.3485 -2.2347 -0.0080
14489SOL     OW44322   3.450   2.408   4.351  0.0427 -0.2732  0.1153
14489SOL    HW144323   3.365   2.425   4.392 -0.5681 -0.0607 -1.2140
14489SOL    HW244324   3.457   2.472   4.281  0.9173 -0.8728 -0.3664
14490SOL     OW44325   3.508   7.350   5.850  0.0232 -0.2897 -0.1606
14490SOL    HW144326   3.593   7.388   5.872 -0.1027 -0.9858  1.6609
14490SOL    HW244327   3.529   7.259   5.826  0.0341  0.1766 -2.1101
14491SOL     OW44328   7.561   7.943   2.756 -0.6633  0.3540  0.1008
14491SOL    HW144329   7.619   7.875   2.722 -1.0681  0.3005 -0.4955
14491SOL    HW244330   7.524   7.907   2.836  1.6403  1.1371  1.6240
14492SOL     OW44331   2.623   6.847   2.025  0.3766  0.1026  0.7658
14492SOL    HW144332   2.533   6.852   1.993  1.4227  0.2066 -2.6214
14492SOL    HW244333   2.653   6.938   2.026  1.1378 -0.0861 -0.7148
14493SOL     OW44334   1.113   3.218   0.505 -0.4750 -0.1440 -0.3152
14493SOL    HW144335   1.149   3.142   0.460 -0.4793  0.7181 -1.8504
14493SOL    HW244336   1.022   3.195   0.522 -1.1852  0.3620 -2.9698
14494SOL     OW44337   7.617   4.877   0.960 -0.4213  0.1509 -0.3236
14494SOL    HW144338   7.672   4.924   0.897 -0.9778  1.2679  0.0021
14494SOL    HW244339   7.562   4.820   0.906 -1.8151  2.0414 -0.9923
14495SOL     OW44340   5.033   4.334   4.559  0.0030 -0.2181  0.0772
14495SOL    HW144341   5.033   4.266   4.491 -1.3397  0.1475 -0.3309
14495SOL    HW244342   5.017   4.415   4.511 -1.9023 -0.0566  0.8643
14496SOL     OW44343   0.769   5.477   5.435 -0.4305 -0.2273 -0.4128
14496SOL    HW144344   0.680   5.510   5.438 -0.6968 -0.8850 -0.8755
14496SOL    HW244345   0.770   5.416   5.362  0.2732 -0.5997 -0.1056
14497SOL     OW44346   7.128   2.608   0.096  0.0539  0.3891 -0.1770
14497SOL    HW144347   7.160   2.618   0.006  1.7739  0.2632  0.3841
14497SOL    HW244348   7.142   2.515   0.115  1.0786  0.7008  0.6891
14498SOL     OW44349   6.530   1.659   6.731  0.0351  0.3300  0.4130
14498SOL    HW144350   6.510   1.567   6.715 -2.2005  0.8637 -0.2227
14498SOL    HW244351   6.616   1.672   6.691 -0.6007 -0.9815 -1.5488
14499SOL     OW44352   1.419   5.957   5.833  0.9114  0.5011 -0.3039
14499SOL    HW144353   1.361   6.002   5.772 -0.2927 -0.7743 -0.1321
14499SOL    HW244354   1.433   5.870   5.794  1.2711  0.1700  0.5364
14500SOL     OW44355   5.726   7.943   3.960  0.3304  0.0356  0.1973
14500SOL    HW144356   5.728   7.927   3.866 -0.3025 -1.7711  0.4372
14500SOL    HW244357   5.647   7.995   3.974  1.1301  1.4536 -0.3850
14501SOL     OW44358   6.412   0.964   6.967 -0.0612 -0.2506  0.0022
14501SOL    HW144359   6.414   0.989   7.059 -0.3293 -1.1710  0.2693
14501SOL    HW244360   6.362   0.882   6.965  2.7001 -2.0800 -0.4969
14502SOL     OW44361   6.450   3.034   5.987 -0.0329 -0.5502 -0.9096
14502SOL    HW144362   6.476   3.089   6.061  0.0540 -1.0944 -0.5367
14502SOL    HW244363   6.355   3.047   5.980  0.1986  0.9473 -1.8795
14503SOL     OW44364   6.404   1.417   5.302 -0.0662 -0.2375 -0.2412
14503SOL    HW144365   6.376   1.345   5.246  1.6867  0.2331 -1.8151
14503SOL    HW244366   6.432   1.485   5.242  1.3058  0.5440  1.2006
14504SOL     OW44367   1.959   5.636   5.071 -0.1635 -0.3209  0.0072
14504SOL    HW144368   2.004   5.710   5.029 -0.9745  0.3268  0.2392
14504SOL    HW244369   1.894   5.608   5.006  1.4545 -2.1695 -0.9060
14505SOL     OW44370   7.129   6.390   7.800 -0.4181  0.0973 -0.3446
14505SOL    HW144371   7.155   6.373   7.710  0.0511 -1.7694  0.0937
14505SOL    HW244372   7.131   6.485   7.808 -0.6161  0.3080 -2.3297
14506SOL     OW44373   1.932   2.473   6.640 -0.0940  0.5286 -0.2338
14506SOL    HW144374   1.843   2.486   6.673  0.3011 -1.2703  1.7961
14506SOL    HW244375   1.965   2.562   6.625 -1.7253  1.2898  0.4404
14507SOL     OW44376   5.384   7.516   0.335 -0.0079  0.6947  0.1237
14507SOL    HW144377   5.367   7.609   0.347 -0.6155  0.8775 -1.7745
14507SOL    HW244378   5.327   7.472   0.398  0.3671  1.5942  1.1078
14508SOL     OW44379   7.220   6.745   2.560 -0.1222  0.2956 -0.0166
14508SOL    HW144380   7.128   6.771   2.561 -0.5214 -1.0526 -0.8918
14508SOL    HW244381   7.237   6.714   2.649 -1.3239 -2.0915 -0.5425
14509SOL     OW44382   2.879   4.428   2.870  0.0670 -0.0824  0.0563
14509SOL    HW144383   2.807   4.443   2.932  0.7522  0.0655  0.8257
14509SOL    HW244384   2.909   4.515   2.847 -0.4861 -0.1215 -0.8593
14510SOL     OW44385   6.372   2.312   0.274  0.3493  0.0302  0.0888
14510SOL    HW144386   6.284   2.287   0.302  0.4505 -1.4265 -0.7966
14510SOL    HW244387   6.367   2.318   0.179  1.4883 -1.4051 -0.0993
14511SOL     OW44388   0.104   4.580   1.878 -0.4461  0.1627 -0.0394
14511SOL    HW144389   0.197   4.600   1.866 -0.5045  0.0230 -0.7946
14511SOL    HW244390   0.101   4.521   1.953  0.3877 -2.0698 -1.6572
14512SOL     OW44391   2.785   4.223   3.229 -0.2674  0.2897 -0.1944
14512SOL    HW144392   2.825   4.137   3.216  0.2786  0.5502 -0.2615
14512SOL    HW244393   2.695   4.204   3.256 -0.6053 -0.2998 -1.6405
14513SOL     OW44394   7.693   5.034   4.272  0.5634  0.1271 -0.4585
14513SOL    HW144395   7.763   5.054   4.334  0.5267 -0.1102 -0.3422
14513SOL    HW244396   7.675   5.118   4.228  0.4560  0.3388 -0.0125
14514SOL     OW44397   1.647   0.167   2.761 -0.3323 -0.3076 -0.3751
14514SOL    HW144398   1.655   0.255   2.797 -1.7132  0.8041 -2.5876
14514SOL    HW244399   1.732   0.126   2.778  1.2695  2.3250 -1.5112
14515SOL     OW44400   5.451   1.507   6.726  0.4895 -0.1033 -0.1946
14515SOL    HW144401   5.385   1.553   6.778 -0.6444 -0.4260 -1.3250
14515SOL    HW244402   5.474   1.431   6.780  1.0588  0.7796  0.8653
14516SOL     OW44403   1.403   2.911   3.401 -0.0790 -0.4877  0.3681
14516SOL    HW144404   1.381   2.982   3.340  0.0797  0.4836  1.4239
14516SOL    HW244405   1.366   2.833   3.360 -0.6836  0.2701 -0.5805
14517SOL     OW44406   7.338   6.295   0.912 -0.1646  0.5639  0.2849
14517SOL    HW144407   7.283   6.220   0.935  0.1983 -0.2826 -1.3855
14517SOL    HW244408   7.354   6.284   0.818  1.2385  1.8650  0.3387
14518SOL     OW44409   2.561   3.419   6.292 -0.3774 -0.3921  0.2685
14518SOL    HW144410   2.601   3.361   6.357 -0.7300 -1.0330 -0.0714
14518SOL    HW244411   2.467   3.407   6.303 -0.5285  1.3497  1.2791
14519SOL     OW44412   0.863   3.567   6.078  0.1564  0.6385 -0.3271
14519SOL    HW144413   0.954   3.594   6.093  0.2717  0.7902 -1.1949
14519SOL    HW244414   0.868   3.472   6.068  0.0622  0.5242  0.6280
14520SOL     OW44415   0.197   7.849   7.189 -0.4146 -0.5231  0.3537
14520SOL    HW144416   0.286   7.862   7.222 -0.5072  0.2311  0.3183
14520SOL    HW244417   0.203   7.868   7.096 -0.6865 -0.1360  0.4164
14521SOL     OW44418   1.232   1.658   3.392 -0.1219  0.2734 -0.3127
14521SOL    HW144419   1.203   1.749   3.386 -0.0958  0.3629  0.7433
14521SOL    HW244420   1.159   1.611   3.431 -0.0943 -0.1545 -0.7516
14522SOL     OW44421   5.108   5.475   1.696  0.0870  0.3955 -1.0113
14522SOL    HW144422   5.194   5.468   1.654  0.0546  0.9910 -1.1927
14522SOL    HW244423   5.068   5.552   1.655  0.4979  1.6809  0.8796
14523SOL     OW44424   3.437   5.753   6.427  0.4620  0.6199  0.5084
14523SOL    HW144425   3.468   5.831   6.382 -2.4851  0.8775 -1.3302
14523SOL    HW244426   3.485   5.681   6.386  1.8078  1.2707  0.8860
14524SOL     OW44427   6.062   1.898   3.401  0.1893  0.3784 -0.4455
14524SOL    HW144428   6.127   1.930   3.464 -0.5905  0.4925  0.3329
14524SOL    HW244429   5.981   1.942   3.427 -0.4477 -0.6251 -0.6668
14525SOL     OW44430   1.770   4.218   6.924 -0.0102  0.5426  0.0254
14525SOL    HW144431   1.714   4.141   6.937 -0.7373  1.1580  0.6105
14525SOL    HW244432   1.821   4.224   7.005  1.7656 -0.6603 -0.9191
14526SOL     OW44433   1.040   6.866   3.334 -0.2137 -0.2644  0.0742
14526SOL    HW144434   0.983   6.936   3.301  0.3796 -0.1548 -0.7565
14526SOL    HW244435   1.017   6.858   3.427 -1.0418  0.2939 -0.0699
14527SOL     OW44436   0.046   2.667   2.310 -0.1812  0.3753 -0.2202
14527SOL    HW144437   0.016   2.626   2.392 -0.3068 -0.9761 -0.9138
14527SOL    HW244438   0.000   2.752   2.308 -0.0886  0.4863  1.1515
14528SOL     OW44439   7.836   5.147   6.662  0.0806 -0.0376  0.5102
14528SOL    HW144440   7.807   5.057   6.673  0.1796  0.0118  1.3005
14528SOL    HW244441   7.931   5.141   6.652  0.0574 -0.0418  0.3006
14529SOL     OW44442   2.133   3.606   0.396 -0.6142  0.1529  0.6493
14529SOL    HW144443   2.112   3.538   0.331  1.4621 -0.1410  0.2350
14529SOL    HW244444   2.091   3.685   0.362 -1.0749 -0.3939 -0.1014
14530SOL     OW44445   5.668   0.309   1.243  0.7162  0.0341  0.0208
14530SOL    HW144446   5.741   0.252   1.220  1.5665  1.2602 -0.4528
14530SOL    HW244447   5.594   0.250   1.256  1.0611 -1.0516 -2.4057
14531SOL     OW44448   2.231   0.335   0.959 -0.0540  0.3401 -0.1514
14531SOL    HW144449   2.240   0.348   1.054  4.0155  1.2922 -0.4871
14531SOL    HW244450   2.202   0.419   0.926 -1.0998  0.1231  0.1855
14532SOL     OW44451   3.341   4.616   3.942 -0.1684  0.3481 -0.6464
14532SOL    HW144452   3.250   4.589   3.932 -0.0018  0.2755 -2.2673
14532SOL    HW244453   3.342   4.707   3.912  0.1378  0.6347  0.2137
14533SOL     OW44454   7.137   5.120   6.123 -0.3509 -0.0350  0.0281
14533SOL    HW144455   7.178   5.122   6.209 -0.3402 -2.1168  0.1247
14533SOL    HW244456   7.063   5.180   6.130 -1.6558 -1.7453  2.2427
14534SOL     OW44457   0.527   7.592   4.843  0.3945  0.8503  0.1694
14534SOL    HW144458   0.474   7.547   4.777 -1.3381  1.4269  1.0815
14534SOL    HW244459   0.602   7.535   4.857 -0.0777 -0.1127 -1.0619
14535SOL     OW44460   3.707   7.432   3.486 -0.1480 -0.0346  0.0476
14535SOL    HW144461   3.760   7.365   3.528 -2.5863 -0.8527  2.1066
14535SOL    HW244462   3.702   7.406   3.394 -1.2656 -2.9592  0.8318
14536SOL     OW44463   4.247   0.636   2.338  0.4358  0.6885 -0.4688
14536SOL    HW144464   4.300   0.567   2.379 -0.5508  0.1367 -0.0820
14536SOL    HW244465   4.181   0.588   2.288 -0.7160  1.3327  0.3990
14537SOL     OW44466   1.821   7.928   4.232 -0.2830 -0.3791 -0.0281
14537SOL    HW144467   1.758   7.981   4.184 -0.4346 -1.5232 -1.1247
14537SOL    HW244468   1.894   7.914   4.171  1.8382  2.1426  1.6612
14538SOL     OW44469   0.707   0.886   7.169  0.3830 -0.4385 -0.8046
14538SOL    HW144470   0.688   0.971   7.129 -2.8159 -0.6159  0.0186
14538SOL    HW244471   0.668   0.891   7.256 -0.0637 -2.7883 -0.7914
14539SOL     OW44472   3.548   0.912   1.727 -0.3574 -0.2644 -1.0969
14539SOL    HW144473   3.539   0.857   1.804 -3.7282  1.0315 -0.3715
14539SOL    HW244474   3.617   0.975   1.749 -1.2384  0.0647  0.9131
14540SOL     OW44475   5.031   6.400   4.070  0.1522 -0.6955  0.3177
14540SOL    HW144476   5.004   6.481   4.025 -0.9610 -0.8147  0.7501
14540SOL    HW244477   5.054   6.428   4.158 -0.0150 -0.8191  0.4008
14541SOL     OW44478   3.204   6.502   6.286 -0.1762  0.4203 -0.3709
14541SOL    HW144479   3.221   6.557   6.362  0.1051  0.1689 -0.2491
14541SOL    HW244480   3.196   6.563   6.213  0.3757  0.6042 -0.2802
14542SOL     OW44481   6.477   0.366   3.139 -0.3015 -0.2216  0.3633
14542SOL    HW144482   6.531   0.423   3.195  0.7537 -0.1281 -0.7172
14542SOL    HW244483   6.476   0.410   3.054  1.2967 -2.2310 -0.7781
14543SOL     OW44484   7.639   2.561   4.530  0.0588 -0.1647  0.7079
14543SOL    HW144485   7.684   2.645   4.523 -0.1740 -0.1329 -0.8985
14543SOL    HW244486   7.546   2.583   4.520  0.0688 -0.6721 -0.9029
14544SOL     OW44487   1.589   1.629   6.409  0.1682 -0.1495 -0.1110
14544SOL    HW144488   1.597   1.674   6.325  0.1102 -0.2843 -0.1883
14544SOL    HW244489   1.514   1.670   6.452 -0.4025 -0.7342 -0.5309
14545SOL     OW44490   1.144   2.070   6.072 -0.0880 -0.0475  0.3986
14545SOL    HW144491   1.194   2.090   5.993 -0.6995 -2.1389 -0.5932
14545SOL    HW244492   1.139   2.154   6.119 -0.8787  1.6507 -2.4437
14546SOL     OW44493   5.938   3.516   2.780  0.2253  0.1602  0.2089
14546SOL    HW144494   5.974   3.589   2.831 -2.2168  1.5163  0.1338
14546SOL    HW244495   5.945   3.545   2.689 -0.7674  0.3164  0.1792
14547SOL     OW44496   1.363   6.724   6.236 -0.2591 -0.0413 -0.0448
14547SOL    HW144497   1.368   6.704   6.143 -0.2143  1.3285 -0.3678
14547SOL    HW244498   1.269   6.723   6.256 -0.3688  0.9328 -0.4348
14548SOL     OW44499   6.335   0.143   0.991 -0.0924  0.0028  0.1426
14548SOL    HW144500   6.385   0.092   1.055 -0.1424 -0.2491 -0.0180
14548SOL    HW244501   6.284   0.077   0.943  0.0185  0.1822 -0.2223
14549SOL     OW44502   2.702   7.092   1.351 -0.1114  0.4854 -0.3551
14549SOL    HW144503   2.641   7.130   1.414  1.2786  1.1969  0.5954
14549SOL    HW244504   2.731   7.010   1.391  0.7463  0.9195 -0.0813
14550SOL     OW44505   5.021   7.312   3.923 -0.0701 -0.2320  0.4099
14550SOL    HW144506   5.048   7.356   3.842 -1.1090 -1.1352 -0.4636
14550SOL    HW244507   4.926   7.319   3.923 -0.3880 -3.3209 -0.3068
14551SOL     OW44508   6.493   1.387   5.687  0.2457 -0.1868  0.0538
14551SOL    HW144509   6.410   1.351   5.656 -0.5119  0.8204  0.8201
14551SOL    HW244510   6.539   1.313   5.725 -2.1228 -0.1240  3.4494
14552SOL     OW44511   5.328   4.139   4.278 -0.3797 -0.3193  0.3840
14552SOL    HW144512   5.396   4.205   4.291 -0.5622  0.1666 -0.9751
14552SOL    HW244513   5.246   4.189   4.278 -0.6083 -0.6949  0.4940
14553SOL     OW44514   1.534   1.526   2.686 -0.3203 -0.1362 -0.4170
14553SOL    HW144515   1.590   1.515   2.609  1.0635  0.3034  0.4941
14553SOL    HW244516   1.544   1.618   2.711  0.0343 -0.4975  0.8515
14554SOL     OW44517   0.846   1.365   3.051  0.2005 -0.0460  0.5852
14554SOL    HW144518   0.847   1.450   3.095  1.9060  1.2965 -1.8250
14554SOL    HW244519   0.794   1.309   3.109  2.1027  1.5562  4.1531
14555SOL     OW44520   4.348   6.508   4.244 -0.4881 -0.6527 -0.4105
14555SOL    HW144521   4.401   6.489   4.167 -1.7108 -0.9854 -1.1861
14555SOL    HW244522   4.273   6.450   4.237 -0.4669 -0.9342  1.2167
14556SOL     OW44523   3.853   5.525   2.713  0.2036 -0.2867 -0.2985
14556SOL    HW144524   3.931   5.511   2.767  0.7517  0.1577 -0.9539
14556SOL    HW244525   3.887   5.558   2.630 -0.7389  0.6952 -0.3237
14557SOL     OW44526   1.168   4.496   1.024  0.3132 -0.1523 -0.5533
14557SOL    HW144527   1.111   4.563   1.060  0.8405 -0.9889  2.0027
14557SOL    HW244528   1.134   4.481   0.935 -3.1946 -0.3620  0.6874
14558SOL     OW44529   3.935   0.559   1.255 -0.1909 -0.0346 -0.0056
14558SOL    HW144530   3.904   0.646   1.226  1.3343  0.4295 -0.2999
14558SOL    HW244531   3.970   0.519   1.176  1.2439  0.0311  0.5736
14559SOL     OW44532   7.898   1.881   7.903 -0.0567  0.0914 -0.3133
14559SOL    HW144533   7.806   1.889   7.880 -0.3857 -0.4528  0.7350
14559SOL    HW244534   7.924   1.795   7.869 -0.9977 -1.4785  2.6378
14560SOL     OW44535   3.178   1.931   3.997  0.3177 -0.3836  0.0892
14560SOL    HW144536   3.111   1.863   4.004  1.9603 -2.1428 -0.5403
14560SOL    HW244537   3.205   1.947   4.088 -0.7647  0.1980  0.3297
14561SOL     OW44538   0.966   1.392   3.485 -0.4656 -0.3346 -0.1125
14561SOL    HW144539   0.967   1.433   3.398 -0.7932 -2.3963 -1.1472
14561SOL    HW244540   0.875   1.365   3.497 -0.3144 -0.5134  0.6751
14562SOL     OW44541   2.158   5.392   1.181  0.4748 -0.2128  0.4476
14562SOL    HW144542   2.121   5.428   1.100 -0.5611 -0.5720  0.7351
14562SOL    HW244543   2.210   5.318   1.152 -1.9480 -1.9671  0.2199
14563SOL     OW44544   3.435   5.627   7.598  0.3767 -0.2330  0.2755
14563SOL    HW144545   3.512   5.609   7.652 -0.3840  0.6530  1.7560
14563SOL    HW244546   3.415   5.719   7.616 -0.4418 -0.1700 -0.8600
14564SOL     OW44547   2.172   6.985   4.578  0.7009  0.0039 -0.3095
14564SOL    HW144548   2.263   7.000   4.553  0.3783  4.3536  0.3142
14564SOL    HW244549   2.176   6.964   4.672  1.0860 -0.2649 -0.3859
14565SOL     OW44550   2.139   6.343   2.092  0.4034 -0.7806  0.3428
14565SOL    HW144551   2.185   6.369   2.172 -1.1177 -1.1685  1.3789
14565SOL    HW244552   2.085   6.269   2.118 -2.1756  0.7244 -0.3319
14566SOL     OW44553   5.165   4.035   6.753 -0.3550 -0.3792  0.0059
14566SOL    HW144554   5.171   3.973   6.826  0.8128 -0.5431 -0.2106
14566SOL    HW244555   5.104   4.102   6.784 -1.9725 -1.8281  0.0850
14567SOL     OW44556   2.773   1.879   3.620  0.3982  0.7579  0.1854
14567SOL    HW144557   2.853   1.900   3.668 -0.2977  2.3699  0.7022
14567SOL    HW244558   2.757   1.955   3.565 -0.8398  0.5058  0.1623
14568SOL     OW44559   5.479   7.685   3.986  0.3152 -0.4170  0.0155
14568SOL    HW144560   5.394   7.658   3.950 -0.5300  1.8456  0.2157
14568SOL    HW244561   5.519   7.737   3.917  2.4158 -2.8516 -0.7891
14569SOL     OW44562   5.394   6.183   4.103 -0.8194 -0.1255  0.0828
14569SOL    HW144563   5.388   6.259   4.161  0.2089  0.8702 -1.0408
14569SOL    HW244564   5.340   6.206   4.028 -1.3969 -1.0031  0.2207
14570SOL     OW44565   4.781   7.643   2.777  0.5544 -0.6621 -0.6461
14570SOL    HW144566   4.809   7.712   2.838 -0.5540 -0.5043 -0.2944
14570SOL    HW244567   4.767   7.688   2.694  0.3822 -0.5623 -0.5638
14571SOL     OW44568   6.770   5.655   7.671 -0.1178 -0.4783  0.5691
14571SOL    HW144569   6.718   5.593   7.722 -0.7895  0.1897  0.7141
14571SOL    HW244570   6.860   5.639   7.699 -0.2035 -1.7391  0.2250
14572SOL     OW44571   4.832   6.715   4.251  0.5430  0.7530 -0.2617
14572SOL    HW144572   4.853   6.757   4.167 -0.1502 -0.1320 -0.9083
14572SOL    HW244573   4.872   6.771   4.317  1.1263  1.4621 -1.1885
14573SOL     OW44574   1.494   3.317   2.540 -0.5754 -0.0974  0.3057
14573SOL    HW144575   1.535   3.365   2.612 -0.6293 -1.0175  0.9602
14573SOL    HW244576   1.530   3.229   2.546 -1.0636 -0.3520 -0.4059
14574SOL     OW44577   6.996   7.546   6.787 -0.0705  0.0192 -0.0204
14574SOL    HW144578   7.058   7.490   6.832  0.1418 -0.2588 -0.6401
14574SOL    HW244579   6.985   7.622   6.845  1.3151  0.3645 -0.1661
14575SOL     OW44580   0.595   6.302   7.728 -0.2490 -0.0664  0.2086
14575SOL    HW144581   0.641   6.384   7.712 -0.8250  0.3651  0.7447
14575SOL    HW244582   0.511   6.327   7.765 -0.9847 -0.8463 -0.8566
14576SOL     OW44583   7.300   7.897   3.780 -0.3225 -0.1840  0.1206
14576SOL    HW144584   7.214   7.865   3.755 -1.7887  2.2638  1.6944
14576SOL    HW244585   7.329   7.837   3.848 -0.8778 -0.8720 -0.2361
14577SOL     OW44586   7.970   2.816   2.580  0.3942 -0.8309  0.6547
14577SOL    HW144587   7.974   2.840   2.673 -2.5905  0.0903  0.6303
14577SOL    HW244588   8.037   2.871   2.539 -1.0403  1.9244  1.7315
14578SOL     OW44589   2.232   2.597   7.816 -0.0698 -0.1394 -0.2294
14578SOL    HW144590   2.311   2.589   7.870  1.4770  1.0168 -2.1788
14578SOL    HW244591   2.207   2.689   7.823 -1.3622 -0.5214  0.4674
14579SOL     OW44592   7.887   7.059   6.204 -0.4042 -0.3356 -0.3675
14579SOL    HW144593   7.891   7.004   6.283 -0.5671  0.4462  0.1994
14579SOL    HW244594   7.814   7.022   6.153 -0.7591 -0.4185  0.1847
14580SOL     OW44595   5.340   5.909   4.096 -0.0533  0.7856  0.2889
14580SOL    HW144596   5.357   6.000   4.120  1.1434  0.5847  0.2481
14580SOL    HW244597   5.292   5.873   4.170  2.1351  0.6307  1.7211
14581SOL     OW44598   7.771   0.468   3.372 -0.0959  0.0299 -0.9269
14581SOL    HW144599   7.690   0.458   3.322 -0.4454 -0.2020 -0.3184
14581SOL    HW244600   7.765   0.556   3.410  0.0412  0.0969 -1.0586
14582SOL     OW44601   3.914   4.443   2.087  0.9661 -0.1941  0.2350
14582SOL    HW144602   3.840   4.415   2.032  1.5701  0.0889 -0.7449
14582SOL    HW244603   3.978   4.373   2.077  1.2975  0.1212  0.1455
14583SOL     OW44604   0.008   4.517   2.984 -0.3278 -0.2826  0.0444
14583SOL    HW144605  -0.043   4.480   3.056 -1.3780 -0.7618 -0.9227
14583SOL    HW244606   0.028   4.606   3.013 -1.8099 -0.0369  0.4365
14584SOL     OW44607   1.632   4.096   5.963  0.6803 -0.7118  0.0165
14584SOL    HW144608   1.604   4.110   5.873  0.8610 -1.4838 -0.1702
14584SOL    HW244609   1.552   4.098   6.015  0.5733 -0.2983 -0.1647
14585SOL     OW44610   4.014   2.108   4.766  0.5671 -0.1405  0.5048
14585SOL    HW144611   4.106   2.082   4.766  0.9762  1.0769  2.7461
14585SOL    HW244612   4.016   2.204   4.772 -0.8832  0.0353 -0.8617
14586SOL     OW44613   5.440   1.590   0.702  0.5781 -0.1813 -0.8906
14586SOL    HW144614   5.345   1.595   0.704  0.6036  0.1358 -0.1102
14586SOL    HW244615   5.466   1.649   0.632  0.2148  0.0386 -0.8433
14587SOL     OW44616   3.844   6.633   0.626  0.1888  0.2786 -0.5616
14587SOL    HW144617   3.816   6.686   0.551  0.1230  1.5494  0.3340
14587SOL    HW244618   3.869   6.697   0.692 -2.3278 -0.7281  1.5239
14588SOL     OW44619   3.812   3.977   7.882  0.7134  0.2705 -0.4443
14588SOL    HW144620   3.802   3.903   7.823 -1.7438  0.5396 -0.4849
14588SOL    HW244621   3.761   3.954   7.959  2.1331  0.8197  0.7101
14589SOL     OW44622   3.261   5.587   6.029  0.0803 -0.3386  0.1851
14589SOL    HW144623   3.272   5.651   6.099  0.0267  0.2863 -0.3804
14589SOL    HW244624   3.265   5.637   5.948 -2.6332 -0.6346 -0.2107
14590SOL     OW44625   7.561   5.177   6.625 -0.2184 -0.1597  0.3830
14590SOL    HW144626   7.527   5.218   6.705 -0.6913 -0.8060  0.5211
14590SOL    HW244627   7.656   5.192   6.630 -0.3034  0.3112  0.7689
14591SOL     OW44628   3.836   2.494   0.984 -0.4158  0.1275  0.2679
14591SOL    HW144629   3.888   2.525   1.059 -0.1342  0.4629 -0.0643
14591SOL    HW244630   3.884   2.525   0.907  0.1294 -1.4887 -0.1000
14592SOL     OW44631   2.347   0.759   3.737  0.7228  0.4544 -0.1110
14592SOL    HW144632   2.390   0.674   3.733 -0.9215 -0.3893 -0.5837
14592SOL    HW244633   2.352   0.793   3.648 -0.7135 -0.2464 -0.4780
14593SOL     OW44634   0.198   1.211   7.827 -0.4023  0.4101 -0.0510
14593SOL    HW144635   0.185   1.240   7.737 -1.8753 -1.1720 -0.4092
14593SOL    HW244636   0.157   1.124   7.830  1.6432 -0.5731  1.5619
14594SOL     OW44637   0.584   4.674   0.344 -0.2153 -0.0645  0.0866
14594SOL    HW144638   0.577   4.767   0.366  0.3604 -0.0497  0.2022
14594SOL    HW244639   0.610   4.673   0.252 -1.4870 -0.1219 -0.2902
14595SOL     OW44640   4.919   3.038   7.496 -0.2265 -0.1217  0.1721
14595SOL    HW144641   4.996   2.982   7.508 -0.5333 -0.4149  0.7858
14595SOL    HW244642   4.950   3.126   7.518  0.2304 -0.0514 -0.6977
14596SOL     OW44643   3.505   1.545   2.430  0.3897  0.5594  0.6103
14596SOL    HW144644   3.551   1.607   2.372 -0.1699  1.1616  0.7936
14596SOL    HW244645   3.441   1.599   2.476  0.9959  0.1473  1.9868
14597SOL     OW44646   3.115   0.112   2.077  0.1890 -0.0586 -0.0611
14597SOL    HW144647   3.020   0.100   2.083  0.2510 -0.4303  0.2498
14597SOL    HW244648   3.146   0.036   2.029  0.0225  1.4965 -2.8247
14598SOL     OW44649   2.997   1.188   7.320  0.1832 -0.0911  0.4962
14598SOL    HW144650   2.902   1.198   7.325  0.2667  0.7306  0.6697
14598SOL    HW244651   3.011   1.094   7.311 -0.6213 -0.2714  1.0044
14599SOL     OW44652   3.520   6.747   5.219 -0.0212 -0.5159  0.6268
14599SOL    HW144653   3.559   6.694   5.289 -1.8867 -2.0350  0.5963
14599SOL    HW244654   3.537   6.698   5.139 -1.1402 -0.7485  0.5112
14600SOL     OW44655   5.420   5.150   1.759 -0.7294 -0.0002  0.3869
14600SOL    HW144656   5.436   5.244   1.755  0.3184 -0.2122 -1.5476
14600SOL    HW244657   5.506   5.110   1.745 -1.5089 -1.2087 -1.2481
14601SOL     OW44658   3.636   0.115   1.266  0.0529  0.1728 -0.2419
14601SOL    HW144659   3.602   0.140   1.352  0.0689 -1.4319  0.2688
14601SOL    HW244660   3.650   0.020   1.273  0.6914  0.1293 -1.7996
14602SOL     OW44661   5.862   6.792   6.531 -0.0699  0.9244  0.4802
14602SOL    HW144662   5.940   6.847   6.531  1.8147 -1.4429  3.2789
14602SOL    HW244663   5.819   6.813   6.615 -0.5188 -0.2395  0.5574
14603SOL     OW44664   7.562   6.956   4.143 -0.5679  0.4903  0.2613
14603SOL    HW144665   7.544   6.888   4.078 -0.4122  0.9477 -0.2660
14603SOL    HW244666   7.655   6.975   4.133 -0.2973 -0.2149  1.3798
14604SOL     OW44667   3.368   1.114   1.333 -0.1862 -0.1544 -0.0050
14604SOL    HW144668   3.371   1.018   1.332  1.4718 -0.1326 -0.9533
14604SOL    HW244669   3.361   1.137   1.426 -2.4660 -1.1722  0.1525
14605SOL     OW44670   1.075   1.762   5.174  0.0807  0.1737  0.0675
14605SOL    HW144671   1.078   1.817   5.253 -1.4573  0.4424 -0.0214
14605SOL    HW244672   1.159   1.776   5.132  1.5305 -1.0448  2.3402
14606SOL     OW44673   3.836   1.912   7.890  0.6858 -0.0779 -0.3427
14606SOL    HW144674   3.796   1.885   7.973  1.3533 -1.0710 -0.3324
14606SOL    HW244675   3.915   1.859   7.883 -0.3586 -1.4593 -2.5571
14607SOL     OW44676   5.411   7.739   2.561  0.0038 -0.4411 -0.2074
14607SOL    HW144677   5.443   7.696   2.481 -1.0239  2.3635 -2.2701
14607SOL    HW244678   5.344   7.680   2.595  0.1981 -1.5367 -1.6317
14608SOL     OW44679   2.627   4.294   3.608 -0.2135  0.4395 -0.2256
14608SOL    HW144680   2.713   4.254   3.591 -1.1967 -1.3919 -1.1238
14608SOL    HW244681   2.582   4.291   3.524 -2.0542 -0.9293  0.7266
14609SOL     OW44682   3.666   2.821   0.783  0.7287 -0.0629  0.6512
14609SOL    HW144683   3.719   2.900   0.790  1.3002 -0.5628  2.3526
14609SOL    HW244684   3.624   2.813   0.869 -0.3105 -0.9389  0.0869
14610SOL     OW44685   5.583   4.267   2.677 -0.4436 -0.1905  0.2067
14610SOL    HW144686   5.632   4.346   2.698 -1.3038  0.8607 -1.4909
14610SOL    HW244687   5.645   4.196   2.688  1.2713  1.0142 -1.1304
14611SOL     OW44688   4.872   4.703   0.920  0.1800 -0.1422 -0.2935
14611SOL    HW144689   4.834   4.784   0.954 -1.7750 -1.4004  0.6863
14611SOL    HW244690   4.866   4.641   0.992 -0.1982 -1.7110 -1.6081
14612SOL     OW44691   7.236   6.699   3.262 -0.5518  0.6021 -0.4563
14612SOL    HW144692   7.243   6.604   3.275  0.2457  0.5494 -1.1558
14612SOL    HW244693   7.160   6.710   3.206 -0.9848  0.4231  0.0936
14613SOL     OW44694   6.230   1.486   6.697 -0.4216 -0.7993 -0.2342
14613SOL    HW144695   6.323   1.463   6.691 -0.4237 -1.2908  1.3196
14613SOL    HW244696   6.225   1.549   6.768 -1.1717 -0.0868 -0.9062
14614SOL     OW44697   7.191   7.997   2.091 -0.2545 -0.1325 -0.3645
14614SOL    HW144698   7.249   8.037   2.156 -2.3068 -0.0944  1.5575
14614SOL    HW244699   7.249   7.943   2.037  1.9086  1.8702 -0.1724
14615SOL     OW44700   4.243   1.539   2.422 -0.1646 -0.7053  0.4734
14615SOL    HW144701   4.161   1.535   2.471 -0.0977 -2.5776  0.5100
14615SOL    HW244702   4.307   1.572   2.486 -0.6722 -0.2087  0.7370
14616SOL     OW44703   1.607   5.072   4.303  0.9854  0.3237  0.0837
14616SOL    HW144704   1.518   5.039   4.292  0.7893  1.0881 -0.7069
14616SOL    HW244705   1.641   5.024   4.379 -0.8010  1.4271  1.6876
14617SOL     OW44706   4.624   4.018   7.611 -0.2226 -0.2979  0.0906
14617SOL    HW144707   4.529   4.019   7.609 -0.2282 -0.9491 -0.1212
14617SOL    HW244708   4.646   4.010   7.704 -0.4062 -1.5991  0.0496
14618SOL     OW44709   0.117   5.328   1.853  0.8443 -0.5482 -0.0056
14618SOL    HW144710   0.184   5.272   1.814  1.1252 -0.3501  0.1874
14618SOL    HW244711   0.047   5.332   1.788  2.4802  2.0353 -1.7472
14619SOL     OW44712   6.462   3.632   7.966  0.2933 -0.1105  0.2119
14619SOL    HW144713   6.493   3.722   7.977 -0.3500  0.2151 -0.5808
14619SOL    HW244714   6.542   3.581   7.951  0.5349  0.5950 -0.9933
14620SOL     OW44715   5.865   6.433   7.374 -0.4061  0.3469  0.4084
14620SOL    HW144716   5.769   6.435   7.365 -0.3789 -1.6845 -0.8979
14620SOL    HW244717   5.880   6.405   7.464 -1.1084 -1.7295 -0.0817
14621SOL     OW44718   7.210   4.162   4.036  0.3069 -0.2276 -0.7455
14621SOL    HW144719   7.185   4.147   3.945  0.4243 -1.8178 -0.5407
14621SOL    HW244720   7.139   4.123   4.087  0.8388 -0.4706 -0.1726
14622SOL     OW44721   3.469   7.625   6.846 -0.7337 -0.2832  0.5522
14622SOL    HW144722   3.436   7.550   6.896  1.1384 -1.6956 -0.2474
14622SOL    HW244723   3.485   7.692   6.913 -1.1093 -1.0764  1.4671
14623SOL     OW44724   0.327   2.216   1.323  0.0433 -0.7837  0.0073
14623SOL    HW144725   0.291   2.304   1.308 -0.5408 -1.0811 -0.3433
14623SOL    HW244726   0.380   2.226   1.402 -0.1123 -0.1413  0.0425
14624SOL     OW44727   2.786   0.759   4.326  0.0107  0.2753  0.6191
14624SOL    HW144728   2.791   0.764   4.421 -0.2517 -0.6569  0.6902
14624SOL    HW244729   2.700   0.795   4.304  0.6559  1.9253  0.5899
14625SOL     OW44730   5.405   2.713   1.419 -1.0788  0.7026  0.0157
14625SOL    HW144731   5.490   2.746   1.450 -1.7814  0.7793  2.0139
14625SOL    HW244732   5.350   2.791   1.414 -1.4442  0.4569  0.1862
14626SOL     OW44733   7.087   3.715   3.399 -0.6289 -0.2510  0.0789
14626SOL    HW144734   7.002   3.690   3.437 -1.0103  1.5662  0.5171
14626SOL    HW244735   7.151   3.694   3.467 -0.9935  0.3330  0.6202
14627SOL     OW44736   2.642   5.519   2.875  0.0271 -0.1408 -0.3638
14627SOL    HW144737   2.662   5.467   2.796  0.5359 -0.9877  0.3034
14627SOL    HW244738   2.641   5.455   2.946 -2.7101  0.2056  0.0406
14628SOL     OW44739   2.899   0.457   4.869 -0.1927  0.3217  0.0313
14628SOL    HW144740   2.924   0.549   4.858  0.8146 -0.0310 -0.8785
14628SOL    HW244741   2.843   0.438   4.794 -1.4942  0.5299  0.9262
14629SOL     OW44742   4.338   4.739   4.310 -0.2469  0.9164 -0.4109
14629SOL    HW144743   4.300   4.680   4.246 -0.9896  0.4108  0.4811
14629SOL    HW244744   4.263   4.778   4.355  0.2590  0.2009  1.1044
14630SOL     OW44745   3.239   4.336   5.425 -0.6385 -0.3128 -0.0453
14630SOL    HW144746   3.185   4.339   5.346 -1.5857 -2.2220  0.4753
14630SOL    HW244747   3.220   4.251   5.463  0.4611  0.2273  1.7989
14631SOL     OW44748   0.958   0.485   3.033  0.0042 -0.3775 -0.2994
14631SOL    HW144749   1.004   0.551   3.084 -0.8957 -0.2391  0.3646
14631SOL    HW244750   0.979   0.402   3.076 -0.2195 -0.3324 -0.0987
14632SOL     OW44751   3.021   7.903   7.343  0.3816 -0.1136  0.5063
14632SOL    HW144752   2.942   7.943   7.380  0.8375  0.1251  1.2713
14632SOL    HW244753   3.074   7.978   7.316 -0.1416 -0.2996 -1.0962
14633SOL     OW44754   6.022   0.141   4.338  0.0809  0.2225 -0.1260
14633SOL    HW144755   5.989   0.130   4.427  0.3697  0.5625  0.0282
14633SOL    HW244756   5.945   0.131   4.281 -0.0001 -0.6136  0.1179
14634SOL     OW44757   0.407   5.576   2.852  0.5369  0.3282  0.3298
14634SOL    HW144758   0.484   5.596   2.906  0.7998 -0.3260  0.2110
14634SOL    HW244759   0.377   5.661   2.820  0.5128  0.7032  1.3211
14635SOL     OW44760   3.773   1.179   2.903 -0.2926 -0.6301 -0.5700
14635SOL    HW144761   3.821   1.141   2.976  0.7976  0.6811 -0.5720
14635SOL    HW244762   3.686   1.138   2.908 -0.7021  0.3472  2.2407
14636SOL     OW44763   0.221   4.736   3.521  0.3092  0.2625  0.0829
14636SOL    HW144764   0.234   4.827   3.548 -1.8375  1.0976 -1.4089
14636SOL    HW244765   0.277   4.724   3.445  2.0292 -0.3089  1.3860
14637SOL     OW44766   0.055   5.716   6.824  0.2885  0.2430 -0.1594
14637SOL    HW144767   0.141   5.732   6.864 -0.2476  3.7295 -0.1202
14637SOL    HW244768  -0.007   5.722   6.897 -0.2448  1.3286 -0.6797
14638SOL     OW44769   0.724   4.237   7.768 -0.1745 -0.4231 -0.3373
14638SOL    HW144770   0.799   4.247   7.827 -0.1470  0.2388 -0.4720
14638SOL    HW244771   0.697   4.146   7.778  0.4044 -0.5608  0.0077
14639SOL     OW44772   5.440   2.457   0.291  0.5256  0.2659  0.2130
14639SOL    HW144773   5.414   2.370   0.262  2.7094 -0.3717 -0.0238
14639SOL    HW244774   5.432   2.512   0.213 -1.3506  0.4526  0.4871
14640SOL     OW44775   0.862   6.021   7.645 -0.1645 -0.2979  0.0367
14640SOL    HW144776   0.885   6.112   7.665 -0.6406 -0.3866  1.0336
14640SOL    HW244777   0.944   5.981   7.617  0.1111  0.3573 -0.1198
14641SOL     OW44778   7.021   0.745   0.742  0.5549 -0.3454  0.7107
14641SOL    HW144779   7.020   0.839   0.723 -2.2175 -0.2587  0.8622
14641SOL    HW244780   7.012   0.740   0.838 -1.2445 -0.7120  0.5545
14642SOL     OW44781   5.229   7.424   6.350 -0.0037 -0.0510  0.0569
14642SOL    HW144782   5.323   7.404   6.354  0.2093  1.0824  1.8470
14642SOL    HW244783   5.191   7.372   6.420 -0.7569 -0.5186 -0.6764
14643SOL     OW44784   6.055   0.703   0.767 -0.1739  0.3754  0.1467
14643SOL    HW144785   6.046   0.793   0.735  1.2282  0.2147 -0.7943
14643SOL    HW244786   6.140   0.674   0.733 -0.2444 -1.0381  1.0983
14644SOL     OW44787   1.583   5.039   6.444  0.0659  0.4301  0.4009
14644SOL    HW144788   1.541   5.002   6.521  0.3210 -0.7567  0.0031
14644SOL    HW244789   1.675   5.014   6.453 -0.0344 -0.3974 -0.6397
14645SOL     OW44790   1.881   5.442   1.246 -0.6759  0.0707  0.0111
14645SOL    HW144791   1.815   5.438   1.177  0.1866 -0.1076 -0.8217
14645SOL    HW244792   1.907   5.534   1.250  0.2127 -0.1288 -0.8265
14646SOL     OW44793   2.461   7.007   3.072  0.3007  0.2157 -0.5616
14646SOL    HW144794   2.445   6.920   3.108  1.5970 -0.4695 -1.5521
14646SOL    HW244795   2.375   7.037   3.044 -0.5688  0.2793  1.8841
14647SOL     OW44796   6.990   5.051   2.609  0.2219  0.4338 -0.0304
14647SOL    HW144797   6.930   4.997   2.661 -1.1373  0.8353 -1.1312
14647SOL    HW244798   7.033   4.988   2.550 -0.3630  0.3621 -0.3863
14648SOL     OW44799   3.087   7.311   3.881 -0.1519 -0.9379  0.6135
14648SOL    HW144800   3.100   7.257   3.803 -0.2981  0.4422 -0.4174
14648SOL    HW244801   3.132   7.393   3.860 -1.8770  0.1935  1.1446
14649SOL     OW44802   3.289   6.797   0.860 -0.1047 -0.2909 -0.2031
14649SOL    HW144803   3.305   6.887   0.832  0.2604  0.1230  1.2390
14649SOL    HW244804   3.342   6.787   0.939 -0.3527 -1.6872 -0.1990
14650SOL     OW44805   5.631   6.936   3.034 -0.3498  0.3382  0.0111
14650SOL    HW144806   5.576   7.009   3.063 -1.2831 -0.4759  0.3723
14650SOL    HW244807   5.601   6.862   3.086  0.7353 -0.2560 -0.1866
14651SOL     OW44808   2.817   7.235   1.124 -0.1477 -0.7874 -0.1314
14651SOL    HW144809   2.886   7.296   1.148  0.0237 -0.9410 -0.2271
14651SOL    HW244810   2.762   7.229   1.202 -0.4476 -0.1358 -0.2902
14652SOL     OW44811   4.490   6.549   6.341  0.4963 -0.2076 -0.4799
14652SOL    HW144812   4.408   6.598   6.335  0.0617 -0.9587 -0.7509
14652SOL    HW244813   4.548   6.606   6.394 -0.8521 -0.5467  1.4614
14653SOL     OW44814   6.270   5.290   4.282  0.0107  0.0872  0.1460
14653SOL    HW144815   6.337   5.305   4.215  0.7140 -1.7358  0.3901
14653SOL    HW244816   6.225   5.374   4.290  0.4580  0.5941 -2.0035
14654SOL     OW44817   4.073   4.407   4.992  0.4518 -0.0402  0.0144
14654SOL    HW144818   4.055   4.441   4.904 -0.4106 -0.4355  0.0255
14654SOL    HW244819   4.013   4.333   5.002  2.0046 -1.3313  0.1563
14655SOL     OW44820   2.979   0.150   3.249 -0.6806 -0.4458 -0.2021
14655SOL    HW144821   2.989   0.233   3.297  0.2526  0.3301 -1.6665
14655SOL    HW244822   2.969   0.177   3.158  3.1944 -1.9480 -1.2907
14656SOL     OW44823   0.266   4.681   1.108 -0.7811 -0.0923 -0.0160
14656SOL    HW144824   0.261   4.670   1.013 -1.2969 -0.6467  0.0665
14656SOL    HW244825   0.232   4.599   1.143  0.0400 -0.1579  0.6557
14657SOL     OW44826   0.446   2.005   7.614 -0.3874 -0.1339 -0.2595
14657SOL    HW144827   0.482   1.933   7.563  0.3603 -0.3318  0.5163
14657SOL    HW244828   0.352   1.991   7.613 -0.3193 -0.5647 -0.9290
14658SOL     OW44829   6.370   1.752   0.024 -0.3784 -0.3736 -0.4219
14658SOL    HW144830   6.463   1.765   0.007 -0.4852  1.7567  0.3189
14658SOL    HW244831   6.328   1.833  -0.005 -1.3794  0.7035  3.3480
14659SOL     OW44832   5.076   4.079   0.694 -0.3568 -0.4067  0.5336
14659SOL    HW144833   4.990   4.040   0.709  0.4544 -1.9746  1.4717
14659SOL    HW244834   5.137   4.007   0.708  1.0360  0.0100 -2.5566
14660SOL     OW44835   5.892   5.369   5.445 -0.1604  0.3042  0.0903
14660SOL    HW144836   5.962   5.331   5.393 -1.1887 -1.1103 -0.3104
14660SOL    HW244837   5.833   5.409   5.381 -1.2867 -1.2015  0.1362
14661SOL     OW44838   2.148   6.641   7.165  0.1520  0.0179  0.3973
14661SOL    HW144839   2.065   6.642   7.118  0.0696 -2.2127  0.4086
14661SOL    HW244840   2.212   6.614   7.099  0.6610  0.4635  0.7049
14662SOL     OW44841   0.785   7.055   1.595  0.5143  0.3635 -1.0312
14662SOL    HW144842   0.724   7.050   1.521  0.6203 -1.3919 -1.0367
14662SOL    HW244843   0.732   7.031   1.671  1.0133 -0.4310 -0.9263
14663SOL     OW44844   1.402   1.565   5.864 -0.1099 -0.5260 -0.1583
14663SOL    HW144845   1.464   1.569   5.937  0.3293 -0.7080 -0.5169
14663SOL    HW244846   1.457   1.550   5.787 -0.2649  2.5635 -0.9818
14664SOL     OW44847   6.054   4.617   6.119 -0.1047 -0.1075 -0.4089
14664SOL    HW144848   6.133   4.668   6.100  0.2526 -0.4515  0.1265
14664SOL    HW244849   5.989   4.683   6.143  1.0486  0.0398  2.7859
14665SOL     OW44850   7.539   5.689   5.344 -0.1901 -0.2212 -0.1790
14665SOL    HW144851   7.563   5.743   5.419  0.5902  0.0680 -0.6282
14665SOL    HW244852   7.519   5.604   5.381 -3.0312  0.7278  0.7650
14666SOL     OW44853   4.147   2.420   7.931  0.3102 -0.0890  0.2593
14666SOL    HW144854   4.103   2.337   7.911 -0.1152  0.6453 -2.2270
14666SOL    HW244855   4.130   2.435   8.024 -0.7448 -2.1133  0.4436
14667SOL     OW44856   2.373   0.918   1.503 -0.0668 -0.3273 -0.4529
14667SOL    HW144857   2.410   0.837   1.466 -0.1538 -1.0138  0.8866
14667SOL    HW244858   2.341   0.966   1.427  0.9272 -1.0627 -1.3877
14668SOL     OW44859   6.121   7.862   1.205 -0.0504  0.1245  0.1294
14668SOL    HW144860   6.209   7.874   1.170 -0.4828 -1.6661 -1.7975
14668SOL    HW244861   6.135   7.832   1.295  1.1858  2.2525  0.7095
14669SOL     OW44862   5.107   6.371   0.381 -0.0790  0.6095  0.4879
14669SOL    HW144863   5.193   6.371   0.340 -0.2076 -1.5734  0.0978
14669SOL    HW244864   5.105   6.452   0.432  1.2088  1.9822 -1.4589
14670SOL     OW44865   4.418   2.675   0.085 -0.3940  0.4297 -0.0982
14670SOL    HW144866   4.329   2.709   0.096 -1.5198 -1.6476 -1.9260
14670SOL    HW244867   4.435   2.682  -0.009  0.0187 -2.1484 -0.3058
14671SOL     OW44868   1.646   6.958   3.231  0.4532 -0.4096 -0.0487
14671SOL    HW144869   1.679   7.031   3.179 -0.6987  0.0561 -0.1483
14671SOL    HW244870   1.723   6.902   3.245  1.0858  0.1900 -1.0147
14672SOL     OW44871   6.471   1.660   2.079  0.2831  0.2626  0.0175
14672SOL    HW144872   6.532   1.640   2.150 -1.7442 -3.0469  1.0580
14672SOL    HW244873   6.416   1.730   2.115  0.6616  0.1435  0.8692
14673SOL     OW44874   5.082   5.599   5.692 -0.4455  0.3349 -0.2710
14673SOL    HW144875   5.007   5.612   5.634  0.8617  0.1133 -2.1336
14673SOL    HW244876   5.088   5.504   5.702 -0.6343  0.3712  0.1837
14674SOL     OW44877   3.717   3.953   3.137 -0.0589  0.0264 -0.1873
14674SOL    HW144878   3.731   3.938   3.230 -0.1922  0.4642 -0.0944
14674SOL    HW244879   3.660   3.881   3.109 -1.8620  1.0763  0.5589
14675SOL     OW44880   7.019   2.626   3.065 -0.0058 -0.2496  0.3286
14675SOL    HW144881   6.937   2.655   3.105 -0.3744  0.7979 -1.1018
14675SOL    HW244882   7.088   2.671   3.114 -0.4181  0.6235  0.1226
14676SOL     OW44883   1.860   3.843   5.055  0.0213 -0.4311 -0.1051
14676SOL    HW144884   1.781   3.820   5.105 -0.4876 -0.0578 -0.7231
14676SOL    HW244885   1.922   3.874   5.121 -0.2075 -1.0979  0.4335
14677SOL     OW44886   0.989   0.249   0.466  0.6653  0.3292  0.5639
14677SOL    HW144887   1.069   0.201   0.485  1.2001  0.9305 -0.1251
14677SOL    HW244888   0.919   0.196   0.505  1.1342 -1.4206 -0.8686
14678SOL     OW44889   2.474   5.583   3.932  0.1309 -0.7337 -0.0598
14678SOL    HW144890   2.398   5.587   3.990  1.1053  2.6766  1.2475
14678SOL    HW244891   2.442   5.620   3.849  0.4835  1.7407  0.8231
14679SOL     OW44892   1.847   0.747   4.009 -0.0324  0.1970 -0.4823
14679SOL    HW144893   1.919   0.712   3.957  0.4899  0.1702  0.2496
14679SOL    HW244894   1.772   0.747   3.949 -0.0508 -2.0955 -0.5713
14680SOL     OW44895   4.273   0.312   2.069  0.3367 -0.1355 -0.0029
14680SOL    HW144896   4.361   0.295   2.034  0.7664  2.7720 -0.6407
14680SOL    HW244897   4.244   0.228   2.104  3.0939 -1.3535 -0.3725
14681SOL     OW44898   5.046   0.398   0.077  0.2207 -0.4882  0.3324
14681SOL    HW144899   5.043   0.364   0.167 -1.8598 -2.1288 -0.2697
14681SOL    HW244900   4.992   0.478   0.081 -1.6396 -1.6675  0.2041
14682SOL     OW44901   2.309   2.680   4.816 -0.2485 -0.7942  0.2736
14682SOL    HW144902   2.275   2.731   4.742  0.6413 -1.3467 -0.5393
14682SOL    HW244903   2.240   2.686   4.883 -0.7185  0.3967 -0.2801
14683SOL     OW44904   1.981   2.573   7.698  0.0329 -0.1529 -0.0111
14683SOL    HW144905   1.954   2.484   7.724 -1.4788  1.1541  3.5269
14683SOL    HW244906   2.062   2.588   7.746 -0.2567  0.7252  0.2062
14684SOL     OW44907   5.457   5.903   5.944 -0.2653 -0.0196  0.3438
14684SOL    HW144908   5.479   5.828   6.000 -2.0513  0.2527  1.4714
14684SOL    HW244909   5.363   5.893   5.926  0.2746 -0.2755 -2.9329
14685SOL     OW44910   0.286   7.299   5.113  0.1763 -0.1225 -0.3099
14685SOL    HW144911   0.192   7.298   5.098  0.1232 -0.7378  0.0224
14685SOL    HW244912   0.307   7.390   5.135 -0.3162  0.0384 -0.5117
14686SOL     OW44913   3.293   3.134   6.393  0.1889 -0.8855 -0.3137
14686SOL    HW144914   3.284   3.230   6.396  0.2434 -0.7778 -2.3788
14686SOL    HW244915   3.274   3.106   6.483  2.8238  1.2380  1.0684
14687SOL     OW44916   0.242   6.254   6.354  0.2901  0.5155 -0.2741
14687SOL    HW144917   0.268   6.201   6.279  2.6073  0.6500  0.3690
14687SOL    HW244918   0.303   6.327   6.355 -0.9218  1.5604  0.6450
14688SOL     OW44919   1.698   7.280   3.691  0.2333  0.3296 -0.5731
14688SOL    HW144920   1.651   7.363   3.689  1.9662  1.5064  1.8865
14688SOL    HW244921   1.688   7.248   3.781  2.1844 -0.4804 -0.5766
14689SOL     OW44922   7.620   1.565   2.669 -0.2898  0.1388  0.0834
14689SOL    HW144923   7.682   1.625   2.629  0.3446 -0.7622 -0.3078
14689SOL    HW244924   7.645   1.563   2.762 -0.0425  0.1495  0.0171
14690SOL     OW44925   4.377   6.496   3.936 -0.4412 -0.1979  0.7860
14690SOL    HW144926   4.431   6.566   3.899 -0.3478  0.1206  1.5081
14690SOL    HW244927   4.291   6.507   3.895 -0.3763  0.2260  0.7595
14691SOL     OW44928   5.795   4.565   2.121  0.0283 -0.0986  0.1190
14691SOL    HW144929   5.873   4.610   2.087  0.5493  0.7867  2.3632
14691SOL    HW244930   5.731   4.575   2.051  1.1414  1.3665 -0.7715
14692SOL     OW44931   4.577   0.525   1.925 -0.2703 -0.0177  0.1908
14692SOL    HW144932   4.525   0.568   1.992 -0.6433 -1.5081  0.9118
14692SOL    HW244933   4.658   0.501   1.970  0.2532  0.5942 -0.4073
14693SOL     OW44934   2.671   6.329   0.896 -0.3204 -0.3068  0.0602
14693SOL    HW144935   2.670   6.423   0.875 -1.8949 -0.3158 -0.0362
14693SOL    HW244936   2.587   6.313   0.938 -0.5875 -1.9223 -1.0178
14694SOL     OW44937   0.201   7.015   2.556  0.3559 -0.1223  0.2928
14694SOL    HW144938   0.235   6.976   2.636  1.0996 -0.6187 -0.2563
14694SOL    HW244939   0.109   6.989   2.554  0.5624 -0.8833  0.5131
14695SOL     OW44940   0.842   7.754   0.473 -0.1919  0.0451 -0.1178
14695SOL    HW144941   0.834   7.784   0.383  0.1752  0.1997 -0.1004
14695SOL    HW244942   0.790   7.674   0.476 -1.8961  1.1277  0.0673
14696SOL     OW44943   7.690   2.787   0.654 -0.7138  0.1630 -0.5535
14696SOL    HW144944   7.745   2.743   0.589  0.5917  0.8511  0.0522
14696SOL    HW244945   7.607   2.738   0.653 -0.1009 -0.8895 -1.4967
14697SOL     OW44946   0.049   5.310   3.804  0.0854 -0.1200 -0.4864
14697SOL    HW144947   0.020   5.237   3.749  1.0537 -0.3530 -0.7152
14697SOL    HW244948   0.073   5.379   3.742  1.1133 -0.3569 -0.3753
14698SOL     OW44949   3.828   3.999   7.481  0.0662 -0.1758 -0.8678
14698SOL    HW144950   3.893   4.030   7.418 -1.5843 -2.0170 -3.7166
14698SOL    HW244951   3.879   3.945   7.542  1.5425  0.3879 -1.5380
14699SOL     OW44952   7.040   3.896   2.162  0.0981  0.1198 -0.2280
14699SOL    HW144953   7.041   3.961   2.092  0.4058 -1.5867 -1.9011
14699SOL    HW244954   7.110   3.924   2.221 -0.0199  1.4973 -0.6984
14700SOL     OW44955   0.690   2.934   2.175 -0.3380 -0.0287 -0.6371
14700SOL    HW144956   0.734   2.895   2.251 -0.5377 -0.8494 -0.9292
14700SOL    HW244957   0.662   3.020   2.204 -0.7482 -0.4852  0.3457
14701SOL     OW44958   5.389   0.349   5.397  0.0271 -0.5148  0.2708
14701SOL    HW144959   5.452   0.392   5.455 -0.4268  0.8202 -0.1961
14701SOL    HW244960   5.362   0.271   5.445  0.1731  0.2041  1.5712
14702SOL     OW44961   2.182   0.338   7.108 -0.5997  0.2105 -0.3951
14702SOL    HW144962   2.170   0.333   7.013 -1.3540 -1.8877 -0.2556
14702SOL    HW244963   2.275   0.321   7.121 -0.8491 -1.7460 -0.7222
14703SOL     OW44964   3.157   6.700   4.717  0.6916 -0.5374  0.1437
14703SOL    HW144965   3.095   6.630   4.737  0.0040  0.0771  0.2241
14703SOL    HW244966   3.188   6.681   4.629 -0.3472 -0.3379 -0.2816
14704SOL     OW44967   2.426   5.928   4.886  0.6083 -0.0632 -0.7041
14704SOL    HW144968   2.450   5.956   4.974  1.6157 -2.8295  0.0150
14704SOL    HW244969   2.330   5.920   4.889  0.7682 -2.5644  1.0805
14705SOL     OW44970   0.555   4.589   2.065 -0.4270  0.6156 -0.1904
14705SOL    HW144971   0.494   4.623   2.000 -1.2317  0.7247  0.6058
14705SOL    HW244972   0.550   4.494   2.055 -1.1729  0.5977  0.2494
14706SOL     OW44973   6.306   3.560   7.516 -0.2329  0.3802  0.6596
14706SOL    HW144974   6.388   3.568   7.565 -1.0794 -0.4119  2.2869
14706SOL    HW244975   6.240   3.601   7.572 -1.3231 -0.9356  0.3901
14707SOL     OW44976   0.119   1.086   3.806  0.3679  0.2044  0.2670
14707SOL    HW144977   0.036   1.117   3.769 -0.0235 -0.1086  0.8628
14707SOL    HW244978   0.098   1.001   3.845  0.8507  0.3504  0.8718
14708SOL     OW44979   3.263   2.900   2.147 -0.1572  0.1141  0.0924
14708SOL    HW144980   3.298   2.818   2.183 -0.7443 -0.3533 -0.3838
14708SOL    HW244981   3.330   2.965   2.168  0.0841 -0.3846  0.9294
14709SOL     OW44982   2.979   1.968   7.891 -0.1832  0.2431  0.1303
14709SOL    HW144983   2.968   2.015   7.808  1.5900 -0.0668 -0.3316
14709SOL    HW244984   3.027   1.889   7.867  0.5248  0.2314  1.4767
14710SOL     OW44985   3.869   6.849   2.084  1.2482  0.7033  0.5210
14710SOL    HW144986   3.945   6.902   2.059  2.1895 -1.2667 -1.0985
14710SOL    HW244987   3.906   6.762   2.103 -0.6426 -0.5927 -1.3047
14711SOL     OW44988   5.421   5.587   3.027 -0.7120 -0.0700  0.2524
14711SOL    HW144989   5.392   5.512   2.976 -1.8141  0.3033  0.3121
14711SOL    HW244990   5.340   5.632   3.053 -0.0718  1.6097 -0.5001
14712SOL     OW44991   0.371   7.081   3.277 -0.4755  0.2721 -0.3678
14712SOL    HW144992   0.339   7.141   3.344  1.1292  2.0532 -1.0968
14712SOL    HW244993   0.354   7.126   3.195 -2.0194 -1.6845 -1.2047
14713SOL     OW44994   6.300   2.966   5.669 -0.4228 -0.2120  0.2958
14713SOL    HW144995   6.235   2.935   5.733  1.3515 -0.7258  1.9664
14713SOL    HW244996   6.259   2.951   5.584 -1.6393 -2.5833  1.1952
14714SOL     OW44997   5.199   2.357   4.129 -0.1216 -0.3695 -0.1212
14714SOL    HW144998   5.166   2.402   4.207  1.0301 -2.7653  1.8799
14714SOL    HW244999   5.251   2.423   4.084  1.7019  0.3577  2.7982
14715SOL     OW45000   5.416   0.966   0.725  0.0061  0.4775  0.2079
14715SOL    HW145001   5.340   0.932   0.773 -0.2394 -0.2009 -0.6464
14715SOL    HW245002   5.415   1.060   0.744 -1.1326  0.4997  0.1080
14716SOL     OW45003   2.221   4.341   6.366  0.0217  0.0745 -0.4608
14716SOL    HW145004   2.273   4.333   6.446 -0.5170  1.1248  0.0226
14716SOL    HW245005   2.151   4.277   6.376  0.2553 -0.1668 -0.3429
14717SOL     OW45006   5.399   3.391   0.120  0.1371  0.3974 -0.3461
14717SOL    HW145007   5.326   3.416   0.063  1.8225 -0.7936 -3.2497
14717SOL    HW245008   5.412   3.298   0.102  0.8665  0.0014  1.9607
14718SOL     OW45009   6.546   0.637   2.061  0.3747 -0.4111  0.0085
14718SOL    HW145010   6.566   0.666   1.972 -0.6903  0.6645  0.1008
14718SOL    HW245011   6.608   0.685   2.116 -0.3677  0.5796  0.0166
14719SOL     OW45012   6.320   4.991   0.226 -0.5174  0.0066  0.4318
14719SOL    HW145013   6.374   5.001   0.148 -1.3903  1.0139 -0.0653
14719SOL    HW245014   6.319   4.897   0.243  0.4312 -0.1355 -0.2181
14720SOL     OW45015   5.165   4.392   4.805  0.7446 -0.3177 -0.4673
14720SOL    HW145016   5.141   4.361   4.718 -0.2835  0.3732 -0.4608
14720SOL    HW245017   5.144   4.486   4.803  1.4862 -0.1293  0.2619
14721SOL     OW45018   5.974   6.284   3.997 -0.0635  0.4856  0.1077
14721SOL    HW145019   6.032   6.239   3.936 -0.4148  0.0634  0.0812
14721SOL    HW245020   5.898   6.226   4.006 -0.2195  0.7552  0.5924
14722SOL     OW45021   6.269   0.862   6.359  0.1205  0.3672 -0.1029
14722SOL    HW145022   6.214   0.915   6.417 -0.2361  0.6686 -0.7141
14722SOL    HW245023   6.228   0.776   6.358  0.8171 -0.0001  1.0594
14723SOL     OW45024   7.851   1.637   1.738 -0.1878  0.4381 -0.0248
14723SOL    HW145025   7.928   1.596   1.777 -0.4301 -1.4185 -1.3384
14723SOL    HW245026   7.883   1.720   1.704  1.3884 -0.5112 -1.0002
14724SOL     OW45027   2.529   4.908   0.225  0.0373  0.2534  0.3241
14724SOL    HW145028   2.535   4.996   0.187 -3.1932  0.3664 -0.1992
14724SOL    HW245029   2.477   4.920   0.305  0.1071 -1.0920  0.5937
14725SOL     OW45030   3.134   3.533   5.811 -0.4864 -0.0639  0.1533
14725SOL    HW145031   3.203   3.593   5.839 -0.8227 -0.4491  1.8969
14725SOL    HW245032   3.056   3.562   5.859 -0.4765 -2.3214  1.6678
14726SOL     OW45033   1.985   1.243   7.975  0.5927  0.7992 -0.2262
14726SOL    HW145034   2.001   1.180   8.045  0.1263 -0.6440 -1.3862
14726SOL    HW245035   1.948   1.319   8.020 -2.4712 -1.1407  0.8668
14727SOL     OW45036   7.578   3.186   7.170  0.3919 -0.3955 -0.0595
14727SOL    HW145037   7.508   3.139   7.215  0.7842 -0.7297  0.2110
14727SOL    HW245038   7.580   3.150   7.082  1.0314 -1.2669  0.2991
14728SOL     OW45039   0.154   7.720   7.936 -0.1066 -0.2731 -0.0738
14728SOL    HW145040   0.168   7.814   7.938 -0.4494 -0.2243  0.6179
14728SOL    HW245041   0.068   7.708   7.896  0.3404 -0.3537 -1.0257
14729SOL     OW45042   4.093   4.677   2.567  0.2229 -0.4815  0.2352
14729SOL    HW145043   4.182   4.648   2.548  0.1501 -0.7724  0.3334
14729SOL    HW245044   4.088   4.766   2.532  1.1732  0.2974  1.9570
14730SOL     OW45045   1.182   0.442   0.549 -0.2257  0.2192  0.3045
14730SOL    HW145046   1.264   0.403   0.520  0.5677  0.9724  1.4402
14730SOL    HW245047   1.117   0.412   0.486  0.4607 -2.3055  0.7134
14731SOL     OW45048   1.559   1.940   4.839  0.5421 -0.0010 -0.1744
14731SOL    HW145049   1.501   2.011   4.866 -1.3484 -1.5511  0.1226
14731SOL    HW245050   1.608   1.976   4.765 -0.5488  1.5192 -0.2066
14732SOL     OW45051   6.975   1.601   1.745  0.5124 -0.3510  0.4996
14732SOL    HW145052   6.922   1.583   1.667 -0.3149  1.2509  0.6424
14732SOL    HW245053   6.911   1.624   1.812  1.2974 -0.3160  1.2458
14733SOL     OW45054   5.709   4.288   2.089  0.0413 -0.1645 -0.7101
14733SOL    HW145055   5.738   4.375   2.115  0.4948 -0.2631 -0.8872
14733SOL    HW245056   5.735   4.231   2.162  0.1812 -0.2345 -0.8156
14734SOL     OW45057   3.632   6.326   2.730 -0.0133 -0.2523 -0.3661
14734SOL    HW145058   3.621   6.412   2.690 -0.4913 -0.3607 -0.4737
14734SOL    HW245059   3.543   6.290   2.733 -0.2789  0.3980  2.2342
14735SOL     OW45060   7.589   0.939   7.150  0.0969  0.2656 -0.1374
14735SOL    HW145061   7.535   1.006   7.107 -0.9425 -0.2258  0.3777
14735SOL    HW245062   7.577   0.955   7.244  0.0124 -0.5018 -0.0100
14736SOL     OW45063   7.611   1.589   0.312  0.0608  0.0414 -0.3248
14736SOL    HW145064   7.695   1.559   0.278  0.5096  0.9973 -0.1012
14736SOL    HW245065   7.574   1.644   0.243  0.5412  1.2210  0.3337
14737SOL     OW45066   1.846   1.663   3.354  0.3107  0.0030  0.2434
14737SOL    HW145067   1.862   1.587   3.298  1.3559  1.1500 -1.0883
14737SOL    HW245068   1.816   1.625   3.437 -0.5265 -1.7891 -0.8010
14738SOL     OW45069   1.098   7.575   3.420 -0.3667 -0.2555  0.0476
14738SOL    HW145070   1.126   7.485   3.402  0.5831 -0.3070  1.6559
14738SOL    HW245071   1.177   7.620   3.448 -0.6997  1.2786 -1.2815
14739SOL     OW45072   7.698   7.013   5.990  0.5513 -0.1309  0.0888
14739SOL    HW145073   7.761   7.040   5.924 -0.1327  1.0574 -0.1222
14739SOL    HW245074   7.646   7.092   6.007 -1.4346 -1.2546 -0.3854
14740SOL     OW45075   5.980   3.214   1.472  0.0282  0.1307  0.0561
14740SOL    HW145076   5.943   3.249   1.553 -0.8154 -2.3048  0.8172
14740SOL    HW245077   5.939   3.128   1.463  1.7395 -0.5514 -1.8181
14741SOL     OW45078   2.834   5.790   4.022 -0.1586  0.0740  0.5849
14741SOL    HW145079   2.886   5.818   4.096 -0.0220 -0.2125  0.5992
14741SOL    HW245080   2.818   5.870   3.971  0.4244  0.1351  0.4970
14742SOL     OW45081   0.268   5.991   4.340 -0.2079  0.1037  0.5883
14742SOL    HW145082   0.260   6.083   4.317 -0.8878 -0.1727 -0.3516
14742SOL    HW245083   0.361   5.971   4.326 -0.4490  0.1155 -1.4159
14743SOL     OW45084   5.271   3.134   3.055 -0.3633  0.2965  0.4338
14743SOL    HW145085   5.333   3.119   3.127  1.3495 -2.2194 -1.3750
14743SOL    HW245086   5.316   3.195   2.996 -1.4406  1.7563  1.0657
14744SOL     OW45087   0.665   4.195   3.935 -0.1581 -0.1259 -0.2123
14744SOL    HW145088   0.607   4.248   3.990 -0.2401 -1.9013  1.5025
14744SOL    HW245089   0.610   4.121   3.907  1.2525 -2.0620  1.7798
14745SOL     OW45090   6.447   2.529   6.398 -0.3530 -0.4910  0.0438
14745SOL    HW145091   6.397   2.605   6.428 -0.4837 -0.7932  0.6108
14745SOL    HW245092   6.532   2.537   6.442 -0.2411 -0.4874 -0.1711
14746SOL     OW45093   2.323   1.411   5.751 -0.0898 -0.2841  0.3021
14746SOL    HW145094   2.301   1.493   5.795 -2.2109 -1.0314  0.7574
14746SOL    HW245095   2.360   1.356   5.820  1.7965  0.3792 -0.1025
14747SOL     OW45096   4.883   2.497   1.027  0.0934  0.4010 -0.3219
14747SOL    HW145097   4.878   2.470   1.119 -1.1815  2.2872  0.2184
14747SOL    HW245098   4.804   2.459   0.988 -0.8169  1.8491  0.0459
14748SOL     OW45099   6.147   1.059   6.498 -0.1265  0.1092  0.0099
14748SOL    HW145100   6.056   1.084   6.482 -0.6685 -0.9099  1.3380
14748SOL    HW245101   6.169   1.100   6.581 -0.8360 -3.0409  1.9235
14749SOL     OW45102   6.422   6.804   5.493 -0.5467  0.2448  0.1392
14749SOL    HW145103   6.469   6.881   5.524  0.3637  0.5311 -1.8053
14749SOL    HW245104   6.336   6.810   5.534  0.6174  0.4147  2.7449
14750SOL     OW45105   4.301   7.788   2.653  0.0904  0.0888 -0.1612
14750SOL    HW145106   4.315   7.720   2.718 -1.0584  2.4745  2.8242
14750SOL    HW245107   4.219   7.763   2.610 -0.7032 -0.1172  1.3913
14751SOL     OW45108   4.749   3.328   2.525 -0.1009 -0.2354  0.0733
14751SOL    HW145109   4.800   3.290   2.597  0.4575 -2.1795 -1.2644
14751SOL    HW245110   4.808   3.394   2.487  0.2875 -0.4242  0.3340
14752SOL     OW45111   0.753   3.403   1.690  0.9651 -0.6271  0.2194
14752SOL    HW145112   0.773   3.454   1.769  1.1349 -0.9519  0.3857
14752SOL    HW245113   0.811   3.439   1.623  0.3755  0.0826  0.0695
14753SOL     OW45114   5.453   4.388   6.691  0.3517 -0.5829 -0.0219
14753SOL    HW145115   5.389   4.446   6.733  0.2894 -1.9556  1.9515
14753SOL    HW245116   5.486   4.437   6.616 -1.5181  0.9700  0.1035
14754SOL     OW45117   1.241   1.033   2.627  0.3724  0.2965  0.0715
14754SOL    HW145118   1.266   1.110   2.576  1.6398  0.6724  1.2201
14754SOL    HW245119   1.148   1.020   2.607  0.8964  0.1388 -2.6690
14755SOL     OW45120   7.844   5.849   3.495  0.2286 -0.0202 -0.3624
14755SOL    HW145121   7.859   5.920   3.432  1.5873 -0.3657 -0.4749
14755SOL    HW245122   7.831   5.771   3.441 -1.1830  0.1039 -0.2378
14756SOL     OW45123   0.789   5.235   0.796 -0.2553  0.7098 -0.7905
14756SOL    HW145124   0.826   5.148   0.813 -0.6461  0.7382  0.2998
14756SOL    HW245125   0.780   5.239   0.701 -0.9369 -0.7445 -0.8130
14757SOL     OW45126   6.140   5.096   4.111 -0.4984  0.0892  0.5951
14757SOL    HW145127   6.175   5.175   4.153 -0.0200  0.3568 -0.2743
14757SOL    HW245128   6.105   5.044   4.183  0.7821  0.2834  1.3895
14758SOL     OW45129   7.150   2.276   2.617  0.0816 -0.4423 -0.8264
14758SOL    HW145130   7.138   2.359   2.572  1.0845 -0.5822 -1.3706
14758SOL    HW245131   7.183   2.301   2.704 -1.2609 -0.2083 -0.3515
14759SOL     OW45132   1.827   7.523   0.250  0.5706  0.4225  0.0854
14759SOL    HW145133   1.737   7.511   0.219  1.0083  0.0441 -1.0820
14759SOL    HW245134   1.822   7.509   0.345 -0.6563  0.7695  0.0832
14760SOL     OW45135   1.022   3.115   3.938  0.5029  0.1033 -0.5833
14760SOL    HW145136   1.087   3.048   3.960  0.5101  0.2238 -0.2365
14760SOL    HW245137   0.946   3.094   3.992  0.2522 -0.0365 -0.9871
14761SOL     OW45138   5.176   6.279   7.729  0.5665 -0.0265 -0.0227
14761SOL    HW145139   5.172   6.193   7.688 -0.2512 -0.9130  1.8375
14761SOL    HW245140   5.085   6.310   7.731  0.8839  1.0863 -0.9949
14762SOL     OW45141   1.759   4.092   4.444 -0.2520 -0.0640 -0.0422
14762SOL    HW145142   1.685   4.107   4.385 -1.2705  0.5321  1.3210
14762SOL    HW245143   1.834   4.132   4.400 -1.2336  1.4698 -0.3957
14763SOL     OW45144   7.230   1.664   7.509 -0.4477  0.9408 -0.2351
14763SOL    HW145145   7.315   1.707   7.502  0.3420 -0.7618 -1.6605
14763SOL    HW245146   7.167   1.734   7.490  0.7419  1.7202 -1.5024
14764SOL     OW45147   2.174   3.849   7.626 -0.3703 -0.7634  0.2956
14764SOL    HW145148   2.127   3.799   7.559  0.8224 -0.9513 -0.4294
14764SOL    HW245149   2.254   3.878   7.582 -2.2925  4.5835 -0.4620
14765SOL     OW45150   4.015   3.664   3.297 -0.6449  0.3498 -0.2429
14765SOL    HW145151   3.942   3.635   3.352 -1.9220  1.5752 -1.2363
14765SOL    HW245152   4.040   3.586   3.248 -1.0251 -0.1749  0.3749
14766SOL     OW45153   2.122   7.627   1.326 -0.2884  0.2752  0.4700
14766SOL    HW145154   2.100   7.548   1.277 -0.3458  1.7846 -2.0945
14766SOL    HW245155   2.069   7.621   1.406 -1.7512 -1.3683 -0.5457
14767SOL     OW45156   2.606   2.584   2.683  0.0698  0.9389  0.0282
14767SOL    HW145157   2.676   2.590   2.618 -0.6010  0.6708 -0.7350
14767SOL    HW245158   2.527   2.607   2.635 -0.5604 -0.1021  0.5317
14768SOL     OW45159   1.473   0.267   4.062  0.1225 -0.4249 -0.5901
14768SOL    HW145160   1.393   0.310   4.093 -0.5067 -2.3411  0.6609
14768SOL    HW245161   1.536   0.338   4.050 -1.2380  0.9496  0.0981
14769SOL     OW45162   1.113   7.209   0.198 -0.1318 -0.1229 -0.0880
14769SOL    HW145163   1.057   7.276   0.237  1.0192 -0.0822  1.6108
14769SOL    HW245164   1.119   7.141   0.265  0.3450 -0.9989 -0.9884
14770SOL     OW45165   3.138   6.186   3.340  0.0302 -0.3283  0.1264
14770SOL    HW145166   3.175   6.191   3.251 -1.9025  0.0992 -0.7101
14770SOL    HW245167   3.127   6.278   3.365 -0.5282 -0.4431  0.3085
14771SOL     OW45168   3.081   4.053   5.487  0.7284  1.0562 -0.3560
14771SOL    HW145169   3.090   3.986   5.555  0.3336  0.3921 -0.9457
14771SOL    HW245170   3.007   4.106   5.516  0.9187  1.1288  0.0151
14772SOL     OW45171   0.130   2.962   3.186  0.1933  0.1568 -0.2857
14772SOL    HW145172   0.048   3.004   3.211 -0.7869  0.6405 -3.8417
14772SOL    HW245173   0.186   3.035   3.158  1.4177 -0.3088  0.8068
14773SOL     OW45174   1.221   2.443   3.290 -0.0441  0.0504 -0.0895
14773SOL    HW145175   1.240   2.353   3.317  0.2371 -0.0023 -0.4540
14773SOL    HW245176   1.242   2.445   3.197  1.6340  0.9637  0.2715
14774SOL     OW45177   6.767   2.497   1.464 -0.0471  0.0128  0.1808
14774SOL    HW145178   6.807   2.433   1.523 -1.0127 -1.0801 -0.3016
14774SOL    HW245179   6.806   2.478   1.379 -0.8333 -0.3946 -0.0960
14775SOL     OW45180   1.306   7.524   7.467 -0.0433 -0.3452 -0.2911
14775SOL    HW145181   1.385   7.473   7.448 -0.1223 -0.0228 -1.5687
14775SOL    HW245182   1.252   7.515   7.388 -0.3006  1.2506 -0.3329
14776SOL     OW45183   4.795   5.982   3.564  0.6029 -0.4443 -0.2755
14776SOL    HW145184   4.708   5.960   3.594 -0.0297  2.0932 -0.0149
14776SOL    HW245185   4.851   5.970   3.641 -0.4213  2.6402  1.1108
14777SOL     OW45186   2.984   4.041   6.594 -0.0021 -0.1207 -0.0662
14777SOL    HW145187   2.906   4.092   6.617  1.1310  2.6839 -1.8547
14777SOL    HW245188   2.963   4.004   6.508  0.0198 -0.8658  0.2413
14778SOL     OW45189   3.871   1.392   6.987 -0.5758 -0.1036 -0.1896
14778SOL    HW145190   3.886   1.298   6.983 -1.7326 -0.2820 -2.6818
14778SOL    HW245191   3.777   1.402   6.969 -0.2981  1.5288 -0.9578
14779SOL     OW45192   7.335   5.102   0.160 -0.5035 -0.0860  0.4296
14779SOL    HW145193   7.386   5.039   0.211 -1.1024 -0.3802  0.6731
14779SOL    HW245194   7.281   5.048   0.103 -0.9665  0.2069  0.5868
14780SOL     OW45195   6.613   4.941   4.346  0.1586  0.1303  1.1865
14780SOL    HW145196   6.650   5.028   4.332  1.1093 -0.0699  2.2434
14780SOL    HW245197   6.526   4.945   4.308 -0.5810  2.1624  2.8986
14781SOL     OW45198   5.671   2.123   7.323  0.4063  0.5983  0.0734
14781SOL    HW145199   5.742   2.097   7.380  1.3764  1.2108 -0.8171
14781SOL    HW245200   5.628   2.041   7.299  0.6344  0.2504  0.8302
14782SOL     OW45201   6.033   7.623   4.536  0.4576 -0.2352  0.4163
14782SOL    HW145202   6.109   7.623   4.478  0.1755  0.9567  0.0233
14782SOL    HW245203   6.070   7.614   4.624  0.9126 -1.6311  0.1110
14783SOL     OW45204   7.796   3.669   0.205  0.1683 -0.2938 -0.2777
14783SOL    HW145205   7.741   3.594   0.228 -0.1157  0.4106  1.4915
14783SOL    HW245206   7.811   3.714   0.289  2.4858  0.1765 -0.8886
14784SOL     OW45207   4.686   6.539   5.696 -0.3344  0.5810  0.3475
14784SOL    HW145208   4.775   6.572   5.698 -0.2776  0.4509  2.3004
14784SOL    HW245209   4.683   6.481   5.619  1.4512  0.0802  0.6110
14785SOL     OW45210   4.502   0.382   7.210 -0.5421 -0.0241  0.0896
14785SOL    HW145211   4.540   0.295   7.219 -0.3000  0.1638  0.9054
14785SOL    HW245212   4.541   0.434   7.280  0.3856  1.1277 -1.2283
14786SOL     OW45213   1.688   4.247   1.103 -0.4492  0.1847 -0.0509
14786SOL    HW145214   1.663   4.184   1.036  0.4351 -3.0791  2.4458
14786SOL    HW245215   1.615   4.246   1.165  0.9405 -0.9613  1.6465
14787SOL     OW45216   0.014   3.250   5.729  0.4705  0.0693  0.0387
14787SOL    HW145217   0.064   3.319   5.687  1.0398 -0.0054  0.5803
14787SOL    HW245218   0.066   3.225   5.805 -0.1774 -0.3119  0.3715
14788SOL     OW45219   3.403   0.071   2.223  0.3758  0.8341 -0.2910
14788SOL    HW145220   3.307   0.065   2.220  0.4346 -0.1424 -0.6398
14788SOL    HW245221   3.433   0.003   2.163  1.3159 -0.3042  1.3793
14789SOL     OW45222   0.457   4.334   1.079  0.5470 -0.1596  0.5366
14789SOL    HW145223   0.369   4.366   1.099  1.3375  2.0730  0.8056
14789SOL    HW245224   0.485   4.286   1.157  0.2412  0.7415  1.2160
14790SOL     OW45225   2.440   4.053   3.720  0.0374 -0.2063 -0.0946
14790SOL    HW145226   2.382   4.053   3.643  1.8615 -1.4472 -1.5713
14790SOL    HW245227   2.516   4.104   3.692 -1.2921  3.8447  2.7617
14791SOL     OW45228   2.299   5.041   4.073 -0.8952  0.1593  0.3243
14791SOL    HW145229   2.308   4.946   4.075  0.7075  0.2829 -0.0242
14791SOL    HW245230   2.320   5.065   3.983  1.6209  1.0634  1.0756
14792SOL     OW45231   0.079   4.621   3.707 -0.4544  0.0334 -0.5361
14792SOL    HW145232   0.135   4.672   3.649  2.2797 -1.7057  0.3712
14792SOL    HW245233   0.101   4.652   3.795 -0.2282 -1.3163 -0.1039
14793SOL     OW45234   1.102   2.154   0.055  0.3999  0.0765  0.9092
14793SOL    HW145235   1.013   2.183   0.072  0.7237  1.3161  0.5953
14793SOL    HW245236   1.099   2.059   0.066 -1.2835 -0.0819 -0.4548
14794SOL     OW45237   1.054   3.139   0.168  0.0692 -0.1253 -0.4377
14794SOL    HW145238   1.018   3.202   0.230 -1.9661 -0.6991 -0.9829
14794SOL    HW245239   1.032   3.174   0.082  0.4895 -0.6981 -0.7902
14795SOL     OW45240   2.727   3.513   7.967 -0.8990  0.0107  0.2522
14795SOL    HW145241   2.711   3.448   8.034  0.0830  0.8929  1.3804
14795SOL    HW245242   2.774   3.466   7.898  1.6617 -0.1379  1.9400
14796SOL     OW45243   5.083   7.683   7.791  0.0211 -0.8698  0.2905
14796SOL    HW145244   5.042   7.599   7.771 -0.8997 -0.9070  2.1267
14796SOL    HW245245   5.160   7.661   7.844  1.2927 -0.6594 -1.3595
14797SOL     OW45246   4.976   6.648   0.088  0.0758 -0.3516  0.6435
14797SOL    HW145247   5.008   6.732   0.122 -1.1647  0.4761 -0.1606
14797SOL    HW245248   4.913   6.618   0.154  0.1906 -0.4385  0.7146
14798SOL     OW45249   3.724   7.121   0.515  0.2728 -0.8198  0.0346
14798SOL    HW145250   3.789   7.072   0.465  1.2657 -0.1405  0.6310
14798SOL    HW245251   3.730   7.085   0.603  1.4512  0.7279  0.6371
14799SOL     OW45252   1.707   5.905   7.364  0.1787 -0.2041 -0.1833
14799SOL    HW145253   1.613   5.900   7.377  0.0494  0.9387 -0.5846
14799SOL    HW245254   1.718   5.967   7.292  1.3290  1.2333  1.1923
14800SOL     OW45255   2.339   0.171   1.445 -0.6043 -0.1953  0.9979
14800SOL    HW145256   2.339   0.091   1.497 -0.3452 -0.4318  0.6390
14800SOL    HW245257   2.266   0.160   1.384 -0.7393 -0.0377  1.1299
14801SOL     OW45258   6.024   2.864   4.461 -0.2461 -0.1552  0.3005
14801SOL    HW145259   6.054   2.792   4.517  1.4955  0.4793  0.2427
14801SOL    HW245260   6.002   2.934   4.523 -2.9954 -1.0363  0.4270
14802SOL     OW45261   3.679   2.784   4.621 -0.1711 -0.0532  0.2236
14802SOL    HW145262   3.690   2.823   4.535  1.1008  0.7589  0.7275
14802SOL    HW245263   3.753   2.816   4.672 -1.6526  0.6367  2.0593
14803SOL     OW45264   2.680   3.408   7.581 -0.3496  0.2800 -0.1870
14803SOL    HW145265   2.627   3.402   7.501 -0.9810  0.5110  0.2044
14803SOL    HW245266   2.616   3.409   7.652  0.1407  1.3528  0.2663
14804SOL     OW45267   2.489   3.961   7.641 -0.2752  0.4762 -0.8954
14804SOL    HW145268   2.571   3.969   7.690 -0.4466 -1.2218 -0.2720
14804SOL    HW245269   2.485   3.869   7.616 -1.4465  0.7780 -1.9194
14805SOL     OW45270   7.126   4.850   4.772  0.0862  0.2965 -0.1878
14805SOL    HW145271   7.135   4.888   4.684  0.3505  1.1412  0.1961
14805SOL    HW245272   7.158   4.918   4.831 -2.9746  1.0165  0.8272
14806SOL     OW45273   2.626   1.840   1.262  0.1094 -0.3127 -0.8375
14806SOL    HW145274   2.706   1.789   1.269 -0.0247 -0.3514  0.8337
14806SOL    HW245275   2.625   1.895   1.341 -1.2970 -0.0317 -1.0159
14807SOL     OW45276   6.741   1.903   3.819  0.3636  0.3992  0.3073
14807SOL    HW145277   6.811   1.902   3.884 -0.0077 -0.7832  0.7100
14807SOL    HW245278   6.660   1.896   3.870  0.0579 -0.2548 -0.2468
14808SOL     OW45279   4.978   6.640   1.082  0.2318 -1.1055 -0.0928
14808SOL    HW145280   5.028   6.722   1.077  0.9571 -1.5273  0.1510
14808SOL    HW245281   4.981   6.616   1.174 -1.5743 -0.4495  0.1769
14809SOL     OW45282   7.238   2.200   3.253  0.1053  0.1986 -0.2445
14809SOL    HW145283   7.242   2.273   3.316  0.0020  0.3826 -0.4492
14809SOL    HW245284   7.330   2.178   3.237  0.1240 -0.0529  0.2056
14810SOL     OW45285   4.378   5.562   2.001 -0.3725  0.8736  0.2917
14810SOL    HW145286   4.424   5.483   2.028 -1.0878  1.4840  3.7790
14810SOL    HW245287   4.446   5.630   2.001 -0.0175  0.5869 -1.4715
14811SOL     OW45288   6.248   1.421   1.542 -0.1251  0.6255  0.0420
14811SOL    HW145289   6.170   1.430   1.596 -1.8753 -1.1946 -2.0097
14811SOL    HW245290   6.237   1.486   1.473  1.0041  1.4337  0.5851
14812SOL     OW45291   0.860   7.359   0.267 -0.0203  0.2338  0.0887
14812SOL    HW145292   0.855   7.299   0.341 -0.8276  1.5483  1.1489
14812SOL    HW245293   0.795   7.427   0.286  0.1183  0.8948 -1.5751
14813SOL     OW45294   3.955   7.113   3.830  0.5922  0.0168 -0.6988
14813SOL    HW145295   3.900   7.082   3.757  1.0045  1.1088 -1.4921
14813SOL    HW245296   4.025   7.048   3.835 -0.3547 -1.0054 -0.1341
14814SOL     OW45297   0.405   4.044   7.874 -0.2832  0.3136 -0.1361
14814SOL    HW145298   0.344   3.995   7.818 -0.9705 -0.1943  1.0295
14814SOL    HW245299   0.404   4.132   7.838 -0.9333  0.0735 -0.7545
14815SOL     OW45300   0.857   1.771   2.675 -0.1467 -0.5684  0.9177
14815SOL    HW145301   0.933   1.770   2.616 -1.0374 -0.4515 -0.2655
14815SOL    HW245302   0.849   1.681   2.704 -0.5282 -0.9287 -0.2590
14816SOL     OW45303   5.469   0.018   6.875 -0.3464  0.4022 -0.6930
14816SOL    HW145304   5.529   0.091   6.860 -0.8411  1.0727  0.4357
14816SOL    HW245305   5.523  -0.060   6.867  1.2451  1.0447  2.4712
14817SOL     OW45306   7.372   5.358   5.669 -0.0016  0.0471 -0.1396
14817SOL    HW145307   7.436   5.382   5.736  0.0155 -0.1681 -0.0782
14817SOL    HW245308   7.305   5.309   5.716  0.5454 -1.0341 -0.4500
14818SOL     OW45309   4.714   0.634   3.907  0.0050 -0.6337  0.3550
14818SOL    HW145310   4.659   0.683   3.968  0.5725  0.2811  0.1601
14818SOL    HW245311   4.804   0.653   3.936  0.2418 -1.4739  0.1995
14819SOL     OW45312   7.736   5.344   1.066  0.4158 -0.5692 -0.3678
14819SOL    HW145313   7.701   5.364   0.980  1.8268 -1.6388 -1.2197
14819SOL    HW245314   7.746   5.249   1.068 -2.1007 -0.9141  2.0108
14820SOL     OW45315   1.353   0.663   7.880  0.0950 -0.0813  0.2147
14820SOL    HW145316   1.284   0.726   7.900 -0.6269 -0.2928 -1.4984
14820SOL    HW245317   1.408   0.706   7.815  0.3847 -0.7163  0.0275
14821SOL     OW45318   4.976   2.338   5.214  0.0344 -0.0342 -0.7542
14821SOL    HW145319   4.974   2.243   5.212  0.5882 -0.0462 -1.6590
14821SOL    HW245320   5.031   2.362   5.139  0.6069  0.9662 -0.0441
14822SOL     OW45321   3.926   2.142   2.803  0.7396 -0.2767 -0.2647
14822SOL    HW145322   3.856   2.144   2.868  3.5367  1.5572  3.0288
14822SOL    HW245323   3.966   2.055   2.813  2.0093  0.4718  1.6039
14823SOL     OW45324   0.554   0.904   3.746 -0.0749  0.9386  0.1174
14823SOL    HW145325   0.639   0.933   3.714 -0.3069  0.2181 -1.2188
14823SOL    HW245326   0.546   0.813   3.717 -1.2344  0.9445  0.3459
14824SOL     OW45327   0.154   5.435   2.887 -0.5508 -0.3147 -0.7800
14824SOL    HW145328   0.104   5.500   2.838 -1.5695 -0.6458 -0.1991
14824SOL    HW245329   0.245   5.461   2.874 -0.8012 -0.1959 -2.5580
14825SOL     OW45330   1.737   5.189   4.619 -0.4508 -0.4573 -0.4018
14825SOL    HW145331   1.831   5.172   4.611 -0.4065  0.2761 -1.8578
14825SOL    HW245332   1.696   5.104   4.602 -0.0525 -0.8098  0.3726
14826SOL     OW45333   3.526   3.033   2.960  0.1668 -0.2338  0.0620
14826SOL    HW145334   3.555   3.117   2.995  0.4995 -0.3652  0.1051
14826SOL    HW245335   3.483   3.055   2.877  0.5554 -0.0533 -0.0920
14827SOL     OW45336   5.541   7.286   1.829 -0.4845 -0.2717 -0.5297
14827SOL    HW145337   5.503   7.281   1.741 -3.0689  0.7914  0.4255
14827SOL    HW245338   5.551   7.380   1.845  0.4546 -0.4722  0.1470
14828SOL     OW45339   2.467   2.148   2.513  0.3887  0.0936 -0.1417
14828SOL    HW145340   2.520   2.070   2.528  0.9791  0.6888  1.0000
14828SOL    HW245341   2.484   2.204   2.589  0.3748  1.5520 -1.1537
14829SOL     OW45342   6.108   7.315   2.620 -0.0720 -0.6716  0.1777
14829SOL    HW145343   6.030   7.285   2.667 -0.1268 -1.0031 -0.1184
14829SOL    HW245344   6.103   7.411   2.624 -0.1979 -0.6916  0.6406
14830SOL     OW45345   2.582   1.642   5.151 -0.3254  0.0008 -0.0871
14830SOL    HW145346   2.664   1.632   5.104 -0.7748  1.5500 -1.2918
14830SOL    HW245347   2.523   1.684   5.088 -1.5720  0.3066  1.2281
14831SOL     OW45348   2.030   1.190   2.655 -0.0254  1.0137  1.1586
14831SOL    HW145349   2.069   1.107   2.626  0.9661  1.6748  0.5528
14831SOL    HW245350   1.937   1.169   2.669 -0.5167  0.5297 -2.1431
14832SOL     OW45351   5.637   5.357   7.922  0.1954  0.2887 -0.3812
14832SOL    HW145352   5.661   5.292   7.856 -1.6722 -1.7033  0.7484
14832SOL    HW245353   5.673   5.322   8.003  2.0238  2.4349 -0.1821
14833SOL     OW45354   4.296   0.912   4.935  0.0089 -0.0646 -0.3426
14833SOL    HW145355   4.201   0.917   4.930  0.0320  0.7172 -0.1968
14833SOL    HW245356   4.316   0.818   4.937 -0.6505 -0.2931 -2.2540
14834SOL     OW45357   7.651   7.363   5.053 -0.6177  0.4231  0.3453
14834SOL    HW145358   7.649   7.457   5.032 -3.4675  0.0014 -1.9823
14834SOL    HW245359   7.559   7.337   5.051  0.0429 -2.3225  1.7087
14835SOL     OW45360   1.453   0.461   1.685 -0.1857  0.5955 -0.1625
14835SOL    HW145361   1.503   0.540   1.704 -0.8120  0.7913  0.6992
14835SOL    HW245362   1.364   0.480   1.715 -0.7625  0.1876 -1.5179
14836SOL     OW45363   0.062   4.860   1.770  0.2703  0.8884 -0.6299
14836SOL    HW145364   0.016   4.885   1.689 -1.4784  0.2873  0.1270
14836SOL    HW245365   0.128   4.798   1.741 -1.8601 -1.1850 -1.4299
14837SOL     OW45366   4.383   0.881   2.697  0.1358  0.5097  0.1167
14837SOL    HW145367   4.460   0.907   2.646  0.7637 -1.9093 -0.3191
14837SOL    HW245368   4.311   0.882   2.633  0.4605 -0.2659 -0.2758
14838SOL     OW45369   1.845   0.873   7.449 -0.0233 -0.4691 -0.4158
14838SOL    HW145370   1.856   0.779   7.433 -2.1106 -0.5015 -2.2047
14838SOL    HW245371   1.922   0.913   7.408  0.1360 -1.3150 -0.9859
14839SOL     OW45372   5.483   6.030   5.495 -0.2272  0.6572  0.5057
14839SOL    HW145373   5.564   6.020   5.446  0.0771 -0.2756  1.1503
14839SOL    HW245374   5.511   6.063   5.581 -0.4822  0.1006  0.8135
14840SOL     OW45375   0.425   0.049   4.318  0.1502 -0.4294  0.1529
14840SOL    HW145376   0.346   0.099   4.336 -1.1425 -2.1295 -0.5462
14840SOL    HW245377   0.468   0.039   4.403 -1.1174 -0.6553  0.7840
14841SOL     OW45378   7.294   0.172   0.428 -0.1905 -0.5802 -0.3973
14841SOL    HW145379   7.278   0.266   0.417  0.2488 -0.2517  1.4234
14841SOL    HW245380   7.218   0.140   0.476 -0.4029 -1.1949 -1.1310
14842SOL     OW45381   0.506   0.329   1.280 -0.0927 -0.2725  0.0727
14842SOL    HW145382   0.448   0.331   1.204  0.9368 -0.3116 -0.7312
14842SOL    HW245383   0.578   0.387   1.258  1.2175 -1.7739  0.1785
14843SOL     OW45384   6.760   1.494   5.492 -0.1769  0.0623  0.0358
14843SOL    HW145385   6.698   1.567   5.499  1.0459  1.0699  0.9162
14843SOL    HW245386   6.843   1.531   5.521  0.1873 -2.0838  1.9968
14844SOL     OW45387   5.041   4.633   4.796 -0.0885 -0.1070 -0.2080
14844SOL    HW145388   5.048   4.713   4.743  1.5825  0.5470  0.9239
14844SOL    HW245389   4.967   4.585   4.758 -0.7088  1.6563 -1.3403
14845SOL     OW45390   4.764   2.293   2.734 -0.3083  0.0314 -0.1207
14845SOL    HW145391   4.708   2.327   2.664  1.3261  2.2465 -0.4698
14845SOL    HW245392   4.841   2.351   2.733  1.4101 -2.0652  1.1678
14846SOL     OW45393   6.711   7.168   3.059  0.2254 -0.2393  0.2302
14846SOL    HW145394   6.748   7.122   2.983  1.4580 -0.0773  0.7232
14846SOL    HW245395   6.749   7.124   3.135  0.3873  0.7435  0.7342
14847SOL     OW45396   5.053   0.277   5.774 -0.2767  0.0740 -0.0375
14847SOL    HW145397   5.070   0.192   5.734 -0.0326 -0.0494  0.3299
14847SOL    HW245398   5.130   0.330   5.755 -1.6576  1.2785 -3.0067
14848SOL     OW45399   7.786   2.326   3.753  0.0394 -0.0538 -0.1711
14848SOL    HW145400   7.732   2.398   3.786 -0.6624 -0.9677  0.7435
14848SOL    HW245401   7.764   2.320   3.660 -1.1904 -0.1739  0.1051
14849SOL     OW45402   5.879   7.076   2.978  0.2175  0.1746  0.3706
14849SOL    HW145403   5.820   7.032   3.039  0.3987 -0.4409  0.1189
14849SOL    HW245404   5.908   7.155   3.023  1.2219 -0.8226  1.5433
14850SOL     OW45405   3.155   7.892   0.910 -0.1498 -0.0858  0.9027
14850SOL    HW145406   3.231   7.903   0.854 -1.0393 -1.4862 -0.6495
14850SOL    HW245407   3.106   7.974   0.901 -0.4481 -0.4133 -0.6749
14851SOL     OW45408   7.147   2.975   4.801 -0.4380 -0.3222 -0.1674
14851SOL    HW145409   7.190   3.058   4.779 -0.7888 -0.5511 -1.8871
14851SOL    HW245410   7.060   2.982   4.761 -1.1670 -0.7925  1.2788
14852SOL     OW45411   2.386   5.623   0.174  0.1657  0.2163 -0.0839
14852SOL    HW145412   2.420   5.587   0.092 -2.9747 -0.7602 -1.1124
14852SOL    HW245413   2.342   5.704   0.148  2.4861  2.0426  1.3612
14853SOL     OW45414   2.110   1.487   7.094  0.5600 -0.1552  0.1384
14853SOL    HW145415   2.071   1.503   7.008  2.8952 -0.1010 -0.9602
14853SOL    HW245416   2.073   1.556   7.150 -0.8916 -0.1122 -0.8046
14854SOL     OW45417   4.362   4.375   7.678  0.3197 -0.7036 -0.0960
14854SOL    HW145418   4.414   4.333   7.747  0.6187 -0.2696 -0.0520
14854SOL    HW245419   4.322   4.303   7.631  0.0960 -1.0122  0.5498
14855SOL     OW45420   3.427   7.000   5.124 -0.2120 -0.1980  0.0017
14855SOL    HW145421   3.346   7.026   5.170 -1.0587 -0.9938 -1.0080
14855SOL    HW245422   3.441   6.909   5.151 -1.1486 -0.9357 -1.8499
14856SOL     OW45423   4.785   2.241   0.673  0.1265  0.0700 -0.5888
14856SOL    HW145424   4.737   2.248   0.590 -1.1049 -3.4099 -0.3595
14856SOL    HW245425   4.849   2.172   0.657  0.0723 -0.4458  1.2454
14857SOL     OW45426   5.696   0.777   3.901  0.0746 -0.6469 -0.2615
14857SOL    HW145427   5.763   0.793   3.968 -1.0788 -0.6003  0.9146
14857SOL    HW245428   5.706   0.850   3.840  0.4037 -0.0589  0.4800
14858SOL     OW45429   4.750   4.481   7.331  0.2335 -0.3989 -0.0474
14858SOL    HW145430   4.813   4.538   7.289  0.0987  1.1509  1.7438
14858SOL    HW245431   4.685   4.540   7.369 -2.1660 -1.8982 -1.5183
14859SOL     OW45432   4.659   7.947   4.002 -0.6041 -0.1765  0.3792
14859SOL    HW145433   4.730   7.919   3.944 -0.5429  1.1513 -0.2235
14859SOL    HW245434   4.588   7.972   3.942 -1.4796 -1.1950  0.9631
14860SOL     OW45435   7.558   1.153   5.788 -0.1618  0.3487 -0.3797
14860SOL    HW145436   7.525   1.205   5.861  0.0617  0.0426 -0.0583
14860SOL    HW245437   7.490   1.160   5.721 -0.7099  0.0263  0.1331
14861SOL     OW45438   1.854   7.747   6.396 -0.3147  0.0611  0.3480
14861SOL    HW145439   1.841   7.837   6.364  0.6518  0.2501  0.4405
14861SOL    HW245440   1.766   7.714   6.412 -0.6640  1.3478  1.2793
14862SOL     OW45441   3.024   6.687   1.625  0.4507 -0.7976  0.7311
14862SOL    HW145442   3.031   6.782   1.636 -1.9638 -0.5777  1.1531
14862SOL    HW245443   3.088   6.651   1.687  1.4696  0.5358  0.5023
14863SOL     OW45444   1.747   2.982   6.215  0.4101 -0.3547 -0.6453
14863SOL    HW145445   1.780   2.894   6.234 -0.9086 -0.6770  0.2850
14863SOL    HW245446   1.746   3.025   6.301 -2.5518 -0.7191 -0.4091
14864SOL     OW45447   6.512   2.083   5.584  0.0099 -0.2174  0.1632
14864SOL    HW145448   6.514   2.097   5.678 -1.1539 -0.8372  0.3055
14864SOL    HW245449   6.427   2.119   5.556  0.5426  0.3879 -0.7228
14865SOL     OW45450   7.660   5.593   1.557  0.0118 -0.1471 -0.4764
14865SOL    HW145451   7.581   5.630   1.518 -0.8586 -1.2377  0.1931
14865SOL    HW245452   7.670   5.508   1.514 -2.2060 -2.3947  2.9685
14866SOL     OW45453   0.126   1.564   6.098  0.2430  0.7944  0.3858
14866SOL    HW145454   0.055   1.503   6.083  0.7808  0.2100  0.1631
14866SOL    HW245455   0.163   1.581   6.011 -0.6396  2.3756  0.2789
14867SOL     OW45456   7.670   3.321   1.331 -0.0606 -0.4693  0.6275
14867SOL    HW145457   7.668   3.393   1.269 -1.7909 -1.0750 -0.0800
14867SOL    HW245458   7.610   3.347   1.401 -1.6147 -1.6543 -0.2050
14868SOL     OW45459   5.535   7.430   4.180 -0.0912  0.1864  0.0429
14868SOL    HW145460   5.508   7.434   4.272  2.5141  0.9269  0.8740
14868SOL    HW245461   5.495   7.507   4.140  0.4582  1.0633  1.1151
14869SOL     OW45462   7.099   6.361   6.639 -0.4231  0.0263  0.0554
14869SOL    HW145463   7.121   6.296   6.705  0.9616 -1.4783 -1.7948
14869SOL    HW245464   7.012   6.337   6.609  0.4967 -1.7627 -1.3898
14870SOL     OW45465   2.218   6.904   1.690  0.0211  0.1710 -0.0394
14870SOL    HW145466   2.151   6.925   1.625 -0.8648 -0.0111  0.7923
14870SOL    HW245467   2.169   6.876   1.768  1.0651 -0.2713  0.4899
14871SOL     OW45468   2.578   2.998   3.176  0.1043  0.6840 -0.1499
14871SOL    HW145469   2.555   3.077   3.126  0.1444 -0.1288 -1.4939
14871SOL    HW245470   2.494   2.965   3.207 -0.1552  0.0752 -1.4376
14872SOL     OW45471   0.123   3.474   7.301 -0.5982 -0.6067  0.0580
14872SOL    HW145472   0.139   3.418   7.377 -1.6942  1.2094  1.7248
14872SOL    HW245473   0.032   3.457   7.277  0.3140 -2.7522 -2.3241
14873SOL     OW45474   3.508   3.799   5.773 -0.4206 -0.6574 -0.3340
14873SOL    HW145475   3.527   3.709   5.798  0.3857 -0.2702  0.4958
14873SOL    HW245476   3.501   3.846   5.856 -1.0315  0.0132 -0.7497
14874SOL     OW45477   0.575   4.807   1.292  0.0012 -0.2044  0.4037
14874SOL    HW145478   0.577   4.726   1.240  2.0449 -0.2052  0.4145
14874SOL    HW245479   0.528   4.869   1.236  1.8974 -0.2849 -1.4167
14875SOL     OW45480   4.382   3.699   5.314  0.1597 -0.2276  0.1489
14875SOL    HW145481   4.291   3.715   5.338  0.4563  0.4391  0.8648
14875SOL    HW245482   4.377   3.654   5.229 -0.8843 -1.9133  1.0542
14876SOL     OW45483   5.639   1.379   4.727 -0.4789 -0.1015 -0.2977
14876SOL    HW145484   5.551   1.416   4.731 -1.1634 -1.6977  0.5057
14876SOL    HW245485   5.647   1.329   4.808  1.0925 -0.1730 -0.4745
14877SOL     OW45486   4.859   4.571   3.276 -0.4026 -0.4084  0.1139
14877SOL    HW145487   4.780   4.545   3.324 -0.0255  0.4624  1.2390
14877SOL    HW245488   4.890   4.490   3.235 -0.5997 -1.2499  1.5517
14878SOL     OW45489   1.037   6.282   3.413 -0.4738 -0.3616  0.0485
14878SOL    HW145490   1.011   6.339   3.485  0.2690 -1.6348  1.3849
14878SOL    HW245491   1.133   6.289   3.411 -0.4420 -0.8578 -0.3525
14879SOL     OW45492   2.024   1.921   3.699  0.5391 -0.0030  0.1026
14879SOL    HW145493   1.983   1.995   3.744 -0.6369 -1.7476  2.0305
14879SOL    HW245494   2.114   1.920   3.733 -0.8892 -2.6521  4.5426
14880SOL     OW45495   2.775   5.201   6.111  0.3938  0.1906 -0.7283
14880SOL    HW145496   2.720   5.255   6.054  0.6668 -0.3448 -1.5087
14880SOL    HW245497   2.713   5.139   6.151  0.4305 -0.4785 -1.6842
14881SOL     OW45498   7.924   2.822   2.006  0.4004 -0.0951 -0.4435
14881SOL    HW145499   8.002   2.844   2.057  2.5779 -0.8100 -3.1981
14881SOL    HW245500   7.924   2.726   2.001 -0.9353 -0.1383 -0.1460
14882SOL     OW45501   0.276   0.251   2.357  0.3529  0.3124  0.1001
14882SOL    HW145502   0.329   0.174   2.336 -1.7613 -1.1066 -0.3247
14882SOL    HW245503   0.251   0.287   2.272  1.1094  1.3434  0.2971
14883SOL     OW45504   0.356   0.656   1.252  0.3273  0.1125 -0.1559
14883SOL    HW145505   0.432   0.679   1.305  0.7857 -2.1758  0.2993
14883SOL    HW245506   0.280   0.680   1.305  0.7761 -1.1841  1.1369
14884SOL     OW45507   6.958   2.978   1.409  0.1413 -0.0255  0.3102
14884SOL    HW145508   6.961   2.954   1.502 -1.7696  0.6411  0.5854
14884SOL    HW245509   6.922   2.900   1.366  0.0999  0.0164  0.2692
14885SOL     OW45510   1.743   5.701   2.439  0.2614  0.1597  0.0809
14885SOL    HW145511   1.736   5.785   2.393 -0.8774 -0.1938 -0.4317
14885SOL    HW245512   1.653   5.678   2.461  0.5731 -0.8451  0.3712
14886SOL     OW45513   6.350   1.174   6.315  0.6272  0.1148 -0.2097
14886SOL    HW145514   6.295   1.098   6.336  1.2430  0.0373  1.2605
14886SOL    HW245515   6.293   1.249   6.331  0.1079 -0.0126 -1.3817
14887SOL     OW45516   0.050   5.380   2.115  0.5043  0.3675 -0.0414
14887SOL    HW145517   0.020   5.471   2.111 -0.4520  0.0427 -0.6045
14887SOL    HW245518   0.057   5.353   2.023 -1.5448 -0.8333  0.0832
14888SOL     OW45519   5.479   2.970   3.497  0.1760 -0.1175 -0.6381
14888SOL    HW145520   5.393   2.958   3.538  1.2230 -0.5650  1.5672
14888SOL    HW245521   5.537   2.910   3.543  1.9831  1.2021 -1.0690
14889SOL     OW45522   3.304   3.012   3.157  0.1688  0.2280  0.8080
14889SOL    HW145523   3.390   2.991   3.122  0.4405 -0.7487  1.9648
14889SOL    HW245524   3.283   2.938   3.215 -1.6315  0.2405  0.2437
14890SOL     OW45525   1.039   7.725   2.939 -0.3732  0.1564 -0.1705
14890SOL    HW145526   1.104   7.707   2.871 -2.4655  0.6086 -2.4346
14890SOL    HW245527   1.058   7.660   3.007  0.5462 -1.7804 -2.1253
14891SOL     OW45528   6.344   4.569   1.162  0.1450 -0.0094 -0.6693
14891SOL    HW145529   6.331   4.608   1.248  1.0817 -0.4098 -0.3359
14891SOL    HW245530   6.354   4.475   1.179  1.0282 -0.0146 -1.1305
14892SOL     OW45531   5.579   1.187   7.662  0.2530 -0.3086  0.1391
14892SOL    HW145532   5.614   1.099   7.672  0.2377 -0.3576 -0.2219
14892SOL    HW245533   5.523   1.182   7.585 -0.7658 -0.2938  0.8577
14893SOL     OW45534   0.689   2.584   7.059 -0.4007  0.1627 -0.0250
14893SOL    HW145535   0.774   2.579   7.015  0.4512  2.0896  1.2316
14893SOL    HW245536   0.708   2.567   7.151 -1.7091 -1.1433  0.0442
14894SOL     OW45537   7.980   6.309   0.397  0.3207  0.5926  0.6242
14894SOL    HW145538   7.930   6.243   0.350 -0.6072  2.5186 -1.2805
14894SOL    HW245539   8.067   6.271   0.408 -0.7567 -1.7581  1.6105
14895SOL     OW45540   1.976   5.409   4.595 -0.3223  0.4413  0.4518
14895SOL    HW145541   2.061   5.448   4.612  1.4808 -2.4159 -1.2157
14895SOL    HW245542   1.929   5.475   4.543  1.3151  1.6192  0.4082
14896SOL     OW45543   5.386   1.839   5.358 -0.1385  0.3288  0.1121
14896SOL    HW145544   5.337   1.757   5.368  2.3803 -1.1878  1.1591
14896SOL    HW245545   5.418   1.837   5.268 -0.2972  0.3026  0.0559
14897SOL     OW45546   4.068   0.677   5.493 -0.0790  0.0829 -0.3233
14897SOL    HW145547   4.146   0.697   5.442 -0.3263  1.1168 -0.3158
14897SOL    HW245548   4.018   0.616   5.438 -0.6728  1.7051 -1.6693
14898SOL     OW45549   1.053   7.848   4.451 -0.3046  0.4993  0.1959
14898SOL    HW145550   0.984   7.915   4.456 -1.5066 -0.7036  0.1275
14898SOL    HW245551   1.097   7.852   4.536 -0.7161  1.0075  0.3914
14899SOL     OW45552   6.712   5.601   3.392 -0.1285 -0.1901  0.0955
14899SOL    HW145553   6.707   5.694   3.373 -0.0995 -0.5995 -2.3590
14899SOL    HW245554   6.623   5.568   3.375 -0.3383 -0.5219  1.6826
14900SOL     OW45555   1.220   2.033   1.630 -0.3743 -0.6555 -0.0407
14900SOL    HW145556   1.160   1.967   1.595  0.8358 -2.4276  1.0660
14900SOL    HW245557   1.269   1.987   1.698 -0.1092  1.6602  1.4453
14901SOL     OW45558   0.759   5.222   0.522 -0.1029 -0.2689  0.4107
14901SOL    HW145559   0.782   5.129   0.518  0.6858 -0.0719  0.0695
14901SOL    HW245560   0.688   5.231   0.459  0.5294 -0.4530 -0.3455
14902SOL     OW45561   7.129   0.644   5.651  0.0820  0.2582 -0.3159
14902SOL    HW145562   7.079   0.590   5.590 -1.3986  0.4548  0.6541
14902SOL    HW245563   7.219   0.612   5.644  0.0482  0.5687 -2.8654
14903SOL     OW45564   5.451   0.478   6.069  0.2720  0.2418  0.1218
14903SOL    HW145565   5.418   0.389   6.055  0.3339  0.2181  0.1271
14903SOL    HW245566   5.393   0.533   6.016  1.0427  0.0596 -0.9451
14904SOL     OW45567   1.623   7.364   6.500  0.1456  0.3156  0.1481
14904SOL    HW145568   1.610   7.458   6.497 -0.2794  0.2668  0.4163
14904SOL    HW245569   1.596   7.338   6.588 -0.7870 -0.2090 -0.2739
14905SOL     OW45570   6.950   3.293   6.327  0.7099  0.1650  0.3060
14905SOL    HW145571   7.006   3.306   6.250 -2.3391  1.1139 -1.9864
14905SOL    HW245572   6.873   3.247   6.292  0.1432 -1.3898  3.3132
14906SOL     OW45573   0.752   3.828   1.683  0.7417  0.0318 -0.2553
14906SOL    HW145574   0.801   3.822   1.765  0.2843  1.2809  0.1294
14906SOL    HW245575   0.815   3.862   1.620  0.6973  0.4587 -0.0666
14907SOL     OW45576   7.415   0.177   5.719  0.5950  0.7080  0.0111
14907SOL    HW145577   7.442   0.099   5.671  0.2733  0.4462  0.2581
14907SOL    HW245578   7.400   0.243   5.651  2.9788  1.2396 -0.1018
14908SOL     OW45579   0.703   4.579   4.017 -0.1861 -0.6588  0.4268
14908SOL    HW145580   0.664   4.593   3.930 -1.1263  1.6907  1.1350
14908SOL    HW245581   0.791   4.614   4.010  0.6132 -2.6413 -0.1670
14909SOL     OW45582   7.020   4.509   7.055  0.4407  0.0666 -0.0805
14909SOL    HW145583   7.001   4.496   7.148  0.8950  0.7077  0.1127
14909SOL    HW245584   7.054   4.599   7.050 -0.9378  0.5661 -1.0678
14910SOL     OW45585   4.557   6.654   2.844  0.5322  0.2839  0.2102
14910SOL    HW145586   4.544   6.563   2.871 -0.7847  0.1158 -0.9266
14910SOL    HW245587   4.602   6.648   2.760 -1.7736  0.5563 -1.1201
14911SOL     OW45588   4.898   3.104   1.285  0.8525  0.3923  0.3323
14911SOL    HW145589   4.816   3.102   1.235  0.0423  1.2554  1.5634
14911SOL    HW245590   4.873   3.138   1.371  2.6541  1.5021  0.4753
14912SOL     OW45591   6.706   0.548   5.729 -0.3082 -0.2193  0.0249
14912SOL    HW145592   6.681   0.477   5.670 -0.4074  0.8062 -1.2369
14912SOL    HW245593   6.623   0.584   5.760 -0.2880 -0.0828 -0.0750
14913SOL     OW45594   4.936   7.442   3.434  0.8430  0.2004  0.1502
14913SOL    HW145595   4.898   7.357   3.411 -0.6586  1.1535 -1.0982
14913SOL    HW245596   5.026   7.437   3.402  0.3232 -0.3939 -1.3148
14914SOL     OW45597   6.300   4.432   2.741  0.3636 -0.0894 -0.2697
14914SOL    HW145598   6.385   4.476   2.752  1.0329 -0.9702 -1.6614
14914SOL    HW245599   6.246   4.497   2.696 -0.2669  1.0698  2.0241
14915SOL     OW45600   6.641   4.377   7.059 -0.4002  0.3920 -0.4610
14915SOL    HW145601   6.651   4.449   7.122 -1.3949 -0.3681  0.6021
14915SOL    HW245602   6.728   4.338   7.053  0.1226  1.5731 -0.9427
14916SOL     OW45603   7.494   1.741   4.741 -0.0581  0.4973  0.0102
14916SOL    HW145604   7.518   1.736   4.833  0.8034  3.3152  0.0542
14916SOL    HW245605   7.577   1.735   4.694 -0.3333  0.4928 -0.4854
14917SOL     OW45606   7.341   7.393   3.442  0.2584  0.1126  0.3893
14917SOL    HW145607   7.337   7.485   3.469  1.3728 -0.2618  1.9701
14917SOL    HW245608   7.401   7.352   3.504  1.3260 -1.2957 -1.4533
14918SOL     OW45609   6.250   3.903   7.919 -0.4174 -0.7273  0.4279
14918SOL    HW145610   6.341   3.876   7.929 -0.4946 -0.8750  0.7411
14918SOL    HW245611   6.206   3.869   7.997 -0.8071 -0.9336  0.1266
14919SOL     OW45612   0.470   5.543   7.553 -0.4481  0.2234  0.4323
14919SOL    HW145613   0.417   5.524   7.475 -1.0919 -0.8172  1.0936
14919SOL    HW245614   0.445   5.632   7.578 -0.5998  0.3827 -0.2713
14920SOL     OW45615   0.984   3.882   2.554  0.0939  0.3149  0.3382
14920SOL    HW145616   1.027   3.966   2.540  1.7654 -0.7870 -1.9588
14920SOL    HW245617   0.905   3.887   2.501  0.4522  0.3056 -0.2153
14921SOL     OW45618   3.922   3.992   3.728  0.0235  0.6109  0.1954
14921SOL    HW145619   3.943   3.952   3.813 -0.3012 -0.8171 -0.3634
14921SOL    HW245620   3.865   4.065   3.750  0.2697  0.5026  1.2440
14922SOL     OW45621   5.177   3.784   1.724  0.1388 -0.1027 -0.5136
14922SOL    HW145622   5.254   3.830   1.690 -0.5935  2.0505  0.5095
14922SOL    HW245623   5.128   3.757   1.647  1.0751  0.0168 -1.1636
14923SOL     OW45624   3.205   1.143   7.124 -0.3485  0.3240 -0.0355
14923SOL    HW145625   3.254   1.140   7.206  0.1383  0.4786 -0.3166
14923SOL    HW245626   3.255   1.202   7.068 -0.0198 -0.7028 -0.8574
14924SOL     OW45627   1.969   2.499   1.434 -0.1671  0.2929  1.0038
14924SOL    HW145628   2.007   2.510   1.521  1.0275 -0.3507  0.5841
14924SOL    HW245629   1.987   2.408   1.411 -2.7961 -0.3538  1.1303
14925SOL     OW45630   4.155   5.650   7.927  0.7185 -0.4329 -0.3562
14925SOL    HW145631   4.157   5.635   8.022 -0.5047 -0.0449 -0.2487
14925SOL    HW245632   4.138   5.744   7.918  0.6622 -0.4994 -0.9664
14926SOL     OW45633   0.542   1.150   5.506 -0.6137  0.3687 -0.0848
14926SOL    HW145634   0.512   1.079   5.449  0.4196 -0.9093  0.9055
14926SOL    HW245635   0.506   1.129   5.592  1.3083 -0.0961  0.6654
14927SOL     OW45636   1.633   0.508   4.072 -0.1931 -0.1534 -0.2632
14927SOL    HW145637   1.692   0.505   3.997 -0.7004 -1.2145 -0.6364
14927SOL    HW245638   1.596   0.597   4.071 -0.7077 -0.3625 -1.6702
14928SOL     OW45639   0.275   0.014   1.095  0.3210 -0.5430 -0.2502
14928SOL    HW145640   0.212  -0.025   1.035  0.7323  1.1670 -1.8926
14928SOL    HW245641   0.244   0.104   1.107  2.9486  0.6966 -1.9924
14929SOL     OW45642   0.907   6.018   1.806  0.4991  0.0677 -0.0122
14929SOL    HW145643   0.861   5.995   1.725  0.9673  0.8928 -0.5258
14929SOL    HW245644   0.958   5.940   1.826 -2.2504 -1.5271  1.4580
14930SOL     OW45645   1.447   3.850   5.710 -0.3226  0.2412 -0.7336
14930SOL    HW145646   1.378   3.823   5.769 -1.9650  0.9890 -2.2150
14930SOL    HW245647   1.486   3.768   5.679 -0.2984 -0.1769  0.3632
14931SOL     OW45648   0.494   5.056   0.612 -0.6162  0.1406 -0.2159
14931SOL    HW145649   0.482   5.148   0.590  0.1842  0.3045  0.0059
14931SOL    HW245650   0.516   5.056   0.706 -1.0473 -0.3082 -0.1108
14932SOL     OW45651   5.962   0.818   5.573  0.1667 -0.0638 -0.4808
14932SOL    HW145652   5.976   0.736   5.526  0.6782 -1.0050  1.2368
14932SOL    HW245653   5.894   0.798   5.637  0.3930  0.8250  0.0517
14933SOL     OW45654   2.258   0.796   0.598  0.1855  0.2595  0.3046
14933SOL    HW145655   2.189   0.857   0.572  0.6010  0.3403 -0.6729
14933SOL    HW245656   2.304   0.776   0.516 -0.9442 -2.6483  0.2974
14934SOL     OW45657   0.998   7.397   5.985 -0.4725 -0.0198 -0.4531
14934SOL    HW145658   0.910   7.360   5.976 -1.2300  1.8037 -1.1306
14934SOL    HW245659   1.029   7.406   5.894  0.4113 -0.6059 -0.2211
14935SOL     OW45660   6.592   3.596   1.893 -0.2367 -0.3499  0.0916
14935SOL    HW145661   6.608   3.622   1.802 -1.7122 -0.8779 -0.3457
14935SOL    HW245662   6.657   3.644   1.943 -0.5591  1.3698 -1.0575
14936SOL     OW45663   6.659   5.759   4.725 -0.4652  0.4928  0.1213
14936SOL    HW145664   6.597   5.756   4.652 -0.9060 -0.9067  0.5189
14936SOL    HW245665   6.741   5.727   4.688 -0.8051 -0.6533  0.3236
14937SOL     OW45666   2.168   2.375   3.409 -0.0183  0.0273 -0.8856
14937SOL    HW145667   2.261   2.380   3.430  0.1788 -0.9567 -1.4608
14937SOL    HW245668   2.125   2.366   3.494  0.5667 -1.4233 -0.7128
14938SOL     OW45669   3.528   4.582   2.665  0.4303  0.2602  0.0246
14938SOL    HW145670   3.468   4.588   2.590 -0.4749  0.4263  0.7375
14938SOL    HW245671   3.549   4.674   2.685 -1.1737  0.3847  1.3789
14939SOL     OW45672   4.561   3.664   7.844 -0.0833 -0.1381 -0.2696
14939SOL    HW145673   4.548   3.674   7.749  0.5697  0.8904 -0.2640
14939SOL    HW245674   4.508   3.734   7.883 -0.4810 -0.6625  0.1433
14940SOL     OW45675   4.470   4.479   2.741 -0.0707 -0.6891  0.6523
14940SOL    HW145676   4.387   4.486   2.787  0.4749 -2.7459  2.1000
14940SOL    HW245677   4.527   4.432   2.802  1.6859 -0.6920 -0.9078
14941SOL     OW45678   6.534   0.861   6.349  0.1169  0.5084  0.4641
14941SOL    HW145679   6.440   0.873   6.361 -0.1809 -2.0759  1.5135
14941SOL    HW245680   6.573   0.943   6.378 -1.7666  1.2128  1.1499
14942SOL     OW45681   3.039   7.815   6.754 -0.0683  0.5279 -0.1074
14942SOL    HW145682   3.051   7.789   6.846  0.3372 -0.7313 -0.4962
14942SOL    HW245683   3.126   7.806   6.715 -0.0530  1.9124 -0.4233
14943SOL     OW45684   3.512   1.901   3.053  0.7228  0.5854  0.3418
14943SOL    HW145685   3.452   1.872   3.122  1.3831  0.5348  0.9113
14943SOL    HW245686   3.455   1.942   2.988  0.1091  0.9301  1.0687
14944SOL     OW45687   2.963   4.228   0.098 -0.1168  0.5150 -0.5229
14944SOL    HW145688   2.945   4.207   0.190 -1.7352  1.1963 -0.6418
14944SOL    HW245689   2.992   4.145   0.060  3.3799  0.7907  1.1560
14945SOL     OW45690   3.574   0.756   3.524 -0.1456  0.0418 -0.5315
14945SOL    HW145691   3.580   0.841   3.481 -0.1057 -0.4422 -1.4966
14945SOL    HW245692   3.583   0.692   3.453  1.4550 -0.7967  0.3675
14946SOL     OW45693   4.570   1.147   6.152 -0.5015 -0.3096 -0.3622
14946SOL    HW145694   4.499   1.092   6.120 -0.5515 -0.9264  0.7596
14946SOL    HW245695   4.560   1.229   6.104 -1.7634 -0.5088 -0.4733
14947SOL     OW45696   6.421   2.242   2.849  0.4522  0.0490  0.2094
14947SOL    HW145697   6.329   2.221   2.835  1.0559 -1.0330 -2.7860
14947SOL    HW245698   6.421   2.336   2.870 -1.3100  0.1215  0.0200
14948SOL     OW45699   6.037   0.734   0.228 -0.2259  0.4587 -0.2519
14948SOL    HW145700   6.124   0.762   0.258  0.7990  0.0778 -2.6548
14948SOL    HW245701   6.048   0.640   0.210 -1.0712  0.4540 -0.7786
14949SOL     OW45702   4.135   3.836   0.206 -0.6273  0.2527  0.1903
14949SOL    HW145703   4.060   3.834   0.265 -0.3200  1.9253  0.6799
14949SOL    HW245704   4.132   3.922   0.165  0.7581  0.1796 -0.1385
14950SOL     OW45705   6.970   6.874   2.268  0.8028 -0.2176 -0.5734
14950SOL    HW145706   7.034   6.925   2.219  0.1575  1.2963  0.0870
14950SOL    HW245707   6.886   6.899   2.230  0.5227 -1.6071 -0.9260
14951SOL     OW45708   1.402   2.292   1.057  0.1264  0.0406  0.6201
14951SOL    HW145709   1.390   2.228   0.987  2.0232 -1.1405  1.3064
14951SOL    HW245710   1.428   2.373   1.012  0.1389 -0.3586 -0.1065
14952SOL     OW45711   1.653   4.584   3.596  0.5105  0.5424  0.4964
14952SOL    HW145712   1.601   4.663   3.581  0.8207  0.7244  0.3915
14952SOL    HW245713   1.659   4.577   3.692  0.0309  0.3487  0.5169
14953SOL     OW45714   3.937   1.434   1.574  0.2923 -0.1585 -0.0903
14953SOL    HW145715   3.852   1.447   1.616  0.4511 -1.0432  0.5463
14953SOL    HW245716   3.920   1.442   1.481 -0.3734  0.2790  0.0668
14954SOL     OW45717   5.330   3.977   4.953 -0.2690  0.0797 -0.0349
14954SOL    HW145718   5.350   4.046   4.889 -0.5085 -0.2111 -0.4225
14954SOL    HW245719   5.380   4.003   5.031  2.4271 -1.0847 -1.2371
14955SOL     OW45720   3.977   5.786   1.090 -0.1142 -0.3926  0.3648
14955SOL    HW145721   4.050   5.732   1.060 -0.4503 -0.6627  0.0307
14955SOL    HW245722   3.947   5.743   1.170 -0.3211 -0.6457  0.1507
14956SOL     OW45723   6.348   7.612   1.993  0.3843 -0.8421 -0.2473
14956SOL    HW145724   6.406   7.598   2.068 -0.5937  0.9359  0.9098
14956SOL    HW245725   6.371   7.543   1.931  1.9810 -1.6922  1.2294
14957SOL     OW45726   1.560   1.629   1.515  0.0817  0.0816  0.2307
14957SOL    HW145727   1.600   1.716   1.508 -1.3544  0.6998 -1.0989
14957SOL    HW245728   1.628   1.569   1.486  1.0399  0.7748  0.9961
14958SOL     OW45729   4.598   0.338   5.644 -0.5089 -0.2250  0.0394
14958SOL    HW145730   4.537   0.380   5.705 -2.5814 -2.7384 -0.1249
14958SOL    HW245731   4.685   0.359   5.679 -1.5544  0.4794  2.4290
14959SOL     OW45732   4.461   5.787   6.974  0.0844  0.0606 -0.1059
14959SOL    HW145733   4.453   5.706   6.923 -0.6463  1.0046 -1.5691
14959SOL    HW245734   4.555   5.796   6.991  0.3766 -0.1898 -1.4829
14960SOL     OW45735   1.286   2.532   6.482  0.4497 -0.2113  0.4224
14960SOL    HW145736   1.329   2.616   6.495  0.6773 -0.3064  0.2899
14960SOL    HW245737   1.307   2.482   6.561 -0.9056  0.3654  1.1799
14961SOL     OW45738   6.095   2.456   5.951  0.4965  0.2796  0.0704
14961SOL    HW145739   6.179   2.482   5.988  1.9282 -2.1757 -1.2010
14961SOL    HW245740   6.066   2.531   5.900  2.1070  1.0342  0.2191
14962SOL     OW45741   0.685   2.943   7.270  0.2719  0.1451 -0.0734
14962SOL    HW145742   0.758   2.911   7.217  0.2980 -0.2854  0.2130
14962SOL    HW245743   0.606   2.919   7.220  0.3333  1.4573 -0.8508
14963SOL     OW45744   7.409   7.151   2.347  0.6937  0.2310 -0.7482
14963SOL    HW145745   7.443   7.224   2.296  1.9526  0.7154  0.7291
14963SOL    HW245746   7.487   7.106   2.380 -0.0791 -0.9402 -0.4471
14964SOL     OW45747   1.261   5.050   4.843  0.1458  0.0309 -0.3378
14964SOL    HW145748   1.200   4.978   4.860 -1.3005  1.0022 -1.2176
14964SOL    HW245749   1.270   5.052   4.747 -0.4202  1.4760 -0.3756
14965SOL     OW45750   7.903   6.790   1.490  0.4496 -0.0834  0.4603
14965SOL    HW145751   7.998   6.804   1.487  0.2167  1.4082 -1.2506
14965SOL    HW245752   7.881   6.797   1.583  2.1331 -1.5999  1.0279
14966SOL     OW45753   6.905   5.618   1.731  0.1112  0.2038 -0.4187
14966SOL    HW145754   6.840   5.688   1.728 -0.9763 -0.6659  1.2877
14966SOL    HW245755   6.984   5.660   1.764  0.0092  0.9678 -1.1061
14967SOL     OW45756   3.976   6.522   4.998 -0.6354 -0.1270 -0.4385
14967SOL    HW145757   4.037   6.484   4.935  0.3969  1.4202 -0.4350
14967SOL    HW245758   3.935   6.447   5.041  0.3752 -1.2015 -1.3003
14968SOL     OW45759   1.150   4.438   1.859 -0.1319 -0.0719  0.2301
14968SOL    HW145760   1.147   4.374   1.929  1.7932 -0.1108  0.3135
14968SOL    HW245761   1.203   4.510   1.893 -0.1679  0.4463 -0.7494
14969SOL     OW45762   6.245   1.869   5.757  0.0851  0.0939  0.8056
14969SOL    HW145763   6.166   1.910   5.793 -0.0637  1.3287 -0.8138
14969SOL    HW245764   6.307   1.940   5.747  0.4488 -0.3683 -0.4268
14970SOL     OW45765   2.290   6.787   3.850 -0.3535  0.1340  0.1299
14970SOL    HW145766   2.349   6.861   3.836 -1.4891  0.9750 -0.3977
14970SOL    HW245767   2.313   6.724   3.781  0.9570 -0.2563  0.8934
14971SOL     OW45768   0.887   0.381   1.238  0.0093  0.5424  0.0029
14971SOL    HW145769   0.973   0.422   1.251  0.2950  0.5066 -1.5744
14971SOL    HW245770   0.867   0.340   1.322  1.9825 -0.2578  0.1331
14972SOL     OW45771   4.671   3.782   2.825  0.6651 -0.2257  0.2172
14972SOL    HW145772   4.603   3.814   2.766 -0.2322 -1.2151  0.6863
14972SOL    HW245773   4.704   3.703   2.782  1.7561  0.4093 -0.1584
14973SOL     OW45774   3.468   0.494   6.678  0.5328 -0.5919 -0.0664
14973SOL    HW145775   3.440   0.476   6.767  0.0422 -0.6526 -0.2306
14973SOL    HW245776   3.387   0.510   6.630  0.7618 -0.9405 -0.5852
14974SOL     OW45777   1.861   0.086   5.889 -0.2591  0.3964  0.4850
14974SOL    HW145778   1.887   0.178   5.887 -0.7780  0.6339  2.6172
14974SOL    HW245779   1.767   0.087   5.870 -0.2466  0.3080  0.4191
14975SOL     OW45780   3.015   5.550   3.552 -0.0234  0.2338 -0.1856
14975SOL    HW145781   2.936   5.560   3.605  0.5155  1.0841  0.4843
14975SOL    HW245782   2.985   5.504   3.474 -1.0348 -0.1283  0.3887
14976SOL     OW45783   1.291   3.947   3.908 -0.4638 -0.2484  0.4501
14976SOL    HW145784   1.246   4.010   3.852  0.6748 -0.0676 -0.2740
14976SOL    HW245785   1.363   3.995   3.947  1.3939 -1.4357 -1.3466
14977SOL     OW45786   5.759   5.268   1.736  0.0859 -0.1062 -0.2042
14977SOL    HW145787   5.795   5.324   1.805  0.8556 -0.4670 -0.3079
14977SOL    HW245788   5.710   5.328   1.680 -2.1567 -0.0469  1.6654
14978SOL     OW45789   1.955   4.510   3.745  0.9546  0.6228  0.1334
14978SOL    HW145790   1.954   4.419   3.776 -0.0419  0.2736 -0.8370
14978SOL    HW245791   1.885   4.553   3.793  2.4506  1.3336  1.7701
14979SOL     OW45792   1.807   7.069   5.641 -0.2539 -0.2507 -0.0226
14979SOL    HW145793   1.861   7.079   5.562  0.9423 -0.3991  0.7489
14979SOL    HW245794   1.806   6.975   5.658 -0.5572 -0.2235  0.1176
14980SOL     OW45795   6.868   4.420   1.654 -0.1914  0.5419  0.2948
14980SOL    HW145796   6.798   4.363   1.686 -0.5163  1.6364  1.5828
14980SOL    HW245797   6.850   4.429   1.560 -0.9883 -0.2688  0.3566
14981SOL     OW45798   7.248   1.453   2.407 -0.0276 -0.3402 -0.1964
14981SOL    HW145799   7.255   1.548   2.392 -0.5945 -0.3348 -0.4376
14981SOL    HW245800   7.281   1.414   2.326 -1.0204 -0.3305 -0.6197
14982SOL     OW45801   4.858   7.063   3.733 -0.0482 -0.1404  0.5732
14982SOL    HW145802   4.838   7.118   3.808 -0.3331  1.1279 -0.4062
14982SOL    HW245803   4.775   7.057   3.684 -0.0569 -1.5502  0.7246
14983SOL     OW45804   0.958   0.543   2.463  0.0937 -0.0116 -0.1699
14983SOL    HW145805   0.925   0.629   2.436 -0.1490  0.1200  0.5284
14983SOL    HW245806   0.984   0.555   2.554  0.6427 -0.5195 -0.2548
14984SOL     OW45807   3.469   7.926   6.245  0.0282  0.8114  0.1054
14984SOL    HW145808   3.470   7.999   6.307  0.2968  1.4754 -0.6590
14984SOL    HW245809   3.526   7.955   6.173 -1.1068  0.5103 -0.9547
14985SOL     OW45810   1.346   6.725   6.549 -0.3085 -0.1944 -0.2656
14985SOL    HW145811   1.279   6.763   6.493 -0.3169  0.6701  0.3216
14985SOL    HW245812   1.405   6.681   6.488 -0.5921  0.3066 -0.9129
14986SOL     OW45813   7.407   4.039   1.205 -0.2089 -0.0471 -0.1786
14986SOL    HW145814   7.501   4.052   1.198  0.0195 -0.9306  0.9615
14986SOL    HW245815   7.386   4.066   1.295 -0.8459 -0.9382 -0.0505
14987SOL     OW45816   3.144   5.539   6.681  0.1915  0.0557 -0.5322
14987SOL    HW145817   3.115   5.454   6.647 -0.2707 -0.0349  0.0712
14987SOL    HW245818   3.063   5.585   6.702  0.4576  0.1908  0.2433
14988SOL     OW45819   4.960   3.421   1.059 -0.2886 -0.4718 -0.0540
14988SOL    HW145820   4.984   3.510   1.034 -0.6203 -0.8310 -1.8096
14988SOL    HW245821   4.986   3.413   1.151 -0.5534  1.5249  0.2260
14989SOL     OW45822   7.005   7.607   1.374 -0.0015  0.1205 -0.4091
14989SOL    HW145823   7.029   7.661   1.299  0.4383  0.1855 -0.2239
14989SOL    HW245824   7.071   7.627   1.440 -0.4381  0.1338  0.0324
14990SOL     OW45825   0.823   2.037   6.853 -0.2566  0.1111  0.0759
14990SOL    HW145826   0.788   1.983   6.924  1.8306 -0.7274  0.5494
14990SOL    HW245827   0.777   2.121   6.861 -2.1638 -0.9229  0.5513
14991SOL     OW45828   5.140   2.895   7.582 -0.2301 -0.4667  0.0696
14991SOL    HW145829   5.211   2.960   7.576 -0.5571 -0.0624  0.5518
14991SOL    HW245830   5.149   2.857   7.669 -0.0601 -1.0546 -0.1987
14992SOL     OW45831   4.624   7.669   0.438 -0.2786 -0.2171  0.2790
14992SOL    HW145832   4.625   7.764   0.445  1.0768 -0.2593  1.1221
14992SOL    HW245833   4.645   7.638   0.526  0.2523 -1.2655 -0.1936
14993SOL     OW45834   2.625   7.166   1.988  0.5660  0.3749 -0.1805
14993SOL    HW145835   2.657   7.257   1.986  2.3421 -0.2066  0.1740
14993SOL    HW245836   2.538   7.173   2.027  0.3312  2.0119 -0.9056
14994SOL     OW45837   0.579   6.701   0.244  0.1982  0.0990 -0.1689
14994SOL    HW145838   0.547   6.755   0.316  0.7127  0.8791 -0.4977
14994SOL    HW245839   0.567   6.756   0.166  0.3227 -0.4388 -0.5722
14995SOL     OW45840   2.330   2.159   6.676  0.1885 -0.1030  0.3163
14995SOL    HW145841   2.274   2.204   6.613  1.6382 -0.9565 -1.6875
14995SOL    HW245842   2.399   2.222   6.695 -0.7442  0.5113  1.8799
14996SOL     OW45843   5.629   4.124   3.340 -0.1408  0.8039  0.3981
14996SOL    HW145844   5.617   4.217   3.360 -0.2371  0.2520  3.3109
14996SOL    HW245845   5.542   4.093   3.314 -0.4672  1.2165  0.9819
14997SOL     OW45846   2.170   2.829   4.087 -0.0476 -0.3848 -0.0893
14997SOL    HW145847   2.129   2.764   4.144 -1.2204  0.5318  0.1616
14997SOL    HW245848   2.179   2.784   4.002  0.7692 -1.4177  0.5173
14998SOL     OW45849   3.242   6.933   6.544  0.0562  0.1548 -0.6963
14998SOL    HW145850   3.186   6.856   6.548  1.9131 -1.2504  0.9832
14998SOL    HW245851   3.182   7.007   6.551 -1.7989 -1.0801 -2.3818
14999SOL     OW45852   7.645   7.465   3.881  0.4777  0.2992 -0.1491
14999SOL    HW145853   7.702   7.522   3.932 -0.0200  0.0319  0.7197
14999SOL    HW245854   7.685   7.379   3.888 -0.2672  0.0230  0.8408
15000SOL     OW45855   5.450   6.037   1.503  0.1716 -0.2165 -0.3997
15000SOL    HW145856   5.447   6.029   1.599  1.3850 -0.1249 -0.3417
15000SOL    HW245857   5.517   6.103   1.487 -0.7479  0.5071 -1.2917
15001SOL     OW45858   2.395   2.511   3.503 -0.3791  0.0655  0.6961
15001SOL    HW145859   2.411   2.562   3.582  1.2621  1.0887 -0.2321
15001SOL    HW245860   2.380   2.577   3.435  2.3308 -0.5379 -0.6431
15002SOL     OW45861   3.263   5.237   2.158  0.4356 -0.4109  0.8531
15002SOL    HW145862   3.242   5.149   2.190 -0.6481 -0.7888 -0.7767
15002SOL    HW245863   3.341   5.224   2.103  0.3221 -0.3411  0.6756
15003SOL     OW45864   7.300   5.650   3.698 -0.6240  1.0926  0.1903
15003SOL    HW145865   7.377   5.599   3.723  1.7390  4.4796  0.4512
15003SOL    HW245866   7.287   5.630   3.605  1.6457  1.6448 -0.2898
15004SOL     OW45867   5.223   5.783   3.843  0.0050 -0.0553 -0.0275
15004SOL    HW145868   5.248   5.855   3.902 -0.1557  0.1257 -0.1791
15004SOL    HW245869   5.249   5.813   3.756 -2.5468  1.0327 -0.5033
15005SOL     OW45870   2.445   7.171   0.641  0.3282 -0.5042 -0.0926
15005SOL    HW145871   2.391   7.250   0.653  0.2131 -0.5380 -0.3861
15005SOL    HW245872   2.461   7.167   0.547 -2.0174 -2.3478 -0.4992
15006SOL     OW45873   7.999   7.442   3.381 -0.3236 -0.0464 -0.2532
15006SOL    HW145874   7.974   7.438   3.473  1.3593  1.0964  0.3134
15006SOL    HW245875   8.039   7.357   3.364 -1.2949 -0.5332 -0.1547
15007SOL     OW45876   3.531   5.170   2.280  0.3936 -0.1024 -0.0939
15007SOL    HW145877   3.560   5.176   2.371  0.1190  0.6393 -0.0455
15007SOL    HW245878   3.436   5.159   2.285  0.4189 -0.4287 -0.2888
15008SOL     OW45879   7.966   2.055   5.328  0.1224 -0.0758  0.2731
15008SOL    HW145880   7.882   2.026   5.364  0.3215 -0.8854  0.1190
15008SOL    HW245881   8.026   2.051   5.402 -0.0674  0.9372  0.4885
15009SOL     OW45882   1.789   4.154   1.993  0.4768  0.4726  0.0961
15009SOL    HW145883   1.760   4.068   1.963 -0.1727  0.5086  0.6014
15009SOL    HW245884   1.864   4.136   2.050  0.7530  0.2958 -0.3159
15010SOL     OW45885   4.690   7.504   1.877 -0.4022 -0.0578 -0.1978
15010SOL    HW145886   4.708   7.577   1.818 -1.5389  1.1648  0.8987
15010SOL    HW245887   4.596   7.486   1.865 -0.3398 -0.7165  0.2217
15011SOL     OW45888   7.761   7.584   0.594  0.7312 -0.0501  0.2952
15011SOL    HW145889   7.818   7.551   0.524  1.2739 -2.3793  1.7555
15011SOL    HW245890   7.819   7.592   0.670  0.1855  2.5747  0.5360
15012SOL     OW45891   3.261   5.577   3.377 -0.6671 -0.5208 -0.1199
15012SOL    HW145892   3.189   5.567   3.439 -0.2204 -1.0688  0.3238
15012SOL    HW245893   3.221   5.616   3.299 -1.1512  0.7049  0.7048
15013SOL     OW45894   6.138   5.594   2.133  0.1028  0.3003 -0.3479
15013SOL    HW145895   6.152   5.524   2.068 -0.7998  0.8531 -1.1711
15013SOL    HW245896   6.224   5.609   2.171  0.4356 -0.8273 -0.6154
15014SOL     OW45897   7.903   6.303   5.655 -0.1825  0.3710 -0.6662
15014SOL    HW145898   7.899   6.232   5.720  0.0042  1.4812  0.6016
15014SOL    HW245899   7.892   6.259   5.571 -2.1642 -0.9227  0.2041
15015SOL     OW45900   5.750   0.687   0.660  1.0489  0.1332  0.1373
15015SOL    HW145901   5.818   0.735   0.613  0.3750  1.2618  0.2707
15015SOL    HW245902   5.754   0.599   0.625  0.9594  0.7882 -1.6230
15016SOL     OW45903   4.135   5.441   1.814  0.3498  0.1325 -0.1705
15016SOL    HW145904   4.072   5.468   1.747  0.4186 -0.3645 -0.4405
15016SOL    HW245905   4.220   5.471   1.782  0.0929  2.3349  0.9981
15017SOL     OW45906   6.143   3.509   7.103 -0.2355 -0.6513  0.6750
15017SOL    HW145907   6.081   3.507   7.176 -3.7797 -0.4950 -2.0402
15017SOL    HW245908   6.135   3.423   7.062 -0.4162  0.1057 -0.9878
15018SOL     OW45909   6.899   5.594   2.581 -0.3375  0.4542  0.1495
15018SOL    HW145910   6.955   5.583   2.504 -1.7541  0.1022 -0.8816
15018SOL    HW245911   6.942   5.544   2.650  0.9692  0.7815 -0.3867
15019SOL     OW45912   1.547   7.753   0.064 -0.1860 -0.4694  0.6808
15019SOL    HW145913   1.616   7.745   0.129  0.5531 -0.1659 -0.0510
15019SOL    HW245914   1.577   7.822   0.004 -0.3358 -1.4803 -0.5981
15020SOL     OW45915   7.086   5.044   3.042  0.5871  0.5916  0.9806
15020SOL    HW145916   7.086   4.949   3.056 -0.3393  0.0401 -2.1154
15020SOL    HW245917   7.001   5.073   3.076  0.3323  0.1157  0.7538
15021SOL     OW45918   5.028   5.747   1.581  0.3665 -0.4060 -0.2731
15021SOL    HW145919   5.076   5.825   1.609 -0.9366  0.6129 -0.7820
15021SOL    HW245920   4.938   5.764   1.606 -0.1395 -1.2346 -1.4426
15022SOL     OW45921   4.559   5.311   1.814 -0.2097 -0.0767 -0.0291
15022SOL    HW145922   4.617   5.388   1.811  0.6717 -0.5405  2.5860
15022SOL    HW245923   4.548   5.293   1.908 -0.7619 -2.8771 -0.5509
15023SOL     OW45924   4.368   1.346   0.268  0.1436  0.2668 -0.2542
15023SOL    HW145925   4.437   1.285   0.242  1.5247  1.7902 -0.3213
15023SOL    HW245926   4.287   1.299   0.249  1.1360 -1.1864 -1.1630
15024SOL     OW45927   4.330   1.365   6.869  0.3892 -0.2138 -0.2238
15024SOL    HW145928   4.425   1.361   6.878  0.6906  0.1272 -2.7449
15024SOL    HW245929   4.311   1.317   6.788 -1.4715  0.7342 -0.3967
15025SOL     OW45930   5.012   7.419   4.643  0.5976  0.3186  0.3246
15025SOL    HW145931   5.017   7.407   4.548 -0.5768 -0.7754  0.3706
15025SOL    HW245932   5.096   7.388   4.675  0.7404  0.0226 -0.3065
15026SOL     OW45933   7.596   2.719   3.057  0.5577 -0.2296 -0.3311
15026SOL    HW145934   7.504   2.745   3.063  0.5147 -0.4095 -0.1892
15026SOL    HW245935   7.645   2.801   3.064  0.4332 -0.2004  0.3476
15027SOL     OW45936   6.670   1.139   5.737 -0.3583  0.6100  0.3074
15027SOL    HW145937   6.582   1.105   5.756 -0.1743 -0.8264 -1.2170
15027SOL    HW245938   6.720   1.119   5.816 -0.9513 -0.2345  0.4927
15028SOL     OW45939   1.110   0.259   1.089 -0.6786  0.2257  0.2574
15028SOL    HW145940   1.064   0.338   1.061 -1.7083 -0.5752 -0.4100
15028SOL    HW245941   1.189   0.290   1.132 -0.4070  1.5737 -1.1605
15029SOL     OW45942   3.525   4.846   5.519  0.2355 -0.6834 -0.0533
15029SOL    HW145943   3.569   4.924   5.485  1.7120 -1.6570 -0.4502
15029SOL    HW245944   3.432   4.870   5.522  0.4320  0.4559 -1.8931
15030SOL     OW45945   0.739   1.040   5.941 -0.0938  0.3301 -0.3039
15030SOL    HW145946   0.708   1.121   5.903  0.5288  0.1321 -1.2818
15030SOL    HW245947   0.661   0.998   5.977 -0.6450  0.6911 -1.0666
15031SOL     OW45948   1.764   4.899   6.179  0.7830  0.4019  0.8521
15031SOL    HW145949   1.809   4.820   6.147 -1.5165 -0.1849 -1.1610
15031SOL    HW245950   1.764   4.889   6.274  0.9374 -1.8322  0.6686
15032SOL     OW45951   1.985   6.464   5.433 -0.1049  0.4505 -0.8103
15032SOL    HW145952   1.903   6.512   5.441 -0.4593 -0.3732  0.7067
15032SOL    HW245953   2.032   6.481   5.514 -0.9919 -3.0647  0.6235
15033SOL     OW45954   3.291   2.739   3.961  0.6844  0.0918 -0.2153
15033SOL    HW145955   3.325   2.817   4.005 -0.3942 -0.1215  1.0593
15033SOL    HW245956   3.301   2.758   3.868  0.9424  1.5225  0.0835
15034SOL     OW45957   6.563   6.969   0.385  0.4801  0.4225  0.2820
15034SOL    HW145958   6.475   6.989   0.354  1.4579 -0.1880 -3.2650
15034SOL    HW245959   6.589   7.047   0.434 -1.1681  1.5845 -0.5797
15035SOL     OW45960   4.142   6.321   5.625 -0.1749  0.2564  0.3806
15035SOL    HW145961   4.162   6.245   5.679  2.5927  2.4619  2.8392
15035SOL    HW245962   4.148   6.395   5.685  0.4050  2.7011 -2.4412
15036SOL     OW45963   4.980   2.012   7.810 -0.3959 -0.0027  0.6292
15036SOL    HW145964   4.912   2.066   7.769  1.2902  0.3012 -2.0047
15036SOL    HW245965   5.028   2.073   7.866 -1.1468  0.1868  1.0877
15037SOL     OW45966   2.482   6.168   2.584  0.1089  0.4658 -0.6702
15037SOL    HW145967   2.532   6.091   2.612  0.1357  0.2183 -1.3831
15037SOL    HW245968   2.436   6.196   2.663  0.1716 -0.2243 -0.3759
15038SOL     OW45969   6.910   1.015   4.559  0.1296 -0.1170  0.0964
15038SOL    HW145970   6.984   1.057   4.514  2.2458  0.6340  3.8477
15038SOL    HW245971   6.913   0.924   4.529  2.5767 -0.0990  0.0336
15039SOL     OW45972   5.996   5.665   7.307  0.0558  0.0460  0.1920
15039SOL    HW145973   5.920   5.681   7.250 -0.2336 -1.0102  0.2715
15039SOL    HW245974   6.072   5.684   7.251 -0.2463  0.9088  0.0494
15040SOL     OW45975   4.574   6.684   4.458  0.7004 -0.6083  0.0498
15040SOL    HW145976   4.594   6.648   4.544  0.0684 -4.2522 -1.1560
15040SOL    HW245977   4.632   6.637   4.398 -1.8239 -1.4444 -1.9318
15041SOL     OW45978   2.567   2.219   0.765  0.2030 -0.0931 -0.4740
15041SOL    HW145979   2.499   2.208   0.831  0.3009 -2.3369 -0.6938
15041SOL    HW245980   2.610   2.301   0.789 -0.6743 -0.1359  1.4018
15042SOL     OW45981   1.314   4.699   4.148 -0.0722 -0.1869 -0.3992
15042SOL    HW145982   1.236   4.649   4.123 -1.7313  1.7015  0.6162
15042SOL    HW245983   1.287   4.791   4.139  1.2356  0.5587  2.1875
15043SOL     OW45984   5.000   2.032   1.978  0.4673  0.1789 -0.2768
15043SOL    HW145985   5.071   2.020   2.041  0.4411 -0.5119 -0.3727
15043SOL    HW245986   5.037   2.005   1.894  0.7488  1.8589 -0.7125
15044SOL     OW45987   4.152   0.992   7.212  0.2167  0.3525 -0.0608
15044SOL    HW145988   4.214   1.061   7.190 -0.4212  0.7398 -0.7013
15044SOL    HW245989   4.180   0.918   7.158  2.5329 -0.8387  2.5584
15045SOL     OW45990   0.278   7.162   2.986  0.4193  0.1398  0.0813
15045SOL    HW145991   0.186   7.189   2.984  0.8930  1.7538 -1.5408
15045SOL    HW245992   0.289   7.107   2.909  0.4876 -1.4015  1.1288
15046SOL     OW45993   4.661   2.161   6.390  0.5067  0.4604  0.2379
15046SOL    HW145994   4.690   2.183   6.478  0.9089  0.4061  0.1189
15046SOL    HW245995   4.697   2.229   6.334  0.6297  0.2451  0.0541
15047SOL     OW45996   5.022   7.301   5.273  0.2779 -0.5460 -0.3648
15047SOL    HW145997   5.110   7.316   5.239 -0.1219 -4.4185 -3.8027
15047SOL    HW245998   4.964   7.347   5.213 -0.1764  0.1302  0.5647
15048SOL     OW45999   3.577   0.366   6.488  0.2031  0.1974  0.7087
15048SOL    HW146000   3.519   0.412   6.549 -0.5692 -0.7756  0.7341
15048SOL    HW246001   3.661   0.363   6.534 -0.2501 -0.1324  1.5531
15049SOL     OW46002   7.640   7.234   6.912  0.5677 -0.1188  0.2438
15049SOL    HW146003   7.549   7.208   6.896  0.9637 -0.7375 -1.1311
15049SOL    HW246004   7.691   7.154   6.900  1.5103  0.6502 -1.1979
15050SOL     OW46005   7.346   2.951   2.456  0.7873 -0.2118  0.2752
15050SOL    HW146006   7.441   2.948   2.442  0.7036  2.6594 -1.8682
15050SOL    HW246007   7.331   3.035   2.498 -0.9728  0.7247 -2.0247
15051SOL     OW46008   3.584   1.097   0.061 -0.1864 -0.2020 -0.2777
15051SOL    HW146009   3.548   1.060   0.142 -0.7969  0.4812 -0.2207
15051SOL    HW246010   3.677   1.110   0.080 -0.5324  1.0225  0.7531
15052SOL     OW46011   2.628   4.289   5.539 -0.0486 -0.0001 -0.3281
15052SOL    HW146012   2.625   4.368   5.593 -1.4781  0.3775 -0.9096
15052SOL    HW246013   2.719   4.283   5.509  0.3480  0.7493  0.6882
15053SOL     OW46014   1.402   3.502   7.857  0.1369  0.1976  0.0926
15053SOL    HW146015   1.416   3.587   7.899  0.8836  1.0572 -1.7640
15053SOL    HW246016   1.490   3.467   7.843 -0.1572 -0.8130  0.6662
15054SOL     OW46017   2.864   2.133   7.656 -0.3188 -0.4375  0.6307
15054SOL    HW146018   2.936   2.192   7.680 -0.5630  1.3646 -2.4544
15054SOL    HW246019   2.798   2.146   7.725  0.4778  1.3826  1.1173
15055SOL     OW46020   2.636   1.336   6.728 -0.1463 -0.2688  0.2669
15055SOL    HW146021   2.572   1.394   6.685  0.0255  0.6919  1.2515
15055SOL    HW246022   2.635   1.365   6.820  3.2013  1.2116 -0.0358
15056SOL     OW46023   5.276   7.410   7.117 -0.4391  0.1620 -0.2808
15056SOL    HW146024   5.308   7.360   7.042 -1.5714  0.5749 -1.0679
15056SOL    HW246025   5.356   7.443   7.159  0.2631 -1.1221 -0.5528
15057SOL     OW46026   6.814   2.421   5.753 -0.0907  0.0824  0.4355
15057SOL    HW146027   6.808   2.360   5.679  1.9259  0.0135  0.2736
15057SOL    HW246028   6.792   2.367   5.830  3.4268 -1.4625  0.5251
15058SOL     OW46029   2.797   2.048   0.107 -0.3604 -0.2433  0.0797
15058SOL    HW146030   2.809   2.048   0.202 -1.4479  0.9074  0.2551
15058SOL    HW246031   2.867   1.992   0.073 -0.3828 -1.2397  1.6014
15059SOL     OW46032   7.721   6.753   6.744  0.4533 -0.0961  0.1195
15059SOL    HW146033   7.751   6.665   6.767 -1.6954 -0.4748  1.7903
15059SOL    HW246034   7.731   6.804   6.825  1.3197  1.1315 -0.7241
15060SOL     OW46035   1.343   2.210   0.160  0.5427 -0.4813  0.3338
15060SOL    HW146036   1.257   2.222   0.119 -0.0354  0.1684  1.6772
15060SOL    HW246037   1.406   2.229   0.091 -0.3810 -1.0243 -0.6928
15061SOL     OW46038   4.468   1.234   4.445 -0.0960  0.0388 -0.2040
15061SOL    HW146039   4.422   1.318   4.450  1.9995  1.1894  1.7491
15061SOL    HW246040   4.402   1.172   4.415 -1.8625  2.2577 -1.2336
15062SOL     OW46041   6.670   7.918   5.963  0.8313  0.1460  0.0888
15062SOL    HW146042   6.707   7.849   5.908 -0.1699  0.3937 -0.9339
15062SOL    HW246043   6.684   7.888   6.053  0.9976 -1.0693 -0.3329
15063SOL     OW46044   3.124   6.681   6.574 -0.5312 -0.1987 -0.4202
15063SOL    HW146045   3.029   6.687   6.561 -1.0279  1.1457  2.7162
15063SOL    HW246046   3.139   6.591   6.601 -1.0077 -0.3113 -0.5343
15064SOL     OW46047   2.259   0.366   6.207 -0.2044  0.4945 -0.4581
15064SOL    HW146048   2.324   0.308   6.246 -0.3175  0.9708  0.4968
15064SOL    HW246049   2.308   0.445   6.184 -0.2763  0.5020 -0.5862
15065SOL     OW46050   3.103   6.977   0.299  0.0535 -0.2811 -0.3125
15065SOL    HW146051   3.041   6.926   0.350  0.9306 -2.0957 -0.9714
15065SOL    HW246052   3.050   7.018   0.230 -0.7320  0.1092  0.5030
15066SOL     OW46053   6.351   2.861   1.280 -0.6503 -0.0727  0.0294
15066SOL    HW146054   6.392   2.777   1.257  1.8103  0.9370  0.3520
15066SOL    HW246055   6.379   2.877   1.370 -0.4896  1.3906 -0.2548
15067SOL     OW46056   6.092   3.149   3.350  0.2315  0.8680  0.6749
15067SOL    HW146057   6.173   3.102   3.368 -0.9780 -0.8279  2.0525
15067SOL    HW246058   6.027   3.106   3.406 -1.7709  1.6889 -0.9067
15068SOL     OW46059   3.266   7.555   3.075  0.3782 -0.9804  0.2673
15068SOL    HW146060   3.350   7.512   3.056  0.8472 -0.7151  1.5787
15068SOL    HW246061   3.291   7.645   3.098  0.0295 -1.4447  2.8187
15069SOL     OW46062   2.590   1.981   1.039 -0.3886 -0.0790 -0.1136
15069SOL    HW146063   2.609   1.931   1.118  0.5774  0.5959  0.0873
15069SOL    HW246064   2.511   2.031   1.061  1.4439  2.3351  1.5210
15070SOL     OW46065   7.560   6.787   7.104  0.3425 -0.4100  0.5756
15070SOL    HW146066   7.547   6.875   7.140 -4.9070 -1.1751  1.4228
15070SOL    HW246067   7.535   6.795   7.012 -0.2350 -0.9730  0.6754
15071SOL     OW46068   0.550   6.347   5.435  0.3406  0.1637 -0.0537
15071SOL    HW146069   0.457   6.371   5.436  0.3252  0.1043  0.6592
15071SOL    HW246070   0.582   6.378   5.350  0.0550  1.7127  0.3664
15072SOL     OW46071   2.466   3.296   4.493  0.2972 -0.6896 -0.0277
15072SOL    HW146072   2.397   3.310   4.558  0.8759 -0.6796  0.6008
15072SOL    HW246073   2.437   3.220   4.443 -0.5319 -0.2253 -0.2741
15073SOL     OW46074   2.916   4.483   4.932 -0.7583 -0.8838 -0.2561
15073SOL    HW146075   2.917   4.566   4.884  0.0633 -0.7643 -0.0526
15073SOL    HW246076   2.825   4.471   4.957 -0.5510  1.1808  1.8125
15074SOL     OW46077   2.981   0.626   3.559  0.3096  0.5648  0.1248
15074SOL    HW146078   3.075   0.638   3.546  0.4105  2.3944  2.0047
15074SOL    HW246079   2.969   0.531   3.564  1.8153  0.2405 -1.4672
15075SOL     OW46080   7.984   3.384   2.687  0.2261 -0.5858  0.2997
15075SOL    HW146081   8.076   3.390   2.662  0.0607 -0.8471 -0.4067
15075SOL    HW246082   7.937   3.431   2.618 -0.0263  1.6598  1.8679
15076SOL     OW46083   5.531   5.753   2.006  0.2242 -0.5687 -0.1504
15076SOL    HW146084   5.585   5.788   1.935 -0.8033 -1.0822 -1.2218
15076SOL    HW246085   5.472   5.826   2.028  0.1516 -0.5974 -0.2444
15077SOL     OW46086   1.258   3.035   6.472 -0.3280 -0.4082  0.1306
15077SOL    HW146087   1.294   2.965   6.417  0.9274 -0.9647  1.6177
15077SOL    HW246088   1.190   3.075   6.417  0.9658 -0.8358 -1.8772
15078SOL     OW46089   4.061   6.906   6.993 -0.4525  0.3723 -0.2250
15078SOL    HW146090   4.096   6.988   7.027 -0.0584  0.2849 -0.4183
15078SOL    HW246091   3.967   6.922   6.982 -0.2052  1.1510 -1.3177
15079SOL     OW46092   0.986   6.917   6.809  0.1045 -0.0581  0.4227
15079SOL    HW146093   0.917   6.856   6.782 -0.7047  0.9562  0.1557
15079SOL    HW246094   1.066   6.864   6.808 -0.4879 -0.9770 -0.3451
15080SOL     OW46095   0.397   6.614   3.935  0.3746 -0.0059  0.3738
15080SOL    HW146096   0.383   6.668   3.857  2.7940  1.5079  0.8955
15080SOL    HW246097   0.416   6.676   4.005  4.1210 -1.3848  0.8248
15081SOL     OW46098   6.683   4.278   7.492  0.2666 -0.7288  0.0329
15081SOL    HW146099   6.627   4.210   7.530  0.3393 -1.3268 -0.8846
15081SOL    HW246100   6.633   4.359   7.504 -0.0480 -1.0135  0.6988
15082SOL     OW46101   7.812   3.603   6.330  0.5555 -0.2297  0.2436
15082SOL    HW146102   7.828   3.697   6.329 -0.0954 -0.1154  0.3828
15082SOL    HW246103   7.726   3.593   6.370  1.2011 -0.9781  1.5350
15083SOL     OW46104   1.663   4.166   3.848 -0.1438  0.3182  0.2643
15083SOL    HW146105   1.579   4.198   3.817  0.0202 -0.8138 -1.4362
15083SOL    HW246106   1.641   4.105   3.919 -0.9357 -1.5638 -1.5189
15084SOL     OW46107   2.635   0.733   0.350  0.2190 -0.2582 -0.3262
15084SOL    HW146108   2.688   0.663   0.311  3.9901  0.5083  2.8219
15084SOL    HW246109   2.567   0.686   0.400  1.9219 -1.6941  0.7582
15085SOL     OW46110   2.591   2.894   5.916  1.3379 -0.3881  0.4731
15085SOL    HW146111   2.527   2.912   5.984  1.5659 -1.7476  1.0875
15085SOL    HW246112   2.669   2.944   5.941  0.7911  0.6625  0.1321
15086SOL     OW46113   0.674   0.814   1.136 -0.3943  0.2767 -0.1863
15086SOL    HW146114   0.592   0.836   1.181 -0.1703 -1.6656  1.2938
15086SOL    HW246115   0.661   0.847   1.047 -2.0684  1.5560  0.4609
15087SOL     OW46116   7.250   6.505   6.331  0.2161  0.5731 -0.1416
15087SOL    HW146117   7.204   6.421   6.335 -1.1958  1.3009 -0.4576
15087SOL    HW246118   7.232   6.545   6.416  2.2326 -0.0797  0.6570
15088SOL     OW46119   2.124   0.243   5.864 -0.4064  0.4064  0.3933
15088SOL    HW146120   2.218   0.255   5.854 -0.4483  0.2301 -0.2789
15088SOL    HW246121   2.110   0.149   5.852 -0.8627  0.6662 -1.3559
15089SOL     OW46122   4.550   2.044   7.101  0.8817 -0.0107  0.6040
15089SOL    HW146123   4.473   2.007   7.059  0.7638  2.3039 -1.4417
15089SOL    HW246124   4.519   2.077   7.185  0.0134 -0.5220  0.4945
15090SOL     OW46125   2.762   3.891   3.679 -0.0930  0.4487  0.0627
15090SOL    HW146126   2.718   3.884   3.764 -1.5003 -2.0901 -0.7748
15090SOL    HW246127   2.806   3.807   3.668 -0.1361  0.6446 -1.8374
15091SOL     OW46128   1.237   3.257   7.216  0.2005  0.0411 -0.6288
15091SOL    HW146129   1.160   3.227   7.168  0.1032 -0.7400 -0.0151
15091SOL    HW246130   1.204   3.276   7.304  0.5742  0.4187 -0.5676
15092SOL     OW46131   5.027   3.784   4.147  0.2716  0.1640  0.2437
15092SOL    HW146132   5.001   3.810   4.235  0.9867  0.2832  0.4252
15092SOL    HW246133   5.041   3.867   4.101  1.9776  0.1547  0.6527
15093SOL     OW46134   1.434   1.862   4.318  0.4673 -0.0177 -0.4784
15093SOL    HW146135   1.527   1.841   4.318 -0.0161 -2.5183 -0.6095
15093SOL    HW246136   1.397   1.807   4.248 -1.3567 -0.5207  0.7950
15094SOL     OW46137   7.728   2.373   0.904 -0.4393 -0.3990 -0.2158
15094SOL    HW146138   7.786   2.425   0.959  0.3796 -0.4384 -1.0041
15094SOL    HW246139   7.671   2.438   0.861 -1.4776 -0.4158  1.0898
15095SOL     OW46140   0.576   6.831   6.028  0.4951 -0.8561  0.0166
15095SOL    HW146141   0.612   6.750   5.992  1.3561 -0.7823  0.6568
15095SOL    HW246142   0.540   6.877   5.953  0.5541 -1.5553 -0.4518
15096SOL     OW46143   5.455   5.393   2.824 -0.5272 -0.2926 -0.3118
15096SOL    HW146144   5.436   5.304   2.852 -0.3508  0.1081  1.1507
15096SOL    HW246145   5.544   5.410   2.853 -1.4103  1.2048  1.7900
15097SOL     OW46146   6.673   4.025   5.582  0.1520 -0.3269  0.1512
15097SOL    HW146147   6.701   4.102   5.632 -2.5571  1.2788 -0.6353
15097SOL    HW246148   6.623   3.972   5.644  0.4528 -0.5302  0.2220
15098SOL     OW46149   0.574   0.784   5.360  0.3133  0.2194 -0.7131
15098SOL    HW146150   0.610   0.698   5.380  2.0089  0.8564 -0.8108
15098SOL    HW246151   0.485   0.767   5.330  0.7899 -1.5414 -1.2551
15099SOL     OW46152   6.313   4.219   2.281  0.4826 -0.0594 -1.0050
15099SOL    HW146153   6.259   4.207   2.360 -1.7316  0.3042 -2.3757
15099SOL    HW246154   6.386   4.159   2.293  0.6201  0.4987  1.6388
15100SOL     OW46155   5.014   2.524   1.442  0.3984 -0.5035 -0.0876
15100SOL    HW146156   4.949   2.482   1.386 -0.0006 -1.5741  1.1140
15100SOL    HW246157   4.979   2.612   1.458  0.1559 -0.4431 -0.8891
15101SOL     OW46158   4.446   3.420   4.190  0.0950  0.3739  1.0617
15101SOL    HW146159   4.517   3.481   4.169  0.1868 -0.3273 -0.8305
15101SOL    HW246160   4.481   3.367   4.262  1.8054 -0.4244 -0.2989
15102SOL     OW46161   7.341   5.155   6.330 -0.3709  0.4181  0.3996
15102SOL    HW146162   7.436   5.139   6.326 -0.5323 -0.5444  0.0587
15102SOL    HW246163   7.333   5.242   6.368  0.6085 -0.2996  2.4014
15103SOL     OW46164   5.896   5.712   0.835  0.2544  1.0320  0.0378
15103SOL    HW146165   5.954   5.650   0.791 -0.1565  0.9533 -0.4072
15103SOL    HW246166   5.808   5.679   0.816 -0.0291  2.4424 -1.2952
15104SOL     OW46167   2.634   2.972   3.466 -0.1089  0.1691  0.2239
15104SOL    HW146168   2.653   2.878   3.464  1.9060  0.5024  1.1381
15104SOL    HW246169   2.597   2.991   3.380 -0.7662 -1.4955  0.1037
15105SOL     OW46170   1.480   7.819   1.962  0.5940 -0.2224 -0.0976
15105SOL    HW146171   1.574   7.811   1.950  0.6103 -0.2366  0.0327
15105SOL    HW246172   1.470   7.895   2.021  0.4283  0.9432 -1.5625
15106SOL     OW46173   7.405   5.681   5.002 -0.0023 -0.6060 -0.4231
15106SOL    HW146174   7.471   5.614   5.020 -0.8404 -1.3497 -0.0512
15106SOL    HW246175   7.323   5.633   4.997 -0.6639  0.4318  0.1495
15107SOL     OW46176   0.565   0.475   4.850  0.5321  0.5618 -0.1495
15107SOL    HW146177   0.645   0.460   4.900  0.9625 -0.6732 -1.1512
15107SOL    HW246178   0.586   0.549   4.793  0.1736  1.7062  1.1469
15108SOL     OW46179   2.717   4.541   4.292 -0.4329  0.0801 -0.2321
15108SOL    HW146180   2.736   4.452   4.262  1.1772  0.6922 -1.1309
15108SOL    HW246181   2.688   4.530   4.383 -0.7279 -1.3905 -0.4820
15109SOL     OW46182   0.309   2.601   2.363 -0.3732  0.0875 -0.2074
15109SOL    HW146183   0.283   2.590   2.454 -1.0511 -1.7927 -0.5801
15109SOL    HW246184   0.236   2.646   2.322  0.6643  2.5589  0.4842
15110SOL     OW46185   3.604   3.658   2.440  0.3492  0.2116  0.4767
15110SOL    HW146186   3.683   3.606   2.430  0.1908 -0.1874  1.2526
15110SOL    HW246187   3.634   3.749   2.441  0.9913  0.0044  2.4842
15111SOL     OW46188   7.437   7.905   1.974  0.0934 -0.6230 -0.3748
15111SOL    HW146189   7.492   7.971   2.015 -1.5761  1.1811 -0.8873
15111SOL    HW246190   7.473   7.822   2.004  2.0982  0.4970  0.5256
15112SOL     OW46191   6.335   4.734   6.168 -0.2587  0.5237  0.5236
15112SOL    HW146192   6.384   4.668   6.119 -1.1119  0.4026 -0.1898
15112SOL    HW246193   6.349   4.710   6.260  1.5695  0.9086  0.3767
15113SOL     OW46194   5.547   3.586   2.679 -0.3323  0.1686  0.4527
15113SOL    HW146195   5.618   3.568   2.617 -0.1726 -0.6464  0.8647
15113SOL    HW246196   5.591   3.611   2.760 -0.5153 -0.2099  0.6713
15114SOL     OW46197   7.757   6.672   2.917 -0.4330 -0.0068  0.6258
15114SOL    HW146198   7.795   6.669   3.005  0.2138  1.9380  0.4416
15114SOL    HW246199   7.706   6.591   2.911  0.7250 -0.9165  2.2224
15115SOL     OW46200   7.879   7.966   4.517  0.0122  0.4737 -0.2399
15115SOL    HW146201   7.922   7.892   4.474  1.3411  0.4603  1.0382
15115SOL    HW246202   7.812   7.925   4.573  1.4937  0.0958  1.3342
15116SOL     OW46203   6.868   7.209   2.634 -0.1143  0.4508 -0.0142
15116SOL    HW146204   6.814   7.171   2.702  0.1729  0.5514  0.2735
15116SOL    HW246205   6.958   7.190   2.661 -0.0116  0.1065 -0.5887
15117SOL     OW46206   1.237   2.228   1.435 -0.2792  0.1868 -0.0616
15117SOL    HW146207   1.219   2.157   1.373  0.3252 -0.4070  0.4261
15117SOL    HW246208   1.234   2.186   1.521  0.8410  0.5858  0.1905
15118SOL     OW46209   0.081   1.712   5.540 -0.0946 -0.3904 -0.2314
15118SOL    HW146210   0.065   1.643   5.605 -1.0950  0.1559  0.1208
15118SOL    HW246211   0.015   1.698   5.473 -0.9898  0.8475  0.3688
15119SOL     OW46212   0.125   2.192   7.487 -0.2651  0.6202  0.3165
15119SOL    HW146213   0.140   2.203   7.393 -1.3125 -1.8833 -0.2177
15119SOL    HW246214   0.146   2.100   7.504 -1.5351  0.6416  2.2432
15120SOL     OW46215   5.908   3.016   7.490 -0.0179  0.1081  0.1082
15120SOL    HW146216   5.813   3.023   7.478  0.0623 -0.8190 -1.3218
15120SOL    HW246217   5.934   3.101   7.524 -1.3049  0.5520  0.0457
15121SOL     OW46218   3.471   1.196   2.744  0.5462 -0.9742 -0.0558
15121SOL    HW146219   3.406   1.146   2.695  1.5728 -1.4364 -0.9994
15121SOL    HW246220   3.527   1.235   2.676  0.6577  0.2205  0.7074
15122SOL     OW46221   0.363   6.878   3.438  0.3251 -0.0730  0.1725
15122SOL    HW146222   0.276   6.887   3.476  0.1900 -0.0215 -0.1448
15122SOL    HW246223   0.359   6.931   3.358  0.2910 -0.9944 -0.4458
15123SOL     OW46224   0.491   6.783   2.475 -0.1482  0.2253  0.0585
15123SOL    HW146225   0.428   6.715   2.450 -2.0709  2.0552 -0.3267
15123SOL    HW246226   0.462   6.813   2.561  1.4935 -0.3165  0.8483
15124SOL     OW46227   2.840   2.988   4.723  0.4969 -0.0108 -0.1000
15124SOL    HW146228   2.850   3.024   4.635  0.5409 -0.1379 -0.1465
15124SOL    HW246229   2.746   2.972   4.732  0.5558 -0.4846 -0.3135
15125SOL     OW46230   0.310   3.492   5.866 -0.2233  0.0636  0.1618
15125SOL    HW146231   0.392   3.500   5.916 -0.5790  0.8841  0.6192
15125SOL    HW246232   0.255   3.435   5.919 -0.3244  0.3307  0.3431
15126SOL     OW46233   2.259   7.762   7.785  0.0278  0.6356  0.1603
15126SOL    HW146234   2.293   7.851   7.794  1.7168  0.0305  0.1304
15126SOL    HW246235   2.314   7.722   7.718 -0.1182 -0.6957  0.8095
15127SOL     OW46236   0.903   6.415   4.880  0.4005  0.6071  0.0288
15127SOL    HW146237   0.965   6.464   4.933  1.2129  1.3985 -1.5735
15127SOL    HW246238   0.948   6.401   4.797 -1.0786  0.0280 -0.7195
15128SOL     OW46239   6.278   4.834   3.635 -0.4669 -0.0097 -0.1265
15128SOL    HW146240   6.292   4.748   3.674 -0.6029 -0.5045 -1.1359
15128SOL    HW246241   6.206   4.873   3.686 -0.9601 -0.8259 -0.1879
15129SOL     OW46242   3.369   3.069   2.730 -0.2646  0.0946  0.4274
15129SOL    HW146243   3.345   2.979   2.707 -2.3443  0.6555  0.2584
15129SOL    HW246244   3.393   3.109   2.646  0.3275 -0.1839  0.4555
15130SOL     OW46245   3.532   2.312   6.634  0.0352 -0.1366  0.2711
15130SOL    HW146246   3.491   2.352   6.710  0.3941 -2.9280  2.0535
15130SOL    HW246247   3.626   2.316   6.653  0.1002 -1.3385  0.2704
15131SOL     OW46248   7.015   4.724   0.365 -0.3049 -0.0023 -0.2209
15131SOL    HW146249   7.009   4.797   0.304 -1.4013 -0.8847 -1.2097
15131SOL    HW246250   7.094   4.677   0.339  0.0323  0.4346 -0.0089
15132SOL     OW46251   5.518   0.405   7.367  0.3644 -0.1353 -0.2692
15132SOL    HW146252   5.471   0.476   7.324 -0.5056 -0.5552 -0.0292
15132SOL    HW246253   5.597   0.393   7.314  0.0749  0.4010 -0.8293
15133SOL     OW46254   6.786   3.299   0.388 -0.4390  0.0865 -0.7854
15133SOL    HW146255   6.821   3.380   0.350  0.5473 -0.0243 -0.1281
15133SOL    HW246256   6.805   3.305   0.481 -1.4077 -0.3862 -0.5405
15134SOL     OW46257   6.617   2.030   0.956  0.2490  0.6091  0.2087
15134SOL    HW146258   6.707   2.058   0.970 -0.1198  1.8878  0.1045
15134SOL    HW246259   6.564   2.090   1.008 -0.5833  0.2312 -0.1765
15135SOL     OW46260   4.979   1.554   7.883  0.4309  0.1857 -0.5970
15135SOL    HW146261   4.956   1.463   7.904 -0.7250  0.9202  1.5393
15135SOL    HW246262   4.923   1.575   7.808  0.0795 -0.5989 -0.5742
15136SOL     OW46263   7.363   2.191   2.101 -0.2284 -0.0557  0.5972
15136SOL    HW146264   7.415   2.112   2.082  1.1636  0.6679  1.2811
15136SOL    HW246265   7.363   2.197   2.196 -0.9477  0.3754  0.5722
15137SOL     OW46266   6.428   7.479   2.519 -0.0147  0.0090  0.1843
15137SOL    HW146267   6.495   7.537   2.554 -0.3018  0.3572  0.1633
15137SOL    HW246268   6.406   7.421   2.592  1.8640 -1.5718 -0.4250
15138SOL     OW46269   2.760   1.301   7.383 -0.0608  0.2246 -0.4156
15138SOL    HW146270   2.808   1.313   7.465  1.2886 -0.9114 -0.9999
15138SOL    HW246271   2.717   1.216   7.392  0.6820 -0.2420 -1.1448
15139SOL     OW46272   1.999   3.159   6.125 -0.0455 -0.0113 -0.0951
15139SOL    HW146273   2.015   3.191   6.214  0.3190  1.2082 -0.5702
15139SOL    HW246274   1.908   3.129   6.126 -0.7418  1.9382  0.1753
15140SOL     OW46275   4.521   7.154   7.051 -0.3922 -0.4042  0.3088
15140SOL    HW146276   4.435   7.194   7.062 -0.5172 -0.4587 -0.3937
15140SOL    HW246277   4.503   7.073   7.002  0.1215 -0.0809 -0.4358
15141SOL     OW46278   1.220   0.499   2.355  0.6189  0.3514 -0.3525
15141SOL    HW146279   1.186   0.433   2.295  1.3461 -0.1378 -0.2440
15141SOL    HW246280   1.143   0.530   2.403  0.1347  0.2438 -1.0341
15142SOL     OW46281   6.590   0.433   7.991 -0.0415 -0.0752 -0.1741
15142SOL    HW146282   6.642   0.429   7.910  1.3064  1.1203  0.5879
15142SOL    HW246283   6.624   0.361   8.044 -0.1560 -0.1742 -0.2348
15143SOL     OW46284   6.118   7.795   3.451  0.1962  0.1665  0.0767
15143SOL    HW146285   6.200   7.820   3.407  0.3817 -0.7949 -0.1479
15143SOL    HW246286   6.128   7.702   3.469 -0.5439  0.2059  0.7374
15144SOL     OW46287   4.925   0.617   0.114 -0.5296 -0.2936 -0.2609
15144SOL    HW146288   4.989   0.675   0.070 -2.0003  1.1778 -0.5527
15144SOL    HW246289   4.902   0.664   0.194 -0.0750 -1.5867  0.6542
15145SOL     OW46290   7.462   0.765   7.714 -0.1554  0.4829  0.2487
15145SOL    HW146291   7.452   0.853   7.677 -1.8603  1.2386  2.2902
15145SOL    HW246292   7.392   0.758   7.779  0.4627 -2.0846  0.7629
15146SOL     OW46293   5.541   0.736   2.016 -0.0932 -0.6364  0.3732
15146SOL    HW146294   5.587   0.665   1.971 -0.6954 -1.7391  1.4007
15146SOL    HW246295   5.472   0.762   1.956  1.5840  0.7794 -1.0262
15147SOL     OW46296   5.552   7.734   5.329 -0.3282 -0.6943 -0.0506
15147SOL    HW146297   5.590   7.657   5.287 -0.9916 -0.6226 -0.7929
15147SOL    HW246298   5.518   7.701   5.412 -0.7321 -1.2426 -0.4243
15148SOL     OW46299   0.070   5.116   5.500  0.3756  0.3235  0.4298
15148SOL    HW146300   0.066   5.050   5.431  1.9515 -0.5096  1.0665
15148SOL    HW246301   0.163   5.120   5.524 -0.1677  0.2697  2.7742
15149SOL     OW46302   5.673   5.159   3.458 -0.8327  0.2128 -0.1267
15149SOL    HW146303   5.640   5.074   3.487  0.0308 -0.1855 -0.2756
15149SOL    HW246304   5.679   5.211   3.538 -1.4844  0.1842 -0.0527
15150SOL     OW46305   2.948   0.404   2.697 -0.7114 -0.2658 -0.4358
15150SOL    HW146306   2.977   0.348   2.768 -0.8038 -0.8463 -0.8499
15150SOL    HW246307   3.028   0.443   2.663 -0.6717  0.0476  0.0103
15151SOL     OW46308   5.006   1.746   3.080 -0.2191 -0.1703 -0.4827
15151SOL    HW146309   5.028   1.837   3.100  0.1999  0.0172 -1.6851
15151SOL    HW246310   5.085   1.711   3.039  0.2798 -1.6483  1.5704
15152SOL     OW46311   6.818   3.023   3.271 -0.1445 -0.4334  0.1057
15152SOL    HW146312   6.772   3.078   3.333 -1.5023 -0.9041 -0.4498
15152SOL    HW246313   6.894   3.075   3.244 -1.7032  1.4468 -0.8584
15153SOL     OW46314   1.105   5.972   2.516 -0.3277 -0.1787 -0.0387
15153SOL    HW146315   1.095   5.941   2.606  1.0805 -4.3157 -1.0799
15153SOL    HW246316   1.016   5.971   2.481 -0.5934 -1.1580  0.6184
15154SOL     OW46317   2.505   0.711   4.280  0.2947  0.1539 -0.2126
15154SOL    HW146318   2.540   0.626   4.253 -1.3959 -0.3388 -0.9691
15154SOL    HW246319   2.440   0.689   4.347  1.1858  1.0390  0.9991
15155SOL     OW46320   7.387   5.562   7.397 -0.1713 -0.1130  0.0987
15155SOL    HW146321   7.334   5.483   7.384 -0.0149 -0.1211 -0.5153
15155SOL    HW246322   7.344   5.607   7.470 -0.4724 -0.5859  0.2213
15156SOL     OW46323   7.730   5.961   6.801 -0.7021  0.1006  0.0362
15156SOL    HW146324   7.782   6.026   6.849  0.2803  0.2028 -1.1014
15156SOL    HW246325   7.703   5.898   6.867  0.1166  0.5446  0.8200
15157SOL     OW46326   7.403   5.673   1.497 -0.1727  0.3358  0.4490
15157SOL    HW146327   7.372   5.586   1.520 -1.8103  1.1989  1.7314
15157SOL    HW246328   7.401   5.675   1.401  0.0657 -1.0785  0.4027
15158SOL     OW46329   1.250   2.416   0.680 -0.0802 -0.0811  0.5092
15158SOL    HW146330   1.217   2.501   0.652  0.6744  0.6929  1.8821
15158SOL    HW246331   1.339   2.411   0.644 -0.8000 -1.1862 -1.2575
15159SOL     OW46332   7.503   0.664   7.247  0.0242 -0.1303  0.0473
15159SOL    HW146333   7.542   0.578   7.262  0.2292  0.0967  0.8794
15159SOL    HW246334   7.557   0.703   7.178  2.5503  0.9325  2.4462
15160SOL     OW46335   0.254   7.485   3.100 -0.2944  0.1402  0.2890
15160SOL    HW146336   0.311   7.477   3.176 -1.0033  0.2272  0.8474
15160SOL    HW246337   0.187   7.417   3.113 -0.0061 -0.3330 -0.6340
15161SOL     OW46338   5.968   0.463   2.421  0.7831 -0.2639  0.2226
15161SOL    HW146339   5.952   0.510   2.503 -1.0021 -0.6113  0.1097
15161SOL    HW246340   5.987   0.533   2.358  0.1364  0.1826  0.5005
15162SOL     OW46341   3.174   5.723   1.493  0.0131 -0.7226 -0.8465
15162SOL    HW146342   3.122   5.643   1.502 -1.7245  0.2502 -1.6954
15162SOL    HW246343   3.153   5.774   1.571  2.3560 -1.6802  0.5227
15163SOL     OW46344   3.068   1.975   4.514  0.3546 -0.3305 -0.4753
15163SOL    HW146345   3.054   1.892   4.468  0.3654 -0.1796 -0.7480
15163SOL    HW246346   3.000   1.977   4.581 -1.2565  0.6098 -2.0564
15164SOL     OW46347   0.629   5.735   0.289  0.5983  0.2023  0.5023
15164SOL    HW146348   0.562   5.786   0.335 -2.5739 -1.3659 -1.9556
15164SOL    HW246349   0.656   5.790   0.216 -2.0466 -0.9766 -1.5326
15165SOL     OW46350   1.237   3.260   4.014  0.1839  0.0863  0.4446
15165SOL    HW146351   1.155   3.217   3.986  0.4376  0.2491 -0.5982
15165SOL    HW246352   1.209   3.341   4.054 -0.1471  0.6456 -0.8541
15166SOL     OW46353   5.559   2.107   1.677  0.3485 -0.2504 -0.3456
15166SOL    HW146354   5.490   2.043   1.660  0.8945 -0.5546 -1.4863
15166SOL    HW246355   5.640   2.062   1.653  0.7843  0.7135 -0.7158
15167SOL     OW46356   5.942   2.156   2.455  0.0456  0.7842 -0.4447
15167SOL    HW146357   6.028   2.161   2.412  0.8076 -0.4432  0.8523
15167SOL    HW246358   5.934   2.239   2.502  0.3549  1.0528 -0.8534
15168SOL     OW46359   6.705   5.507   0.863 -0.3921 -0.1883 -0.3950
15168SOL    HW146360   6.637   5.459   0.910 -0.0346  1.1379  1.5746
15168SOL    HW246361   6.763   5.438   0.830 -0.7531 -1.2165  0.9906
15169SOL     OW46362   7.174   5.390   7.275  0.2070 -0.2819 -0.5186
15169SOL    HW146363   7.115   5.426   7.208 -1.3310 -0.1210  0.8365
15169SOL    HW246364   7.115   5.352   7.340  1.6993 -1.9371 -0.0626
15170SOL     OW46365   6.552   2.647   3.280  0.1435 -0.1569  0.2271
15170SOL    HW146366   6.502   2.667   3.359  1.2930  1.8900  0.5156
15170SOL    HW246367   6.635   2.612   3.312 -0.3113 -1.6507 -0.1789
15171SOL     OW46368   7.915   2.400   0.668 -0.3580  0.1027 -0.1502
15171SOL    HW146369   7.925   2.363   0.580 -0.8758  1.9709 -1.0319
15171SOL    HW246370   7.973   2.476   0.669 -0.8686  0.4951  0.8821
15172SOL     OW46371   5.889   4.295   3.319  0.1836 -0.3943  0.0831
15172SOL    HW146372   5.962   4.339   3.275  2.4238 -2.0408  1.9030
15172SOL    HW246373   5.889   4.207   3.282 -0.2728 -0.6888  0.7619
15173SOL     OW46374   1.449   5.392   0.744  0.0063 -0.0766  0.5651
15173SOL    HW146375   1.523   5.395   0.683 -0.3872  1.9817  0.1252
15173SOL    HW246376   1.372   5.409   0.689 -0.8741 -2.2599  0.9956
15174SOL     OW46377   2.434   2.554   6.582 -0.4594  0.1215 -0.0873
15174SOL    HW146378   2.352   2.570   6.629  0.6127  0.0469  1.9305
15174SOL    HW246379   2.497   2.613   6.625  1.0070 -1.3347 -0.1474
15175SOL     OW46380   2.986   4.638   3.528  0.3863  0.2836 -0.0622
15175SOL    HW146381   3.016   4.684   3.449  1.7177 -0.0470  0.2134
15175SOL    HW246382   2.910   4.687   3.557 -0.1069  0.4443 -1.5237
15176SOL     OW46383   0.506   4.400   4.056 -0.1168 -0.5097  0.0850
15176SOL    HW146384   0.580   4.455   4.032 -0.3452 -0.8555 -1.5793
15176SOL    HW246385   0.429   4.451   4.031 -0.3951 -0.6944  0.5532
15177SOL     OW46386   4.516   1.827   0.940 -0.0587 -0.2552  0.0390
15177SOL    HW146387   4.543   1.814   1.031 -0.8803  1.9354  0.6702
15177SOL    HW246388   4.453   1.899   0.944 -0.0012  0.0036 -2.2938
15178SOL     OW46389   2.764   4.418   2.313 -0.2014  0.0418  0.4280
15178SOL    HW146390   2.785   4.330   2.282  1.0935  0.2183  0.7454
15178SOL    HW246391   2.694   4.448   2.256  0.9314 -0.3053 -1.2130
15179SOL     OW46392   5.031   1.882   3.700 -0.0258 -0.4537 -0.2046
15179SOL    HW146393   4.957   1.822   3.712  0.0097 -0.4586  0.0016
15179SOL    HW246394   5.041   1.923   3.786  0.5779 -0.8769 -0.0682
15180SOL     OW46395   0.604   4.069   6.446  0.4442  0.1299 -0.0685
15180SOL    HW146396   0.682   4.017   6.428  0.0695 -0.4765  0.0091
15180SOL    HW246397   0.616   4.149   6.395  1.6375  0.5505  0.8292
15181SOL     OW46398   4.317   4.271   4.118  0.3506 -0.8486 -0.3688
15181SOL    HW146399   4.368   4.219   4.179  2.0523  0.2412 -0.8079
15181SOL    HW246400   4.322   4.222   4.035  1.2187 -0.4417 -0.5645
15182SOL     OW46401   4.337   5.341   6.102  0.0552 -0.1153 -0.6092
15182SOL    HW146402   4.308   5.396   6.174  1.1721 -0.9005  0.4771
15182SOL    HW246403   4.270   5.352   6.035 -1.9727 -0.7267  1.2061
15183SOL     OW46404   2.144   5.257   3.285  0.1261 -0.0284 -0.2163
15183SOL    HW146405   2.189   5.188   3.238  0.7573  0.2072  0.0261
15183SOL    HW246406   2.075   5.286   3.226 -0.4097 -1.1416 -0.1463
15184SOL     OW46407   1.445   6.528   3.412 -0.7068  0.1804 -0.0280
15184SOL    HW146408   1.362   6.568   3.438 -0.3894  0.8778 -0.0735
15184SOL    HW246409   1.484   6.498   3.494 -1.0724 -0.2968 -0.0228
15185SOL     OW46410   7.369   4.810   1.887 -0.1981 -0.2819  0.6351
15185SOL    HW146411   7.407   4.762   1.813 -1.2663 -0.5126  0.2219
15185SOL    HW246412   7.324   4.743   1.939  1.7565 -0.3882  2.3571
15186SOL     OW46413   7.024   4.465   7.325  0.3162  0.2592  0.6925
15186SOL    HW146414   7.108   4.466   7.371 -0.6340 -0.5206  2.5188
15186SOL    HW246415   6.970   4.529   7.371  0.0468  1.1623 -0.8148
15187SOL     OW46416   0.473   6.441   0.348 -0.5284 -0.0877 -0.2198
15187SOL    HW146417   0.380   6.443   0.373 -0.7452  0.9051 -1.0159
15187SOL    HW246418   0.494   6.533   0.331  0.4219 -0.3912 -0.7104
15188SOL     OW46419   4.956   3.937   1.324 -0.1009 -0.8698  0.5477
15188SOL    HW146420   4.885   4.000   1.322  0.1158 -0.6151 -1.8945
15188SOL    HW246421   5.002   3.955   1.407 -0.7493  1.3399  0.4893
15189SOL     OW46422   2.059   1.630   1.430  1.2665  0.0608 -0.5189
15189SOL    HW146423   2.138   1.680   1.447  1.4927  0.0181 -1.3693
15189SOL    HW246424   2.050   1.631   1.334 -1.1776  2.2787 -0.3667
15190SOL     OW46425   5.022   4.501   7.929 -0.0076  0.4445  0.2832
15190SOL    HW146426   5.085   4.475   7.862 -0.3948  0.1909  0.0099
15190SOL    HW246427   5.075   4.525   8.005  0.3769 -0.6164  0.3562
15191SOL     OW46428   2.865   3.462   3.267 -0.2713  0.4009  0.2302
15191SOL    HW146429   2.786   3.511   3.291 -1.1427 -1.6731  1.9490
15191SOL    HW246430   2.908   3.444   3.351  2.2370  1.6525 -0.6735
15192SOL     OW46431   1.868   3.591   6.915 -0.1354  0.2032 -0.5425
15192SOL    HW146432   1.796   3.651   6.897 -0.3106 -0.2469 -1.4033
15192SOL    HW246433   1.947   3.644   6.900 -0.2860  0.1674 -1.5735
15193SOL     OW46434   7.766   3.458   2.046 -0.1213  0.1995 -0.5168
15193SOL    HW146435   7.849   3.504   2.037 -0.9551  1.4806 -2.2276
15193SOL    HW246436   7.733   3.484   2.133  0.0292  1.8350 -0.9210
15194SOL     OW46437   4.626   3.417   3.361 -0.0004  0.2190  0.2387
15194SOL    HW146438   4.626   3.327   3.329  2.3676  0.4405 -0.5222
15194SOL    HW246439   4.583   3.412   3.447 -0.9984 -1.3937 -0.3172
15195SOL     OW46440   6.147   6.753   1.944  0.9417  0.0263 -0.2792
15195SOL    HW146441   6.106   6.686   1.890  0.8389  0.3795 -0.6429
15195SOL    HW246442   6.142   6.833   1.891 -1.4241  0.9707  1.2625
15196SOL     OW46443   4.602   0.045   6.968 -0.3349  0.4746 -0.2464
15196SOL    HW146444   4.665   0.098   6.919  1.8429 -2.7370 -1.2353
15196SOL    HW246445   4.596   0.089   7.053  0.2667  3.0015 -1.4199
15197SOL     OW46446   5.493   0.635   6.671 -0.7619 -0.2174  0.0191
15197SOL    HW146447   5.461   0.688   6.744  2.7331 -0.0028  1.5955
15197SOL    HW246448   5.488   0.693   6.595 -0.3701  1.1611  0.9990
15198SOL     OW46449   1.361   6.542   0.923 -0.1469 -0.1990  0.4062
15198SOL    HW146450   1.447   6.520   0.885 -0.0840  2.8280 -1.5215
15198SOL    HW246451   1.380   6.559   1.015  0.5601 -3.1382  0.9170
15199SOL     OW46452   7.067   3.088   0.485  0.1597  0.3388 -0.6153
15199SOL    HW146453   7.153   3.090   0.528  0.5382 -0.0494 -1.3306
15199SOL    HW246454   7.086   3.109   0.393  0.0359 -3.3333 -1.6259
15200SOL     OW46455   6.290   5.119   6.304  0.5604  0.2644 -0.2862
15200SOL    HW146456   6.301   5.086   6.215 -1.5668 -1.7870  0.0917
15200SOL    HW246457   6.222   5.186   6.297  1.6570  1.3751 -0.4295
15201SOL     OW46458   6.905   3.464   6.928 -0.0124 -0.1594 -0.1233
15201SOL    HW146459   6.979   3.430   6.876  1.3761  0.8804  1.0933
15201SOL    HW246460   6.872   3.387   6.975  0.6767 -0.5417 -0.2485
15202SOL     OW46461   3.091   3.576   2.614 -0.4188  0.1068 -0.6937
15202SOL    HW146462   3.052   3.623   2.540 -0.0938 -1.6489 -2.0406
15202SOL    HW246463   3.160   3.634   2.646 -2.3403  2.1318  0.0824
15203SOL     OW46464   7.517   4.082   1.956  0.6124  0.3610  0.1818
15203SOL    HW146465   7.600   4.107   1.997  0.2258 -0.6710  1.6693
15203SOL    HW246466   7.491   4.159   1.906  1.9891  1.0395  0.4493
15204SOL     OW46467   0.751   5.756   6.476  0.1825 -0.1127 -0.3492
15204SOL    HW146468   0.749   5.746   6.380 -0.2382 -2.6985 -0.1522
15204SOL    HW246469   0.660   5.768   6.501  0.3975  1.6584 -0.3125
15205SOL     OW46470   4.716   5.377   0.528  0.1862  0.0750 -0.4020
15205SOL    HW146471   4.644   5.391   0.590 -2.0636  0.3493 -2.8753
15205SOL    HW246472   4.724   5.282   0.521 -0.1539  0.0397 -0.3333
15206SOL     OW46473   5.730   6.810   5.927 -0.7081  0.4731 -0.0144
15206SOL    HW146474   5.813   6.762   5.935 -1.3377 -0.5678  0.5703
15206SOL    HW246475   5.680   6.785   6.005 -1.6168  0.9953 -0.4093
15207SOL     OW46476   0.972   2.109   4.632  0.0129 -0.2763 -0.2751
15207SOL    HW146477   1.007   2.046   4.569 -0.4018 -1.7415  0.8995
15207SOL    HW246478   0.887   2.073   4.657 -0.6721  1.2637 -0.2718
15208SOL     OW46479   0.060   1.169   2.753 -0.7645 -0.7509  0.5567
15208SOL    HW146480   0.043   1.092   2.808 -2.0458 -0.3511  0.7512
15208SOL    HW246481  -0.018   1.224   2.764  0.7442  1.2919  1.6051
15209SOL     OW46482   3.931   2.377   2.624  0.4352 -0.1008 -0.0010
15209SOL    HW146483   3.934   2.311   2.694 -0.4679  1.3025  1.4404
15209SOL    HW246484   3.931   2.460   2.671  0.9838  0.9280 -1.7551
15210SOL     OW46485   6.503   2.358   5.897  0.0978 -0.0027  0.3719
15210SOL    HW146486   6.567   2.292   5.924  0.4127 -0.8655 -2.2139
15210SOL    HW246487   6.431   2.306   5.860 -0.5073  1.0625  0.0289
15211SOL     OW46488   7.586   3.077   0.336  0.2490  0.2381 -0.0314
15211SOL    HW146489   7.566   3.168   0.358  0.5181  0.1896  0.4360
15211SOL    HW246490   7.517   3.051   0.275 -1.4081 -0.0866  1.8979
15212SOL     OW46491   5.120   2.797   2.412  1.0665  0.3683 -0.3591
15212SOL    HW146492   5.156   2.806   2.500  0.5491 -1.6792  0.1195
15212SOL    HW246493   5.176   2.851   2.357  1.2596  1.8881  1.2441
15213SOL     OW46494   5.583   5.560   0.222 -0.2401 -0.3654 -0.0194
15213SOL    HW146495   5.630   5.643   0.221  0.7590 -0.9130 -0.2636
15213SOL    HW246496   5.493   5.583   0.243  0.0051  0.7838 -0.1858
15214SOL     OW46497   0.015   6.093   7.633 -0.5188 -0.5713  0.0426
15214SOL    HW146498   0.085   6.078   7.697 -0.6437 -1.4177  0.0020
15214SOL    HW246499  -0.058   6.126   7.685 -0.2740 -0.2409  0.1761
15215SOL     OW46500   3.110   6.182   2.077 -0.2526  0.1796  0.5670
15215SOL    HW146501   3.022   6.220   2.086 -0.5300 -0.5068  0.7596
15215SOL    HW246502   3.096   6.104   2.024  0.5039  1.0164 -0.9289
15216SOL     OW46503   4.973   0.031   0.238 -0.2524  0.1276  0.9568
15216SOL    HW146504   4.885   0.021   0.203 -0.4739  0.6442  1.3631
15216SOL    HW246505   4.961   0.060   0.328  0.3275  1.0896  0.7472
15217SOL     OW46506   5.756   0.097   0.768 -0.1635 -0.2888  0.2399
15217SOL    HW146507   5.705   0.035   0.715 -0.7272 -1.2433  1.8428
15217SOL    HW246508   5.789   0.045   0.841 -1.7321  1.5158  2.3798
15218SOL     OW46509   2.273   6.330   1.608 -0.4017  0.1412 -0.9514
15218SOL    HW146510   2.314   6.360   1.526 -0.3405 -0.3984 -1.1208
15218SOL    HW246511   2.199   6.390   1.620  0.2910  0.9832 -0.7605
15219SOL     OW46512   0.346   6.130   0.643 -0.4347  0.2713  0.0433
15219SOL    HW146513   0.419   6.131   0.581 -0.6945 -2.3620 -0.4117
15219SOL    HW246514   0.374   6.069   0.712 -1.3562  0.8765  0.9754
15220SOL     OW46515   1.515   7.060   7.539 -0.6647  0.5852 -0.3988
15220SOL    HW146516   1.576   7.130   7.516 -0.4541  0.5519  0.0531
15220SOL    HW246517   1.429   7.103   7.540 -0.4808  0.9426  0.3349
15221SOL     OW46518   2.751   2.245   1.279 -0.2846  0.4838  0.0740
15221SOL    HW146519   2.771   2.155   1.305  0.2923  0.0753 -1.6232
15221SOL    HW246520   2.821   2.268   1.218 -1.1772  1.5890 -0.5799
15222SOL     OW46521   6.517   2.765   0.656  0.2317  0.0026 -0.3066
15222SOL    HW146522   6.537   2.672   0.654  0.3781  0.0414 -1.3209
15222SOL    HW246523   6.570   2.802   0.586  1.2219  1.0752  0.9528
15223SOL     OW46524   7.125   3.851   5.985  0.2304  0.1066 -0.0617
15223SOL    HW146525   7.110   3.914   5.914  0.8944  0.1170 -0.2024
15223SOL    HW246526   7.082   3.771   5.955 -2.1202  0.9495  0.8813
15224SOL     OW46527   0.341   1.814   7.982  0.1421 -0.0695 -0.1157
15224SOL    HW146528   0.306   1.730   7.953  0.2824  0.0840 -0.7337
15224SOL    HW246529   0.267   1.856   8.027 -0.0761 -0.3099 -0.2455
15225SOL     OW46530   3.888   0.544   5.319  0.5826 -0.2252 -0.0182
15225SOL    HW146531   3.899   0.596   5.239  1.6127  0.6943  0.6854
15225SOL    HW246532   3.798   0.513   5.316  0.9634 -1.3000 -2.1709
15226SOL     OW46533   1.805   3.496   5.251  0.0790 -0.3274 -0.3750
15226SOL    HW146534   1.834   3.515   5.340  0.5328  0.1044 -0.6100
15226SOL    HW246535   1.886   3.481   5.202 -0.1501 -0.2502 -0.7842
15227SOL     OW46536   3.978   7.566   2.778  0.0498 -0.0937  0.0295
15227SOL    HW146537   3.962   7.634   2.843 -0.4259 -0.2388  0.0677
15227SOL    HW246538   4.063   7.530   2.801 -0.1843 -0.2437  0.6596
15228SOL     OW46539   3.456   4.014   3.386  0.1347 -0.0226 -0.2175
15228SOL    HW146540   3.398   3.965   3.445  1.2852 -0.5081  0.5404
15228SOL    HW246541   3.428   3.989   3.298  0.9240 -2.3540  0.1446
15229SOL     OW46542   2.696   5.991   6.784 -0.3526 -0.4937  0.4344
15229SOL    HW146543   2.684   5.899   6.804 -0.6618 -0.1545  1.9464
15229SOL    HW246544   2.699   5.995   6.688  0.0884 -2.1013  0.3580
15230SOL     OW46545   2.848   1.413   4.025 -0.2830  0.2004  0.0930
15230SOL    HW146546   2.895   1.421   3.942  1.9429 -0.5323  1.2129
15230SOL    HW246547   2.868   1.324   4.055 -0.9911  0.4778  1.4657
15231SOL     OW46548   7.579   6.804   4.367 -0.0480  0.1928  0.4161
15231SOL    HW146549   7.541   6.728   4.323  1.3883 -0.1351 -0.3147
15231SOL    HW246550   7.566   6.876   4.305 -1.4426  0.5778  1.1243
15232SOL     OW46551   0.739   7.809   7.683  0.1331  0.2363 -0.1610
15232SOL    HW146552   0.739   7.769   7.770  3.1458  0.8924  0.2747
15232SOL    HW246553   0.798   7.754   7.631  0.4354  1.3100 -1.0034
15233SOL     OW46554   3.319   1.883   3.779 -1.0374  0.4071 -0.0504
15233SOL    HW146555   3.334   1.968   3.737 -2.6544  0.1655 -1.2301
15233SOL    HW246556   3.293   1.904   3.868  0.9826  1.0059  0.4606
15234SOL     OW46557   6.396   0.432   7.305  0.4895  0.0379 -0.2152
15234SOL    HW146558   6.430   0.473   7.384  0.7922 -0.4863 -0.0698
15234SOL    HW246559   6.429   0.343   7.308 -0.1822 -0.2235 -0.5207
15235SOL     OW46560   0.455   7.257   1.499 -0.1148 -0.4491  0.3924
15235SOL    HW146561   0.397   7.329   1.476  1.2756  0.6265  0.0762
15235SOL    HW246562   0.460   7.260   1.595  0.5207  0.3918  0.3475
15236SOL     OW46563   3.391   1.713   7.724 -0.7317  0.1652  0.0933
15236SOL    HW146564   3.437   1.629   7.709  1.4979  1.3753 -0.3456
15236SOL    HW246565   3.462   1.777   7.733 -2.3865  2.0504  0.2477
15237SOL     OW46566   6.184   1.516   5.448  0.0481 -0.0054  0.1610
15237SOL    HW146567   6.109   1.477   5.404  0.3109 -1.0212  0.5704
15237SOL    HW246568   6.260   1.466   5.417  0.6418  1.3367 -0.6427
15238SOL     OW46569   2.355   0.705   0.162 -0.1827 -0.2002  0.2041
15238SOL    HW146570   2.393   0.635   0.110  0.7453 -1.7248  2.7404
15238SOL    HW246571   2.424   0.772   0.167  0.0318 -0.4156  0.1359
15239SOL     OW46572   3.927   7.269   3.498  0.3235 -0.1920  0.4607
15239SOL    HW146573   3.963   7.353   3.525  1.2669 -0.8609  1.3611
15239SOL    HW246574   3.970   7.250   3.415  0.6000 -0.0809  0.5765
15240SOL     OW46575   7.968   6.802   2.810  0.5805 -0.5750  0.4890
15240SOL    HW146576   8.014   6.721   2.832 -1.6386 -2.5276 -1.5338
15240SOL    HW246577   7.880   6.790   2.845  0.5653  1.6508  1.4099
15241SOL     OW46578   7.944   6.935   0.891 -0.1452  0.6524 -0.0220
15241SOL    HW146579   8.039   6.942   0.886 -0.2340  0.9529 -2.5224
15241SOL    HW246580   7.925   6.846   0.861 -0.6932  1.0776 -1.0022
15242SOL     OW46581   3.545   6.131   7.007  0.2031 -0.2180  0.2163
15242SOL    HW146582   3.529   6.189   6.933  1.6173 -0.1389 -0.0478
15242SOL    HW246583   3.537   6.187   7.084 -0.1000 -0.0424  0.0584
15243SOL     OW46584   0.068   5.629   0.947  0.3955 -0.3040  0.1316
15243SOL    HW146585   0.054   5.554   1.005  0.6764 -0.6533 -0.2498
15243SOL    HW246586   0.163   5.637   0.940  0.4214  1.3150  1.7341
15244SOL     OW46587   1.822   2.777   7.787 -0.4825  0.6545 -0.1750
15244SOL    HW146588   1.871   2.706   7.745 -1.8816 -1.2035  1.1773
15244SOL    HW246589   1.835   2.764   7.881 -0.0946  2.7415  0.1137
15245SOL     OW46590   7.652   6.005   3.676 -0.9235  0.5121 -0.2266
15245SOL    HW146591   7.577   6.058   3.648 -0.9296  0.2832 -0.6487
15245SOL    HW246592   7.674   5.952   3.600 -0.4792  0.4051 -0.0268
15246SOL     OW46593   3.985   3.937   5.406 -0.3675 -0.7441  0.2574
15246SOL    HW146594   3.979   3.985   5.489  0.4904 -1.9917  1.0771
15246SOL    HW246595   3.908   3.881   5.405  1.2199 -3.1665  1.8808
15247SOL     OW46596   6.706   2.844   6.748  0.3586  0.0828  0.7012
15247SOL    HW146597   6.687   2.752   6.767 -1.2414 -0.0231 -1.1006
15247SOL    HW246598   6.664   2.892   6.819 -4.7025 -0.3321 -1.5536
15248SOL     OW46599   2.252   5.262   1.436 -0.3375 -0.1502  0.2061
15248SOL    HW146600   2.305   5.284   1.512  2.0232  1.4067 -1.7434
15248SOL    HW246601   2.294   5.185   1.398 -1.9556 -1.3922  0.8098
15249SOL     OW46602   1.197   1.264   0.778 -0.0318  0.1457 -0.3531
15249SOL    HW146603   1.247   1.318   0.838  1.3811 -0.3329 -1.0505
15249SOL    HW246604   1.149   1.326   0.723  0.4354  0.6505 -0.1932
15250SOL     OW46605   0.368   3.927   6.312  0.1942  0.3740  0.1271
15250SOL    HW146606   0.301   3.992   6.332 -0.7939 -0.7763  0.6908
15250SOL    HW246607   0.445   3.955   6.363 -0.5709  0.5000  1.2517
15251SOL     OW46608   0.791   1.998   5.140 -0.6789 -0.8252  0.0010
15251SOL    HW146609   0.807   2.023   5.049  0.2793  2.2170  0.8559
15251SOL    HW246610   0.707   1.954   5.139 -1.3486  0.3657 -2.2141
15252SOL     OW46611   2.579   5.265   2.306  0.4653  0.1315 -0.2333
15252SOL    HW146612   2.494   5.271   2.263 -0.0953 -2.0423  0.4351
15252SOL    HW246613   2.643   5.270   2.235 -0.3371 -0.7543 -1.0548
15253SOL     OW46614   3.007   6.733   7.555  0.3235  0.3882  0.0628
15253SOL    HW146615   2.976   6.648   7.525  1.0554  0.0181  0.3091
15253SOL    HW246616   2.990   6.733   7.650  1.2307  0.0857  0.2436
15254SOL     OW46617   6.647   4.865   3.511 -0.3184 -0.6780 -0.3001
15254SOL    HW146618   6.703   4.880   3.588  0.6740 -0.8872 -0.9563
15254SOL    HW246619   6.640   4.770   3.505 -0.7809 -0.6523 -0.2086
15255SOL     OW46620   7.121   2.964   7.116 -0.6003  0.8199 -0.3802
15255SOL    HW146621   7.122   3.002   7.204 -3.6562  1.5155 -0.5428
15255SOL    HW246622   7.164   3.029   7.061  0.2816  0.9112  0.3836
15256SOL     OW46623   2.481   3.821   1.128 -0.3312 -0.1486  0.4779
15256SOL    HW146624   2.539   3.820   1.052 -1.4285 -2.5297 -0.4162
15256SOL    HW246625   2.531   3.776   1.196  0.0084  0.5051  0.6697
15257SOL     OW46626   7.847   3.812   0.791 -0.2503 -0.2003  0.2569
15257SOL    HW146627   7.753   3.826   0.801  0.0133  1.6208  0.5421
15257SOL    HW246628   7.863   3.822   0.697 -0.2103  0.5018  0.3336
15258SOL     OW46629   7.405   6.611   3.644  0.0690 -0.0272  0.0187
15258SOL    HW146630   7.378   6.673   3.577  1.3846  0.0767 -0.4523
15258SOL    HW246631   7.347   6.627   3.718 -1.2573  0.0116 -1.0030
15259SOL     OW46632   3.960   3.951   4.997  0.5287 -0.1338 -0.9932
15259SOL    HW146633   3.927   4.041   5.002 -1.2905 -0.8254  2.1371
15259SOL    HW246634   4.052   3.958   5.025  0.5039  0.7559 -1.0856
15260SOL     OW46635   4.902   4.813   2.092 -0.1454 -0.2186  0.0092
15260SOL    HW146636   4.967   4.844   2.156 -0.0566 -2.6736  1.2315
15260SOL    HW246637   4.851   4.891   2.071 -0.0677  0.7935  3.0011
15261SOL     OW46638   2.704   0.054   4.692  0.2104 -0.0818  0.2390
15261SOL    HW146639   2.772   0.012   4.745  0.6486  0.3624  0.0419
15261SOL    HW246640   2.706   0.007   4.609  2.0627  1.5085 -0.7165
15262SOL     OW46641   6.892   7.177   0.308 -0.2044 -0.2663 -0.0199
15262SOL    HW146642   6.894   7.183   0.404 -2.2374 -0.8479  0.1008
15262SOL    HW246643   6.961   7.237   0.279  1.2582 -0.9491  1.8158
15263SOL     OW46644   0.412   7.851   5.447 -0.3947 -0.4232  0.0521
15263SOL    HW146645   0.330   7.898   5.454 -0.4538 -0.4519 -0.4320
15263SOL    HW246646   0.389   7.760   5.468 -0.5597 -0.5006 -0.4590
15264SOL     OW46647   3.784   4.788   5.609  0.1147  0.5682 -0.3768
15264SOL    HW146648   3.848   4.785   5.539 -1.3298  1.4850 -1.8088
15264SOL    HW246649   3.703   4.816   5.566 -1.4046 -1.0883  1.2425
15265SOL     OW46650   3.328   1.483   7.361 -0.0074  0.2066 -0.6491
15265SOL    HW146651   3.280   1.457   7.440  2.4099 -3.1977 -0.0847
15265SOL    HW246652   3.267   1.540   7.314 -2.4068  0.5695  2.5501
15266SOL     OW46653   5.582   2.779   3.947 -0.1312 -0.0084 -0.1864
15266SOL    HW146654   5.566   2.694   3.905  0.3963  0.2015 -0.8213
15266SOL    HW246655   5.642   2.760   4.019 -1.7034 -0.5097  1.0582
15267SOL     OW46656   5.979   0.128   2.751  0.3999 -0.2874 -0.9721
15267SOL    HW146657   5.988   0.193   2.820  0.4455 -0.9658 -0.3206
15267SOL    HW246658   6.035   0.055   2.779 -0.2649 -0.9350 -1.2808
15268SOL     OW46659   1.888   3.979   1.298  0.0291  0.0523 -0.8836
15268SOL    HW146660   1.953   4.049   1.309  0.4463  0.0084 -2.7308
15268SOL    HW246661   1.870   3.978   1.204 -0.6799 -1.7059 -0.7605
15269SOL     OW46662   2.817   5.042   5.795 -0.1477  0.4481 -0.8207
15269SOL    HW146663   2.756   5.090   5.740 -0.3201  1.2648  0.0609
15269SOL    HW246664   2.766   4.967   5.827 -0.6527  1.0457 -0.2051
15270SOL     OW46665   7.183   2.377   1.658  0.7907  0.2388 -0.2153
15270SOL    HW146666   7.188   2.364   1.564 -0.0351 -0.4324 -0.1798
15270SOL    HW246667   7.232   2.303   1.695 -0.2183 -0.3978 -0.1013
15271SOL     OW46668   3.267   0.487   5.346 -0.5327  0.2109  0.2055
15271SOL    HW146669   3.209   0.564   5.349 -0.9871 -0.0250 -1.6297
15271SOL    HW246670   3.231   0.433   5.276  2.3942  0.4546 -1.6068
15272SOL     OW46671   5.951   6.872   5.345 -0.4788  0.2001 -0.0726
15272SOL    HW146672   5.915   6.881   5.433  0.2980  0.0230  0.2734
15272SOL    HW246673   6.029   6.928   5.346 -0.7959  0.6704 -0.8410
15273SOL     OW46674   3.385   4.459   5.919  0.4941 -0.1550 -0.1864
15273SOL    HW146675   3.299   4.435   5.883  0.4613 -0.8939  0.3698
15273SOL    HW246676   3.437   4.481   5.842 -0.0588 -0.1399 -0.5669
15274SOL     OW46677   2.196   4.702   6.315  0.1535  0.1357 -0.2532
15274SOL    HW146678   2.183   4.674   6.225 -1.4413  0.0558 -0.0207
15274SOL    HW246679   2.114   4.683   6.359  1.1525 -0.5487  1.4346
15275SOL     OW46680   6.479   6.217   4.647  0.4143 -0.5190  0.0368
15275SOL    HW146681   6.432   6.278   4.590  1.0060 -0.3202 -0.2491
15275SOL    HW246682   6.411   6.175   4.699 -0.2601 -1.4606 -1.5380
15276SOL     OW46683   1.096   4.581   3.632 -0.2380  0.5159  0.5543
15276SOL    HW146684   1.049   4.580   3.549 -0.8124 -1.5229  0.8471
15276SOL    HW246685   1.085   4.670   3.665 -2.7233  0.5059 -0.0582
15277SOL     OW46686   0.557   2.809   4.888  0.1525  0.3415 -0.4546
15277SOL    HW146687   0.465   2.786   4.901  0.4848 -1.0500 -0.3805
15277SOL    HW246688   0.564   2.831   4.795 -0.0702 -0.5369 -0.6880
15278SOL     OW46689   3.387   0.749   5.257  0.5334  0.1829  0.1314
15278SOL    HW146690   3.315   0.710   5.208  0.5946 -0.7412  0.7462
15278SOL    HW246691   3.358   0.838   5.275  0.1962  0.2922 -0.9195
15279SOL     OW46692   6.318   2.973   4.898  0.3528  0.4090  0.0441
15279SOL    HW146693   6.297   2.897   4.843 -2.1028  1.0133  0.0444
15279SOL    HW246694   6.330   2.938   4.986  1.6943 -0.2266 -0.3550
15280SOL     OW46695   0.682   7.808   2.968 -0.3433 -0.2520  0.2265
15280SOL    HW146696   0.700   7.890   3.014 -2.0528  0.7403 -0.7911
15280SOL    HW246697   0.589   7.791   2.983 -0.1431 -1.7324 -0.0339
15281SOL     OW46698   2.830   3.538   4.818  0.1587 -0.4289  0.2031
15281SOL    HW146699   2.869   3.608   4.766  0.1556 -0.9661 -0.5405
15281SOL    HW246700   2.904   3.488   4.852  0.1703  0.1237  1.0181
15282SOL     OW46701   0.527   3.284   3.044  0.0547  0.1813  0.5610
15282SOL    HW146702   0.485   3.242   2.969  2.2446 -0.5137 -0.3578
15282SOL    HW246703   0.460   3.283   3.113 -2.3346  1.6415 -1.5758
15283SOL     OW46704   3.299   7.440   0.595  0.3338  0.0231 -0.2445
15283SOL    HW146705   3.236   7.374   0.625 -0.3255  1.2843  1.2484
15283SOL    HW246706   3.381   7.391   0.584 -0.7109 -1.5285 -1.6584
15284SOL     OW46707   5.518   2.946   2.693  0.4147  0.2182  0.3718
15284SOL    HW146708   5.544   2.980   2.779 -0.3426 -0.6189  0.9589
15284SOL    HW246709   5.431   2.982   2.679 -0.5048 -1.5811  1.1165
15285SOL     OW46710   4.971   1.146   4.481 -0.3269 -0.5741  0.0489
15285SOL    HW146711   5.013   1.068   4.518  0.9473 -1.6574 -3.2880
15285SOL    HW246712   5.042   1.193   4.438 -1.8585 -0.4066 -2.4931
15286SOL     OW46713   2.000   3.029   0.973 -0.0628 -0.0202  0.3123
15286SOL    HW146714   1.943   3.086   1.024  0.4411 -0.4731  1.4217
15286SOL    HW246715   2.060   3.089   0.929 -0.2483  0.3677  0.5811
15287SOL     OW46716   2.068   1.249   7.393 -0.0817 -0.2095 -0.3560
15287SOL    HW146717   2.024   1.296   7.322  0.6988  0.2170 -0.5616
15287SOL    HW246718   1.996   1.220   7.450 -0.6360  0.3945 -0.7344
15288SOL     OW46719   4.442   0.411   2.703 -0.4386 -0.0780 -0.4038
15288SOL    HW146720   4.390   0.337   2.733 -2.6239  1.3342 -0.5130
15288SOL    HW246721   4.430   0.478   2.771 -0.3661  0.9695 -1.3937
15289SOL     OW46722   7.058   6.668   4.434 -0.6729  0.0386 -0.0763
15289SOL    HW146723   7.013   6.671   4.518 -1.7825 -1.9400 -0.5326
15289SOL    HW246724   6.992   6.636   4.372  0.3093  0.7706 -1.5711
15290SOL     OW46725   3.705   4.792   7.987  0.1124  0.4946 -0.3188
15290SOL    HW146726   3.615   4.769   8.010  0.1694  1.9158  1.5860
15290SOL    HW246727   3.756   4.771   8.065  1.0685  1.6837 -0.5859
15291SOL     OW46728   6.210   1.119   3.252 -0.1134 -0.2284  0.1449
15291SOL    HW146729   6.120   1.087   3.252  0.4328 -1.8589  0.3373
15291SOL    HW246730   6.261   1.046   3.287  0.9958  1.5790  2.5578
15292SOL     OW46731   6.612   4.803   3.066 -0.4365  0.3179 -0.2118
15292SOL    HW146732   6.659   4.859   3.004  0.9266 -2.2626 -1.6487
15292SOL    HW246733   6.670   4.798   3.142  0.1855 -0.3638 -0.7198
15293SOL     OW46734   7.059   6.316   3.847  0.4383 -0.5871  0.4923
15293SOL    HW146735   7.048   6.221   3.840  0.4941 -0.7336  2.0240
15293SOL    HW246736   7.153   6.330   3.835  0.5173 -0.7919  0.8630
15294SOL     OW46737   0.204   0.969   1.525  0.3255  0.0845 -0.2599
15294SOL    HW146738   0.145   0.962   1.600  0.5491  1.3632  0.0720
15294SOL    HW246739   0.209   0.881   1.489 -1.1992 -0.1983  0.1499
15295SOL     OW46740   6.083   7.147   0.969 -0.3265  0.2108  0.0617
15295SOL    HW146741   6.078   7.133   0.875 -2.2582 -0.3281  0.2056
15295SOL    HW246742   6.041   7.070   1.007  0.6286  0.3105  1.3945
15296SOL     OW46743   3.661   5.408   6.080 -0.3132 -0.5099  0.2291
15296SOL    HW146744   3.594   5.391   6.013 -2.6109 -0.5199  2.3619
15296SOL    HW246745   3.708   5.325   6.088 -0.1975 -0.6039 -1.0965
15297SOL     OW46746   4.601   0.303   6.021 -0.0262 -0.3040 -0.4986
15297SOL    HW146747   4.578   0.345   5.938  0.0577  0.1055 -0.3178
15297SOL    HW246748   4.683   0.345   6.047 -1.2020  1.2497  0.9401
15298SOL     OW46749   5.953   7.057   0.099 -0.3395  0.0635 -0.2249
15298SOL    HW146750   5.934   7.032   0.009 -0.3740  2.5157 -0.9802
15298SOL    HW246751   5.984   7.148   0.092 -2.6461  1.1870  2.4311
15299SOL     OW46752   2.880   6.482   1.150 -0.2672 -0.4213  0.1170
15299SOL    HW146753   2.897   6.570   1.117 -1.0068  0.0429  0.9188
15299SOL    HW246754   2.811   6.494   1.216  0.5035 -1.4332  1.1419
15300SOL     OW46755   5.360   1.105   4.182 -0.2622 -0.5680 -0.6651
15300SOL    HW146756   5.345   1.023   4.228 -1.0171 -0.1569 -0.1544
15300SOL    HW246757   5.305   1.100   4.104  0.6300 -1.0509 -1.2804
15301SOL     OW46758   0.605   5.928   1.818  0.3236  0.3531  0.3417
15301SOL    HW146759   0.641   5.841   1.835 -2.5536 -0.9812  0.3285
15301SOL    HW246760   0.574   5.923   1.727  0.1876  1.4113  0.3185
15302SOL     OW46761   6.909   4.211   7.335  0.7928  0.2974  0.3331
15302SOL    HW146762   6.829   4.246   7.374  0.8005 -1.4106  2.0285
15302SOL    HW246763   6.973   4.282   7.340  0.4393  0.5119  2.3980
15303SOL     OW46764   0.386   2.420   1.732 -0.2215  0.2769  0.1175
15303SOL    HW146765   0.456   2.485   1.739  0.8030 -0.5058 -1.9880
15303SOL    HW246766   0.409   2.352   1.794 -0.5887  1.2700  1.3736
15304SOL     OW46767   7.933   7.215   2.648 -0.3240  0.1813  0.2753
15304SOL    HW146768   7.946   7.130   2.606  1.1842  0.2042  0.6471
15304SOL    HW246769   7.926   7.195   2.741  4.9406  0.6853  1.0844
15305SOL     OW46770   3.341   3.082   0.807 -0.3868 -0.2656 -0.6478
15305SOL    HW146771   3.408   3.087   0.875  0.2995  1.1738 -1.3713
15305SOL    HW246772   3.285   3.158   0.823  0.1628  0.4874 -2.0116
15306SOL     OW46773   5.454   2.180   2.618 -0.0040  0.0881 -0.5252
15306SOL    HW146774   5.374   2.202   2.569 -0.6083 -2.6545 -0.9138
15306SOL    HW246775   5.491   2.105   2.571  0.9399 -0.8521  1.6045
15307SOL     OW46776   0.280   1.537   2.380  0.6196  0.0062 -0.5923
15307SOL    HW146777   0.326   1.620   2.364  0.0321  0.6514  0.8648
15307SOL    HW246778   0.187   1.559   2.376  0.4156 -0.9421 -1.7881
15308SOL     OW46779   3.636   5.637   7.134  0.0550  0.4822  0.3937
15308SOL    HW146780   3.572   5.674   7.073  0.4740 -0.6619 -0.7755
15308SOL    HW246781   3.584   5.578   7.189 -0.0999  0.4819  0.2499
15309SOL     OW46782   4.862   6.812   5.869  0.2132 -0.4338  0.0424
15309SOL    HW146783   4.892   6.879   5.930  0.3168  0.2559 -0.7528
15309SOL    HW246784   4.942   6.765   5.844  0.0293 -1.4540  1.2755
15310SOL     OW46785   6.081   7.265   6.150  0.1646 -0.1121  0.2590
15310SOL    HW146786   6.111   7.353   6.127  0.7736 -0.5954 -0.8746
15310SOL    HW246787   6.120   7.248   6.236  0.3241  0.5835  0.3345
15311SOL     OW46788   0.203   4.963   3.150 -0.3258 -0.4743  0.1868
15311SOL    HW146789   0.225   5.005   3.067  1.4110 -0.9864  0.3431
15311SOL    HW246790   0.135   4.899   3.129 -0.8241  0.2942 -0.5879
15312SOL     OW46791   4.039   0.995   4.889 -0.0004  0.1508 -0.2303
15312SOL    HW146792   3.979   0.938   4.936  1.4846 -0.4698  0.9688
15312SOL    HW246793   4.025   1.082   4.927 -0.0183 -0.0208  0.1490
15313SOL     OW46794   7.590   7.558   7.358  0.8742 -0.1981 -0.0940
15313SOL    HW146795   7.600   7.464   7.343 -2.0690 -0.4017 -1.4679
15313SOL    HW246796   7.569   7.594   7.271 -1.2962  1.1359  0.8877
15314SOL     OW46797   4.875   0.210   3.540 -0.1659  0.1402  0.0939
15314SOL    HW146798   4.899   0.248   3.456  0.9954 -0.3308  0.1957
15314SOL    HW246799   4.794   0.256   3.564 -0.5809  0.1927 -1.3140
15315SOL     OW46800   1.379   3.310   4.522  0.2396 -0.0365 -0.2304
15315SOL    HW146801   1.312   3.244   4.544 -0.4446  0.9427  0.7356
15315SOL    HW246802   1.461   3.262   4.527 -0.2327 -0.8086  0.6065
15316SOL     OW46803   6.836   5.327   6.553  0.4556  0.0290 -0.2557
15316SOL    HW146804   6.923   5.308   6.589 -0.3151 -0.8407  1.2485
15316SOL    HW246805   6.839   5.420   6.531  1.4192  0.3011  0.8857
15317SOL     OW46806   3.226   2.984   5.029 -0.2320  0.1560  0.3892
15317SOL    HW146807   3.175   3.043   5.084  0.8079  1.9808 -0.5415
15317SOL    HW246808   3.317   2.998   5.054  0.2080  0.5261 -1.2691
15318SOL     OW46809   0.886   0.979   4.982 -0.1383 -0.1393  0.1715
15318SOL    HW146810   0.934   0.896   4.979  0.9015  0.4630 -0.8072
15318SOL    HW246811   0.863   0.990   5.074  0.6227 -1.0158  0.4793
15319SOL     OW46812   0.814   2.763   6.309 -0.3800 -0.2062 -0.4482
15319SOL    HW146813   0.888   2.784   6.251 -1.2534  0.0518 -1.4893
15319SOL    HW246814   0.765   2.845   6.316  0.6963  0.2882  2.1816
15320SOL     OW46815   3.347   2.670   2.242 -0.4644  0.0416  1.0887
15320SOL    HW146816   3.281   2.681   2.312 -0.1311  2.1121  1.1493
15320SOL    HW246817   3.343   2.577   2.220 -3.1929  0.0125  1.3100
15321SOL     OW46818   0.812   7.846   1.642  0.2890  0.1539 -0.6663
15321SOL    HW146819   0.815   7.766   1.591 -0.1476  0.0224 -0.4911
15321SOL    HW246820   0.895   7.847   1.691 -0.2061 -0.7981  0.2365
15322SOL     OW46821   5.494   1.220   0.770 -0.4590  0.4590 -0.0493
15322SOL    HW146822   5.498   1.226   0.866  1.8846 -3.5638  0.3359
15322SOL    HW246823   5.577   1.257   0.740  0.6007 -1.8092 -0.0875
15323SOL     OW46824   1.264   3.702   4.050  0.2729  0.4268  1.1573
15323SOL    HW146825   1.296   3.612   4.037  1.2632  0.8395  0.6742
15323SOL    HW246826   1.289   3.748   3.970 -1.3184  0.8460  0.8748
15324SOL     OW46827   4.079   6.424   3.518  0.1710 -0.1365  0.0917
15324SOL    HW146828   4.053   6.345   3.565 -0.4145 -0.2027 -0.3438
15324SOL    HW246829   4.000   6.478   3.516  0.7911  0.8702  1.1845
15325SOL     OW46830   2.914   4.703   2.907 -0.2011  0.0705  0.3862
15325SOL    HW146831   2.849   4.764   2.941 -0.3851 -0.7234  1.5072
15325SOL    HW246832   2.964   4.675   2.984  1.3322  0.4874 -0.4178
15326SOL     OW46833   6.569   3.756   7.093  0.3591 -0.4863  0.6746
15326SOL    HW146834   6.642   3.779   7.150  0.0035  0.3714  0.7969
15326SOL    HW246835   6.513   3.701   7.146  1.2971 -1.8374  0.3315
15327SOL     OW46836   5.223   7.849   2.010 -0.4877 -0.1591 -0.0286
15327SOL    HW146837   5.210   7.839   2.104  0.1419 -2.2812 -0.1271
15327SOL    HW246838   5.228   7.944   1.997  0.1685  0.1704  2.1762
15328SOL     OW46839   1.126   1.909   0.987 -0.0880  0.4464  0.0483
15328SOL    HW146840   1.155   1.887   1.075 -1.4728  0.1066  0.4517
15328SOL    HW246841   1.194   1.966   0.952  1.4716 -1.0364  0.5724
15329SOL     OW46842   7.356   4.813   6.230 -0.1857  0.5015  0.7849
15329SOL    HW146843   7.389   4.867   6.157  1.3777 -0.5444  0.6825
15329SOL    HW246844   7.362   4.870   6.306 -1.6607  1.5487  0.1698
15330SOL     OW46845   2.810   1.814   1.660  0.2354 -0.4809 -0.4511
15330SOL    HW146846   2.745   1.779   1.720  0.8223 -0.1417  0.3947
15330SOL    HW246847   2.809   1.909   1.676  0.7481 -0.4444 -0.6166
15331SOL     OW46848   5.187   4.654   0.954 -0.7610  0.0710  0.0273
15331SOL    HW146849   5.141   4.737   0.937 -2.3754 -0.7426  0.3015
15331SOL    HW246850   5.229   4.667   1.039 -0.3355  0.8745 -0.2900
15332SOL     OW46851   3.025   1.354   5.611  0.1173  0.2197 -0.6834
15332SOL    HW146852   3.069   1.274   5.581 -0.6301 -1.2291  1.7731
15332SOL    HW246853   2.933   1.328   5.620 -0.0044  1.1190  0.9090
15333SOL     OW46854   7.165   1.170   1.793  0.1651  0.5790  0.4754
15333SOL    HW146855   7.128   1.201   1.710 -0.3790 -1.1537  0.0419
15333SOL    HW246856   7.222   1.242   1.821 -1.5051  2.2320 -0.1476
15334SOL     OW46857   0.605   2.618   2.102 -0.1776  0.2844 -0.2740
15334SOL    HW146858   0.597   2.713   2.103 -1.5125  0.1976 -0.5219
15334SOL    HW246859   0.524   2.587   2.060 -0.6834 -1.0122  1.5133
15335SOL     OW46860   3.318   4.444   5.106 -0.1998  0.2908 -0.4662
15335SOL    HW146861   3.275   4.530   5.101 -0.1432  0.3068 -0.6749
15335SOL    HW246862   3.399   4.461   5.154 -0.0921  0.3923 -0.6827
15336SOL     OW46863   2.012   5.467   0.150  0.0409 -0.2832 -0.7959
15336SOL    HW146864   2.043   5.416   0.074  0.6245 -0.9692 -0.1208
15336SOL    HW246865   1.956   5.406   0.198  0.7132 -0.2969  0.0036
15337SOL     OW46866   2.894   7.194   2.964 -0.0647  0.2526 -0.3520
15337SOL    HW146867   2.861   7.146   3.040  0.5686  0.4647  0.0610
15337SOL    HW246868   2.978   7.229   2.992  1.4047 -1.7762 -1.9850
15338SOL     OW46869   4.449   1.091   0.914  0.0942 -0.3696 -0.1827
15338SOL    HW146870   4.539   1.059   0.920  0.3943  0.5323  0.4517
15338SOL    HW246871   4.458   1.180   0.878 -0.6285 -0.6341 -1.0414
15339SOL     OW46872   1.326   4.287   3.214 -0.3764  0.1566 -0.2952
15339SOL    HW146873   1.341   4.232   3.291  1.6528  3.5920  2.0103
15339SOL    HW246874   1.405   4.274   3.161 -0.4160  0.0203 -0.3220
15340SOL     OW46875   3.914   7.579   3.723 -0.0576  0.2562 -0.1797
15340SOL    HW146876   3.859   7.640   3.773  1.7628  0.7356  1.3744
15340SOL    HW246877   3.898   7.494   3.765  0.2869  0.3764  0.2036
15341SOL     OW46878   3.153   1.959   0.123 -0.2848  0.6238 -0.7310
15341SOL    HW146879   3.147   1.912   0.040  0.7552  0.2342 -0.6090
15341SOL    HW246880   3.247   1.956   0.145 -0.4626  1.2302  0.1584
15342SOL     OW46881   5.861   5.258   1.136  0.1281 -0.4498 -0.1086
15342SOL    HW146882   5.885   5.350   1.142 -1.4438 -0.0303  0.0289
15342SOL    HW246883   5.873   5.224   1.224  2.3494 -0.8511 -0.4923
15343SOL     OW46884   0.491   3.219   5.976 -0.3494 -0.7141  0.7960
15343SOL    HW146885   0.456   3.149   5.921 -1.0311 -0.9353  1.4924
15343SOL    HW246886   0.419   3.242   6.035 -0.3728  1.0443  0.1448
15344SOL     OW46887   5.060   5.271   1.121 -0.0222 -0.1023 -0.5584
15344SOL    HW146888   5.132   5.252   1.060 -0.4491  1.5656 -1.6455
15344SOL    HW246889   4.989   5.213   1.093  0.0459  0.0991 -1.1544
15345SOL     OW46890   7.170   5.817   0.334  0.2971 -0.3717 -0.3178
15345SOL    HW146891   7.214   5.754   0.277 -0.8037  0.0325 -1.6771
15345SOL    HW246892   7.164   5.897   0.281  0.1365  0.3452  0.7449
15346SOL     OW46893   4.992   4.648   6.453  0.2565  0.1069  0.0102
15346SOL    HW146894   4.975   4.579   6.518 -0.2285  0.1275 -0.0938
15346SOL    HW246895   5.087   4.642   6.436  0.4200  0.2363  0.8637
15347SOL     OW46896   2.128   0.114   7.245 -0.1181  0.2607 -0.3542
15347SOL    HW146897   2.195   0.100   7.311 -1.2808 -0.1245  0.7788
15347SOL    HW246898   2.141   0.204   7.215  0.7133  0.2771  0.0492
15348SOL     OW46899   5.350   3.080   6.407  0.2022  0.2535 -0.2032
15348SOL    HW146900   5.328   3.140   6.479  0.3091 -0.5377  0.5002
15348SOL    HW246901   5.313   3.122   6.329 -1.6965  0.1442  0.5951
15349SOL     OW46902   4.114   3.567   0.135  0.4932  0.0511  0.0283
15349SOL    HW146903   4.200   3.526   0.129  0.4314 -0.0586 -0.0871
15349SOL    HW246904   4.133   3.661   0.138  0.5690  0.0715 -0.8824
15350SOL     OW46905   3.921   2.431   0.526  0.5771  0.2121 -0.1847
15350SOL    HW146906   3.962   2.515   0.544  1.0433  0.0075 -0.2704
15350SOL    HW246907   3.961   2.371   0.589  3.0320 -0.7510 -2.4640
15351SOL     OW46908   5.078   7.744   3.338  0.0826  0.6179  0.7964
15351SOL    HW146909   5.108   7.654   3.345 -1.8348 -0.2659 -1.1174
15351SOL    HW246910   5.027   7.746   3.256  1.5491  3.8844 -0.2086
15352SOL     OW46911   2.840   4.990   1.063  0.5397 -0.6019 -0.5954
15352SOL    HW146912   2.900   4.925   1.100  1.5594  1.5645  1.8697
15352SOL    HW246913   2.896   5.045   1.009  0.7981  1.0826  1.2582
15353SOL     OW46914   5.648   3.778   5.277  0.1284  0.4140  0.6002
15353SOL    HW146915   5.715   3.743   5.219  1.1840  3.1203  0.0416
15353SOL    HW246916   5.673   3.748   5.364  0.2627 -1.1644  0.0416
15354SOL     OW46917   4.594   2.414   7.897 -0.3632  0.4118 -0.4809
15354SOL    HW146918   4.530   2.485   7.885 -1.0576  0.0038  0.6471
15354SOL    HW246919   4.540   2.335   7.906  0.2520  0.1315  1.0324
15355SOL     OW46920   2.653   7.346   2.654  0.0345  0.1573  0.0418
15355SOL    HW146921   2.667   7.323   2.562 -3.6589 -0.3102 -0.5874
15355SOL    HW246922   2.637   7.261   2.697  0.1890  0.4879  0.7567
15356SOL     OW46923   1.153   4.021   7.067 -0.4627  0.4724 -0.3477
15356SOL    HW146924   1.182   3.950   7.010  0.8323 -0.2621  1.1469
15356SOL    HW246925   1.220   4.089   7.058 -0.3982  0.4683  0.0792
15357SOL     OW46926   3.418   1.466   3.948  0.2653  0.6389  0.4825
15357SOL    HW146927   3.463   1.535   3.899  0.1541  0.6234  0.3591
15357SOL    HW246928   3.431   1.387   3.895 -1.4877  0.9804 -0.5137
15358SOL     OW46929   4.194   5.403   5.088 -0.4038 -0.1442  0.0822
15358SOL    HW146930   4.161   5.458   5.160 -0.6092 -0.0785 -0.0619
15358SOL    HW246931   4.239   5.331   5.132  0.4574  0.4926  0.2747
15359SOL     OW46932   1.711   0.006   3.967  0.6515 -0.4314  0.3495
15359SOL    HW146933   1.681   0.063   3.896  0.1126  0.0311  0.9389
15359SOL    HW246934   1.641  -0.058   3.978  0.3699 -0.0238  0.9854
15360SOL     OW46935   5.394   6.782   7.672  0.4646  0.1999 -0.2961
15360SOL    HW146936   5.382   6.690   7.694 -2.7569  0.5287 -0.1249
15360SOL    HW246937   5.423   6.782   7.581 -0.0243 -0.9917 -0.4673
15361SOL     OW46938   2.218   4.546   2.751  0.4440  0.3235 -0.4504
15361SOL    HW146939   2.248   4.621   2.803 -1.2854 -0.2888  1.5328
15361SOL    HW246940   2.273   4.474   2.779 -1.1088 -0.2329  1.3791
15362SOL     OW46941   5.637   3.625   4.261  0.2345 -0.0094  0.2596
15362SOL    HW146942   5.689   3.553   4.298  1.0502 -0.2293 -1.2302
15362SOL    HW246943   5.565   3.581   4.217  0.1803  0.1447  0.1950
15363SOL     OW46944   2.016   2.772   3.476 -0.1256  0.3459 -0.1631
15363SOL    HW146945   1.992   2.864   3.461 -2.6356  0.0665  1.5358
15363SOL    HW246946   1.954   2.722   3.423  0.8249 -0.3995 -0.5900
15364SOL     OW46947   6.867   0.006   1.737 -0.1697 -0.4247  0.4683
15364SOL    HW146948   6.909  -0.076   1.710 -0.5203 -0.9090  1.3660
15364SOL    HW246949   6.828  -0.013   1.822 -0.2732  0.6757  0.6864
15365SOL     OW46950   2.322   5.469   2.903  0.6607 -0.0680 -0.5731
15365SOL    HW146951   2.295   5.379   2.882  2.8732 -0.3242 -2.7771
15365SOL    HW246952   2.356   5.463   2.992 -1.2713 -0.8730  0.1737
15366SOL     OW46953   5.087   7.034   0.511  0.5574  0.3004 -0.3178
15366SOL    HW146954   5.028   7.103   0.480  2.2471  1.8103 -0.3488
15366SOL    HW246955   5.130   7.002   0.432 -1.5672 -2.2281 -0.5682
15367SOL     OW46956   6.282   5.896   7.662 -0.3546 -0.2332  0.4677
15367SOL    HW146957   6.232   5.815   7.669 -1.4806  0.4829  1.0355
15367SOL    HW246958   6.226   5.962   7.703  0.0703  1.0379 -0.9184
15368SOL     OW46959   6.578   7.870   3.806 -0.1231 -0.0578  0.2167
15368SOL    HW146960   6.590   7.810   3.731 -0.1390 -0.4603  0.5345
15368SOL    HW246961   6.484   7.876   3.817 -0.1927  1.3393 -0.8579
15369SOL     OW46962   3.562   1.363   7.997  0.1998 -0.1399 -0.4380
15369SOL    HW146963   3.467   1.373   7.994  0.3525  1.5775 -0.5298
15369SOL    HW246964   3.576   1.272   8.022 -1.4493 -1.0592 -2.5252
15370SOL     OW46965   4.002   3.970   4.218  0.2454  0.1581 -0.1425
15370SOL    HW146966   4.003   4.040   4.283  1.9474  0.9723 -0.9834
15370SOL    HW246967   4.018   3.890   4.270  0.0261  0.5891  0.6096
15371SOL     OW46968   3.496   2.840   4.235 -0.2147 -0.4121  0.4311
15371SOL    HW146969   3.494   2.893   4.155  0.0693  0.4333  0.9667
15371SOL    HW246970   3.588   2.840   4.262 -0.2956 -0.7463  0.7197
15372SOL     OW46971   3.976   7.030   6.042  0.2425  0.6262 -0.0127
15372SOL    HW146972   3.887   7.021   6.008 -0.7002  2.6222  1.6864
15372SOL    HW246973   3.985   7.124   6.059  1.7261  0.1261  2.2848
15373SOL     OW46974   0.035   5.825   1.965  0.2469 -0.0723  0.1151
15373SOL    HW146975   0.006   5.916   1.959  0.3986  0.1330  1.8359
15373SOL    HW246976   0.118   5.822   1.918  0.1875  0.6505 -0.0381
15374SOL     OW46977   4.027   5.143   6.343 -0.2017 -0.0925 -0.1246
15374SOL    HW146978   4.121   5.145   6.364 -0.6617  0.9354  2.1125
15374SOL    HW246979   4.024   5.116   6.251  2.1768 -2.5792  0.3976
15375SOL     OW46980   4.693   0.196   1.644  0.2140  0.7082  0.6022
15375SOL    HW146981   4.777   0.239   1.635  2.3206 -2.9707  0.8022
15375SOL    HW246982   4.647   0.213   1.562  1.9109  1.2899 -0.2558
15376SOL     OW46983   2.328   4.392   5.926 -0.9256 -0.4133 -0.2312
15376SOL    HW146984   2.383   4.318   5.904 -0.7367 -0.4757  0.4346
15376SOL    HW246985   2.259   4.391   5.859 -1.3611 -1.6381  0.2152
15377SOL     OW46986   2.463   4.453   7.722  0.1926  0.2478 -0.3328
15377SOL    HW146987   2.447   4.464   7.628 -1.5676 -1.8901 -0.3577
15377SOL    HW246988   2.376   4.454   7.762  0.7734 -0.6778  1.0338
15378SOL     OW46989   0.145   5.656   3.379 -0.2555  0.0492 -0.3923
15378SOL    HW146990   0.173   5.712   3.306  1.0024 -0.4860 -0.3399
15378SOL    HW246991   0.071   5.607   3.344 -2.6149  2.9744  0.1122
15379SOL     OW46992   2.087   2.092   6.330  0.0336  0.0081  0.7063
15379SOL    HW146993   2.142   2.161   6.367  1.4828 -0.5208 -0.3340
15379SOL    HW246994   2.040   2.056   6.405  1.3009  0.3413  1.7032
15380SOL     OW46995   1.736   2.361   2.624  0.1035 -0.1352  0.0806
15380SOL    HW146996   1.680   2.433   2.652 -1.0364 -0.4120 -1.3636
15380SOL    HW246997   1.789   2.397   2.553  0.8249 -0.2365  0.5605
15381SOL     OW46998   3.350   3.575   3.807  0.1466  0.2397  0.1409
15381SOL    HW146999   3.411   3.577   3.881  0.0144 -5.0195  0.8099
15381SOL    HW247000   3.299   3.655   3.815  2.8418  1.8797  3.2700
15382SOL     OW47001   0.612   2.308   3.452 -0.2223  0.5075 -0.5846
15382SOL    HW147002   0.684   2.352   3.497  0.6674 -0.8567 -0.6277
15382SOL    HW247003   0.561   2.380   3.414  1.7991  1.4859 -1.6163
15383SOL     OW47004   2.953   6.715   1.074 -0.1089 -0.0663  0.2221
15383SOL    HW147005   3.037   6.727   1.119  0.9014 -0.9922 -1.3295
15383SOL    HW247006   2.923   6.804   1.057  1.3663  0.3190 -0.5978
15384SOL     OW47007   7.809   3.979   2.859 -0.0423  0.5825  0.0000
15384SOL    HW147008   7.794   3.945   2.771  0.4436 -1.1360  0.5349
15384SOL    HW247009   7.742   4.047   2.870 -1.0469 -0.1600 -1.1664
15385SOL     OW47010   0.812   4.152   2.279  0.1834 -0.1816 -0.6261
15385SOL    HW147011   0.838   4.189   2.195 -0.3227  2.3105  0.2112
15385SOL    HW247012   0.872   4.192   2.342 -0.5545 -0.6277  0.3913
15386SOL     OW47013   0.577   6.551   7.387  0.1759  0.0320 -0.0110
15386SOL    HW147014   0.577   6.596   7.472 -0.4300  2.3348 -1.1474
15386SOL    HW247015   0.508   6.594   7.338 -0.0186 -1.8104 -1.4287
15387SOL     OW47016   5.331   0.742   5.346 -0.1850 -0.2604 -0.1177
15387SOL    HW147017   5.274   0.775   5.415  0.5519  1.5711 -0.3279
15387SOL    HW247018   5.393   0.813   5.330  1.8057 -1.9674 -0.2938
15388SOL     OW47019   4.499   3.371   2.130 -0.1245 -0.5957 -0.3814
15388SOL    HW147020   4.420   3.326   2.159 -0.5528  0.1652 -0.3363
15388SOL    HW247021   4.498   3.455   2.176 -0.3920  0.2913 -1.9269
15389SOL     OW47022   7.397   6.277   3.189 -0.5479  0.0234 -0.0294
15389SOL    HW147023   7.488   6.280   3.218 -1.0466 -0.0780  1.6601
15389SOL    HW247024   7.396   6.207   3.123  0.2943 -1.2232  1.2043
15390SOL     OW47025   4.381   7.043   3.806  0.2808 -0.3805 -0.8392
15390SOL    HW147026   4.428   6.971   3.765  0.8438 -0.0574 -0.7678
15390SOL    HW247027   4.298   7.004   3.836  0.3589 -0.8715 -1.2592
15391SOL     OW47028   5.947   3.588   1.938  0.0605  0.6186  0.0753
15391SOL    HW147029   5.946   3.551   1.850  0.5022  1.9947 -0.5342
15391SOL    HW247030   5.876   3.652   1.939  0.1444  0.7125  0.6704
15392SOL     OW47031   0.295   5.054   7.005  0.8445 -0.1810 -0.4137
15392SOL    HW147032   0.208   5.088   6.981  0.3397  0.9921  2.6043
15392SOL    HW247033   0.348   5.132   7.019  1.6102 -0.8004  0.2368
15393SOL     OW47034   2.321   5.902   1.071 -0.0783  0.3865 -0.3352
15393SOL    HW147035   2.286   5.969   1.012 -1.5071 -0.6891 -0.7666
15393SOL    HW247036   2.396   5.865   1.024 -1.3027 -0.5788 -1.6146
15394SOL     OW47037   3.215   5.933   3.467  0.3227 -0.1997  0.1294
15394SOL    HW147038   3.179   5.868   3.407 -0.5981  1.4210 -1.1544
15394SOL    HW247039   3.188   6.017   3.431  3.2002  1.0419  0.5307
15395SOL     OW47040   6.142   1.167   2.564  0.5715  0.2688 -0.4362
15395SOL    HW147041   6.069   1.227   2.580 -0.0472 -0.0241 -1.9026
15395SOL    HW247042   6.206   1.187   2.632 -2.1238 -1.5990  2.9682
15396SOL     OW47043   3.884   1.208   1.230 -0.2672  0.1009  0.4957
15396SOL    HW147044   3.958   1.156   1.261 -0.4158  1.2138  2.9455
15396SOL    HW247045   3.844   1.155   1.162  0.9251 -1.9279  1.2861
15397SOL     OW47046   6.885   3.690   0.400  1.0130  0.6337 -0.2282
15397SOL    HW147047   6.970   3.646   0.402  0.5375 -0.3048  1.2752
15397SOL    HW247048   6.825   3.627   0.441 -0.0644  1.9624  0.2945
15398SOL     OW47049   0.319   3.509   4.869 -0.1958  0.1789 -0.0098
15398SOL    HW147050   0.309   3.552   4.784 -0.7621 -1.4554 -0.7922
15398SOL    HW247051   0.337   3.418   4.849 -1.2231 -0.4297  1.6377
15399SOL     OW47052   3.692   6.176   3.821  0.3500  0.3053 -0.5993
15399SOL    HW147053   3.611   6.167   3.872  0.2529  0.5001 -0.7150
15399SOL    HW247054   3.713   6.087   3.793  0.3307  0.2167 -0.3306
15400SOL     OW47055   3.312   3.709   5.465 -0.2073  0.6142  0.1414
15400SOL    HW147056   3.377   3.769   5.501  1.0323  0.8346 -2.2488
15400SOL    HW247057   3.321   3.717   5.370 -3.1699 -0.0022 -0.3143
15401SOL     OW47058   2.370   4.840   0.435  0.3247 -0.3114 -0.6460
15401SOL    HW147059   2.303   4.808   0.495 -1.7290  0.1601 -2.5532
15401SOL    HW247060   2.391   4.928   0.467 -2.7692  1.0647 -2.0164
15402SOL     OW47061   4.089   0.402   0.412 -0.0843  0.0646  0.3801
15402SOL    HW147062   4.057   0.347   0.341 -0.6940  0.6898  0.1636
15402SOL    HW247063   4.118   0.340   0.480  0.7703 -0.5425 -0.5163
15403SOL     OW47064   7.180   1.900   5.421  0.4904 -0.6522  0.0522
15403SOL    HW147065   7.168   1.917   5.514  1.3108  0.0641  0.0461
15403SOL    HW247066   7.097   1.862   5.392  0.0837 -0.4975  0.9802
15404SOL     OW47067   5.479   5.096   4.934 -0.0803  0.1811 -0.0714
15404SOL    HW147068   5.403   5.082   4.877 -0.8187  0.0516  0.9156
15404SOL    HW247069   5.463   5.039   5.009  1.6901 -0.8939 -0.4602
15405SOL     OW47070   0.826   5.431   2.999 -0.3866 -0.4796  0.2124
15405SOL    HW147071   0.779   5.350   2.981 -1.5734 -0.3814  2.5843
15405SOL    HW247072   0.842   5.429   3.093  0.0769  1.7743  0.2287
15406SOL     OW47073   2.625   6.692   1.251 -0.0002 -0.0317 -0.1525
15406SOL    HW147074   2.671   6.762   1.299  1.1807  0.8961 -2.5069
15406SOL    HW247075   2.600   6.732   1.168 -0.6071 -2.0117 -0.9764
15407SOL     OW47076   4.825   5.464   7.832 -0.1519 -0.1782  0.3064
15407SOL    HW147077   4.837   5.369   7.834 -0.3962 -0.2087  0.2784
15407SOL    HW247078   4.861   5.491   7.747  1.8134  0.0102  1.1418
15408SOL     OW47079   0.152   1.187   6.116 -0.3827  0.6076  0.2410
15408SOL    HW147080   0.090   1.194   6.042  1.6761 -1.1894 -1.8173
15408SOL    HW247081   0.119   1.113   6.167  0.4939 -0.9797 -1.3913
15409SOL     OW47082   4.750   4.034   2.458 -0.2600 -0.1825 -0.3807
15409SOL    HW147083   4.792   4.029   2.544  0.5752  0.8345 -0.7148
15409SOL    HW247084   4.658   4.017   2.476  0.2015 -2.0942  0.4192
15410SOL     OW47085   0.156   6.451   5.153 -0.3573 -0.3043 -0.0487
15410SOL    HW147086   0.202   6.514   5.097  2.0005  0.0673  2.1251
15410SOL    HW247087   0.168   6.367   5.110  0.9574  0.0465 -0.4173
15411SOL     OW47088   7.901   1.073   4.556 -0.2988  0.1270 -0.1299
15411SOL    HW147089   7.883   1.081   4.462 -1.2458  0.3918  0.0742
15411SOL    HW247090   7.988   1.032   4.559 -0.6144 -0.6630 -1.1222
15412SOL     OW47091   7.747   5.312   0.198 -0.3729 -0.2817  0.3269
15412SOL    HW147092   7.743   5.301   0.103 -0.3664 -1.0346  0.4039
15412SOL    HW247093   7.826   5.364   0.213 -0.2727 -0.3164 -0.0720
15413SOL     OW47094   7.351   3.907   4.865 -0.3235 -0.3593 -0.3735
15413SOL    HW147095   7.375   3.824   4.908 -2.7037 -2.3057 -2.5088
15413SOL    HW247096   7.413   3.915   4.793  1.9460  1.5061  1.6416
15414SOL     OW47097   3.493   5.954   3.428 -0.3602 -0.2273 -0.1750
15414SOL    HW147098   3.401   5.980   3.439 -0.3495 -0.4902  0.6024
15414SOL    HW247099   3.496   5.864   3.460  0.2438 -0.0882  0.1688
15415SOL     OW47100   6.469   7.539   4.472 -0.1610  0.1112 -0.2881
15415SOL    HW147101   6.492   7.506   4.385 -0.4077  0.1735 -0.3786
15415SOL    HW247102   6.553   7.563   4.511  0.1328 -1.3842  0.0934
15416SOL     OW47103   0.900   2.831   4.004  0.6030 -0.0722 -0.4649
15416SOL    HW147104   0.987   2.855   4.036  0.4978  0.3605 -0.5095
15416SOL    HW247105   0.851   2.913   4.003  0.1529 -0.3384 -0.3121
15417SOL     OW47106   3.201   1.329   3.535  0.4404  0.2033  0.2564
15417SOL    HW147107   3.243   1.412   3.558  0.4622  0.1592  0.3765
15417SOL    HW247108   3.178   1.290   3.619  0.9929 -0.2004  0.2266
15418SOL     OW47109   2.235   0.072   1.971 -0.2816 -0.5872 -0.0542
15418SOL    HW147110   2.232   0.112   2.058 -1.5997 -1.6442  0.4211
15418SOL    HW247111   2.144   0.050   1.951  0.1421 -1.3874 -1.2114
15419SOL     OW47112   7.313   0.416   4.805 -0.3029  0.5830  0.4327
15419SOL    HW147113   7.315   0.471   4.883  1.0118  0.6249  0.3909
15419SOL    HW247114   7.380   0.349   4.821 -1.4453 -0.6564  0.2153
15420SOL     OW47115   7.697   6.606   3.595  0.4189  0.5022 -0.2279
15420SOL    HW147116   7.721   6.514   3.606  0.2239  0.5621  0.8266
15420SOL    HW247117   7.605   6.610   3.623 -0.0527  0.7504 -1.7266
15421SOL     OW47118   6.252   6.314   3.614  0.2735 -0.4586  0.1126
15421SOL    HW147119   6.231   6.260   3.537 -2.3960  0.7256 -0.0816
15421SOL    HW247120   6.232   6.257   3.689  1.4596 -1.1014 -0.0287
15422SOL     OW47121   5.352   1.925   1.619  0.0340 -0.0586  0.0541
15422SOL    HW147122   5.318   1.837   1.606  2.9883 -1.3890  0.5702
15422SOL    HW247123   5.371   1.930   1.713  0.1489  1.0205 -0.0138
15423SOL     OW47124   7.846   0.254   4.060 -0.0506 -0.0949  0.6232
15423SOL    HW147125   7.768   0.203   4.039 -1.4314  1.8125  0.8535
15423SOL    HW247126   7.830   0.286   4.149  0.5923  0.9888  0.3680
15424SOL     OW47127   0.801   5.180   1.064  0.9092  0.0829  0.1884
15424SOL    HW147128   0.799   5.221   0.977 -1.3978  1.2224  0.7052
15424SOL    HW247129   0.745   5.103   1.056  0.8142  0.1035  0.6323
15425SOL     OW47130   2.210   6.626   0.410 -0.4191 -0.5874 -0.0809
15425SOL    HW147131   2.248   6.547   0.371  2.3311  0.1196  0.9510
15425SOL    HW247132   2.186   6.681   0.335  1.6225 -0.6662 -0.8543
15426SOL     OW47133   2.548   1.005   0.442 -0.4293 -0.1146  0.2525
15426SOL    HW147134   2.529   0.992   0.535 -2.6864 -0.7192 -0.2510
15426SOL    HW247135   2.587   0.922   0.414 -0.1776 -0.0932  0.5254
15427SOL     OW47136   5.439   6.035   4.891 -0.5073 -0.1229 -0.0208
15427SOL    HW147137   5.369   6.010   4.831 -0.9729  1.6128 -0.2519
15427SOL    HW247138   5.518   6.037   4.836 -0.6435 -0.0570 -0.2142
15428SOL     OW47139   7.306   5.807   2.407  0.0722 -0.0345 -0.6243
15428SOL    HW147140   7.398   5.796   2.430 -0.0946 -0.6752 -0.2329
15428SOL    HW247141   7.284   5.895   2.437 -0.0412 -0.7030  1.4205
15429SOL     OW47142   5.199   4.598   2.637 -0.7772 -0.2394  0.1025
15429SOL    HW147143   5.121   4.574   2.687  0.4442  0.4453  2.5143
15429SOL    HW247144   5.272   4.561   2.687  0.4512 -1.6455 -2.5535
15430SOL     OW47145   3.170   0.039   4.003  0.4692  0.4343  0.1559
15430SOL    HW147146   3.228   0.098   3.953 -1.3299  1.5103 -0.7484
15430SOL    HW247147   3.120   0.097   4.060 -0.1631 -0.4114  0.4747
15431SOL     OW47148   7.051   7.204   5.943 -0.2796  0.6119 -0.0908
15431SOL    HW147149   7.028   7.214   6.036  0.9923 -0.4741  0.3630
15431SOL    HW247150   7.079   7.292   5.917 -0.3003  0.8502  0.6465
15432SOL     OW47151   4.316   7.304   3.777  0.7302 -0.0140  0.1333
15432SOL    HW147152   4.274   7.292   3.692 -2.5104 -0.6777  1.6604
15432SOL    HW247153   4.346   7.216   3.801 -1.6607 -0.6407  1.1354
15433SOL     OW47154   6.455   0.502   4.727 -0.0304  0.5858  0.0742
15433SOL    HW147155   6.402   0.575   4.759 -1.2545 -0.3953  0.3849
15433SOL    HW247156   6.427   0.428   4.781 -0.4368 -0.6047 -1.6839
15434SOL     OW47157   7.660   5.748   1.210 -0.4183  0.0729 -0.0157
15434SOL    HW147158   7.566   5.737   1.224 -0.4180  0.6070  0.4499
15434SOL    HW247159   7.667   5.821   1.149 -0.3083  0.0025 -0.0878
15435SOL     OW47160   1.221   3.852   4.679  0.0871  0.2065  0.1261
15435SOL    HW147161   1.187   3.776   4.725  0.8899 -0.9038 -1.0215
15435SOL    HW247162   1.200   3.926   4.735 -1.2240 -0.7889  1.0111
15436SOL     OW47163   0.842   7.768   4.128  0.0166 -0.0086  0.3414
15436SOL    HW147164   0.747   7.775   4.140  0.0467  1.6967 -0.2174
15436SOL    HW247165   0.853   7.702   4.060 -0.7826  0.0994  0.1012
15437SOL     OW47166   1.227   5.994   1.442 -0.0693 -0.2245 -0.0837
15437SOL    HW147167   1.273   5.919   1.404 -1.0326 -1.0881  0.4037
15437SOL    HW247168   1.280   6.018   1.518  0.9116  0.3894 -0.9440
15438SOL     OW47169   6.955   0.534   6.477  0.1327 -0.5304  0.1509
15438SOL    HW147170   6.967   0.459   6.418 -0.3699 -0.8008  0.3828
15438SOL    HW247171   6.924   0.604   6.420  0.4900 -0.5373 -0.0502
15439SOL     OW47172   3.419   0.857   1.293 -0.3022 -0.3651 -0.2707
15439SOL    HW147173   3.328   0.838   1.314 -0.7651  0.3097 -1.5806
15439SOL    HW247174   3.440   0.798   1.220  0.6313 -1.1988  0.6285
15440SOL     OW47175   4.182   6.576   3.730  0.5710 -0.0927 -0.0246
15440SOL    HW147176   4.162   6.521   3.654  0.8335  0.2162 -0.3182
15440SOL    HW247177   4.213   6.658   3.692 -1.3264  0.8657  0.3604
15441SOL     OW47178   4.121   3.755   5.708 -0.4808  0.6991  0.2892
15441SOL    HW147179   4.138   3.708   5.626  0.4683  1.8909 -0.2297
15441SOL    HW247180   4.162   3.700   5.775  0.6744  0.7834 -0.3167
15442SOL     OW47181   7.125   0.960   4.363 -0.8655 -0.0209  0.7486
15442SOL    HW147182   7.179   1.035   4.338 -1.8475  0.7371  0.8349
15442SOL    HW247183   7.087   0.928   4.281  0.3196 -1.0594  0.5809
15443SOL     OW47184   3.975   7.443   0.686  0.1281  0.1394  0.5732
15443SOL    HW147185   4.070   7.429   0.680  0.3974  1.8153  0.4095
15443SOL    HW247186   3.942   7.423   0.598  0.0563 -1.9626  1.0150
15444SOL     OW47187   7.122   4.247   4.815 -0.1203 -0.2159 -0.1482
15444SOL    HW147188   7.172   4.226   4.893  1.7954  1.0588 -0.9497
15444SOL    HW247189   7.064   4.319   4.842  0.8252  0.5003  0.0275
15445SOL     OW47190   1.886   0.102   1.637  0.3805 -0.5258 -0.0482
15445SOL    HW147191   1.845   0.188   1.651 -2.2583 -1.4524 -1.2677
15445SOL    HW247192   1.907   0.070   1.725  1.1032  1.2015  0.4432
15446SOL     OW47193   5.162   3.004   3.304  0.0265 -0.1936  0.3845
15446SOL    HW147194   5.245   2.976   3.264 -0.0547  2.8086 -2.3403
15446SOL    HW247195   5.188   3.059   3.378  0.5420  0.5701 -0.3380
15447SOL     OW47196   1.004   1.466   6.355  0.3655 -0.6389  0.9076
15447SOL    HW147197   0.918   1.437   6.323  0.2533 -2.0536  2.3911
15447SOL    HW247198   1.004   1.560   6.338 -0.7798 -0.8769 -0.6732
15448SOL     OW47199   3.499   7.643   4.110 -0.3414 -0.4536  0.4877
15448SOL    HW147200   3.409   7.612   4.124  0.1063 -1.9954  0.1151
15448SOL    HW247201   3.532   7.591   4.037  0.3205  1.2726 -0.5031
15449SOL     OW47202   2.046   2.076   0.234  0.4470  0.5794 -0.6515
15449SOL    HW147203   2.129   2.117   0.261  1.9144 -1.2660 -2.1195
15449SOL    HW247204   2.003   2.054   0.316  3.1942 -1.7912  0.3246
15450SOL     OW47205   0.709   5.541   7.274 -0.5221 -0.1291 -0.4548
15450SOL    HW147206   0.643   5.500   7.218 -1.0239  1.2381 -0.9130
15450SOL    HW247207   0.664   5.616   7.312  0.0792 -0.5246  1.1108
15451SOL     OW47208   6.147   2.857   3.547  0.0923 -0.0542 -0.1834
15451SOL    HW147209   6.072   2.916   3.538 -1.3999 -1.9964 -1.2175
15451SOL    HW247210   6.194   2.866   3.463  2.5177  2.9062  1.2854
15452SOL     OW47211   6.209   6.803   5.646  0.1999 -0.0107 -0.0207
15452SOL    HW147212   6.223   6.880   5.701 -0.6596  0.7420 -0.8202
15452SOL    HW247213   6.121   6.814   5.611 -0.1993 -1.7014  0.3573
15453SOL     OW47214   5.009   4.824   6.740 -0.8061  0.5577  0.2237
15453SOL    HW147215   5.066   4.901   6.739 -0.6258  0.4245 -0.3840
15453SOL    HW247216   4.939   4.846   6.678  0.0567 -0.3532 -1.1196
15454SOL     OW47217   1.258   3.343   2.993  0.0911 -0.4128 -0.1421
15454SOL    HW147218   1.314   3.421   2.993  0.3089 -0.5586  0.4739
15454SOL    HW247219   1.301   3.282   2.933 -1.5065  0.8992 -2.7972
15455SOL     OW47220   2.507   3.856   0.172  0.2398  0.1241 -0.2722
15455SOL    HW147221   2.412   3.856   0.163  0.2678  0.6949 -0.6396
15455SOL    HW247222   2.524   3.822   0.260 -0.2753 -0.5388 -0.4223
15456SOL     OW47223   4.971   3.675   0.961  0.4388  0.4882 -0.2180
15456SOL    HW147224   5.066   3.685   0.966  0.2454  3.2438 -0.2252
15456SOL    HW247225   4.951   3.682   0.868  0.2728 -1.0768 -0.3182
15457SOL     OW47226   2.615   6.200   1.485  0.5635 -0.0818  0.3175
15457SOL    HW147227   2.598   6.275   1.428 -0.3092 -0.9044 -0.5243
15457SOL    HW247228   2.694   6.160   1.449 -0.2909 -0.9159 -0.6716
15458SOL     OW47229   6.743   6.555   2.130 -0.4692  0.3820 -0.2522
15458SOL    HW147230   6.767   6.534   2.221 -0.4096  0.2328 -0.3023
15458SOL    HW247231   6.680   6.627   2.138 -1.3725 -0.3998 -0.0166
15459SOL     OW47232   7.621   6.907   0.853  0.2004  0.1501 -0.4682
15459SOL    HW147233   7.707   6.914   0.894  0.6400  0.6861 -1.4455
15459SOL    HW247234   7.607   6.813   0.841  0.7387  0.0749 -0.4939
15460SOL     OW47235   6.011   0.709   2.307 -0.3400 -0.0746 -0.6761
15460SOL    HW147236   6.011   0.783   2.368  0.1547  0.3070 -1.1244
15460SOL    HW247237   5.932   0.721   2.254 -0.7595 -0.3952 -0.1336
15461SOL     OW47238   6.150   2.192   2.687  0.7484 -0.3012  0.5541
15461SOL    HW147239   6.130   2.098   2.688  0.0564 -0.1777 -0.1571
15461SOL    HW247240   6.071   2.234   2.721  0.4187  0.0965 -0.6246
15462SOL     OW47241   1.140   0.530   7.275 -0.0353 -0.2375  0.1515
15462SOL    HW147242   1.127   0.573   7.360  0.7291 -0.2448  0.2842
15462SOL    HW247243   1.133   0.437   7.294  0.9545 -0.2774  0.3733
15463SOL     OW47244   1.644   1.441   3.372 -0.0488 -0.3119  0.0827
15463SOL    HW147245   1.606   1.365   3.416 -2.7675 -0.0100 -1.4809
15463SOL    HW247246   1.677   1.408   3.289 -1.8430  0.2232 -0.8998
15464SOL     OW47247   2.515   0.615   6.486 -0.1283  0.5977  0.0432
15464SOL    HW147248   2.428   0.621   6.446  0.4266  4.4400 -0.9772
15464SOL    HW247249   2.503   0.654   6.573  0.1362 -1.1872  0.9224
15465SOL     OW47250   7.366   7.639   6.888 -0.2381 -0.5424 -0.3460
15465SOL    HW147251   7.331   7.703   6.826 -0.2559  0.5194  0.7331
15465SOL    HW247252   7.352   7.555   6.846 -1.5281  0.0635 -1.1664
15466SOL     OW47253   6.499   4.230   5.178 -0.4032  0.1029 -0.5049
15466SOL    HW147254   6.574   4.171   5.174 -0.8823 -0.6912  1.4360
15466SOL    HW247255   6.429   4.184   5.131  0.5777  1.4367 -3.5782
15467SOL     OW47256   1.792   6.222   0.518 -0.0910  0.2276  0.0129
15467SOL    HW147257   1.742   6.141   0.508  1.8140 -1.0001 -0.1085
15467SOL    HW247258   1.753   6.282   0.455 -1.7016 -0.4838  0.2658
15468SOL     OW47259   4.362   3.998   6.884 -0.4454  0.0797 -0.0445
15468SOL    HW147260   4.445   4.014   6.929  0.5075 -1.1909 -1.2459
15468SOL    HW247261   4.334   3.912   6.916 -0.5857 -0.1024 -0.6431
15469SOL     OW47262   0.731   2.291   1.527 -0.4163  0.3479 -0.1037
15469SOL    HW147263   0.732   2.368   1.469 -1.1107  0.2087 -0.3164
15469SOL    HW247264   0.817   2.290   1.568  0.0617  0.5074 -1.0718
15470SOL     OW47265   2.739   7.688   3.384 -0.0444 -0.5534 -0.6293
15470SOL    HW147266   2.664   7.668   3.328 -0.7480 -0.6786  0.3286
15470SOL    HW247267   2.742   7.783   3.388  0.1787 -0.5423 -1.1087
15471SOL     OW47268   4.530   4.147   2.118 -0.2334 -0.5948  0.1757
15471SOL    HW147269   4.590   4.131   2.044  0.7299 -2.4760  1.2671
15471SOL    HW247270   4.450   4.181   2.077  0.4390 -1.1082 -1.6872
15472SOL     OW47271   0.164   2.832   0.789 -0.5309  0.0239  0.0413
15472SOL    HW147272   0.158   2.859   0.881 -2.1720 -0.7942  0.2147
15472SOL    HW247273   0.149   2.913   0.740 -1.2887  0.1839  0.5144
15473SOL     OW47274   6.023   3.678   0.146 -0.3204 -0.2397  0.2801
15473SOL    HW147275   6.103   3.625   0.144 -1.4523 -2.0618 -0.3057
15473SOL    HW247276   6.000   3.683   0.238  1.1013  1.3831  0.5854
15474SOL     OW47277   4.129   2.423   1.687  0.0783  0.0675  0.2268
15474SOL    HW147278   4.076   2.468   1.752 -0.1526 -0.1004  0.1561
15474SOL    HW247279   4.175   2.355   1.736 -0.2642 -0.2012  0.1760
15475SOL     OW47280   4.510   7.108   2.303  0.8950 -0.2400  0.2450
15475SOL    HW147281   4.448   7.096   2.231  0.4328 -0.5377  0.6850
15475SOL    HW247282   4.562   7.184   2.277 -0.7199  1.0433  0.5971
15476SOL     OW47283   6.297   3.288   5.778 -0.1132  0.6871 -0.3381
15476SOL    HW147284   6.291   3.204   5.732  1.8552  1.1617 -1.5933
15476SOL    HW247285   6.238   3.279   5.852 -0.9222 -1.3331 -1.1480
15477SOL     OW47286   4.419   7.904   2.243  0.2780 -0.2980 -0.4410
15477SOL    HW147287   4.457   7.964   2.179 -1.9195 -0.3113 -1.8662
15477SOL    HW247288   4.403   7.823   2.195 -4.2331  0.6381 -0.9596
15478SOL     OW47289   3.392   5.969   0.320 -0.2655 -0.2080  0.2158
15478SOL    HW147290   3.398   5.899   0.385  2.2476 -0.2760  0.0058
15478SOL    HW247291   3.401   6.050   0.371  2.5709 -0.2804  0.0109
15479SOL     OW47292   0.218   6.656   1.841  0.4320 -0.4723  0.2112
15479SOL    HW147293   0.206   6.703   1.923  1.3622 -0.2415  0.2294
15479SOL    HW247294   0.276   6.583   1.864  0.2013 -0.7599 -0.1163
15480SOL     OW47295   3.170   2.718   4.975 -0.1349  0.3031  0.2442
15480SOL    HW147296   3.077   2.730   4.956 -0.1833  1.1307  0.9585
15480SOL    HW247297   3.199   2.802   5.011  0.7245 -0.1695  0.7042
15481SOL     OW47298   3.190   2.257   3.943  0.2312  0.2923 -0.0110
15481SOL    HW147299   3.169   2.212   4.025 -0.0282  0.3635 -0.0401
15481SOL    HW247300   3.106   2.271   3.900  0.3732  0.2101 -0.3153
15482SOL     OW47301   5.841   2.261   0.405  0.1014 -0.0354  0.6605
15482SOL    HW147302   5.913   2.285   0.346 -0.4923  0.5198  0.1447
15482SOL    HW247303   5.818   2.342   0.450 -1.7218  0.3730 -0.8737
15483SOL     OW47304   3.244   7.498   4.097  0.3059 -0.2238  0.6196
15483SOL    HW147305   3.160   7.459   4.123  0.0321  0.0899  0.2168
15483SOL    HW247306   3.293   7.425   4.059 -0.3353 -0.1257 -0.4427
15484SOL     OW47307   3.487   0.731   4.305 -0.1023  0.7613  0.0017
15484SOL    HW147308   3.426   0.731   4.378  0.6806  0.4578  0.6664
15484SOL    HW247309   3.445   0.676   4.238 -0.4368  0.3315  0.5574
15485SOL     OW47310   4.353   3.985   7.545 -0.0112 -0.0804 -0.3025
15485SOL    HW147311   4.329   4.076   7.528  1.2848  0.0320 -1.7623
15485SOL    HW247312   4.342   3.941   7.461  1.7531 -0.6870 -0.2734
15486SOL     OW47313   1.553   3.752   2.076  0.0484  0.6352  0.2906
15486SOL    HW147314   1.486   3.686   2.058  0.5038 -0.4281  2.1772
15486SOL    HW247315   1.635   3.704   2.072  0.5878  1.5720 -0.3624
15487SOL     OW47316   2.911   3.169   2.068 -0.0702 -0.1345  0.6047
15487SOL    HW147317   2.854   3.142   1.997  0.1153 -0.0321  0.4137
15487SOL    HW247318   2.997   3.179   2.027  0.2488 -1.0137  1.0358
15488SOL     OW47319   1.987   1.285   3.358 -0.2098  0.0031 -0.1647
15488SOL    HW147320   1.989   1.356   3.295  1.8199 -0.3621 -0.5927
15488SOL    HW247321   1.982   1.205   3.304  0.3347 -0.2682  0.1789
15489SOL     OW47322   2.790   6.072   7.996 -0.2406 -0.3092  0.1206
15489SOL    HW147323   2.744   6.092   8.078 -0.7046  0.4326 -0.3130
15489SOL    HW247324   2.720   6.056   7.933  0.0645  1.1490 -0.6230
15490SOL     OW47325   3.869   5.457   3.831  0.4496 -0.7459 -0.0989
15490SOL    HW147326   3.911   5.498   3.907  1.4456 -0.4850 -0.7626
15490SOL    HW247327   3.828   5.378   3.865 -0.3644  0.1096  0.9685
15491SOL     OW47328   4.748   4.101   4.405 -0.6653 -0.1711 -0.0810
15491SOL    HW147329   4.754   4.083   4.499 -1.3042 -1.5630 -0.2845
15491SOL    HW247330   4.706   4.186   4.400  0.4209  0.4612  0.9102
15492SOL     OW47331   6.480   0.529   1.642 -0.4924  0.6989  0.2729
15492SOL    HW147332   6.450   0.451   1.595 -0.9061 -0.1768  1.9202
15492SOL    HW247333   6.505   0.497   1.729  1.1890  2.0997  0.3744
15493SOL     OW47334   1.139   6.726   0.841 -0.2067 -0.2273  0.8676
15493SOL    HW147335   1.186   6.705   0.922  0.0914 -1.1334  0.4796
15493SOL    HW247336   1.161   6.653   0.782  2.0913  1.8546 -1.1022
15494SOL     OW47337   7.289   7.202   1.110 -0.6653 -0.5161  0.3916
15494SOL    HW147338   7.222   7.253   1.156 -0.6433  0.3164 -0.4823
15494SOL    HW247339   7.365   7.203   1.169 -0.5518  0.7480  0.2468
15495SOL     OW47340   0.013   5.940   7.916 -0.4547  0.0118 -0.4051
15495SOL    HW147341  -0.038   5.901   7.845  0.8858 -2.9025  0.1300
15495SOL    HW247342   0.101   5.951   7.880  0.3090 -1.7333  0.7997
15496SOL     OW47343   6.250   4.077   4.751 -0.2212  0.2180 -0.6973
15496SOL    HW147344   6.218   4.018   4.683  1.1428 -0.3123 -0.9089
15496SOL    HW247345   6.288   4.151   4.703 -0.3550  0.4317 -0.4784
15497SOL     OW47346   0.432   7.744   3.896 -0.2965  0.1752 -0.6477
15497SOL    HW147347   0.369   7.816   3.900  0.0620  0.4680 -0.2276
15497SOL    HW247348   0.469   7.740   3.984 -0.9183 -1.0639 -0.4276
15498SOL     OW47349   5.631   6.402   6.546 -0.3668 -0.1789  0.3743
15498SOL    HW147350   5.691   6.344   6.594  0.4934  0.4280  0.0471
15498SOL    HW247351   5.562   6.421   6.609  0.1697 -0.2848  1.0133
15499SOL     OW47352   1.253   6.600   2.480  0.0438 -0.0270 -0.0208
15499SOL    HW147353   1.218   6.577   2.566  0.8139 -0.8245  0.0948
15499SOL    HW247354   1.347   6.610   2.495  0.5616 -2.4981 -1.2039
15500SOL     OW47355   6.138   1.051   7.565  0.1522  0.7652  0.8629
15500SOL    HW147356   6.168   1.126   7.617  2.7497 -0.5596  1.4538
15500SOL    HW247357   6.156   1.077   7.474 -0.5671  1.4992  0.9205
15501SOL     OW47358   2.032   3.508   0.952  0.5369  0.2877  0.7342
15501SOL    HW147359   2.115   3.555   0.946  0.5876  0.1231 -4.4358
15501SOL    HW247360   1.967   3.571   0.919 -0.7928 -0.6728  1.4423
15502SOL     OW47361   5.109   4.795   3.610 -0.0549 -0.0213 -0.0283
15502SOL    HW147362   5.123   4.701   3.595  0.8975  0.0773  0.1380
15502SOL    HW247363   5.023   4.813   3.574  0.3274 -0.6835 -1.3266
15503SOL     OW47364   3.802   5.161   6.016  0.1844  0.6000  0.0084
15503SOL    HW147365   3.885   5.115   6.030  0.1717  1.1425  2.5318
15503SOL    HW247366   3.762   5.118   5.941  2.1838 -0.4927 -0.5020
15504SOL     OW47367   1.049   3.735   1.355 -0.3060 -0.6124 -0.1471
15504SOL    HW147368   1.139   3.705   1.372  0.9287  2.0021 -1.3902
15504SOL    HW247369   1.033   3.709   1.264  0.8058  2.1561 -1.2651
15505SOL     OW47370   0.150   4.009   0.406 -0.7076 -0.3122 -0.3938
15505SOL    HW147371   0.174   4.091   0.364 -0.5872 -0.8019 -1.3105
15505SOL    HW247372   0.055   4.012   0.412 -0.8192 -0.6773 -1.6767
15506SOL     OW47373   4.391   1.160   2.387  0.4201 -0.4081 -0.2998
15506SOL    HW147374   4.420   1.250   2.371  1.7636 -0.3627  1.9183
15506SOL    HW247375   4.333   1.166   2.463  0.7523 -1.4247  0.0602
15507SOL     OW47376   3.716   3.502   0.953  0.2787  0.4366 -0.0360
15507SOL    HW147377   3.806   3.528   0.938  0.7091 -1.9810 -2.2965
15507SOL    HW247378   3.667   3.584   0.956  2.4705  1.7743  0.9842
15508SOL     OW47379   4.370   0.141   0.217  0.8588 -0.6706  0.3815
15508SOL    HW147380   4.285   0.170   0.185  1.6484  2.0983  0.4311
15508SOL    HW247381   4.352   0.064   0.270 -1.4628 -0.7560 -0.4207
15509SOL     OW47382   6.884   6.219   4.854 -0.7224  0.4801  0.3737
15509SOL    HW147383   6.840   6.137   4.831  0.4337  0.1712 -0.8127
15509SOL    HW247384   6.852   6.239   4.942 -0.3871 -1.7019  1.0511
15510SOL     OW47385   2.907   0.404   6.946  0.0162  0.0719 -0.1603
15510SOL    HW147386   2.957   0.333   6.987 -1.3004 -1.8189 -1.6882
15510SOL    HW247387   2.819   0.396   6.983 -0.1667  0.9005 -0.3978
15511SOL     OW47388   0.054   4.409   3.474  0.5794 -0.2848  0.6367
15511SOL    HW147389   0.048   4.424   3.568  0.9866 -3.0955  1.1817
15511SOL    HW247390  -0.001   4.333   3.458  1.8547 -0.9017 -1.1254
15512SOL     OW47391   4.623   1.380   6.010 -0.5655 -0.1206  0.2591
15512SOL    HW147392   4.573   1.456   5.979 -0.5818  0.5825  1.9322
15512SOL    HW247393   4.686   1.363   5.940 -1.2675  0.7477 -0.6184
15513SOL     OW47394   7.778   5.022   1.860  0.2211 -0.2658  0.1984
15513SOL    HW147395   7.856   5.077   1.869  0.2269 -0.4332  1.2745
15513SOL    HW247396   7.731   5.059   1.785  1.2196 -0.0355 -0.3311
15514SOL     OW47397   7.881   0.640   3.770 -0.5443 -0.3192 -0.0709
15514SOL    HW147398   7.796   0.684   3.779  0.5439  1.8843 -0.1776
15514SOL    HW247399   7.895   0.598   3.855 -1.2676  0.1718  0.3078
15515SOL     OW47400   3.171   0.022   3.635  0.8140 -0.1491 -0.3871
15515SOL    HW147401   3.230  -0.049   3.662  1.3157  0.4634  0.1539
15515SOL    HW247402   3.221   0.102   3.652 -0.8305  0.4921  1.7891
15516SOL     OW47403   4.803   6.919   2.427  0.0339 -0.1154  0.0756
15516SOL    HW147404   4.731   6.960   2.379  0.9399  1.8013  0.2316
15516SOL    HW247405   4.878   6.977   2.410  1.1316 -1.1394  1.2490
15517SOL     OW47406   2.246   6.101   6.382  0.3224  0.0445 -0.2414
15517SOL    HW147407   2.239   6.007   6.397 -3.3097 -0.1457 -2.0987
15517SOL    HW247408   2.307   6.109   6.308 -0.3459 -1.0160 -0.9450
15518SOL     OW47409   6.319   5.833   6.483 -0.1412  0.0504  0.2939
15518SOL    HW147410   6.300   5.780   6.405 -0.0876  1.2073 -0.5273
15518SOL    HW247411   6.275   5.916   6.466  0.4895  0.5711  1.1761
15519SOL     OW47412   6.796   4.449   5.460 -0.6585  0.4679  0.1465
15519SOL    HW147413   6.707   4.471   5.487 -0.7660  0.0352  0.1609
15519SOL    HW247414   6.795   4.353   5.451 -0.3060  0.4949 -0.2387
15520SOL     OW47415   7.262   4.864   0.013 -0.0155  0.1099 -0.1629
15520SOL    HW147416   7.304   4.874  -0.072 -0.1669  0.7955 -0.1628
15520SOL    HW247417   7.329   4.823   0.068  0.4536  0.6485 -0.3228
15521SOL     OW47418   2.468   1.730   2.550  0.3831  0.5804  0.1823
15521SOL    HW147419   2.526   1.687   2.487 -0.2749  0.5758 -0.4450
15521SOL    HW247420   2.390   1.752   2.498  0.3796  1.8109  0.6803
15522SOL     OW47421   3.724   4.750   0.595 -0.1175 -0.2572  0.1677
15522SOL    HW147422   3.818   4.751   0.610  0.4116 -1.9834 -2.4331
15522SOL    HW247423   3.706   4.833   0.550  0.0965  0.1592  0.8383
15523SOL     OW47424   3.289   1.208   0.745 -0.3260 -0.2383 -0.0723
15523SOL    HW147425   3.241   1.179   0.668 -0.0201  0.6300 -0.5955
15523SOL    HW247426   3.331   1.128   0.778  0.1496 -0.4766 -1.2319
15524SOL     OW47427   3.015   2.952   2.741  0.6802 -0.3594  0.0757
15524SOL    HW147428   2.999   2.965   2.648  3.0202 -1.5526 -0.5576
15524SOL    HW247429   2.930   2.925   2.776 -0.5953  1.5210 -1.3735
15525SOL     OW47430   3.286   1.821   6.393 -0.2465  0.2200 -0.2620
15525SOL    HW147431   3.247   1.908   6.383 -0.6403  0.2497  1.4042
15525SOL    HW247432   3.314   1.817   6.484 -0.3625 -1.4642 -0.2738
15526SOL     OW47433   6.956   0.346   6.304  0.3050 -0.6185 -1.1402
15526SOL    HW147434   7.030   0.344   6.243  0.6286 -1.0943 -0.7331
15526SOL    HW247435   6.880   0.362   6.248  0.7816  0.5621 -1.4860
15527SOL     OW47436   7.697   1.523   2.927  0.6914 -0.1267  0.6960
15527SOL    HW147437   7.705   1.599   2.986  2.1289  0.7483 -0.5512
15527SOL    HW247438   7.709   1.447   2.984  1.6071  0.6752  1.6126
15528SOL     OW47439   3.210   2.238   0.867 -0.5677  0.2538  0.7183
15528SOL    HW147440   3.246   2.327   0.872 -0.6069  0.2333  1.4421
15528SOL    HW247441   3.128   2.249   0.819  0.0631  0.4011 -0.3602
15529SOL     OW47442   7.856   7.770   5.696  0.2087 -0.3056 -0.1558
15529SOL    HW147443   7.927   7.834   5.688 -0.8489  1.1802  1.5810
15529SOL    HW247444   7.838   7.743   5.606  3.1744 -1.0371 -0.6233
15530SOL     OW47445   2.877   5.329   3.783  0.3201 -0.1259  0.1419
15530SOL    HW147446   2.952   5.282   3.820  1.2858  0.3257 -1.1749
15530SOL    HW247447   2.861   5.401   3.844  0.8527 -0.3269  0.5259
15531SOL     OW47448   3.219   6.602   1.820 -0.3103 -0.1485 -0.3325
15531SOL    HW147449   3.183   6.556   1.896 -0.7756  0.4876 -0.1646
15531SOL    HW247450   3.298   6.553   1.797 -0.3283 -0.5120  0.3844
15532SOL     OW47451   6.402   7.289   6.203  0.3653 -0.6669 -0.1682
15532SOL    HW147452   6.468   7.261   6.266  0.5185 -2.8313 -1.1855
15532SOL    HW247453   6.319   7.286   6.252  0.9238  2.3776  1.2021
15533SOL     OW47454   0.810   1.458   7.938 -0.6415 -0.3895  0.2296
15533SOL    HW147455   0.796   1.448   8.032 -1.8790  0.2214  0.1364
15533SOL    HW247456   0.721   1.467   7.902 -0.1563 -0.0562 -0.9243
15534SOL     OW47457   2.858   6.804   2.275  0.0607 -0.0260 -0.1045
15534SOL    HW147458   2.818   6.891   2.269  0.1709 -0.0001 -0.4876
15534SOL    HW247459   2.889   6.786   2.186  1.1465  0.0705  0.2443
15535SOL     OW47460   6.300   6.172   0.658 -0.1628 -0.3704  0.0583
15535SOL    HW147461   6.388   6.208   0.660 -0.8152  1.3283 -0.1334
15535SOL    HW247462   6.311   6.084   0.622  1.4321 -0.1599 -0.0364
15536SOL     OW47463   0.174   4.637   5.966  0.0718  0.3472  0.0274
15536SOL    HW147464   0.234   4.563   5.976  0.3441  0.6256  0.4980
15536SOL    HW247465   0.220   4.697   5.908 -0.5446 -0.2564 -1.1148
15537SOL     OW47466   1.050   2.636   7.252 -0.2780 -0.3861 -0.0376
15537SOL    HW147467   1.142   2.640   7.279 -0.2341  0.9394 -0.3212
15537SOL    HW247468   1.005   2.595   7.326  0.0641  1.8640  1.5291
15538SOL     OW47469   7.415   4.407   4.000  0.1005  0.0424  0.2387
15538SOL    HW147470   7.339   4.352   4.016 -1.1668  1.5047 -0.5521
15538SOL    HW247471   7.460   4.364   3.927 -1.6215  0.7086 -1.2966
15539SOL     OW47472   0.370   4.154   4.872  0.9075  0.8784 -0.1108
15539SOL    HW147473   0.421   4.115   4.944 -0.8821 -1.7018 -0.0944
15539SOL    HW247474   0.325   4.228   4.912  1.4691  0.6806  0.9259
15540SOL     OW47475   5.656   5.948   6.841 -0.1291 -0.3535  0.3024
15540SOL    HW147476   5.688   5.980   6.925 -1.7886  0.5447  0.6169
15540SOL    HW247477   5.594   5.878   6.863  0.5124 -1.1256 -0.2502
15541SOL     OW47478   2.306   1.528   3.093  0.6068  0.9317 -0.3674
15541SOL    HW147479   2.358   1.448   3.102 -1.0627 -0.0653  1.1015
15541SOL    HW247480   2.291   1.537   2.999 -1.8591 -2.3723 -0.4563
15542SOL     OW47481   0.659   0.893   7.445  0.4689 -0.0191 -0.6933
15542SOL    HW147482   0.739   0.844   7.424 -0.5522 -1.9031 -0.3448
15542SOL    HW247483   0.657   0.896   7.540  0.8361  1.3297 -0.6961
15543SOL     OW47484   5.830   7.482   0.433  0.1660 -0.5457 -0.1675
15543SOL    HW147485   5.870   7.501   0.518  0.5037  1.0179 -0.6457
15543SOL    HW247486   5.896   7.510   0.369 -1.2015  1.0598 -0.9651
15544SOL     OW47487   7.650   5.979   7.999 -0.6740  0.0304 -0.0851
15544SOL    HW147488   7.621   6.015   7.915 -0.2089  0.6645  0.0188
15544SOL    HW247489   7.737   6.017   8.013  0.2898 -1.9370 -0.4548
15545SOL     OW47490   0.934   4.648   5.265  0.9107 -0.3989  0.0729
15545SOL    HW147491   0.930   4.610   5.353 -0.1323 -3.0582 -1.0090
15545SOL    HW247492   0.844   4.676   5.247  1.1654  0.3407 -0.0806
15546SOL     OW47493   1.888   2.766   1.810 -0.1992 -0.9119 -0.0890
15546SOL    HW147494   1.925   2.821   1.879  1.5180 -2.7099  0.5128
15546SOL    HW247495   1.910   2.811   1.728 -0.2565  0.0983  0.4379
15547SOL     OW47496   5.194   4.622   7.197  0.5372 -0.1064 -0.1178
15547SOL    HW147497   5.282   4.650   7.174 -0.1137  1.5064 -0.8662
15547SOL    HW247498   5.165   4.685   7.263 -0.1061 -0.4962 -0.0185
15548SOL     OW47499   4.598   0.920   0.408  0.5870  0.1363  0.6817
15548SOL    HW147500   4.653   0.946   0.334  3.8049 -1.4357  2.3431
15548SOL    HW247501   4.616   0.827   0.420 -4.2082 -1.1113  0.0739
15549SOL     OW47502   5.196   6.868   4.876  0.6065 -0.2251  0.0629
15549SOL    HW147503   5.209   6.785   4.830 -1.2502 -0.1189 -0.7171
15549SOL    HW247504   5.135   6.848   4.947 -0.1717  0.5321 -0.3697
15550SOL     OW47505   5.720   5.994   3.124 -0.3461 -0.3154 -0.2414
15550SOL    HW147506   5.778   6.026   3.193 -0.3902 -0.5210 -0.1093
15550SOL    HW247507   5.765   5.916   3.090 -0.3314 -0.2234 -0.4332
15551SOL     OW47508   3.667   2.078   4.233  0.6053 -0.2426 -0.5929
15551SOL    HW147509   3.672   2.003   4.175 -1.2046 -0.5070 -0.4747
15551SOL    HW247510   3.664   2.154   4.175 -1.1276 -0.5009 -0.8933
15552SOL     OW47511   2.758   4.521   7.638  0.4519 -0.3831  0.0032
15552SOL    HW147512   2.782   4.581   7.710  2.2507  1.1645 -1.7640
15552SOL    HW247513   2.673   4.486   7.664 -0.2585  2.2169  1.6133
15553SOL     OW47514   5.549   0.711   5.708 -0.9755  0.2928 -0.1802
15553SOL    HW147515   5.496   0.730   5.785 -1.8008 -0.5587 -0.5257
15553SOL    HW247516   5.514   0.768   5.639  0.4398  1.8421  0.2891
15554SOL     OW47517   2.743   5.079   2.479 -0.2900 -0.0236 -0.0122
15554SOL    HW147518   2.830   5.071   2.439 -0.5546  0.8102 -0.8026
15554SOL    HW247519   2.703   5.153   2.433 -0.7713  0.7186  1.5468
15555SOL     OW47520   4.818   3.832   5.321  0.4450 -0.0838  0.3840
15555SOL    HW147521   4.905   3.869   5.334 -0.5606  2.8991 -0.3707
15555SOL    HW247522   4.818   3.801   5.230  0.5955  0.3212  0.2445
15556SOL     OW47523   3.744   4.623   1.311  0.2649  0.1243 -0.3021
15556SOL    HW147524   3.786   4.554   1.260  0.2450  1.4747 -2.2756
15556SOL    HW247525   3.774   4.609   1.401 -0.2434 -2.7823 -0.4943
15557SOL     OW47526   6.057   6.842   3.045 -0.0314 -0.4443 -0.3121
15557SOL    HW147527   6.086   6.903   3.113 -0.6585 -1.6302  1.0707
15557SOL    HW247528   5.973   6.877   3.017  1.0479  1.0619 -1.8337
15558SOL     OW47529   0.420   4.599   2.367 -0.0026 -0.0312 -0.3825
15558SOL    HW147530   0.381   4.627   2.284  1.3521 -0.2345 -1.1171
15558SOL    HW247531   0.463   4.516   2.347 -1.0659 -0.9443  0.9525
15559SOL     OW47532   4.048   2.352   4.818 -0.2282 -0.3402  0.8643
15559SOL    HW147533   4.114   2.360   4.749  1.5071 -2.2231  2.2079
15559SOL    HW247534   4.033   2.442   4.847 -1.4488  0.5800 -2.2790
15560SOL     OW47535   0.259   7.293   1.877  0.4012  0.9678  0.1458
15560SOL    HW147536   0.292   7.255   1.959  0.6464  0.7387 -0.0570
15560SOL    HW247537   0.326   7.270   1.812  0.6200  1.8697  0.0446
15561SOL     OW47538   5.406   6.666   0.457  0.0443  0.1555 -0.0163
15561SOL    HW147539   5.456   6.641   0.535  0.1381  0.2198 -0.0559
15561SOL    HW247540   5.463   6.726   0.410  0.8189 -1.3961 -1.1587
15562SOL     OW47541   2.665   2.835   5.025 -0.5999 -0.5233 -0.2265
15562SOL    HW147542   2.608   2.837   5.102  1.0403 -0.4219  1.0403
15562SOL    HW247543   2.733   2.771   5.047  2.8476  3.0625  0.6973
15563SOL     OW47544   2.621   1.172   5.038  0.5598  0.0217 -0.3166
15563SOL    HW147545   2.694   1.159   5.099  0.0477  2.7282  0.9793
15563SOL    HW247546   2.543   1.167   5.093 -0.3015 -2.2821 -1.6031
15564SOL     OW47547   7.539   0.425   2.021 -0.2169  0.2879 -0.3605
15564SOL    HW147548   7.561   0.368   1.947 -0.3410 -0.2166 -0.0138
15564SOL    HW247549   7.624   0.453   2.056 -0.1597  0.8682 -0.9473
15565SOL     OW47550   3.722   4.294   6.522  0.0906  0.2011 -0.6354
15565SOL    HW147551   3.709   4.199   6.523  1.2499  0.0347 -0.4472
15565SOL    HW247552   3.813   4.307   6.549  0.8720  1.2017 -3.3994
15566SOL     OW47553   2.184   2.849   6.415 -0.9049 -0.3939 -0.4053
15566SOL    HW147554   2.264   2.890   6.447 -1.0656  1.2181 -1.9148
15566SOL    HW247555   2.210   2.805   6.334 -1.6592  0.8264 -1.3457
15567SOL     OW47556   2.406   3.522   3.040 -0.2627  0.2981  0.1034
15567SOL    HW147557   2.458   3.490   2.966  1.0600 -0.4027  1.2721
15567SOL    HW247558   2.435   3.612   3.052  0.6395 -0.0456  0.6602
15568SOL     OW47559   3.412   7.715   2.424  0.0752 -0.3724 -0.0109
15568SOL    HW147560   3.334   7.677   2.464 -1.0664  2.7238  1.0109
15568SOL    HW247561   3.423   7.666   2.343 -3.3380 -0.5911 -0.5087
15569SOL     OW47562   2.826   2.735   3.678 -0.2497  0.0779 -0.5951
15569SOL    HW147563   2.801   2.815   3.724 -0.0546  0.5982 -1.3729
15569SOL    HW247564   2.769   2.668   3.714 -1.3095  0.8253 -0.8371
15570SOL     OW47565   7.221   1.059   4.776 -0.2560 -0.5800  0.1157
15570SOL    HW147566   7.199   0.984   4.721  0.4440  0.2002 -1.2821
15570SOL    HW247567   7.317   1.058   4.781 -0.1329  0.9611 -1.0778
15571SOL     OW47568   7.248   7.837   7.990  0.4073 -0.1124  0.1581
15571SOL    HW147569   7.195   7.800   8.060  0.0377  0.9834  0.4724
15571SOL    HW247570   7.331   7.790   7.996  0.7702  0.6750  2.0215
15572SOL     OW47571   4.459   7.880   2.901 -0.0928  0.4132 -0.3174
15572SOL    HW147572   4.455   7.835   2.817 -0.9765 -1.6350  0.7510
15572SOL    HW247573   4.373   7.919   2.912 -0.3949 -0.3606  0.1490
15573SOL     OW47574   3.414   7.789   3.148  0.3038 -0.6993  0.2074
15573SOL    HW147575   3.421   7.859   3.084 -2.9092 -0.8279 -0.4599
15573SOL    HW247576   3.438   7.830   3.232  0.0408  0.7781 -0.4072
15574SOL     OW47577   1.305   6.424   0.201  0.1571  0.3459  0.3830
15574SOL    HW147578   1.319   6.331   0.185  1.4369  0.7462 -1.1699
15574SOL    HW247579   1.233   6.428   0.263 -0.0785 -1.6669  0.2916
15575SOL     OW47580   5.110   3.255   0.909  0.6724  0.0561 -0.1725
15575SOL    HW147581   5.062   3.193   0.853 -0.4966  0.6590  0.1297
15575SOL    HW247582   5.045   3.323   0.930  0.9942 -0.2857  2.1310
15576SOL     OW47583   4.618   5.031   4.125  0.2881 -0.4634 -0.8113
15576SOL    HW147584   4.620   4.965   4.194 -1.1746  1.5926  1.3368
15576SOL    HW247585   4.709   5.060   4.116  0.4212 -0.3756  0.6545
15577SOL     OW47586   5.369   6.712   5.377 -0.3363 -0.2425  0.0296
15577SOL    HW147587   5.294   6.660   5.403 -0.9052  0.4059 -0.2786
15577SOL    HW247588   5.360   6.723   5.282  1.3787 -2.0671 -0.4118
15578SOL     OW47589   7.518   7.993   3.611 -0.6085  0.1640  0.6514
15578SOL    HW147590   7.478   7.954   3.689 -0.3310  0.9509  1.2048
15578SOL    HW247591   7.476   8.079   3.604 -1.7428 -0.4640 -0.9611
15579SOL     OW47592   7.789   4.151   6.661  0.0809  0.2209 -0.7054
15579SOL    HW147593   7.814   4.070   6.705  1.2123  0.6137 -0.5747
15579SOL    HW247594   7.867   4.206   6.667 -1.1398  1.9482  0.6233
15580SOL     OW47595   7.642   1.176   7.842  0.1824  0.2180  0.1677
15580SOL    HW147596   7.585   1.190   7.918  0.0622  0.1448  0.0911
15580SOL    HW247597   7.654   1.263   7.805  0.8224  0.3620  0.6841
15581SOL     OW47598   5.328   3.785   5.612 -0.0494 -0.5633 -0.4099
15581SOL    HW147599   5.389   3.754   5.545  0.9012  2.3725 -1.0542
15581SOL    HW247600   5.339   3.880   5.612 -1.8258 -0.2569  2.2268
15582SOL     OW47601   0.677   7.297   1.309 -0.3975  0.2378 -0.2273
15582SOL    HW147602   0.720   7.216   1.283  0.2448  0.1251  1.1163
15582SOL    HW247603   0.606   7.270   1.367  0.2994  0.6667  0.8466
15583SOL     OW47604   4.393   5.904   5.692  0.2688  0.4747 -0.2095
15583SOL    HW147605   4.300   5.924   5.679 -0.3860 -2.1394  0.0127
15583SOL    HW247606   4.397   5.865   5.779  1.3239 -0.7922 -0.8065
15584SOL     OW47607   0.252   6.585   3.234  0.1567  0.3219  0.3986
15584SOL    HW147608   0.230   6.522   3.302 -1.7545  0.6604  0.1525
15584SOL    HW247609   0.340   6.614   3.255  0.3296 -0.9937  1.6167
15585SOL     OW47610   7.433   2.265   0.155 -0.1474 -0.2689  0.1142
15585SOL    HW147611   7.476   2.345   0.125 -0.5669 -0.1294 -0.1240
15585SOL    HW247612   7.447   2.264   0.250  2.4279 -1.4326 -0.1965
15586SOL     OW47613   4.316   1.555   5.277 -0.0104  0.2191 -0.5066
15586SOL    HW147614   4.350   1.580   5.191  1.2988 -1.5429 -0.5614
15586SOL    HW247615   4.222   1.543   5.263  0.0547  0.7061 -1.4849
15587SOL     OW47616   5.631   2.500   3.894  0.7561 -0.0082  0.0627
15587SOL    HW147617   5.717   2.541   3.904  1.3864 -0.8894 -1.4668
15587SOL    HW247618   5.641   2.414   3.934  0.5992 -0.1282 -0.1558
15588SOL     OW47619   3.397   5.765   3.910 -0.4190 -0.1074 -0.1237
15588SOL    HW147620   3.459   5.832   3.939 -0.4333 -0.8316  1.7683
15588SOL    HW247621   3.452   5.696   3.873 -0.3232  0.4482 -1.0366
15589SOL     OW47622   7.526   5.441   5.440  0.2359 -0.0692 -0.1837
15589SOL    HW147623   7.484   5.407   5.519  0.9882 -1.9730 -0.5617
15589SOL    HW247624   7.613   5.403   5.440  0.4614  0.3809 -1.6184
15590SOL     OW47625   1.800   5.877   5.593  0.7725 -0.1247 -0.6394
15590SOL    HW147626   1.827   5.969   5.595  0.5820 -0.0509 -1.2762
15590SOL    HW247627   1.809   5.848   5.684  1.6814  0.2754 -0.5818
15591SOL     OW47628   1.356   5.653   7.197 -0.5916 -0.7161 -0.3356
15591SOL    HW147629   1.305   5.658   7.116 -0.3301 -1.7875 -0.5860
15591SOL    HW247630   1.306   5.593   7.253 -0.6327 -0.1886  0.2079
15592SOL     OW47631   5.429   0.203   0.276  0.1109  0.3422  0.3148
15592SOL    HW147632   5.459   0.292   0.295  0.4883  0.5587 -1.1637
15592SOL    HW247633   5.352   0.215   0.221  0.1515 -0.2562  0.1261
15593SOL     OW47634   3.616   6.576   5.459  0.6258  0.1680 -0.2163
15593SOL    HW147635   3.690   6.521   5.433 -0.3982 -0.4309 -2.0879
15593SOL    HW247636   3.655   6.650   5.504  2.2776 -0.5946 -0.3248
15594SOL     OW47637   1.938   6.785   5.206  0.5279  0.0364  0.5445
15594SOL    HW147638   1.941   6.880   5.198  1.0800 -0.0885 -1.0749
15594SOL    HW247639   1.846   6.763   5.189  0.7069  0.1807 -0.7046
15595SOL     OW47640   4.389   1.631   6.890 -0.3380  0.3544 -0.3066
15595SOL    HW147641   4.436   1.642   6.973 -0.9459 -1.0757  0.2723
15595SOL    HW247642   4.331   1.556   6.906 -0.4574  0.0463 -2.0411
15596SOL     OW47643   1.998   7.753   0.723  0.5240  0.1245  0.3095
15596SOL    HW147644   1.962   7.798   0.800  0.9252  0.4801  0.2903
15596SOL    HW247645   1.946   7.673   0.717 -0.5989  0.8521 -0.0015
15597SOL     OW47646   1.666   1.903   0.192  0.2716  0.6887 -0.2935
15597SOL    HW147647   1.668   1.997   0.173 -0.1268  1.3085  2.2906
15597SOL    HW247648   1.727   1.892   0.265  0.9400 -1.2377 -1.0769
15598SOL     OW47649   4.744   7.341   5.867  0.4222  0.1470  0.0322
15598SOL    HW147650   4.667   7.361   5.814 -0.0325 -1.8392 -0.1403
15598SOL    HW247651   4.726   7.381   5.952 -1.0114 -0.5930  0.1130
15599SOL     OW47652   0.201   3.819   1.818 -0.6266 -0.0947 -0.9280
15599SOL    HW147653   0.228   3.793   1.730  2.0573 -2.0542  0.3084
15599SOL    HW247654   0.151   3.744   1.850 -0.3063 -0.0498 -0.3045
15600SOL     OW47655   2.357   0.608   0.787 -0.5353  0.1249  0.3133
15600SOL    HW147656   2.444   0.584   0.753 -0.8853 -1.1644  0.2536
15600SOL    HW247657   2.311   0.645   0.712 -0.5371 -0.6202 -0.0673
15601SOL     OW47658   6.416   3.488   2.345 -0.2836 -0.5065  0.2051
15601SOL    HW147659   6.366   3.426   2.292 -0.9569  1.5946 -1.7918
15601SOL    HW247660   6.507   3.461   2.333 -0.5462 -0.9937 -0.8083
15602SOL     OW47661   3.079   3.098   3.614  0.0878  0.4234 -0.2726
15602SOL    HW147662   2.987   3.107   3.637  0.7447  2.1872  2.1351
15602SOL    HW247663   3.093   3.163   3.544 -0.6630 -0.5539 -1.3554
15603SOL     OW47664   5.645   0.090   0.460  0.3936  0.1423  0.2535
15603SOL    HW147665   5.706   0.157   0.428  0.1852  1.1781  1.8918
15603SOL    HW247666   5.572   0.092   0.398  0.5830  1.1445  0.0462
15604SOL     OW47667   7.466   4.975   6.500  0.2708  0.6484 -0.3151
15604SOL    HW147668   7.387   5.028   6.510 -0.5628 -0.8998  2.0122
15604SOL    HW247669   7.538   5.037   6.516 -0.5739  1.4941  0.3344
15605SOL     OW47670   7.329   4.562   2.636  0.6178 -0.1710  0.2342
15605SOL    HW147671   7.393   4.549   2.566 -0.2994  0.2074 -0.6985
15605SOL    HW247672   7.361   4.638   2.685  0.1750  0.9036 -1.0836
15606SOL     OW47673   4.877   1.396   2.237 -0.2905  0.1160  0.3345
15606SOL    HW147674   4.821   1.341   2.291  1.0509 -0.4216  1.2210
15606SOL    HW247675   4.886   1.477   2.286  3.3476 -1.4090  2.5834
15607SOL     OW47676   0.005   7.324   7.017  0.0966 -0.2630  0.7124
15607SOL    HW147677  -0.015   7.283   6.933  1.8096  0.1421  0.0594
15607SOL    HW247678  -0.027   7.263   7.083  0.7687 -1.6927 -0.2382
15608SOL     OW47679   4.223   6.134   7.435  0.2446 -0.2965  0.0517
15608SOL    HW147680   4.135   6.112   7.466  0.8993 -1.9391  0.9067
15608SOL    HW247681   4.211   6.155   7.343 -0.8445 -2.3176 -0.3322
15609SOL     OW47682   1.715   6.157   4.715 -0.2075 -0.3626 -0.5672
15609SOL    HW147683   1.693   6.111   4.634  0.3833  0.7915 -1.4157
15609SOL    HW247684   1.690   6.248   4.698  2.3714  0.4467 -0.4983
15610SOL     OW47685   0.527   2.805   7.091 -0.4075 -0.0934 -0.1076
15610SOL    HW147686   0.467   2.802   7.016 -0.0541 -2.4070 -0.3773
15610SOL    HW247687   0.593   2.739   7.071  0.4680  0.1885  1.6472
15611SOL     OW47688   0.441   6.161   1.487  0.0149  0.1998  0.3727
15611SOL    HW147689   0.470   6.070   1.484 -0.2310  0.0742  1.4277
15611SOL    HW247690   0.522   6.212   1.492  0.3219  0.2534 -2.9734
15612SOL     OW47691   4.613   5.978   7.966  0.5049 -0.5420 -0.2232
15612SOL    HW147692   4.677   5.930   8.018 -0.1537  0.1429  1.2579
15612SOL    HW247693   4.646   6.068   7.965 -0.9324  0.0518  1.4636
15613SOL     OW47694   6.700   6.346   7.356 -0.6751  0.2271  0.3834
15613SOL    HW147695   6.700   6.382   7.445 -1.5393 -2.0952  1.3934
15613SOL    HW247696   6.621   6.382   7.316  0.2633  2.1313  0.1270
15614SOL     OW47697   4.963   3.865   5.910  0.0797  0.6717 -0.1364
15614SOL    HW147698   4.915   3.928   5.963 -0.7730  0.3046 -0.4470
15614SOL    HW247699   4.994   3.915   5.835  0.7085  1.0429  0.3612
15615SOL     OW47700   0.882   7.087   3.254 -0.1233  0.4625 -0.0601
15615SOL    HW147701   0.957   7.147   3.259  0.4011 -0.0253 -1.3793
15615SOL    HW247702   0.829   7.121   3.182  0.1419 -0.5756 -0.7762
15616SOL     OW47703   0.541   0.414   5.652  0.5804 -0.7711  0.2684
15616SOL    HW147704   0.448   0.404   5.673 -0.2136  0.6201 -2.2360
15616SOL    HW247705   0.561   0.339   5.596  0.2543  0.2521 -1.2583
15617SOL     OW47706   4.940   6.830   1.497  0.1120 -0.1278  0.5756
15617SOL    HW147707   5.006   6.897   1.514 -0.2791  0.3626  0.1653
15617SOL    HW247708   4.932   6.827   1.402 -1.9434  1.3062  0.6371
15618SOL     OW47709   2.037   6.303   0.623 -0.5300 -0.7814  0.3276
15618SOL    HW147710   2.017   6.386   0.579 -1.2951 -0.1815  1.7155
15618SOL    HW247711   1.958   6.250   0.612 -0.2921 -1.0756  0.0142
15619SOL     OW47712   4.428   4.084   4.468 -0.4401 -0.0087  0.3673
15619SOL    HW147713   4.385   4.086   4.553 -0.9730  0.0508  0.0952
15619SOL    HW247714   4.436   4.176   4.443  1.6345  0.1367  1.3039
15620SOL     OW47715   5.277   3.495   6.396  0.3757 -0.0475  0.4254
15620SOL    HW147716   5.192   3.455   6.416  0.3135  0.1551  0.5708
15620SOL    HW247717   5.301   3.541   6.477  1.7537 -2.0791  1.2679
15621SOL     OW47718   3.127   1.452   7.868 -0.1001  0.3508 -0.0395
15621SOL    HW147719   3.040   1.412   7.876 -0.5195  1.1541 -0.4010
15621SOL    HW247720   3.126   1.492   7.781  0.8462 -0.1063 -0.2764
15622SOL     OW47721   2.409   3.575   2.646 -0.4329 -0.6447  0.0537
15622SOL    HW147722   2.453   3.659   2.635 -3.0111  1.1451  1.9587
15622SOL    HW247723   2.474   3.520   2.691  0.9987  0.6451 -0.3391
15623SOL     OW47724   5.297   3.161   4.331  0.0738  0.0629  0.6703
15623SOL    HW147725   5.303   3.253   4.305 -0.1913 -0.1683 -0.2204
15623SOL    HW247726   5.341   3.113   4.261 -0.6690 -0.5674  0.6298
15624SOL     OW47727   2.398   2.613   7.270 -0.0180 -0.0070  0.2674
15624SOL    HW147728   2.480   2.615   7.320 -0.5530  0.7749  1.1504
15624SOL    HW247729   2.417   2.662   7.190  0.1336  0.9484  0.8743
15625SOL     OW47730   1.235   6.247   1.802 -0.7758  0.0357 -0.2863
15625SOL    HW147731   1.235   6.162   1.846  1.2686 -0.9207 -1.9526
15625SOL    HW247732   1.246   6.227   1.710  0.9519  2.1073 -0.6155
15626SOL     OW47733   4.962   0.075   0.529  0.2988  0.4297 -0.3502
15626SOL    HW147734   4.907   0.062   0.606 -0.0159  0.1809 -0.6137
15626SOL    HW247735   5.010  -0.007   0.519 -1.3653 -0.4450 -1.7587
15627SOL     OW47736   7.627   5.214   1.714 -0.0592  0.5714  0.4473
15627SOL    HW147737   7.620   5.227   1.620  1.4148 -0.0410  0.2217
15627SOL    HW247738   7.687   5.282   1.743 -1.0638  1.2100  1.0813
15628SOL     OW47739   0.729   6.197   3.155  0.0717  0.2466 -0.5435
15628SOL    HW147740   0.740   6.118   3.209  1.4799 -0.1265 -1.3231
15628SOL    HW247741   0.712   6.267   3.218 -0.6771 -0.5779  0.2018
15629SOL     OW47742   1.254   0.535   4.699 -0.3836  0.2675 -0.2173
15629SOL    HW147743   1.347   0.516   4.688 -0.7374 -0.7516 -1.8479
15629SOL    HW247744   1.248   0.630   4.693  0.4887  0.2934 -0.8555
15630SOL     OW47745   0.193   3.878   1.236 -0.5618 -0.8179  0.0373
15630SOL    HW147746   0.243   3.813   1.187  0.4765  0.6632 -0.9451
15630SOL    HW247747   0.114   3.893   1.183 -0.2113 -0.3936 -0.3727
15631SOL     OW47748   6.959   1.532   4.015  0.2864 -0.2932 -0.8681
15631SOL    HW147749   7.021   1.527   3.942  0.5819  1.1345 -0.7629
15631SOL    HW247750   6.883   1.578   3.978  1.3056  2.4669  0.1884
15632SOL     OW47751   1.746   1.849   1.463  0.0574 -0.1382 -0.4925
15632SOL    HW147752   1.692   1.894   1.398 -0.8159  0.3100  0.5055
15632SOL    HW247753   1.770   1.918   1.525 -2.2602 -1.1389  1.7154
15633SOL     OW47754   7.373   5.406   0.945  0.0738 -0.7624  0.0852
15633SOL    HW147755   7.455   5.389   0.900  2.0498  1.3184  2.5919
15633SOL    HW247756   7.366   5.502   0.946 -1.0822 -0.8104  2.0329
15634SOL     OW47757   2.267   2.210   0.370 -0.6924 -0.2263 -0.1553
15634SOL    HW147758   2.271   2.206   0.466 -2.5631  1.0456  0.0324
15634SOL    HW247759   2.328   2.142   0.340  2.0555  1.1429  1.8792
15635SOL     OW47760   3.345   1.524   5.537 -0.3047 -0.7691 -0.3245
15635SOL    HW147761   3.256   1.544   5.569 -0.7176 -0.5915 -1.5320
15635SOL    HW247762   3.346   1.429   5.526 -1.7500 -0.5333 -4.0367
15636SOL     OW47763   3.188   0.506   2.810  0.7110 -0.2907 -0.2510
15636SOL    HW147764   3.200   0.477   2.900 -0.6955 -0.7297 -0.1928
15636SOL    HW247765   3.276   0.503   2.772  1.1815 -0.9250  0.8550
15637SOL     OW47766   3.835   2.298   6.359 -0.1330  0.3274 -0.4420
15637SOL    HW147767   3.879   2.333   6.282 -0.5294 -0.3483 -0.9768
15637SOL    HW247768   3.784   2.224   6.327 -0.2092 -0.0366  0.4845
15638SOL     OW47769   0.584   0.466   1.624 -0.1882 -0.1127 -0.0875
15638SOL    HW147770   0.549   0.431   1.707  0.6003 -1.1131 -0.1628
15638SOL    HW247771   0.528   0.426   1.557 -0.1072 -0.1989 -0.1032
15639SOL     OW47772   1.414   6.954   3.381  0.5299  0.2657  0.1638
15639SOL    HW147773   1.357   7.032   3.383 -1.6712 -1.1013 -2.7771
15639SOL    HW247774   1.482   6.976   3.317  0.0273 -0.1342 -0.5128
15640SOL     OW47775   0.122   1.841   1.094 -0.5175  0.1670 -0.3931
15640SOL    HW147776   0.146   1.749   1.085 -2.8050 -0.5115 -0.1529
15640SOL    HW247777   0.167   1.869   1.174 -1.4477 -1.3933  0.7578
15641SOL     OW47778   2.868   1.707   3.284  0.1165 -0.7070 -0.4943
15641SOL    HW147779   2.898   1.625   3.324 -1.6889 -0.3373  1.8328
15641SOL    HW247780   2.928   1.721   3.211  1.0464 -3.6169 -0.4361
15642SOL     OW47781   5.210   1.914   5.807 -0.1961 -0.1567  0.0022
15642SOL    HW147782   5.227   1.977   5.736  2.2549  0.0803  0.6917
15642SOL    HW247783   5.270   1.841   5.788  0.6489 -0.0041  1.8911
15643SOL     OW47784   5.851   2.012   0.503 -0.5375 -0.1053  0.0810
15643SOL    HW147785   5.763   1.994   0.535  0.1472 -0.3942  1.9190
15643SOL    HW247786   5.848   2.103   0.472 -1.2351  0.2314  1.0895
15644SOL     OW47787   1.366   4.473   2.893  0.2452  0.0257  0.3005
15644SOL    HW147788   1.360   4.541   2.959  1.1881  0.1048  0.3153
15644SOL    HW247789   1.301   4.407   2.919 -0.6677  0.9005  0.2872
15645SOL     OW47790   5.276   3.167   1.098  0.7151 -0.2440  0.1021
15645SOL    HW147791   5.267   3.071   1.096  1.1523 -0.2846 -1.1680
15645SOL    HW247792   5.212   3.198   1.034 -1.3994  0.5499  2.4683
15646SOL     OW47793   4.196   1.836   0.760 -0.0500  0.2704  0.2030
15646SOL    HW147794   4.256   1.811   0.689 -1.9378  0.8772 -1.7047
15646SOL    HW247795   4.175   1.753   0.803  0.3634 -0.2548 -0.5796
15647SOL     OW47796   6.701   0.262   0.498 -0.2077 -0.3031  0.1566
15647SOL    HW147797   6.786   0.244   0.458  0.1090  0.0076  0.6725
15647SOL    HW247798   6.666   0.176   0.520 -0.3576 -0.4695 -0.7251
15648SOL     OW47799   5.126   2.623   6.762 -0.7235 -0.3638 -0.6333
15648SOL    HW147800   5.060   2.654   6.701 -0.3295 -0.5174 -1.1407
15648SOL    HW247801   5.117   2.680   6.838  0.7805  1.8074 -1.9901
15649SOL     OW47802   4.994   3.001   4.027  0.4281 -0.0261  0.0081
15649SOL    HW147803   4.909   3.044   4.031  0.0361 -0.7515 -0.3535
15649SOL    HW247804   5.057   3.073   4.019 -0.3325  0.4554 -2.5097
15650SOL     OW47805   0.578   0.190   5.475 -0.9509  0.3302 -0.0071
15650SOL    HW147806   0.580   0.155   5.385 -0.7762  1.0925 -0.3099
15650SOL    HW247807   0.641   0.136   5.523 -1.0140 -0.0573 -0.3559
15651SOL     OW47808   5.083   4.351   2.023  0.1253 -0.0850  0.0096
15651SOL    HW147809   5.113   4.354   2.114 -1.0827  0.7473  0.4086
15651SOL    HW247810   5.072   4.443   1.999  0.2095 -0.3061 -0.9160
15652SOL     OW47811   4.646   5.955   4.063  1.1563  0.2367  0.1378
15652SOL    HW147812   4.651   6.045   4.095  0.7684  0.7602 -1.1947
15652SOL    HW247813   4.612   5.905   4.137 -0.0257  1.4541  0.4559
15653SOL     OW47814   5.936   2.581   4.861 -0.1773  0.3257 -0.1567
15653SOL    HW147815   5.847   2.611   4.877 -1.5512 -3.3530  0.0246
15653SOL    HW247816   5.964   2.542   4.943  0.9644  0.0415 -0.6577
15654SOL     OW47817   7.643   2.099   5.294 -0.4802 -0.1433  0.0964
15654SOL    HW147818   7.659   2.161   5.222 -2.0490 -1.6056 -1.6410
15654SOL    HW247819   7.552   2.117   5.320 -0.5653 -0.9398  0.3537
15655SOL     OW47820   4.237   6.885   1.737 -0.2570 -0.2399  0.3436
15655SOL    HW147821   4.286   6.849   1.812 -0.8402  0.4138  1.0574
15655SOL    HW247822   4.169   6.821   1.719 -0.8368  0.1331  1.1373
15656SOL     OW47823   1.333   7.918   5.683 -0.8595 -0.2366  0.0800
15656SOL    HW147824   1.368   7.901   5.596  0.4543  0.3685  0.4680
15656SOL    HW247825   1.258   7.975   5.667  0.2762  1.1393 -0.5851
15657SOL     OW47826   0.391   5.320   3.088 -0.2339 -0.1617 -0.5398
15657SOL    HW147827   0.299   5.344   3.080  0.0220  0.9041 -0.4733
15657SOL    HW247828   0.428   5.334   3.001 -0.2170 -0.9882 -0.6723
15658SOL     OW47829   5.646   4.006   0.099  0.0391  0.2953  0.2890
15658SOL    HW147830   5.695   4.072   0.148  0.9597 -0.6892  0.7436
15658SOL    HW247831   5.555   4.021   0.124  0.4252  0.2073  1.8619
15659SOL     OW47832   2.046   6.641   4.290  0.0169 -0.4980  0.1766
15659SOL    HW147833   2.027   6.710   4.354  0.1028  0.2924 -0.6275
15659SOL    HW247834   1.991   6.568   4.317  0.4782 -0.3964  1.4971
15660SOL     OW47835   1.359   2.110   2.008  0.0316 -0.4924 -0.5914
15660SOL    HW147836   1.276   2.132   2.049  0.4470  1.9881 -0.8937
15660SOL    HW247837   1.339   2.035   1.952 -1.5284 -1.1474  0.7417
15661SOL     OW47838   0.230   6.279   4.346 -0.6738  0.0918  0.8155
15661SOL    HW147839   0.237   6.358   4.293  1.6054 -1.0135 -0.6792
15661SOL    HW247840   0.148   6.239   4.318 -0.9681  1.0222  0.3008
15662SOL     OW47841   3.417   6.296   6.277  0.3868  0.3026 -0.3336
15662SOL    HW147842   3.351   6.359   6.248 -0.1762 -0.2781 -0.3312
15662SOL    HW247843   3.487   6.302   6.211  0.4472  1.0922 -0.2017
15663SOL     OW47844   2.284   0.209   4.157 -0.0642 -0.0677 -0.3789
15663SOL    HW147845   2.324   0.162   4.084  1.4791  0.3063  0.1738
15663SOL    HW247846   2.329   0.175   4.235 -0.6500  0.5791  0.2610
15664SOL     OW47847   4.129   4.587   7.542  0.1964 -0.7581  0.3409
15664SOL    HW147848   4.174   4.505   7.564  0.2742 -0.6337  0.6644
15664SOL    HW247849   4.040   4.575   7.574  0.1053 -0.8550  0.0543
15665SOL     OW47850   7.126   5.730   1.850  0.1042  1.0398 -0.2321
15665SOL    HW147851   7.206   5.687   1.821  0.0202  1.3971 -1.0403
15665SOL    HW247852   7.147   5.764   1.937  0.1325 -0.6829  0.4669
15666SOL     OW47853   0.801   6.770   3.054  0.1633  0.4035  0.7007
15666SOL    HW147854   0.881   6.810   3.020  0.3096 -0.5331 -0.0882
15666SOL    HW247855   0.829   6.719   3.129  0.3791 -0.2524  0.1804
15667SOL     OW47856   7.530   3.334   2.866  0.2141 -0.4083 -0.0109
15667SOL    HW147857   7.621   3.363   2.868  0.3118 -0.5016 -1.6592
15667SOL    HW247858   7.519   3.293   2.779 -1.2152 -0.9932  0.4038
15668SOL     OW47859   0.061   1.290   2.507 -0.3861  0.3297  0.1984
15668SOL    HW147860  -0.002   1.361   2.515  0.6706  1.2318  0.8379
15668SOL    HW247861   0.051   1.239   2.588 -0.9996 -0.1501 -0.1684
15669SOL     OW47862   1.430   2.953   0.644  0.1183 -0.1351  0.1582
15669SOL    HW147863   1.381   3.010   0.702 -2.9265 -0.1647 -2.1078
15669SOL    HW247864   1.460   3.010   0.573  1.1311 -0.6101  0.1753
15670SOL     OW47865   6.345   0.587   5.572  0.0813  0.2118  0.0261
15670SOL    HW147866   6.267   0.558   5.525  0.3009 -4.0349  1.7846
15670SOL    HW247867   6.387   0.650   5.513 -3.2868  0.7364 -2.0911
15671SOL     OW47868   0.834   3.350   7.795  0.3157  0.2332  0.3733
15671SOL    HW147869   0.823   3.285   7.727  1.9011  0.4206 -0.1014
15671SOL    HW247870   0.745   3.375   7.820 -0.2972 -0.0029 -1.4616
15672SOL     OW47871   7.977   2.331   4.826  0.4616 -0.3298  0.2353
15672SOL    HW147872   7.968   2.297   4.915  1.5575  0.0133  0.4913
15672SOL    HW247873   7.887   2.339   4.795  0.0319 -0.0373  1.4740
15673SOL     OW47874   3.199   1.224   4.029 -0.3029 -0.0437  0.4932
15673SOL    HW147875   3.154   1.157   4.081  2.1712 -1.1626  1.3558
15673SOL    HW247876   3.285   1.186   4.010 -0.1853  1.3738 -2.3286
15674SOL     OW47877   3.258   3.993   1.611  0.0652 -0.3237  0.8134
15674SOL    HW147878   3.245   3.906   1.572 -0.5574 -0.4077  1.1958
15674SOL    HW247879   3.332   3.981   1.670  0.8809 -0.2465 -0.1618
15675SOL     OW47880   0.210   0.505   3.712 -0.2544  0.3181  0.7501
15675SOL    HW147881   0.130   0.494   3.660  0.9966  0.5826 -1.2910
15675SOL    HW247882   0.219   0.599   3.723  0.9067  0.4248 -0.8984
15676SOL     OW47883   1.944   1.435   1.152 -0.9147  0.0390  0.1285
15676SOL    HW147884   2.038   1.416   1.160 -0.7423  1.0328  0.6156
15676SOL    HW247885   1.901   1.361   1.195 -0.3681 -0.6080 -0.4234
15677SOL     OW47886   0.923   3.570   5.492 -0.0752 -0.0562 -0.4825
15677SOL    HW147887   0.960   3.649   5.533  1.3932 -0.7664 -0.3670
15677SOL    HW247888   0.952   3.574   5.401 -0.7783 -0.0074 -0.7092
15678SOL     OW47889   2.049   7.956   6.093  0.0018 -0.2311  0.0935
15678SOL    HW147890   2.001   7.967   6.175  0.7072 -0.6591  0.5761
15678SOL    HW247891   2.005   8.014   6.031 -1.1654 -0.6494  0.4990
15679SOL     OW47892   5.403   7.765   1.055 -0.0553 -0.3883 -0.4563
15679SOL    HW147893   5.469   7.826   1.089 -1.4969  1.0883 -0.2082
15679SOL    HW247894   5.442   7.731   0.975  0.8207  0.7970 -0.5680
15680SOL     OW47895   7.622   0.341   1.281 -0.3912  0.0140 -0.0944
15680SOL    HW147896   7.632   0.409   1.347 -0.6450 -0.6481  0.6296
15680SOL    HW247897   7.528   0.324   1.278 -0.5464  0.9271 -1.5462
15681SOL     OW47898   2.514   6.206   7.075  0.4293  0.6739 -0.0224
15681SOL    HW147899   2.460   6.178   7.002  0.6469 -0.6116  0.2816
15681SOL    HW247900   2.604   6.194   7.044  0.5266 -0.3598  0.5953
15682SOL     OW47901   7.523   4.862   4.166 -0.2018  0.4662  0.4521
15682SOL    HW147902   7.509   4.796   4.233 -0.9858 -0.6960 -0.7913
15682SOL    HW247903   7.596   4.915   4.198 -0.2936 -0.2986  1.9948
15683SOL     OW47904   4.033   2.274   5.077  0.1396 -0.1864  0.2698
15683SOL    HW147905   4.021   2.258   4.984 -1.4532  0.8377  0.2672
15683SOL    HW247906   4.090   2.203   5.107 -1.5175 -2.1001 -0.9321
15684SOL     OW47907   7.996   4.958   6.424  0.2905 -0.2966 -0.1216
15684SOL    HW147908   8.045   4.997   6.495 -2.7362 -0.5653  2.3364
15684SOL    HW247909   7.976   5.032   6.365  0.8241  0.4177  0.5752
15685SOL     OW47910   6.720   5.805   1.728  0.0032  0.1197 -0.1020
15685SOL    HW147911   6.728   5.901   1.729 -0.6392  0.1728  0.1391
15685SOL    HW247912   6.637   5.789   1.683 -0.0944 -0.3112  0.2317
15686SOL     OW47913   3.911   7.458   4.643  0.5143  1.0765  0.5008
15686SOL    HW147914   3.982   7.475   4.705  2.1803 -0.8197 -0.7946
15686SOL    HW247915   3.920   7.366   4.620 -2.0412  0.9193 -0.1761
15687SOL     OW47916   3.586   1.668   4.144 -0.1789 -0.1433 -0.1148
15687SOL    HW147917   3.495   1.695   4.153  0.4053  2.0394 -0.2397
15687SOL    HW247918   3.609   1.632   4.230 -0.7643  0.5903  0.3545
15688SOL     OW47919   4.594   4.299   7.452 -0.3195  0.8761  0.7055
15688SOL    HW147920   4.668   4.357   7.435  0.0706  0.3542  0.5945
15688SOL    HW247921   4.606   4.271   7.543 -0.4902  0.9445  0.7497
15689SOL     OW47922   5.514   1.017   2.531  0.3476  0.3286 -0.3491
15689SOL    HW147923   5.535   0.936   2.577 -1.2719 -0.4883 -0.9944
15689SOL    HW247924   5.469   1.071   2.596  0.6053  0.3497 -0.1851
15690SOL     OW47925   2.481   4.831   7.914  0.0247 -0.5432 -0.1736
15690SOL    HW147926   2.542   4.859   7.981  2.4928  0.0312 -2.4806
15690SOL    HW247927   2.421   4.772   7.959  2.1432 -0.9798  2.3036
15691SOL     OW47928   5.034   0.482   3.406  0.3251 -0.0446 -0.2486
15691SOL    HW147929   5.096   0.549   3.380  0.3885 -0.5176 -1.3610
15691SOL    HW247930   5.087   0.402   3.415 -0.2291 -0.6707 -2.1367
15692SOL     OW47931   2.627   1.925   7.741  0.2353 -0.3209 -0.1503
15692SOL    HW147932   2.549   1.932   7.685 -1.0494 -0.6690  1.5084
15692SOL    HW247933   2.643   2.015   7.770  1.6839  0.0742 -2.0130
15693SOL     OW47934   5.385   4.604   3.499 -0.7284  0.0695 -0.6480
15693SOL    HW147935   5.377   4.612   3.594  1.2380  0.4105 -0.4522
15693SOL    HW247936   5.298   4.625   3.465 -2.3177 -2.8764  1.1721
15694SOL     OW47937   6.816   5.412   1.156  0.1341  0.2309 -0.5767
15694SOL    HW147938   6.910   5.428   1.166  0.0159  2.7604 -2.3824
15694SOL    HW247939   6.809   5.321   1.128  1.9602 -0.2344  0.3601
15695SOL     OW47940   1.812   7.903   3.592 -0.3343 -0.2391  0.8410
15695SOL    HW147941   1.875   7.868   3.654 -0.3439  0.4560  1.2566
15695SOL    HW247942   1.782   7.827   3.542 -1.2396 -1.0353  2.4969
15696SOL     OW47943   1.761   5.941   2.304 -0.1563  0.0821 -0.4134
15696SOL    HW147944   1.681   5.993   2.313 -0.6508 -0.6076 -0.7445
15696SOL    HW247945   1.764   5.916   2.212  1.2134  1.2945 -0.7392
15697SOL     OW47946   7.526   2.088   7.364 -0.0484 -0.2574  0.2898
15697SOL    HW147947   7.483   2.070   7.281  0.0893 -0.9616  0.3696
15697SOL    HW247948   7.455   2.109   7.424 -0.1555  0.1565  0.0251
15698SOL     OW47949   1.990   1.027   6.855 -0.0557 -0.2439 -0.5069
15698SOL    HW147950   2.080   1.028   6.887 -0.9320 -3.7383  2.8682
15698SOL    HW247951   1.947   1.099   6.902 -0.2422 -2.4293  2.9859
15699SOL     OW47952   2.783   7.934   6.393  0.3486 -0.4499 -0.4574
15699SOL    HW147953   2.856   7.878   6.419 -0.1871  0.3230  3.1605
15699SOL    HW247954   2.704   7.882   6.412 -0.0894  0.4369  0.2540
15700SOL     OW47955   5.794   0.670   1.715  0.7445 -0.2152 -0.7993
15700SOL    HW147956   5.767   0.618   1.791 -0.2437  0.5089 -0.6326
15700SOL    HW247957   5.801   0.606   1.644 -1.1598 -0.5194 -0.7794
15701SOL     OW47958   4.086   5.404   3.125  0.3986 -0.1126 -0.2882
15701SOL    HW147959   4.084   5.484   3.178  0.0316  0.1950 -0.7611
15701SOL    HW247960   4.004   5.360   3.146  0.4420 -0.1965 -0.2932
15702SOL     OW47961   7.832   5.636   0.584 -0.3451  0.2461 -0.1363
15702SOL    HW147962   7.818   5.598   0.498 -1.0603  0.6771 -0.2185
15702SOL    HW247963   7.927   5.645   0.592 -0.2860  0.3375 -0.9351
15703SOL     OW47964   5.847   1.599   2.766 -0.9058 -0.5196  0.4870
15703SOL    HW147965   5.940   1.613   2.780 -0.7871 -1.7812  1.0811
15703SOL    HW247966   5.811   1.687   2.755  0.4720 -0.0595 -0.6304
15704SOL     OW47967   5.795   2.096   3.750  0.4396 -0.1768 -0.0750
15704SOL    HW147968   5.748   2.170   3.713  1.0165  0.1333 -0.1917
15704SOL    HW247969   5.872   2.134   3.791  0.4950 -0.6615  0.2782
15705SOL     OW47970   6.688   3.995   6.295 -0.3064 -0.3971  1.1224
15705SOL    HW147971   6.719   4.084   6.278 -0.8941 -0.5901 -1.4194
15705SOL    HW247972   6.764   3.939   6.278 -0.3874 -0.4813  1.0341
15706SOL     OW47973   5.313   4.569   5.328  1.0640  0.4993  0.1731
15706SOL    HW147974   5.268   4.528   5.402 -1.5257  2.9687  0.1656
15706SOL    HW247975   5.361   4.642   5.366  0.6668  1.0809 -0.4136
15707SOL     OW47976   4.195   0.896   3.281 -0.2676 -0.6134 -0.6976
15707SOL    HW147977   4.210   0.983   3.246 -1.2279 -0.1719 -0.0423
15707SOL    HW247978   4.236   0.897   3.367 -1.9284 -0.1757  0.1031
15708SOL     OW47979   0.445   5.810   7.597  0.1741  0.2380 -0.3059
15708SOL    HW147980   0.358   5.842   7.573 -1.3925 -2.4843  1.3481
15708SOL    HW247981   0.482   5.879   7.652 -0.9265  1.3910 -0.9589
15709SOL     OW47982   1.389   2.850   0.194  0.2733 -0.1667 -0.5020
15709SOL    HW147983   1.459   2.809   0.245 -0.7128  0.2179  1.2625
15709SOL    HW247984   1.309   2.809   0.227 -0.6023  1.9613  0.1711
15710SOL     OW47985   2.912   6.542   1.433  0.3828  0.2979  0.1377
15710SOL    HW147986   2.825   6.561   1.469  0.0895  0.0694 -0.4414
15710SOL    HW247987   2.972   6.596   1.485  0.0989 -0.7804  1.6797
15711SOL     OW47988   7.230   6.417   1.128  0.3875 -0.0811 -0.1873
15711SOL    HW147989   7.267   6.387   1.045  1.5907 -0.4193  0.4436
15711SOL    HW247990   7.306   6.434   1.184 -0.3660 -1.8755  1.5450
15712SOL     OW47991   6.475   7.502   6.032 -0.2790 -0.2447  0.1915
15712SOL    HW147992   6.460   7.424   6.086  1.6084  0.2651  1.5629
15712SOL    HW247993   6.456   7.576   6.089  0.9439  0.3017 -0.0674
15713SOL     OW47994   7.636   0.846   6.586 -0.0414 -0.1088  0.1944
15713SOL    HW147995   7.627   0.935   6.553  0.7639  0.1155  0.5557
15713SOL    HW247996   7.663   0.794   6.510 -1.5118 -0.2560 -0.2511
15714SOL     OW47997   0.681   7.563   0.731 -0.0478  0.6171 -0.1476
15714SOL    HW147998   0.776   7.559   0.736  0.0039 -0.8523 -1.4131
15714SOL    HW247999   0.654   7.611   0.810  1.7125  0.9786  0.2715
15715SOL     OW48000   3.027   6.288   3.056 -0.3850  0.0305  0.0869
15715SOL    HW148001   2.958   6.263   3.118 -1.6351  0.5109 -1.0396
15715SOL    HW248002   3.000   6.374   3.025  0.0828 -0.2862 -1.2624
15716SOL     OW48003   0.957   2.230   5.844  0.0654  0.0684  0.0021
15716SOL    HW148004   1.031   2.290   5.836 -0.7371  1.0441 -0.3947
15716SOL    HW248005   0.930   2.237   5.936 -0.1108  0.4351 -0.0756
15717SOL     OW48006   5.842   4.359   7.832 -0.3678  0.3632 -0.1434
15717SOL    HW148007   5.750   4.342   7.853  0.5191 -1.7572  2.5215
15717SOL    HW248008   5.839   4.432   7.771 -3.8599 -0.2476 -0.9157
15718SOL     OW48009   3.572   1.284   7.187  0.7669 -0.2374 -0.2193
15718SOL    HW148010   3.540   1.339   7.259  0.6556 -1.0580  0.3832
15718SOL    HW248011   3.526   1.201   7.199  0.4607 -0.2568 -1.4854
15719SOL     OW48012   2.240   0.445   3.977 -0.4034  0.3431 -0.0403
15719SOL    HW148013   2.250   0.388   4.053 -1.5775 -0.2557 -0.3020
15719SOL    HW248014   2.299   0.408   3.911 -0.9168 -0.4008 -0.0996
15720SOL     OW48015   0.157   4.123   7.157  0.3419  0.0256 -0.1778
15720SOL    HW148016   0.115   4.143   7.073 -2.2857 -2.5580  0.3778
15720SOL    HW248017   0.230   4.066   7.134 -1.1550 -1.7668 -0.7074
15721SOL     OW48018   5.604   5.304   2.354  0.6919  0.2016  0.0552
15721SOL    HW148019   5.555   5.285   2.274  0.4082  0.3200  0.1948
15721SOL    HW248020   5.695   5.305   2.327  0.5329  1.3643 -0.5056
15722SOL     OW48021   7.854   1.711   6.210  0.0004  0.4066 -0.8252
15722SOL    HW148022   7.944   1.677   6.212  0.1081  0.6968 -0.6590
15722SOL    HW248023   7.858   1.783   6.146  0.2291  1.3648  0.2312
15723SOL     OW48024   1.956   0.192   0.873 -0.0251 -0.3166 -0.4384
15723SOL    HW148025   2.038   0.202   0.826 -1.0166 -0.4103 -2.2629
15723SOL    HW248026   1.948   0.272   0.924  0.3817  0.4695 -1.5684
15724SOL     OW48027   1.496   2.464   3.770  0.2521  0.3096 -0.8045
15724SOL    HW148028   1.443   2.470   3.691  1.7609 -1.3477 -2.0171
15724SOL    HW248029   1.559   2.536   3.762  0.7477 -0.1798 -1.4110
15725SOL     OW48030   5.593   0.266   5.758  0.4995  0.4842 -0.4294
15725SOL    HW148031   5.674   0.267   5.809  0.3028 -1.5866  0.0204
15725SOL    HW248032   5.590   0.178   5.720 -1.8573  0.2609  0.1096
15726SOL     OW48033   5.653   1.193   1.852  0.2018  0.0816 -0.2394
15726SOL    HW148034   5.719   1.262   1.844  0.9721 -0.3824  1.6605
15726SOL    HW248035   5.583   1.220   1.793  1.2263  1.6096 -0.8120
15727SOL     OW48036   0.585   7.484   7.360 -0.3755 -0.5349  0.2053
15727SOL    HW148037   0.600   7.454   7.450  0.6106  0.7842  0.5196
15727SOL    HW248038   0.503   7.534   7.365 -0.4290 -0.6349  0.3248
15728SOL     OW48039   2.845   6.946   5.247  0.2509  0.0126 -0.4508
15728SOL    HW148040   2.934   6.911   5.245  0.1117 -0.3774  0.0450
15728SOL    HW248041   2.809   6.926   5.161  0.4377 -0.3573 -0.4438
15729SOL     OW48042   7.008   7.201   4.820  0.3294 -0.6432  0.0531
15729SOL    HW148043   7.081   7.140   4.807 -0.2901 -1.3300 -0.2685
15729SOL    HW248044   6.938   7.146   4.854 -0.1651 -0.0523 -0.0090
15730SOL     OW48045   0.347   2.547   6.131  0.4066 -0.1915 -0.8111
15730SOL    HW148046   0.294   2.547   6.051 -0.8500 -1.0613 -0.0225
15730SOL    HW248047   0.314   2.473   6.181  1.7567 -0.1770  0.1532
15731SOL     OW48048   0.333   0.378   5.239 -0.1019  0.0614  0.5782
15731SOL    HW148049   0.364   0.355   5.151  0.1085  1.9358  0.1273
15731SOL    HW248050   0.404   0.429   5.277 -0.4712 -0.1649  1.5889
15732SOL     OW48051   5.200   5.838   0.456  0.1507 -0.2633 -0.0377
15732SOL    HW148052   5.141   5.763   0.458  1.8811 -1.6914  0.0954
15732SOL    HW248053   5.173   5.892   0.530 -2.1366  0.1098 -1.0657
15733SOL     OW48054   6.397   1.174   7.141 -0.2240 -0.1274 -0.1655
15733SOL    HW148055   6.396   1.269   7.146  0.8671 -0.0985 -0.4177
15733SOL    HW248056   6.451   1.146   7.215 -0.3350 -0.5490 -0.2394
15734SOL     OW48057   4.981   4.100   1.063 -0.0316 -0.0986  0.0939
15734SOL    HW148058   4.893   4.095   1.100 -0.6941  3.2587 -0.6909
15734SOL    HW248059   5.028   4.158   1.123  0.8656  0.1331 -0.8200
15735SOL     OW48060   4.338   3.715   4.075  0.2187 -1.1640  0.4265
15735SOL    HW148061   4.284   3.671   4.140 -0.9845 -0.7388 -0.2505
15735SOL    HW248062   4.383   3.785   4.123  2.5246 -3.3265  1.6218
15736SOL     OW48063   1.963   6.811   4.502 -0.4234  0.2812 -0.4740
15736SOL    HW148064   2.053   6.838   4.521 -0.6283 -0.6236  2.1506
15736SOL    HW248065   1.932   6.771   4.583 -2.5231 -1.2999 -1.9426
15737SOL     OW48066   2.915   6.144   3.539  0.2694 -0.0607 -0.0540
15737SOL    HW148067   2.923   6.055   3.572 -0.4041 -0.5627 -1.1733
15737SOL    HW248068   2.993   6.157   3.485  0.3640  0.0283  0.1034
15738SOL     OW48069   4.038   5.027   6.086 -0.4299 -0.6392  0.5115
15738SOL    HW148070   4.014   4.936   6.105 -0.9852 -1.0797 -1.9920
15738SOL    HW248071   4.124   5.021   6.045  0.1656  0.1380  1.5967
15739SOL     OW48072   6.174   2.137   0.529  0.1173 -0.2102 -0.3790
15739SOL    HW148073   6.128   2.066   0.485 -0.8522  0.4719 -0.5004
15739SOL    HW248074   6.158   2.214   0.475 -0.6878  0.5426  0.8753
15740SOL     OW48075   0.159   7.972   7.810 -0.2879  0.4880 -0.9023
15740SOL    HW148076   0.088   8.003   7.867 -0.6245 -0.3510 -0.8441
15740SOL    HW248077   0.212   8.050   7.792 -0.5037  0.8713  0.0904
15741SOL     OW48078   4.833   2.416   1.280  0.2817  0.7027 -0.4084
15741SOL    HW148079   4.738   2.423   1.270  0.0788 -0.5250  0.4588
15741SOL    HW248080   4.846   2.334   1.327  1.8709  0.1434 -1.7493
15742SOL     OW48081   2.240   0.956   3.494  0.1314  0.0672  0.0398
15742SOL    HW148082   2.188   0.900   3.436 -1.6668 -0.5830  2.1619
15742SOL    HW248083   2.330   0.944   3.463 -0.6414 -0.7863 -2.1297
15743SOL     OW48084   5.723   5.668   4.466  0.3319  0.0916 -0.4559
15743SOL    HW148085   5.641   5.659   4.416  0.4112  1.0453 -0.7855
15743SOL    HW248086   5.749   5.578   4.485 -1.1473 -0.2274  0.2488
15744SOL     OW48087   4.716   0.785   5.982 -0.2954  0.0899 -0.2014
15744SOL    HW148088   4.768   0.714   6.019 -3.6016 -2.9394 -0.8370
15744SOL    HW248089   4.760   0.805   5.899  2.3907  1.0623  1.3351
15745SOL     OW48090   7.611   2.819   6.978 -0.0828 -0.3563 -0.2955
15745SOL    HW148091   7.687   2.876   6.966  0.4522 -1.4427 -2.6432
15745SOL    HW248092   7.633   2.765   7.055  1.3319 -0.3276 -0.6494
15746SOL     OW48093   4.897   0.773   1.015 -0.3370 -0.4794 -0.3292
15746SOL    HW148094   4.880   0.680   1.003 -0.3630 -0.4964 -0.1679
15746SOL    HW248095   4.986   0.778   1.048 -0.0079 -0.3872 -1.2034
15747SOL     OW48096   0.532   3.527   6.745 -0.4070  0.0942 -0.5043
15747SOL    HW148097   0.500   3.454   6.797 -0.0392 -0.3533 -0.8970
15747SOL    HW248098   0.622   3.542   6.776  0.4484 -1.2919 -2.1294
15748SOL     OW48099   1.207   0.427   7.923 -0.1893  0.6272 -0.3302
15748SOL    HW148100   1.255   0.510   7.920 -0.5613  0.8438 -0.4572
15748SOL    HW248101   1.116   0.452   7.904  0.0358 -0.0778 -2.7158
15749SOL     OW48102   3.841   0.812   1.156  0.1893  0.3206  0.2536
15749SOL    HW148103   3.903   0.832   1.227 -0.3931  0.6603  0.6809
15749SOL    HW248104   3.820   0.897   1.119 -0.4848  0.2753  0.5163
15750SOL     OW48105   1.292   3.375   1.354 -0.1845  0.1447  0.0972
15750SOL    HW148106   1.339   3.443   1.305  1.3722 -0.2767  0.9602
15750SOL    HW248107   1.283   3.411   1.442  1.3619 -1.0397  0.7840
15751SOL     OW48108   3.419   6.940   1.156 -0.6218 -0.0064  0.2634
15751SOL    HW148109   3.455   7.025   1.181  0.8647 -0.2486 -0.8912
15751SOL    HW248110   3.469   6.877   1.207 -0.8522 -0.2461  0.1907
15752SOL     OW48111   7.469   7.378   7.949  0.1318 -0.3830 -0.2967
15752SOL    HW148112   7.463   7.412   8.039  1.1512 -1.0807  0.0432
15752SOL    HW248113   7.463   7.283   7.958 -0.8323 -0.4093 -1.0785
15753SOL     OW48114   6.903   3.858   1.769  0.3579 -0.2062 -0.2238
15753SOL    HW148115   6.875   3.948   1.785  1.8780  0.0810  1.1337
15753SOL    HW248116   6.939   3.859   1.681 -0.0347  0.4171 -0.3838
15754SOL     OW48117   0.891   3.771   2.201 -0.0477 -0.2478 -0.2014
15754SOL    HW148118   0.885   3.834   2.273 -0.9893 -1.0620  0.4460
15754SOL    HW248119   0.825   3.705   2.221 -0.2525 -0.5481 -1.7677
15755SOL     OW48120   4.577   1.288   3.183  0.5696 -0.0594  0.1648
15755SOL    HW148121   4.669   1.313   3.183 -0.0245  2.3793  0.2577
15755SOL    HW248122   4.551   1.288   3.091  0.2560  1.0996  0.2324
15756SOL     OW48123   2.142   7.192   1.934 -0.1703  0.5900 -0.9023
15756SOL    HW148124   2.118   7.113   1.885 -0.8622  1.7420 -2.4745
15756SOL    HW248125   2.141   7.262   1.869 -1.5549  2.2677  0.8319
15757SOL     OW48126   1.972   3.045   6.506 -0.4012  0.0522 -0.5695
15757SOL    HW148127   2.053   2.997   6.484  0.1393  0.2946  0.8133
15757SOL    HW248128   1.999   3.136   6.511 -0.8070  0.1589 -0.3055
15758SOL     OW48129   3.392   7.714   5.871 -0.2433 -0.2774 -0.2147
15758SOL    HW148130   3.390   7.621   5.849 -0.1225 -0.8377  1.8999
15758SOL    HW248131   3.454   7.752   5.809  0.2697 -1.7539 -0.6503
15759SOL     OW48132   6.341   4.995   7.767 -0.3995  0.3339  0.3649
15759SOL    HW148133   6.317   4.903   7.775  1.1083 -0.1006  0.3392
15759SOL    HW248134   6.266   5.043   7.801 -1.5709 -0.8598 -0.4330
15760SOL     OW48135   6.332   1.089   4.604 -0.2409  0.4224  0.6758
15760SOL    HW148136   6.272   1.015   4.616 -0.5612  0.8443  1.8466
15760SOL    HW248137   6.291   1.160   4.652 -0.2517  1.5684 -0.9443
15761SOL     OW48138   6.338   0.226   2.850  0.3533 -0.3152 -0.1624
15761SOL    HW148139   6.330   0.132   2.837  2.0099 -0.6398  0.9973
15761SOL    HW248140   6.432   0.242   2.858  0.0280  1.2144  1.1897
15762SOL     OW48141   6.944   2.714   6.582  0.1319  0.3592  0.5329
15762SOL    HW148142   6.981   2.654   6.646 -1.8008  0.0880  1.4878
15762SOL    HW248143   6.902   2.782   6.634 -0.3910  0.8293 -0.4665
15763SOL     OW48144   1.371   5.501   5.328  0.1234  0.8446 -0.3340
15763SOL    HW148145   1.464   5.524   5.322 -0.0475  1.7313  0.2466
15763SOL    HW248146   1.340   5.503   5.237  0.7274  0.2681 -0.5592
15764SOL     OW48147   0.281   4.610   4.834  0.1176  0.1900 -0.1531
15764SOL    HW148148   0.251   4.700   4.825  2.1180  0.9344  0.0994
15764SOL    HW248149   0.206   4.557   4.809 -0.6122  1.9351 -1.8914
15765SOL     OW48150   1.967   1.784   1.092 -0.0530  0.1196  0.1167
15765SOL    HW148151   1.969   1.853   1.025  0.3816  1.3374  1.3293
15765SOL    HW248152   2.003   1.707   1.049  1.4541  1.2220 -0.6923
15766SOL     OW48153   2.568   4.834   7.648 -0.2284  0.3485  0.7137
15766SOL    HW148154   2.649   4.884   7.639 -0.0335 -0.0593  0.1972
15766SOL    HW248155   2.564   4.812   7.741  0.8707 -0.6519  0.5474
15767SOL     OW48156   6.741   7.784   4.948  0.1419  1.0846  0.5026
15767SOL    HW148157   6.834   7.779   4.971 -0.0959  0.5882  1.3863
15767SOL    HW248158   6.695   7.758   5.027 -0.7254 -0.3546 -0.4265
15768SOL     OW48159   6.148   7.478   7.120  0.3921  0.0194  0.6851
15768SOL    HW148160   6.231   7.480   7.167  0.6210  0.4690  0.2651
15768SOL    HW248161   6.160   7.538   7.047  0.1634 -0.9342 -0.1629
15769SOL     OW48162   2.864   2.535   0.243 -0.4612 -0.1564 -0.1112
15769SOL    HW148163   2.854   2.618   0.291  0.7205 -0.9105  1.5299
15769SOL    HW248164   2.775   2.512   0.216 -0.6199  2.6618 -2.4683
15770SOL     OW48165   0.239   3.598   2.842  0.0450  0.0485  0.0205
15770SOL    HW148166   0.214   3.544   2.918 -0.4451  0.1989 -0.0276
15770SOL    HW248167   0.165   3.657   2.830  0.6896  0.9221  0.2393
15771SOL     OW48168   3.165   1.099   1.712  0.1649 -0.5160 -0.0524
15771SOL    HW148169   3.140   1.160   1.642 -1.0095 -1.6803 -0.7107
15771SOL    HW248170   3.261   1.098   1.710  0.1862  0.7056 -0.5436
15772SOL     OW48171   0.244   5.318   4.084 -0.4512  0.0335 -0.2155
15772SOL    HW148172   0.249   5.224   4.064  0.0173 -0.0303  0.1960
15772SOL    HW248173   0.214   5.358   4.003 -0.5136 -0.4577 -0.4372
15773SOL     OW48174   5.269   5.227   4.020  0.1817 -0.2852  0.1618
15773SOL    HW148175   5.289   5.170   3.946 -0.6028 -0.5621  0.1535
15773SOL    HW248176   5.259   5.314   3.981  2.0036 -0.0042  0.2582
15774SOL     OW48177   2.793   3.840   1.544  0.4801  0.5640  0.4230
15774SOL    HW148178   2.788   3.924   1.499 -0.3977  0.0956 -0.3959
15774SOL    HW248179   2.707   3.828   1.584  0.7593  0.2783  0.9480
15775SOL     OW48180   6.678   5.962   2.440  0.1042  0.1308 -0.2112
15775SOL    HW148181   6.636   5.988   2.358 -0.5388 -2.1954 -0.6840
15775SOL    HW248182   6.606   5.936   2.497  0.5744  1.3613  0.9834
15776SOL     OW48183   7.048   6.727   0.454  0.4264  0.0776 -0.8590
15776SOL    HW148184   6.982   6.739   0.385 -0.7244 -2.1108 -0.2425
15776SOL    HW248185   7.049   6.632   0.470 -1.2362  0.5562  3.8200
15777SOL     OW48186   3.066   1.800   4.291  0.8073 -0.1238  0.8561
15777SOL    HW148187   3.155   1.767   4.287  0.9917  0.4054  0.5618
15777SOL    HW248188   3.013   1.724   4.317  0.8742 -1.2889 -2.0475
15778SOL     OW48189   0.209   7.902   3.869  0.2581 -0.2213 -0.4543
15778SOL    HW148190   0.144   7.889   3.938  0.8267  3.0760  0.8974
15778SOL    HW248191   0.178   7.981   3.823  2.0758  0.0484 -1.2863
15779SOL     OW48192   7.227   2.475   4.937 -0.1821  0.0150 -0.2866
15779SOL    HW148193   7.272   2.543   4.887  2.2782 -0.4826  1.0468
15779SOL    HW248194   7.298   2.430   4.983 -1.9978 -1.7300  0.9407
15780SOL     OW48195   0.105   2.582   6.594  0.5059 -0.3410 -0.2462
15780SOL    HW148196   0.125   2.632   6.516 -1.7127  0.1318 -0.5886
15780SOL    HW248197   0.164   2.616   6.661  2.9792 -1.2880 -1.8317
15781SOL     OW48198   5.081   4.781   1.539 -0.1928 -0.3251 -0.1005
15781SOL    HW148199   5.098   4.863   1.493 -1.7228 -0.4034 -0.8330
15781SOL    HW248200   5.016   4.803   1.605  0.5120 -0.6499  0.7284
15782SOL     OW48201   4.780   7.193   6.960 -0.3118 -0.0127  0.2008
15782SOL    HW148202   4.754   7.283   6.939  1.7802  1.6222  3.6802
15782SOL    HW248203   4.700   7.152   6.991 -0.9159  1.3854  0.6022
15783SOL     OW48204   3.156   0.078   4.920  0.2234  0.3063  0.1615
15783SOL    HW148205   3.239   0.049   4.958 -0.2906 -0.8777  0.4320
15783SOL    HW248206   3.107   0.115   4.994  0.8834  1.9431 -0.1862
15784SOL     OW48207   5.943   2.868   6.543  0.4111 -0.6215  0.0067
15784SOL    HW148208   5.944   2.911   6.458 -2.4173  0.3059  0.3413
15784SOL    HW248209   5.912   2.935   6.604  0.5816 -1.7903  1.4439
15785SOL     OW48210   5.870   4.884   4.267  0.1682 -0.3729 -0.8899
15785SOL    HW148211   5.864   4.950   4.337 -0.5744 -1.1601 -0.1955
15785SOL    HW248212   5.781   4.873   4.236 -0.3766 -3.4247  1.2930
15786SOL     OW48213   6.974   4.703   2.636 -0.2937  0.1616 -0.1227
15786SOL    HW148214   6.934   4.621   2.608 -0.0469  0.1344 -0.3998
15786SOL    HW248215   6.997   4.748   2.555  0.2532  0.1682  0.0311
15787SOL     OW48216   2.922   2.067   4.187  0.2365  0.3530  0.5567
15787SOL    HW148217   2.996   2.128   4.181  1.0677 -0.6755  0.0030
15787SOL    HW248218   2.963   1.982   4.203 -0.8294 -0.2352  0.2126
15788SOL     OW48219   5.295   4.955   6.803  0.1678 -0.0285  0.0295
15788SOL    HW148220   5.271   5.047   6.793 -3.3110 -0.9660 -1.5488
15788SOL    HW248221   5.336   4.932   6.719 -0.8235 -0.3902 -0.3630
15789SOL     OW48222   0.813   6.721   6.778 -0.1911 -0.5085 -0.1125
15789SOL    HW148223   0.872   6.671   6.833 -0.8673 -1.5307 -0.2930
15789SOL    HW248224   0.726   6.705   6.814 -0.3471  1.4574  0.5229
15790SOL     OW48225   2.733   7.877   0.098  0.3697  0.5410 -0.0950
15790SOL    HW148226   2.782   7.873   0.181  0.4498  0.9174 -0.1249
15790SOL    HW248227   2.641   7.876   0.125  0.3960  0.7536  0.0044
15791SOL     OW48228   6.273   5.053   2.066  0.5853 -0.5806 -0.2885
15791SOL    HW148229   6.303   4.988   2.003 -0.9084 -0.0391 -1.6392
15791SOL    HW248230   6.352   5.081   2.112  1.4110 -2.5061 -0.4691
15792SOL     OW48231   6.729   5.499   0.223 -0.2496 -0.0711  0.4504
15792SOL    HW148232   6.813   5.541   0.203  1.2706 -3.6259 -1.4779
15792SOL    HW248233   6.741   5.463   0.311 -0.0380  0.0188  0.4610
15793SOL     OW48234   0.958   1.347   6.993 -0.5717 -0.3729  0.0193
15793SOL    HW148235   1.034   1.404   7.008 -0.8518 -0.3979  1.6936
15793SOL    HW248236   0.886   1.408   6.977 -0.8337 -0.2124  1.6301
15794SOL     OW48237   0.793   3.191   7.233  0.7066 -0.2671 -0.3486
15794SOL    HW148238   0.753   3.109   7.259 -0.0285 -0.4136 -1.8417
15794SOL    HW248239   0.724   3.256   7.244  1.3383  0.2255  1.0065
15795SOL     OW48240   1.913   0.938   7.119  0.3352 -0.2039 -0.1382
15795SOL    HW148241   1.873   1.013   7.075  0.0900 -1.1250 -1.5465
15795SOL    HW248242   1.957   0.975   7.195 -1.6003  1.0970  0.4116
15796SOL     OW48243   7.235   1.346   3.698  0.1546  0.0493 -0.2951
15796SOL    HW148244   7.186   1.299   3.630  2.2313 -0.3978 -1.5594
15796SOL    HW248245   7.295   1.281   3.734  0.0648  0.6598  1.0116
15797SOL     OW48246   1.948   5.357   3.129  0.0949  0.0390 -0.2887
15797SOL    HW148247   1.900   5.346   3.046 -0.9137 -0.3218  0.3236
15797SOL    HW248248   1.974   5.449   3.129  0.7706 -0.1248 -1.3423
15798SOL     OW48249   4.556   0.519   2.300  0.4837  0.3842 -0.4818
15798SOL    HW148250   4.536   0.448   2.361 -1.6984  1.7806  0.5651
15798SOL    HW248251   4.651   0.532   2.308  1.1481 -2.9798 -1.4843
15799SOL     OW48252   6.737   7.938   1.960  0.3501  0.1638 -0.0672
15799SOL    HW148253   6.733   7.845   1.937  1.2375  0.2600 -0.6870
15799SOL    HW248254   6.674   7.949   2.031  1.2667 -1.2322  1.0275
15800SOL     OW48255   4.202   3.647   1.556 -0.1834  0.2024 -0.1952
15800SOL    HW148256   4.231   3.575   1.612  0.2333  0.3410 -0.2255
15800SOL    HW248257   4.164   3.604   1.480  1.7758 -0.0200 -1.1029
15801SOL     OW48258   5.525   4.891   2.967  0.4027  0.2960  0.1278
15801SOL    HW148259   5.520   4.810   3.019  0.1519  0.4442  0.3376
15801SOL    HW248260   5.469   4.875   2.891 -0.7661  0.7616  0.8493
15802SOL     OW48261   1.028   2.925   2.086  0.0506  0.3022  0.5427
15802SOL    HW148262   1.026   2.988   2.015 -1.0396 -1.0687 -0.7114
15802SOL    HW248263   1.029   2.978   2.166 -1.5576  1.9084 -0.4394
15803SOL     OW48264   4.569   1.325   0.784 -0.3095  0.1169  0.0118
15803SOL    HW148265   4.625   1.312   0.707  1.1996  0.9747  0.9168
15803SOL    HW248266   4.495   1.376   0.752 -0.1753 -0.3324 -1.0539
15804SOL     OW48267   2.201   0.302   4.829  0.3880  0.5071 -0.2556
15804SOL    HW148268   2.255   0.254   4.766  2.7474  2.4480  0.1494
15804SOL    HW248269   2.189   0.388   4.789 -1.3111  0.5804  0.3111
15805SOL     OW48270   2.577   7.734   1.073 -0.5338  0.1167 -0.4517
15805SOL    HW148271   2.514   7.804   1.057  0.3074  0.5890 -1.8261
15805SOL    HW248272   2.538   7.657   1.031  0.0593  0.5489 -1.8335
15806SOL     OW48273   1.835   1.371   0.183  0.4899  0.5599 -0.1079
15806SOL    HW148274   1.751   1.386   0.226  0.9916  1.3792  0.6535
15806SOL    HW248275   1.871   1.294   0.227  0.6417  0.9146  0.4140
15807SOL     OW48276   3.808   7.392   6.730 -0.2893  0.0416 -0.6818
15807SOL    HW148277   3.877   7.339   6.771 -1.9696 -3.2119 -1.6426
15807SOL    HW248278   3.784   7.456   6.797  0.8886 -1.3871  1.2435
15808SOL     OW48279   4.840   6.474   0.626 -0.1062  0.8311 -0.2400
15808SOL    HW148280   4.935   6.485   0.619 -0.0277 -0.3599 -1.3370
15808SOL    HW248281   4.812   6.546   0.683  1.6709  0.1341  1.6452
15809SOL     OW48282   5.315   0.481   6.461 -0.4042 -0.2865 -0.0519
15809SOL    HW148283   5.291   0.532   6.539 -1.2912 -1.9373  0.7943
15809SOL    HW248284   5.401   0.514   6.437 -0.6130  1.0675  0.9109
15810SOL     OW48285   1.703   0.201   1.362 -0.0853  0.0370  0.3272
15810SOL    HW148286   1.634   0.244   1.411  0.4764  2.3645 -0.7741
15810SOL    HW248287   1.784   0.222   1.409  0.0663 -1.1979  0.6517
15811SOL     OW48288   3.988   1.157   1.819 -0.3026 -0.0635  0.1794
15811SOL    HW148289   4.044   1.102   1.764 -0.6682  0.1430 -0.4219
15811SOL    HW248290   4.014   1.138   1.908 -0.9189 -1.7878  0.0333
15812SOL     OW48291   5.483   5.079   0.114 -0.9040 -0.3163  0.3893
15812SOL    HW148292   5.577   5.096   0.111 -0.5597 -1.8737  1.3961
15812SOL    HW248293   5.460   5.055   0.025  0.3088 -2.9472  0.7073
15813SOL     OW48294   3.755   3.315   1.160 -0.0548 -0.6929  0.1256
15813SOL    HW148295   3.721   3.393   1.117 -0.0590 -0.6946  0.1256
15813SOL    HW248296   3.842   3.302   1.122  0.5415  0.1374  1.1333
15814SOL     OW48297   3.175   2.780   6.115 -0.2233  0.3317  0.6063
15814SOL    HW148298   3.208   2.869   6.104 -0.5150  0.2477 -1.2075
15814SOL    HW248299   3.251   2.724   6.102 -0.3265  0.2606  0.3181
15815SOL     OW48300   5.502   5.273   5.358  0.6018  0.0584 -0.1946
15815SOL    HW148301   5.427   5.245   5.306  1.1559  0.9927 -1.5606
15815SOL    HW248302   5.564   5.201   5.353  1.1370  0.6086 -1.8570
15816SOL     OW48303   6.516   7.194   4.240  0.0522  0.8542  0.5733
15816SOL    HW148304   6.431   7.154   4.259  0.7974 -0.4280  1.4164
15816SOL    HW248305   6.506   7.232   4.153 -0.1689 -2.9943 -1.3089
15817SOL     OW48306   4.358   3.770   4.905 -0.2364 -0.1061  0.0541
15817SOL    HW148307   4.431   3.799   4.960 -0.6032  0.8965  0.0289
15817SOL    HW248308   4.389   3.688   4.865  0.0494 -0.8350  1.6927
15818SOL     OW48309   1.249   3.103   0.798  0.2234  0.1779  0.1536
15818SOL    HW148310   1.204   3.186   0.806  0.0110  0.3171 -1.9129
15818SOL    HW248311   1.179   3.037   0.796  0.3823 -0.0715  1.6072
15819SOL     OW48312   4.672   6.649   2.603  0.2363 -0.3347 -0.0308
15819SOL    HW148313   4.724   6.623   2.527 -0.9704  0.1578 -1.0523
15819SOL    HW248314   4.687   6.743   2.612 -0.5274 -0.1669 -0.3998
15820SOL     OW48315   1.865   6.110   1.939  0.1128  0.0623 -0.1287
15820SOL    HW148316   1.803   6.182   1.947 -0.5751 -0.2097 -2.2812
15820SOL    HW248317   1.873   6.095   1.844  1.2817 -1.7899  0.1975
15821SOL     OW48318   3.298   4.296   0.109 -0.2731  0.3482 -0.0062
15821SOL    HW148319   3.208   4.310   0.078 -0.8481  0.4229  1.6139
15821SOL    HW248320   3.353   4.335   0.041 -1.4829  0.8184 -0.7462
15822SOL     OW48321   6.284   5.706   1.770  0.0144 -0.0063 -0.2391
15822SOL    HW148322   6.291   5.612   1.754  0.0047  0.2381 -1.8821
15822SOL    HW248323   6.191   5.722   1.783  0.0421 -0.2452  0.2748
15823SOL     OW48324   2.646   5.010   6.253 -0.1497 -0.4330 -0.0652
15823SOL    HW148325   2.662   5.002   6.347  0.2388  0.7913 -0.0121
15823SOL    HW248326   2.586   4.938   6.233 -1.3244  0.0930  1.3783
15824SOL     OW48327   3.988   4.211   4.693 -0.2271  0.2664  0.4743
15824SOL    HW148328   4.016   4.180   4.779  0.0094  0.1254  0.3449
15824SOL    HW248329   3.899   4.176   4.684 -0.4838  0.7808  0.9146
15825SOL     OW48330   1.009   1.169   6.443 -0.1263  0.5021  0.1752
15825SOL    HW148331   1.010   1.093   6.386  2.0241 -0.4663  1.3706
15825SOL    HW248332   0.934   1.221   6.414 -0.6234 -1.2094 -1.7814
15826SOL     OW48333   1.682   3.718   1.115  0.0297 -0.0577  0.2064
15826SOL    HW148334   1.741   3.757   1.051  1.6757 -0.2698  1.5067
15826SOL    HW248335   1.610   3.781   1.124  0.1385  0.3097 -1.2667
15827SOL     OW48336   1.705   3.108   4.040 -0.4124 -0.2548 -0.4677
15827SOL    HW148337   1.733   3.189   4.082  0.5620 -1.6733  1.8711
15827SOL    HW248338   1.760   3.101   3.962 -0.5750  1.3450 -0.7427
15828SOL     OW48339   4.836   7.333   2.435 -0.6193  0.1036  0.3404
15828SOL    HW148340   4.775   7.406   2.445 -0.7451  0.3702 -1.8886
15828SOL    HW248341   4.805   7.268   2.498 -2.6119  0.6316 -0.0057
15829SOL     OW48342   5.960   0.368   4.140  0.5369 -0.2393 -0.2150
15829SOL    HW148343   5.976   0.281   4.106 -0.6012 -0.3657 -0.4658
15829SOL    HW248344   6.047   0.401   4.164  0.7748 -2.4065  2.3007
15830SOL     OW48345   2.673   6.640   7.256  0.8794  0.1887 -0.1024
15830SOL    HW148346   2.749   6.582   7.254  1.0328  0.1281  2.8857
15830SOL    HW248347   2.606   6.589   7.303 -0.0123  1.3269 -0.0965
15831SOL     OW48348   7.800   3.937   3.969  0.5898  0.6596  0.2382
15831SOL    HW148349   7.800   3.942   4.065 -0.0764 -1.8747  0.4593
15831SOL    HW248350   7.721   3.888   3.948  1.3148  0.1734 -1.5277
15832SOL     OW48351   4.192   2.714   5.303  0.6881  0.0950 -0.3672
15832SOL    HW148352   4.226   2.628   5.277 -0.5477 -0.0718 -1.5528
15832SOL    HW248353   4.216   2.772   5.230  0.8599  0.5950  0.0781
15833SOL     OW48354   1.625   4.073   0.878 -0.3231  0.6985 -0.1035
15833SOL    HW148355   1.589   3.996   0.834  1.1589  0.0623 -0.2522
15833SOL    HW248356   1.579   4.147   0.838 -0.2716  0.0226 -1.4873
15834SOL     OW48357   5.270   1.699   3.963 -0.2574  0.0210  0.2923
15834SOL    HW148358   5.287   1.612   3.928 -0.8667 -0.0938  0.2683
15834SOL    HW248359   5.351   1.723   4.008 -0.0928 -0.5644  0.3174
15835SOL     OW48360   1.082   6.784   7.101 -0.0779 -0.0596  0.3336
15835SOL    HW148361   1.061   6.728   7.026  1.0373 -0.0715  0.0126
15835SOL    HW248362   1.113   6.865   7.062 -1.7619  0.8444  0.7964
15836SOL     OW48363   3.939   2.934   7.185 -0.3049 -0.4885 -0.2382
15836SOL    HW148364   3.871   2.875   7.217 -2.2041  0.2955 -2.5141
15836SOL    HW248365   3.926   3.015   7.234  0.0910 -0.8590  0.4909
15837SOL     OW48366   7.596   4.690   3.948  0.5596  0.0901 -0.3581
15837SOL    HW148367   7.559   4.743   4.018 -0.1755 -0.5550 -0.2357
15837SOL    HW248368   7.528   4.624   3.930  0.1977  0.9564 -2.4764
15838SOL     OW48369   4.199   5.323   2.140  0.3598 -0.0085  0.6437
15838SOL    HW148370   4.233   5.381   2.209 -0.8227  0.4448  0.8712
15838SOL    HW248371   4.277   5.292   2.094  1.1272  0.2845  1.7061
15839SOL     OW48372   0.220   4.801   7.647 -0.2179 -0.2819  0.1184
15839SOL    HW148373   0.194   4.856   7.721  2.5899 -0.2269  1.1697
15839SOL    HW248374   0.187   4.714   7.668  0.3482 -0.2189  1.3753
15840SOL     OW48375   4.933   5.126   3.471  0.3130  0.2274 -0.4189
15840SOL    HW148376   5.014   5.080   3.451  1.4236  1.7583  0.3627
15840SOL    HW248377   4.915   5.107   3.563  0.6811  1.1548 -0.1410
15841SOL     OW48378   0.111   1.258   6.675  0.0119  0.1664 -0.3426
15841SOL    HW148379   0.077   1.337   6.717 -2.7728 -0.1237 -1.8285
15841SOL    HW248380   0.156   1.290   6.597  0.9528  0.3988  0.2835
15842SOL     OW48381   1.924   5.632   7.329 -0.3029  0.1120  0.2017
15842SOL    HW148382   1.973   5.689   7.388 -0.3220 -0.4011  0.7140
15842SOL    HW248383   1.950   5.544   7.354 -0.4285 -0.1148 -0.4584
15843SOL     OW48384   2.747   4.278   4.233  0.2482 -0.4822  0.8451
15843SOL    HW148385   2.820   4.261   4.293  1.2532  0.6930  0.0119
15843SOL    HW248386   2.752   4.207   4.169  0.7238 -0.3621  0.7424
15844SOL     OW48387   3.244   2.131   3.184 -0.3771 -0.1879  0.5055
15844SOL    HW148388   3.246   2.120   3.279 -0.0811  0.4912  0.5836
15844SOL    HW248389   3.223   2.223   3.171  0.8933  0.0452 -0.0654
15845SOL     OW48390   3.003   1.336   7.045  0.1718  0.0094 -0.9048
15845SOL    HW148391   2.951   1.401   7.093  0.7200 -0.0586 -0.2028
15845SOL    HW248392   3.016   1.266   7.108  0.4829 -0.3083 -1.3235
15846SOL     OW48393   5.299   1.200   7.214 -0.3065  0.0392 -0.4235
15846SOL    HW148394   5.243   1.195   7.137 -1.7782  0.1298  0.5794
15846SOL    HW248395   5.338   1.287   7.210 -2.2739  1.0138  0.1282
15847SOL     OW48396   0.551   4.603   1.082  0.8022 -0.2587  0.2361
15847SOL    HW148397   0.503   4.646   1.012  2.5598 -1.3582 -1.7479
15847SOL    HW248398   0.523   4.511   1.079  0.6404 -0.2597  1.2266
15848SOL     OW48399   4.284   1.022   4.349  0.3219 -0.3368  0.9201
15848SOL    HW148400   4.250   0.933   4.365  0.1327 -0.8669 -1.9386
15848SOL    HW248401   4.285   1.030   4.254 -1.6796  3.5116  1.0294
15849SOL     OW48402   7.199   1.338   6.144 -0.3397  0.1918  0.8402
15849SOL    HW148403   7.179   1.251   6.108 -0.2308 -0.8291  3.1051
15849SOL    HW248404   7.114   1.370   6.176 -0.6482  1.5691 -1.1282
15850SOL     OW48405   3.132   4.615   1.267  0.1838  0.3140  0.0224
15850SOL    HW148406   3.173   4.559   1.334 -1.8274 -1.8157 -0.4015
15850SOL    HW248407   3.172   4.588   1.185  0.0141  0.3154 -0.0608
15851SOL     OW48408   6.932   0.463   7.057  0.5901  0.1793  0.4979
15851SOL    HW148409   6.878   0.384   7.064  0.2102  0.4478  0.6473
15851SOL    HW248410   6.977   0.454   6.973 -0.4028  0.3896 -0.0705
15852SOL     OW48411   0.276   2.748   7.775 -0.4104  0.5107 -0.0175
15852SOL    HW148412   0.290   2.834   7.736  1.1246  1.2290  1.9596
15852SOL    HW248413   0.188   2.723   7.748 -0.8703  2.6631 -0.6590
15853SOL     OW48414   4.023   6.850   2.493 -0.1076 -0.4902 -0.2703
15853SOL    HW148415   4.057   6.916   2.433 -0.5621  1.1912  1.2235
15853SOL    HW248416   3.944   6.818   2.450 -1.0092  1.4319 -0.1740
15854SOL     OW48417   0.943   0.966   4.424 -0.7551  0.5303  0.0367
15854SOL    HW148418   0.858   0.925   4.412 -0.7261  0.3741  0.3395
15854SOL    HW248419   0.976   0.980   4.336 -1.4937  1.4442 -0.1075
15855SOL     OW48420   4.409   3.534   3.879 -0.5307 -0.0002  0.0089
15855SOL    HW148421   4.386   3.589   3.953  0.2213 -1.6088  1.5101
15855SOL    HW248422   4.331   3.533   3.824 -1.6350  0.0557  1.5288
15856SOL     OW48423   4.840   1.256   0.354  0.8703  0.0049 -0.5524
15856SOL    HW148424   4.903   1.291   0.291  1.1853 -1.3076 -1.0030
15856SOL    HW248425   4.823   1.167   0.324 -0.0515 -0.1773  0.4332
15857SOL     OW48426   4.773   1.672   4.898 -0.1193  0.4098 -0.2682
15857SOL    HW148427   4.764   1.652   4.991 -1.1677 -1.3465 -0.6908
15857SOL    HW248428   4.775   1.586   4.855  0.0960  1.1785 -1.8876
15858SOL     OW48429   5.251   1.789   4.373  0.1448 -0.1633  0.1948
15858SOL    HW148430   5.157   1.771   4.374  0.1305 -0.1033 -0.1481
15858SOL    HW248431   5.292   1.704   4.391  0.0895 -0.6524 -1.8103
15859SOL     OW48432   4.982   2.003   0.707  0.0016  0.4357 -0.3814
15859SOL    HW148433   4.907   1.957   0.745 -0.0535 -2.4295 -3.4763
15859SOL    HW248434   5.055   1.982   0.765 -0.5519 -1.6151 -0.3452
15860SOL     OW48435   5.679   7.641   4.989 -1.0614  0.3967  0.0164
15860SOL    HW148436   5.658   7.571   5.051 -1.2665 -0.8981 -1.4677
15860SOL    HW248437   5.719   7.597   4.914  1.0144  2.1274 -0.0103
15861SOL     OW48438   0.749   3.118   4.045  0.1324 -0.1837 -0.0933
15861SOL    HW148439   0.695   3.090   3.971 -0.0398  1.6790 -0.7384
15861SOL    HW248440   0.723   3.209   4.060  1.1545 -0.0980  1.3774
15862SOL     OW48441   3.385   7.713   4.851  0.0844 -0.4112  0.2311
15862SOL    HW148442   3.366   7.625   4.818  0.3807 -0.0524 -0.9183
15862SOL    HW248443   3.417   7.761   4.775  1.0439  0.3669  1.0993
15863SOL     OW48444   5.699   0.512   1.903 -0.0885 -0.2809 -0.2963
15863SOL    HW148445   5.653   0.430   1.919 -3.0444  1.1288 -0.8630
15863SOL    HW248446   5.787   0.498   1.940 -0.5519 -3.5351 -0.1403
15864SOL     OW48447   6.995   6.832   6.080  0.0379  0.8101 -0.0546
15864SOL    HW148448   7.030   6.822   5.991  2.2660 -0.7175  0.9090
15864SOL    HW248449   6.980   6.743   6.110 -0.9737  1.3165  1.0341
15865SOL     OW48450   1.283   0.201   5.875 -0.1902 -0.2163 -0.3030
15865SOL    HW148451   1.259   0.284   5.918 -1.5385  0.2488 -1.8184
15865SOL    HW248452   1.282   0.136   5.945  1.5615  1.1263  1.0506
15866SOL     OW48453   7.555   7.975   6.641  0.2544  0.0324 -0.5898
15866SOL    HW148454   7.649   7.980   6.659  0.4357 -0.6495 -1.3166
15866SOL    HW248455   7.532   7.884   6.660  0.0188 -0.1432 -1.6956
15867SOL     OW48456   0.911   3.219   6.115 -0.3430 -0.2044 -0.6012
15867SOL    HW148457   0.838   3.219   6.177 -0.3486  1.5107 -0.5584
15867SOL    HW248458   0.872   3.189   6.033 -0.3190 -2.5723  0.1801
15868SOL     OW48459   2.009   7.751   7.919 -0.0716 -0.1509 -0.0906
15868SOL    HW148460   1.971   7.664   7.909  0.4807 -0.4964  0.7248
15868SOL    HW248461   2.098   7.743   7.884  0.5775 -0.3883  1.5244
15869SOL     OW48462   1.781   2.844   6.733 -0.2316 -0.3470  0.2970
15869SOL    HW148463   1.761   2.935   6.753 -3.2109 -0.8927  0.2164
15869SOL    HW248464   1.762   2.796   6.814  3.6824 -0.7686  1.1897
15870SOL     OW48465   3.225   4.687   5.959  0.2753  0.8493  0.0713
15870SOL    HW148466   3.279   4.612   5.986  0.7398  0.9598 -0.5399
15870SOL    HW248467   3.228   4.746   6.035  2.0761  1.4349 -0.3968
15871SOL     OW48468   7.262   0.695   1.707 -0.1819  0.9152 -0.5644
15871SOL    HW148469   7.262   0.616   1.760 -2.1499  2.6867  2.4066
15871SOL    HW248470   7.175   0.696   1.666 -0.3977  1.7924 -0.1015
15872SOL     OW48471   5.311   1.042   7.971 -0.0354  0.7856  0.5166
15872SOL    HW148472   5.310   0.957   7.927 -0.9949  0.0973  1.8096
15872SOL    HW248473   5.264   1.100   7.911  0.9279  0.5103 -0.5399
15873SOL     OW48474   5.501   0.229   7.882 -0.3260  0.1778  0.0409
15873SOL    HW148475   5.462   0.162   7.827  1.7124 -1.9015  0.9695
15873SOL    HW248476   5.427   0.275   7.921 -1.7817 -0.7854 -1.4830
15874SOL     OW48477   5.669   1.244   6.654 -0.2225  0.2758  0.0968
15874SOL    HW148478   5.751   1.279   6.689 -0.0369  0.3327 -0.3882
15874SOL    HW248479   5.654   1.164   6.703 -0.7929  1.1588  1.4312
15875SOL     OW48480   1.594   3.408   7.273  0.4242  0.1089 -0.3093
15875SOL    HW148481   1.658   3.391   7.342 -1.4109  1.7092  1.9632
15875SOL    HW248482   1.569   3.322   7.241  3.2508 -0.5806 -0.9124
15876SOL     OW48483   1.543   3.633   6.019  0.1870 -0.0371 -0.2250
15876SOL    HW148484   1.487   3.558   5.999 -1.1428  0.0654  2.6207
15876SOL    HW248485   1.620   3.595   6.062 -0.7435  0.1614  1.7338
15877SOL     OW48486   2.852   7.627   1.096  0.1613  0.9915 -0.3970
15877SOL    HW148487   2.759   7.649   1.090  0.6810  3.8717  0.5130
15877SOL    HW248488   2.858   7.567   1.169 -1.0376  0.2225 -0.8968
15878SOL     OW48489   7.812   4.230   2.308 -0.4261 -0.3309  0.4436
15878SOL    HW148490   7.899   4.204   2.337  0.4545 -1.5610 -2.8544
15878SOL    HW248491   7.805   4.322   2.333  1.8689 -0.1850  0.7386
15879SOL     OW48492   7.403   4.827   7.753  0.1014 -0.6479  0.6518
15879SOL    HW148493   7.340   4.792   7.690 -0.0098  0.6072  0.0470
15879SOL    HW248494   7.480   4.771   7.743 -0.1772 -0.9157 -0.0610
15880SOL     OW48495   7.224   0.819   4.659  0.1998 -0.3466 -0.0380
15880SOL    HW148496   7.204   0.756   4.728  1.5468 -2.1796 -1.2176
15880SOL    HW248497   7.214   0.769   4.578 -0.1536  1.4031 -1.1256
15881SOL     OW48498   7.627   4.721   6.996 -0.0802  0.0536  0.3149
15881SOL    HW148499   7.634   4.645   7.054 -1.7212 -0.1892  0.2475
15881SOL    HW248500   7.594   4.685   6.913 -0.9384  0.8285  0.3051
15882SOL     OW48501   7.569   2.102   6.556 -0.1949 -0.1192  0.1008
15882SOL    HW148502   7.650   2.069   6.597  0.2276  0.8315  0.0699
15882SOL    HW248503   7.520   2.023   6.532  0.5487 -0.7098  0.4698
15883SOL     OW48504   2.465   1.807   0.108 -0.2803  0.3708 -0.3649
15883SOL    HW148505   2.457   1.718   0.144  0.8943  0.4294  0.0607
15883SOL    HW248506   2.388   1.816   0.052 -0.3270 -0.9856 -0.5563
15884SOL     OW48507   0.712   5.483   4.047  0.0649  0.1092  0.0826
15884SOL    HW148508   0.807   5.479   4.057  0.1868  0.4866 -0.8623
15884SOL    HW248509   0.680   5.491   4.137  0.8543 -1.0818  0.5043
15885SOL     OW48510   0.798   0.577   3.981 -0.0247 -0.8346  0.4682
15885SOL    HW148511   0.811   0.482   3.981  0.1795 -0.8708  2.8036
15885SOL    HW248512   0.883   0.613   3.957 -0.0772 -1.2311 -0.3367
15886SOL     OW48513   7.194   5.836   5.535 -0.4787  0.4236 -0.3554
15886SOL    HW148514   7.194   5.791   5.620 -1.3433 -0.6931 -0.9263
15886SOL    HW248515   7.162   5.770   5.473  1.0100  0.9259 -1.7181
15887SOL     OW48516   4.058   1.349   5.534 -0.0371  0.0206  0.0501
15887SOL    HW148517   3.979   1.312   5.495  1.0580 -1.9882 -0.4463
15887SOL    HW248518   4.069   1.300   5.616 -0.7498  2.2010  1.5182
15888SOL     OW48519   2.431   3.889   5.328 -0.7333  0.0474  0.0314
15888SOL    HW148520   2.515   3.869   5.367  0.1230  3.4815  0.2684
15888SOL    HW248521   2.447   3.888   5.233 -0.4972  0.3436  0.0670
15889SOL     OW48522   3.767   6.779   0.423  0.9892 -0.5648  0.1988
15889SOL    HW148523   3.815   6.861   0.408  0.2692  0.0060  0.9051
15889SOL    HW248524   3.685   6.791   0.375  1.2161 -1.2182 -0.3651
15890SOL     OW48525   3.131   7.752   1.154  0.1863  0.4005  0.2302
15890SOL    HW148526   3.140   7.801   1.072  1.6837 -0.6865 -0.2810
15890SOL    HW248527   3.083   7.673   1.130  0.6119  0.0884  0.4043
15891SOL     OW48528   5.243   6.912   2.411  0.2545 -0.3436 -0.4140
15891SOL    HW148529   5.172   6.965   2.374  0.4490  1.4102  1.5383
15891SOL    HW248530   5.294   6.973   2.464  1.1668 -2.2818  1.0765
15892SOL     OW48531   2.733   2.515   3.830 -0.0677 -0.0645 -0.2816
15892SOL    HW148532   2.815   2.495   3.874 -1.3901 -0.3724  2.2395
15892SOL    HW248533   2.705   2.432   3.791  0.2414 -0.2253 -0.1650
15893SOL     OW48534   1.470   4.288   6.359  0.0499  0.1373  0.8963
15893SOL    HW148535   1.555   4.259   6.326  0.3920  1.3048  0.7113
15893SOL    HW248536   1.491   4.347   6.432 -0.5141  1.9111 -0.3158
15894SOL     OW48537   3.137   6.670   5.104 -0.0634  0.7874 -0.1786
15894SOL    HW148538   3.147   6.763   5.087 -2.1046  1.1373  0.2653
15894SOL    HW248539   3.056   6.646   5.059  1.2175 -1.1513 -1.6066
15895SOL     OW48540   1.500   4.490   5.781  1.1554 -0.1574  0.7591
15895SOL    HW148541   1.445   4.448   5.847  0.0833  1.2656  0.8313
15895SOL    HW248542   1.442   4.504   5.706  2.1320 -0.9880 -0.1857
15896SOL     OW48543   6.053   5.690   2.552  0.0389 -0.1302 -0.0230
15896SOL    HW148544   6.097   5.693   2.638 -0.3677 -0.9955  0.2333
15896SOL    HW248545   6.019   5.600   2.547 -1.1871  0.3460 -0.4693
15897SOL     OW48546   0.998   3.343   5.654 -0.1890  0.4560 -0.0721
15897SOL    HW148547   0.948   3.413   5.611  1.0145  0.6353 -1.2513
15897SOL    HW248548   1.079   3.386   5.683 -0.3090 -0.0224  1.0020
15898SOL     OW48549   0.393   0.791   3.932  0.2216 -0.4556 -0.2523
15898SOL    HW148550   0.448   0.869   3.944 -0.3559 -0.1410  0.4368
15898SOL    HW248551   0.356   0.801   3.844  0.9457 -0.4755 -0.5709
15899SOL     OW48552   2.537   5.809   5.590  0.1428 -0.2276  0.1761
15899SOL    HW148553   2.625   5.810   5.627 -0.4695  0.2292  1.6962
15899SOL    HW248554   2.547   5.766   5.505  1.9732  0.5918 -0.0749
15900SOL     OW48555   7.957   7.715   3.652  0.1303  0.0403  0.3185
15900SOL    HW148556   7.892   7.785   3.659 -1.2085 -1.2005  0.6056
15900SOL    HW248557   7.993   7.724   3.563  0.4026  1.4171  0.5422
15901SOL     OW48558   1.481   2.616   6.275 -0.0216 -0.0410  0.1743
15901SOL    HW148559   1.408   2.588   6.329  1.1123  0.4233  2.0366
15901SOL    HW248560   1.551   2.636   6.337  0.9918  1.6193 -1.3949
15902SOL     OW48561   6.588   4.611   2.843  0.6342  0.1901 -0.5367
15902SOL    HW148562   6.549   4.687   2.886 -0.7493 -0.2577 -0.9468
15902SOL    HW248563   6.682   4.631   2.838  0.8248  0.3777  2.3847
15903SOL     OW48564   4.062   7.088   5.209  0.0202 -1.1846  0.3556
15903SOL    HW148565   4.068   6.993   5.211 -1.6066 -1.3432 -0.4810
15903SOL    HW248566   4.050   7.110   5.117  0.9706 -0.1027  0.4574
15904SOL     OW48567   2.011   4.755   4.660 -0.0440  0.0106 -0.1727
15904SOL    HW148568   1.976   4.693   4.597  1.4545 -0.6722 -0.3876
15904SOL    HW248569   2.098   4.721   4.682  0.2156  1.2250  0.8587
15905SOL     OW48570   3.821   7.931   4.773 -0.1433  0.2134  0.2184
15905SOL    HW148571   3.892   7.995   4.763 -0.4184  0.6623  1.0904
15905SOL    HW248572   3.766   7.945   4.696 -0.1615  0.9744  0.3633
15906SOL     OW48573   7.569   4.173   3.884  0.3579  0.5742  0.5087
15906SOL    HW148574   7.618   4.192   3.804 -0.4589  2.5681  0.4200
15906SOL    HW248575   7.548   4.080   3.878  0.7642  0.5700 -1.3412
15907SOL     OW48576   3.576   0.963   2.917  0.2197 -0.2629 -0.9282
15907SOL    HW148577   3.510   1.024   2.884  0.8650  1.1545  0.2960
15907SOL    HW248578   3.524   0.888   2.949 -0.8169  0.8110 -0.0002
15908SOL     OW48579   4.283   4.177   5.681  0.0799 -0.3180 -0.3124
15908SOL    HW148580   4.243   4.244   5.625  0.5309 -0.1025 -0.3795
15908SOL    HW248581   4.370   4.164   5.644  0.0354 -0.8624 -0.2303
15909SOL     OW48582   3.604   7.214   2.500 -0.3430  0.0369  0.6303
15909SOL    HW148583   3.641   7.234   2.414  2.4367 -1.3151  1.3783
15909SOL    HW248584   3.618   7.295   2.551 -1.1477  0.5213  0.1023
15910SOL     OW48585   2.368   5.716   1.518  0.2544  0.0498 -0.4304
15910SOL    HW148586   2.435   5.784   1.529  2.0899 -1.5012 -1.3875
15910SOL    HW248587   2.350   5.715   1.424  1.3587 -1.7029 -0.6737
15911SOL     OW48588   4.735   5.305   3.444  0.5252 -0.1756 -0.2847
15911SOL    HW148589   4.770   5.371   3.504  2.0849  1.0096 -2.3658
15911SOL    HW248590   4.804   5.238   3.439  0.3686 -0.3161 -0.6319
15912SOL     OW48591   0.870   7.850   2.477 -0.0280  0.7769 -0.5504
15912SOL    HW148592   0.848   7.804   2.558  2.0355 -2.0811 -1.4348
15912SOL    HW248593   0.956   7.888   2.494  0.3164  0.3528 -1.2902
15913SOL     OW48594   2.072   1.083   4.045 -0.5379 -0.5156 -0.3035
15913SOL    HW148595   2.044   1.105   3.956  1.6194  1.8909 -0.4894
15913SOL    HW248596   2.122   1.002   4.034  0.7503  0.3958 -1.5565
15914SOL     OW48597   2.184   1.821   4.768 -0.4170 -0.0225 -0.2680
15914SOL    HW148598   2.193   1.744   4.825  1.9019 -1.1456 -1.9791
15914SOL    HW248599   2.239   1.887   4.808  0.6985 -0.5970 -0.8147
15915SOL     OW48600   2.973   5.118   0.873  0.2995 -0.1862  0.1758
15915SOL    HW148601   3.050   5.062   0.861 -0.1247 -1.5740  2.9659
15915SOL    HW248602   2.939   5.131   0.785  0.8785 -3.7639 -0.7513
15916SOL     OW48603   4.866   5.576   5.536  0.1236  0.2490  0.2950
15916SOL    HW148604   4.806   5.575   5.462  1.9264  0.8783 -1.2361
15916SOL    HW248605   4.856   5.491   5.577 -0.7751 -0.1781 -0.7803
15917SOL     OW48606   0.386   7.784   3.422 -0.2383  0.1755  0.3908
15917SOL    HW148607   0.431   7.828   3.494 -0.3978 -0.0934  0.6550
15917SOL    HW248608   0.442   7.801   3.346 -0.2693  0.7862  0.4982
15918SOL     OW48609   5.919   4.121   2.180 -0.4366 -1.0061 -0.1491
15918SOL    HW148610   5.982   4.193   2.174 -1.4127 -0.0133  0.9880
15918SOL    HW248611   5.909   4.090   2.090 -0.1973  0.4752 -0.7148
15919SOL     OW48612   2.165   5.174   2.306 -0.1254 -0.3776  0.3955
15919SOL    HW148613   2.132   5.215   2.386 -1.5580  0.8386 -0.7623
15919SOL    HW248614   2.091   5.124   2.272  0.4045 -0.7092 -0.2984
15920SOL     OW48615   4.148   3.700   6.874  0.0580 -0.3070 -0.1444
15920SOL    HW148616   4.101   3.622   6.902 -1.5371  0.7275  0.2057
15920SOL    HW248617   4.219   3.709   6.938  0.6485 -1.7815 -0.5525
15921SOL     OW48618   2.847   1.262   1.881  0.3222 -0.9151 -0.0777
15921SOL    HW148619   2.830   1.246   1.788  2.7499 -2.7905 -0.2980
15921SOL    HW248620   2.913   1.197   1.904  2.4579  1.7966  2.0451
15922SOL     OW48621   0.470   6.179   0.014 -0.9138  0.1523 -0.1462
15922SOL    HW148622   0.408   6.215   0.077  0.3444 -0.0138  1.2571
15922SOL    HW248623   0.547   6.235   0.022  0.3322 -1.5847  0.6110
15923SOL     OW48624   3.528   0.983   4.241  0.2269 -0.0639  0.2063
15923SOL    HW148625   3.522   0.894   4.277 -1.0984  0.0770  0.3828
15923SOL    HW248626   3.594   1.026   4.295 -0.4682 -0.3893  1.3554
15924SOL     OW48627   1.860   5.765   5.835  0.2567  0.1289  0.6198
15924SOL    HW148628   1.860   5.699   5.904  0.7518 -1.5046 -0.8691
15924SOL    HW248629   1.952   5.781   5.817  0.1292  0.3117  0.1244
15925SOL     OW48630   4.473   0.695   6.170  1.2052  0.3013  0.2947
15925SOL    HW148631   4.550   0.724   6.121  0.0199  1.0029 -1.2427
15925SOL    HW248632   4.419   0.773   6.178  0.3535 -0.3249  0.7572
15926SOL     OW48633   2.735   3.522   1.667  0.3387  0.0064  0.1602
15926SOL    HW148634   2.770   3.588   1.727 -0.0924  1.8929 -1.5674
15926SOL    HW248635   2.664   3.481   1.716  1.1831  0.1795  1.5940
15927SOL     OW48636   6.248   4.408   6.783  0.0510  0.4153  0.2698
15927SOL    HW148637   6.155   4.419   6.802 -0.4698 -1.1715 -1.0930
15927SOL    HW248638   6.277   4.341   6.846 -0.4355 -1.0775 -1.0207
15928SOL     OW48639   4.984   5.297   6.663 -0.6820  0.4716  0.1418
15928SOL    HW148640   4.994   5.366   6.597 -0.4571 -1.0211 -1.4524
15928SOL    HW248641   4.913   5.328   6.719 -1.6690  1.3261 -1.4805
15929SOL     OW48642   7.866   3.736   5.601  0.9198 -0.3219  0.0317
15929SOL    HW148643   7.806   3.798   5.644  1.2524 -0.9687  1.5139
15929SOL    HW248644   7.816   3.654   5.597  0.5219 -0.0307 -1.8173
15930SOL     OW48645   3.474   1.705   0.159  0.1783  0.8066 -0.3005
15930SOL    HW148646   3.452   1.667   0.244  1.5699  0.9191  0.1225
15930SOL    HW248647   3.425   1.651   0.097 -1.1352  0.9438  0.5693
15931SOL     OW48648   7.753   0.125   5.867 -0.2392 -0.7785  0.4183
15931SOL    HW148649   7.678   0.066   5.876 -0.7300 -0.0446  1.2992
15931SOL    HW248650   7.775   0.149   5.957  0.0779  0.2217  0.0857
15932SOL     OW48651   5.299   7.009   4.237  0.4925  0.2373  0.0702
15932SOL    HW148652   5.278   6.925   4.196  2.2943 -0.3352  0.2354
15932SOL    HW248653   5.216   7.038   4.275 -0.2237 -1.3449 -0.1884
15933SOL     OW48654   1.308   7.165   1.380 -0.7325 -0.3968  0.7035
15933SOL    HW148655   1.280   7.080   1.412 -0.7779 -0.1539  1.3347
15933SOL    HW248656   1.287   7.226   1.451 -0.1860  0.0544  0.4947
15934SOL     OW48657   6.927   3.795   7.827  0.7972 -0.0201 -0.0955
15934SOL    HW148658   7.002   3.759   7.876 -0.6979  2.2720  4.3858
15934SOL    HW248659   6.966   3.853   7.762  2.9222 -1.6613 -0.3852
15935SOL     OW48660   0.680   0.178   3.310  0.3930 -0.5555  0.6424
15935SOL    HW148661   0.765   0.220   3.323  0.0692  0.4908 -0.4436
15935SOL    HW248662   0.651   0.209   3.225 -1.5730 -0.0156  1.4658
15936SOL     OW48663   1.118   6.017   7.509 -0.5272  0.6138  0.7786
15936SOL    HW148664   1.096   6.043   7.420 -1.9110  0.8285  1.1544
15936SOL    HW248665   1.130   5.922   7.504  0.6578  0.7815  0.1403
15937SOL     OW48666   7.276   2.369   2.842 -0.7161 -0.0701 -0.1073
15937SOL    HW148667   7.317   2.452   2.865  2.3730 -2.0015  2.3035
15937SOL    HW248668   7.205   2.359   2.905  0.1181 -0.0475  0.8618
15938SOL     OW48669   7.024   7.784   7.591  0.0714 -0.3467  0.0210
15938SOL    HW148670   7.101   7.840   7.582 -0.1897  0.0391  0.1940
15938SOL    HW248671   6.974   7.822   7.663 -0.4236 -0.4285 -0.2707
15939SOL     OW48672   6.913   2.173   0.428  0.4156 -0.4360  0.6628
15939SOL    HW148673   6.956   2.091   0.451  0.1567 -0.2266  1.9739
15939SOL    HW248674   6.840   2.180   0.489  0.2021  0.5877  0.3168
15940SOL     OW48675   0.270   3.785   0.135  0.7136  0.0591  0.4509
15940SOL    HW148676   0.310   3.749   0.214 -0.6427  1.5221  1.8587
15940SOL    HW248677   0.191   3.732   0.122  0.8943 -0.1292  0.0889
15941SOL     OW48678   7.372   0.330   2.239 -0.2540  0.0133  0.5796
15941SOL    HW148679   7.465   0.351   2.233  0.0866 -0.9042  2.0084
15941SOL    HW248680   7.338   0.340   2.150  1.3398 -0.2169 -0.0758
15942SOL     OW48681   7.421   1.753   4.180  0.0105 -0.3964 -0.0650
15942SOL    HW148682   7.407   1.835   4.133 -2.5422  0.3808  1.8493
15942SOL    HW248683   7.376   1.687   4.126 -0.4040 -0.0313 -0.1703
15943SOL     OW48684   7.327   4.982   5.458  0.0841 -0.6747 -0.4796
15943SOL    HW148685   7.410   4.939   5.480  0.5489  1.6735  3.1099
15943SOL    HW248686   7.352   5.054   5.400  0.8774  0.8719  1.6854
15944SOL     OW48687   1.733   5.713   7.607  0.4209 -0.1363 -0.2382
15944SOL    HW148688   1.739   5.758   7.523 -0.0459 -0.7045 -0.5906
15944SOL    HW248689   1.771   5.627   7.591  1.0394  0.0239  0.3458
15945SOL     OW48690   1.733   1.103   7.365 -0.6910 -0.6948 -0.2974
15945SOL    HW148691   1.664   1.105   7.431  0.3642  0.7913  0.8461
15945SOL    HW248692   1.760   1.011   7.362 -0.5785 -0.7707  1.5896
15946SOL     OW48693   3.379   3.564   6.907 -0.1180  0.0668  0.1635
15946SOL    HW148694   3.321   3.539   6.979  0.0737  0.5308  0.4847
15946SOL    HW248695   3.436   3.631   6.944 -0.8534  1.2484 -0.7564
15947SOL     OW48696   3.869   1.270   5.354  0.0561 -0.0353  0.1854
15947SOL    HW148697   3.898   1.277   5.263 -0.0692 -1.6847 -0.0249
15947SOL    HW248698   3.845   1.177   5.364 -1.4558  0.4365  1.4382
15948SOL     OW48699   1.589   4.321   4.834 -0.2344  0.2825 -0.4029
15948SOL    HW148700   1.507   4.336   4.880  0.1388 -0.5242  0.5794
15948SOL    HW248701   1.625   4.241   4.875  0.0045 -0.6137 -2.2580
15949SOL     OW48702   4.765   4.971   2.795 -0.6998 -0.3055 -0.4124
15949SOL    HW148703   4.737   4.922   2.717 -2.2284  0.4579 -0.3732
15949SOL    HW248704   4.765   4.905   2.865 -0.2837 -0.7825 -0.8514
15950SOL     OW48705   0.715   1.744   3.598 -0.0490 -0.1406  0.1405
15950SOL    HW148706   0.658   1.700   3.534 -1.3607 -0.9180  1.7791
15950SOL    HW248707   0.687   1.711   3.683  1.2808  1.2798  1.1995
15951SOL     OW48708   0.203   4.325   2.969 -0.2961 -0.2090 -0.0479
15951SOL    HW148709   0.145   4.395   2.998 -0.5514  0.3729 -1.8265
15951SOL    HW248710   0.223   4.347   2.878  0.4022 -1.9455 -0.3525
15952SOL     OW48711   0.001   2.915   2.837  0.0124  0.1436 -0.0975
15952SOL    HW148712   0.032   2.993   2.883 -0.9668  0.1370  0.6073
15952SOL    HW248713  -0.094   2.927   2.831  0.0717  0.0325 -1.9338
15953SOL     OW48714   0.230   6.188   5.060 -0.1138 -0.1023  0.2896
15953SOL    HW148715   0.309   6.227   5.022  0.1050 -0.9805 -0.1924
15953SOL    HW248716   0.227   6.100   5.022 -1.5191  0.0419  0.0177
15954SOL     OW48717   4.307   2.453   0.996 -0.5495  0.0316  0.9780
15954SOL    HW148718   4.223   2.408   0.983 -0.1029 -0.2699 -1.3609
15954SOL    HW248719   4.353   2.401   1.061 -0.9061 -1.6721 -0.0851
15955SOL     OW48720   1.609   4.302   7.937 -0.3029  0.4215 -0.4194
15955SOL    HW148721   1.640   4.334   8.021 -1.5543  1.4329 -0.3285
15955SOL    HW248722   1.618   4.206   7.943 -0.5730  0.4652  0.9356
15956SOL     OW48723   2.390   6.762   3.165  0.2433  0.5960 -0.6242
15956SOL    HW148724   2.412   6.688   3.108  2.0677  0.7474 -0.1468
15956SOL    HW248725   2.309   6.734   3.209 -0.6146  0.0326 -2.4364
15957SOL     OW48726   0.134   3.841   3.239 -0.7227  0.8355 -0.5668
15957SOL    HW148727   0.124   3.922   3.190 -1.1166  0.3647 -1.2906
15957SOL    HW248728   0.212   3.799   3.202 -0.6139  0.8046 -0.3090
15958SOL     OW48729   1.009   1.134   4.721  0.1465 -0.4225 -0.0075
15958SOL    HW148730   0.979   1.158   4.633  1.6911 -0.6102 -0.6079
15958SOL    HW248731   0.995   1.039   4.726 -0.9137 -0.2637  0.3620
15959SOL     OW48732   3.205   2.123   6.253 -0.1284 -0.4344 -0.5465
15959SOL    HW148733   3.159   2.109   6.336  0.0721 -0.5912 -0.4600
15959SOL    HW248734   3.231   2.215   6.256  1.4489 -0.8495  0.3877
15960SOL     OW48735   6.523   6.076   3.903  0.3834 -0.3513 -0.0132
15960SOL    HW148736   6.528   6.114   3.991 -2.1866 -1.8918  0.9372
15960SOL    HW248737   6.604   6.027   3.893  0.3202 -0.9561  1.9693
15961SOL     OW48738   2.607   0.110   3.820 -0.3707  0.2511  0.2528
15961SOL    HW148739   2.631   0.017   3.820 -0.1210  0.3141 -0.0573
15961SOL    HW248740   2.524   0.113   3.867  0.0944 -0.0052  1.1078
15962SOL     OW48741   6.846   3.163   4.879  0.3808 -0.2725 -0.1127
15962SOL    HW148742   6.851   3.108   4.957  0.5868 -0.4223 -0.2297
15962SOL    HW248743   6.825   3.250   4.912  0.8771 -0.2454  0.1528
15963SOL     OW48744   5.284   4.132   2.739 -0.2924 -0.4236 -0.2496
15963SOL    HW148745   5.360   4.133   2.681  0.0934 -0.5496  0.2481
15963SOL    HW248746   5.209   4.145   2.681  0.1465  0.2243 -0.6779
15964SOL     OW48747   2.518   3.430   7.230 -0.0563 -0.1730  0.1400
15964SOL    HW148748   2.489   3.377   7.304  0.4370 -1.9808 -0.8805
15964SOL    HW248749   2.610   3.408   7.219 -0.0299  0.3365 -0.7821
15965SOL     OW48750   4.958   5.543   2.526  0.5970 -0.2179  0.1740
15965SOL    HW148751   4.910   5.492   2.591 -2.4588 -0.9683 -2.4013
15965SOL    HW248752   5.025   5.483   2.493 -1.2005 -1.7553 -0.8967
15966SOL     OW48753   6.362   4.796   3.152 -0.8206  0.3162 -0.0872
15966SOL    HW148754   6.317   4.783   3.069 -1.0070  0.8767 -0.0742
15966SOL    HW248755   6.451   4.823   3.127 -0.3360 -1.1753 -0.1200
15967SOL     OW48756   4.671   2.618   6.346 -1.0130 -0.5836 -0.3204
15967SOL    HW148757   4.703   2.663   6.268 -0.5574 -1.6422 -0.7588
15967SOL    HW248758   4.678   2.683   6.416  1.1163 -0.4517 -0.6054
15968SOL     OW48759   2.304   2.111   5.899  0.3862 -0.0232  0.0377
15968SOL    HW148760   2.323   2.166   5.823  1.7846  0.2597  0.5694
15968SOL    HW248761   2.213   2.134   5.923 -0.0896 -0.1623 -1.5542
15969SOL     OW48762   3.536   0.535   2.325 -0.5341  0.0698 -0.3150
15969SOL    HW148763   3.507   0.569   2.240 -1.9186 -0.4906 -0.0912
15969SOL    HW248764   3.509   0.602   2.388 -0.9670 -0.2593 -0.1473
15970SOL     OW48765   2.026   6.955   1.502 -0.4476 -0.1514  0.2529
15970SOL    HW148766   2.024   6.969   1.407 -0.5769  0.9926  0.4073
15970SOL    HW248767   1.965   6.883   1.516 -0.3283 -0.4265 -0.5434
15971SOL     OW48768   4.317   6.119   1.684  0.2385 -0.1086 -0.1889
15971SOL    HW148769   4.374   6.067   1.741 -0.5097 -0.1576  0.5352
15971SOL    HW248770   4.339   6.090   1.595  1.9776  0.5106 -0.0095
15972SOL     OW48771   3.843   4.889   4.270 -0.3075 -0.3987 -0.2368
15972SOL    HW148772   3.796   4.927   4.196 -0.3364  0.9252  0.4263
15972SOL    HW248773   3.805   4.802   4.281 -1.4277  0.0041 -0.7720
15973SOL     OW48774   1.996   1.073   3.193  0.4059  0.0021  0.0677
15973SOL    HW148775   2.007   0.989   3.150 -1.2672 -0.8542  1.2360
15973SOL    HW248776   1.951   1.128   3.129  0.5546 -0.3264 -0.3185
15974SOL     OW48777   7.893   1.551   3.410 -0.3274  0.1033  0.5190
15974SOL    HW148778   7.967   1.577   3.355 -1.0104 -2.0069 -1.5851
15974SOL    HW248779   7.841   1.630   3.419  0.5436  0.8610 -0.7246
15975SOL     OW48780   2.178   4.538   3.177 -0.0390 -0.1367 -0.0681
15975SOL    HW148781   2.097   4.583   3.153 -0.6432  0.7627  3.1236
15975SOL    HW248782   2.248   4.600   3.154 -0.7486  1.8244  2.5225
15976SOL     OW48783   5.497   6.857   2.320 -0.3108  0.1350  0.0838
15976SOL    HW148784   5.418   6.898   2.356  0.3337  0.9783  0.5789
15976SOL    HW248785   5.485   6.861   2.225 -1.6603 -1.3672  0.1404
15977SOL     OW48786   7.752   3.163   7.403  0.5009  0.1884  0.0371
15977SOL    HW148787   7.697   3.191   7.330  0.4262 -1.9685 -0.8345
15977SOL    HW248788   7.696   3.104   7.454  1.3488 -0.3784  0.3400
15978SOL     OW48789   7.042   1.893   5.682 -0.1844  0.2542 -0.2939
15978SOL    HW148790   6.956   1.867   5.715 -0.1276 -1.2095 -1.1800
15978SOL    HW248791   7.097   1.897   5.760 -0.1644 -2.6200 -0.0334
15979SOL     OW48792   6.919   3.907   3.270 -0.5778  0.0095 -0.7413
15979SOL    HW148793   6.853   3.841   3.248  0.5182 -1.0886 -0.8900
15979SOL    HW248794   6.996   3.855   3.295  0.3363  1.2521 -0.9095
15980SOL     OW48795   7.744   1.501   3.644 -1.1232  0.5659 -0.0390
15980SOL    HW148796   7.653   1.496   3.616 -0.8393  0.0730 -0.8838
15980SOL    HW248797   7.793   1.521   3.565 -0.3273 -0.6662  0.1257
15981SOL     OW48798   5.605   2.871   5.909  0.7118 -0.1697  0.1330
15981SOL    HW148799   5.669   2.928   5.950  2.4491 -0.6388 -1.7865
15981SOL    HW248800   5.560   2.926   5.845  3.8966 -1.2159 -3.3192
15982SOL     OW48801   2.435   6.348   1.024  0.6070  0.1842  0.2285
15982SOL    HW148802   2.376   6.401   1.077 -0.1729 -1.1110  0.6883
15982SOL    HW248803   2.384   6.324   0.947  1.5816  1.6563 -0.9485
15983SOL     OW48804   4.070   2.078   6.514 -0.1577  0.4355  0.1243
15983SOL    HW148805   4.077   2.081   6.419  1.2007  0.5893  0.2092
15983SOL    HW248806   4.035   1.991   6.534 -0.3031  0.3509 -0.4936
15984SOL     OW48807   0.155   1.244   4.334 -0.2490 -0.1559  0.3604
15984SOL    HW148808   0.066   1.277   4.345 -0.4738 -0.0793 -1.4965
15984SOL    HW248809   0.196   1.258   4.420 -1.2670  2.0486  0.5458
15985SOL     OW48810   6.780   7.043   6.635 -0.1133  0.4667 -0.2016
15985SOL    HW148811   6.752   7.101   6.705 -1.4811 -0.5185  0.1148
15985SOL    HW248812   6.871   7.021   6.657 -1.1834 -1.7361  2.7232
15986SOL     OW48813   6.361   4.270   4.262  0.4167 -0.5081  0.0075
15986SOL    HW148814   6.438   4.244   4.211  0.4267  0.2783 -0.3832
15986SOL    HW248815   6.325   4.345   4.215 -0.0204 -0.2526  0.7342
15987SOL     OW48816   1.056   6.566   5.037  0.4211 -0.5289  0.0984
15987SOL    HW148817   1.125   6.584   4.972  0.1947 -1.3629 -0.3800
15987SOL    HW248818   1.055   6.644   5.093  0.6240  0.1968 -0.8929
15988SOL     OW48819   2.446   7.705   4.490  0.0218 -0.0690  0.3992
15988SOL    HW148820   2.367   7.716   4.543 -0.7988  2.2344 -1.1086
15988SOL    HW248821   2.412   7.689   4.402  1.2513 -0.2358 -0.0522
15989SOL     OW48822   5.116   2.991   1.927 -0.3950 -0.1501  0.3026
15989SOL    HW148823   5.093   3.082   1.945  0.7231  0.4615 -1.1086
15989SOL    HW248824   5.135   2.953   2.012  1.8981  1.7574  0.7324
15990SOL     OW48825   6.408   7.234   0.809 -0.1246  0.6392 -0.5366
15990SOL    HW148826   6.458   7.304   0.850 -0.4783  0.8440 -0.4543
15990SOL    HW248827   6.384   7.268   0.722  1.2507 -0.0674 -1.2298
15991SOL     OW48828   6.588   4.400   0.624 -0.4182 -0.0225  0.1915
15991SOL    HW148829   6.547   4.400   0.537 -1.6495 -0.5074  0.7435
15991SOL    HW248830   6.678   4.427   0.608 -0.7365  0.3183 -1.1839
15992SOL     OW48831   3.532   3.220   4.757 -0.0530  0.2008  0.1953
15992SOL    HW148832   3.442   3.209   4.725  0.4566 -0.7568 -0.9777
15992SOL    HW248833   3.534   3.172   4.839 -0.5254 -0.0630  0.0550
15993SOL     OW48834   6.199   7.747   2.214 -0.1907 -0.5954  0.3732
15993SOL    HW148835   6.206   7.656   2.242 -0.1387  0.0288  2.5469
15993SOL    HW248836   6.290   7.777   2.209 -0.0758 -1.0997 -2.1644
15994SOL     OW48837   3.938   5.150   1.267  0.4621  0.1048 -0.7680
15994SOL    HW148838   3.977   5.062   1.266  0.9152  0.2861  0.0396
15994SOL    HW248839   3.966   5.187   1.350  1.0439  1.3678 -1.5114
15995SOL     OW48840   1.538   3.558   3.952 -0.2442 -0.4067  0.3497
15995SOL    HW148841   1.494   3.593   3.875 -0.0750 -1.7039 -0.3567
15995SOL    HW248842   1.622   3.603   3.955 -0.4706  0.0341  0.0912
15996SOL     OW48843   5.859   4.089   1.345 -0.0218  0.1890 -0.7674
15996SOL    HW148844   5.875   4.119   1.435 -0.7749  0.7874 -0.8129
15996SOL    HW248845   5.825   4.167   1.300 -1.1203 -0.4798 -1.1534
15997SOL     OW48846   4.046   3.701   7.871  0.2748 -0.3954 -0.1674
15997SOL    HW148847   4.020   3.614   7.841 -1.2239 -0.0152 -0.0335
15997SOL    HW248848   4.009   3.708   7.959 -0.4031  0.7197 -0.5280
15998SOL     OW48849   2.591   6.780   0.698  0.2188 -0.0351 -0.5344
15998SOL    HW148850   2.542   6.733   0.631  1.0320 -0.5482 -0.7809
15998SOL    HW248851   2.523   6.822   0.752 -0.4596 -0.0653 -1.3384
15999SOL     OW48852   3.869   6.997   5.781 -0.3962  0.3671 -0.5599
15999SOL    HW148853   3.922   6.917   5.786 -0.8603  0.1227  1.0138
15999SOL    HW248854   3.931   7.065   5.756  0.1792 -0.3274 -1.0641
16000SOL     OW48855   7.402   1.268   0.424 -0.6312  0.3434 -0.3079
16000SOL    HW148856   7.333   1.333   0.427  0.5764  1.6754 -0.4595
16000SOL    HW248857   7.356   1.185   0.408 -2.3375  0.8625  1.5776
16001SOL     OW48858   5.734   4.043   3.064 -0.2865 -0.0507  0.2574
16001SOL    HW148859   5.820   4.057   3.105  0.1104  0.2265 -0.6402
16001SOL    HW248860   5.672   4.075   3.130  0.4184  2.1944 -0.0550
16002SOL     OW48861   7.068   3.635   7.627 -0.2965  0.1269  0.1273
16002SOL    HW148862   7.091   3.598   7.542  0.9562 -0.2490  0.6140
16002SOL    HW248863   7.147   3.678   7.658  0.1431 -1.9875  2.2654
16003SOL     OW48864   6.430   7.040   5.226  0.0216  0.0462  0.0260
16003SOL    HW148865   6.506   7.073   5.274  0.2851  0.7087 -0.8093
16003SOL    HW248866   6.465   6.970   5.171 -0.6670 -2.2276  2.3230
16004SOL     OW48867   1.407   1.688   1.289  0.2762 -0.1830 -0.1318
16004SOL    HW148868   1.444   1.641   1.365  0.1217 -1.4770 -0.8217
16004SOL    HW248869   1.316   1.659   1.286  0.8625 -2.0957 -2.2073
16005SOL     OW48870   2.029   7.883   0.483  0.2003  0.1095  0.7137
16005SOL    HW148871   1.993   7.848   0.565 -0.0140 -0.1887  0.4985
16005SOL    HW248872   1.957   7.874   0.420  1.2804 -2.5348 -0.3012
16006SOL     OW48873   0.691   3.210   0.136 -0.5351 -1.0700  0.2935
16006SOL    HW148874   0.602   3.242   0.120 -0.3445 -0.0581  1.1780
16006SOL    HW248875   0.722   3.184   0.050  0.1329  3.3464 -1.0559
16007SOL     OW48876   6.399   5.467   6.459 -0.3326  0.6373 -0.1554
16007SOL    HW148877   6.366   5.397   6.515 -1.5507  1.5630  0.3405
16007SOL    HW248878   6.408   5.542   6.518 -0.5404  1.3166 -0.9722
16008SOL     OW48879   7.811   0.022   6.675  0.4006 -0.4942 -0.2677
16008SOL    HW148880   7.849  -0.047   6.621 -0.0230 -1.0433  0.1207
16008SOL    HW248881   7.859   0.101   6.651  2.6669 -1.3668  1.0903
16009SOL     OW48882   1.328   3.895   6.639  0.3431  0.3217  0.0714
16009SOL    HW148883   1.364   3.888   6.551  0.1052  1.0868 -0.0917
16009SOL    HW248884   1.339   3.987   6.663  2.2513 -0.2619  1.6627
16010SOL     OW48885   2.453   2.965   6.572 -0.4164  0.0408 -0.0975
16010SOL    HW148886   2.431   3.032   6.637 -0.3275 -0.4330  0.4193
16010SOL    HW248887   2.454   3.013   6.489 -0.1763  0.7232  0.2903
16011SOL     OW48888   6.824   2.070   0.191 -0.5130  0.3788  0.3254
16011SOL    HW148889   6.863   2.107   0.270  0.6529 -0.4176  0.1470
16011SOL    HW248890   6.739   2.038   0.219  0.1651 -0.5135  1.4392
16012SOL     OW48891   3.790   3.702   5.415  0.0661  0.4156  0.2863
16012SOL    HW148892   3.740   3.632   5.456 -2.5722  1.0274 -1.6533
16012SOL    HW248893   3.848   3.658   5.354 -3.4402 -0.2294 -2.9423
16013SOL     OW48894   7.828   0.796   6.764 -0.0883 -0.4398 -0.2979
16013SOL    HW148895   7.790   0.812   6.678 -0.0572 -1.1008 -0.4406
16013SOL    HW248896   7.897   0.732   6.748  0.1169 -0.3379  0.1746
16014SOL     OW48897   5.753   4.752   3.618 -0.6705 -0.7781 -0.2106
16014SOL    HW148898   5.818   4.807   3.576  0.4957 -0.7805  1.4907
16014SOL    HW248899   5.765   4.665   3.579 -0.5699 -0.4829 -0.8445
16015SOL     OW48900   1.891   7.514   3.343 -0.1207 -0.1939  0.6846
16015SOL    HW148901   1.949   7.456   3.391  0.3306  2.2024  3.2675
16015SOL    HW248902   1.950   7.577   3.301 -0.6687 -0.7140 -0.9530
16016SOL     OW48903   3.870   1.450   3.062  0.3026  0.3381 -0.6964
16016SOL    HW148904   3.942   1.486   3.010 -1.0021  1.8273 -1.5267
16016SOL    HW248905   3.802   1.428   2.998 -0.4139 -0.0417  0.1675
16017SOL     OW48906   4.613   5.566   0.937  0.0554 -0.1298  0.0916
16017SOL    HW148907   4.608   5.495   0.873 -0.4319  0.4712 -0.5650
16017SOL    HW248908   4.583   5.528   1.019 -3.4740  0.1134 -0.9474
16018SOL     OW48909   2.701   5.859   2.185 -0.5363 -0.6202 -0.1113
16018SOL    HW148910   2.611   5.860   2.218 -0.6277  0.4161 -0.3450
16018SOL    HW248911   2.743   5.934   2.226  0.1960 -1.0236 -0.1005
16019SOL     OW48912   2.989   0.141   5.110 -0.0224  0.3527  1.1418
16019SOL    HW148913   2.959   0.216   5.161 -0.4206  2.5029 -1.9481
16019SOL    HW248914   2.925   0.134   5.039  1.0813 -1.7469  0.2597
16020SOL     OW48915   3.180   6.266   0.292  0.0419 -0.0111  0.1275
16020SOL    HW148916   3.223   6.348   0.267  0.3899  0.4217  1.9888
16020SOL    HW248917   3.252   6.209   0.320 -0.2337 -0.8378 -0.7767
16021SOL     OW48918   5.003   1.738   0.147  0.1409  0.1832  0.2041
16021SOL    HW148919   5.040   1.825   0.166 -0.6774  0.4881  0.4135
16021SOL    HW248920   5.064   1.701   0.083  1.5995  0.1034  1.5837
16022SOL     OW48921   6.123   1.461   6.265  0.2896 -0.6301 -0.1126
16022SOL    HW148922   6.050   1.505   6.308  0.6882 -0.6525  0.6016
16022SOL    HW248923   6.201   1.500   6.304  0.6556 -1.3312 -0.1273
16023SOL     OW48924   7.290   6.730   2.302  0.4015  0.5812  0.0778
16023SOL    HW148925   7.245   6.808   2.268 -0.7523 -0.1660 -0.1537
16023SOL    HW248926   7.258   6.721   2.391 -1.1844 -0.8372 -0.5736
16024SOL     OW48927   4.468   7.774   3.862 -0.8309  0.1993 -0.5034
16024SOL    HW148928   4.469   7.725   3.945 -1.1920  1.0086 -0.0056
16024SOL    HW248929   4.559   7.771   3.831 -0.9153 -1.0929 -0.6823
16025SOL     OW48930   6.529   2.653   4.464 -0.0653  0.5825 -0.0066
16025SOL    HW148931   6.550   2.701   4.544 -1.5619 -1.1321  1.4866
16025SOL    HW248932   6.435   2.668   4.450  0.0499  0.3793 -1.1269
16026SOL     OW48933   6.492   2.502   3.933  0.5513  0.0425  0.5526
16026SOL    HW148934   6.578   2.471   3.906  1.4140  1.3327  1.6807
16026SOL    HW248935   6.490   2.488   4.027 -0.1596  0.7204  0.6477
16027SOL     OW48936   1.363   1.219   6.825 -0.9814 -0.8494  0.1430
16027SOL    HW148937   1.315   1.224   6.908 -0.4705  1.0903  0.3651
16027SOL    HW248938   1.305   1.259   6.761 -1.5987 -2.8212 -0.5949
16028SOL     OW48939   4.661   4.308   2.872 -0.0840 -0.0991  0.1249
16028SOL    HW148940   4.729   4.343   2.815  0.7875 -0.7447  0.7262
16028SOL    HW248941   4.659   4.214   2.851 -2.6796  0.2904 -1.7813
16029SOL     OW48942   7.067   3.368   4.879  0.1115  0.0923  0.1655
16029SOL    HW148943   7.031   3.447   4.839 -2.4391 -1.0494 -0.0427
16029SOL    HW248944   7.044   3.298   4.817  1.1702 -0.9885  0.9462
16030SOL     OW48945   1.363   4.577   1.545  0.5397  0.3257 -0.3642
16030SOL    HW148946   1.289   4.623   1.508  0.2662 -0.2984 -0.6148
16030SOL    HW248947   1.408   4.539   1.469  0.0715 -0.8192 -0.0947
16031SOL     OW48948   4.191   3.027   5.471  0.1787  0.5138 -0.3698
16031SOL    HW148949   4.281   3.015   5.502 -0.1634  0.4217  0.6182
16031SOL    HW248950   4.141   2.959   5.515 -0.3074  0.2573 -1.2835
16032SOL     OW48951   6.968   0.017   4.798  0.0346  0.0399 -0.2542
16032SOL    HW148952   6.991  -0.073   4.821 -0.3962 -0.1118 -0.4067
16032SOL    HW248953   6.957   0.015   4.703 -1.0761 -0.0040 -0.1355
16033SOL     OW48954   2.635   1.410   3.460  0.3385 -0.0387 -0.5566
16033SOL    HW148955   2.690   1.486   3.443 -0.9429  1.1569  0.3999
16033SOL    HW248956   2.683   1.358   3.524  1.0533  0.1324 -0.9392
16034SOL     OW48957   3.357   6.883   4.821 -0.6248 -0.1314 -0.2225
16034SOL    HW148958   3.316   6.802   4.790  1.2786 -0.7253 -1.3614
16034SOL    HW248959   3.406   6.856   4.898  1.0536 -0.3886 -1.3390
16035SOL     OW48960   6.213   3.023   1.095  0.3650  0.4282  0.3673
16035SOL    HW148961   6.241   2.961   1.163  0.2327 -0.9125 -0.7681
16035SOL    HW248962   6.138   3.068   1.134 -0.4919 -1.2058  0.6600
16036SOL     OW48963   1.350   3.019   2.761  0.4390  0.1456  0.4126
16036SOL    HW148964   1.344   3.028   2.856 -0.3335 -0.3454  0.4207
16036SOL    HW248965   1.310   3.099   2.727 -1.2270 -0.5961  0.5101
16037SOL     OW48966   4.856   7.234   6.507  0.3094 -0.0045  0.1692
16037SOL    HW148967   4.894   7.300   6.565  0.2844  0.1542  0.0036
16037SOL    HW248968   4.879   7.150   6.548 -0.5407  0.1195  0.9562
16038SOL     OW48969   1.968   2.877   5.804  0.3958  0.2728 -0.7107
16038SOL    HW148970   1.889   2.888   5.857  0.4948  0.8592 -0.6852
16038SOL    HW248971   1.943   2.814   5.737  0.3883 -0.8228  0.2860
16039SOL     OW48972   3.547   4.500   7.305 -0.0766 -0.8608 -0.0592
16039SOL    HW148973   3.595   4.543   7.376  1.9979  0.4026 -2.1015
16039SOL    HW248974   3.483   4.566   7.276  0.5135 -0.5628 -0.7072
16040SOL     OW48975   7.094   2.854   3.211 -0.7274  0.3288 -0.4039
16040SOL    HW148976   7.084   2.792   3.283 -0.1410  0.4026 -0.2554
16040SOL    HW248977   7.005   2.882   3.190 -0.8822  0.4580  0.4230
16041SOL     OW48978   6.920   0.757   5.753  0.0583  0.1207  0.2061
16041SOL    HW148979   6.853   0.690   5.740  0.2815 -0.0276 -0.2159
16041SOL    HW248980   7.001   0.714   5.726  0.4744 -0.0139  1.6215
16042SOL     OW48981   3.972   3.511   1.967 -0.2167  0.1711 -0.0669
16042SOL    HW148982   3.884   3.473   1.957  0.1792 -1.3108  1.6543
16042SOL    HW248983   3.956   3.603   1.987 -1.2376  0.7685 -3.0541
16043SOL     OW48984   0.401   5.093   4.867 -0.1059 -0.4319 -0.1381
16043SOL    HW148985   0.431   5.062   4.782  0.1001  1.2042 -0.6946
16043SOL    HW248986   0.394   5.013   4.920  0.3875 -1.4092 -1.4767
16044SOL     OW48987   1.570   4.040   7.888  0.0337  0.0662  0.3605
16044SOL    HW148988   1.492   3.992   7.862  0.3229 -0.8225  1.1076
16044SOL    HW248989   1.589   4.010   7.976  1.7707 -0.4494 -0.1514
16045SOL     OW48990   6.018   1.677   4.515 -0.2852 -0.1999  0.2380
16045SOL    HW148991   6.064   1.661   4.597 -1.7821 -0.4260  1.0643
16045SOL    HW248992   5.960   1.602   4.505  0.2976 -0.4794 -1.3586
16046SOL     OW48993   0.891   1.088   0.954  0.1754 -0.6784 -0.0095
16046SOL    HW148994   0.985   1.095   0.939  0.1769 -0.5929  0.0386
16046SOL    HW248995   0.870   1.161   1.012  0.0547 -0.6101 -0.1362
16047SOL     OW48996   7.264   1.417   4.340  0.0145 -0.1394 -0.2260
16047SOL    HW148997   7.280   1.323   4.334 -1.5368 -0.5737  1.4597
16047SOL    HW248998   7.190   1.433   4.281 -1.9253 -0.6696  1.9151
16048SOL     OW48999   5.279   5.344   7.161 -0.2974 -0.2424 -0.1865
16048SOL    HW149000   5.361   5.342   7.111 -0.8327 -1.4128 -1.0665
16048SOL    HW249001   5.302   5.311   7.247  0.3346  0.3345 -0.1235
16049SOL     OW49002   5.144   5.348   3.628  0.3859  0.4353  0.1469
16049SOL    HW149003   5.216   5.287   3.645 -0.5068 -1.0387 -0.9943
16049SOL    HW249004   5.179   5.408   3.562  0.8846  0.3453  0.3222
16050SOL     OW49005   0.746   7.336   7.650 -0.5779  0.0520  0.4178
16050SOL    HW149006   0.831   7.316   7.610 -0.3975  1.9496 -0.2653
16050SOL    HW249007   0.763   7.413   7.704 -1.8437  0.4157  0.3203
16051SOL     OW49008   0.730   6.538   7.709  0.0968  0.6417 -0.2569
16051SOL    HW149009   0.806   6.588   7.740  1.5877 -0.9480 -1.1017
16051SOL    HW249010   0.663   6.604   7.691  1.4003  2.1564  0.1762
16052SOL     OW49011   3.786   0.554   4.858  0.0598 -0.2291  0.0833
16052SOL    HW149012   3.758   0.469   4.892  1.5797 -0.4222  0.9610
16052SOL    HW249013   3.730   0.569   4.782 -0.8352 -1.6006  0.4330
16053SOL     OW49014   7.963   0.303   1.753 -0.4361 -0.1086 -1.0504
16053SOL    HW149015   8.058   0.299   1.763 -0.5735 -0.8848  0.0455
16053SOL    HW249016   7.937   0.213   1.734 -0.9621  0.1055 -1.3656
16054SOL     OW49017   5.934   6.087   0.462 -0.2003 -0.2110  0.3772
16054SOL    HW149018   6.029   6.097   0.458  0.0072 -1.7390  0.9079
16054SOL    HW249019   5.909   6.070   0.371 -0.1817  1.5673 -0.0070
16055SOL     OW49020   3.398   4.875   3.866 -0.1098 -0.6013  0.3432
16055SOL    HW149021   3.441   4.866   3.781 -0.1776 -1.3740  0.3819
16055SOL    HW249022   3.470   4.871   3.929 -0.1176 -0.6157  0.3510
16056SOL     OW49023   3.853   7.012   4.329  0.3321 -0.2524  0.1126
16056SOL    HW149024   3.873   6.930   4.374 -1.4005 -0.5439  0.4269
16056SOL    HW249025   3.923   7.022   4.266  2.0035 -0.6260  1.8214
16057SOL     OW49026   4.287   3.983   7.253  0.1418  0.7606 -0.3673
16057SOL    HW149027   4.194   3.996   7.234 -0.0628  1.5654  1.0337
16057SOL    HW249028   4.330   4.060   7.215 -0.1491  1.8628  1.3945
16058SOL     OW49029   4.638   7.668   2.129  0.2054 -0.1107  0.7292
16058SOL    HW149030   4.687   7.730   2.183  0.8351 -0.8327  0.9996
16058SOL    HW249031   4.687   7.664   2.047  0.5800 -0.8054  0.9856
16059SOL     OW49032   5.202   5.083   5.922 -0.3396 -0.3088 -0.2264
16059SOL    HW149033   5.294   5.072   5.898 -0.5296 -1.9543 -0.3377
16059SOL    HW249034   5.190   5.178   5.928  0.6024  0.1068 -3.1716
16060SOL     OW49035   4.237   7.249   1.412  0.2211 -0.1882 -0.0497
16060SOL    HW149036   4.273   7.201   1.486 -0.5927  0.2666  0.6659
16060SOL    HW249037   4.245   7.190   1.338 -0.4484 -1.2984  0.7356
16061SOL     OW49038   0.980   6.538   0.174 -0.0893 -0.3098 -0.6073
16061SOL    HW149039   1.027   6.616   0.147  0.0693 -0.4457 -0.7262
16061SOL    HW249040   0.930   6.565   0.252 -0.6923  0.1358 -1.1380
16062SOL     OW49041   4.128   4.302   3.577 -0.3756  0.0145  0.3870
16062SOL    HW149042   4.064   4.242   3.540 -0.1259  0.7170 -1.2816
16062SOL    HW249043   4.079   4.383   3.593 -0.6449 -0.4969  2.3438
16063SOL     OW49044   0.076   0.936   2.914 -0.2509 -0.0459  0.0364
16063SOL    HW149045   0.107   0.857   2.869  0.7573  1.1078 -1.4403
16063SOL    HW249046   0.065   0.910   3.005 -1.3817 -2.2517 -0.6657
16064SOL     OW49047   0.668   5.686   1.680  0.1146 -0.0199  0.2067
16064SOL    HW149048   0.621   5.663   1.600  1.9613  0.8417 -1.2152
16064SOL    HW249049   0.717   5.607   1.703  0.3332  0.0167 -0.1137
16065SOL     OW49050   6.124   0.567   4.588 -0.0900  0.0366  0.1560
16065SOL    HW149051   6.140   0.598   4.678  1.1934 -1.6463  0.5727
16065SOL    HW249052   6.031   0.547   4.586 -0.2660  0.7242  0.9077
16066SOL     OW49053   6.413   4.249   0.251 -0.3375  0.1262  0.1819
16066SOL    HW149054   6.384   4.213   0.167 -2.5490  0.4538  0.7439
16066SOL    HW249055   6.427   4.172   0.307 -0.9672 -0.0126  0.1493
16067SOL     OW49056   0.137   1.488   1.388  0.0139  0.2745  0.4643
16067SOL    HW149057   0.053   1.528   1.365 -0.2360 -0.8194 -0.6808
16067SOL    HW249058   0.119   1.440   1.469 -0.4617  0.1192  0.2729
16068SOL     OW49059   7.542   4.560   2.448 -0.8670  0.4050 -0.8209
16068SOL    HW149060   7.602   4.487   2.465  1.9884  2.8701  0.6727
16068SOL    HW249061   7.543   4.569   2.353 -1.7519 -1.7603 -1.1071
16069SOL     OW49062   6.840   5.720   5.453 -0.0425  0.0067  0.5566
16069SOL    HW149063   6.806   5.740   5.541  0.3492  0.0135  0.7076
16069SOL    HW249064   6.862   5.628   5.456 -0.0599 -0.0010  0.4522
16070SOL     OW49065   7.907   2.276   6.106 -0.2887  0.2429 -0.3603
16070SOL    HW149066   7.944   2.232   6.183  0.0731 -0.1704 -0.7690
16070SOL    HW249067   7.818   2.300   6.134 -0.3317 -0.3356  0.0279
16071SOL     OW49068   2.590   4.466   1.815  0.8484 -1.4251  0.2124
16071SOL    HW149069   2.599   4.400   1.746  0.0099 -1.9513  0.5949
16071SOL    HW249070   2.523   4.431   1.874 -1.8443  1.0079 -1.1106
16072SOL     OW49071   5.648   5.596   7.692 -0.3148 -0.2866  0.2527
16072SOL    HW149072   5.676   5.547   7.615 -2.9794  1.0289 -1.7232
16072SOL    HW249073   5.568   5.552   7.720 -0.2214  0.1880  1.2994
16073SOL     OW49074   3.018   2.786   3.997 -0.2343  0.5148 -0.1508
16073SOL    HW149075   3.008   2.812   4.089 -1.4282  0.1283 -0.1630
16073SOL    HW249076   3.112   2.766   3.988 -0.0421  0.8916  0.8872
16074SOL     OW49077   1.048   7.531   0.236  0.5911 -0.2160  0.0947
16074SOL    HW149078   1.093   7.525   0.152 -0.2506  0.0244 -0.3845
16074SOL    HW249079   0.982   7.461   0.233  0.4176 -0.0701  0.4628
16075SOL     OW49080   4.731   7.471   7.000  0.3799  0.4397  0.1896
16075SOL    HW149081   4.708   7.502   7.088 -0.0747  1.0381 -0.1362
16075SOL    HW249082   4.822   7.499   6.989  0.5296  0.1189  0.5752
16076SOL     OW49083   0.570   6.616   1.611  0.0716 -0.0222  0.0563
16076SOL    HW149084   0.619   6.631   1.692 -1.8672  0.5200  1.1779
16076SOL    HW249085   0.486   6.582   1.639 -0.4832 -0.2816 -1.7749
16077SOL     OW49086   4.423   2.648   7.614  0.1504 -0.5807 -0.0225
16077SOL    HW149087   4.405   2.742   7.615 -0.9954 -0.6630 -3.0243
16077SOL    HW249088   4.515   2.642   7.587  0.2951 -0.3382  0.4005
16078SOL     OW49089   2.818   1.631   5.025  0.9545  0.2612  0.3689
16078SOL    HW149090   2.811   1.696   4.956 -0.9638 -1.2991 -1.0265
16078SOL    HW249091   2.885   1.570   4.993  1.5511  0.6240  0.8958
16079SOL     OW49092   6.457   1.771   3.146  0.1903  0.1065  0.0063
16079SOL    HW149093   6.513   1.795   3.220  0.2858 -1.8633  0.6352
16079SOL    HW249094   6.461   1.846   3.087 -0.6484  2.1599  2.4106
16080SOL     OW49095   4.459   7.874   7.314 -0.2174 -0.0890  0.4802
16080SOL    HW149096   4.520   7.814   7.357  0.6094  0.4523  0.0941
16080SOL    HW249097   4.376   7.860   7.359 -0.4387 -2.5542 -0.5171
16081SOL     OW49098   3.108   4.155   1.771 -0.3965  0.0360  0.2740
16081SOL    HW149099   3.158   4.105   1.705  1.0743  1.6241  0.1128
16081SOL    HW249100   3.058   4.218   1.719  0.3682  0.9465  0.6142
16082SOL     OW49101   7.411   2.519   7.006  0.2662 -0.2876 -0.2718
16082SOL    HW149102   7.454   2.438   7.033  0.0126 -0.4672 -0.4059
16082SOL    HW249103   7.339   2.531   7.069 -0.3407 -0.7184 -0.8707
16083SOL     OW49104   3.585   5.739   5.630  0.7902 -0.2875 -0.3214
16083SOL    HW149105   3.647   5.805   5.662 -0.5630  1.4446 -1.1209
16083SOL    HW249106   3.637   5.658   5.625  3.8367  1.6003 -3.5297
16084SOL     OW49107   5.916   0.831   0.467 -0.0361 -0.0541 -0.1134
16084SOL    HW149108   5.944   0.922   0.480  1.4178 -0.3580 -0.8672
16084SOL    HW249109   5.980   0.795   0.406 -1.0983 -1.3498 -0.5130
16085SOL     OW49110   5.146   1.901   7.422  0.1565 -0.7455 -0.1043
16085SOL    HW149111   5.173   1.964   7.354  0.5083 -0.1689  0.5560
16085SOL    HW249112   5.065   1.863   7.388 -0.2762  0.3507 -0.3376
16086SOL     OW49113   2.289   1.302   7.154 -0.5640  0.1650  0.2398
16086SOL    HW149114   2.225   1.373   7.152  0.4968  1.1611  0.2541
16086SOL    HW249115   2.316   1.292   7.063 -1.0694 -0.5782  0.1640
16087SOL     OW49116   2.300   5.531   6.371  0.1573 -0.6483 -0.2690
16087SOL    HW149117   2.331   5.448   6.407  0.6368  0.6020  2.4884
16087SOL    HW249118   2.380   5.577   6.344  0.3390  0.3542  1.7405
16088SOL     OW49119   6.921   6.720   6.463  0.0743 -0.0788 -0.2748
16088SOL    HW149120   6.829   6.695   6.467  0.5024 -1.8005 -0.4767
16088SOL    HW249121   6.920   6.813   6.442 -1.6928  1.0759  3.9179
16089SOL     OW49122   5.157   2.076   3.550  0.1002  0.3233 -0.2267
16089SOL    HW149123   5.096   2.150   3.548 -1.6261 -1.0327 -0.1162
16089SOL    HW249124   5.108   2.005   3.593  1.8416 -0.7757  0.0625
16090SOL     OW49125   4.996   2.704   3.772 -0.0669  0.2188  0.5758
16090SOL    HW149126   4.968   2.690   3.863 -2.3254 -0.0054 -0.0798
16090SOL    HW249127   5.010   2.616   3.738  0.6096  0.2954  0.6541
16091SOL     OW49128   4.874   4.729   3.922  0.2544  0.2320  0.0378
16091SOL    HW149129   4.798   4.742   3.865 -1.2558 -0.5912  1.7285
16091SOL    HW249130   4.910   4.816   3.935  0.3442  0.4915 -1.7442
16092SOL     OW49131   2.647   3.360   3.153 -0.0293  0.6053 -0.3091
16092SOL    HW149132   2.577   3.338   3.215  0.6806 -2.5441 -0.4710
16092SOL    HW249133   2.725   3.369   3.208  0.0342  0.9798 -0.4559
16093SOL     OW49134   5.528   2.906   0.718 -0.2873  0.1642  0.0704
16093SOL    HW149135   5.565   2.957   0.791  0.2499  0.3668 -0.3344
16093SOL    HW249136   5.471   2.967   0.672 -1.5131 -0.2672  0.9480
16094SOL     OW49137   3.083   0.637   1.589  0.0700 -0.2506 -0.0676
16094SOL    HW149138   3.003   0.682   1.617  0.2540 -0.0963  0.2174
16094SOL    HW249139   3.143   0.708   1.566 -0.1193 -0.3793 -0.9681
16095SOL     OW49140   2.916   7.311   3.381 -0.7328 -0.0897  0.3805
16095SOL    HW149141   2.977   7.363   3.434  0.5674 -0.7695 -0.4197
16095SOL    HW249142   2.954   7.310   3.294  0.1058 -3.5554  0.6404
16096SOL     OW49143   0.122   0.548   3.125 -0.3019  0.1326 -0.1993
16096SOL    HW149144   0.160   0.545   3.213 -0.7337 -1.0530 -0.0325
16096SOL    HW249145   0.092   0.638   3.115  1.3452  0.7535  0.1578
16097SOL     OW49146   6.725   3.498   0.578  0.1599  0.0601 -0.1019
16097SOL    HW149147   6.801   3.483   0.634 -1.2479 -0.5829  1.7429
16097SOL    HW249148   6.668   3.556   0.629 -1.0615 -0.3239 -0.9732
16098SOL     OW49149   7.411   5.691   3.291  0.3270 -0.2917  0.0348
16098SOL    HW149150   7.418   5.604   3.250 -0.2323 -0.0091 -0.6784
16098SOL    HW249151   7.351   5.678   3.365  0.3032 -0.5350 -0.0265
16099SOL     OW49152   0.336   1.195   2.815  0.2403 -0.3420  0.0024
16099SOL    HW149153   0.246   1.182   2.787  0.2910 -1.0476  0.1324
16099SOL    HW249154   0.388   1.146   2.752  0.5421  0.1654 -0.1456
16100SOL     OW49155   6.159   5.276   2.713  0.3063 -0.0104  0.0491
16100SOL    HW149156   6.229   5.321   2.761 -1.1248  3.2607 -0.6702
16100SOL    HW249157   6.188   5.277   2.622  1.0617 -2.3634  0.1832
16101SOL     OW49158   4.474   2.616   3.134 -0.1504  0.1842  0.5606
16101SOL    HW149159   4.568   2.622   3.115 -0.1530  2.3209  1.0418
16101SOL    HW249160   4.450   2.703   3.165 -1.5038 -1.2845  4.1761
16102SOL     OW49161   1.872   5.983   4.971 -0.2469  0.4543  0.2976
16102SOL    HW149162   1.966   5.981   4.987 -0.2675  1.1594  0.5179
16102SOL    HW249163   1.854   6.071   4.939 -0.5084 -0.3204 -1.8545
16103SOL     OW49164   5.481   1.088   4.505 -0.2856 -0.9014 -0.0436
16103SOL    HW149165   5.427   1.016   4.470 -2.0362 -0.4355  1.5306
16103SOL    HW249166   5.569   1.069   4.472 -1.3309 -1.7477 -2.6975
16104SOL     OW49167   2.828   1.636   0.069  0.5117  0.2776 -0.1815
16104SOL    HW149168   2.785   1.594   0.143  0.8435  1.7547  0.8900
16104SOL    HW249169   2.903   1.682   0.106 -0.6793  3.0988 -0.9619
16105SOL     OW49170   5.778   5.361   0.338 -0.2331 -0.0877  0.3295
16105SOL    HW149171   5.850   5.418   0.364  0.6036 -1.0048  0.1183
16105SOL    HW249172   5.707   5.421   0.313  0.7859  0.8754 -0.3924
16106SOL     OW49173   4.851   0.497   0.966  0.3944  0.8205  0.1116
16106SOL    HW149174   4.800   0.505   0.885  0.0497  1.2803  0.3642
16106SOL    HW249175   4.867   0.403   0.975 -1.4310  0.5166  0.6385
16107SOL     OW49176   5.562   4.655   1.265 -0.3502  0.5171  0.6251
16107SOL    HW149177   5.569   4.571   1.310 -0.5956  0.6194  0.8584
16107SOL    HW249178   5.618   4.646   1.188 -1.7597 -0.5021 -0.3200
16108SOL     OW49179   2.116   6.775   0.191 -0.1224 -0.4726 -0.2533
16108SOL    HW149180   2.059   6.841   0.230 -1.1182  0.6211 -3.3140
16108SOL    HW249181   2.147   6.815   0.109  1.8626 -2.5849 -0.6323
16109SOL     OW49182   1.474   3.745   7.594  0.0026 -0.3509  0.7911
16109SOL    HW149183   1.561   3.766   7.630  0.2879 -1.2917  0.6751
16109SOL    HW249184   1.413   3.794   7.649  0.5953  0.1740  0.9935
16110SOL     OW49185   6.817   2.948   2.066 -0.2518 -0.1306 -0.2490
16110SOL    HW149186   6.808   3.027   2.013  0.3908  0.4276  0.4360
16110SOL    HW249187   6.729   2.913   2.074 -0.2422 -0.7541 -2.4450
16111SOL     OW49188   1.137   0.475   4.943  0.1358 -0.8079  0.5810
16111SOL    HW149189   1.042   0.485   4.939  0.3296  1.8456  0.7463
16111SOL    HW249190   1.168   0.497   4.855  0.7220  1.5766  1.2900
16112SOL     OW49191   3.354   1.727   1.032 -0.4486 -0.2098 -0.1202
16112SOL    HW149192   3.397   1.812   1.024 -1.2817  0.6286  2.8629
16112SOL    HW249193   3.289   1.726   0.962  0.4834  1.0167 -1.0312
16113SOL     OW49194   2.763   3.102   2.821 -0.3040  0.3670  0.3026
16113SOL    HW149195   2.680   3.144   2.800 -2.5341 -3.3781  0.6545
16113SOL    HW249196   2.830   3.160   2.785 -3.0844  2.9542 -1.1175
16114SOL     OW49197   6.094   7.314   1.792  0.7457  0.6454  0.0533
16114SOL    HW149198   6.070   7.396   1.834 -1.0676 -0.0268  0.4223
16114SOL    HW249199   6.072   7.327   1.700 -2.6793 -0.4158  0.5780
16115SOL     OW49200   7.871   0.023   1.948 -0.0295  0.7252 -0.5552
16115SOL    HW149201   7.868   0.085   2.020 -0.3599 -1.0682  1.0407
16115SOL    HW249202   7.958  -0.016   1.954 -0.9826 -1.3478  0.6153
16116SOL     OW49203   2.936   2.832   3.285  0.3381  0.4266 -0.4112
16116SOL    HW149204   2.909   2.875   3.204 -1.8646  1.6856  0.8865
16116SOL    HW249205   2.859   2.783   3.313  0.3364  1.5724  1.8536
16117SOL     OW49206   1.358   1.443   4.753  0.3110  0.3257  0.3394
16117SOL    HW149207   1.347   1.368   4.695 -3.7459 -0.2051  1.4937
16117SOL    HW249208   1.412   1.411   4.825  0.2895 -0.8496 -0.1456
16118SOL     OW49209   5.311   4.152   5.547  0.5126  0.3257  0.1910
16118SOL    HW149210   5.337   4.196   5.628  0.7794 -0.4785  0.5535
16118SOL    HW249211   5.216   4.141   5.554  0.4408  0.8547  0.0860
16119SOL     OW49212   2.097   6.464   6.919  0.3107 -0.7404 -0.1990
16119SOL    HW149213   2.103   6.557   6.897  0.8304 -1.0363 -1.4123
16119SOL    HW249214   2.027   6.459   6.984  0.0086  0.4533 -0.4105
16120SOL     OW49215   2.027   0.637   0.666 -0.1922 -0.0660 -0.9648
16120SOL    HW149216   2.072   0.717   0.638  0.5067 -0.2466 -0.3817
16120SOL    HW249217   1.940   0.644   0.627  0.6412 -0.1901 -2.9704
16121SOL     OW49218   0.461   7.511   3.557  0.1132 -0.0183  0.0127
16121SOL    HW149219   0.379   7.510   3.606  0.0576 -1.1935 -0.0750
16121SOL    HW249220   0.447   7.576   3.488 -1.3159 -1.2681 -0.9296
16122SOL     OW49221   0.375   4.055   1.674  0.2352 -0.2616  0.2853
16122SOL    HW149222   0.437   4.045   1.602  0.8489 -1.0611  0.9008
16122SOL    HW249223   0.303   3.996   1.653 -0.7551  1.2721 -0.8411
16123SOL     OW49224   0.335   0.301   7.872 -0.7378  0.4536  0.4397
16123SOL    HW149225   0.247   0.300   7.836 -0.6188  0.5623  0.1481
16123SOL    HW249226   0.331   0.239   7.945 -0.3743 -1.6284 -1.2070
16124SOL     OW49227   5.512   6.085   3.582  0.6970  0.2897  0.0671
16124SOL    HW149228   5.602   6.110   3.562 -0.1778  2.9396 -1.0100
16124SOL    HW249229   5.474   6.163   3.624 -1.2021 -0.5980  0.0988
16125SOL     OW49230   0.463   0.224   1.794  0.1813 -0.1118  0.1183
16125SOL    HW149231   0.482   0.169   1.718  2.8249  1.2244 -0.3306
16125SOL    HW249232   0.533   0.204   1.856  0.0289  1.2392  0.7619
16126SOL     OW49233   4.174   2.599   4.318 -0.0196 -0.5161 -0.3771
16126SOL    HW149234   4.198   2.676   4.370  0.3817 -0.9076  0.0262
16126SOL    HW249235   4.079   2.597   4.322 -0.2851  1.5906 -2.7679
16127SOL     OW49236   0.728   1.549   6.979 -0.4379 -0.0730  0.0647
16127SOL    HW149237   0.806   1.602   6.966 -0.8340  0.5479  0.1576
16127SOL    HW249238   0.656   1.606   6.952 -0.8877 -0.4844  0.3774
16128SOL     OW49239   0.566   1.817   5.209 -0.3507  0.4686  0.2134
16128SOL    HW149240   0.601   1.729   5.198 -1.2614  0.1483 -0.2477
16128SOL    HW249241   0.543   1.822   5.302 -0.2109  0.2482  0.2600
16129SOL     OW49242   4.551   0.631   3.692 -0.0340  0.1661  0.3347
16129SOL    HW149243   4.627   0.613   3.747 -1.0103 -3.5730  0.7381
16129SOL    HW249244   4.478   0.635   3.754 -0.5586  0.5568 -0.3051
16130SOL     OW49245   7.873   7.111   7.124  0.7913  0.3679  0.1643
16130SOL    HW149246   7.832   7.077   7.045  1.9838  2.6606 -1.5815
16130SOL    HW249247   7.957   7.066   7.129 -0.3053 -1.6692  1.6892
16131SOL     OW49248   4.995   1.775   7.202 -0.0082  0.1815  0.4894
16131SOL    HW149249   5.036   1.703   7.155 -0.9982  0.4792 -0.9083
16131SOL    HW249250   4.903   1.773   7.175 -0.5961  0.4968  2.3004
16132SOL     OW49251   2.941   2.994   6.411 -0.0525 -0.5286  0.2178
16132SOL    HW149252   3.033   2.999   6.436 -0.0083  1.5124 -0.2073
16132SOL    HW249253   2.941   2.943   6.330  0.8343  0.2839 -0.3124
16133SOL     OW49254   7.357   1.378   5.245  0.0352 -0.4969  0.0957
16133SOL    HW149255   7.335   1.397   5.336  0.6250 -0.3138  0.2052
16133SOL    HW249256   7.286   1.418   5.194 -1.3882 -2.3345  0.5487
16134SOL     OW49257   4.881   5.824   6.199  0.2867 -0.2555 -0.1412
16134SOL    HW149258   4.910   5.897   6.145 -0.2292  0.5616  0.6489
16134SOL    HW249259   4.785   5.828   6.196  0.2504 -0.2735  0.7122
16135SOL     OW49260   6.751   7.277   4.450  0.3228 -0.1123  0.7043
16135SOL    HW149261   6.798   7.335   4.389  0.2845 -0.1399  0.6486
16135SOL    HW249262   6.671   7.254   4.404  0.4042 -0.3230  0.6699
16136SOL     OW49263   4.748   0.241   6.870  0.3136  0.8020 -0.1466
16136SOL    HW149264   4.758   0.285   6.785  0.7736 -1.5268 -1.3746
16136SOL    HW249265   4.830   0.259   6.916  1.6534 -0.8875 -1.7170
16137SOL     OW49266   3.360   2.749   2.645  0.1572  0.0944  0.6290
16137SOL    HW149267   3.448   2.715   2.629 -0.0210  0.7088 -2.2410
16137SOL    HW249268   3.305   2.701   2.584 -1.1394  1.2251  0.8698
16138SOL     OW49269   5.038   1.151   4.120  0.1231 -0.2633  0.2754
16138SOL    HW149270   5.048   1.201   4.201 -3.1124  0.5352  0.3254
16138SOL    HW249271   5.030   1.060   4.148  0.2372 -0.1339  0.7337
16139SOL     OW49272   1.332   2.919   2.010 -0.2973 -0.3277 -0.0321
16139SOL    HW149273   1.309   2.832   2.042 -1.7452 -0.2342 -0.7482
16139SOL    HW249274   1.251   2.970   2.017 -1.0053 -0.4906 -4.4651
16140SOL     OW49275   1.173   0.084   3.758  0.2758 -0.0973 -0.6811
16140SOL    HW149276   1.157  -0.003   3.721 -0.2834 -0.0900 -0.4677
16140SOL    HW249277   1.154   0.144   3.685  1.9917 -0.1976 -1.2487
16141SOL     OW49278   4.529   4.888   7.326 -0.4367 -0.3447 -0.0266
16141SOL    HW149279   4.623   4.885   7.311 -0.5523  1.6606 -1.5805
16141SOL    HW249280   4.491   4.852   7.246 -1.0021 -1.3840  0.6966
16142SOL     OW49281   3.274   2.401   6.316 -1.0363 -0.0645  0.1405
16142SOL    HW149282   3.317   2.482   6.287 -0.3846 -1.1322 -2.1441
16142SOL    HW249283   3.284   2.400   6.411 -1.2601  2.6213  0.2644
16143SOL     OW49284   5.722   0.125   6.966  0.4742 -0.1996  0.2367
16143SOL    HW149285   5.734   0.052   7.027  1.6753  0.3207  0.6630
16143SOL    HW249286   5.780   0.193   6.999  0.5942  0.3608 -1.0729
16144SOL     OW49287   6.471   6.024   7.493  0.2961 -0.7750 -0.8374
16144SOL    HW149288   6.554   5.978   7.504  0.1444 -1.4154 -2.2072
16144SOL    HW249289   6.405   5.967   7.532  0.4172 -0.5185 -0.2433
16145SOL     OW49290   4.215   3.846   0.987  0.0505 -0.0047 -0.4618
16145SOL    HW149291   4.254   3.884   1.066  1.0272  0.5833 -1.2025
16145SOL    HW249292   4.225   3.751   1.000  0.4520  0.0928  0.0067
16146SOL     OW49293   2.171   1.856   4.483 -0.0759  0.0875 -0.2784
16146SOL    HW149294   2.205   1.876   4.570 -1.1637 -1.2586  0.5078
16146SOL    HW249295   2.246   1.821   4.435  0.3095 -0.1282  0.4637
16147SOL     OW49296   1.499   4.387   1.736  0.1318  0.4305 -0.0410
16147SOL    HW149297   1.432   4.319   1.737  0.5406  0.0036 -0.7832
16147SOL    HW249298   1.501   4.417   1.646 -0.1053  1.4985  0.3005
16148SOL     OW49299   5.425   7.736   0.570 -0.3981 -0.1786 -0.4480
16148SOL    HW149300   5.373   7.800   0.619  1.4386  1.6161 -0.7174
16148SOL    HW249301   5.385   7.734   0.483 -2.7301 -2.2509  0.5356
16149SOL     OW49302   5.887   2.534   0.087 -0.5020 -0.6769 -0.0699
16149SOL    HW149303   5.899   2.447   0.052  0.5601 -0.4342 -0.3443
16149SOL    HW249304   5.948   2.539   0.161 -0.3111 -0.0719 -0.2543
16150SOL     OW49305   4.545   1.380   2.341 -0.0197  0.1644 -0.2184
16150SOL    HW149306   4.628   1.335   2.354 -2.3095 -4.6815  0.0834
16150SOL    HW249307   4.541   1.445   2.412  2.5296 -1.0811  1.2011
16151SOL     OW49308   2.185   4.674   7.798  0.5186 -0.5535 -0.5316
16151SOL    HW149309   2.233   4.682   7.880 -0.2439  0.3787 -0.1521
16151SOL    HW249310   2.100   4.714   7.816  0.3590 -0.2763 -1.7910
16152SOL     OW49311   5.275   1.447   1.967 -0.4845 -0.1719  0.3711
16152SOL    HW149312   5.237   1.386   2.031 -0.7060 -0.4236  0.0032
16152SOL    HW249313   5.368   1.425   1.965 -0.7383 -1.2860 -0.5924
16153SOL     OW49314   4.600   5.223   6.116  0.3081  0.3069  0.6511
16153SOL    HW149315   4.648   5.268   6.047  0.5033  0.8085  1.1064
16153SOL    HW249316   4.511   5.257   6.110  0.6368  1.3814  1.5057
16154SOL     OW49317   0.951   4.212   6.052  0.1971 -0.3579 -0.0171
16154SOL    HW149318   0.972   4.272   5.981  2.0213  0.2876  0.9878
16154SOL    HW249319   1.013   4.140   6.042 -1.5417 -1.8143 -0.8234
16155SOL     OW49320   7.741   0.725   3.463  0.5072  0.3834  0.0267
16155SOL    HW149321   7.770   0.816   3.452  1.0684 -0.0213 -2.1630
16155SOL    HW249322   7.658   0.720   3.416  0.4713 -0.2354  0.1479
16156SOL     OW49323   4.968   7.585   1.477  0.0014  0.4337 -0.1908
16156SOL    HW149324   5.040   7.523   1.473  0.3636  0.7775  0.9150
16156SOL    HW249325   5.010   7.671   1.489 -0.6186  0.4792  1.9110
16157SOL     OW49326   3.797   5.283   4.208 -0.4435 -0.2105  0.2360
16157SOL    HW149327   3.864   5.217   4.194 -2.5882 -2.1300 -1.8255
16157SOL    HW249328   3.785   5.325   4.123 -0.9277  1.0935  0.9085
16158SOL     OW49329   6.921   3.020   4.657 -0.1731  0.2092 -0.5273
16158SOL    HW149330   6.890   2.940   4.698 -1.2332 -1.0465 -3.4632
16158SOL    HW249331   6.903   3.089   4.721 -1.4722 -1.5777  1.1383
16159SOL     OW49332   3.795   4.788   7.035 -0.4399 -0.3844  0.4238
16159SOL    HW149333   3.744   4.864   7.007 -0.7997  0.2363  2.5599
16159SOL    HW249334   3.876   4.824   7.071 -0.6927 -0.9361  1.6351
16160SOL     OW49335   2.191   5.462   7.855  0.1688  0.3821 -0.8058
16160SOL    HW149336   2.266   5.418   7.896  0.8734  0.5726 -1.8496
16160SOL    HW249337   2.144   5.392   7.811  1.1578  0.5722 -2.2645
16161SOL     OW49338   3.876   3.482   3.712 -0.3769 -0.1205 -0.6288
16161SOL    HW149339   3.954   3.429   3.693 -1.7528 -2.3077 -0.4801
16161SOL    HW249340   3.881   3.499   3.806 -0.5036 -1.0231 -0.4483
16162SOL     OW49341   0.254   4.640   0.847 -0.1842  0.1162  0.3718
16162SOL    HW149342   0.272   4.557   0.802 -0.0869 -0.7677  1.9887
16162SOL    HW249343   0.169   4.667   0.812 -1.0559 -1.5683  1.0659
16163SOL     OW49344   6.156   3.613   6.357 -0.1546 -0.4578 -0.0707
16163SOL    HW149345   6.122   3.524   6.367 -1.9679 -0.0708 -2.1807
16163SOL    HW249346   6.108   3.665   6.422 -0.5705 -0.6488 -0.2288
16164SOL     OW49347   7.939   5.760   5.455  0.0812 -0.2051 -0.6477
16164SOL    HW149348   7.988   5.795   5.529 -1.3547 -1.5894  1.0453
16164SOL    HW249349   7.900   5.837   5.413  1.8619  0.7057 -0.7073
16165SOL     OW49350   2.452   0.254   0.569 -0.8289 -0.1961  0.0408
16165SOL    HW149351   2.376   0.292   0.525 -0.4673  0.9670  0.3959
16165SOL    HW249352   2.491   0.196   0.503 -2.1923 -1.0701 -0.0386
16166SOL     OW49353   4.138   1.447   2.931  0.1050 -0.2994  0.3617
16166SOL    HW149354   4.109   1.358   2.912  1.1778 -0.4549 -0.6280
16166SOL    HW249355   4.213   1.461   2.874 -0.3687  1.4410  0.1105
16167SOL     OW49356   1.847   0.394   3.889 -0.1882 -0.1681 -0.0780
16167SOL    HW149357   1.863   0.456   3.818  0.3220 -0.4416 -0.1988
16167SOL    HW249358   1.795   0.324   3.848  0.1286 -0.3389 -0.1849
16168SOL     OW49359   5.780   5.871   2.110  0.1520 -0.1104 -0.2946
16168SOL    HW149360   5.700   5.847   2.157  0.7563 -0.5227  0.5463
16168SOL    HW249361   5.762   5.958   2.074  0.3164  1.0982  2.2950
16169SOL     OW49362   3.833   3.525   2.402  0.5376  0.3474 -0.3328
16169SOL    HW149363   3.817   3.460   2.334  1.2244  0.1839 -0.3423
16169SOL    HW249364   3.917   3.565   2.378 -0.1350  1.6451 -0.6558
16170SOL     OW49365   0.437   1.013   1.115 -0.1252 -0.0190 -0.2138
16170SOL    HW149366   0.385   1.090   1.141  0.0222 -0.0182  0.0853
16170SOL    HW249367   0.373   0.952   1.078 -0.1920  0.3968 -0.7977
16171SOL     OW49368   5.148   0.965   5.726 -0.0172 -0.0977 -0.2277
16171SOL    HW149369   5.158   1.060   5.715 -2.1154  0.1787 -0.0239
16171SOL    HW249370   5.148   0.931   5.636 -1.9820  0.4333 -0.4607
16172SOL     OW49371   7.269   1.311   6.798  0.7521  0.4068 -0.0718
16172SOL    HW149372   7.182   1.339   6.768  1.1523  1.3048 -0.4410
16172SOL    HW249373   7.314   1.393   6.819  0.7798 -0.1342  2.2404
16173SOL     OW49374   3.459   1.131   1.962 -0.1101  0.3610  0.1682
16173SOL    HW149375   3.465   1.069   1.890 -0.9779  1.0454 -0.5164
16173SOL    HW249376   3.412   1.084   2.031  1.5245 -0.6125  0.6730
16174SOL     OW49377   2.733   7.082   3.463 -0.2379  0.4458 -1.6197
16174SOL    HW149378   2.802   7.148   3.467 -0.0613  0.3674 -2.8349
16174SOL    HW249379   2.766   7.018   3.399 -1.6685  0.6981 -2.6415
16175SOL     OW49380   2.922   5.619   0.509  0.0743  0.0852 -0.0545
16175SOL    HW149381   2.960   5.697   0.469  0.1612  1.2539  2.1552
16175SOL    HW249382   2.836   5.610   0.469  0.7842  0.1505 -1.6994
16176SOL     OW49383   7.398   5.236   5.287 -0.2786  0.2945  0.1713
16176SOL    HW149384   7.447   5.308   5.326  0.9439 -0.7003  0.5443
16176SOL    HW249385   7.462   5.191   5.231 -1.4966  0.5680 -1.5413
16177SOL     OW49386   5.938   1.674   6.308 -0.2585  0.5364  0.2091
16177SOL    HW149387   5.888   1.732   6.366 -1.9920 -0.3120 -0.3753
16177SOL    HW249388   6.013   1.727   6.280  0.0372  1.3515  2.2948
16178SOL     OW49389   4.733   7.938   0.193 -0.2355 -0.0732  0.8715
16178SOL    HW149390   4.750   7.845   0.212  0.9967  0.4828  2.7318
16178SOL    HW249391   4.663   7.962   0.253 -0.3793  0.2649  0.5688
16179SOL     OW49392   3.370   4.226   2.638  0.8360 -0.7162 -0.3554
16179SOL    HW149393   3.407   4.182   2.562 -0.3864 -0.8834 -0.8778
16179SOL    HW249394   3.350   4.314   2.608 -0.2466 -0.9793 -0.4257
16180SOL     OW49395   0.317   1.297   0.529  0.2754  0.1155 -0.3872
16180SOL    HW149396   0.309   1.221   0.586 -1.1055  1.3544  1.1509
16180SOL    HW249397   0.258   1.279   0.456  0.4481 -0.5571 -0.3660
16181SOL     OW49398   4.476   7.602   5.634 -0.1490  0.0097  0.0676
16181SOL    HW149399   4.485   7.517   5.676  0.2172  0.0049 -0.0169
16181SOL    HW249400   4.476   7.665   5.707  2.5565  0.1768  0.0347
16182SOL     OW49401   5.797   2.118   2.078 -0.6623  0.1926 -0.0970
16182SOL    HW149402   5.766   2.085   2.163 -0.8944 -0.1466 -0.3111
16182SOL    HW249403   5.858   2.188   2.101 -2.4663  1.7019  0.3407
16183SOL     OW49404   6.731   7.838   0.659  0.0683  0.0736  0.3367
16183SOL    HW149405   6.798   7.904   0.676  0.9719 -1.0521  1.3942
16183SOL    HW249406   6.778   7.755   0.665 -1.5531 -0.8105  2.0143
16184SOL     OW49407   7.035   5.736   3.834 -0.1429 -0.0090 -0.2560
16184SOL    HW149408   7.121   5.705   3.807 -0.1821  0.7193 -1.2477
16184SOL    HW249409   7.029   5.713   3.927  1.1747  0.0661 -0.1432
16185SOL     OW49410   5.846   1.527   3.476 -0.0457  0.0034  0.2342
16185SOL    HW149411   5.904   1.465   3.519 -1.9368 -1.7864  0.4045
16185SOL    HW249412   5.867   1.519   3.383 -0.1030 -0.7686  0.2742
16186SOL     OW49413   4.971   6.545   7.663  0.4859  0.3657 -0.4793
16186SOL    HW149414   5.066   6.536   7.662  0.6946  1.8194  1.1936
16186SOL    HW249415   4.947   6.558   7.571  1.8785 -0.1706 -0.9377
16187SOL     OW49416   2.876   7.786   1.669  0.2576 -0.6031  0.0793
16187SOL    HW149417   2.947   7.833   1.626  0.2022 -0.2223  0.3911
16187SOL    HW249418   2.912   7.700   1.689  0.7182 -0.3291  0.4593
16188SOL     OW49419   2.801   5.397   6.272 -0.0938  0.0915 -0.1564
16188SOL    HW149420   2.708   5.414   6.282  0.0568  0.4390  0.7569
16188SOL    HW249421   2.806   5.323   6.212 -0.9272  0.4676 -0.6931
16189SOL     OW49422   5.173   7.211   3.527  0.1101 -0.6371  0.2739
16189SOL    HW149423   5.239   7.241   3.464 -0.8555  1.2908  0.1173
16189SOL    HW249424   5.123   7.144   3.480  0.4492 -0.4075 -0.4227
16190SOL     OW49425   6.270   6.761   0.191 -0.1932 -0.4147  0.2556
16190SOL    HW149426   6.244   6.732   0.103  0.1514 -0.1790  0.0707
16190SOL    HW249427   6.248   6.854   0.193  1.0946 -0.0727 -0.1068
16191SOL     OW49428   7.604   2.027   2.023 -0.1609 -0.6144 -0.1955
16191SOL    HW149429   7.641   1.992   2.105  0.1430 -0.7303 -0.3797
16191SOL    HW249430   7.676   2.020   1.960 -0.3213 -0.3076 -0.4126
16192SOL     OW49431   4.880   2.994   4.468  0.3314  0.1117 -0.0338
16192SOL    HW149432   4.965   3.038   4.472  0.7504 -0.6375 -0.5737
16192SOL    HW249433   4.884   2.940   4.390 -0.6866  0.1404 -0.1178
16193SOL     OW49434   6.512   0.162   6.867 -0.5765 -0.4365  0.2779
16193SOL    HW149435   6.585   0.172   6.927 -0.7472  1.0934  0.2814
16193SOL    HW249436   6.551   0.128   6.786 -0.0470 -0.6808  0.6339
16194SOL     OW49437   5.960   0.030   0.554  0.5283  0.2059  0.1963
16194SOL    HW149438   5.966   0.002   0.645 -1.0249 -1.4146 -0.1388
16194SOL    HW249439   5.889   0.094   0.553  0.6630  0.3573  0.1354
16195SOL     OW49440   6.185   1.751   3.112 -0.7778 -0.1261 -0.0291
16195SOL    HW149441   6.154   1.831   3.069 -1.9849 -0.5019  0.0879
16195SOL    HW249442   6.280   1.760   3.115 -0.8572  1.0483 -0.5145
16196SOL     OW49443   2.408   7.531   1.407 -0.0143  0.2635  0.5875
16196SOL    HW149444   2.471   7.596   1.377 -1.9234  1.3829 -1.3270
16196SOL    HW249445   2.355   7.577   1.472  1.0911 -0.6820  2.2226
16197SOL     OW49446   4.599   7.349   7.887  0.1112 -0.2552 -0.1082
16197SOL    HW149447   4.602   7.260   7.852  0.4474 -0.4027  0.2756
16197SOL    HW249448   4.614   7.337   7.981  0.2020  0.2135 -0.0633
16198SOL     OW49449   3.629   2.879   3.697  0.0834  0.1461  0.2664
16198SOL    HW149450   3.639   2.907   3.606  4.5619 -0.5696  0.3266
16198SOL    HW249451   3.612   2.960   3.744  1.0180  1.0448 -0.8713
16199SOL     OW49452   1.834   1.539   7.969 -0.5986 -0.1545  0.2276
16199SOL    HW149453   1.809   1.497   8.051 -0.5008  0.5744  0.6432
16199SOL    HW249454   1.756   1.590   7.943 -0.3385  0.2938  0.3180
16200SOL     OW49455   0.894   5.131   1.742  0.0639  0.3063 -0.1082
16200SOL    HW149456   0.927   5.045   1.766  0.5027  0.0841 -1.4176
16200SOL    HW249457   0.944   5.155   1.664 -0.8238  1.2627 -0.4109
16201SOL     OW49458   2.484   7.866   7.058  0.6069 -0.2653 -0.8147
16201SOL    HW149459   2.513   7.854   7.148 -1.6938 -1.0007 -0.1173
16201SOL    HW249460   2.554   7.827   7.005  1.7258 -0.3429  0.6480
16202SOL     OW49461   6.396   4.037   4.978 -0.4206 -0.1453  0.2664
16202SOL    HW149462   6.387   3.942   4.968 -0.8469  0.1115 -2.9403
16202SOL    HW249463   6.329   4.074   4.920 -0.6981  2.1717  1.8918
16203SOL     OW49464   7.806   5.295   2.019  0.1106 -0.8993 -0.2243
16203SOL    HW149465   7.722   5.278   2.062  0.8199 -0.1263  1.5856
16203SOL    HW249466   7.867   5.309   2.092  1.8454 -1.5690 -1.4840
16204SOL     OW49467   1.094   5.585   4.354  0.4410 -0.2858 -0.1348
16204SOL    HW149468   1.156   5.581   4.427 -0.7723 -0.6360  0.9138
16204SOL    HW249469   1.079   5.679   4.341  0.3302 -0.2294  0.3673
16205SOL     OW49470   5.620   2.877   6.249 -0.5917  0.0848  0.5598
16205SOL    HW149471   5.643   2.851   6.338  0.8420  2.2794  0.9137
16205SOL    HW249472   5.703   2.882   6.202 -0.8904  2.2749  0.1107
16206SOL     OW49473   7.856   5.985   4.515  0.3469  0.2164  0.9566
16206SOL    HW149474   7.799   5.959   4.443  0.5062  1.3263  0.4013
16206SOL    HW249475   7.808   6.055   4.560  0.6132  0.1136  1.4142
16207SOL     OW49476   1.530   6.886   1.021 -0.0055  0.2797  0.0030
16207SOL    HW149477   1.604   6.844   1.066 -0.0058 -1.1647 -1.2537
16207SOL    HW249478   1.454   6.863   1.074  0.2305  0.2917  0.3551
16208SOL     OW49479   2.763   1.455   1.363 -0.6088  0.0083  0.0111
16208SOL    HW149480   2.795   1.367   1.341 -1.1374  0.1131 -1.2313
16208SOL    HW249481   2.670   1.453   1.341 -0.3987  1.1936 -1.0243
16209SOL     OW49482   4.025   0.473   3.926 -1.1175 -0.4458  0.2934
16209SOL    HW149483   3.990   0.477   4.015 -0.1864  0.8111  0.6272
16209SOL    HW249484   4.087   0.401   3.928  0.0956  0.5734  1.1453
16210SOL     OW49485   5.326   7.648   3.574 -0.8235 -0.3553 -0.7571
16210SOL    HW149486   5.325   7.627   3.667  0.7843 -0.7454 -0.7915
16210SOL    HW249487   5.332   7.743   3.571  0.9889 -0.4138 -0.3793
16211SOL     OW49488   2.261   1.078   0.283 -0.1290 -0.0705  0.2647
16211SOL    HW149489   2.284   1.058   0.374 -0.7587  0.3801  0.5297
16211SOL    HW249490   2.326   1.142   0.255  1.5951 -2.0240 -0.4234
16212SOL     OW49491   5.085   1.255   7.530 -0.2540  0.2359  0.3673
16212SOL    HW149492   5.000   1.212   7.524 -0.0145 -0.0673 -1.3809
16212SOL    HW249493   5.068   1.344   7.496  0.0679  0.2515  0.2498
16213SOL     OW49494   0.332   1.180   4.848  0.4176 -0.1678  0.2937
16213SOL    HW149495   0.402   1.182   4.913 -0.3475 -0.6017  1.1599
16213SOL    HW249496   0.270   1.114   4.881 -0.5087  0.3618 -0.3290
16214SOL     OW49497   6.361   1.066   0.442 -0.1937  0.0950  0.1714
16214SOL    HW149498   6.277   1.089   0.401  0.1341  2.1744  0.5464
16214SOL    HW249499   6.349   1.087   0.535  0.5715 -0.1251  0.3269
16215SOL     OW49500   5.716   1.515   7.442  0.1845  0.7952  0.5909
16215SOL    HW149501   5.702   1.436   7.390 -1.2290  1.1757  0.3426
16215SOL    HW249502   5.795   1.497   7.493 -0.0859 -0.7575  0.5148
16216SOL     OW49503   2.534   2.518   4.797  0.1127 -0.7201  0.2092
16216SOL    HW149504   2.523   2.512   4.702  1.2140 -2.1008  0.1375
16216SOL    HW249505   2.468   2.581   4.825 -0.2537 -0.3183 -1.4655
16217SOL     OW49506   6.360   2.398   2.276  0.4504 -0.2019  0.1625
16217SOL    HW149507   6.421   2.467   2.301  1.0637 -0.0537 -1.5894
16217SOL    HW249508   6.416   2.331   2.236 -0.0288 -2.1201  2.4962
16218SOL     OW49509   0.704   4.121   6.986  0.1067 -0.7511  0.6528
16218SOL    HW149510   0.685   4.074   6.905  2.2105  0.6254 -0.7236
16218SOL    HW249511   0.768   4.066   7.031  0.3397 -0.6186  0.4817
16219SOL     OW49512   2.182   3.923   2.468  0.1695 -0.0469  0.0698
16219SOL    HW149513   2.179   4.005   2.517  2.0669 -0.1370  0.4003
16219SOL    HW249514   2.164   3.855   2.533 -1.4421  0.0616 -0.2117
16220SOL     OW49515   2.825   3.430   2.186 -0.0520 -0.6830  0.0801
16220SOL    HW149516   2.826   3.334   2.193  0.3500 -0.7604 -0.9109
16220SOL    HW249517   2.743   3.450   2.142 -0.5390 -0.4993  1.0419
16221SOL     OW49518   4.226   5.017   3.553  0.0449 -0.0979 -0.6814
16221SOL    HW149519   4.206   5.094   3.498  0.5367  0.7078  0.2300
16221SOL    HW249520   4.263   5.055   3.633  1.5958 -1.3495 -0.7626
16222SOL     OW49521   0.638   7.733   4.421  0.9105 -0.4561  0.0972
16222SOL    HW149522   0.692   7.803   4.457 -0.1734  0.4799 -0.0439
16222SOL    HW249523   0.576   7.712   4.491  0.6820 -0.6778 -0.1692
16223SOL     OW49524   0.561   3.189   1.905 -0.2507  0.0066 -0.3169
16223SOL    HW149525   0.557   3.248   1.829 -3.1279  0.8726  0.3797
16223SOL    HW249526   0.559   3.101   1.867 -1.1991  0.4171 -1.2735
16224SOL     OW49527   0.673   0.613   7.139  0.2661  0.3718  0.1665
16224SOL    HW149528   0.694   0.706   7.141  1.1712  0.1649  0.8582
16224SOL    HW249529   0.720   0.576   7.213  0.7364 -0.8055 -0.6819
16225SOL     OW49530   1.731   7.863   2.131 -0.1782  0.0949 -0.6252
16225SOL    HW149531   1.797   7.907   2.077 -0.2719  1.4950  0.3577
16225SOL    HW249532   1.693   7.933   2.185 -1.0286 -1.0335  0.2886
16226SOL     OW49533   4.412   0.430   5.838 -0.0647  0.6777 -0.1669
16226SOL    HW149534   4.435   0.522   5.824 -0.5640  1.5677  3.5608
16226SOL    HW249535   4.317   0.431   5.850 -0.0243 -0.2498  0.3153
16227SOL     OW49536   3.646   0.704   0.733 -0.8874 -0.2833 -0.0627
16227SOL    HW149537   3.671   0.614   0.711  0.5797 -0.3790  1.7818
16227SOL    HW249538   3.623   0.743   0.648  0.3083 -1.8203 -1.1733
16228SOL     OW49539   4.949   6.302   0.867  0.0382 -0.2192  0.2714
16228SOL    HW149540   4.981   6.219   0.904  1.1413  0.5141  1.0249
16228SOL    HW249541   4.912   6.277   0.782  0.7660 -1.4300  0.2732
16229SOL     OW49542   7.820   5.297   7.917 -0.3070  0.1248  0.0540
16229SOL    HW149543   7.804   5.390   7.906  1.0052  0.2956 -0.6760
16229SOL    HW249544   7.747   5.254   7.874  1.3504  0.8316 -3.9163
16230SOL     OW49545   6.992   2.541   4.703  0.5352 -0.2084 -0.0530
16230SOL    HW149546   6.903   2.520   4.673  1.1301 -0.7112 -1.5698
16230SOL    HW249547   7.049   2.494   4.642  1.8473 -0.7488  1.5292
16231SOL     OW49548   0.846   1.429   0.247 -0.4244  0.1694 -1.0752
16231SOL    HW149549   0.893   1.354   0.209  1.2922  0.3082  0.6080
16231SOL    HW249550   0.808   1.395   0.327 -0.5575  0.8309 -0.8518
16232SOL     OW49551   2.519   1.386   0.561  0.4664 -0.3767 -0.4416
16232SOL    HW149552   2.598   1.341   0.591  0.4170  0.6310  1.3295
16232SOL    HW249553   2.503   1.452   0.627 -1.1279  0.3180 -1.4709
16233SOL     OW49554   1.460   2.406   2.843  0.0690 -0.0688  0.1969
16233SOL    HW149555   1.505   2.464   2.782  0.3912 -0.1123  0.3917
16233SOL    HW249556   1.411   2.346   2.787 -0.4650  0.5442 -0.0004
16234SOL     OW49557   6.370   7.529   5.784 -0.0535 -0.0292 -0.3429
16234SOL    HW149558   6.354   7.623   5.792  3.5072  0.7234 -0.7682
16234SOL    HW249559   6.414   7.505   5.865  0.3224 -1.0321 -0.8369
16235SOL     OW49560   0.587   5.429   6.466  0.5752  0.2737  0.1995
16235SOL    HW149561   0.509   5.472   6.431  0.9395  0.5106 -0.3215
16235SOL    HW249562   0.652   5.499   6.472  1.0393 -0.1219 -0.2489
16236SOL     OW49563   4.034   4.491   5.281 -0.1480 -0.2074  0.3311
16236SOL    HW149564   3.986   4.408   5.274  0.9051 -0.8308  0.4417
16236SOL    HW249565   4.113   4.477   5.229 -0.9306  1.4717 -1.4587
16237SOL     OW49566   1.306   7.151   2.622 -0.1119  0.5666  0.0271
16237SOL    HW149567   1.378   7.186   2.569 -0.1740  0.3621 -0.1956
16237SOL    HW249568   1.349   7.116   2.700  0.1118 -0.1581 -0.4104
16238SOL     OW49569   2.669   1.104   6.541 -0.0492 -0.0702 -0.4472
16238SOL    HW149570   2.660   1.172   6.608  0.5103 -0.2578 -0.1807
16238SOL    HW249571   2.690   1.025   6.589  2.0900  0.1331 -0.9394
16239SOL     OW49572   5.770   0.895   2.620  0.2425 -0.6075 -0.3804
16239SOL    HW149573   5.716   0.967   2.586 -1.0540 -1.0747  0.5990
16239SOL    HW249574   5.857   0.912   2.585 -0.4675  0.3453 -1.7830
16240SOL     OW49575   6.896   6.298   6.079  0.2448  0.3853 -0.7523
16240SOL    HW149576   6.880   6.386   6.113  2.8924  0.4667  0.5603
16240SOL    HW249577   6.868   6.240   6.149 -0.4361  0.2122 -1.1590
16241SOL     OW49578   6.381   2.157   0.698 -0.1055  0.2221 -0.0664
16241SOL    HW149579   6.324   2.143   0.622 -2.3463  0.1090  1.5520
16241SOL    HW249580   6.359   2.245   0.728  1.2814  0.5415  0.0630
16242SOL     OW49581   7.109   1.043   7.808 -0.0282  0.1780 -0.0137
16242SOL    HW149582   7.067   1.005   7.885 -1.2215 -0.6938 -1.0481
16242SOL    HW249583   7.180   1.097   7.843 -0.0461 -0.8094  1.6453
16243SOL     OW49584   5.925   0.168   3.182 -0.4015  0.2556 -0.4744
16243SOL    HW149585   5.997   0.105   3.190  0.2297  1.0266  0.1898
16243SOL    HW249586   5.961   0.239   3.129 -1.1466  0.0184 -1.3189
16244SOL     OW49587   3.464   0.760   0.944  0.0489 -0.2441 -0.2222
16244SOL    HW149588   3.531   0.730   0.882 -1.2927 -0.7275 -1.4912
16244SOL    HW249589   3.467   0.696   1.016  0.6695 -0.4866 -0.4607
16245SOL     OW49590   0.805   3.992   5.059  0.3452 -0.3737  0.0288
16245SOL    HW149591   0.839   4.011   5.147  2.3415  2.0997 -1.1253
16245SOL    HW249592   0.710   3.993   5.069  0.4814  1.3417  1.9547
16246SOL     OW49593   7.868   6.687   0.794 -0.4490 -0.2692 -0.3571
16246SOL    HW149594   7.851   6.658   0.704  2.0108 -0.1132 -0.9523
16246SOL    HW249595   7.835   6.617   0.849  1.1402 -2.0572 -1.5738
16247SOL     OW49596   7.927   4.071   0.128 -0.4751 -0.2143  0.0060
16247SOL    HW149597   8.019   4.045   0.123  0.1852  2.0992 -1.2166
16247SOL    HW249598   7.880   4.001   0.082  0.5746 -1.6631  1.0372
16248SOL     OW49599   5.052   1.502   2.711  0.2137  0.1255  0.7989
16248SOL    HW149600   5.128   1.516   2.655  0.1989  0.4007  0.8502
16248SOL    HW249601   4.992   1.449   2.658 -0.7490  2.2021 -0.2619
16249SOL     OW49602   6.258   2.878   2.927 -0.2442 -0.0646 -0.0916
16249SOL    HW149603   6.240   2.800   2.875  1.0291 -0.7200  0.4123
16249SOL    HW249604   6.272   2.845   3.016 -0.1737  0.7953  0.2284
16250SOL     OW49605   1.753   1.159   2.708  0.0867  0.0310 -0.1111
16250SOL    HW149606   1.730   1.248   2.683  2.3821  0.2676 -1.7166
16250SOL    HW249607   1.691   1.104   2.660 -0.2959  0.7192 -0.4220
16251SOL     OW49608   5.633   4.131   7.870  0.3775  0.1749  0.0999
16251SOL    HW149609   5.671   4.082   7.943  0.0513  1.5072  1.2105
16251SOL    HW249610   5.548   4.089   7.854  0.2581  0.1455  0.7947
16252SOL     OW49611   3.504   5.663   2.587  0.3310  0.2343 -0.1045
16252SOL    HW149612   3.409   5.671   2.595  0.4888  0.9074  1.3583
16252SOL    HW249613   3.522   5.571   2.603  0.0172  0.3297  0.8387
16253SOL     OW49614   5.210   6.209   2.318  0.6588  0.1616 -0.2798
16253SOL    HW149615   5.291   6.260   2.313  0.0855  1.0093 -1.6788
16253SOL    HW249616   5.154   6.246   2.249 -0.4413 -1.2331 -0.1918
16254SOL     OW49617   4.390   1.110   1.194 -0.5251  0.2224  0.5196
16254SOL    HW149618   4.405   1.113   1.099  0.1010  1.6029  0.6369
16254SOL    HW249619   4.475   1.131   1.232 -1.5412  3.5105  1.3033
16255SOL     OW49620   7.088   1.000   0.699 -0.1701  0.4742 -0.4418
16255SOL    HW149621   7.031   1.016   0.774 -0.8290 -1.1646 -0.5574
16255SOL    HW249622   7.033   1.019   0.623 -0.1336  0.2380 -0.5290
16256SOL     OW49623   3.122   6.236   6.994  0.0899 -0.0026 -0.3003
16256SOL    HW149624   3.198   6.221   6.936 -0.6781 -1.6133 -0.9617
16256SOL    HW249625   3.056   6.276   6.937  0.3353  1.1931  0.2227
16257SOL     OW49626   3.024   4.897   0.324 -0.2723  0.2817  0.0366
16257SOL    HW149627   2.937   4.872   0.293 -1.8602  4.5231  0.4196
16257SOL    HW249628   3.078   4.901   0.246 -0.1583 -2.8372 -0.1576
16258SOL     OW49629   7.843   5.243   0.718  0.2879 -0.0832 -0.1660
16258SOL    HW149630   7.774   5.304   0.692  0.0348 -0.4593 -0.3837
16258SOL    HW249631   7.863   5.193   0.639  2.5534  1.6724 -0.8099
16259SOL     OW49632   2.321   0.588   7.870  0.3247 -0.3880 -0.6734
16259SOL    HW149633   2.259   0.568   7.801 -2.1135  1.1303  0.9406
16259SOL    HW249634   2.290   0.538   7.946 -0.2400  1.9495  0.7287
16260SOL     OW49635   5.310   7.305   2.658  0.0522  0.0225  0.0589
16260SOL    HW149636   5.283   7.390   2.694  0.4700  1.3023 -2.3746
16260SOL    HW249637   5.229   7.261   2.636 -0.1700 -0.2377  1.3396
16261SOL     OW49638   5.965   4.843   7.098 -0.2873  0.3567  0.8020
16261SOL    HW149639   6.052   4.840   7.060 -0.0442  0.0720  1.3609
16261SOL    HW249640   5.934   4.932   7.081  0.0430  0.4092  0.4609
16262SOL     OW49641   2.021   5.376   7.310  0.0494 -0.5848  0.8816
16262SOL    HW149642   2.066   5.393   7.227  0.7383  1.8401  1.6452
16262SOL    HW249643   1.973   5.294   7.296 -1.3778  0.6540 -2.5379
16263SOL     OW49644   1.407   1.114   4.501 -0.6163 -0.1303 -0.0456
16263SOL    HW149645   1.374   1.151   4.583 -0.2912 -0.1861  0.1095
16263SOL    HW249646   1.362   1.030   4.493  0.3611 -0.7554  0.7688
16264SOL     OW49647   1.975   4.768   7.109 -0.4156 -0.3383 -0.8814
16264SOL    HW149648   1.930   4.746   7.027 -1.5990  3.0003 -1.2516
16264SOL    HW249649   2.001   4.859   7.099  0.9719 -0.3354  1.8279
16265SOL     OW49650   4.339   1.332   3.943 -0.0362 -0.1789  0.5959
16265SOL    HW149651   4.406   1.382   3.898 -1.1380 -0.2832 -1.2487
16265SOL    HW249652   4.273   1.314   3.876 -0.0967 -3.4044  1.3553
16266SOL     OW49653   1.395   3.843   1.375 -0.2816  0.3013 -0.5766
16266SOL    HW149654   1.369   3.935   1.382 -0.5561  0.2816 -1.2656
16266SOL    HW249655   1.440   3.825   1.457 -1.0815  0.7824 -0.0210
16267SOL     OW49656   2.525   1.392   0.979  0.1055  0.6215  0.0186
16267SOL    HW149657   2.443   1.354   0.947 -0.9203  2.1105  0.7495
16267SOL    HW249658   2.552   1.452   0.910  2.2347 -1.9336 -1.5740
16268SOL     OW49659   0.806   2.282   0.499  0.0836  0.2252  0.2892
16268SOL    HW149660   0.719   2.249   0.477 -0.2833  1.3342  0.0391
16268SOL    HW249661   0.866   2.220   0.457 -0.5663 -0.7935  0.8326
16269SOL     OW49662   3.515   6.173   5.756  0.3838 -0.6517 -0.4499
16269SOL    HW149663   3.444   6.119   5.721 -2.1031  3.3514 -2.2809
16269SOL    HW249664   3.582   6.170   5.687 -0.1214 -0.7096 -0.9498
16270SOL     OW49665   4.158   5.327   0.439  0.4397 -0.2861 -0.2038
16270SOL    HW149666   4.199   5.294   0.359 -0.3037  0.4752 -0.9199
16270SOL    HW249667   4.118   5.250   0.479  3.4290 -1.3115  1.1421
16271SOL     OW49668   7.231   7.792   4.596 -0.1871 -0.3973 -0.4433
16271SOL    HW149669   7.290   7.753   4.532 -0.0062 -1.5367  0.3937
16271SOL    HW249670   7.284   7.803   4.674 -1.0581 -1.4748  0.3310
16272SOL     OW49671   2.157   8.000   6.834 -0.0724  0.8672  0.2825
16272SOL    HW149672   2.137   7.946   6.910 -2.0285  1.5180  0.2998
16272SOL    HW249673   2.131   8.089   6.860 -1.8493  0.9299 -1.4679
16273SOL     OW49674   7.834   2.808   4.692  0.6836  0.4800 -0.0737
16273SOL    HW149675   7.817   2.728   4.741 -0.3141 -1.4586 -3.2467
16273SOL    HW249676   7.894   2.781   4.622  0.3315  2.5059 -1.2567
16274SOL     OW49677   5.921   0.626   5.996  0.0032  1.1248  0.2576
16274SOL    HW149678   5.863   0.694   5.962 -1.0255 -0.0838 -0.4954
16274SOL    HW249679   5.884   0.544   5.964  2.1028  0.2830 -0.2207
16275SOL     OW49680   2.737   0.840   4.586  0.5547 -0.3031 -0.3755
16275SOL    HW149681   2.655   0.802   4.618  0.3235  0.8689  0.4842
16275SOL    HW249682   2.782   0.870   4.665  1.1299  0.3904 -0.9528
16276SOL     OW49683   1.817   4.381   2.739 -0.0489  0.3988 -0.1335
16276SOL    HW149684   1.795   4.454   2.796  1.5742 -0.4136  1.6267
16276SOL    HW249685   1.782   4.406   2.653 -3.1474  1.3943  1.2812
16277SOL     OW49686   0.459   3.990   5.127  0.1132  0.0806  0.6554
16277SOL    HW149687   0.364   3.986   5.133  0.2619 -2.0066  3.0546
16277SOL    HW249688   0.484   3.905   5.090  1.0818  0.1654  1.0922
16278SOL     OW49689   2.400   5.935   4.611 -0.3098  0.0120 -0.0946
16278SOL    HW149690   2.419   5.924   4.704  0.0197 -1.6471 -0.3256
16278SOL    HW249691   2.348   6.015   4.606  0.1444  0.4338  1.4442
16279SOL     OW49692   6.540   5.871   0.932  0.0984 -0.2930 -0.2354
16279SOL    HW149693   6.556   5.803   0.997 -3.8244  0.4346  1.7818
16279SOL    HW249694   6.536   5.825   0.848  0.0189 -2.1148  0.7344
16280SOL     OW49695   6.144   3.211   4.721 -0.1813 -0.2585  0.5324
16280SOL    HW149696   6.206   3.145   4.752 -0.3953 -0.4725  0.5086
16280SOL    HW249697   6.199   3.283   4.689  0.1331 -1.3925 -1.6464
16281SOL     OW49698   0.045   5.550   1.424  0.7797  0.5206 -0.5124
16281SOL    HW149699  -0.002   5.475   1.462  2.7631 -1.5328 -1.8338
16281SOL    HW249700  -0.015   5.584   1.358 -0.7296  1.0507  1.0580
16282SOL     OW49701   4.175   0.566   2.906 -0.1369 -0.7118 -0.0992
16282SOL    HW149702   4.236   0.637   2.887 -1.0392 -0.4814 -2.4642
16282SOL    HW249703   4.136   0.590   2.991  0.4448  0.9990 -0.2784
16283SOL     OW49704   3.355   5.075   7.094 -0.4706  0.6108 -0.2172
16283SOL    HW149705   3.378   5.035   7.177  0.4848  0.2743 -0.6298
16283SOL    HW249706   3.354   5.002   7.032  0.4238  1.0889 -0.8060
16284SOL     OW49707   1.916   6.773   3.965  0.9266 -0.4315 -0.2485
16284SOL    HW149708   1.922   6.868   3.958  1.6195 -0.5763 -3.3073
16284SOL    HW249709   1.934   6.754   4.057  1.7631  2.3076  0.2444
16285SOL     OW49710   1.977   5.061   1.974  0.3204  0.2963  0.3952
16285SOL    HW149711   2.002   4.975   2.007  1.0469  0.8618  1.3605
16285SOL    HW249712   1.881   5.061   1.980  0.4023  0.2304  2.1681
16286SOL     OW49713   7.546   3.811   0.490  0.8485  0.0854  0.2334
16286SOL    HW149714   7.514   3.895   0.457 -1.5681 -0.2943  1.4308
16286SOL    HW249715   7.483   3.746   0.459  1.4468 -0.9976  1.1813
16287SOL     OW49716   1.216   5.234   4.020  0.2746  0.2664 -0.3823
16287SOL    HW149717   1.211   5.284   3.939  2.6576  0.7867 -0.2741
16287SOL    HW249718   1.248   5.296   4.085 -0.5654 -0.4226  0.7340
16288SOL     OW49719   4.382   2.751   0.661  0.4859 -0.3788 -0.3517
16288SOL    HW149720   4.383   2.747   0.757  0.0604 -1.3281 -0.3776
16288SOL    HW249721   4.332   2.830   0.641  0.9945  0.0984  0.2042
16289SOL     OW49722   7.548   0.289   2.548 -0.0966 -0.2160 -0.2814
16289SOL    HW149723   7.544   0.364   2.489 -1.1135  0.0112  0.0567
16289SOL    HW249724   7.495   0.222   2.505  0.8299 -0.7608 -0.5965
16290SOL     OW49725   3.855   2.983   0.525  0.2197 -0.2055 -0.2197
16290SOL    HW149726   3.806   2.990   0.607 -1.2721  0.2829 -1.1308
16290SOL    HW249727   3.796   2.938   0.465  1.3501 -0.6931 -1.0085
16291SOL     OW49728   7.892   1.392   6.047 -0.2767  0.3492 -0.2015
16291SOL    HW149729   7.932   1.327   5.989 -0.0879  0.0147  0.2950
16291SOL    HW249730   7.815   1.423   6.000 -0.5615 -0.4929 -0.2999
16292SOL     OW49731   7.803   1.984   6.693  0.3112  0.1696  0.4220
16292SOL    HW149732   7.852   1.903   6.684  1.2225  0.4491  2.3769
16292SOL    HW249733   7.867   2.053   6.678 -0.2397  0.5574 -0.2401
16293SOL     OW49734   5.263   6.888   2.117  0.3652 -0.5392 -0.1639
16293SOL    HW149735   5.244   6.798   2.141  1.0245 -0.4851  0.5797
16293SOL    HW249736   5.335   6.882   2.054  1.5431 -0.4652  1.1314
16294SOL     OW49737   7.286   3.965   2.572  0.5093 -0.7332 -0.2412
16294SOL    HW149738   7.339   4.044   2.572 -1.5021  0.6939  0.4827
16294SOL    HW249739   7.327   3.908   2.507  1.6928  1.1032 -1.1661
16295SOL     OW49740   7.817   6.038   5.753  0.3909 -0.1105 -0.1152
16295SOL    HW149741   7.841   6.021   5.844  1.6225 -1.0541 -0.5826
16295SOL    HW249742   7.792   5.952   5.719  1.0169  0.0296 -0.9596
16296SOL     OW49743   5.850   6.286   3.339  0.3914  0.3438  0.2719
16296SOL    HW149744   5.810   6.238   3.411 -0.5157 -0.5331 -0.7719
16296SOL    HW249745   5.821   6.377   3.351 -0.9505 -0.0600  0.2255
16297SOL     OW49746   1.348   1.210   3.795 -0.8653  0.0896 -0.0340
16297SOL    HW149747   1.276   1.247   3.743  0.0198  1.8040 -0.1274
16297SOL    HW249748   1.408   1.284   3.808 -1.0041 -0.2282  3.3554
16298SOL     OW49749   4.834   6.998   6.680 -0.3471 -0.5764 -0.5674
16298SOL    HW149750   4.897   6.926   6.674  1.1077  0.6939 -0.9213
16298SOL    HW249751   4.788   6.983   6.763  1.1382 -0.9532  0.2081
16299SOL     OW49752   7.308   1.550   3.503 -0.3112  0.7834 -0.1285
16299SOL    HW149753   7.284   1.480   3.563  2.0662  0.2361  0.2567
16299SOL    HW249754   7.224   1.593   3.482 -1.3433  0.4163  2.8095
16300SOL     OW49755   4.940   7.616   4.014  0.6321 -0.0575  0.6453
16300SOL    HW149756   4.946   7.711   4.001 -0.1915 -0.1515 -0.5432
16300SOL    HW249757   4.894   7.584   3.936  1.5014 -1.5214  0.7028
16301SOL     OW49758   0.734   5.033   4.898  0.0753 -0.2511  0.1733
16301SOL    HW149759   0.664   5.069   4.952 -0.7760 -2.1274  0.4138
16301SOL    HW249760   0.716   5.065   4.810  0.8747  1.9926  0.7806
16302SOL     OW49761   4.550   5.239   5.501  0.2095 -0.0153  0.0104
16302SOL    HW149762   4.568   5.145   5.499  0.2891 -0.0383  1.1515
16302SOL    HW249763   4.465   5.248   5.458  1.6066 -0.2037 -3.0742
16303SOL     OW49764   4.539   6.670   1.281 -0.3638 -0.0120  0.1598
16303SOL    HW149765   4.486   6.723   1.340  1.1388  0.4752  1.1220
16303SOL    HW249766   4.611   6.638   1.335  0.7814  0.0136 -1.2896
16304SOL     OW49767   6.734   4.143   2.863 -0.4338  0.7292  0.1317
16304SOL    HW149768   6.767   4.128   2.952 -1.5826 -0.1541  0.4340
16304SOL    HW249769   6.670   4.213   2.873 -1.1917  0.0411  0.1572
16305SOL     OW49770   1.398   7.543   1.827  0.1339 -0.0515 -0.3413
16305SOL    HW149771   1.434   7.470   1.777  1.2354 -0.3701  0.8703
16305SOL    HW249772   1.471   7.573   1.881 -1.2393 -0.3017  1.7367
16306SOL     OW49773   0.018   7.632   4.843 -0.4285  0.3946  0.3544
16306SOL    HW149774  -0.012   7.637   4.934  3.2006 -0.4704  1.8087
16306SOL    HW249775  -0.040   7.569   4.802 -1.2464 -0.4204  2.5739
16307SOL     OW49776   1.592   1.321   0.926  0.4207 -0.1749  0.0132
16307SOL    HW149777   1.567   1.240   0.969 -0.5031  0.7002  1.2086
16307SOL    HW249778   1.674   1.347   0.969  0.4972 -0.2692 -0.0769
16308SOL     OW49779   7.804   2.878   7.425  0.2687  0.3774 -0.3414
16308SOL    HW149780   7.713   2.866   7.452  0.0261 -0.1939 -1.3530
16308SOL    HW249781   7.852   2.892   7.506 -0.1934 -2.7452  0.6031
16309SOL     OW49782   0.843   1.335   0.693  0.3456  0.6145 -0.2300
16309SOL    HW149783   0.870   1.263   0.750 -0.0410 -0.1034 -0.9302
16309SOL    HW249784   0.918   1.349   0.635  0.8317  1.5050  0.5842
16310SOL     OW49785   7.508   5.943   0.948  0.2445  0.2047  0.1825
16310SOL    HW149786   7.503   5.987   1.033 -0.5807 -2.2763  1.5434
16310SOL    HW249787   7.419   5.947   0.914  0.2758  0.0585  0.0814
16311SOL     OW49788   5.880   6.054   1.835  0.3415 -0.2366  0.2843
16311SOL    HW149789   5.804   6.111   1.842  0.1997 -0.4376  0.3827
16311SOL    HW249790   5.954   6.114   1.828  0.1667 -0.0412  0.1048
16312SOL     OW49791   0.996   7.248   0.889 -0.0006  0.1474  0.7675
16312SOL    HW149792   1.037   7.230   0.974  2.9295 -1.4714 -0.8053
16312SOL    HW249793   1.060   7.302   0.843 -0.6903 -0.4988 -1.0353
16313SOL     OW49794   2.155   2.844   1.416  1.0285 -0.3971 -0.5273
16313SOL    HW149795   2.171   2.817   1.507 -1.4824 -0.2107  0.0738
16313SOL    HW249796   2.224   2.907   1.397  2.1669 -1.1474  0.9173
16314SOL     OW49797   7.674   2.867   2.529 -0.1402 -0.2421  0.1584
16314SOL    HW149798   7.702   2.866   2.621 -0.0624  1.0434  0.1652
16314SOL    HW249799   7.756   2.867   2.479 -0.1755 -0.3900  0.1013
16315SOL     OW49800   0.088   5.685   3.039  0.1942 -0.5081  0.9931
16315SOL    HW149801   0.144   5.730   3.101  0.9292  2.2348 -1.4590
16315SOL    HW249802   0.126   5.704   2.953 -3.2467 -0.2520 -0.6587
16316SOL     OW49803   5.730   7.370   3.005 -0.2361  0.1906  0.1218
16316SOL    HW149804   5.716   7.310   2.931  1.4200 -0.2614  0.1372
16316SOL    HW249805   5.669   7.339   3.072  1.0158 -1.9699  0.3742
16317SOL     OW49806   6.440   7.637   1.499 -0.6625  0.2944  0.5092
16317SOL    HW149807   6.376   7.607   1.434 -1.4688  0.5877  1.1649
16317SOL    HW249808   6.510   7.676   1.446 -1.4352  0.7831 -0.1856
16318SOL     OW49809   4.458   1.668   5.062  0.4214  0.9626  0.8032
16318SOL    HW149810   4.463   1.609   4.986  0.9303  1.3445  0.5341
16318SOL    HW249811   4.545   1.664   5.101  0.5752  1.8245  0.5636
16319SOL     OW49812   3.621   1.284   1.363 -0.0835  0.4190  0.4594
16319SOL    HW149813   3.714   1.305   1.374 -0.1356  0.9531 -0.0577
16319SOL    HW249814   3.577   1.369   1.365 -0.4654  0.2402 -0.1879
16320SOL     OW49815   6.681   7.196   2.049 -0.1497  0.4064  0.4134
16320SOL    HW149816   6.608   7.252   2.026  2.3947  3.8759  0.0114
16320SOL    HW249817   6.727   7.180   1.967  1.0505  0.7169  0.9875
16321SOL     OW49818   7.611   3.371   0.285 -0.7223 -0.3232  0.1342
16321SOL    HW149819   7.688   3.342   0.237  0.6341  0.7349  1.5881
16321SOL    HW249820   7.556   3.415   0.220 -0.3805 -1.5472 -1.0205
16322SOL     OW49821   4.387   4.438   6.266  0.1077 -0.0794  0.1978
16322SOL    HW149822   4.448   4.512   6.265 -0.9623  0.8349  0.5241
16322SOL    HW249823   4.363   4.427   6.358  1.2559 -1.7071  0.3351
16323SOL     OW49824   5.543   1.267   3.342  0.2237  0.5353  0.5109
16323SOL    HW149825   5.479   1.201   3.372 -0.7495  0.2128 -2.0472
16323SOL    HW249826   5.624   1.217   3.329 -0.3785 -0.1405 -0.9442
16324SOL     OW49827   4.463   4.879   4.846 -0.0722 -0.0400  0.0181
16324SOL    HW149828   4.500   4.940   4.783 -2.7974  0.8100 -0.9366
16324SOL    HW249829   4.487   4.915   4.932 -0.8233  1.9051 -0.5341
16325SOL     OW49830   2.930   6.496   0.614 -0.4678 -0.5555  0.6775
16325SOL    HW149831   2.866   6.476   0.546  0.1355 -1.2905  0.3204
16325SOL    HW249832   2.886   6.562   0.669 -0.8405  0.2725 -0.5859
16326SOL     OW49833   7.906   3.715   1.769 -0.3847 -0.4108  0.4166
16326SOL    HW149834   7.818   3.684   1.791 -0.5112 -1.8280 -1.8006
16326SOL    HW249835   7.959   3.636   1.767  0.4417  0.1520 -0.4280
16327SOL     OW49836   0.977   1.221   7.858  0.9516 -0.3095  0.0547
16327SOL    HW149837   0.981   1.175   7.942  0.4574 -0.4961 -0.0216
16327SOL    HW249838   0.938   1.306   7.878  1.7687  0.0474  0.1781
16328SOL     OW49839   4.589   1.946   2.460 -0.0560 -0.4357  0.5747
16328SOL    HW149840   4.519   1.933   2.523  1.9983 -1.8980  2.7206
16328SOL    HW249841   4.575   1.878   2.394 -0.9391 -0.3462  0.6554
16329SOL     OW49842   0.741   7.513   4.253  0.9997  0.3119  0.7218
16329SOL    HW149843   0.695   7.464   4.322 -0.3069  1.3211  0.6120
16329SOL    HW249844   0.729   7.605   4.277 -1.5202  0.8508 -1.9778
16330SOL     OW49845   3.611   4.211   1.572  0.1128  0.1721  0.5602
16330SOL    HW149846   3.700   4.237   1.594 -0.1937  0.0409  2.0363
16330SOL    HW249847   3.584   4.274   1.505  0.5181  1.6703  1.7421
16331SOL     OW49848   5.799   5.283   4.308 -0.1009 -0.3819 -0.3211
16331SOL    HW149849   5.727   5.312   4.253 -0.0954  0.8688  0.2956
16331SOL    HW249850   5.853   5.229   4.250 -2.1654 -2.4579 -0.4505
16332SOL     OW49851   8.003   4.580   2.415  0.3100  0.1560 -0.3094
16332SOL    HW149852   7.938   4.564   2.484  0.2293  2.7341  0.2986
16332SOL    HW249853   7.952   4.603   2.338  0.4630  1.2977 -0.0798
16333SOL     OW49854   4.874   3.892   1.746 -0.1135 -0.0372  0.7354
16333SOL    HW149855   4.853   3.817   1.690 -2.3872 -0.1137  1.5798
16333SOL    HW249856   4.968   3.905   1.734 -0.3088 -0.6049 -2.3586
16334SOL     OW49857   7.901   4.751   6.158 -0.0391  0.4348 -0.3793
16334SOL    HW149858   7.993   4.775   6.154 -0.2664  1.5683  0.5852
16334SOL    HW249859   7.854   4.832   6.140 -0.8874 -0.4994 -2.6987
16335SOL     OW49860   0.815   2.476   0.781  0.9134  0.6705 -0.2843
16335SOL    HW149861   0.733   2.428   0.792  0.1833  2.1820  1.2491
16335SOL    HW249862   0.819   2.534   0.857  4.7936 -1.2960  1.3282
16336SOL     OW49863   1.119   6.797   2.743 -0.2566  0.4210  0.0482
16336SOL    HW149864   1.134   6.809   2.649 -0.9788  1.1284  0.0094
16336SOL    HW249865   1.107   6.703   2.754  0.4685  0.2609 -0.4649
16337SOL     OW49866   0.609   3.396   7.281 -0.1697 -0.3087 -0.3393
16337SOL    HW149867   0.613   3.486   7.313  0.5648 -1.0645  1.9136
16337SOL    HW249868   0.546   3.353   7.339  0.3741 -1.5157 -0.6113
16338SOL     OW49869   4.382   6.923   5.678  0.3389  0.0503 -0.3176
16338SOL    HW149870   4.354   6.909   5.768 -1.8608 -0.4706 -1.0137
16338SOL    HW249871   4.418   6.839   5.650 -1.7777 -0.7603 -0.7972
16339SOL     OW49872   1.374   6.397   2.905  0.1518  0.3276 -0.0254
16339SOL    HW149873   1.455   6.449   2.899  0.8635 -0.6880  0.4240
16339SOL    HW249874   1.379   6.338   2.829  1.9380 -2.5527  2.0927
16340SOL     OW49875   7.505   3.038   0.746 -0.4924 -0.2160  0.1378
16340SOL    HW149876   7.535   3.123   0.779 -0.6020  0.3095 -1.0647
16340SOL    HW249877   7.585   2.988   0.732 -0.3999 -0.1528  0.4357
16341SOL     OW49878   2.999   4.586   7.809  0.5516  0.4145 -0.9412
16341SOL    HW149879   3.020   4.535   7.732 -1.1048  0.0360 -1.1751
16341SOL    HW249880   3.033   4.535   7.882  1.0713  0.1883 -1.3400
16342SOL     OW49881   3.825   2.257   1.127  0.2106  0.3957  0.1859
16342SOL    HW149882   3.799   2.277   1.038  1.0749 -1.9791 -0.6956
16342SOL    HW249883   3.773   2.315   1.182 -1.3613  0.9412 -1.7999
16343SOL     OW49884   6.845   0.344   5.346  0.0169 -0.1201 -0.5209
16343SOL    HW149885   6.851   0.354   5.251 -1.6451 -0.4762 -0.7052
16343SOL    HW249886   6.880   0.257   5.364  2.4034  0.7895 -0.5027
16344SOL     OW49887   6.407   0.907   3.648 -0.3044 -0.2030  0.3887
16344SOL    HW149888   6.335   0.845   3.662 -2.0257  1.2488 -1.4365
16344SOL    HW249889   6.373   0.990   3.682  0.4708  0.5220 -0.5499
16345SOL     OW49890   6.415   2.370   7.036 -0.1515 -0.1913  0.3767
16345SOL    HW149891   6.345   2.426   7.069 -1.4155 -2.2410  1.3620
16345SOL    HW249892   6.434   2.309   7.107  2.1581 -0.1618 -0.1368
16346SOL     OW49893   4.493   5.544   4.765  0.1728 -0.7007 -0.8776
16346SOL    HW149894   4.515   5.468   4.710 -0.8380  0.2586 -2.6985
16346SOL    HW249895   4.422   5.588   4.717 -0.1953  0.6463  0.8227
16347SOL     OW49896   5.381   7.795   4.898 -0.4190  0.1599 -0.1756
16347SOL    HW149897   5.465   7.778   4.855 -0.2207 -2.4828  1.0549
16347SOL    HW249898   5.387   7.885   4.928  1.4998  0.3981 -1.1341
16348SOL     OW49899   0.429   3.647   7.890  0.6441  0.0888 -0.1600
16348SOL    HW149900   0.393   3.697   7.963  0.7095  0.0115 -0.0738
16348SOL    HW249901   0.439   3.710   7.819 -0.0316  0.0281 -0.3145
16349SOL     OW49902   6.078   0.335   7.385 -0.4339  0.2726  0.1292
16349SOL    HW149903   6.056   0.421   7.350 -0.5401  0.2038  0.0268
16349SOL    HW249904   6.097   0.351   7.477  1.3456  0.7151 -0.2762
16350SOL     OW49905   7.161   2.071   7.706 -0.1553 -0.4662 -0.1750
16350SOL    HW149906   7.179   2.040   7.795 -0.5447 -0.1021  0.0338
16350SOL    HW249907   7.238   2.122   7.683 -1.0534  1.5059  0.9060
16351SOL     OW49908   7.379   1.102   2.833  0.1868  0.2464 -0.7814
16351SOL    HW149909   7.425   1.182   2.809 -0.5003  1.1052  0.6682
16351SOL    HW249910   7.398   1.091   2.926 -0.7002 -0.6360 -0.6949
16352SOL     OW49911   0.072   3.211   4.244  0.0570 -0.0413 -0.1277
16352SOL    HW149912   0.118   3.146   4.193 -0.3512  0.8396 -1.6899
16352SOL    HW249913   0.027   3.266   4.179 -0.2677  1.2971  1.1548
16353SOL     OW49914   7.992   1.408   3.037  0.1220 -0.2212  0.1742
16353SOL    HW149915   8.071   1.355   3.039 -0.2763 -0.8054  1.2023
16353SOL    HW249916   7.924   1.353   3.076 -0.4117  0.8594  0.8437
16354SOL     OW49917   4.145   1.632   1.234 -0.2494  0.4065  0.0412
16354SOL    HW149918   4.168   1.620   1.326 -2.0725  0.1037  0.4855
16354SOL    HW249919   4.068   1.688   1.235  0.1977  1.1058 -1.3666
16355SOL     OW49920   2.946   3.808   6.811 -0.3438 -0.3483  0.7206
16355SOL    HW149921   2.901   3.879   6.766 -2.2551 -0.5113  2.2446
16355SOL    HW249922   3.039   3.829   6.803 -0.4838 -0.3331 -3.1586
16356SOL     OW49923   4.826   7.631   1.236 -0.0109 -0.1103 -0.3530
16356SOL    HW149924   4.804   7.538   1.233 -0.0760 -0.0753 -1.4693
16356SOL    HW249925   4.886   7.639   1.310 -0.9000 -0.8315  0.4734
16357SOL     OW49926   5.137   7.691   0.738  0.2308  0.1855  0.3108
16357SOL    HW149927   5.043   7.688   0.759 -0.1833 -1.5543 -1.4768
16357SOL    HW249928   5.140   7.737   0.654  0.6816 -1.6276 -0.7246
16358SOL     OW49929   1.333   0.173   1.909  0.2632 -0.5149  0.3712
16358SOL    HW149930   1.260   0.157   1.850  0.1133  0.9636  0.1239
16358SOL    HW249931   1.409   0.134   1.865 -0.2383 -1.4171  0.2901
16359SOL     OW49932   4.457   6.594   1.675 -0.2020 -0.6639 -0.3265
16359SOL    HW149933   4.477   6.662   1.610 -0.2586 -1.2164 -0.9329
16359SOL    HW249934   4.399   6.533   1.629 -0.7390 -0.7426  0.4405
16360SOL     OW49935   7.338   3.605   6.116 -0.5346  0.1757  0.2838
16360SOL    HW149936   7.399   3.562   6.056  0.1292 -0.8999  1.6682
16360SOL    HW249937   7.311   3.684   6.070  1.1858  0.2047 -0.7639
16361SOL     OW49938   6.327   3.752   4.920 -0.1377 -0.8175  0.1868
16361SOL    HW149939   6.386   3.686   4.886 -1.4434 -1.6706 -0.5025
16361SOL    HW249940   6.243   3.733   4.879 -0.7161  0.8524  0.5105
16362SOL     OW49941   2.315   7.492   7.105 -0.0363 -0.3772 -0.8268
16362SOL    HW149942   2.364   7.454   7.033 -1.5999  0.0587 -2.1802
16362SOL    HW249943   2.278   7.572   7.070 -3.0172 -1.4513 -0.4421
16363SOL     OW49944   0.934   2.936   7.659  0.3053 -0.0456  0.6275
16363SOL    HW149945   0.841   2.912   7.662  0.7282 -1.7091  1.2892
16363SOL    HW249946   0.965   2.925   7.749  1.6189 -1.6021  0.0376
16364SOL     OW49947   4.543   0.703   6.871  0.2231 -0.3047  0.1718
16364SOL    HW149948   4.520   0.617   6.906 -1.6180  0.1815  0.2677
16364SOL    HW249949   4.517   0.699   6.779  1.0008 -0.1443 -0.0617
16365SOL     OW49950   5.061   4.235   1.284 -0.0710 -0.2839 -0.2397
16365SOL    HW149951   4.981   4.223   1.335 -0.0469  1.4079  0.2838
16365SOL    HW249952   5.114   4.295   1.337  1.5042 -1.2599 -0.6327
16366SOL     OW49953   1.320   4.174   1.834 -0.0254  0.1295  0.1380
16366SOL    HW149954   1.251   4.167   1.900  1.5279  1.3112  1.9866
16366SOL    HW249955   1.388   4.113   1.863 -0.2783 -1.0959 -1.7133
16367SOL     OW49956   3.461   4.008   1.349  0.3254  0.2336 -0.3396
16367SOL    HW149957   3.459   4.044   1.438  1.2398  1.4824 -0.7977
16367SOL    HW249958   3.386   4.048   1.305 -0.9175 -1.3962  0.2042
16368SOL     OW49959   4.263   6.302   7.219  0.7684 -0.1060 -0.1158
16368SOL    HW149960   4.353   6.280   7.197  0.8659 -0.4890  0.6130
16368SOL    HW249961   4.264   6.396   7.236  0.9091 -0.0084 -0.6614
16369SOL     OW49962   4.765   6.288   1.603 -0.3962 -0.5921  0.1176
16369SOL    HW149963   4.694   6.298   1.540  0.9213  1.7851 -1.1198
16369SOL    HW249964   4.780   6.376   1.638 -1.8090 -1.9087  4.7977
16370SOL     OW49965   7.591   6.365   0.988  0.0015 -0.4261  0.6509
16370SOL    HW149966   7.505   6.330   0.968 -0.4001 -0.1831  1.8651
16370SOL    HW249967   7.602   6.350   1.082  0.6747  0.8098  0.7997
16371SOL     OW49968   5.231   3.620   6.935 -0.2154  0.0888 -0.0792
16371SOL    HW149969   5.315   3.638   6.977  0.1875 -0.4493 -0.6390
16371SOL    HW249970   5.193   3.707   6.919  1.0292  0.4376 -1.4047
16372SOL     OW49971   0.493   0.235   4.989  0.0702 -0.4179 -0.1022
16372SOL    HW149972   0.460   0.168   4.928  2.8859 -1.0826 -1.0379
16372SOL    HW249973   0.505   0.313   4.934  2.0446 -0.8440 -0.3476
16373SOL     OW49974   6.161   0.707   4.865 -0.1815 -0.2869 -0.2714
16373SOL    HW149975   6.166   0.794   4.826 -0.7457 -1.4496 -3.1514
16373SOL    HW249976   6.241   0.699   4.916  0.4831  1.4504 -0.9758
16374SOL     OW49977   5.948   3.149   0.034 -0.3557  0.4416 -0.1774
16374SOL    HW149978   5.977   3.154   0.125  0.4204  0.9351 -0.4368
16374SOL    HW249979   5.923   3.239   0.013 -0.6343  0.3063 -0.4183
16375SOL     OW49980   5.877   5.198   1.403 -0.1737 -0.2416 -0.5105
16375SOL    HW149981   5.969   5.214   1.421 -0.1593 -0.6556 -0.1947
16375SOL    HW249982   5.845   5.151   1.480 -0.9284  0.8957 -0.0930
16376SOL     OW49983   0.017   7.778   4.352 -0.8312  0.2408  0.4416
16376SOL    HW149984  -0.026   7.698   4.325 -1.0077  0.0403  1.2813
16376SOL    HW249985   0.076   7.751   4.423 -1.1679  0.8993  0.9900
16377SOL     OW49986   3.012   5.493   7.880 -0.2036 -0.3123  0.3991
16377SOL    HW149987   2.931   5.450   7.909  0.1301 -0.2638  1.4118
16377SOL    HW249988   2.981   5.567   7.826 -0.7845 -1.6237 -1.1704
16378SOL     OW49989   3.800   1.517   1.924  0.3388  0.4082  0.3612
16378SOL    HW149990   3.835   1.573   1.854  0.2044  0.8496  0.6463
16378SOL    HW249991   3.812   1.568   2.004  0.3114 -0.0172  0.6379
16379SOL     OW49992   1.204   6.530   4.540 -0.2175  0.0726  0.2847
16379SOL    HW149993   1.118   6.490   4.545 -0.0348 -0.2266  1.1210
16379SOL    HW249994   1.219   6.566   4.628 -0.6330  2.5157 -0.5696
16380SOL     OW49995   2.826   3.076   7.733 -0.5917 -0.6951 -0.1133
16380SOL    HW149996   2.874   3.153   7.701 -0.1404 -0.7913  0.3107
16380SOL    HW249997   2.894   3.010   7.746 -0.9101 -0.9988  0.0199
16381SOL     OW49998   1.004   6.458   2.104  0.0894  0.3573 -0.6792
16381SOL    HW149999   0.962   6.380   2.068  0.4114  0.5056 -1.3896
16381SOL    HW250000   1.098   6.442   2.093  0.1424  1.0520 -1.2794
16382SOL     OW50001   4.054   7.927   0.302  0.5774  0.1919  0.3300
16382SOL    HW150002   4.023   7.906   0.214 -0.2798  1.0446  0.4107
16382SOL    HW250003   4.148   7.909   0.300  0.8343  1.5157 -1.1829
16383SOL     OW50004   3.558   0.957   0.294  0.1345  0.1406 -0.6807
16383SOL    HW150005   3.632   1.012   0.320  0.9405 -0.2278 -2.0723
16383SOL    HW250006   3.582   0.870   0.324  0.6801 -0.1324 -1.8597
16384SOL     OW50007   6.220   6.724   2.206 -0.1214 -0.4591 -0.6796
16384SOL    HW150008   6.178   6.725   2.120  0.1092 -0.8722 -0.7989
16384SOL    HW250009   6.159   6.677   2.262  0.1073 -0.9149 -0.8138
16385SOL     OW50010   0.118   5.390   7.483 -0.4823  0.0186 -0.0936
16385SOL    HW150011   0.069   5.308   7.488 -1.0110  0.3051 -0.4566
16385SOL    HW250012   0.120   5.423   7.573  0.1850 -0.6450  0.1423
16386SOL     OW50013   2.232   4.175   0.581  0.2554  0.5507  0.2503
16386SOL    HW150014   2.311   4.195   0.631  0.7836  0.6372 -0.5991
16386SOL    HW250015   2.219   4.251   0.525  0.8197 -0.3712 -1.1713
16387SOL     OW50016   4.718   3.568   0.433 -0.5313  0.1033 -0.1621
16387SOL    HW150017   4.781   3.612   0.490  1.4920 -0.0906 -2.0923
16387SOL    HW250018   4.640   3.624   0.434  0.9725  2.2921 -0.4099
16388SOL     OW50019   3.665   3.367   5.697  0.1561 -0.0571  0.3785
16388SOL    HW150020   3.741   3.425   5.681 -0.1843  0.3106  0.0663
16388SOL    HW250021   3.597   3.401   5.639 -0.8707  0.7975  1.9915
16389SOL     OW50022   6.244   2.692   3.166 -0.1589 -0.3343 -0.3318
16389SOL    HW150023   6.167   2.750   3.164 -0.6985 -1.0200  0.1926
16389SOL    HW250024   6.264   2.681   3.258  0.1218 -0.7393 -0.4370
16390SOL     OW50025   7.363   6.182   0.371 -0.6214  0.3528 -0.9169
16390SOL    HW150026   7.393   6.107   0.320  0.5425  0.1936 -0.0487
16390SOL    HW250027   7.350   6.252   0.307 -0.1506 -0.1233 -1.5400
16391SOL     OW50028   7.153   5.268   5.859 -0.6647 -0.7696  0.1024
16391SOL    HW150029   7.163   5.189   5.912 -0.5162  0.4223  1.9525
16391SOL    HW250030   7.140   5.338   5.923  0.8204  0.9608 -1.3660
16392SOL     OW50031   6.469   3.639   5.297 -0.3599 -0.5050 -0.5220
16392SOL    HW150032   6.425   3.703   5.353  1.3607  0.3287 -0.0485
16392SOL    HW250033   6.551   3.682   5.272  0.1902 -1.9829 -1.3614
16393SOL     OW50034   6.995   3.696   5.163 -0.2230 -0.4071 -0.1236
16393SOL    HW150035   7.062   3.665   5.223 -0.6250 -0.4649  0.3014
16393SOL    HW250036   7.028   3.674   5.076 -0.2286 -1.4841  0.1387
16394SOL     OW50037   7.479   2.594   6.735  0.6468  0.7668 -0.0110
16394SOL    HW150038   7.489   2.499   6.730  1.3567  0.6451  2.5768
16394SOL    HW250039   7.469   2.613   6.828  1.9146  3.3615 -0.3028
16395SOL     OW50040   2.755   7.524   0.231  0.1774 -0.0463 -0.0827
16395SOL    HW150041   2.755   7.613   0.266 -0.1587 -0.4233  0.8872
16395SOL    HW250042   2.706   7.530   0.149 -2.3292  0.1596  1.3284
16396SOL     OW50043   6.798   1.725   6.954 -0.0072 -0.3326 -0.8380
16396SOL    HW150044   6.732   1.667   6.993  1.9608 -1.3763  1.2201
16396SOL    HW250045   6.796   1.704   6.861 -0.6913 -2.3640 -0.4364
16397SOL     OW50046   1.201   6.133   4.044 -0.2189 -0.6048 -0.1845
16397SOL    HW150047   1.183   6.114   3.952  1.6535  0.1749 -0.7724
16397SOL    HW250048   1.218   6.228   4.046  0.2122 -0.6920  0.8595
16398SOL     OW50049   4.786   2.351   3.808  0.2690 -0.5668 -0.6059
16398SOL    HW150050   4.734   2.282   3.767 -0.4370  0.4682 -1.5025
16398SOL    HW250051   4.742   2.433   3.783  1.1226  0.2221  0.3701
16399SOL     OW50052   3.782   3.632   1.318  0.0586 -0.2748 -0.1844
16399SOL    HW150053   3.782   3.676   1.403 -0.3777 -0.9152  0.1552
16399SOL    HW250054   3.711   3.673   1.269  0.2567  0.0384 -0.2081
16400SOL     OW50055   2.144   7.149   4.269 -0.2637  0.0432  0.2886
16400SOL    HW150056   2.090   7.094   4.326  0.4539 -0.4242  0.5367
16400SOL    HW250057   2.081   7.193   4.212 -0.9980  0.5750  1.4755
16401SOL     OW50058   5.859   0.510   4.589  0.3592  0.2875  0.2644
16401SOL    HW150059   5.795   0.549   4.530  0.8811 -0.0046 -0.5017
16401SOL    HW250060   5.836   0.546   4.675  1.4002  3.1078 -0.4969
16402SOL     OW50061   4.027   7.752   2.530  0.3304  0.6596 -0.0770
16402SOL    HW150062   3.986   7.707   2.604 -0.0965 -0.6740 -1.0807
16402SOL    HW250063   3.958   7.810   2.497 -0.1566 -0.2208 -0.6359
16403SOL     OW50064   2.078   0.957   7.982  0.7562 -0.2244 -0.0150
16403SOL    HW150065   2.140   1.022   7.950  1.7341 -1.3203 -0.4213
16403SOL    HW250066   2.123   0.914   8.055 -0.3681  0.3709  1.0780
16404SOL     OW50067   2.981   5.715   7.116 -0.8577 -0.4875  0.5214
16404SOL    HW150068   3.063   5.686   7.077  0.2103  0.9599  1.5611
16404SOL    HW250069   2.950   5.639   7.166  2.2043  0.1093  3.7350
16405SOL     OW50070   5.182   0.701   3.321 -0.6428  0.2115  0.3156
16405SOL    HW150071   5.132   0.782   3.325 -0.2346  0.5006 -0.2553
16405SOL    HW250072   5.255   0.721   3.262  0.3560 -0.0774  1.4214
16406SOL     OW50073   2.715   1.772   7.038 -0.1099 -0.2958  0.0891
16406SOL    HW150074   2.754   1.759   7.125 -0.3705 -0.8136  0.1310
16406SOL    HW250075   2.719   1.867   7.024 -1.3680 -0.0223  1.2936
16407SOL     OW50076   1.963   5.943   7.534  0.4037 -0.2680 -0.1312
16407SOL    HW150077   1.891   5.933   7.471 -0.3047 -1.8121  0.8628
16407SOL    HW250078   1.937   6.017   7.588  0.6220  0.5467 -1.1129
16408SOL     OW50079   0.265   1.507   5.072  0.3281 -0.5003  0.4689
16408SOL    HW150080   0.297   1.597   5.085  0.7917 -0.7034  0.7541
16408SOL    HW250081   0.334   1.452   5.108 -1.0689 -0.9202  2.7126
16409SOL     OW50082   5.345   1.075   1.494 -0.7464 -0.2514 -0.1145
16409SOL    HW150083   5.353   1.100   1.586 -1.3507  0.3017 -0.2095
16409SOL    HW250084   5.277   1.132   1.459 -0.9101 -0.8349 -0.7715
16410SOL     OW50085   7.144   6.521   5.830 -0.1486 -0.1544  0.0789
16410SOL    HW150086   7.131   6.495   5.921 -1.1901  2.6327  0.8214
16410SOL    HW250087   7.239   6.516   5.817  0.0760 -0.0147  1.5238
16411SOL     OW50088   5.294   2.011   5.549  0.1493  0.1176  0.2626
16411SOL    HW150089   5.364   2.072   5.572  1.5631 -2.0680  2.2043
16411SOL    HW250090   5.333   1.955   5.481 -0.6752  0.5271 -0.5681
16412SOL     OW50091   7.212   7.462   0.702  0.3999 -0.5148  0.2864
16412SOL    HW150092   7.132   7.459   0.754 -0.4357 -0.0209 -0.9243
16412SOL    HW250093   7.277   7.503   0.760 -0.1648 -1.0601  1.3315
16413SOL     OW50094   0.441   0.865   6.992  0.1911 -0.0214  0.3546
16413SOL    HW150095   0.462   0.958   6.982  1.0862 -0.1503  0.9214
16413SOL    HW250096   0.366   0.864   7.051  0.1750  0.3464  0.3449
16414SOL     OW50097   0.829   2.029   7.402  0.2675  0.1519 -0.1678
16414SOL    HW150098   0.839   1.937   7.429  0.3214  0.5086  1.1156
16414SOL    HW250099   0.918   2.058   7.384  0.9507  1.1385  3.7363
16415SOL     OW50100   7.856   4.836   3.888 -0.4945  0.1575 -0.0853
16415SOL    HW150101   7.803   4.834   3.808 -2.5136  0.5693  1.1736
16415SOL    HW250102   7.839   4.751   3.930 -0.3121  0.3701  0.4246
16416SOL     OW50103   7.309   4.056   4.485 -0.3518 -0.4564 -0.6193
16416SOL    HW150104   7.345   4.099   4.408 -1.8420 -1.1710 -1.7466
16416SOL    HW250105   7.257   4.123   4.529 -0.1761 -0.2814 -0.6794
16417SOL     OW50106   5.894   2.882   1.748 -0.2526  0.3042 -0.0857
16417SOL    HW150107   5.802   2.886   1.772 -0.5160  1.9990 -1.2095
16417SOL    HW250108   5.939   2.930   1.817 -0.3451  0.3634 -0.0662
16418SOL     OW50109   7.528   2.371   2.325 -0.1549  0.3497 -0.6812
16418SOL    HW150110   7.615   2.333   2.333 -0.2531  0.0003 -1.1918
16418SOL    HW250111   7.543   2.466   2.327  0.1664  0.2928 -0.1357
16419SOL     OW50112   5.955   6.138   0.178  0.0001  0.5147 -0.5490
16419SOL    HW150113   6.033   6.090   0.151 -0.9123 -1.1406 -0.3504
16419SOL    HW250114   5.895   6.131   0.104 -0.3658  0.8554 -0.2911
16420SOL     OW50115   1.540   0.471   0.048  0.1670  0.4068  0.0678
16420SOL    HW150116   1.632   0.495   0.049  0.2101  0.3523 -0.9787
16420SOL    HW250117   1.496   0.547   0.010 -0.6498  1.6515  3.1625
16421SOL     OW50118   3.622   0.888   7.245 -0.0882  0.3033 -0.0144
16421SOL    HW150119   3.586   0.932   7.322 -1.5367  0.2972 -0.6673
16421SOL    HW250120   3.560   0.818   7.226  0.7658 -0.3092 -0.6209
16422SOL     OW50121   2.893   4.298   1.241 -0.6452 -0.1293  0.2197
16422SOL    HW150122   2.961   4.242   1.279 -0.1921 -0.5427 -1.1761
16422SOL    HW250123   2.823   4.237   1.215 -0.0369 -0.0971 -1.5460
16423SOL     OW50124   7.611   4.068   7.679 -0.7048 -0.6541 -0.0955
16423SOL    HW150125   7.527   4.036   7.647 -0.4052 -1.6168  0.0342
16423SOL    HW250126   7.670   4.061   7.604 -0.9640  0.9626 -0.4683
16424SOL     OW50127   6.648   7.025   4.797 -1.2179 -0.0811  0.3264
16424SOL    HW150128   6.579   6.958   4.795 -1.7683  0.4888 -1.1463
16424SOL    HW250129   6.601   7.107   4.812 -0.7629  0.1972  0.2440
16425SOL     OW50130   6.046   7.913   3.777  0.0130  0.0287 -0.1390
16425SOL    HW150131   5.967   7.957   3.747 -1.1368 -0.1585  2.3330
16425SOL    HW250132   6.035   7.822   3.750 -0.5320  0.0537 -0.0163
16426SOL     OW50133   2.527   3.106   0.822  0.6866  0.1447 -0.3880
16426SOL    HW150134   2.560   3.115   0.733 -0.2950  1.6158 -0.6364
16426SOL    HW250135   2.583   3.164   0.874  2.2421 -1.8146  0.3034
16427SOL     OW50136   4.167   2.457   7.497 -0.1766  0.6383  0.5134
16427SOL    HW150137   4.137   2.492   7.412  0.7147  1.0390  0.3573
16427SOL    HW250138   4.201   2.533   7.543 -0.7379  0.4314  1.2806
16428SOL     OW50139   5.600   5.571   4.719  0.0567 -0.4666 -0.3439
16428SOL    HW150140   5.587   5.530   4.805  0.9156  1.1432  0.6208
16428SOL    HW250141   5.692   5.556   4.699 -0.2122 -1.0741 -1.1221
16429SOL     OW50142   1.089   2.608   5.144 -0.1688 -0.4191 -0.1122
16429SOL    HW150143   1.137   2.571   5.219 -1.3206 -0.4927  0.6153
16429SOL    HW250144   1.015   2.655   5.184 -1.1432 -0.9624 -1.2140
16430SOL     OW50145   3.578   7.928   4.114 -0.3870  0.1864  0.3897
16430SOL    HW150146   3.545   7.839   4.096 -0.5582 -0.0037  1.5720
16430SOL    HW250147   3.574   7.972   4.029  0.1402 -1.0699 -0.3243
16431SOL     OW50148   6.784   2.097   2.088  0.7010  0.1714 -0.8888
16431SOL    HW150149   6.766   2.073   1.997 -0.1261 -0.7866 -0.4861
16431SOL    HW250150   6.869   2.056   2.107  1.0370  0.6565 -1.3219
16432SOL     OW50151   3.228   7.013   7.423  0.2380  0.1102 -0.7241
16432SOL    HW150152   3.135   7.010   7.398 -0.5808  1.2303  1.8019
16432SOL    HW250153   3.265   6.932   7.389 -1.4086  0.0812 -2.6371
16433SOL     OW50154   0.241   3.209   7.105  0.2996  0.1002  0.5402
16433SOL    HW150155   0.270   3.120   7.085 -1.6207 -0.9186  1.9276
16433SOL    HW250156   0.275   3.262   7.033  2.0924 -1.6103  0.0364
16434SOL     OW50157   1.029   2.323   5.028  0.1648  0.2505 -0.7716
16434SOL    HW150158   0.990   2.292   5.110 -1.1601  0.0663 -1.4589
16434SOL    HW250159   1.077   2.402   5.053 -0.2831  0.2378  0.1638
16435SOL     OW50160   1.782   3.872   3.799  0.1302  0.0765  0.3295
16435SOL    HW150161   1.841   3.849   3.871  0.1074 -2.8345 -0.4390
16435SOL    HW250162   1.836   3.919   3.736  1.0071 -0.3483  0.7553
16436SOL     OW50163   7.564   1.309   5.522 -0.5388  0.0862 -0.1974
16436SOL    HW150164   7.506   1.385   5.531 -1.5846 -0.5819 -0.9756
16436SOL    HW250165   7.506   1.233   5.532  0.5282 -0.6316  0.8574
16437SOL     OW50166   4.100   6.627   1.008  0.1822  0.5339 -0.3511
16437SOL    HW150167   4.051   6.553   1.044  2.2709 -0.0729  1.4683
16437SOL    HW250168   4.150   6.590   0.935 -0.3194  0.6504 -0.7630
16438SOL     OW50169   3.251   0.299   8.002 -0.0674 -0.0456 -0.0089
16438SOL    HW150170   3.269   0.237   8.073 -0.5293  1.4736  1.4912
16438SOL    HW250171   3.193   0.251   7.943  0.2121 -1.3030  0.6938
16439SOL     OW50172   5.163   3.365   7.976  0.5537  0.0570 -0.1227
16439SOL    HW150173   5.122   3.295   7.926  0.0138 -0.2173  0.6955
16439SOL    HW250174   5.124   3.359   8.063  0.8625  1.0620  0.0979
16440SOL     OW50175   1.076   6.366   6.710 -0.2239 -0.2917  0.4669
16440SOL    HW150176   0.988   6.357   6.673 -0.3014 -1.1998  0.8345
16440SOL    HW250177   1.134   6.345   6.637 -0.2407  1.6285 -0.1587
16441SOL     OW50178   2.615   5.785   5.078 -0.7137 -0.5974  0.2478
16441SOL    HW150179   2.568   5.821   5.003 -0.7453 -2.1787 -0.5253
16441SOL    HW250180   2.615   5.691   5.064  1.7510 -0.7536  0.7617
16442SOL     OW50181   1.457   3.127   2.989 -0.0328 -0.0214  0.1198
16442SOL    HW150182   1.548   3.144   2.962 -0.6532  1.4029 -1.2344
16442SOL    HW250183   1.458   3.138   3.084  1.5365 -1.7835  0.3804
16443SOL     OW50184   0.429   3.121   0.680  1.0167  0.0278  0.0851
16443SOL    HW150185   0.412   3.056   0.612  0.0527  0.6170 -0.2574
16443SOL    HW250186   0.457   3.069   0.756  0.7264 -0.7521 -0.3300
16444SOL     OW50187   6.223   7.668   4.352 -0.2035 -0.3576  0.3854
16444SOL    HW150188   6.304   7.713   4.378  0.1378 -0.1487 -0.9722
16444SOL    HW250189   6.251   7.579   4.330 -0.6998 -0.9348  1.9577
16445SOL     OW50190   4.974   1.747   3.971  0.6291  0.4279 -0.2062
16445SOL    HW150191   4.944   1.660   3.999 -1.5715  1.4831  0.9734
16445SOL    HW250192   5.069   1.737   3.962  0.6658 -1.6951  1.5021
16446SOL     OW50193   0.722   4.082   2.663  0.2874  1.1524 -0.3005
16446SOL    HW150194   0.781   4.100   2.736 -1.2829  2.0926  0.8017
16446SOL    HW250195   0.744   3.993   2.636  0.9376  0.7941  1.2891
16447SOL     OW50196   4.764   7.230   7.245  0.1393  0.4273  0.7363
16447SOL    HW150197   4.763   7.261   7.154 -1.5182 -0.0255  0.5566
16447SOL    HW250198   4.840   7.272   7.284  1.0795  0.3982 -0.9393
16448SOL     OW50199   7.389   0.191   4.441 -0.4108  0.0637  0.1513
16448SOL    HW150200   7.460   0.213   4.501 -0.1952  0.3898 -0.2248
16448SOL    HW250201   7.408   0.240   4.361 -0.0942 -1.2305 -0.5934
16449SOL     OW50202   1.596   2.070   2.890 -0.1136 -0.2303 -0.1904
16449SOL    HW150203   1.515   2.120   2.884 -0.1068 -0.3451 -1.6867
16449SOL    HW250204   1.639   2.103   2.969 -0.2555  1.9066 -0.9312
16450SOL     OW50205   4.332   6.581   7.774 -0.6265  0.2638 -0.2224
16450SOL    HW150206   4.427   6.591   7.777 -0.8478  3.4242 -0.5120
16450SOL    HW250207   4.317   6.504   7.719  1.7379  0.5326 -1.3497
16451SOL     OW50208   1.424   6.268   2.129 -0.3610  0.9167  0.6570
16451SOL    HW150209   1.332   6.245   2.119 -0.2402  1.3018 -2.2271
16451SOL    HW250210   1.426   6.363   2.128  0.1348  0.9109 -0.5750
16452SOL     OW50211   5.677   3.407   6.761 -0.3677  0.2652 -0.3615
16452SOL    HW150212   5.668   3.465   6.686  2.5275 -0.5106 -1.4679
16452SOL    HW250213   5.663   3.319   6.725  2.5123 -0.2557 -0.5054
16453SOL     OW50214   8.003   5.868   0.485 -0.2258 -0.6725  0.0466
16453SOL    HW150215   7.976   5.892   0.573 -0.0150 -1.4261  0.3224
16453SOL    HW250216   7.927   5.824   0.447 -0.3427 -0.2836 -0.1844
16454SOL     OW50217   6.115   0.632   5.444  0.6919  0.1992  0.4648
16454SOL    HW150218   6.107   0.710   5.389 -2.7191 -0.1041  0.2853
16454SOL    HW250219   6.063   0.565   5.398 -0.3815 -0.7504  2.8888
16455SOL     OW50220   0.428   1.775   1.196  0.4425 -0.4394 -0.1417
16455SOL    HW150221   0.414   1.728   1.279 -0.5617  0.6680  0.3507
16455SOL    HW250222   0.517   1.809   1.202  0.3182 -0.2220  0.5830
16456SOL     OW50223   5.717   2.225   6.522 -0.0668 -0.2092  0.0936
16456SOL    HW150224   5.737   2.314   6.493  0.0443 -0.0491  0.6548
16456SOL    HW250225   5.762   2.216   6.606  0.3243 -0.9668 -0.1903
16457SOL     OW50226   3.165   3.811   7.504  0.0832  0.2162 -0.2974
16457SOL    HW150227   3.242   3.866   7.491  0.4908 -0.5726 -1.3048
16457SOL    HW250228   3.183   3.763   7.585  0.7423 -0.1183 -0.6414
16458SOL     OW50229   7.845   1.506   0.235 -0.3852 -0.0326  0.0484
16458SOL    HW150230   7.910   1.570   0.205 -2.6074  1.6733 -1.5176
16458SOL    HW250231   7.887   1.461   0.308  1.7910  2.3515  0.4106
16459SOL     OW50232   4.470   2.899   6.698  0.0621 -0.4822  0.4862
16459SOL    HW150233   4.390   2.848   6.686 -0.3494  0.6644 -2.9377
16459SOL    HW250234   4.439   2.989   6.713  0.6862 -0.2582  0.4735
16460SOL     OW50235   7.355   3.334   6.587  0.5039  0.1477  0.3985
16460SOL    HW150236   7.336   3.240   6.590 -0.2144  0.2382 -0.6606
16460SOL    HW250237   7.374   3.351   6.495  1.7158  0.8538  0.7557
16461SOL     OW50238   4.531   1.756   3.810 -0.4306 -0.1799 -0.5035
16461SOL    HW150239   4.505   1.670   3.841 -0.8989  0.2577  0.3510
16461SOL    HW250240   4.482   1.768   3.728 -2.3219  0.2733  0.6279
16462SOL     OW50241   1.033   5.777   5.016  0.2220 -0.1520 -0.0161
16462SOL    HW150242   0.969   5.795   5.085  1.0467  0.3807  0.6371
16462SOL    HW250243   0.990   5.714   4.959 -0.6420 -0.2881  0.7610
16463SOL     OW50244   0.404   1.149   1.604  0.0838 -0.2950  0.1588
16463SOL    HW150245   0.378   1.217   1.542 -1.8707 -0.7589  0.3923
16463SOL    HW250246   0.333   1.085   1.600  1.0912 -1.5296  1.1290
16464SOL     OW50247   0.440   6.499   2.724  0.0183 -0.2128 -0.0840
16464SOL    HW150248   0.403   6.533   2.643 -1.5852  0.9331  1.0621
16464SOL    HW250249   0.445   6.575   2.782 -1.8507 -1.4920  1.9191
16465SOL     OW50250   5.905   7.821   0.389  0.7978 -0.1227 -0.2210
16465SOL    HW150251   5.973   7.754   0.397  1.1460  0.0489 -1.4725
16465SOL    HW250252   5.931   7.890   0.450  1.1352 -0.5601  0.1315
16466SOL     OW50253   1.367   7.770   2.930 -0.1422 -0.2759 -0.2518
16466SOL    HW150254   1.460   7.757   2.951 -0.3952  0.1313  1.2260
16466SOL    HW250255   1.365   7.854   2.884 -0.0959  1.3870  2.5713
16467SOL     OW50256   1.088   4.208   2.037  0.4368  0.0124  0.0032
16467SOL    HW150257   1.041   4.159   1.969  0.4971  0.8106 -0.6315
16467SOL    HW250258   1.141   4.142   2.082 -1.2158 -0.8821  0.6932
16468SOL     OW50259   3.783   4.333   7.568 -0.8352  0.1837 -1.0594
16468SOL    HW150260   3.827   4.323   7.483  0.0949 -0.7728 -0.4908
16468SOL    HW250261   3.789   4.246   7.608  0.1170  0.9733  0.6268
16469SOL     OW50262   4.197   1.251   5.784  0.1757  0.5033  0.1110
16469SOL    HW150263   4.263   1.321   5.781  1.4847 -0.7182 -2.7953
16469SOL    HW250264   4.241   1.174   5.750 -2.1669 -0.9298  0.0759
16470SOL     OW50265   5.893   7.650   3.742  0.0854  0.1317 -0.4170
16470SOL    HW150266   5.809   7.609   3.764 -0.6094  1.1815 -1.0319
16470SOL    HW250267   5.879   7.688   3.655  0.5388  1.9830  0.2624
16471SOL     OW50268   0.045   5.147   6.931 -0.2003 -0.2911  0.2475
16471SOL    HW150269   0.074   5.140   6.840  2.4834 -0.3265  1.0327
16471SOL    HW250270  -0.017   5.220   6.931  1.0981  0.8723 -1.3223
16472SOL     OW50271   4.924   7.380   1.988  0.2943  0.1695 -0.3140
16472SOL    HW150272   4.853   7.432   1.950 -0.7456 -0.5542  0.5791
16472SOL    HW250273   4.956   7.327   1.915 -1.1521 -0.6434 -0.3916
16473SOL     OW50274   5.932   1.433   0.878  0.4052  0.2849  1.0013
16473SOL    HW150275   5.885   1.367   0.827  1.4550  0.2177  0.0818
16473SOL    HW250276   5.941   1.394   0.965  1.3761 -0.9734  0.3555
16474SOL     OW50277   6.194   2.232   2.375 -0.4991 -0.6689  0.0871
16474SOL    HW150278   6.188   2.254   2.468 -2.7904 -0.3635 -0.0757
16474SOL    HW250279   6.253   2.298   2.339  1.0676 -1.2731  1.4326
16475SOL     OW50280   4.421   1.759   2.910 -0.4807  0.1236  0.2781
16475SOL    HW150281   4.456   1.709   2.983  0.2359  1.1177  0.6554
16475SOL    HW250282   4.400   1.694   2.843  2.2700 -0.5793 -0.0204
16476SOL     OW50283   1.978   6.209   6.454  0.1342  0.5269  0.3007
16476SOL    HW150284   1.926   6.164   6.521 -1.4074 -0.1539 -1.2601
16476SOL    HW250285   2.045   6.145   6.430 -2.4133 -1.4613 -2.3488
16477SOL     OW50286   6.381   7.656   6.250 -0.2679  0.5360 -0.7494
16477SOL    HW150287   6.419   7.606   6.322 -1.3433 -0.7835 -1.0517
16477SOL    HW250288   6.383   7.746   6.281 -0.6307  0.0168  0.9255
16478SOL     OW50289   4.256   1.979   7.034 -0.2300  0.2111  0.2663
16478SOL    HW150290   4.220   1.975   6.945 -2.4667  0.2007  1.1037
16478SOL    HW250291   4.228   1.897   7.074  1.9288 -0.4179  0.6342
16479SOL     OW50292   6.322   7.093   1.658  0.1821  0.0684  0.3618
16479SOL    HW150293   6.320   7.184   1.629  2.9231  0.0556 -0.1707
16479SOL    HW250294   6.276   7.045   1.590  0.4332  0.8592 -0.3857
16480SOL     OW50295   7.475   6.874   6.848 -0.7481 -0.0232  0.4490
16480SOL    HW150296   7.405   6.910   6.793  1.6454  0.3389 -2.6970
16480SOL    HW250297   7.494   6.789   6.808  1.4448  0.4729  0.3455
16481SOL     OW50298   6.168   5.669   4.571 -0.2466  0.6776  0.1912
16481SOL    HW150299   6.087   5.694   4.615 -1.1888 -0.6067 -0.7369
16481SOL    HW250300   6.176   5.574   4.587  1.1483  0.7964  0.3801
16482SOL     OW50301   5.265   2.011   7.209 -0.1094 -0.3319  0.1762
16482SOL    HW150302   5.345   1.973   7.244  1.1433  0.4968 -1.6427
16482SOL    HW250303   5.231   1.944   7.149  0.9925  0.5024 -1.4625
16483SOL     OW50304   1.804   2.863   5.388  0.0819  0.6917  0.5570
16483SOL    HW150305   1.886   2.850   5.436 -0.1337  0.0698  0.7656
16483SOL    HW250306   1.808   2.800   5.317 -0.1547  0.7566  0.4880
16484SOL     OW50307   1.119   7.746   7.778  0.2483  0.4086 -0.6220
16484SOL    HW150308   1.118   7.827   7.727  1.5451  1.1014  0.3850
16484SOL    HW250309   1.117   7.677   7.713 -1.4914  1.2166 -1.4897
16485SOL     OW50310   6.927   4.593   3.892  0.5127 -0.3764 -0.1419
16485SOL    HW150311   6.963   4.538   3.961  3.7515  2.1493  0.4084
16485SOL    HW250312   6.966   4.679   3.907 -1.3718  1.1531 -3.1136
16486SOL     OW50313   6.552   2.609   2.363  0.1810  0.0895 -0.5269
16486SOL    HW150314   6.578   2.684   2.309 -0.1210  1.3580  1.0223
16486SOL    HW250315   6.612   2.611   2.438 -0.0069 -1.0837 -0.3185
16487SOL     OW50316   1.616   6.577   7.160 -0.3935  0.1735  0.2692
16487SOL    HW150317   1.591   6.668   7.177  3.0339  1.3130 -0.0877
16487SOL    HW250318   1.606   6.533   7.245 -2.6064  0.6323  0.3216
16488SOL     OW50319   2.109   2.023   6.633  0.0216  0.5662 -0.1865
16488SOL    HW150320   2.130   1.934   6.605 -1.7022  0.4294 -1.1588
16488SOL    HW250321   2.190   2.055   6.673  1.1034 -0.9365 -1.0707
16489SOL     OW50322   3.624   6.627   3.360  0.2311  0.3065 -0.2383
16489SOL    HW150323   3.570   6.706   3.369  2.2993  1.5980  1.8622
16489SOL    HW250324   3.611   6.601   3.269 -2.9148  1.2112 -0.1947
16490SOL     OW50325   5.993   3.043   5.755  0.5989 -0.4473  0.0350
16490SOL    HW150326   6.002   3.073   5.665  2.0392  1.7571  0.8071
16490SOL    HW250327   5.939   3.110   5.797  0.9392 -0.7947  1.0591
16491SOL     OW50328   2.891   7.624   0.556 -0.0549 -0.6495  0.4258
16491SOL    HW150329   2.917   7.633   0.648 -0.1396 -1.3526  0.5253
16491SOL    HW250330   2.916   7.535   0.533  1.5428  0.0645 -0.7548
16492SOL     OW50331   0.851   7.533   5.666 -0.2523 -0.0229  0.2726
16492SOL    HW150332   0.871   7.462   5.604  1.3837  0.6857 -0.0703
16492SOL    HW250333   0.782   7.583   5.623 -3.0294 -2.5317  1.4553
16493SOL     OW50334   1.721   0.966   1.239 -0.2755 -0.2108  0.4557
16493SOL    HW150335   1.629   0.946   1.228 -0.0316 -0.7554 -0.7793
16493SOL    HW250336   1.766   0.884   1.219  0.4716  0.0271  1.1207
16494SOL     OW50337   4.079   2.700   3.160  0.4541 -0.8518  0.5962
16494SOL    HW150338   4.068   2.721   3.068  0.7406  0.1911  0.7842
16494SOL    HW250339   3.991   2.677   3.190  0.5207 -2.1742 -0.1488
16495SOL     OW50340   0.283   1.002   2.637  0.0320 -0.3781  0.0187
16495SOL    HW150341   0.238   1.017   2.554  0.3737  0.9643  0.0594
16495SOL    HW250342   0.286   0.907   2.645 -0.8000 -0.5184 -1.0698
16496SOL     OW50343   5.206   7.494   3.380  0.0875 -0.0145 -0.2199
16496SOL    HW150344   5.279   7.483   3.319  1.1554 -0.0179  1.0209
16496SOL    HW250345   5.240   7.551   3.448 -0.3798 -1.6358  1.4640
16497SOL     OW50346   2.477   4.890   7.081 -0.0534 -0.5120 -0.3584
16497SOL    HW150347   2.504   4.874   7.172 -0.1853 -0.0311 -0.2281
16497SOL    HW250348   2.396   4.940   7.089  1.0279  1.4072 -0.7013
16498SOL     OW50349   4.909   7.433   5.098 -0.3364 -0.3779  0.7736
16498SOL    HW150350   4.814   7.434   5.091 -0.2923 -0.8729 -0.0147
16498SOL    HW250351   4.936   7.524   5.083 -0.5996 -0.4930 -0.5405
16499SOL     OW50352   3.715   1.834   0.534  0.5673 -0.0225 -0.1261
16499SOL    HW150353   3.749   1.906   0.588  0.9705 -0.2312 -0.1064
16499SOL    HW250354   3.619   1.845   0.540  0.5963 -0.1832  0.8321
16500SOL     OW50355   0.235   4.193   1.964 -0.1220 -0.5351  0.1800
16500SOL    HW150356   0.220   4.257   2.034  1.7373  0.5039 -0.3025
16500SOL    HW250357   0.183   4.117   1.989 -0.3822  0.2240  2.1028
16501SOL     OW50358   2.245   2.783   3.601 -0.0996 -0.1631  0.3310
16501SOL    HW150359   2.315   2.776   3.536 -0.7050 -0.3789 -0.3200
16501SOL    HW250360   2.165   2.775   3.550 -0.6336  1.0618  0.9256
16502SOL     OW50361   2.987   6.481   5.816  0.2152 -0.1641 -0.2591
16502SOL    HW150362   2.985   6.477   5.912  0.7938  0.3103 -0.2230
16502SOL    HW250363   3.043   6.408   5.791  1.7223  0.8927 -0.1240
16503SOL     OW50364   3.545   1.144   6.037  0.2421 -0.5087  0.4771
16503SOL    HW150365   3.527   1.108   5.949 -1.3653  0.8434  0.2044
16503SOL    HW250366   3.640   1.145   6.043  0.5170  1.4346 -2.1862
16504SOL     OW50367   6.960   0.683   1.537 -0.2013 -0.5842 -0.1859
16504SOL    HW150368   6.869   0.696   1.564  0.1434  0.5499  0.4817
16504SOL    HW250369   6.986   0.766   1.497 -0.1242 -1.6094 -2.4455
16505SOL     OW50370   0.012   7.960   5.593 -0.1485 -0.0443  0.0941
16505SOL    HW150371  -0.058   8.022   5.576 -0.4331 -0.5746 -0.7058
16505SOL    HW250372   0.071   7.968   5.518  0.1527 -0.2808  0.2992
16506SOL     OW50373   0.023   6.135   1.493 -0.6485  0.3461  0.1479
16506SOL    HW150374  -0.018   6.222   1.503 -2.5220 -0.7304  3.6102
16506SOL    HW250375   0.092   6.134   1.559 -0.6310 -0.7849  0.1207
16507SOL     OW50376   0.363   4.903   5.072  0.4456  0.0177 -0.0353
16507SOL    HW150377   0.338   4.948   5.153 -1.3980  0.1654 -0.6341
16507SOL    HW250378   0.430   4.841   5.098  2.2442  2.2805  1.0272
16508SOL     OW50379   6.147   4.356   4.410  0.0151  0.4169  0.2682
16508SOL    HW150380   6.161   4.430   4.470 -2.0678  2.9909 -2.1252
16508SOL    HW250381   6.221   4.359   4.350 -0.3717  1.0285 -0.1974
16509SOL     OW50382   2.996   4.718   2.639  0.1054  0.1730 -0.5051
16509SOL    HW150383   2.983   4.704   2.732  1.6164 -1.1923 -0.4415
16509SOL    HW250384   2.947   4.647   2.597 -1.8145  1.6492 -0.8775
16510SOL     OW50385   6.003   0.922   3.254  0.4730 -0.5517 -0.0680
16510SOL    HW150386   6.030   0.857   3.319  1.1814 -0.7084 -0.5060
16510SOL    HW250387   5.912   0.901   3.235  0.2281 -0.4648  0.9197
16511SOL     OW50388   6.318   6.491   0.033  0.1911  0.4622 -0.9131
16511SOL    HW150389   6.395   6.520  -0.016  0.4904  0.9606 -0.1694
16511SOL    HW250390   6.354   6.436   0.102 -0.2861 -0.8586 -1.6747
16512SOL     OW50391   7.255   0.290   3.330 -0.0180 -0.2939 -0.2461
16512SOL    HW150392   7.286   0.309   3.419 -0.9385  0.3466 -0.0475
16512SOL    HW250393   7.320   0.330   3.273  0.0021  0.2682  0.1559
16513SOL     OW50394   4.681   2.363   0.901  0.3400 -0.5208 -0.0031
16513SOL    HW150395   4.660   2.290   0.960 -1.8197  0.1561  0.1705
16513SOL    HW250396   4.714   2.321   0.822 -1.1817 -1.7605 -0.0403
16514SOL     OW50397   5.018   6.072   6.748  0.0531  0.6079  0.0725
16514SOL    HW150398   5.063   6.143   6.794 -1.6198  1.4077  0.5313
16514SOL    HW250399   4.975   6.022   6.817 -0.1167  0.1010 -0.3894
16515SOL     OW50400   1.990   5.676   7.043  0.2589 -0.4416  0.5352
16515SOL    HW150401   1.969   5.748   7.102  1.9803  1.2621 -0.7823
16515SOL    HW250402   2.006   5.601   7.101  0.2410  0.7058  2.0927
16516SOL     OW50403   0.848   1.094   7.651 -0.4024  0.4245 -0.1531
16516SOL    HW150404   0.896   1.128   7.727 -1.0317 -0.4794  0.6841
16516SOL    HW250405   0.916   1.056   7.596  0.2275  2.3297 -0.7703
16517SOL     OW50406   5.334   6.679   3.311 -0.1407 -0.1208  0.3803
16517SOL    HW150407   5.412   6.675   3.256 -0.0534  1.7505  0.3230
16517SOL    HW250408   5.261   6.686   3.249 -0.4011 -1.8614  0.4336
16518SOL     OW50409   2.091   6.974   5.944 -0.2585 -0.2900 -0.1232
16518SOL    HW150410   2.098   6.899   6.004 -1.6302 -0.2600  0.0999
16518SOL    HW250411   2.085   7.050   6.002  0.3474 -0.0639 -0.3439
16519SOL     OW50412   2.734   1.728   5.370  0.2479  0.1713  0.1790
16519SOL    HW150413   2.674   1.686   5.432  0.8071 -0.8263  0.0622
16519SOL    HW250414   2.710   1.692   5.285  0.3029  0.5977 -0.0194
16520SOL     OW50415   5.523   4.017   5.781  0.0384  0.3513 -0.1185
16520SOL    HW150416   5.434   4.028   5.814 -0.8342  0.0658 -2.2717
16520SOL    HW250417   5.575   4.001   5.860 -1.5191  2.0738  1.3615
16521SOL     OW50418   7.643   3.590   5.568 -0.0610  0.2707  0.0030
16521SOL    HW150419   7.602   3.505   5.586 -2.7080  1.2863 -0.6766
16521SOL    HW250420   7.577   3.654   5.598  0.3906  2.0469 -2.5256
16522SOL     OW50421   3.916   0.307   5.955 -0.5871 -0.2125 -0.1351
16522SOL    HW150422   3.841   0.270   6.000 -0.9785  1.3100  0.5309
16522SOL    HW250423   3.909   0.275   5.865 -0.0407 -2.9471  0.6867
16523SOL     OW50424   8.003   1.682   2.366  0.4558  0.1061  0.1749
16523SOL    HW150425   7.973   1.706   2.454 -0.6456  0.4528 -0.2766
16523SOL    HW250426   7.971   1.753   2.310 -0.1635 -0.8721 -0.7312
16524SOL     OW50427   5.141   2.092   2.473 -0.0139  0.2298  0.2223
16524SOL    HW150428   5.139   2.069   2.565 -0.3773  0.2867  0.2319
16524SOL    HW250429   5.124   2.010   2.427  0.9748  0.0391  0.1717
16525SOL     OW50430   3.464   7.262   2.777  0.2350 -0.1356  0.0768
16525SOL    HW150431   3.375   7.259   2.811 -0.3471  0.6857 -1.2941
16525SOL    HW250432   3.473   7.350   2.741  1.9814  0.1690  1.1363
16526SOL     OW50433   7.466   6.133   1.398  0.1527  0.2410 -0.4229
16526SOL    HW150434   7.380   6.127   1.357  0.2320 -0.3304 -0.5174
16526SOL    HW250435   7.471   6.222   1.432  0.6084  1.1765 -2.7859
16527SOL     OW50436   4.687   0.977   0.933  0.4460 -0.9577 -0.5620
16527SOL    HW150437   4.727   0.973   0.846  1.5843 -0.8485 -0.0566
16527SOL    HW250438   4.684   0.886   0.962 -2.4034 -1.3650 -1.7544
16528SOL     OW50439   6.598   6.987   7.771 -0.3152  0.2146  0.3349
16528SOL    HW150440   6.536   6.922   7.736 -0.4198 -0.7066  2.1454
16528SOL    HW250441   6.560   7.071   7.745 -1.3145 -0.3791 -0.2277
16529SOL     OW50442   7.472   0.947   4.125  0.2241 -0.1049 -0.0511
16529SOL    HW150443   7.499   1.025   4.077  3.2605 -1.0033 -0.0387
16529SOL    HW250444   7.406   0.905   4.070 -1.5582  2.4235 -0.0082
16530SOL     OW50445   3.421   5.839   5.403  0.2862  0.5239  0.1175
16530SOL    HW150446   3.459   5.828   5.491  1.2682 -1.3772 -0.4839
16530SOL    HW250447   3.487   5.888   5.355  0.1769  0.7423  0.1930
16531SOL     OW50448   0.491   4.603   5.014 -0.4109  1.0378 -0.1877
16531SOL    HW150449   0.422   4.636   4.957 -0.2415  2.4851  0.3958
16531SOL    HW250450   0.555   4.563   4.955 -1.1345  0.8301 -0.8316
16532SOL     OW50451   0.473   6.306   6.018 -0.0606  0.3701  0.9168
16532SOL    HW150452   0.439   6.346   6.098 -1.4626 -0.2987  0.6906
16532SOL    HW250453   0.479   6.378   5.955  0.7902  0.8462  1.5218
16533SOL     OW50454   2.223   5.267   5.627  0.1042 -0.2507 -0.3764
16533SOL    HW150455   2.257   5.328   5.562  0.2104 -1.3422 -1.3931
16533SOL    HW250456   2.153   5.220   5.581 -1.2421  0.3609  0.9577
16534SOL     OW50457   6.806   6.245   5.128  0.1910  0.0762 -0.0661
16534SOL    HW150458   6.768   6.208   5.207  0.7293  2.2590  1.3155
16534SOL    HW250459   6.844   6.328   5.157 -0.2294  1.3158 -2.7637
16535SOL     OW50460   7.756   1.758   4.144 -0.0644  0.0965  0.1279
16535SOL    HW150461   7.817   1.829   4.165 -0.6614  0.8367 -0.5399
16535SOL    HW250462   7.798   1.712   4.071 -0.6225  1.0836 -0.8569
16536SOL     OW50463   6.326   2.426   3.110  0.0060 -0.2810 -0.6462
16536SOL    HW150464   6.318   2.504   3.164 -0.4967 -0.1208 -0.9488
16536SOL    HW250465   6.246   2.425   3.057  0.7013 -0.1828 -1.7256
16537SOL     OW50466   5.458   2.657   3.616  0.4103  0.1855 -0.0068
16537SOL    HW150467   5.436   2.566   3.596  2.8093 -0.6121  0.6612
16537SOL    HW250468   5.410   2.676   3.697 -0.0519 -0.5031 -0.1125
16538SOL     OW50469   0.874   6.020   5.671  0.6706  0.2156 -0.2722
16538SOL    HW150470   0.884   6.106   5.629  0.0286 -0.1295 -1.1695
16538SOL    HW250471   0.795   6.029   5.725  0.6262  0.2001 -0.3349
16539SOL     OW50472   7.546   7.015   1.996 -0.0420  0.3582  0.1276
16539SOL    HW150473   7.478   7.082   1.986  0.8326  1.0256 -1.6371
16539SOL    HW250474   7.605   7.050   2.062 -0.0379  0.9496 -0.1859
16540SOL     OW50475   4.326   7.869   0.300  0.2232 -0.3815  0.0484
16540SOL    HW150476   4.300   7.825   0.380 -1.5605 -1.4598 -1.0695
16540SOL    HW250477   4.403   7.820   0.269  0.3333 -0.5530  0.5889
16541SOL     OW50478   1.359   2.924   4.349  0.0958 -0.1688 -0.0034
16541SOL    HW150479   1.431   2.862   4.334  0.3852  0.1888 -0.0933
16541SOL    HW250480   1.378   2.998   4.292 -1.0103 -0.5985 -0.9904
16542SOL     OW50481   2.615   2.277   0.294  0.0245  0.7582 -0.1968
16542SOL    HW150482   2.688   2.242   0.345  0.9611  1.7764 -0.8082
16542SOL    HW250483   2.556   2.202   0.284  0.7001  0.0622  0.7922
16543SOL     OW50484   3.756   4.554   6.908  0.0890 -0.0019  0.6346
16543SOL    HW150485   3.729   4.485   6.968 -2.4925 -0.1189 -0.5197
16543SOL    HW250486   3.750   4.634   6.960 -0.8037 -0.2457  0.9281
16544SOL     OW50487   6.198   5.227   5.970  0.1355 -0.3996 -0.1947
16544SOL    HW150488   6.236   5.145   6.001  1.4116  0.6001  1.0256
16544SOL    HW250489   6.229   5.236   5.880 -0.8130 -1.6931 -0.6770
16545SOL     OW50490   7.602   2.367   4.734 -0.2410  0.8221  0.1356
16545SOL    HW150491   7.539   2.299   4.710 -0.2627  0.6131  0.7727
16545SOL    HW250492   7.618   2.415   4.652 -0.5306  0.3057 -0.2262
16546SOL     OW50493   3.042   0.702   4.822  0.0164  0.6870  0.0030
16546SOL    HW150494   2.959   0.749   4.825 -1.0075 -1.0924  0.7000
16546SOL    HW250495   3.045   0.665   4.733  0.0935  0.8014 -0.0421
16547SOL     OW50496   3.831   0.214   1.754  0.1635 -0.0800  0.0795
16547SOL    HW150497   3.744   0.179   1.773  1.0553 -1.7983  1.3086
16547SOL    HW250498   3.869   0.152   1.691  1.0188 -0.2092  0.7018
16548SOL     OW50499   7.034   2.889   0.725  0.9854  0.5928  0.0183
16548SOL    HW150500   7.104   2.838   0.766  0.7184  1.2799  1.3799
16548SOL    HW250501   7.075   2.928   0.647  2.0558  0.7772  0.6518
16549SOL     OW50502   1.120   6.050   0.456 -0.2210 -0.0673  0.2110
16549SOL    HW150503   1.059   6.078   0.524 -0.9643  1.3621 -0.9842
16549SOL    HW250504   1.202   6.095   0.477 -0.6395  0.9163 -0.1640
16550SOL     OW50505   5.372   1.492   4.752 -0.0280  0.1249 -0.3795
16550SOL    HW150506   5.322   1.446   4.819  0.3567 -1.3991 -1.0865
16550SOL    HW250507   5.354   1.584   4.768 -2.7628 -0.3126 -0.3353
16551SOL     OW50508   4.087   6.464   1.409 -0.1200  0.2881  0.1188
16551SOL    HW150509   4.036   6.404   1.463  0.3019 -0.6240 -0.4687
16551SOL    HW250510   4.162   6.412   1.379 -1.1884  0.2161 -2.6920
16552SOL     OW50511   2.360   0.293   6.680 -0.2549  0.2844  0.1055
16552SOL    HW150512   2.329   0.374   6.720  2.2265  1.1669  0.4004
16552SOL    HW250513   2.390   0.240   6.753  0.2345  0.0598 -0.2552
16553SOL     OW50514   5.665   0.558   1.151 -0.2413  0.2525  0.0597
16553SOL    HW150515   5.661   0.607   1.233 -0.3543  1.4506 -0.6428
16553SOL    HW250516   5.666   0.466   1.179  0.0002  0.6331  1.4062
16554SOL     OW50517   6.761   5.417   7.906 -0.2181 -0.4508  0.4356
16554SOL    HW150518   6.775   5.351   7.838  0.5091 -1.4779  1.5435
16554SOL    HW250519   6.845   5.422   7.953 -0.3013  1.1638  0.4799
16555SOL     OW50520   3.113   4.087   0.521 -1.0967  0.4316 -0.2901
16555SOL    HW150521   3.143   4.133   0.599  0.0828 -1.0253  0.1606
16555SOL    HW250522   3.188   4.091   0.461 -0.9881 -0.7643 -0.2701
16556SOL     OW50523   5.383   2.210   4.249 -0.3076  0.0295  0.1750
16556SOL    HW150524   5.311   2.269   4.227 -0.5715  0.0113  0.9700
16556SOL    HW250525   5.458   2.269   4.264 -0.1613  0.0503 -0.6055
16557SOL     OW50526   4.770   4.064   6.504  0.7408  0.2509  0.2707
16557SOL    HW150527   4.765   4.050   6.599  2.6781  0.7061  0.4900
16557SOL    HW250528   4.737   4.153   6.492  0.9308  0.3676  0.5823
16558SOL     OW50529   2.094   1.532   4.720 -0.4586 -0.0050  0.2519
16558SOL    HW150530   2.036   1.489   4.783  1.5325 -2.3119  0.6348
16558SOL    HW250531   2.181   1.502   4.743  0.5629  0.7213 -2.3434
16559SOL     OW50532   5.679   1.844   1.987  0.0289 -0.7489 -0.1940
16559SOL    HW150533   5.593   1.863   1.948  0.9831 -0.0594 -2.0900
16559SOL    HW250534   5.709   1.929   2.020 -0.5909 -1.2542  1.8008
16560SOL     OW50535   0.228   2.335   3.542 -0.1333  0.2598  0.4524
16560SOL    HW150536   0.210   2.255   3.593 -1.3189 -0.7157 -1.3898
16560SOL    HW250537   0.206   2.311   3.452  3.8613  1.2099 -1.0047
16561SOL     OW50538   3.508   3.778   0.338  0.2788  0.0435 -0.8237
16561SOL    HW150539   3.454   3.700   0.325  0.0291 -0.0632  0.6704
16561SOL    HW250540   3.588   3.761   0.287 -0.1367 -0.7949 -1.2137
16562SOL     OW50541   3.049   4.568   6.215  0.3638  0.0430 -0.2714
16562SOL    HW150542   3.044   4.657   6.250  0.7772 -0.2233  0.4970
16562SOL    HW250543   2.997   4.571   6.134 -2.0758  0.2714  1.1989
16563SOL     OW50544   2.139   7.445   3.561  0.1302  0.1944 -0.1667
16563SOL    HW150545   2.161   7.538   3.559  0.4121  0.1181 -1.4245
16563SOL    HW250546   2.222   7.401   3.540  0.1022 -0.3654  0.8536
16564SOL     OW50547   6.085   2.088   6.785 -0.2846  0.2367 -0.7839
16564SOL    HW150548   6.137   2.019   6.825 -0.9684  0.0554 -0.1872
16564SOL    HW250549   6.133   2.169   6.805 -0.7314  0.1793  0.6488
16565SOL     OW50550   4.690   0.034   2.522  0.0896  0.2234 -0.1073
16565SOL    HW150551   4.634  -0.043   2.510 -0.1052  0.3591 -0.0864
16565SOL    HW250552   4.778   0.005   2.498  0.1104 -0.1485  0.3978
16566SOL     OW50553   1.475   7.483   1.188  0.1395  0.2959  0.0135
16566SOL    HW150554   1.466   7.540   1.265  0.0893 -0.6620  0.7461
16566SOL    HW250555   1.388   7.482   1.148  0.1197  0.6602  0.0467
16567SOL     OW50556   7.580   7.044   3.561  0.1014 -0.0711 -0.2589
16567SOL    HW150557   7.520   6.975   3.592  0.2094 -1.1500 -2.2974
16567SOL    HW250558   7.623   7.006   3.484  3.2969  0.7124  0.9594
16568SOL     OW50559   3.781   3.772   1.526 -0.1872 -0.0415 -0.3476
16568SOL    HW150560   3.856   3.757   1.584  0.7161  0.5088 -1.3264
16568SOL    HW250561   3.719   3.820   1.579  1.3967  2.1095 -0.3169
16569SOL     OW50562   3.476   7.295   2.176  0.5040 -0.2058  0.4469
16569SOL    HW150563   3.452   7.270   2.087 -0.6436  0.0730  0.6548
16569SOL    HW250564   3.408   7.257   2.231  1.1463 -0.2942  1.2008
16570SOL     OW50565   3.147   5.085   7.296  0.3482 -0.2788  0.0836
16570SOL    HW150566   3.087   5.012   7.285 -0.2104  0.2524 -0.4666
16570SOL    HW250567   3.228   5.045   7.329 -0.0459 -1.0970  0.0781
16571SOL     OW50568   6.424   6.139   2.604 -0.3022 -0.1056 -0.1549
16571SOL    HW150569   6.354   6.141   2.538 -0.0066 -0.0572 -0.4729
16571SOL    HW250570   6.485   6.207   2.575 -1.0457  1.1651  1.1571
16572SOL     OW50571   1.498   1.688   3.340 -0.1962 -0.4205  0.0245
16572SOL    HW150572   1.543   1.605   3.321 -0.5752 -0.3677 -1.1647
16572SOL    HW250573   1.409   1.663   3.362 -0.5926 -0.2836 -1.3382
16573SOL     OW50574   1.025   2.250   6.957  0.0425  0.4305 -0.3580
16573SOL    HW150575   1.046   2.178   6.897  1.7777 -0.0532  0.7548
16573SOL    HW250576   1.033   2.212   7.044  1.7887  2.1309  0.2928
16574SOL     OW50577   4.349   4.936   1.254 -0.1506  0.6978 -0.5851
16574SOL    HW150578   4.312   4.933   1.342 -1.9585 -0.4163 -1.3379
16574SOL    HW250579   4.334   4.849   1.218  0.6771  1.0876 -1.9687
16575SOL     OW50580   7.019   7.547   0.445 -0.0111  0.0317 -0.1265
16575SOL    HW150581   7.094   7.602   0.467  0.2444  0.0366 -0.9564
16575SOL    HW250582   6.957   7.561   0.516  0.6862  0.1932  0.4579
16576SOL     OW50583   6.235   7.024   2.944 -0.2522 -0.5300  0.7074
16576SOL    HW150584   6.190   7.081   3.006 -0.5535 -0.8054  0.7442
16576SOL    HW250585   6.190   6.939   2.952 -0.3299 -0.5538  0.0779
16577SOL     OW50586   7.092   4.399   2.908  0.6180 -0.1363 -0.6088
16577SOL    HW150587   7.187   4.393   2.921  0.7342 -0.4688 -1.4729
16577SOL    HW250588   7.076   4.491   2.886  0.7059 -0.0280 -0.2194
16578SOL     OW50589   3.031   5.385   5.119 -0.1004 -0.0310 -0.1020
16578SOL    HW150590   3.114   5.339   5.105 -0.3086 -0.2878 -0.5162
16578SOL    HW250591   2.964   5.318   5.106 -0.4073  0.3726 -0.6775
16579SOL     OW50592   4.251   7.085   2.148  0.0756  0.5212  0.1392
16579SOL    HW150593   4.170   7.062   2.104  0.0773  0.6587  0.0618
16579SOL    HW250594   4.284   7.161   2.100 -0.3024  1.1334  0.8215
16580SOL     OW50595   7.161   5.644   5.332  0.0936  0.2582 -0.3143
16580SOL    HW150596   7.236   5.587   5.347 -0.5283 -0.7453 -0.8801
16580SOL    HW250597   7.138   5.629   5.241 -0.6113  0.7718 -0.2263
16581SOL     OW50598   5.772   7.786   5.536  0.1538 -0.1796  0.4552
16581SOL    HW150599   5.792   7.764   5.445 -1.4633 -0.5739  0.1617
16581SOL    HW250600   5.843   7.845   5.562  1.8190 -1.7049 -0.3596
16582SOL     OW50601   0.178   1.202   7.221  0.0878  0.4627 -0.7533
16582SOL    HW150602   0.183   1.190   7.126  0.9068 -0.4017 -0.6219
16582SOL    HW250603   0.224   1.284   7.238 -0.6865  0.9961 -1.1569
16583SOL     OW50604   7.169   0.079   5.140 -0.2389 -0.4420 -0.0222
16583SOL    HW150605   7.158  -0.010   5.105  1.0035 -0.2277 -1.0240
16583SOL    HW250606   7.165   0.135   5.063  0.0754  0.2784  0.4779
16584SOL     OW50607   0.924   4.350   7.203 -0.0139 -0.3130  0.2781
16584SOL    HW150608   0.935   4.386   7.291  3.4233  0.6452 -0.3766
16584SOL    HW250609   0.921   4.427   7.146  0.6837 -0.9215 -0.6146
16585SOL     OW50610   0.819   5.498   2.042 -0.0808  0.1751 -0.1420
16585SOL    HW150611   0.765   5.432   2.085  0.9388 -0.1060  0.7512
16585SOL    HW250612   0.888   5.448   1.999  0.4238  0.6281  0.1317
16586SOL     OW50613   1.173   5.899   3.475  0.1254 -0.6964  0.1174
16586SOL    HW150614   1.260   5.881   3.440 -0.2412 -0.5157 -0.9220
16586SOL    HW250615   1.120   5.920   3.398 -1.5073 -3.3653  0.3880
16587SOL     OW50616   5.226   0.759   7.329  0.0028 -0.2390  0.2518
16587SOL    HW150617   5.142   0.802   7.345 -0.0163 -0.4569  0.7422
16587SOL    HW250618   5.291   0.813   7.374  0.3409  0.7565 -1.3272
16588SOL     OW50619   3.572   7.425   0.274 -0.2234 -0.1152 -0.5929
16588SOL    HW150620   3.574   7.357   0.340  0.6861  1.4980  1.1449
16588SOL    HW250621   3.481   7.425   0.242 -0.2989 -1.9174 -0.4789
16589NA      NA50622   6.072   7.322   1.096 -0.1586  0.2058 -0.1663
16590NA      NA50623   3.241   6.340   0.827 -0.0491 -0.0103 -0.3681
16591NA      NA50624   0.283   4.880   7.437  0.0097  0.4649 -0.0304
16592NA      NA50625   6.608   0.444   0.810 -0.1071  0.0249  0.0071
16593NA      NA50626   7.332   4.133   6.176  0.3279 -0.2812  0.1694
16594NA      NA50627   3.968   4.496   2.515  0.2083  0.0191  0.2124
16595NA      NA50628   6.293   2.395   6.345 -0.0751 -0.1720 -0.2674
16596NA      NA50629   7.674   6.593   6.358  0.0672 -0.4402 -0.0284
16597NA      NA50630   6.067   1.724   3.283 -0.0021 -0.1317 -0.4184
16598NA      NA50631   1.236   7.674   0.429 -0.0865  0.7295  0.0309
16599NA      NA50632   7.939   6.705   1.105 -0.1700  0.0138 -0.5160
16600NA      NA50633   5.450   0.232   7.461 -0.4542 -0.6931  0.0857
16601NA      NA50634   2.834   2.214   1.825 -0.1440  0.0516  0.0281
16602NA      NA50635   2.421   1.353   3.435 -0.0183  0.4707  0.5926
16603NA      NA50636   1.902   5.208   3.969 -0.2729  0.0153  0.1781
16604NA      NA50637   6.875   6.640   1.972  0.1572  0.0910 -0.1110
16605NA      NA50638   5.483   6.280   2.818 -0.2763 -0.6447 -0.1078
16606NA      NA50639   7.824   0.331   7.229  0.4639  0.4607  0.8901
16607NA      NA50640   4.188   1.500   1.085 -0.2874  0.4305 -0.3636
16608NA      NA50641   1.289   2.677   1.098  0.2895 -0.0532  0.0310
16609NA      NA50642   4.012   0.643   0.774  0.2440  0.2277  0.5197
16610NA      NA50643   4.362   6.313   0.978  0.0965  0.1628 -0.2064
16611NA      NA50644   7.639   4.457   4.817  0.7073 -0.4370 -0.5528
16612NA      NA50645   3.542   7.906   0.912 -0.1028  0.3104  0.7946
16613NA      NA50646   3.153   3.141   2.743 -0.0534  0.0873 -0.8410
16614NA      NA50647   3.030   5.014   5.842  0.1376  0.0041  0.0527
16615NA      NA50648   6.822   1.326   5.296  0.6007  0.4266 -0.0811
16616NA      NA50649   4.030   5.319   1.990 -0.1044 -0.5425  0.0785
16617NA      NA50650   4.508   5.673   7.619 -0.0925 -0.3476  0.6148
16618NA      NA50651   2.031   5.305   1.346 -0.1952  0.5937  0.7075
16619NA      NA50652   2.168   5.784   1.859 -0.3049 -0.1956  0.0362
16620NA      NA50653   4.657   2.739   1.929  0.1370  0.0129  0.2039
16621NA      NA50654   0.198   6.557   7.377 -0.2886  0.5246  0.1237
16622NA      NA50655   5.972   5.648   5.151 -0.0999  0.0836 -0.0017
16623NA      NA50656   0.293   3.233   7.554  0.5789 -0.4361 -0.2399
16624NA      NA50657   6.766   7.568   2.873 -0.3707 -0.4955  0.1719
16625NA      NA50658   5.873   0.864   1.727 -0.0379  0.1992 -0.2266
16626NA      NA50659   6.597   5.451   0.049 -0.1776 -0.2997 -0.2099
16627NA      NA50660   0.693   6.847   2.548  0.3288 -0.3957  0.0630
16628NA      NA50661   0.231   0.565   0.446  0.4785 -0.2503 -0.4480
16629NA      NA50662   5.640   6.726   2.414 -0.2251  0.0745 -0.3884
16630NA      NA50663   1.716   4.408   3.221  0.4164  0.1328  0.3478
16631NA      NA50664   0.939   0.634   6.881  0.5015 -0.0818  0.0149
16632NA      NA50665   3.593   6.110   3.341  0.1256 -0.2300 -0.1450
16633NA      NA50666   7.387   2.437   2.138  0.2711 -0.3462  0.5315
16634NA      NA50667   1.130   5.749   6.883  0.6892  0.1036  0.0597
16635NA      NA50668   1.610   2.979   5.368  0.3695 -0.6696  0.1072
16636CL      CL50669   5.714   6.047   4.732  0.1878  0.0616 -0.3332
16637CL      CL50670   6.176   1.592   7.718  0.5537 -0.1082  0.4097
16638CL      CL50671   6.748   0.203   7.041 -0.3064  0.2039  0.2562
16639CL      CL50672   1.647   5.967   0.369  0.0435  0.0109 -0.0486
16640CL      CL50673   6.546   5.109   2.186  0.0569 -0.0111  0.0547
16641CL      CL50674   7.357   0.681   0.309 -0.4981  0.3506 -0.0310
16642CL      CL50675   1.284   6.627   4.836 -0.0767  0.3061 -0.1767
16643CL      CL50676   6.205   7.867   0.839 -0.0556  0.0125  0.1320
16644CL      CL50677   4.368   1.215   6.574  0.3934  0.2564 -0.0594
16645CL      CL50678   0.126   5.120   6.644  0.3015  0.5486 -0.7171
16646CL      CL50679   0.854   0.519   4.971  0.1010  0.3293  0.0601
16647CL      CL50680   3.038   3.193   7.420 -0.0199  0.3738  0.1218
16648CL      CL50681   4.200   5.242   5.504  0.2361  0.5075  0.1319
16649CL      CL50682   6.194   7.281   6.450  0.0772  0.0264 -0.3052
16650CL      CL50683   0.507   6.724   6.879 -0.1350  0.2976  0.3732
16651CL      CL50684   3.218   7.124   6.135 -0.3294 -0.2749 -0.0318
16652CL      CL50685   7.790   4.285   4.871  0.0877  0.2176 -0.1957
16653CL      CL50686   6.259   1.184   4.955  0.1957 -0.2327 -0.4900
16654CL      CL50687   7.364   5.037   7.082 -0.3915  0.0350 -0.2928
16655CL      CL50688   2.215   1.930   1.540 -0.2359  0.4115  0.0014
16656CL      CL50689   2.797   1.108   5.568 -0.5241  0.0179 -0.0950
16657CL      CL50690   5.060   0.647   6.087  0.5488 -0.3505 -0.3283
16658CL      CL50691   4.502   6.259   5.270  0.2668  0.2918  0.0500
16659CL      CL50692   5.745   5.336   7.181  0.0678 -0.2057  0.4291
16660CL      CL50693   3.822   7.678   5.737  0.3979  0.1888 -0.1229
16661CL      CL50694   4.614   5.763   2.069 -0.0510  0.1482 -0.0545
16662CL      CL50695   4.899   7.798   2.352  0.1922 -0.0802  0.0397
16663CL      CL50696   3.647   0.685   0.374 -0.2256 -0.0548 -0.2341
16664CL      CL50697   4.018   1.267   5.079  0.4896 -0.3367  0.2542
16665CL      CL50698   3.132   0.522   6.273  0.1458 -0.0337 -0.1394
16666CL      CL50699   4.597   7.465   5.041 -0.4171  0.0962  0.0566
16667CL      CL50700   6.256   3.306   2.152 -0.2864  0.1036  0.1454
16668CL      CL50701   4.020   5.224   1.549 -0.3454 -0.1405 -0.0338
16669CL      CL50702   4.472   1.579   7.199 -0.1152  0.0613  0.1859
16670CL      CL50703   3.301   1.171   5.567  0.3631  0.1644  0.1006
16671CL      CL50704   3.861   6.274   1.558  0.1721 -0.0709  0.0605
16672CL      CL50705   3.645   4.966   4.037 -0.5316 -0.0879 -0.1058
16673CL      CL50706   5.275   0.986   5.025 -0.0324 -0.1865  0.1591
16674CL      CL50707   2.453   6.459   3.004  0.3598 -0.0380 -0.3124
16675CL      CL50708   1.849   3.927   0.438  0.1074  0.1897  0.1875
16676CL      CL50709   5.791   6.593   3.369  0.0587  0.2058 -0.0636
16677CL      CL50710   1.941   7.961   1.900  0.3008  0.4053 -0.0196
16678CL      CL50711   2.177   0.378   0.391 -0.0799  0.1299 -0.2547
16679CL      CL50712   2.281   2.558   5.775 -0.1794  0.1798  0.0944
16680CL      CL50713   6.412   0.554   0.892  0.3280 -0.0190 -0.0160
16681CL      CL50714   6.828   7.740   3.021  0.2104  0.0401 -0.4369
16682CL      CL50715   6.747   5.210   4.253  0.5122  0.0774  0.0687
16683CL      CL50716   5.162   2.837   7.868  0.0493  0.6531 -0.2002
16684CL      CL50717   5.214   5.039   7.660  0.1843 -0.1741  0.2055
16685CL      CL50718   2.999   0.556   7.854  0.0561  0.0309  0.0003
16686CL      CL50719   4.318   3.208   0.816  0.4122 -0.2261  0.0073
16687CL      CL50720   0.090   2.045   0.307  0.4787  0.0870  0.1636
16688CL      CL50721   2.713   4.065   0.839 -0.3606  0.1128 -0.3239
16689CL      CL50722   3.876   6.611   6.532  0.1837 -0.2141  0.2319
16690CL      CL50723   7.123   7.241   1.723  0.1581 -0.2077 -0.4431
16691CL      CL50724   6.354   7.476   0.311 -0.2620  0.4260  0.2030
16692CL      CL50725   1.860   2.641   5.086 -0.0952 -0.4147  0.0335
16693CL      CL50726   3.592   7.559   1.702 -0.5580 -0.0040 -0.2998
16694CL      CL50727   0.255   3.033   7.678 -0.4475  0.0166  0.0440
16695CL      CL50728   3.105   1.120   2.860 -0.0565 -0.1180  0.1282
16696CL      CL50729   3.166   2.555   4.417 -0.0376 -0.2037  0.1018
16697CL      CL50730   4.289   5.598   3.985  0.4254 -0.2617 -0.5996
16698CL      CL50731   0.227   3.824   2.381 -0.2307 -0.1570 -0.2125
16699CL      CL50732   6.754   5.839   6.685 -0.7929 -0.0083 -0.3004
16700CL      CL50733   0.359   5.076   5.594  0.0308 -0.2579  0.0130
16701CL      CL50734   6.766   2.210   6.005 -0.0081 -0.1169  0.0010
16702CL      CL50735   6.435   2.561   7.565 -0.5171  0.0227 -0.3051
16703CL      CL50736   5.043   4.010   5.648 -0.4387 -0.0568 -0.3081
16704CL      CL50737   1.655   1.791   6.144 -0.1907  0.2867 -0.1916
16705CL      CL50738   5.814   2.739   5.112  0.1530  0.1968 -0.1468
16706CL      CL50739   4.086   1.520   0.850 -0.1123 -0.1099  0.0759
16707CL      CL50740   5.043   0.843   5.457 -0.1179 -0.4178 -0.1806
16708CL      CL50741   5.576   7.985   6.047 -0.1634 -0.2794 -0.3934
16709CL      CL50742   1.898   3.064   3.544 -0.0370 -0.3931 -0.3808
16710CL      CL50743   3.301   0.913   2.117 -0.0325  0.2099 -0.3084
16711CL      CL50744   0.353   1.878   6.680  0.0756 -0.3243  0.4294
16712CL      CL50745   1.719   1.443   5.115 -0.6436  0.4788 -0.0229
16713CL      CL50746   2.505   6.988   4.779  0.1745  0.0880 -0.5575
16714CL      CL50747   5.086   7.719   6.737  0.1963  0.0770 -0.0558
16715CL      CL50748   1.773   7.242   7.554  0.1579  0.3051  0.2603
16716CL      CL50749   1.340   0.788   3.896 -0.1420  0.2119 -0.3669
16717CL      CL50750   4.355   1.524   2.729  0.1356 -0.1940  0.3737
16718CL      CL50751   3.105   5.134   4.969  0.3780  0.3698  0.1236
16719CL      CL50752   0.021   6.765   6.013  0.0427  0.1627 -0.0056
16720CL      CL50753   3.901   4.215   1.699  0.0992  0.1036  0.1295
16721CL      CL50754   3.975   1.762   6.506 -0.4423 -0.0061  0.6100
16722CL      CL50755   3.349   0.508   4.129  0.1758 -0.4625  0.5282
16723CL      CL50756   0.825   7.322   6.648 -0.2369  0.3419 -0.6262
16724CL      CL50757   1.728   4.344   2.447 -0.3468  0.2300 -0.1000
16725CL      CL50758   4.990   0.589   4.928 -0.3867 -0.1047  0.0017
16726CL      CL50759   1.448   4.217   1.286  0.1921 -0.4612  0.0232
16727CL      CL50760   2.993   1.433   4.878 -0.0878 -0.1800 -0.0209
16728CL      CL50761   4.988   0.669   4.469  0.0203  0.0302  0.2377
   8.00358   8.00358   8.00358
