G2Pncore-PETIM in water
31639
    1aaa     N1    1   2.641   3.767   0.444 -0.2771  0.4417 -0.6346
    1aaa     C1    2   2.738   3.675   0.382  0.1980  0.2081 -0.7682
    1aaa     H1    3   2.693   3.587   0.334 -1.1536  0.8313 -0.6825
    1aaa     H2    4   2.807   3.715   0.307  0.3124 -1.0772 -1.3731
    1aaa     C2    5   2.553   3.706   0.541 -0.2915  0.5192  0.3130
    1aaa     H3    6   2.511   3.611   0.505 -2.6389  0.0044  3.9238
    1aaa     H4    7   2.619   3.677   0.624  0.6381  1.8141  0.0481
    1aaa     C3    8   2.701   3.903   0.488  0.6210 -0.6543 -0.3058
    1aaa     H5    9   2.614   3.968   0.502  1.8412  0.9456  0.1670
    1aaa     H6   10   2.754   3.890   0.582  0.0523 -1.4293 -0.0829
    1aaa     C4   11   2.780   3.985   0.383 -0.3143  0.3700 -0.2168
    1aaa     H7   12   2.883   3.948   0.380 -0.4369  0.0020  0.0635
    1aaa     H8   13   2.742   3.966   0.282  2.7887  1.8156 -1.7931
    1aaa     C5   14   2.845   3.617   0.483  0.0372 -0.4526 -0.6902
    1aaa     H9   15   2.888   3.683   0.559  0.2214 -0.7741 -0.5116
    1aaa    H10   16   2.801   3.540   0.548  2.3316 -0.8563  0.4927
    1aaa     C6   17   2.443   3.794   0.597 -0.2634 -0.2347  0.3641
    1aaa    H11   18   2.489   3.879   0.649 -1.2397  1.8852 -2.0363
    1aaa    H12   19   2.393   3.837   0.509  0.6084  1.4759  0.6608
    1aaa     C7   20   2.350   3.720   0.698  0.2705 -0.9868 -0.5688
    1aaa    H13   21   2.289   3.799   0.744  2.0895  0.6506 -0.8638
    1aaa    H14   22   2.288   3.637   0.660 -1.2988 -0.5352  0.8656
    1aaa     C8   23   2.776   4.138   0.425 -0.2279 -0.4055  0.0762
    1aaa    H15   24   2.820   4.202   0.348 -0.1619 -0.4155  0.1056
    1aaa    H16   25   2.671   4.166   0.444 -0.0926  0.2278 -0.0713
    1aaa     C9   26   2.967   3.560   0.411 -0.2513  0.4659  0.5699
    1aaa    H17   27   2.951   3.467   0.356  1.5037  0.5073 -0.0923
    1aaa    H18   28   3.002   3.626   0.331 -0.0614  1.6108  1.5508
    2bbb     N1   29   2.737   3.438   0.994  0.5011 -0.2508 -0.3311
    2bbb     C1   30   2.824   3.353   0.907  0.0464  0.3218 -0.2354
    2bbb     H1   31   2.831   3.402   0.809  0.9746  2.0002  0.6285
    2bbb     H2   32   2.793   3.250   0.887 -0.3339  0.5340 -0.7835
    2bbb     C2   33   2.786   3.580   1.009 -0.5382  0.0528  0.5780
    2bbb     H3   34   2.877   3.582   1.070  0.2699 -0.1426 -0.5993
    2bbb     H4   35   2.725   3.638   1.080  0.5941 -2.7106  4.1139
    2bbb     C3   36   2.600   3.442   0.931 -0.5670  0.0210 -0.2541
    2bbb     H5   37   2.556   3.342   0.921 -0.1320 -0.4129  1.8305
    2bbb     H6   38   2.622   3.473   0.828  1.1946 -0.2691  0.0196
    2bbb     C4   39   2.496   3.540   0.998 -0.0811  0.4316  0.5951
    2bbb     H7   40   2.537   3.637   1.031  0.6313  0.7183 -1.0240
    2bbb     H8   41   2.450   3.491   1.085 -0.7488 -1.5539 -0.8099
    2bbb     C5   42   2.974   3.334   0.962 -0.4622 -0.4324  0.7841
    2bbb     H9   43   2.988   3.269   1.049 -0.8956 -1.1627  0.3182
    2bbb    H10   44   3.018   3.425   1.005  1.3434 -1.3072  0.8788
    2bbb     C6   45   2.814   3.661   0.874  0.2614 -0.5118 -0.0906
    2bbb    H11   46   2.717   3.676   0.826  0.0441 -0.1190  0.4653
    2bbb    H12   47   2.875   3.593   0.813  0.3261  0.0905 -0.7056
    2bbb     C7   48   2.388   3.573   0.897  0.1528  0.0102 -0.0847
    2bbb    H13   49   2.301   3.611   0.952 -1.0112  0.3559 -2.0611
    2bbb    H14   50   2.347   3.483   0.849 -1.1797  0.3483  0.3719
    2bbb     C8   51   2.866   3.800   0.934 -0.0358 -0.3030  0.7023
    2bbb    H15   52   2.937   3.793   1.018  0.7604  0.0073  0.0730
    2bbb    H16   53   2.786   3.862   0.974 -0.7418 -0.0074 -1.0686
    2bbb     C9   54   3.063   3.294   0.841 -0.2723 -0.6888  0.4042
    2bbb    H17   55   3.158   3.253   0.879 -0.9177 -0.0634  2.8428
    2bbb    H18   56   3.090   3.383   0.783  0.4258 -1.5047 -0.5774
    2bbb     O1   57   2.439   3.677   0.805 -0.2329  0.2726 -0.0547
    3bbb     N1   58   2.779   4.349   0.960 -0.7302  0.8638 -0.1427
    3bbb     C1   59   2.661   4.307   1.044 -0.2557 -0.8497 -0.4891
    3bbb     H1   60   2.671   4.204   1.079  1.0600 -0.8182 -0.7199
    3bbb     H2   61   2.568   4.309   0.986  1.7735 -1.0877 -4.0719
    3bbb     C2   62   2.919   4.325   1.017  0.1671  0.0279  0.1437
    3bbb     H3   63   2.931   4.372   1.116 -1.8228  0.4401  0.2335
    3bbb     H4   64   2.989   4.389   0.963  1.6774 -2.1079 -0.5449
    3bbb     C3   65   2.754   4.310   0.820  0.0524  0.9721 -0.1846
    3bbb     H5   66   2.678   4.372   0.770  0.3512  0.0948 -1.8025
    3bbb     H6   67   2.717   4.208   0.805 -0.5878  0.8669  1.8310
    3bbb     C4   68   2.877   4.321   0.730 -0.6770  0.3847 -0.7963
    3bbb     H7   69   2.951   4.244   0.756 -1.8244  0.1517  2.2424
    3bbb     H8   70   2.926   4.418   0.746 -1.5027  0.6613  0.1649
    3bbb     C5   71   2.665   4.388   1.175  0.3659 -0.3422 -0.5152
    3bbb     H9   72   2.697   4.491   1.153 -0.0044  0.1083  0.9234
    3bbb    H10   73   2.742   4.345   1.241  1.0350  0.5812 -0.6703
    3bbb     C6   74   2.967   4.174   1.031  0.1000 -0.9263  0.0938
    3bbb    H11   75   2.916   4.104   0.963  1.2104 -1.5327 -0.1370
    3bbb    H12   76   2.947   4.130   1.129  0.7386 -0.4087  0.4738
    3bbb     C7   77   2.835   4.305   0.581  0.0961  0.6277  0.1137
    3bbb    H13   78   2.898   4.369   0.519  0.9855  0.3982  0.7623
    3bbb    H14   79   2.732   4.342   0.577 -0.0828  0.4361  1.9570
    3bbb     C8   80   3.123   4.172   1.002  0.0939  0.9359  0.3501
    3bbb    H15   81   3.141   4.212   0.901 -1.5542 -1.1783 -0.8789
    3bbb    H16   82   3.162   4.070   0.987 -0.7727  0.9349 -2.6014
    3bbb     C9   83   2.528   4.395   1.247 -0.2810  0.1472  0.1481
    3bbb    H17   84   2.451   4.423   1.175  0.6748  1.0536 -0.5458
    3bbb    H18   85   2.518   4.473   1.324  0.6766  1.4372 -0.9853
    3bbb     O1   86   2.847   4.162   0.548 -0.7333 -0.2957 -0.6491
    4bbb     N1   87   3.492   3.503   0.682 -0.4511 -0.3435 -0.3497
    4bbb     C1   88   3.594   3.609   0.683 -0.0066  0.6317  0.1618
    4bbb     H1   89   3.551   3.701   0.724 -1.9689 -1.0348  2.0454
    4bbb     H2   90   3.615   3.628   0.577 -1.3290  2.1348  0.1330
    4bbb     C2   91   3.436   3.478   0.819  0.2148 -0.3328 -0.1419
    4bbb     H3   92   3.512   3.449   0.892  0.5750 -0.4746 -0.5729
    4bbb     H4   93   3.360   3.399   0.816  0.6447 -1.1677  4.3639
    4bbb     C3   94   3.385   3.536   0.586  0.1682  0.6280 -0.7868
    4bbb     H5   95   3.439   3.555   0.492  3.4713 -2.6268  0.2073
    4bbb     H6   96   3.329   3.626   0.614 -2.9493 -1.4157  0.0419
    4bbb     C4   97   3.290   3.416   0.549  0.5439 -0.3639 -0.4604
    4bbb     H7   98   3.240   3.379   0.640  0.3404 -1.1802 -0.8937
    4bbb     H8   99   3.356   3.340   0.507  2.3529  1.1510 -0.4763
    4bbb     C5  100   3.724   3.575   0.760 -0.3382 -0.0429  0.4803
    4bbb     H9  101   3.779   3.498   0.704  0.5033  0.6741  0.3122
    4bbb    H10  102   3.704   3.545   0.863  1.4502 -0.0591  0.8475
    4bbb     C6  103   3.370   3.603   0.892  1.3896  0.5014 -0.2703
    4bbb    H11  104   3.287   3.641   0.831 -0.1538 -2.3741 -0.1341
    4bbb    H12  105   3.444   3.681   0.915 -0.6216  2.6308 -0.6357
    4bbb     C7  106   3.183   3.455   0.442 -0.4426  0.0821 -0.3013
    4bbb    H13  107   3.137   3.370   0.391 -0.2965  0.8743 -1.8070
    4bbb    H14  108   3.231   3.519   0.366  0.0789  0.4073  0.2897
    4bbb     C8  109   3.306   3.562   1.022 -1.1849 -0.2407 -0.1360
    4bbb    H15  110   3.375   3.513   1.092 -1.3984  0.8894  0.8957
    4bbb    H16  111   3.227   3.487   1.006 -0.1980 -1.3683  0.1026
    4bbb     C9  112   3.825   3.694   0.765 -1.1844 -0.3275  0.0624
    4bbb    H17  113   3.866   3.722   0.667  1.6849  0.9908  1.5107
    4bbb    H18  114   3.916   3.654   0.811 -2.7326  0.4051  4.1406
    4bbb     O1  115   3.076   3.529   0.510  0.6935  0.0663  0.1749
    5bbb     N1  116   3.278   4.008   0.517 -0.0539  0.6414 -0.0801
    5bbb     C1  117   3.328   3.928   0.409  0.1170  0.9633  0.6817
    5bbb     H1  118   3.422   3.876   0.429 -1.9155 -3.5074 -0.3124
    5bbb     H2  119   3.338   3.982   0.314 -0.7740  0.2759  0.1837
    5bbb     C2  120   3.381   4.109   0.528 -0.2560 -0.4065  0.7589
    5bbb     H3  121   3.401   4.166   0.437 -0.7627  0.8942  1.4244
    5bbb     H4  122   3.477   4.068   0.560 -0.9796 -0.0908  3.6681
    5bbb     C3  123   3.250   3.933   0.642  0.5253 -0.3189 -0.6258
    5bbb     H5  124   3.307   3.965   0.731 -0.6735 -0.9910  0.4123
    5bbb     H6  125   3.288   3.831   0.635  0.7710 -0.2501 -0.3296
    5bbb     C4  126   3.096   3.944   0.678  0.3324 -0.3188  0.2070
    5bbb     H7  127   3.039   3.934   0.585 -1.1403 -2.1263  1.2318
    5bbb     H8  128   3.067   4.049   0.695 -1.0515 -0.3718 -1.5547
    5bbb     C5  129   3.228   3.821   0.363 -0.6698 -0.1193  0.1745
    5bbb     H9  130   3.123   3.851   0.353 -0.0356  1.4775 -2.7091
    5bbb    H10  131   3.228   3.736   0.433  0.8357 -0.5042 -0.2535
    5bbb     C6  132   3.359   4.227   0.630 -0.6206  0.0410 -0.3947
    5bbb    H11  133   3.446   4.294   0.628  0.2088 -1.0048 -0.3409
    5bbb    H12  134   3.360   4.180   0.729  0.1505  0.2340 -0.3006
    5bbb     C7  135   3.056   3.850   0.789  0.1676 -0.5810 -0.6262
    5bbb    H13  136   3.116   3.860   0.881  0.5033  0.4208 -0.9406
    5bbb    H14  137   3.063   3.745   0.760  0.6462 -0.3183 -1.4827
    5bbb     C8  138   3.225   4.313   0.624 -0.1551  0.2692  0.1224
    5bbb    H15  139   3.139   4.246   0.612  1.4129 -1.5217 -2.0986
    5bbb    H16  140   3.219   4.366   0.528 -0.6748 -0.4034 -0.2239
    5bbb     C9  141   3.263   3.769   0.224 -0.0230  0.8988  0.6145
    5bbb    H17  142   3.281   3.849   0.152  2.9219  1.4803  1.8276
    5bbb    H18  143   3.181   3.709   0.183  1.4427 -0.4039 -0.5034
    5bbb     O1  144   2.919   3.878   0.825 -0.6495 -0.4902  0.0973
    6bbb     N1  145   2.739   3.145   0.409  0.1540 -0.0074 -0.5603
    6bbb     C1  146   2.625   3.239   0.392  0.4276 -0.1513 -0.0767
    6bbb     H1  147   2.549   3.180   0.339 -1.4326 -0.0256  2.2634
    6bbb     H2  148   2.649   3.324   0.327  0.3854 -1.4474 -1.8648
    6bbb     C2  149   2.793   3.086   0.290  0.1883  0.6241 -0.6819
    6bbb     H3  150   2.709   3.044   0.233 -0.0011 -0.8448  0.6410
    6bbb     H4  151   2.840   2.991   0.316  0.3258  0.2286 -2.2461
    6bbb     C3  152   2.843   3.187   0.508 -0.5309  0.6182  0.3415
    6bbb     H5  153   2.800   3.233   0.598  0.5654  1.2281  0.5628
    6bbb     H6  154   2.901   3.271   0.467 -0.8898  0.2482 -0.9975
    6bbb     C4  155   2.946   3.080   0.549 -0.0111 -0.8650  0.4822
    6bbb     H7  156   2.991   3.028   0.464 -0.0174  0.2003 -0.1904
    6bbb     H8  157   2.883   3.007   0.602 -1.1800  0.5605  1.1569
    6bbb     C5  158   2.559   3.292   0.522  0.6353  0.2413 -0.4084
    6bbb     H9  159   2.477   3.344   0.472 -0.1594  0.6030  1.2027
    6bbb    H10  160   2.620   3.366   0.577 -1.6203  1.0417  1.1772
    6bbb     C6  161   2.874   3.189   0.206 -0.0859 -0.5760  0.0155
    6bbb    H11  162   2.957   3.231   0.264 -0.8881  0.0059  0.7707
    6bbb    H12  163   2.815   3.280   0.193  1.1555  0.2342 -0.1529
    6bbb     C7  164   3.056   3.150   0.639  0.4771  0.4116 -0.0208
    6bbb    H13  165   3.097   3.238   0.588 -0.1089  0.0697 -1.1309
    6bbb    H14  166   3.143   3.084   0.652  1.1658  1.2081 -0.4555
    6bbb     C8  167   2.924   3.150   0.059  0.2203 -0.4800  0.0536
    6bbb    H15  168   2.986   3.060   0.063  1.1325  0.0717 -0.8775
    6bbb    H16  169   2.964   3.234  -0.001 -1.1945 -0.2439 -0.6124
    6bbb     C9  170   2.486   3.198   0.611 -0.3155  0.3117 -0.3779
    6bbb    H17  171   2.432   3.133   0.541 -1.6154  2.1842 -1.2161
    6bbb    H18  172   2.410   3.253   0.669 -1.1050  1.5660 -2.4695
    6bbb     O1  173   2.993   3.186   0.772 -0.1909  0.0418  0.4486
    7bbb     N1  174   3.511   4.260   1.410  0.0226 -0.4416 -0.5261
    7bbb     C1  175   3.562   4.136   1.351  0.0203  0.2245 -0.1839
    7bbb     H1  176   3.667   4.127   1.380 -0.1441 -1.5762 -0.0778
    7bbb     H2  177   3.562   4.142   1.241 -0.0529 -1.5955 -0.3042
    7bbb     C2  178   3.506   4.284   1.564  0.3649  0.0253 -0.0992
    7bbb     H3  179   3.491   4.186   1.609  0.4522 -0.5850 -1.3582
    7bbb     H4  180   3.422   4.348   1.597 -0.6638 -0.7135 -1.2184
    7bbb     C3  181   3.389   4.299   1.338  0.3303 -0.4262  0.7252
    7bbb     H5  182   3.344   4.387   1.386  0.0891 -1.2428  2.0613
    7bbb     H6  183   3.312   4.222   1.355  1.2566 -1.2717  1.1929
    7bbb     C4  184   3.395   4.338   1.193 -0.1309 -0.6847  0.6445
    7bbb     H7  185   3.499   4.343   1.158 -0.8380  1.2228 -1.4465
    7bbb     H8  186   3.368   4.443   1.181  0.5166 -0.3270  2.1361
    7bbb     C5  187   3.485   4.008   1.398 -0.1734  0.6355 -0.2504
    7bbb     H9  188   3.376   4.014   1.388 -0.3475  1.0690  1.5433
    7bbb    H10  189   3.489   3.998   1.507 -0.0352 -1.6887 -0.4136
    7bbb     C6  190   3.639   4.327   1.620 -0.1321 -0.0292  0.0201
    7bbb    H11  191   3.712   4.247   1.603  0.3109  0.2428  0.6269
    7bbb    H12  192   3.645   4.330   1.729  1.8127 -0.1451 -0.0417
    7bbb     C7  193   3.339   4.239   1.090  0.5404  0.5655 -0.3832
    7bbb    H13  194   3.376   4.137   1.108  0.1093  0.4960  0.1442
    7bbb    H14  195   3.366   4.277   0.990  0.0825  0.2855 -0.6185
    7bbb     C8  196   3.682   4.467   1.551  0.1945  0.0634  0.0409
    7bbb    H15  197   3.635   4.551   1.603 -0.7701 -0.6620  0.3722
    7bbb    H16  198   3.655   4.473   1.445  1.3704  1.0090 -0.2314
    7bbb     C9  199   3.547   3.876   1.334 -0.3138  0.9802  0.6537
    7bbb    H17  200   3.464   3.804   1.333  0.1390  0.4250  1.6367
    7bbb    H18  201   3.629   3.824   1.385  0.3302  0.5625 -0.7607
    7bbb     O1  202   3.202   4.247   1.099  0.5793 -0.0504  0.3638
    8bbb     N1  203   2.314   3.962   1.170 -0.1854  0.7017  0.1997
    8bbb     C1  204   2.192   3.881   1.207 -0.3524  0.0386 -0.0068
    8bbb     H1  205   2.141   3.911   1.299  1.4031 -1.3627  1.5066
    8bbb     H2  206   2.215   3.774   1.217 -1.0280  0.0171  1.4578
    8bbb     C2  207   2.391   3.890   1.065 -0.7749  0.2895  0.3474
    8bbb     H3  208   2.331   3.828   0.997 -0.6507  0.5860 -0.0385
    8bbb     H4  209   2.470   3.824   1.105 -0.1039  0.4514 -0.6636
    8bbb     C3  210   2.409   3.985   1.289 -0.2504  0.3771  0.7791
    8bbb     H5  211   2.508   4.017   1.255 -1.1804  1.6978 -0.8160
    8bbb     H6  212   2.421   3.894   1.349 -0.2719 -0.2075 -0.0843
    8bbb     C4  213   2.367   4.089   1.392 -0.1513  0.2865 -0.1981
    8bbb     H7  214   2.444   4.088   1.470  2.0595  1.1870 -2.2196
    8bbb     H8  215   2.279   4.057   1.449  0.1793 -1.0310 -0.3789
    8bbb     C5  216   2.083   3.882   1.095 -0.4623  0.7084  0.7558
    8bbb     H9  217   2.110   3.836   0.999 -3.5290  0.6585 -0.2079
    8bbb    H10  218   2.046   3.979   1.061 -1.2436  0.1158 -0.1294
    8bbb     C6  219   2.466   3.977   0.972 -0.2789 -0.3613  0.0514
    8bbb    H11  220   2.511   3.906   0.902  1.0238 -1.2916  1.7287
    8bbb    H12  221   2.534   4.017   1.049 -1.5858 -1.2446  1.7359
    8bbb     C7  222   2.369   4.226   1.324 -0.6694 -0.1131 -0.1566
    8bbb    H13  223   2.320   4.304   1.383 -0.0525  0.7853 -0.7913
    8bbb    H14  224   2.317   4.224   1.227  0.3269  1.3012 -0.7550
    8bbb     C8  225   2.387   4.096   0.915 -0.0969 -0.0448 -0.3686
    8bbb    H15  226   2.457   4.160   0.859 -1.3683  0.7907 -1.0335
    8bbb    H16  227   2.355   4.157   1.000 -0.2884  0.7667 -1.0169
    8bbb     C9  228   1.964   3.795   1.133  0.2402 -0.4387 -0.1384
    8bbb    H17  229   2.008   3.703   1.175 -0.0672  0.1401  1.5428
    8bbb    H18  230   1.915   3.777   1.037 -0.5222 -1.5683  0.4344
    8bbb     O1  231   2.502   4.271   1.312 -0.2430  0.6979  0.4307
    9bbb     N1  232   2.998   3.926   1.412  1.1655  0.4162 -0.1191
    9bbb     C1  233   3.063   4.061   1.399 -0.8235 -0.1335 -0.1410
    9bbb     H1  234   3.111   4.079   1.303 -0.1859 -1.1144 -0.0156
    9bbb     H2  235   3.134   4.067   1.483 -0.6749 -1.0915 -0.1874
    9bbb     C2  236   2.886   3.910   1.322 -0.4176  0.5043 -0.8492
    9bbb     H3  237   2.919   3.936   1.221 -0.7976  3.4532 -0.2998
    9bbb     H4  238   2.820   3.995   1.345  3.1769  3.8926 -1.9482
    9bbb     C3  239   3.096   3.813   1.404 -0.5055 -0.2688 -0.1143
    9bbb     H5  240   3.042   3.721   1.433  0.3770 -0.3314  1.4551
    9bbb     H6  241   3.179   3.822   1.474 -0.1185  1.0942 -0.7321
    9bbb     C4  242   3.168   3.806   1.272  0.2601  0.0083  0.8666
    9bbb     H7  243   3.258   3.868   1.273  1.1333 -1.1643 -0.3420
    9bbb     H8  244   3.107   3.847   1.190 -0.4287 -1.8067  0.4224
    9bbb     C5  245   2.967   4.177   1.426  0.3507 -0.4868  0.5026
    9bbb     H9  246   2.896   4.150   1.505 -2.8189  1.5578 -1.4505
    9bbb    H10  247   2.912   4.198   1.333 -2.4510 -2.6265  1.5540
    9bbb     C6  248   2.809   3.777   1.314 -0.2137 -0.0447 -0.0826
    9bbb    H11  249   2.881   3.707   1.270  0.6647 -0.5796  2.0477
    9bbb    H12  250   2.723   3.777   1.247 -0.1042  0.4347 -0.2282
    9bbb     C7  251   3.206   3.659   1.227  0.3241 -1.2298 -0.3536
    9bbb    H13  252   3.122   3.588   1.225 -1.6627  0.8235  2.3815
    9bbb    H14  253   3.288   3.619   1.288  0.2002  1.0028  1.3996
    9bbb     C8  254   2.759   3.712   1.442  0.0568 -0.0189 -0.6486
    9bbb    H15  255   2.827   3.686   1.524 -1.3740  0.2813  0.6829
    9bbb    H16  256   2.710   3.618   1.415  0.1609 -0.6605  1.2203
    9bbb     C9  257   3.052   4.305   1.463 -0.5045  0.6969 -0.3805
    9bbb    H17  258   3.135   4.313   1.392 -0.6514  1.4842 -0.4812
    9bbb    H18  259   3.104   4.301   1.560 -0.9660 -2.0750 -0.1731
    9bbb     O1  260   3.258   3.678   1.093 -0.4608 -0.0010 -0.1377
   10bbb     N1  261   3.890   4.150   0.886 -0.8466 -0.5187 -0.4709
   10bbb     C1  262   3.900   4.253   0.775 -0.6229 -0.5168 -0.3996
   10bbb     H1  263   3.874   4.204   0.680  0.2974 -1.0941 -0.3632
   10bbb     H2  264   4.002   4.277   0.742 -1.0131  0.8456 -0.6781
   10bbb     C2  265   3.948   4.198   1.013 -0.2924  0.5305  0.1997
   10bbb     H3  266   3.925   4.134   1.100 -1.6810  0.5035 -0.1605
   10bbb     H4  267   3.913   4.301   1.031  1.9994  1.4299 -0.2131
   10bbb     C3  268   3.757   4.101   0.918 -0.6776  0.6450  0.9627
   10bbb     H5  269   3.702   4.185   0.962  0.7268  1.6165  0.9392
   10bbb     H6  270   3.762   4.021   0.993 -0.9880 -0.5262 -0.2259
   10bbb     C4  271   3.688   4.046   0.791 -0.4409 -0.2701  0.3090
   10bbb     H7  272   3.679   4.131   0.723 -0.2937 -2.5017 -2.6864
   10bbb     H8  273   3.588   4.015   0.825 -0.9050  0.2227 -0.5913
   10bbb     C5  274   3.821   4.391   0.795  0.2713  0.0498  0.4361
   10bbb     H9  275   3.884   4.465   0.847 -0.3058  2.6660 -2.3322
   10bbb    H10  276   3.737   4.375   0.864  0.0527  1.7107  0.5996
   10bbb     C6  277   4.102   4.219   1.014 -0.4121  0.0414  0.1408
   10bbb    H11  278   4.140   4.285   0.935  0.8714 -1.0155 -0.1593
   10bbb    H12  279   4.143   4.120   0.986 -3.6584 -1.6833  0.9755
   10bbb     C7  280   3.758   3.920   0.725  0.5134  0.7308  0.2070
   10bbb    H13  281   3.858   3.948   0.690  0.4953  1.0114  0.3765
   10bbb    H14  282   3.707   3.874   0.639 -0.0105 -5.3318  3.2102
   10bbb     C8  283   4.146   4.272   1.159  0.7353 -0.2672  0.1424
   10bbb    H15  284   4.118   4.202   1.239 -3.6376  0.1847 -0.7415
   10bbb    H16  285   4.085   4.358   1.189  0.8308 -0.6409  1.4609
   10bbb     C9  286   3.775   4.447   0.654  0.2413  0.1788  0.2319
   10bbb    H17  287   3.718   4.537   0.677  0.9177  0.3091  1.5323
   10bbb    H18  288   3.711   4.369   0.611 -0.4030  2.0692 -2.5132
   10bbb     O1  289   3.764   3.811   0.821 -0.0805  0.1095 -0.1982
   11ccc     C1  290   3.296   4.768   0.848  0.1004  0.2547 -0.3931
   11ccc     H1  291   3.288   4.802   0.951 -1.0026 -2.5256  0.5193
   11ccc     H2  292   3.216   4.824   0.798 -1.6698  0.2616  2.2664
   11ccc     C2  293   3.266   4.615   0.852 -0.6105 -0.8425  0.7305
   11ccc     H3  294   3.332   4.566   0.924 -0.0209 -0.9655  0.1123
   11ccc     H4  295   3.168   4.604   0.902 -0.6416 -0.0673  0.8471
   11ccc     C3  296   3.265   4.542   0.707 -0.3575 -0.0205 -0.2731
   11ccc     H5  297   3.365   4.539   0.662 -0.6048 -0.8465 -0.7817
   11ccc     H6  298   3.203   4.602   0.640 -0.2037 -0.0471 -0.4388
   11ccc     N1  299   3.428   4.815   0.794 -0.3501 -0.0757 -0.1003
   11ccc     H7  300   3.439   4.785   0.695  1.6063 -0.6347  0.2372
   11ccc     H8  301   3.425   4.918   0.796 -0.4570 -0.0502 -0.9360
   11ccc     O1  302   3.219   4.404   0.733 -0.3245 -0.0914 -0.2652
   11ccc    H17  303   3.508   4.777   0.846  1.1010  2.4905 -0.3249
   12ccc     C1  304   3.506   3.427   0.217 -0.0241 -0.3071  0.0199
   12ccc     H1  305   3.447   3.367   0.148  0.5900 -0.0088 -0.7817
   12ccc     H2  306   3.450   3.437   0.310  2.1526 -3.9391  1.9615
   12ccc     C2  307   3.558   3.561   0.157 -0.5632  0.0849 -0.3965
   12ccc     H3  308   3.614   3.616   0.234 -1.7213  0.8424 -0.0583
   12ccc     H4  309   3.622   3.529   0.075 -0.5151 -1.9651  0.3766
   12ccc     C3  310   3.441   3.655   0.120 -0.0133 -0.3335 -0.2352
   12ccc     H5  311   3.364   3.590   0.076  0.4901 -0.9964 -0.1560
   12ccc     H6  312   3.475   3.737   0.057  1.3068 -0.3329  0.4569
   12ccc     N1  313   3.625   3.339   0.246  0.0646  0.0946 -0.0491
   12ccc     H7  314   3.683   3.320   0.163  0.9024 -0.5688  0.6595
   12ccc     H8  315   3.693   3.372   0.317 -1.5783  3.5128  0.0985
   12ccc     O1  316   3.383   3.696   0.244  0.5039 -0.7928  0.4158
   12ccc    H17  317   3.590   3.246   0.274 -0.8607 -0.1870 -2.0358
   13ccc     C1  318   2.584   3.103  -0.230  0.1200  0.1831 -0.0184
   13ccc     H1  319   2.648   3.168  -0.289  0.7077  2.1750  2.6489
   13ccc     H2  320   2.564   3.165  -0.143  0.7461  3.0033 -1.7659
   13ccc     C2  321   2.674   2.979  -0.186  0.3403  0.0673 -0.1366
   13ccc     H3  322   2.625   2.914  -0.112  0.0609 -0.2584 -0.6045
   13ccc     H4  323   2.701   2.921  -0.275  2.2618  1.4404 -0.5098
   13ccc     C3  324   2.821   3.014  -0.133  0.1530  0.1625 -0.4385
   13ccc     H5  325   2.874   3.074  -0.208 -2.2383  0.1252 -2.2571
   13ccc     H6  326   2.868   2.918  -0.111 -1.7877 -0.7490 -0.0783
   13ccc     N1  327   2.454   3.064  -0.301  0.1461 -0.4529  0.0269
   13ccc     H7  328   2.481   3.033  -0.396  0.8660  1.4314 -0.4187
   13ccc     H8  329   2.413   2.987  -0.246 -1.4753 -0.4374 -1.0792
   13ccc     O1  330   2.807   3.098  -0.011 -0.2365  0.2079  0.1978
   13ccc    H17  331   2.393   3.147  -0.308  1.2351  0.3070 -0.6621
   14ccc     C1  332   2.592   2.841   0.670  0.3552 -0.8320 -0.1576
   14ccc     H1  333   2.566   2.736   0.657  1.5733 -1.0417 -1.2228
   14ccc     H2  334   2.676   2.851   0.739  1.3540 -1.1194 -1.2926
   14ccc     C2  335   2.471   2.919   0.730  0.6129 -0.0673  0.2820
   14ccc     H3  336   2.385   2.924   0.662  0.9273 -2.1890 -0.3428
   14ccc     H4  337   2.428   2.846   0.801  1.2880 -1.8882 -1.1078
   14ccc     C3  338   2.508   3.049   0.801  0.0039 -0.1407 -0.0067
   14ccc     H5  339   2.567   3.033   0.891 -0.7666 -0.2393  0.4916
   14ccc     H6  340   2.415   3.096   0.836  0.6698 -0.0563  1.7049
   14ccc     N1  341   2.624   2.876   0.535 -0.1767 -0.1069  0.5606
   14ccc     H7  342   2.640   2.977   0.520 -0.4998 -0.0936  0.2792
   14ccc     H8  343   2.710   2.823   0.518 -0.2324 -1.3906  3.7006
   14ccc     O1  344   2.575   3.136   0.707  0.3312  0.1969  0.2848
   14ccc    H17  345   2.560   2.848   0.459 -0.8677  1.7448  0.4084
   15ccc     C1  346   3.952   4.639   1.794 -1.1108 -0.2497  0.2273
   15ccc     H1  347   3.959   4.704   1.881  0.0563  3.2747 -2.2235
   15ccc     H2  348   4.053   4.621   1.755 -0.4461  0.4606  1.5421
   15ccc     C2  349   3.870   4.701   1.674 -0.2360  0.2570  0.5658
   15ccc     H3  350   3.768   4.717   1.710 -0.0679 -0.3474  1.3215
   15ccc     H4  351   3.912   4.800   1.652 -0.9412  0.1378 -1.5186
   15ccc     C3  352   3.877   4.617   1.544 -0.4907  0.0527 -0.0242
   15ccc     H5  353   3.978   4.608   1.501 -0.4793  2.4128 -0.6807
   15ccc     H6  354   3.825   4.675   1.466  0.6705  2.0522  0.6015
   15ccc     N1  355   3.892   4.513   1.840 -0.3032 -0.0935 -0.1124
   15ccc     H7  356   3.896   4.440   1.768 -0.7817 -1.2826  1.0125
   15ccc     H8  357   3.941   4.475   1.923 -0.6597 -0.2989  0.0080
   15ccc     O1  358   3.825   4.483   1.561 -0.5318  0.4896  0.3352
   15ccc    H17  359   3.791   4.521   1.859 -1.1355 -2.3166 -2.9603
   16ccc     C1  360   3.859   3.788   1.245 -0.2220 -0.3128  0.0183
   16ccc     H1  361   3.848   3.792   1.353  2.2291  1.0993  0.2802
   16ccc     H2  362   3.852   3.885   1.195 -0.1626 -1.3578 -2.1752
   16ccc     C2  363   3.760   3.690   1.192 -0.2217  0.1483  0.2053
   16ccc     H3  364   3.804   3.632   1.109  0.4175 -0.8980  1.2363
   16ccc     H4  365   3.734   3.611   1.263  0.8537 -0.0644  0.3808
   16ccc     C3  366   3.631   3.764   1.136 -0.2218 -0.0241 -0.4249
   16ccc     H5  367   3.550   3.690   1.151  0.7028 -1.3490 -1.7144
   16ccc     H6  368   3.641   3.770   1.027 -0.2601  1.7542 -0.3606
   16ccc     N1  369   4.002   3.744   1.223  0.0896 -0.0260  0.1134
   16ccc     H7  370   4.027   3.751   1.123  2.7187 -1.3643  0.5893
   16ccc     H8  371   4.080   3.791   1.270  0.9049 -0.2163 -1.0117
   16ccc     O1  372   3.599   3.891   1.197  0.3665 -0.3604 -0.0678
   16ccc    H17  373   4.019   3.646   1.251  0.6126  0.1667  0.4615
   17ccc     C1  374   2.152   4.048   0.580 -0.1277 -0.2431 -0.7765
   17ccc     H1  375   2.219   3.967   0.607 -0.2618 -0.3999 -0.9083
   17ccc     H2  376   2.211   4.122   0.525  1.8707  0.1615  1.7329
   17ccc     C2  377   2.087   4.113   0.702 -0.8079  0.2389 -0.3625
   17ccc     H3  378   2.023   4.198   0.675 -0.3675  0.9656  0.7892
   17ccc     H4  379   2.021   4.044   0.755  0.3188 -1.5037 -1.1119
   17ccc     C3  380   2.196   4.159   0.806  0.5385  0.0791  0.0933
   17ccc     H5  381   2.142   4.199   0.893  0.1391 -1.0493  0.3848
   17ccc     H6  382   2.256   4.238   0.759  0.2025 -0.2343 -0.8678
   17ccc     N1  383   2.048   3.975   0.491  0.2334  0.4078 -0.0677
   17ccc     H7  384   2.017   3.892   0.542  0.6755  0.2239 -0.0959
   17ccc     H8  385   1.964   4.033   0.474 -0.5296 -0.1777  1.5251
   17ccc     O1  386   2.278   4.050   0.834  0.0941 -0.5698 -0.0752
   17ccc    H17  387   2.091   3.943   0.403 -1.1174 -0.3943 -0.4583
   18ccc     C1  388   1.521   3.795   1.351  0.2006 -0.4638  0.5726
   18ccc     H1  389   1.500   3.688   1.358  1.3686 -0.8507 -1.1866
   18ccc     H2  390   1.476   3.818   1.254 -0.3962  1.1182  1.2037
   18ccc     C2  391   1.666   3.839   1.348  0.3417  0.7040  0.3837
   18ccc     H3  392   1.665   3.948   1.337 -0.4251  0.7893  1.1558
   18ccc     H4  393   1.712   3.800   1.439 -1.8168  0.2830  1.3548
   18ccc     C3  394   1.742   3.800   1.217  0.4432  0.0448 -0.4100
   18ccc     H5  395   1.683   3.854   1.143 -2.4249 -0.4641  1.3569
   18ccc     H6  396   1.733   3.691   1.206 -2.5577  0.1137  0.5156
   18ccc     N1  397   1.444   3.867   1.459  0.1326 -0.2774  0.2850
   18ccc     H7  398   1.459   3.969   1.459 -0.3468 -0.1997  0.2273
   18ccc     H8  399   1.343   3.849   1.449 -0.0649  0.0102  1.5907
   18ccc     O1  400   1.876   3.854   1.222 -0.3503 -0.8646  0.4891
   18ccc    H17  401   1.473   3.842   1.554  1.5731  1.1409  0.2583
   19ccc     C1  402   2.640   3.973   1.741  0.3387  0.1378  0.1020
   19ccc     H1  403   2.687   4.018   1.654 -2.6148  0.3894 -1.4847
   19ccc     H2  404   2.711   3.917   1.801  0.1723  0.5846  0.7202
   19ccc     C2  405   2.534   3.872   1.694  0.0504  0.6003 -0.0194
   19ccc     H3  406   2.491   3.832   1.787 -1.1292  1.1155 -0.3360
   19ccc     H4  407   2.450   3.918   1.642  0.2954 -2.0065 -2.9856
   19ccc     C3  408   2.597   3.756   1.614  0.0136 -0.1346 -0.0865
   19ccc     H5  409   2.515   3.699   1.569 -0.3702  1.4857 -1.5608
   19ccc     H6  410   2.662   3.692   1.676 -2.5213 -2.0173  0.8040
   19ccc     N1  411   2.595   4.091   1.825  0.1877  0.1149 -0.1149
   19ccc     H7  412   2.555   4.061   1.915  1.1722  1.4774  0.8097
   19ccc     H8  413   2.669   4.158   1.849 -1.6133  2.4555 -0.7203
   19ccc     O1  414   2.661   3.809   1.500 -0.1071 -0.5043 -0.1361
   19ccc    H17  415   2.520   4.149   1.786  0.4394  1.3285  1.1529
   20ccc     C1  416   2.904   4.728   1.475  0.1049  0.0253  0.0868
   20ccc     H1  417   2.990   4.777   1.521 -0.7375  0.2324  1.5220
   20ccc     H2  418   2.859   4.668   1.554  0.3286  1.4776  1.3770
   20ccc     C2  419   2.946   4.636   1.356 -1.0096 -0.3468 -0.2335
   20ccc     H3  420   2.850   4.606   1.311 -2.1554  1.9520  0.5107
   20ccc     H4  421   2.995   4.703   1.284 -0.6623 -0.4219 -0.0658
   20ccc     C3  422   3.047   4.529   1.380 -0.1314  0.4882 -0.8264
   20ccc     H5  423   3.129   4.564   1.443 -1.3785  2.3557 -0.1864
   20ccc     H6  424   3.084   4.486   1.285  0.8191  2.1420 -1.2423
   20ccc     N1  425   2.799   4.830   1.443  0.4520 -0.3431  0.0595
   20ccc     H7  426   2.709   4.792   1.411  0.8668 -1.3197  0.0126
   20ccc     H8  427   2.776   4.884   1.528 -0.6614 -0.1861 -0.3371
   20ccc     O1  428   2.968   4.425   1.450 -0.1391  0.1493  0.5728
   20ccc    H17  429   2.827   4.893   1.367 -2.6907 -0.2064 -1.1254
   21ccc     C1  430   4.583   4.340   1.174  0.2121 -0.3576  0.2408
   21ccc     H1  431   4.601   4.436   1.222  0.5419  0.4079 -1.3397
   21ccc     H2  432   4.528   4.353   1.080 -2.9122 -1.1393  1.8402
   21ccc     C2  433   4.496   4.259   1.265  0.0789 -0.1415  0.0163
   21ccc     H3  434   4.491   4.154   1.234  0.8609 -0.7831  1.9114
   21ccc     H4  435   4.529   4.264   1.369 -0.7937 -0.9788  0.3463
   21ccc     C3  436   4.354   4.309   1.286  0.1451 -0.4874  0.3316
   21ccc     H5  437   4.362   4.415   1.312 -0.9461 -0.1125 -0.7914
   21ccc     H6  438   4.317   4.247   1.368 -0.1292 -0.5323  0.1757
   21ccc     N1  439   4.726   4.300   1.151 -0.0658  0.0367  0.0797
   21ccc     H7  440   4.729   4.225   1.080  0.0199 -0.6235  0.7623
   21ccc     H8  441   4.766   4.377   1.096 -2.3176  0.1382 -1.5785
   21ccc     O1  442   4.288   4.295   1.155  0.4615  0.4188 -0.3802
   21ccc    H17  443   4.787   4.272   1.229  0.9934  0.4223 -0.5866
   22ccc     C1  444   4.128   4.648   0.517 -0.0812 -0.5168 -0.3061
   22ccc     H1  445   4.144   4.585   0.605  3.3952  1.3517  0.5916
   22ccc     H2  446   4.081   4.740   0.552  0.4807 -1.4212  3.2012
   22ccc     C2  447   4.028   4.584   0.419  0.4546  0.1282  0.1704
   22ccc     H3  448   4.008   4.645   0.331  0.4126  0.1207  0.1742
   22ccc     H4  449   4.070   4.489   0.382  2.1440  0.3152  1.4869
   22ccc     C3  450   3.888   4.558   0.481 -0.1453  0.1690 -0.3002
   22ccc     H5  451   3.812   4.544   0.404  0.0746 -1.9350 -0.1834
   22ccc     H6  452   3.864   4.650   0.536  1.9569  0.6353 -0.0458
   22ccc     N1  453   4.263   4.679   0.453 -0.3343 -0.5912  0.4104
   22ccc     H7  454   4.246   4.717   0.359  1.0504 -0.5041  0.1802
   22ccc     H8  455   4.327   4.743   0.502 -1.4806  1.9613 -1.1981
   22ccc     O1  456   3.891   4.453   0.571 -0.2552  0.1931 -0.1128
   22ccc    H17  457   4.307   4.589   0.427  3.0114  0.8955  0.4796
   23SOL     OW  458   1.905   4.433   0.912 -0.0141  0.1797 -0.2627
   23SOL    HW1  459   1.912   4.406   1.004  0.3915  1.0448 -0.0292
   23SOL    HW2  460   1.833   4.380   0.877 -1.1423  0.8578  0.9279
   24SOL     OW  461   0.856   5.205   2.584  0.0659  0.0801  0.2514
   24SOL    HW1  462   0.815   5.178   2.666 -2.5460  0.5470 -0.8133
   24SOL    HW2  463   0.783   5.229   2.527  1.4937 -2.8007 -3.2041
   25SOL     OW  464   2.999   5.453   0.543 -0.5899  0.6999  0.5922
   25SOL    HW1  465   3.073   5.461   0.604 -0.0170 -2.4606  0.4611
   25SOL    HW2  466   3.038   5.470   0.457  0.0346 -0.9170  0.5255
   26SOL     OW  467   4.974   6.814   2.913 -0.1054  0.5272 -0.6780
   26SOL    HW1  468   5.055   6.789   2.957 -1.2604 -1.0558  0.6846
   26SOL    HW2  469   4.955   6.902   2.944 -0.3423 -0.1638  1.2388
   27SOL     OW  470   0.955   4.262   1.464  0.2350 -0.1755 -0.1639
   27SOL    HW1  471   0.860   4.255   1.455  0.1778  0.9073 -0.6144
   27SOL    HW2  472   0.987   4.172   1.460 -0.8387 -0.6230  0.9116
   28SOL     OW  473   1.131   2.556   2.149 -0.6954 -0.5367  0.0658
   28SOL    HW1  474   1.113   2.560   2.055  1.0797  0.7182 -0.2631
   28SOL    HW2  475   1.169   2.641   2.170 -1.7323 -0.5101  2.1016
   29SOL     OW  476   0.314   3.626   0.068  0.6370 -0.1868 -0.7477
   29SOL    HW1  477   0.293   3.660  -0.020 -0.0855  0.6392 -0.2712
   29SOL    HW2  478   0.231   3.631   0.116  0.9989 -0.7584 -0.0482
   30SOL     OW  479   3.298   2.059   0.317 -0.8750 -0.2228  0.4850
   30SOL    HW1  480   3.255   2.008   0.248 -0.1360  0.1383 -0.2608
   30SOL    HW2  481   3.384   2.081   0.281  0.6826 -2.3625  2.5198
   31SOL     OW  482   0.548   3.975   5.273  0.3358 -0.0997  0.3420
   31SOL    HW1  483   0.575   3.971   5.365 -2.3791 -0.7738  1.2159
   31SOL    HW2  484   0.558   4.067   5.249  1.1346  0.0779  1.2679
   32SOL     OW  485   2.021   3.345   1.348 -0.4516  0.4416 -0.2796
   32SOL    HW1  486   2.064   3.402   1.411  0.9749  0.1538 -0.9297
   32SOL    HW2  487   1.969   3.285   1.400 -0.2970  1.0036  0.5342
   33SOL     OW  488   5.913   2.639   3.166  0.3297  0.6454  0.1129
   33SOL    HW1  489   5.963   2.714   3.133 -0.8444  2.0149  1.2690
   33SOL    HW2  490   5.884   2.666   3.253  0.8013 -1.6421  1.0474
   34SOL     OW  491   6.377   2.556   3.845  0.3682  0.2751 -0.5664
   34SOL    HW1  492   6.463   2.570   3.805 -0.0590 -0.3439 -1.7560
   34SOL    HW2  493   6.355   2.466   3.823 -0.1132  0.0694  0.6869
   35SOL     OW  494   5.203   5.691   3.372 -0.6486 -0.5191  0.2776
   35SOL    HW1  495   5.111   5.718   3.369 -0.2747  1.3497  2.6244
   35SOL    HW2  496   5.221   5.676   3.465  1.4857 -0.5368 -0.0875
   36SOL     OW  497   3.274   4.442   6.091  0.1631  0.4424 -0.3311
   36SOL    HW1  498   3.179   4.439   6.078  0.0500  0.3533  0.4615
   36SOL    HW2  499   3.294   4.534   6.104  0.1450  0.4306 -0.2194
   37SOL     OW  500   3.240   5.161   1.702  0.1771  0.0372  0.3952
   37SOL    HW1  501   3.194   5.223   1.758  0.5529 -0.3822  1.1839
   37SOL    HW2  502   3.319   5.207   1.675 -0.4449  0.5857 -0.5829
   38SOL     OW  503   0.378   3.563   0.468  0.3465  0.3762 -0.2535
   38SOL    HW1  504   0.351   3.651   0.491 -0.5728 -0.2283  1.0578
   38SOL    HW2  505   0.338   3.507   0.534  2.4051 -0.8575  0.0486
   39SOL     OW  506   3.427   3.104   5.165  0.3227 -0.2670  0.5028
   39SOL    HW1  507   3.423   3.111   5.070  1.4010 -1.1710  0.3682
   39SOL    HW2  508   3.346   3.059   5.189  0.0758 -0.0901  0.0132
   40SOL     OW  509   2.221   6.705   0.939 -0.0381 -0.7890 -0.0495
   40SOL    HW1  510   2.189   6.629   0.987 -0.1680 -0.6169  0.1385
   40SOL    HW2  511   2.230   6.674   0.848  0.4888 -1.1951  0.1365
   41SOL     OW  512   4.973   1.799   1.049  0.5486  0.1710 -0.4573
   41SOL    HW1  513   5.013   1.849   0.979 -1.3007  0.2759 -1.5168
   41SOL    HW2  514   4.909   1.859   1.088 -0.5050 -0.8029 -0.6325
   42SOL     OW  515   2.874   2.160   6.385  0.4054  0.2690  0.2412
   42SOL    HW1  516   2.951   2.164   6.442  0.6401 -2.0194  0.1854
   42SOL    HW2  517   2.803   2.195   6.438  1.3476  1.8618  0.5066
   43SOL     OW  518   1.167   3.433   2.833  0.1420 -0.0006  0.0260
   43SOL    HW1  519   1.148   3.345   2.800 -1.9745  0.6806 -0.7456
   43SOL    HW2  520   1.237   3.465   2.776  0.4882 -0.9589 -0.1028
   44SOL     OW  521   2.642   3.064   5.819  0.2487  0.6549 -0.4449
   44SOL    HW1  522   2.569   3.083   5.878  2.0573  0.5026  1.9462
   44SOL    HW2  523   2.606   3.081   5.731 -2.7854  0.0577  0.5776
   45SOL     OW  524   3.177   1.831   4.015  0.0380 -0.0845  0.4953
   45SOL    HW1  525   3.143   1.907   4.063 -2.4018 -0.6418 -0.1938
   45SOL    HW2  526   3.264   1.817   4.050 -1.1977  0.1650  4.0469
   46SOL     OW  527   6.636   3.050   4.471 -0.0632 -0.0869  0.4850
   46SOL    HW1  528   6.605   2.960   4.464 -0.3176  0.0610 -0.4504
   46SOL    HW2  529   6.727   3.042   4.499  0.2524 -0.6913 -0.6468
   47SOL     OW  530   0.898   5.895   3.247 -0.0484  0.1307 -0.0701
   47SOL    HW1  531   0.993   5.908   3.235  0.3505 -1.8994  0.4850
   47SOL    HW2  532   0.885   5.901   3.341 -0.6239  1.1094 -0.1970
   48SOL     OW  533   3.319   3.462   5.045 -0.0788 -0.3068 -0.2569
   48SOL    HW1  534   3.344   3.384   4.995  1.3535 -0.8462  1.1834
   48SOL    HW2  535   3.396   3.481   5.099 -0.3795  2.1414 -0.5608
   49SOL     OW  536   4.904   5.007   5.342 -0.1800 -0.1833  0.1958
   49SOL    HW1  537   4.971   5.060   5.298 -1.3853  1.0140 -0.2939
   49SOL    HW2  538   4.924   5.015   5.435  0.1533  0.4683  0.0774
   50SOL     OW  539   5.127   1.079   4.459  0.1510 -0.5008  0.1146
   50SOL    HW1  540   5.055   1.141   4.447  0.6834 -0.2111 -2.0313
   50SOL    HW2  541   5.084   0.995   4.474 -0.7706 -0.6659 -2.7645
   51SOL     OW  542   4.725   1.088   0.475 -0.4843 -0.3080  0.6862
   51SOL    HW1  543   4.722   0.993   0.459  1.1831 -0.2767  0.0098
   51SOL    HW2  544   4.714   1.097   0.570  0.1729 -1.2548  0.8675
   52SOL     OW  545   6.358   4.445   2.185 -0.4803 -0.5585 -0.4313
   52SOL    HW1  546   6.313   4.529   2.186  0.6054  0.0291 -0.4859
   52SOL    HW2  547   6.367   4.421   2.277 -0.4556 -0.4378 -0.4026
   53SOL     OW  548   4.021   3.073   2.808 -0.1000  0.2749  0.4512
   53SOL    HW1  549   3.955   3.129   2.848 -2.9246 -1.1290 -1.9233
   53SOL    HW2  550   4.022   2.995   2.863 -0.7857  0.0920  0.2035
   54SOL     OW  551   2.525   5.000   1.515  0.5371  0.0193  0.4647
   54SOL    HW1  552   2.445   5.046   1.490 -0.8389 -1.1975  2.4112
   54SOL    HW2  553   2.553   5.044   1.595 -0.2697 -1.8633  1.8262
   55SOL     OW  554   5.207   0.657   6.820  0.3285  0.1863 -0.3472
   55SOL    HW1  555   5.261   0.648   6.741 -0.4771  1.1824 -1.0219
   55SOL    HW2  556   5.258   0.715   6.877  1.0653 -0.7970  0.0293
   56SOL     OW  557   0.592   6.822   4.954  0.1094 -0.1591 -0.3161
   56SOL    HW1  558   0.507   6.790   4.923  0.0504  0.1914 -0.5171
   56SOL    HW2  559   0.645   6.828   4.875  0.1764  0.0663 -0.2537
   57SOL     OW  560   0.494   0.244   5.382  0.0287  0.7899 -0.2215
   57SOL    HW1  561   0.524   0.169   5.331 -0.8181  0.5715 -0.4167
   57SOL    HW2  562   0.574   0.287   5.411  0.5909 -1.0176  1.1367
   58SOL     OW  563   1.668   2.137   2.192 -0.4954 -0.6758 -0.1738
   58SOL    HW1  564   1.655   2.199   2.264 -1.8126 -2.6001  1.3335
   58SOL    HW2  565   1.582   2.097   2.180 -0.3880 -0.2133 -3.0770
   59SOL     OW  566   0.852   4.693   0.782  0.1475 -0.3818 -0.0214
   59SOL    HW1  567   0.946   4.705   0.782  0.3395 -1.5336  1.4077
   59SOL    HW2  568   0.826   4.699   0.690  1.6571 -0.3888 -0.4625
   60SOL     OW  569   0.585   1.284   0.945  0.0045  0.0488 -0.3233
   60SOL    HW1  570   0.541   1.368   0.939 -0.4445 -0.2644 -2.0728
   60SOL    HW2  571   0.515   1.219   0.938  0.5863 -0.4480 -2.0591
   61SOL     OW  572   0.970   4.966   4.240  0.2315  0.1538  0.1056
   61SOL    HW1  573   0.925   4.882   4.232  0.6987 -0.1934  0.9578
   61SOL    HW2  574   1.005   4.983   4.153 -0.0589 -0.4289 -0.1287
   62SOL     OW  575   0.044   2.581   0.176 -0.3401 -0.0066 -0.0936
   62SOL    HW1  576   0.037   2.634   0.096  0.4425  1.2718  0.6464
   62SOL    HW2  577  -0.045   2.549   0.192 -0.7623  0.7801 -0.7832
   63SOL     OW  578   1.428   0.305   4.250  0.5310 -0.3898  0.2679
   63SOL    HW1  579   1.406   0.396   4.230 -1.0227 -0.5154  1.1778
   63SOL    HW2  580   1.428   0.261   4.165 -0.5043  0.1338 -0.0274
   64SOL     OW  581   1.917   0.565   5.395 -0.1428 -0.0024 -0.4267
   64SOL    HW1  582   1.943   0.473   5.403 -1.0168 -0.1301  1.3536
   64SOL    HW2  583   1.835   0.564   5.346 -0.5342 -0.2632  0.2178
   65SOL     OW  584   2.835   3.332   3.470 -0.1637  0.0817  0.0051
   65SOL    HW1  585   2.893   3.333   3.394 -0.2944  0.8490 -0.0926
   65SOL    HW2  586   2.850   3.246   3.511  2.0180  0.7330  0.7314
   66SOL     OW  587   2.750   5.376   0.504 -0.0231 -0.4518  0.0829
   66SOL    HW1  588   2.733   5.370   0.410 -2.3294 -0.2317  0.4347
   66SOL    HW2  589   2.839   5.411   0.509  1.2536 -2.9974 -1.9749
   67SOL     OW  590   6.054   5.265   6.529  0.0365 -0.2444  0.0629
   67SOL    HW1  591   6.059   5.306   6.442  0.7852  0.4131  0.3998
   67SOL    HW2  592   6.054   5.339   6.590 -0.2710 -0.7092  0.6312
   68SOL     OW  593   3.268   1.753   0.522 -0.4716 -0.2046 -0.3983
   68SOL    HW1  594   3.176   1.776   0.510 -0.3001  2.1880  1.8475
   68SOL    HW2  595   3.267   1.690   0.594 -0.3344  1.3104  1.0030
   69SOL     OW  596   1.211   0.168   6.168  0.2078  0.0644 -0.3207
   69SOL    HW1  597   1.303   0.154   6.146  0.4387  2.2606 -0.9832
   69SOL    HW2  598   1.213   0.207   6.255  0.0380  1.2963 -0.8394
   70SOL     OW  599   5.889   0.658   5.860  0.1954 -0.4130  0.0553
   70SOL    HW1  600   5.824   0.599   5.898 -0.3407 -0.0504 -0.2974
   70SOL    HW2  601   5.973   0.614   5.877 -0.3022 -2.5183 -2.3503
   71SOL     OW  602   1.491   3.352   3.177 -0.6515  0.1639  0.3932
   71SOL    HW1  603   1.409   3.396   3.201  0.1353  1.4908  0.7577
   71SOL    HW2  604   1.465   3.262   3.158 -2.1811  0.5340  0.5757
   72SOL     OW  605   5.539   4.107   6.495  0.1570 -0.9444 -0.2283
   72SOL    HW1  606   5.584   4.191   6.482  0.4744 -0.9428  0.7383
   72SOL    HW2  607   5.449   4.123   6.468  0.3197 -0.4147 -0.4679
   73SOL     OW  608   1.978   5.565   5.517 -0.0347 -0.3925  0.5361
   73SOL    HW1  609   1.887   5.538   5.529 -0.4742  1.1578  0.9281
   73SOL    HW2  610   1.975   5.628   5.445  0.7132 -0.2669  0.6063
   74SOL     OW  611   2.435   1.623   2.401  0.0484 -0.4291  0.2044
   74SOL    HW1  612   2.410   1.710   2.433  1.3727  0.3352 -0.7552
   74SOL    HW2  613   2.455   1.574   2.481  0.3821  0.5058  0.7139
   75SOL     OW  614   1.763   1.442   5.665  0.3358 -0.3332 -0.4696
   75SOL    HW1  615   1.811   1.367   5.698  0.7993 -0.2154 -0.8562
   75SOL    HW2  616   1.825   1.487   5.607  0.1793  0.5299  0.0150
   76SOL     OW  617   4.343   4.229   4.313 -0.1552 -0.3408 -0.6380
   76SOL    HW1  618   4.389   4.291   4.369  0.6103 -0.9203 -0.6195
   76SOL    HW2  619   4.272   4.195   4.367  1.6713 -2.3009  0.6692
   77SOL     OW  620   5.318   0.813   3.045 -0.7571  0.5492  0.0824
   77SOL    HW1  621   5.232   0.837   3.010 -0.9285  0.5798  0.5199
   77SOL    HW2  622   5.306   0.724   3.079 -0.3478  0.1561 -0.7567
   78SOL     OW  623   5.555   5.034   2.389 -0.1385  0.2452 -0.7155
   78SOL    HW1  624   5.621   5.037   2.458 -0.4007  0.0196 -0.4539
   78SOL    HW2  625   5.495   4.964   2.416 -0.4063  0.3554 -1.0204
   79SOL     OW  626   6.291   6.644   5.263 -0.1994  0.3224  0.1788
   79SOL    HW1  627   6.303   6.686   5.179  0.6449  0.6186  0.4372
   79SOL    HW2  628   6.342   6.563   5.257 -0.7116 -0.0095  0.1662
   80SOL     OW  629   6.352   4.903   4.730 -0.2795  0.3313 -0.0295
   80SOL    HW1  630   6.301   4.972   4.687  0.5012  2.0546  1.6238
   80SOL    HW2  631   6.293   4.867   4.797  0.5041  2.3368  1.8956
   81SOL     OW  632   6.217   1.216   0.008  0.2906  0.0214 -0.3122
   81SOL    HW1  633   6.169   1.258   0.079  0.1773  0.7464 -0.8037
   81SOL    HW2  634   6.218   1.282  -0.062  2.1671  0.1126 -0.2517
   82SOL     OW  635   2.658   5.017   0.671  0.5697  0.3188  0.5177
   82SOL    HW1  636   2.684   4.926   0.663 -0.3402  0.0814  0.1516
   82SOL    HW2  637   2.739   5.067   0.655  0.3634 -0.3000 -3.3698
   83SOL     OW  638   0.165   1.501   3.956 -0.6320  0.3474  0.3143
   83SOL    HW1  639   0.158   1.517   4.050  0.8030  1.6639  0.2486
   83SOL    HW2  640   0.203   1.582   3.922  0.6079 -0.7977 -1.1257
   84SOL     OW  641   0.894   4.622   1.212 -0.1507 -0.4575 -0.3731
   84SOL    HW1  642   0.935   4.688   1.156  1.9093 -1.1998  0.1712
   84SOL    HW2  643   0.868   4.552   1.152 -1.7481  0.5182 -0.8687
   85SOL     OW  644   3.247   1.138   2.064  0.5604 -0.0645 -0.0144
   85SOL    HW1  645   3.179   1.200   2.039  0.7897  0.0037 -0.4751
   85SOL    HW2  646   3.206   1.082   2.130  0.3571  0.5965  0.4329
   86SOL     OW  647   4.799   4.239   0.290 -0.8897 -0.2424 -0.8373
   86SOL    HW1  648   4.747   4.175   0.240 -0.8999  0.0190 -1.1623
   86SOL    HW2  649   4.874   4.259   0.233 -2.6403  2.7009 -2.3653
   87SOL     OW  650   3.946   4.308   6.643 -0.3454 -0.0932  0.1286
   87SOL    HW1  651   3.954   4.403   6.650  1.7301 -0.3003  1.3593
   87SOL    HW2  652   3.954   4.290   6.550 -0.9604  0.9376 -0.1427
   88SOL     OW  653   3.885   3.150   2.371  0.1867 -0.3171  0.4635
   88SOL    HW1  654   3.885   3.060   2.403 -0.6525 -0.9480 -1.2101
   88SOL    HW2  655   3.830   3.198   2.433  1.0789 -0.8076  1.6692
   89SOL     OW  656   0.838   0.507   1.292 -0.0446 -0.0104 -0.0669
   89SOL    HW1  657   0.841   0.422   1.248 -0.3014  0.8695 -1.8953
   89SOL    HW2  658   0.783   0.561   1.235 -2.8333  0.4450  2.8299
   90SOL     OW  659   6.003   2.001   2.604 -0.2420  0.5016 -0.0967
   90SOL    HW1  660   6.080   1.945   2.616 -0.4622 -0.1938 -1.7242
   90SOL    HW2  661   5.928   1.944   2.620 -0.4495  1.0803  1.0883
   91SOL     OW  662   2.885   5.714   1.554 -0.0524  0.6816 -0.0817
   91SOL    HW1  663   2.869   5.799   1.595  2.7579  1.0888  0.4357
   91SOL    HW2  664   2.905   5.735   1.462 -1.9907  0.2362 -0.6457
   92SOL     OW  665   5.127   2.089   2.092  0.3779  0.6772 -0.0744
   92SOL    HW1  666   5.204   2.098   2.147 -1.0085 -0.3004  2.1884
   92SOL    HW2  667   5.144   2.145   2.017  2.4168  2.0607  1.3144
   93SOL     OW  668   1.400   0.724   0.619  0.4168 -0.5035  0.8000
   93SOL    HW1  669   1.310   0.728   0.588  0.5634  0.5243  0.4761
   93SOL    HW2  670   1.392   0.708   0.713 -0.0910 -0.7836  0.7134
   94SOL     OW  671   6.357   2.059   1.265  0.1114 -0.3340  0.1962
   94SOL    HW1  672   6.292   2.014   1.320  0.2791 -1.3259 -0.4009
   94SOL    HW2  673   6.305   2.120   1.213 -0.3390 -0.9626 -0.1133
   95SOL     OW  674   4.949   6.748   0.398  0.6330  0.3645  0.7342
   95SOL    HW1  675   4.915   6.659   0.404  1.3118 -0.0690 -1.2426
   95SOL    HW2  676   5.040   6.740   0.429  1.3795 -0.1140 -1.4333
   96SOL     OW  677   2.252   5.092   4.382  0.0218  0.3368  0.1433
   96SOL    HW1  678   2.302   5.119   4.305 -0.5337  0.2208 -0.2737
   96SOL    HW2  679   2.221   5.004   4.360 -1.5833  0.9567 -0.2451
   97SOL     OW  680   1.020   2.345   1.271 -0.0884 -0.4030  0.1899
   97SOL    HW1  681   0.974   2.429   1.277 -0.2549 -0.5457  0.9907
   97SOL    HW2  682   0.950   2.279   1.279  0.1347 -0.6160  0.3898
   98SOL     OW  683   3.255   2.605   3.588  0.2805  0.4666 -0.2414
   98SOL    HW1  684   3.212   2.594   3.504 -0.8517 -0.9808  0.4775
   98SOL    HW2  685   3.328   2.665   3.571 -1.9258  2.9605 -1.5226
   99SOL     OW  686   5.897   4.959   2.763 -0.3357 -0.3989 -0.7065
   99SOL    HW1  687   5.971   4.932   2.709  0.2117  1.0364 -0.7164
   99SOL    HW2  688   5.897   4.897   2.837  3.1416  1.6015  1.2528
  100SOL     OW  689   0.513   2.501   4.154 -0.5354 -0.0551  0.6574
  100SOL    HW1  690   0.471   2.417   4.173 -2.7778  0.9640  0.5361
  100SOL    HW2  691   0.459   2.539   4.085  1.0478  1.0641 -0.0246
  101SOL     OW  692   4.598   3.994   2.928 -0.1975 -0.6460 -0.2356
  101SOL    HW1  693   4.628   3.949   3.007 -1.5411  1.3336  1.5214
  101SOL    HW2  694   4.609   3.930   2.858 -1.7200 -3.6255  2.0047
  102SOL     OW  695   6.591   2.106   2.463  0.6183  0.1491  0.8195
  102SOL    HW1  696   6.557   2.051   2.534 -0.9895 -0.7243 -0.5464
  102SOL    HW2  697   6.543   2.188   2.470 -0.5260 -0.4246 -0.0184
  103SOL     OW  698   2.487   1.698   1.285  0.4885 -0.5354  0.2429
  103SOL    HW1  699   2.478   1.700   1.381 -0.2581  2.2405  0.2094
  103SOL    HW2  700   2.406   1.655   1.255  0.0839 -0.2011  0.8287
  104SOL     OW  701   3.010   3.034   3.247  0.6784 -0.2604 -0.1989
  104SOL    HW1  702   3.028   3.072   3.161  1.3980  0.6560  0.3340
  104SOL    HW2  703   3.087   3.057   3.300 -0.2408  0.1487  1.0054
  105SOL     OW  704   4.859   5.220   1.780 -0.2963 -0.0150  0.6246
  105SOL    HW1  705   4.944   5.182   1.804  0.4912  3.5355  4.7588
  105SOL    HW2  706   4.880   5.310   1.754 -2.6734  0.5869  0.5704
  106SOL     OW  707   6.643   1.370   3.933 -0.4745  0.3637  0.0829
  106SOL    HW1  708   6.669   1.379   4.025  0.8527 -0.7287 -0.1617
  106SOL    HW2  709   6.664   1.280   3.910  0.4673  0.9719 -1.6638
  107SOL     OW  710   3.717   0.576   1.645 -0.0499  0.3515 -0.0274
  107SOL    HW1  711   3.628   0.577   1.683  0.2735  0.0721  0.7750
  107SOL    HW2  712   3.704   0.550   1.554 -0.8147  0.5170  0.0259
  108SOL     OW  713   4.851   6.332   6.151  1.0295 -0.8641  0.1075
  108SOL    HW1  714   4.842   6.316   6.057 -0.3122 -2.9066  0.5269
  108SOL    HW2  715   4.926   6.280   6.178  1.0041 -0.8068  0.2953
  109SOL     OW  716   5.942   0.896   0.092 -0.6933 -0.1333  0.6989
  109SOL    HW1  717   5.930   0.931   0.004  3.5071  0.2701  0.0920
  109SOL    HW2  718   5.910   0.806   0.087  2.5553 -1.2873 -2.3854
  110SOL     OW  719   4.469   4.198   3.170  0.0468 -0.6698 -0.3142
  110SOL    HW1  720   4.405   4.255   3.127 -1.7132  0.4552  3.3964
  110SOL    HW2  721   4.421   4.117   3.187  0.5549 -0.9185 -0.0504
  111SOL     OW  722   0.764   3.806   2.382  0.2880  0.0377 -0.1871
  111SOL    HW1  723   0.763   3.713   2.408 -1.7969 -1.1577 -3.8801
  111SOL    HW2  724   0.848   3.817   2.336  0.0775 -0.3326 -0.6679
  112SOL     OW  725   5.622   4.978   2.671 -0.4332  0.1636  0.2903
  112SOL    HW1  726   5.587   5.066   2.688  1.4533  0.7300  1.5755
  112SOL    HW2  727   5.714   4.984   2.698 -0.4565 -2.4286  1.1241
  113SOL     OW  728   3.648   6.790   3.512 -0.2707  0.3783  0.5732
  113SOL    HW1  729   3.731   6.743   3.523  0.2911  1.4239  0.9037
  113SOL    HW2  730   3.598   6.770   3.591  0.4630  1.3066  1.2897
  114SOL     OW  731   3.600   5.343   4.037  0.0043  0.4192  0.2680
  114SOL    HW1  732   3.553   5.282   3.981  1.4590 -0.2495 -0.2777
  114SOL    HW2  733   3.659   5.389   3.977 -1.8982  3.3514  0.4101
  115SOL     OW  734   3.625   3.362   2.274  0.1645  0.0579 -0.1380
  115SOL    HW1  735   3.565   3.322   2.210  1.2704 -1.1082 -0.4970
  115SOL    HW2  736   3.586   3.342   2.359 -1.5905  2.0564 -0.3890
  116SOL     OW  737   0.206   5.439   4.092 -0.2946  0.0530 -0.2171
  116SOL    HW1  738   0.193   5.478   4.006 -0.5354  0.5279  0.0321
  116SOL    HW2  739   0.119   5.409   4.119 -0.2282 -0.0551 -0.1192
  117SOL     OW  740   0.521   4.101   1.223  0.5395 -0.6788  0.2329
  117SOL    HW1  741   0.453   4.130   1.284  0.0670 -2.7258  0.7483
  117SOL    HW2  742   0.567   4.031   1.269  2.9588  0.5074 -0.1731
  118SOL     OW  743   0.222   5.657   1.857 -0.4712 -0.3931 -0.4076
  118SOL    HW1  744   0.287   5.599   1.896 -1.0457 -0.9723 -0.2987
  118SOL    HW2  745   0.264   5.744   1.858  1.0246 -1.0368 -2.0026
  119SOL     OW  746   4.875   4.567   5.589  0.2731  0.0191 -0.2223
  119SOL    HW1  747   4.961   4.607   5.597 -0.9536  2.6282  1.6647
  119SOL    HW2  748   4.846   4.588   5.500  1.3979 -0.5500 -0.7365
  120SOL     OW  749   3.992   6.524   3.977 -0.1287  0.6122  0.0144
  120SOL    HW1  750   3.961   6.441   3.942 -0.1869  0.2448  0.9158
  120SOL    HW2  751   3.992   6.583   3.902  2.0353 -0.7486 -1.1476
  121SOL     OW  752   4.753   1.774   5.706  0.3137 -0.4005 -0.0104
  121SOL    HW1  753   4.732   1.702   5.765  2.1916 -0.8886  0.1055
  121SOL    HW2  754   4.730   1.742   5.619 -0.3778 -0.5058  0.2004
  122SOL     OW  755   0.359   2.716   3.106  0.2633 -0.0596 -0.5649
  122SOL    HW1  756   0.412   2.764   3.170 -0.8199  1.3526 -0.6717
  122SOL    HW2  757   0.422   2.660   3.060  1.1556 -0.6777  1.3152
  123SOL     OW  758   5.486   2.326   3.337  0.1378  0.7170  0.1386
  123SOL    HW1  759   5.568   2.287   3.307 -0.6381 -0.7656 -0.1361
  123SOL    HW2  760   5.441   2.256   3.384 -1.5093  1.1154 -0.7395
  124SOL     OW  761   4.003   3.570   4.192  0.6361 -0.4074  0.3310
  124SOL    HW1  762   4.043   3.623   4.124 -1.4066 -0.2121 -0.8158
  124SOL    HW2  763   3.992   3.630   4.266  0.2076  0.2135 -0.2236
  125SOL     OW  764   5.283   6.663   4.267 -0.2347 -0.4071  0.5571
  125SOL    HW1  765   5.229   6.585   4.280 -0.3498 -0.2048  1.3114
  125SOL    HW2  766   5.309   6.690   4.355  0.2703  0.0823  0.2672
  126SOL     OW  767   1.770   5.195   6.374  0.0982 -0.0733 -0.0542
  126SOL    HW1  768   1.734   5.157   6.294  1.4865 -0.4993 -0.4855
  126SOL    HW2  769   1.845   5.247   6.346  1.4436 -1.3082  1.0742
  127SOL     OW  770   6.008   6.601   4.050  0.1111 -1.1454  0.0623
  127SOL    HW1  771   6.094   6.561   4.042  0.0036 -1.6962  1.4208
  127SOL    HW2  772   5.954   6.534   4.092 -1.2080 -1.1119 -1.4703
  128SOL     OW  773   0.385   2.561   5.463 -0.4157  0.0923  0.6736
  128SOL    HW1  774   0.332   2.616   5.521  0.7748  1.3038  0.6576
  128SOL    HW2  775   0.474   2.568   5.499  0.0607 -0.3817 -0.3909
  129SOL     OW  776   0.330   1.353   1.985  0.0857 -0.5303  0.1107
  129SOL    HW1  777   0.336   1.258   1.972  2.4443 -0.3452 -0.4705
  129SOL    HW2  778   0.255   1.379   1.931  0.5959 -1.8232 -1.2963
  130SOL     OW  779   3.524   3.521   3.468  0.3762  0.3037 -0.0318
  130SOL    HW1  780   3.560   3.610   3.468  1.2464 -0.0227  1.5298
  130SOL    HW2  781   3.442   3.528   3.517  0.7318  0.1523  0.5955
  131SOL     OW  782   3.759   1.825   1.443 -0.2646  0.1461  0.5207
  131SOL    HW1  783   3.665   1.808   1.436 -0.2358 -0.3439  1.2166
  131SOL    HW2  784   3.801   1.747   1.407 -0.1244  0.1898  0.5865
  132SOL     OW  785   2.693   3.875   5.909  0.3547  0.0836 -0.3639
  132SOL    HW1  786   2.698   3.801   5.969  2.8842 -1.2898 -2.1494
  132SOL    HW2  787   2.668   3.949   5.966  0.2323 -1.5881  1.9067
  133SOL     OW  788   0.303   5.955   5.351 -0.1664  0.4837 -0.0307
  133SOL    HW1  789   0.285   6.017   5.422  0.2668  0.1110  0.4092
  133SOL    HW2  790   0.362   5.890   5.390 -2.2520 -1.4204  0.1635
  134SOL     OW  791   6.466   2.797   4.479  0.5619 -0.2325 -0.1754
  134SOL    HW1  792   6.471   2.792   4.384 -2.1473  1.6839 -0.5266
  134SOL    HW2  793   6.448   2.707   4.507 -0.6339 -0.5149 -1.7100
  135SOL     OW  794   2.059   4.881   4.011 -0.1901 -0.7942 -0.3071
  135SOL    HW1  795   2.035   4.814   3.946 -1.6086  2.5645 -3.5874
  135SOL    HW2  796   1.977   4.928   4.027  1.5861  3.5758 -2.5610
  136SOL     OW  797   1.621   3.540   0.946 -0.2853 -0.1491 -0.4885
  136SOL    HW1  798   1.526   3.545   0.941 -0.3227 -1.3607 -1.6034
  136SOL    HW2  799   1.651   3.626   0.917 -1.0225  0.9297  1.7025
  137SOL     OW  800   0.924   1.431   1.796 -0.2431  0.0642  0.6432
  137SOL    HW1  801   0.832   1.445   1.773  0.0044 -0.7588 -0.9999
  137SOL    HW2  802   0.943   1.343   1.765  1.3512  0.5716  0.0826
  138SOL     OW  803   3.824   1.390   4.647  0.2498  0.3235 -0.4641
  138SOL    HW1  804   3.891   1.340   4.601  1.8699  1.5931  0.3955
  138SOL    HW2  805   3.868   1.471   4.673 -1.4276  0.9071  0.7552
  139SOL     OW  806   2.385   4.398   6.393  0.6684  0.0044 -0.0637
  139SOL    HW1  807   2.365   4.474   6.447  0.1631 -0.9786  1.1716
  139SOL    HW2  808   2.301   4.371   6.357  0.8942  0.2105 -0.7629
  140SOL     OW  809   6.122   0.677   2.349 -0.0099 -0.4435  0.1426
  140SOL    HW1  810   6.157   0.688   2.438  2.6790 -0.6170 -0.8196
  140SOL    HW2  811   6.155   0.753   2.301 -3.6363  1.1429 -0.2117
  141SOL     OW  812   4.033   2.118   5.732 -0.1452  0.2637 -0.1072
  141SOL    HW1  813   4.071   2.186   5.788 -0.1188  0.0737  0.1039
  141SOL    HW2  814   3.960   2.083   5.783  0.1225 -0.1835 -0.0247
  142SOL     OW  815   6.092   2.733   1.114 -0.7709 -0.8079  0.6032
  142SOL    HW1  816   6.071   2.770   1.028 -0.7799 -1.7237  0.2101
  142SOL    HW2  817   6.033   2.779   1.174  1.2484  2.0458  0.6006
  143SOL     OW  818   2.732   5.457   4.837 -0.1915  0.3609  0.4441
  143SOL    HW1  819   2.724   5.553   4.838  2.0981  0.6174 -0.0963
  143SOL    HW2  820   2.714   5.430   4.927  1.8666  1.6411  1.3260
  144SOL     OW  821   5.233   1.808   6.382  0.0767  0.7082 -0.4571
  144SOL    HW1  822   5.298   1.828   6.449  1.0813 -0.6999 -0.9564
  144SOL    HW2  823   5.177   1.742   6.422  0.5014  0.0793 -0.8799
  145SOL     OW  824   1.723   5.871   0.965  0.4024 -0.2978  0.3187
  145SOL    HW1  825   1.815   5.890   0.982  0.3265 -0.1325  0.5456
  145SOL    HW2  826   1.693   5.942   0.908  0.6233 -0.7832 -0.4262
  146SOL     OW  827   2.261   3.621   2.225  0.6802  0.7405  0.0395
  146SOL    HW1  828   2.252   3.547   2.165  1.4137  0.7869 -0.1365
  146SOL    HW2  829   2.171   3.647   2.244  0.3823 -0.6576  0.6884
  147SOL     OW  830   4.713   5.076   4.160  0.1476  0.6218  0.3289
  147SOL    HW1  831   4.647   5.037   4.102 -0.3307  1.4349  0.3077
  147SOL    HW2  832   4.690   5.169   4.163 -0.9130  0.3503  3.2159
  148SOL     OW  833   1.887   0.509   6.719  0.2077 -0.4225  0.4211
  148SOL    HW1  834   1.816   0.488   6.659 -0.3111 -1.2993  1.3239
  148SOL    HW2  835   1.928   0.425   6.739  1.5631  0.0734 -0.1456
  149SOL     OW  836   1.442   4.610   0.406 -0.1384 -0.0580 -0.2301
  149SOL    HW1  837   1.487   4.528   0.388 -1.2953 -0.6103 -0.7108
  149SOL    HW2  838   1.423   4.646   0.319 -1.1554 -0.1479 -0.0564
  150SOL     OW  839   3.508   5.281   5.554  0.5187  0.2274  0.7648
  150SOL    HW1  840   3.555   5.293   5.636  0.1206  0.0719  1.0167
  150SOL    HW2  841   3.444   5.213   5.572  0.2976  0.3288  0.3796
  151SOL     OW  842   4.939   5.662   3.312  0.6201 -0.2237 -0.9770
  151SOL    HW1  843   4.855   5.709   3.316  0.8734  0.1317  0.3542
  151SOL    HW2  844   4.961   5.661   3.218  0.1135  1.4337 -1.1419
  152SOL     OW  845   1.329   2.530   6.362  0.1671  0.1504  0.4819
  152SOL    HW1  846   1.299   2.614   6.396  1.0923  0.5109  0.4535
  152SOL    HW2  847   1.253   2.472   6.368 -1.8611  2.0170 -3.2544
  153SOL     OW  848   2.340   5.171   1.396  0.1880 -0.4939 -0.3018
  153SOL    HW1  849   2.391   5.215   1.328 -0.9442  0.4132 -0.5971
  153SOL    HW2  850   2.269   5.232   1.417 -0.6658 -1.6217  0.2313
  154SOL     OW  851   1.856   3.242   1.569 -0.3105  0.1654 -0.5809
  154SOL    HW1  852   1.772   3.238   1.524  0.0814 -0.0175 -1.3283
  154SOL    HW2  853   1.835   3.247   1.662 -1.1715  1.5832 -0.8203
  155SOL     OW  854   5.830   1.886   1.715 -0.2064  0.2925 -0.2898
  155SOL    HW1  855   5.920   1.864   1.738  0.1737  0.5039 -1.5072
  155SOL    HW2  856   5.836   1.921   1.626 -1.6054 -0.4540 -0.7018
  156SOL     OW  857   6.103   3.728   0.458  0.2789  0.3071  0.0259
  156SOL    HW1  858   6.097   3.823   0.468 -0.0103  0.1710  1.2979
  156SOL    HW2  859   6.021   3.702   0.416  0.2596  0.5934 -0.1112
  157SOL     OW  860   1.486   4.915   6.721 -0.2612  0.5432  0.1380
  157SOL    HW1  861   1.451   4.899   6.634  0.8399  0.9796 -0.3947
  157SOL    HW2  862   1.563   4.858   6.728 -0.6981  0.0382  1.0702
  158SOL     OW  863   3.536   5.603   5.001 -0.3441  0.1785  0.1592
  158SOL    HW1  864   3.473   5.612   4.930 -1.0231 -2.1446  0.3929
  158SOL    HW2  865   3.621   5.620   4.961 -0.9212  1.6199 -0.5407
  159SOL     OW  866   2.986   5.686   4.595  0.2614 -0.5496  0.0090
  159SOL    HW1  867   2.902   5.651   4.566  0.3055 -1.1492  0.5833
  159SOL    HW2  868   2.965   5.768   4.640 -0.1525 -1.3011  1.2216
  160SOL     OW  869   6.430   1.539   6.538  0.1418 -0.3370  0.0748
  160SOL    HW1  870   6.508   1.485   6.551 -0.6304 -1.4428  0.2710
  160SOL    HW2  871   6.437   1.608   6.605  0.7721 -0.6349  0.3221
  161SOL     OW  872   4.021   1.954   4.295 -0.1654 -0.1219 -0.1368
  161SOL    HW1  873   3.950   1.889   4.288  0.7090 -1.0367 -0.9224
  161SOL    HW2  874   4.087   1.912   4.350  0.2321  0.2722 -0.3058
  162SOL     OW  875   0.484   6.456   6.496  0.1183 -0.3323 -0.4499
  162SOL    HW1  876   0.560   6.512   6.509 -1.2453  1.1742  1.6922
  162SOL    HW2  877   0.434   6.500   6.428  0.0732 -0.0582 -0.2447
  163SOL     OW  878   6.615   6.613   4.361 -0.5301  0.1560  0.0425
  163SOL    HW1  879   6.624   6.708   4.368 -3.0292  0.4414  0.4127
  163SOL    HW2  880   6.558   6.590   4.434 -0.3132 -1.5710 -0.3097
  164SOL     OW  881   6.100   3.736   0.782  0.2973  0.1239  0.1266
  164SOL    HW1  882   6.102   3.652   0.735  0.4715 -0.3152  0.8970
  164SOL    HW2  883   6.019   3.778   0.753  0.5407 -0.0034 -0.7796
  165SOL     OW  884   5.984   3.796   3.800  0.0254  0.7337 -0.5585
  165SOL    HW1  885   5.904   3.805   3.851 -0.1277 -1.4509 -0.3207
  165SOL    HW2  886   5.957   3.809   3.709 -0.3855  1.0472 -0.3920
  166SOL     OW  887   1.070   5.702   0.100 -0.0637  0.0825 -0.4492
  166SOL    HW1  888   0.989   5.751   0.114 -1.1544 -1.7783  0.1304
  166SOL    HW2  889   1.078   5.696   0.005  0.7588  2.3668 -0.5695
  167SOL     OW  890   5.303   1.032   1.106  1.0465  0.3551 -0.2707
  167SOL    HW1  891   5.363   1.030   1.032  3.0779  0.7201  1.2729
  167SOL    HW2  892   5.229   0.978   1.078  1.0888  1.5373 -3.0241
  168SOL     OW  893   5.514   2.315   3.710 -0.2573 -0.2334 -0.1464
  168SOL    HW1  894   5.544   2.245   3.652 -0.3561  0.2509 -0.7885
  168SOL    HW2  895   5.517   2.394   3.656  0.2066  0.3247  0.6806
  169SOL     OW  896   3.805   6.688   2.531 -0.1767  0.2136  0.0481
  169SOL    HW1  897   3.776   6.629   2.462 -0.3460  0.5073 -0.1304
  169SOL    HW2  898   3.837   6.766   2.485  0.7526 -0.0366  0.2435
  170SOL     OW  899   3.796   3.424   4.703 -0.3969 -0.1255  0.1407
  170SOL    HW1  900   3.848   3.377   4.638  2.6501  0.4052  2.0042
  170SOL    HW2  901   3.812   3.516   4.685  1.0845  0.0315  1.9712
  171SOL     OW  902   0.862   5.062   4.623  0.0437  0.1868  0.2673
  171SOL    HW1  903   0.778   5.080   4.580  0.7382  1.7894 -0.5271
  171SOL    HW2  904   0.876   4.968   4.612 -1.1523  0.0885 -0.5203
  172SOL     OW  905   0.227   2.099   1.640  0.0401 -0.2108  0.5314
  172SOL    HW1  906   0.273   2.059   1.714  0.4312  1.3845  1.1818
  172SOL    HW2  907   0.296   2.139   1.587 -0.0382 -2.6655 -1.6481
  173SOL     OW  908   1.546   5.815   5.727 -0.2981 -0.0191  0.0638
  173SOL    HW1  909   1.478   5.760   5.686 -0.7258  0.2734  0.3713
  173SOL    HW2  910   1.545   5.896   5.677  0.8745 -0.5517 -0.8916
  174SOL     OW  911   1.904   4.124   3.116 -0.4680  0.3787  0.1775
  174SOL    HW1  912   1.888   4.082   3.201  0.8782 -1.1605 -0.2782
  174SOL    HW2  913   1.998   4.110   3.100 -0.8918 -0.3483 -2.0402
  175SOL     OW  914   5.590   0.056   3.970 -0.0843 -0.5362  0.2354
  175SOL    HW1  915   5.569   0.135   4.020 -3.0391 -0.6931 -0.5634
  175SOL    HW2  916   5.653   0.086   3.904 -0.6227  1.0035  0.3833
  176SOL     OW  917   1.210   0.287   4.944 -0.1290  0.2755 -0.0679
  176SOL    HW1  918   1.284   0.336   4.909 -0.4246 -0.5823 -2.0422
  176SOL    HW2  919   1.136   0.346   4.937 -0.2182  0.0498 -1.0971
  177SOL     OW  920   3.738   5.055   2.592  0.9411 -0.7907  0.0162
  177SOL    HW1  921   3.742   5.133   2.647 -0.6464 -0.9019  0.3222
  177SOL    HW2  922   3.713   5.087   2.506  0.9563 -0.8942 -0.0277
  178SOL     OW  923   5.631   6.283   2.234 -0.5371 -0.1159  0.6567
  178SOL    HW1  924   5.663   6.267   2.145 -0.8364 -0.5419  0.6207
  178SOL    HW2  925   5.649   6.201   2.281  0.3239  0.3787  1.1985
  179SOL     OW  926   0.029   1.547   1.523 -0.0545 -0.1609  0.1787
  179SOL    HW1  927  -0.041   1.529   1.460 -2.1528  1.1108  2.0069
  179SOL    HW2  928   0.020   1.640   1.543  2.3754  0.1213  0.3157
  180SOL     OW  929   3.129   5.559   5.003 -0.6722 -0.2677  0.7941
  180SOL    HW1  930   3.043   5.518   5.008 -0.1790 -1.2132  2.0925
  180SOL    HW2  931   3.140   5.604   5.086  0.6500 -1.3758  1.2633
  181SOL     OW  932   6.427   4.527   4.891 -0.7882  0.8436 -0.6622
  181SOL    HW1  933   6.367   4.571   4.951 -1.2279  0.2940 -0.6888
  181SOL    HW2  934   6.503   4.584   4.887 -0.8744  1.0344  0.1923
  182SOL     OW  935   2.091   1.868   2.269 -0.2316  0.1704  0.2537
  182SOL    HW1  936   2.027   1.916   2.217  0.4489 -0.7267 -1.4686
  182SOL    HW2  937   2.149   1.936   2.304 -0.1813  0.7322 -0.8881
  183SOL     OW  938   6.069   0.104   1.657 -0.2627 -0.2166  0.1573
  183SOL    HW1  939   6.158   0.069   1.658 -0.7676 -1.6128 -0.4947
  183SOL    HW2  940   6.076   0.190   1.697  1.5960  0.2270 -1.0091
  184SOL     OW  941   2.792   5.092   1.988  0.0169  0.3564 -0.2912
  184SOL    HW1  942   2.830   5.122   2.070 -1.8610  1.7686  0.1374
  184SOL    HW2  943   2.793   5.170   1.932  2.2348 -0.8347 -2.0614
  185SOL     OW  944   2.567   5.084   2.580 -0.1738  0.2146 -0.4622
  185SOL    HW1  945   2.619   5.107   2.503 -3.1750  2.1343 -2.0838
  185SOL    HW2  946   2.570   5.162   2.635 -1.9233  0.6682 -0.9703
  186SOL     OW  947   3.030   4.200   4.894 -0.9391  0.3162  0.2227
  186SOL    HW1  948   3.035   4.226   4.986 -0.8282 -1.2415  0.6964
  186SOL    HW2  949   2.938   4.213   4.871 -1.0729  0.2794  0.7137
  187SOL     OW  950   3.610   4.541   1.933  0.4427 -0.1158  0.5936
  187SOL    HW1  951   3.556   4.462   1.932 -0.3162  0.4023  0.0519
  187SOL    HW2  952   3.553   4.609   1.898  1.6018  0.3484 -0.4503
  188SOL     OW  953   5.934   6.242   2.064  0.4272  0.1148  0.2317
  188SOL    HW1  954   5.840   6.255   2.058  0.2941 -1.3004 -2.2133
  188SOL    HW2  955   5.966   6.318   2.113 -1.8765  1.0110  0.4579
  189SOL     OW  956   5.279   2.195   6.431 -0.4350  0.6870  0.2123
  189SOL    HW1  957   5.260   2.289   6.432  0.2288  0.8308  1.0669
  189SOL    HW2  958   5.335   2.181   6.508  0.3649 -0.2181 -0.5002
  190SOL     OW  959   5.773   2.141   3.561  0.2614 -0.0510  0.5482
  190SOL    HW1  960   5.698   2.082   3.559  0.8334 -0.8533  1.3618
  190SOL    HW2  961   5.782   2.174   3.472 -1.6645  0.8765  0.6568
  191SOL     OW  962   3.205   4.308   5.162 -0.0512  0.0999  0.1106
  191SOL    HW1  963   3.187   4.271   5.249  0.2555  0.7868  0.4782
  191SOL    HW2  964   3.235   4.397   5.180 -1.7317  0.9018 -0.7880
  192SOL     OW  965   3.484   2.179   5.232 -0.7340  0.2368 -0.4595
  192SOL    HW1  966   3.569   2.190   5.189 -0.4965  1.3526  0.2340
  192SOL    HW2  967   3.477   2.085   5.248  0.8205  0.2031  0.3062
  193SOL     OW  968   1.109   1.871   0.516 -0.3842  0.8456  0.4970
  193SOL    HW1  969   1.101   1.857   0.422  1.1076 -0.5549  0.5101
  193SOL    HW2  970   1.176   1.939   0.525  1.9029 -1.2626  0.4947
  194SOL     OW  971   3.819   3.898   1.539  0.5218 -0.3812 -0.3576
  194SOL    HW1  972   3.896   3.857   1.579 -0.0237 -0.4897  0.5873
  194SOL    HW2  973   3.843   3.990   1.530  0.7818 -0.4262 -0.1263
  195SOL     OW  974   0.830   6.295   5.070 -0.0070 -0.2053 -0.0514
  195SOL    HW1  975   0.752   6.328   5.023 -1.4948 -1.3140  1.5234
  195SOL    HW2  976   0.823   6.332   5.158  0.9713 -0.7566  0.2746
  196SOL     OW  977   5.387   3.721   3.005 -0.2594  0.5523  0.1973
  196SOL    HW1  978   5.318   3.656   2.993  0.2074  0.0970 -0.0632
  196SOL    HW2  979   5.343   3.796   3.045 -0.7141 -0.1026  0.9531
  197SOL     OW  980   6.304   1.361   0.616 -0.2387 -0.2689 -0.3447
  197SOL    HW1  981   6.263   1.276   0.630  0.2447 -0.6073 -0.9373
  197SOL    HW2  982   6.378   1.343   0.558  0.1277  0.4897 -0.1227
  198SOL     OW  983   3.857   2.245   1.337 -0.3681  0.6211  0.6412
  198SOL    HW1  984   3.923   2.312   1.318 -0.6991  0.8864  0.4404
  198SOL    HW2  985   3.887   2.168   1.289 -0.5410  0.9274  0.0339
  199SOL     OW  986   5.263   1.298   1.724 -0.6532 -0.0270 -0.3601
  199SOL    HW1  987   5.345   1.348   1.725 -0.5240 -0.2399 -0.2899
  199SOL    HW2  988   5.231   1.307   1.634 -0.0072 -0.8170 -0.6902
  200SOL     OW  989   0.484   0.363   5.667  0.3525 -0.3510 -0.0064
  200SOL    HW1  990   0.566   0.389   5.624 -0.3257 -0.5785 -1.5131
  200SOL    HW2  991   0.448   0.444   5.702  0.7145 -0.0783 -0.2606
  201SOL     OW  992   2.965   6.502   1.705  0.4985 -0.2422  0.2390
  201SOL    HW1  993   2.949   6.591   1.675  0.1302 -0.3865 -0.0024
  201SOL    HW2  994   2.966   6.449   1.624  1.7456 -0.3063  0.2896
  202SOL     OW  995   1.884   6.199   5.040 -0.2528 -0.0141  0.3855
  202SOL    HW1  996   1.925   6.220   4.956  2.4060  0.4540  1.7001
  202SOL    HW2  997   1.951   6.151   5.088 -1.3537  0.5354  2.5865
  203SOL     OW  998   6.042   6.387   0.750 -0.3428  0.1916 -0.1368
  203SOL    HW1  999   6.072   6.478   0.747 -0.2811  0.1454 -1.9769
  203SOL    HW2 1000   5.978   6.381   0.679 -3.7456 -0.0851  2.6748
  204SOL     OW 1001   1.304   2.884   5.095 -0.3627 -0.0801  0.3259
  204SOL    HW1 1002   1.329   2.849   5.181 -2.9092 -0.4941  0.9771
  204SOL    HW2 1003   1.277   2.974   5.113  2.2293  0.9906 -0.6732
  205SOL     OW 1004   4.947   4.420   6.749  0.8833  0.2103 -0.6702
  205SOL    HW1 1005   4.935   4.464   6.665 -1.6361 -0.4933 -0.7643
  205SOL    HW2 1006   4.933   4.327   6.730 -2.4411  0.2559  0.8338
  206SOL     OW 1007   4.289   0.076   6.751 -0.5506  0.7451 -0.1911
  206SOL    HW1 1008   4.196   0.069   6.729 -0.8219  0.6372  0.9218
  206SOL    HW2 1009   4.306   0.004   6.811  0.4523  0.3023 -0.9707
  207SOL     OW 1010   5.212   1.899   0.916  0.3338 -0.3154  0.0640
  207SOL    HW1 1011   5.276   1.968   0.934 -0.0485 -0.5168  2.5447
  207SOL    HW2 1012   5.132   1.946   0.892 -0.3305  0.3119  3.0505
  208SOL     OW 1013   0.619   2.858   1.932 -0.2859  0.1212 -0.4090
  208SOL    HW1 1014   0.619   2.764   1.950 -1.8325 -0.3451 -2.4534
  208SOL    HW2 1015   0.610   2.899   2.018  0.2794 -1.5873  0.5102
  209SOL     OW 1016   5.104   5.507   2.233 -0.4307  0.6933  0.5988
  209SOL    HW1 1017   5.061   5.497   2.149  1.3252 -1.8534 -0.1228
  209SOL    HW2 1018   5.185   5.553   2.214  0.4911 -0.8455  0.6432
  210SOL     OW 1019   1.216   1.768   6.820  0.5706  0.0422 -0.1409
  210SOL    HW1 1020   1.307   1.796   6.819  0.8257 -0.7675 -1.0057
  210SOL    HW2 1021   1.219   1.679   6.855  0.2147 -0.2681 -0.8719
  211SOL     OW 1022   4.666   1.754   2.309  0.0279 -0.3600  0.5797
  211SOL    HW1 1023   4.581   1.758   2.267  1.3816  0.2941 -2.3550
  211SOL    HW2 1024   4.712   1.683   2.263  1.5344  0.2603  1.0670
  212SOL     OW 1025   0.683   4.644   0.081 -0.2565  0.0399  0.4414
  212SOL    HW1 1026   0.730   4.573   0.124  0.0391 -1.0068 -1.4817
  212SOL    HW2 1027   0.694   4.626  -0.013 -0.8574  2.1814 -0.0953
  213SOL     OW 1028   3.769   3.566   3.955  0.0009 -0.0498  0.0737
  213SOL    HW1 1029   3.687   3.521   3.936  0.4723 -1.4372  1.1436
  213SOL    HW2 1030   3.782   3.554   4.049  0.1891  2.3328  0.4097
  214SOL     OW 1031   1.899   5.623   4.159  0.6717 -0.0610 -0.3585
  214SOL    HW1 1032   1.916   5.709   4.120  0.0108  0.8324  1.1866
  214SOL    HW2 1033   1.973   5.609   4.219  0.2120 -0.0168  0.2333
  215SOL     OW 1034   1.204   4.293   5.812  0.2640 -0.0844  0.6314
  215SOL    HW1 1035   1.291   4.333   5.805 -0.5329  2.0009  1.9673
  215SOL    HW2 1036   1.165   4.306   5.726  0.7914  0.1365  0.4183
  216SOL     OW 1037   2.541   6.132   3.655 -0.1672  0.6787  0.3688
  216SOL    HW1 1038   2.554   6.224   3.632 -0.3554  0.8659  1.0055
  216SOL    HW2 1039   2.616   6.088   3.616 -0.4952  0.9804 -0.6316
  217SOL     OW 1040   0.316   6.052   1.024  0.5259 -0.6841 -0.2057
  217SOL    HW1 1041   0.268   6.026   0.945  2.1443  1.8945 -2.1957
  217SOL    HW2 1042   0.367   5.975   1.048 -0.2461 -1.6302 -1.4666
  218SOL     OW 1043   2.403   2.252   3.501  0.2950 -0.3213  0.2662
  218SOL    HW1 1044   2.429   2.343   3.513 -0.6451 -0.0646  0.4343
  218SOL    HW2 1045   2.403   2.239   3.406 -0.1724  0.0442  0.2105
  219SOL     OW 1046   3.076   3.730   4.741 -0.0973 -0.0586 -0.1475
  219SOL    HW1 1047   3.061   3.789   4.815  0.2742 -1.4832  1.1220
  219SOL    HW2 1048   3.044   3.778   4.665 -0.2962  1.5511  0.8976
  220SOL     OW 1049   3.555   3.760   2.416 -0.3919  0.6787  0.1245
  220SOL    HW1 1050   3.483   3.714   2.372  0.3771 -0.5088  0.0795
  220SOL    HW2 1051   3.633   3.735   2.368  0.2491  0.7238  1.1178
  221SOL     OW 1052   2.127   1.867   4.536 -0.2946 -0.2629  0.0188
  221SOL    HW1 1053   2.129   1.848   4.442  0.6055 -0.5602  0.0871
  221SOL    HW2 1054   2.112   1.782   4.577  0.5993 -0.3466  0.1904
  222SOL     OW 1055   0.600   6.281   2.700 -0.5501 -0.4769  0.2580
  222SOL    HW1 1056   0.562   6.315   2.781  1.0148  0.6822  0.5552
  222SOL    HW2 1057   0.583   6.349   2.635 -1.2840 -1.1466 -0.2807
  223SOL     OW 1058   0.085   2.406   0.849  0.1896  1.0378 -0.0233
  223SOL    HW1 1059   0.064   2.451   0.931  1.4936 -1.1979  1.6767
  223SOL    HW2 1060   0.033   2.450   0.783 -3.0108  1.2813  2.4295
  224SOL     OW 1061   6.706   5.103   1.587  0.5312 -0.0204  0.5907
  224SOL    HW1 1062   6.730   5.045   1.515  0.8166  1.2217 -0.3485
  224SOL    HW2 1063   6.657   5.174   1.546  1.3187  1.0847  1.4885
  225SOL     OW 1064   5.738   5.567   0.243 -0.0686  0.1800 -0.4579
  225SOL    HW1 1065   5.708   5.525   0.162  0.1003 -0.1466 -0.3559
  225SOL    HW2 1066   5.710   5.506   0.312 -1.5215  1.1614 -0.1368
  226SOL     OW 1067   5.793   1.937   3.196 -0.6890 -0.3961  0.8145
  226SOL    HW1 1068   5.849   1.861   3.183 -1.0862 -0.8888  1.8259
  226SOL    HW2 1069   5.726   1.907   3.258 -2.4727 -0.0135 -0.8389
  227SOL     OW 1070   5.017   1.915   6.749  0.0836  0.1582 -0.2842
  227SOL    HW1 1071   5.079   1.935   6.678 -0.5462  0.5848 -0.7320
  227SOL    HW2 1072   4.953   1.856   6.709 -1.0230  1.4391 -0.4781
  228SOL     OW 1073   6.093   5.170   1.988 -0.3149  0.1647 -0.6783
  228SOL    HW1 1074   6.054   5.223   2.058 -0.1418 -0.3714 -0.1754
  228SOL    HW2 1075   6.035   5.185   1.913 -1.2397 -0.2678 -0.0639
  229SOL     OW 1076   4.751   3.497   6.567  0.2939  0.4054 -0.2978
  229SOL    HW1 1077   4.721   3.528   6.652 -1.5691 -1.4003 -0.2137
  229SOL    HW2 1078   4.757   3.577   6.513  1.7245  1.6012  1.5169
  230SOL     OW 1079   1.264   5.921   3.742 -0.2072  0.1016  0.2454
  230SOL    HW1 1080   1.197   5.934   3.676 -1.2653 -1.5182  0.9142
  230SOL    HW2 1081   1.345   5.954   3.703 -1.4608  2.7471 -0.3319
  231SOL     OW 1082   5.655   3.505   2.535 -0.8748 -0.1071  0.0579
  231SOL    HW1 1083   5.639   3.492   2.628 -0.6168  1.3211  0.3262
  231SOL    HW2 1084   5.750   3.496   2.526 -0.6570  1.6611  0.2963
  232SOL     OW 1085   3.140   4.563   2.878  0.3899  0.1169 -0.3739
  232SOL    HW1 1086   3.169   4.550   2.788  1.2909  1.0508 -0.2357
  232SOL    HW2 1087   3.056   4.609   2.870  1.3536  1.8715 -0.7333
  233SOL     OW 1088   2.240   1.649   6.678  0.3227 -0.5309  0.2408
  233SOL    HW1 1089   2.230   1.556   6.658 -1.5213 -0.3955  0.3994
  233SOL    HW2 1090   2.335   1.661   6.690  0.7398 -2.0828 -1.1647
  234SOL     OW 1091   1.671   1.648   0.537 -0.0217  0.2130  0.0292
  234SOL    HW1 1092   1.697   1.556   0.546  0.1024 -0.0600 -2.3483
  234SOL    HW2 1093   1.601   1.659   0.602  1.7273 -0.7620  2.2116
  235SOL     OW 1094   3.770   0.577   2.558 -0.4282  0.3667 -0.1909
  235SOL    HW1 1095   3.803   0.625   2.634  1.1583  1.5709 -1.5715
  235SOL    HW2 1096   3.726   0.501   2.596  0.3723  0.8738  1.9252
  236SOL     OW 1097   2.349   1.272   4.003 -0.3257 -0.2700 -0.2560
  236SOL    HW1 1098   2.435   1.304   3.974  0.2631 -0.6300  1.0315
  236SOL    HW2 1099   2.368   1.219   4.080 -1.6696 -0.7299 -0.2189
  237SOL     OW 1100   0.465   4.773   4.214 -0.0895  0.5384  0.1283
  237SOL    HW1 1101   0.519   4.697   4.193 -0.1273  0.0589  1.6230
  237SOL    HW2 1102   0.411   4.786   4.136  1.5857  0.5284 -1.0849
  238SOL     OW 1103   5.968   1.916   4.876  0.6045  0.3158  0.7101
  238SOL    HW1 1104   5.968   1.985   4.943 -6.1517  2.0299 -0.2858
  238SOL    HW2 1105   5.995   1.961   4.796 -0.4862  0.9413  0.6750
  239SOL     OW 1106   1.658   3.363   4.155 -0.2024 -0.7602 -0.3400
  239SOL    HW1 1107   1.696   3.289   4.108  1.4834 -0.0055 -0.2358
  239SOL    HW2 1108   1.706   3.367   4.237 -0.4793  0.2757 -0.2131
  240SOL     OW 1109   5.776   0.067   0.510 -0.1570 -0.0900 -0.4234
  240SOL    HW1 1110   5.690   0.072   0.468 -1.7839 -1.5859  2.4620
  240SOL    HW2 1111   5.763   0.103   0.597  2.1423 -0.3982  0.1119
  241SOL     OW 1112   0.928   4.233   0.469 -0.1236 -0.4483 -0.8918
  241SOL    HW1 1113   1.016   4.251   0.436  1.2234 -1.0213  2.0314
  241SOL    HW2 1114   0.907   4.146   0.437  1.2455 -1.1070 -0.0848
  242SOL     OW 1115   4.463   1.632   4.120  0.2514  0.1870 -0.0076
  242SOL    HW1 1116   4.438   1.708   4.066 -1.9052  0.3720  1.1604
  242SOL    HW2 1117   4.471   1.560   4.058 -1.9467  0.4499 -0.6855
  243SOL     OW 1118   4.135   1.239   2.320  0.2637  0.0123 -0.1651
  243SOL    HW1 1119   4.145   1.147   2.346  0.8127  0.1439  0.1171
  243SOL    HW2 1120   4.082   1.236   2.241  0.8163 -0.6056 -0.5289
  244SOL     OW 1121   0.045   1.825   1.546 -0.0495  0.4042  0.1171
  244SOL    HW1 1122   0.045   1.907   1.496  1.3237  2.4747  3.2008
  244SOL    HW2 1123   0.100   1.843   1.622 -0.5694 -3.0898  1.5286
  245SOL     OW 1124   0.817   0.382   1.554  0.1084 -0.5157  0.6779
  245SOL    HW1 1125   0.787   0.438   1.482 -1.7925 -1.1150  0.9494
  245SOL    HW2 1126   0.897   0.341   1.521 -0.4157 -0.3558 -0.8846
  246SOL     OW 1127   5.445   2.207   4.370 -0.8129 -0.1139 -0.3589
  246SOL    HW1 1128   5.444   2.132   4.310  0.3366  0.4878 -1.1590
  246SOL    HW2 1129   5.437   2.168   4.457  0.9754 -1.2839 -0.6701
  247SOL     OW 1130   2.929   5.402   5.810  0.0056  0.1698  0.2538
  247SOL    HW1 1131   3.009   5.438   5.847 -1.4402  2.0286  1.7970
  247SOL    HW2 1132   2.859   5.445   5.858 -1.9781 -0.1269 -2.1456
  248SOL     OW 1133   0.228   4.332   4.821  0.0097 -0.7676 -0.2347
  248SOL    HW1 1134   0.274   4.329   4.905  0.5402  0.1397 -0.4765
  248SOL    HW2 1135   0.297   4.316   4.756 -0.5941 -2.6235 -0.4645
  249SOL     OW 1136   2.270   2.138   1.863  1.1980 -0.3922  0.4812
  249SOL    HW1 1137   2.239   2.195   1.933  2.2783 -0.0725  0.7190
  249SOL    HW2 1138   2.320   2.197   1.806 -3.1898  0.4455 -3.1046
  250SOL     OW 1139   2.617   6.343   2.546  0.2500  0.0000  0.0882
  250SOL    HW1 1140   2.523   6.343   2.529  0.1888 -1.0395  0.3667
  250SOL    HW2 1141   2.627   6.293   2.627  0.8239  2.0879  1.3987
  251SOL     OW 1142   4.590   6.019   2.297  0.3376 -0.3130 -0.3742
  251SOL    HW1 1143   4.664   6.014   2.237  1.0751 -0.9065  0.5607
  251SOL    HW2 1144   4.532   6.086   2.259  2.9131  2.6925  0.5672
  252SOL     OW 1145   2.868   1.071   2.024  0.2869  0.5556 -0.2455
  252SOL    HW1 1146   2.793   1.090   1.967  0.7428 -0.5971 -1.2882
  252SOL    HW2 1147   2.883   1.153   2.071 -0.7562  1.2390 -1.0300
  253SOL     OW 1148   5.240   4.508   0.089 -0.6234  0.0324  0.1118
  253SOL    HW1 1149   5.295   4.432   0.070  0.1811  0.5542  0.2879
  253SOL    HW2 1150   5.284   4.581   0.046 -1.5550  0.3561 -0.3221
  254SOL     OW 1151   0.617   5.486   0.148 -0.1590  0.1717  0.1327
  254SOL    HW1 1152   0.612   5.423   0.220  0.3166  0.1501  0.1445
  254SOL    HW2 1153   0.698   5.465   0.102  1.8612  2.9146  2.1400
  255SOL     OW 1154   2.683   4.913   5.372  0.0168  0.4880 -0.1456
  255SOL    HW1 1155   2.693   4.834   5.319  0.7859  0.2809  0.2930
  255SOL    HW2 1156   2.674   4.984   5.309  1.4089  0.3079 -0.5794
  256SOL     OW 1157   4.403   0.734   1.388 -0.9381  0.1673  0.6322
  256SOL    HW1 1158   4.443   0.690   1.314 -3.2066 -0.6670 -0.1960
  256SOL    HW2 1159   4.421   0.677   1.463  1.9133  1.3368  0.9469
  257SOL     OW 1160   6.386   3.882   6.526  0.5278  0.0650 -0.2204
  257SOL    HW1 1161   6.434   3.803   6.551  0.4584 -0.2635 -1.0907
  257SOL    HW2 1162   6.359   3.866   6.436  1.6626  1.6459 -0.8871
  258SOL     OW 1163   0.336   5.921   1.836 -0.4793  0.8102  0.2736
  258SOL    HW1 1164   0.419   5.957   1.804 -1.1184  0.7664 -1.5724
  258SOL    HW2 1165   0.269   5.971   1.789 -1.4887  0.4490  1.2981
  259SOL     OW 1166   6.361   3.572   3.501 -0.1715  0.2887 -0.5471
  259SOL    HW1 1167   6.350   3.518   3.423  1.3066 -0.2115 -0.4303
  259SOL    HW2 1168   6.311   3.527   3.569 -0.2932 -0.0440 -0.8548
  260SOL     OW 1169   2.606   1.724   5.347 -0.0495 -0.1808  0.5112
  260SOL    HW1 1170   2.569   1.782   5.281  2.1787  0.4105 -0.3284
  260SOL    HW2 1171   2.601   1.775   5.429 -1.3394 -0.2612  0.4928
  261SOL     OW 1172   2.186   5.481   4.737 -0.0125 -0.4194  0.4811
  261SOL    HW1 1173   2.254   5.446   4.679 -0.4632 -1.5594  0.6073
  261SOL    HW2 1174   2.105   5.439   4.708 -0.7545  1.1855  0.1054
  262SOL     OW 1175   5.314   3.341   5.720 -0.4166  0.4291  0.4035
  262SOL    HW1 1176   5.348   3.395   5.791 -2.0059  0.8213  0.9135
  262SOL    HW2 1177   5.369   3.263   5.720 -0.2920  0.4897  1.9763
  263SOL     OW 1178   6.208   3.903   6.315  0.1769 -0.5666 -0.7877
  263SOL    HW1 1179   6.163   3.967   6.260 -1.7710 -1.4422 -0.2716
  263SOL    HW2 1180   6.138   3.859   6.364  1.6212 -1.7642  0.2967
  264SOL     OW 1181   2.153   6.552   2.444  0.2912 -0.0747 -0.7055
  264SOL    HW1 1182   2.234   6.502   2.440 -0.0816 -0.6067 -2.0379
  264SOL    HW2 1183   2.139   6.584   2.355 -0.1285  1.3870 -0.1615
  265SOL     OW 1184   5.854   0.880   1.486 -0.3872 -0.0775  0.5187
  265SOL    HW1 1185   5.761   0.862   1.494 -0.4336 -0.4649 -0.6673
  265SOL    HW2 1186   5.898   0.808   1.531 -0.6396 -1.0138 -0.7003
  266SOL     OW 1187   1.435   4.960   2.347 -0.7058 -0.3911  0.0353
  266SOL    HW1 1188   1.401   4.882   2.304 -1.1857  0.5313 -1.3400
  266SOL    HW2 1189   1.408   5.032   2.290 -1.6474  0.9535  2.0703
  267SOL     OW 1190   3.393   5.018   1.017  0.1030 -0.4347 -0.1153
  267SOL    HW1 1191   3.459   5.043   1.082 -0.8970 -0.2139  0.8307
  267SOL    HW2 1192   3.331   5.091   1.016 -0.1371 -0.6363 -0.9955
  268SOL     OW 1193   0.165   0.209   2.435  0.1894 -0.2400 -0.2449
  268SOL    HW1 1194   0.139   0.272   2.503  0.1442 -1.0422  0.5071
  268SOL    HW2 1195   0.121   0.128   2.460 -0.8966 -0.2314 -1.9848
  269SOL     OW 1196   6.742   2.154   1.760 -0.1161  0.0913 -0.1849
  269SOL    HW1 1197   6.802   2.180   1.690  3.0437 -1.0128  1.9052
  269SOL    HW2 1198   6.708   2.236   1.795  0.6520  0.7965 -1.0457
  270SOL     OW 1199   2.791   3.894   4.784 -0.1434 -0.5456  0.0934
  270SOL    HW1 1200   2.866   3.885   4.843 -0.3166  1.1491  0.6273
  270SOL    HW2 1201   2.824   3.862   4.699  0.9061 -0.6186  0.5051
  271SOL     OW 1202   5.202   4.347   5.153  0.1774  0.4899 -0.0720
  271SOL    HW1 1203   5.250   4.426   5.129  0.3395  0.5322  0.3836
  271SOL    HW2 1204   5.128   4.345   5.093 -0.6670  1.7941  0.8616
  272SOL     OW 1205   3.193   6.436   2.478  0.2853 -0.6010 -0.6012
  272SOL    HW1 1206   3.257   6.441   2.407  2.2421 -0.2550  1.0834
  272SOL    HW2 1207   3.148   6.353   2.464 -1.0422  0.4808 -3.5050
  273SOL     OW 1208   3.302   1.935   4.282  0.0493  0.0983  0.2052
  273SOL    HW1 1209   3.234   1.993   4.246 -0.4714 -0.3437  0.4653
  273SOL    HW2 1210   3.335   1.887   4.206  0.9030  1.1379 -0.1164
  274SOL     OW 1211   1.528   1.390   1.784 -0.2732  0.3353 -0.0220
  274SOL    HW1 1212   1.584   1.397   1.707  1.8007  0.7996  1.4374
  274SOL    HW2 1213   1.499   1.299   1.786  0.3264  0.1209 -0.8932
  275SOL     OW 1214   1.752   6.223   0.535  0.0750  0.3064  0.4187
  275SOL    HW1 1215   1.765   6.198   0.443  1.8386 -0.2906  0.7757
  275SOL    HW2 1216   1.726   6.315   0.532  0.5722  0.4283 -0.6779
  276SOL     OW 1217   0.988   5.058   4.864  0.3088  0.2724 -0.5110
  276SOL    HW1 1218   0.922   5.076   4.797  0.0988  1.3535 -0.0207
  276SOL    HW2 1219   0.939   5.057   4.946  0.7638  0.1982 -0.2377
  277SOL     OW 1220   6.146   0.514   2.916 -0.6559  0.3432  0.2724
  277SOL    HW1 1221   6.104   0.581   2.861 -1.1662 -0.2663 -0.0921
  277SOL    HW2 1222   6.187   0.455   2.853 -0.8440 -0.0992  0.5644
  278SOL     OW 1223   0.620   5.960   0.232 -0.2423 -0.1610  0.4232
  278SOL    HW1 1224   0.543   5.910   0.259 -0.5688 -0.0684 -0.3062
  278SOL    HW2 1225   0.593   6.004   0.151 -0.1481  1.6301  1.3128
  279SOL     OW 1226   1.961   6.075   0.111 -0.1838 -0.3004 -0.1272
  279SOL    HW1 1227   1.999   5.995   0.148  0.3460  0.2469  0.5236
  279SOL    HW2 1228   1.915   6.045   0.032  2.1481 -0.8846 -1.3292
  280SOL     OW 1229   2.211   0.944   0.743 -0.6857 -0.8294 -0.8995
  280SOL    HW1 1230   2.173   0.935   0.656 -1.5129 -1.8720 -0.4539
  280SOL    HW2 1231   2.195   0.859   0.785  0.3045 -0.5759  0.0307
  281SOL     OW 1232   3.293   2.418   4.990 -0.0977  0.0951  0.3120
  281SOL    HW1 1233   3.285   2.358   4.916 -1.7254  1.6115 -0.8229
  281SOL    HW2 1234   3.376   2.464   4.974 -0.3526  0.2860 -0.4939
  282SOL     OW 1235   3.698   3.364   1.513  0.3240  0.4457  0.4323
  282SOL    HW1 1236   3.654   3.287   1.477  0.5676 -0.0824  1.2533
  282SOL    HW2 1237   3.783   3.366   1.469  1.1217 -0.9034  1.8108
  283SOL     OW 1238   0.583   1.266   6.350 -0.1932  0.4152  0.2100
  283SOL    HW1 1239   0.616   1.285   6.438 -1.2741 -0.6603  0.8726
  283SOL    HW2 1240   0.493   1.298   6.352 -0.6162 -0.7393 -0.0896
  284SOL     OW 1241   2.314   5.545   5.180  0.5628  0.0435 -0.8554
  284SOL    HW1 1242   2.347   5.513   5.096  2.1411  0.1806 -0.3274
  284SOL    HW2 1243   2.267   5.626   5.158 -0.9120 -1.0422 -1.8405
  285SOL     OW 1244   5.425   1.574   2.707  0.1277 -0.1585 -0.3144
  285SOL    HW1 1245   5.426   1.600   2.799  0.8027 -2.3467  0.3725
  285SOL    HW2 1246   5.332   1.578   2.682 -0.1642 -0.2737  0.7065
  286SOL     OW 1247   4.629   6.762   5.667  0.2289  0.0095  0.3717
  286SOL    HW1 1248   4.651   6.855   5.667 -0.0202  0.0695 -0.1872
  286SOL    HW2 1249   4.538   6.758   5.639  1.2165 -0.6101 -3.1822
  287SOL     OW 1250   5.350   0.963   5.176 -0.1537  0.8387  0.4268
  287SOL    HW1 1251   5.287   1.035   5.176  0.3530  1.2796  0.7655
  287SOL    HW2 1252   5.428   0.998   5.218  1.0287  0.9034 -1.7066
  288SOL     OW 1253   3.895   6.634   3.510  0.1283 -0.0957  0.2006
  288SOL    HW1 1254   3.870   6.542   3.504  1.7684 -0.5185 -0.6587
  288SOL    HW2 1255   3.910   6.649   3.604 -0.3948 -0.6034  0.3739
  289SOL     OW 1256   4.049   1.568   5.131  0.2721 -0.4105 -0.4168
  289SOL    HW1 1257   4.048   1.660   5.156 -0.0213  0.0009 -1.8649
  289SOL    HW2 1258   4.126   1.559   5.075  1.6303 -1.5868  1.5259
  290SOL     OW 1259   2.516   4.254   4.339  0.1796 -0.4829 -0.2087
  290SOL    HW1 1260   2.487   4.175   4.293  0.2247 -1.0658  0.7237
  290SOL    HW2 1261   2.439   4.283   4.388  0.0065  0.3824 -0.9733
  291SOL     OW 1262   1.972   0.226   6.211 -0.1622 -0.9729 -0.3984
  291SOL    HW1 1263   1.912   0.274   6.269  1.8198  1.5715 -0.2755
  291SOL    HW2 1264   2.011   0.293   6.155  0.9778 -2.8206 -1.9543
  292SOL     OW 1265   0.093   0.104   4.626 -0.0798  0.0077  0.4328
  292SOL    HW1 1266   0.051   0.188   4.642 -0.5443  0.0121 -0.7330
  292SOL    HW2 1267   0.151   0.119   4.552 -0.4995 -0.7960 -0.0798
  293SOL     OW 1268   4.458   5.552   0.482  0.0726 -0.0034 -0.2742
  293SOL    HW1 1269   4.529   5.594   0.434 -0.1136 -0.3974 -0.9142
  293SOL    HW2 1270   4.499   5.515   0.560  0.5786 -0.2827 -0.6707
  294SOL     OW 1271   6.081   4.887   4.258 -0.2383  0.1101 -1.0862
  294SOL    HW1 1272   6.039   4.891   4.344  2.0838 -0.5075  0.1719
  294SOL    HW2 1273   6.064   4.799   4.226  1.2116 -0.6437  0.0879
  295SOL     OW 1274   6.365   0.214   2.368  0.4800  0.3900  0.0604
  295SOL    HW1 1275   6.295   0.277   2.355  0.0026 -0.2705 -0.6064
  295SOL    HW2 1276   6.349   0.179   2.456 -2.2183 -2.3630 -1.3445
  296SOL     OW 1277   4.048   4.590   6.287  0.1799 -0.0846  0.3959
  296SOL    HW1 1278   4.026   4.502   6.255 -0.7758 -0.3930  1.7859
  296SOL    HW2 1279   4.143   4.595   6.280  0.0590  0.0303 -2.7447
  297SOL     OW 1280   1.457   5.851   2.134 -0.0159  0.1235  0.2345
  297SOL    HW1 1281   1.374   5.846   2.088 -0.7826  1.4980  1.4009
  297SOL    HW2 1282   1.522   5.867   2.065 -0.7356 -0.6492 -0.6459
  298SOL     OW 1283   3.563   1.052   4.171  0.6341 -0.3019 -0.5011
  298SOL    HW1 1284   3.644   1.067   4.122  2.5886 -1.9012  2.0458
  298SOL    HW2 1285   3.589   1.051   4.263 -2.8282  2.3335  0.7653
  299SOL     OW 1286   5.549   0.278   0.172 -0.1212 -0.1997 -0.4737
  299SOL    HW1 1287   5.571   0.197   0.125  0.5443  0.7977 -1.9569
  299SOL    HW2 1288   5.503   0.331   0.107  0.4480  1.0721  0.1455
  300SOL     OW 1289   5.718   5.210   6.103  0.1277  0.5278  0.5732
  300SOL    HW1 1290   5.730   5.116   6.113  1.3191  0.7241  1.1953
  300SOL    HW2 1291   5.800   5.248   6.134 -1.1012  1.8945  2.3675
  301SOL     OW 1292   3.962   0.531   3.437 -0.5287 -0.0693 -0.3168
  301SOL    HW1 1293   3.934   0.562   3.523 -1.3919  0.9381 -0.9448
  301SOL    HW2 1294   3.907   0.455   3.419 -1.0159  0.2949 -0.3836
  302SOL     OW 1295   0.549   5.149   4.153 -0.1631 -0.4733 -0.1002
  302SOL    HW1 1296   0.562   5.066   4.108 -1.0809 -1.2092  0.9563
  302SOL    HW2 1297   0.637   5.179   4.175  0.1261 -1.6564  0.3833
  303SOL     OW 1298   1.754   6.306   1.941  0.3832 -0.0514 -0.2204
  303SOL    HW1 1299   1.721   6.291   1.852  0.3734 -1.3571 -0.0255
  303SOL    HW2 1300   1.714   6.235   1.993  2.1949 -0.7086  0.3452
  304SOL     OW 1301   1.303   0.914   0.027 -0.0492 -0.2614 -0.0832
  304SOL    HW1 1302   1.329   0.867   0.106 -2.6919  0.1088  1.1151
  304SOL    HW2 1303   1.386   0.936  -0.016  1.3953 -2.9938  1.0297
  305SOL     OW 1304   0.634   6.501   5.847  0.2510  0.0865 -0.3411
  305SOL    HW1 1305   0.711   6.544   5.884 -0.3580  0.1964  0.8670
  305SOL    HW2 1306   0.644   6.409   5.871 -1.2941  0.5070  2.3039
  306SOL     OW 1307   2.558   0.152   6.741 -0.0879  0.6238 -0.0227
  306SOL    HW1 1308   2.506   0.186   6.814  0.1489  0.4736  0.2172
  306SOL    HW2 1309   2.602   0.229   6.705  0.8676  0.5099  0.8545
  307SOL     OW 1310   4.313   4.859   6.417  0.4004  0.4513 -0.0222
  307SOL    HW1 1311   4.374   4.874   6.345  0.4698  1.5667  0.2470
  307SOL    HW2 1312   4.350   4.786   6.466  1.0489  0.5440 -0.3631
  308SOL     OW 1313   2.301   5.569   1.698  0.1357 -0.1994  0.1139
  308SOL    HW1 1314   2.231   5.598   1.639  0.7220  0.8022 -0.1142
  308SOL    HW2 1315   2.264   5.495   1.744 -1.2803  0.6422  0.3916
  309SOL     OW 1316   2.242   5.455   1.116 -0.1962 -0.6153  0.2242
  309SOL    HW1 1317   2.328   5.422   1.140 -0.1070 -0.4968  0.0707
  309SOL    HW2 1318   2.189   5.376   1.101 -0.1199 -0.6874  0.3363
  310SOL     OW 1319   6.692   2.644   2.736  0.2011 -0.5507 -0.3213
  310SOL    HW1 1320   6.622   2.604   2.787  1.1030 -1.3332  0.3246
  310SOL    HW2 1321   6.676   2.615   2.646 -0.1747 -0.8921 -0.1445
  311SOL     OW 1322   1.786   3.024   4.725  0.3856 -0.3493 -0.0024
  311SOL    HW1 1323   1.800   3.014   4.819  2.2256  0.5126 -0.1273
  311SOL    HW2 1324   1.765   2.936   4.694  0.9280 -0.8694  1.0553
  312SOL     OW 1325   3.474   4.080   2.050 -0.6445 -0.1250 -0.0941
  312SOL    HW1 1326   3.429   4.001   2.078 -2.0523  1.2247  1.7266
  312SOL    HW2 1327   3.430   4.151   2.098  1.7488  1.5696 -0.2032
  313SOL     OW 1328   6.550   0.279   5.028 -0.4967 -0.9626 -0.3362
  313SOL    HW1 1329   6.506   0.244   4.951  0.0477 -1.5381 -0.4022
  313SOL    HW2 1330   6.641   0.292   5.000 -0.2373 -1.4136  0.2686
  314SOL     OW 1331   6.057   2.339   0.725  0.2033  0.1551 -0.8919
  314SOL    HW1 1332   6.093   2.258   0.688  0.7331  0.5204 -1.1961
  314SOL    HW2 1333   6.049   2.398   0.649  5.4169  2.5011 -0.0423
  315SOL     OW 1334   1.978   0.863   3.252 -0.5469  0.0779  0.4047
  315SOL    HW1 1335   1.932   0.884   3.334 -1.5505 -1.8828  0.3898
  315SOL    HW2 1336   2.065   0.837   3.280  0.2616  2.5933  0.5289
  316SOL     OW 1337   6.347   2.119   5.365 -0.0016 -0.0356  0.3692
  316SOL    HW1 1338   6.314   2.079   5.285  0.6451  1.4178 -0.6792
  316SOL    HW2 1339   6.273   2.169   5.401 -0.4668 -1.1750  1.0382
  317SOL     OW 1340   5.524   0.079   5.143 -0.3788 -0.0701 -0.1559
  317SOL    HW1 1341   5.495   0.162   5.182  0.0104 -0.1026  0.2222
  317SOL    HW2 1342   5.452   0.018   5.159  0.1512 -0.3408  1.4046
  318SOL     OW 1343   3.235   0.193   4.702  0.1402  0.0509  0.1491
  318SOL    HW1 1344   3.221   0.287   4.704  0.5125  0.1580 -1.1725
  318SOL    HW2 1345   3.293   0.175   4.776 -1.1688  0.6217  1.3460
  319SOL     OW 1346   0.354   2.273   4.203  0.3773 -0.4082 -0.0961
  319SOL    HW1 1347   0.359   2.271   4.298 -0.2467  0.5561 -0.0333
  319SOL    HW2 1348   0.380   2.185   4.176  1.4295 -0.4282  0.9130
  320SOL     OW 1349   5.378   6.447   1.622 -0.0526  0.4346  0.4883
  320SOL    HW1 1350   5.431   6.523   1.645 -1.6105  1.6641  0.1210
  320SOL    HW2 1351   5.321   6.477   1.552 -0.7501 -1.0685  0.3633
  321SOL     OW 1352   2.623   0.651   6.257 -0.9223  0.3126  0.1748
  321SOL    HW1 1353   2.670   0.713   6.201 -1.1505  1.0958  0.8285
  321SOL    HW2 1354   2.543   0.631   6.208 -0.7893  0.4374 -0.0964
  322SOL     OW 1355   6.326   1.839   6.370 -0.3391 -0.8959 -0.0358
  322SOL    HW1 1356   6.362   1.923   6.339  0.8368 -1.4033 -0.1001
  322SOL    HW2 1357   6.257   1.818   6.307 -0.7043  0.0559  0.0244
  323SOL     OW 1358   0.659   3.575   2.584  0.0202 -0.0920  0.2957
  323SOL    HW1 1359   0.620   3.491   2.605 -0.1703  0.1347  0.8572
  323SOL    HW2 1360   0.585   3.632   2.562  0.1904 -0.2437 -0.7360
  324SOL     OW 1361   3.527   4.646   1.071 -0.4440 -0.2110  0.7454
  324SOL    HW1 1362   3.573   4.723   1.038 -1.2378 -0.1902 -0.3760
  324SOL    HW2 1363   3.596   4.589   1.104  0.2499  0.4617  0.4742
  325SOL     OW 1364   2.579   2.430   0.114  0.1093  0.4212  0.1055
  325SOL    HW1 1365   2.486   2.443   0.135  0.2976  0.3272  1.0597
  325SOL    HW2 1366   2.597   2.340   0.140  0.6350  0.6588  0.5853
  326SOL     OW 1367   2.974   5.410   3.543 -0.2663  0.2526  0.3315
  326SOL    HW1 1368   2.885   5.400   3.576  0.7163  0.3246  3.2642
  326SOL    HW2 1369   2.978   5.501   3.511 -0.7092  0.9397  2.1311
  327SOL     OW 1370   2.407   0.412   5.942  0.1666 -0.7144  0.2945
  327SOL    HW1 1371   2.389   0.318   5.936 -0.1426 -0.7020  0.9226
  327SOL    HW2 1372   2.488   0.425   5.892 -0.0508 -1.2325 -0.2045
  328SOL     OW 1373   4.763   6.167   6.415 -0.2223  0.1711 -0.4016
  328SOL    HW1 1374   4.802   6.196   6.497  0.5703 -1.4124 -0.1657
  328SOL    HW2 1375   4.818   6.206   6.347  0.8426 -0.7641 -0.0991
  329SOL     OW 1376   0.454   5.121   5.284  0.5327  0.2010  0.0131
  329SOL    HW1 1377   0.419   5.042   5.326  1.8733  0.7019  2.2018
  329SOL    HW2 1378   0.404   5.193   5.322  0.3561  0.5376 -0.8333
  330SOL     OW 1379   1.283   0.656   3.403 -0.0825  0.3243  0.3009
  330SOL    HW1 1380   1.213   0.613   3.354  0.9007 -0.2982 -0.6054
  330SOL    HW2 1381   1.333   0.704   3.336  1.0527 -0.2151  0.7351
  331SOL     OW 1382   1.341   3.746   2.453  0.8837  0.2067  0.4641
  331SOL    HW1 1383   1.368   3.767   2.363  0.9400  0.5069  0.5503
  331SOL    HW2 1384   1.318   3.831   2.492  0.1549  0.0031  0.5056
  332SOL     OW 1385   5.941   1.690   4.106 -0.2584  0.2690 -0.3021
  332SOL    HW1 1386   5.957   1.757   4.040  0.0132 -0.4184 -0.9552
  332SOL    HW2 1387   5.857   1.714   4.145 -1.7757 -0.7177 -2.7400
  333SOL     OW 1388   5.115   3.518   1.288  0.3220  0.0258  0.4850
  333SOL    HW1 1389   5.020   3.526   1.284  0.4237  0.6848 -1.1748
  333SOL    HW2 1390   5.136   3.531   1.381 -1.0994  1.0790  0.6893
  334SOL     OW 1391   1.233   2.178   0.408  0.2224 -0.3561 -0.1173
  334SOL    HW1 1392   1.146   2.154   0.376  0.5247 -2.2258  0.3280
  334SOL    HW2 1393   1.250   2.264   0.370 -1.8081  0.0481 -0.2022
  335SOL     OW 1394   1.375   5.270   6.272  0.2641 -0.1134 -0.1548
  335SOL    HW1 1395   1.402   5.259   6.181 -1.0497 -1.1315 -0.4688
  335SOL    HW2 1396   1.320   5.193   6.290 -0.1395  0.4624  1.2489
  336SOL     OW 1397   3.038   3.914   5.235  0.0977 -0.0391 -0.0140
  336SOL    HW1 1398   3.053   3.819   5.237  1.5896  0.1926  1.2863
  336SOL    HW2 1399   2.967   3.929   5.297  0.1073 -0.2698  0.0527
  337SOL     OW 1400   1.718   2.676   0.647 -0.0447  0.4164  0.5239
  337SOL    HW1 1401   1.698   2.617   0.719  0.2478 -1.4875 -0.8745
  337SOL    HW2 1402   1.763   2.750   0.688  0.3907 -0.7413  2.2303
  338SOL     OW 1403   0.788   3.737   5.828 -0.4226  0.4407  0.2047
  338SOL    HW1 1404   0.748   3.698   5.905 -0.0326  1.8150  1.1422
  338SOL    HW2 1405   0.845   3.669   5.793 -1.4574 -0.5900  0.4447
  339SOL     OW 1406   5.830   0.328   2.095  0.2214  0.2625 -0.1619
  339SOL    HW1 1407   5.892   0.381   2.046 -1.4086  2.1241 -0.3162
  339SOL    HW2 1408   5.777   0.285   2.029  0.0580  0.2738 -0.0391
  340SOL     OW 1409   3.117   3.182   6.101  0.2009 -0.0818  0.2596
  340SOL    HW1 1410   3.114   3.181   6.006  1.1555  4.7840 -0.0837
  340SOL    HW2 1411   3.049   3.120   6.128 -0.2468 -1.4847 -3.5284
  341SOL     OW 1412   0.207   4.614   5.377  0.2749  0.3786  0.2794
  341SOL    HW1 1413   0.215   4.709   5.389 -1.1171  0.4061  1.2175
  341SOL    HW2 1414   0.180   4.581   5.463  1.5654 -1.0008  0.2057
  342SOL     OW 1415   0.922   5.148   6.224 -0.6066  0.4416 -0.1429
  342SOL    HW1 1416   0.903   5.057   6.204 -1.3451  0.7814 -1.1173
  342SOL    HW2 1417   0.939   5.150   6.318  1.2845 -0.9865 -0.4144
  343SOL     OW 1418   4.133   0.146   3.155  0.2756  0.7511  0.6068
  343SOL    HW1 1419   4.228   0.145   3.153  0.2638  0.3993 -0.1305
  343SOL    HW2 1420   4.111   0.162   3.247  1.0434  1.5263  0.6677
  344SOL     OW 1421   0.772   2.147   2.889  0.6752  0.5043  0.2716
  344SOL    HW1 1422   0.788   2.223   2.944  2.2799  1.3770 -1.3122
  344SOL    HW2 1423   0.739   2.080   2.950  0.4650  2.0226  1.9104
  345SOL     OW 1424   4.001   5.218   4.886 -0.1739  0.3602 -0.3000
  345SOL    HW1 1425   3.955   5.183   4.962 -0.9013 -1.6173 -1.5853
  345SOL    HW2 1426   4.088   5.238   4.919 -0.1852 -1.2876  0.8866
  346SOL     OW 1427   4.140   4.416   3.944  0.2180  0.0739  0.0154
  346SOL    HW1 1428   4.162   4.500   3.904 -0.4438  1.1716  1.8083
  346SOL    HW2 1429   4.063   4.386   3.896  1.0025  0.0236 -1.2396
  347SOL     OW 1430   0.144   1.856   1.264  0.1397  0.1325 -0.4526
  347SOL    HW1 1431   0.148   1.947   1.233 -2.2304  0.3312 -0.3420
  347SOL    HW2 1432   0.209   1.852   1.335 -0.6111  2.1186  0.4277
  348SOL     OW 1433   2.719   4.772   1.135 -0.6205  0.0557 -0.0222
  348SOL    HW1 1434   2.745   4.857   1.100 -2.0465  0.1445 -0.9479
  348SOL    HW2 1435   2.724   4.712   1.060  2.0309 -1.1303  0.9671
  349SOL     OW 1436   5.625   3.961   2.600 -0.4732  0.9733  0.1233
  349SOL    HW1 1437   5.609   3.996   2.512  1.1948 -1.9653 -1.4940
  349SOL    HW2 1438   5.714   3.988   2.620 -0.5913  1.0065  0.6108
  350SOL     OW 1439   6.319   6.791   5.881  0.0319 -0.1022  0.0194
  350SOL    HW1 1440   6.234   6.788   5.836  0.2618  1.4476 -0.5961
  350SOL    HW2 1441   6.311   6.726   5.951 -1.0646 -1.1463 -1.0199
  351SOL     OW 1442   0.722   3.228   0.074 -0.2648 -0.2761 -0.2280
  351SOL    HW1 1443   0.655   3.246   0.140  0.5686  2.2433  0.0299
  351SOL    HW2 1444   0.786   3.298   0.086  2.7826 -2.8847 -0.0464
  352SOL     OW 1445   2.561   2.668   2.825 -0.3974 -0.1830 -0.3485
  352SOL    HW1 1446   2.523   2.677   2.738 -1.8244  0.3801  0.2947
  352SOL    HW2 1447   2.639   2.724   2.823 -0.0317 -0.7067 -1.4539
  353SOL     OW 1448   5.060   5.915   0.651 -0.1223 -0.1484 -0.1050
  353SOL    HW1 1449   5.156   5.920   0.646 -0.0830  0.3744  0.9904
  353SOL    HW2 1450   5.033   5.997   0.692 -0.9553 -0.7702  0.6232
  354SOL     OW 1451   6.386   4.150   0.114  0.0667 -0.4851 -0.3377
  354SOL    HW1 1452   6.472   4.127   0.150  0.9525  0.9530 -1.4131
  354SOL    HW2 1453   6.395   4.242   0.089 -2.0618 -0.0580  0.2668
  355SOL     OW 1454   5.212   0.013   0.854 -0.1551  0.0781 -0.5938
  355SOL    HW1 1455   5.199  -0.053   0.922 -1.4770 -0.0810 -0.9625
  355SOL    HW2 1456   5.159   0.088   0.882 -0.4557  0.1307 -1.2613
  356SOL     OW 1457   5.261   3.475   4.967  0.4969 -0.3791  0.0368
  356SOL    HW1 1458   5.175   3.460   5.007  0.8944 -0.6467  0.8136
  356SOL    HW2 1459   5.248   3.553   4.913 -0.0327  0.0918  0.8031
  357SOL     OW 1460   1.141   6.408   6.388  0.0743 -0.0095 -0.0591
  357SOL    HW1 1461   1.047   6.422   6.385  0.3476  1.9071 -1.0141
  357SOL    HW2 1462   1.174   6.448   6.308  1.7103 -0.7436  0.1993
  358SOL     OW 1463   4.528   0.264   3.714 -0.4732 -1.2962 -0.3342
  358SOL    HW1 1464   4.545   0.356   3.732  0.4064 -1.0865 -1.9813
  358SOL    HW2 1465   4.608   0.233   3.671 -0.2467 -3.1774  1.3073
  359SOL     OW 1466   0.513   3.064   2.852  0.5338 -0.1807  0.0881
  359SOL    HW1 1467   0.527   3.136   2.913  1.3175  0.7551 -1.1595
  359SOL    HW2 1468   0.420   3.068   2.830  0.1343 -0.8020  1.5011
  360SOL     OW 1469   1.630   0.028   4.432 -0.5753  0.0877 -0.1406
  360SOL    HW1 1470   1.667  -0.059   4.417  1.6633  0.7023  1.3021
  360SOL    HW2 1471   1.592   0.023   4.520 -0.2747  0.6101  0.0233
  361SOL     OW 1472   3.158   0.301   2.950  0.1090  0.1498  0.5419
  361SOL    HW1 1473   3.133   0.220   2.994 -0.3451  0.9607  1.8193
  361SOL    HW2 1474   3.254   0.298   2.947  0.0671 -1.1900 -0.9528
  362SOL     OW 1475   2.811   6.324   5.614  0.0910 -0.2725  0.3370
  362SOL    HW1 1476   2.739   6.385   5.627  0.5679  0.7747 -1.5639
  362SOL    HW2 1477   2.866   6.333   5.692 -0.0638  1.4451  0.2673
  363SOL     OW 1478   0.763   4.701   0.538  0.0750  0.1000 -0.4348
  363SOL    HW1 1479   0.690   4.648   0.571 -0.2133  0.7193 -0.0793
  363SOL    HW2 1480   0.798   4.649   0.465  0.2138 -0.8907  0.3150
  364SOL     OW 1481   1.995   3.317   5.299 -0.4196 -0.8500 -0.2916
  364SOL    HW1 1482   1.938   3.241   5.304  0.8236 -1.7401  3.4430
  364SOL    HW2 1483   2.084   3.282   5.302  0.2270  0.7076 -0.0008
  365SOL     OW 1484   4.027   0.574   1.366  0.4162 -0.0887 -0.2506
  365SOL    HW1 1485   4.053   0.640   1.430 -0.1004  0.3389 -0.4781
  365SOL    HW2 1486   3.992   0.502   1.418  2.6734 -0.9973  0.1198
  366SOL     OW 1487   5.110   3.090   5.541  0.5168  0.5346 -0.0784
  366SOL    HW1 1488   5.149   3.024   5.598 -2.6900 -0.5272  1.1192
  366SOL    HW2 1489   5.116   3.053   5.453  1.7837  0.2573  0.1099
  367SOL     OW 1490   6.781   6.097   3.522 -0.7290 -0.1391 -0.1973
  367SOL    HW1 1491   6.828   6.020   3.555 -0.0095  0.5757  0.4760
  367SOL    HW2 1492   6.849   6.151   3.482 -0.7990  1.3074  1.5338
  368SOL     OW 1493   1.909   0.614   3.627 -0.3980  0.0574  0.1072
  368SOL    HW1 1494   1.900   0.570   3.712  0.7721 -0.5539 -0.0647
  368SOL    HW2 1495   1.840   0.575   3.573 -1.1220  0.4170  0.7575
  369SOL     OW 1496   5.329   3.944   5.835 -0.1362  0.7077  0.5571
  369SOL    HW1 1497   5.272   3.925   5.760 -2.0802 -1.7673  2.4906
  369SOL    HW2 1498   5.293   4.024   5.873  0.1188  1.2925 -0.3821
  370SOL     OW 1499   0.556   5.871   2.511  0.0266 -0.1479 -0.0975
  370SOL    HW1 1500   0.638   5.912   2.482  0.4723  0.1054  1.4321
  370SOL    HW2 1501   0.488   5.935   2.490  0.4200  0.3300  0.0697
  371SOL     OW 1502   6.013   5.955   3.993  0.3430  0.1838 -0.4374
  371SOL    HW1 1503   6.060   5.890   4.045 -0.4280  0.2133  0.3151
  371SOL    HW2 1504   5.928   5.964   4.037 -0.1979  0.4487 -1.5207
  372SOL     OW 1505   5.348   0.642   6.017 -0.3546  0.1864  0.1647
  372SOL    HW1 1506   5.310   0.654   5.930 -0.3636  2.2461  0.4001
  372SOL    HW2 1507   5.301   0.567   6.053 -0.4759 -0.5907 -1.5220
  373SOL     OW 1508   3.168   5.470   2.439 -0.3199  0.1037  0.4924
  373SOL    HW1 1509   3.182   5.563   2.423  0.0799 -0.0489 -0.0701
  373SOL    HW2 1510   3.179   5.460   2.534  1.5039  0.3259  0.3373
  374SOL     OW 1511   0.244   3.633   3.082 -0.8155  0.8316  0.0101
  374SOL    HW1 1512   0.229   3.575   3.007  0.3480 -0.3013  0.5956
  374SOL    HW2 1513   0.189   3.596   3.152 -0.8309  1.0405  0.1094
  375SOL     OW 1514   3.288   2.727   2.691 -0.1253  0.1263 -0.0194
  375SOL    HW1 1515   3.272   2.679   2.610  0.9184  1.1487 -0.8579
  375SOL    HW2 1516   3.225   2.689   2.753  1.4958 -3.2334 -0.2110
  376SOL     OW 1517   0.527   5.850   1.345 -0.2304 -0.2224 -0.7617
  376SOL    HW1 1518   0.566   5.831   1.430 -0.5223  1.4290 -0.2180
  376SOL    HW2 1519   0.460   5.916   1.363 -1.1457 -0.7405 -2.1131
  377SOL     OW 1520   4.451   4.070   5.956 -0.0444 -0.1579 -0.6630
  377SOL    HW1 1521   4.504   4.053   5.877  0.7138  1.0228 -0.4438
  377SOL    HW2 1522   4.412   3.986   5.977 -2.6044  0.0128 -3.9466
  378SOL     OW 1523   3.149   4.968   5.350  0.3646  0.1281  0.6496
  378SOL    HW1 1524   3.171   4.926   5.433 -0.8848  0.3106  1.0848
  378SOL    HW2 1525   3.162   5.062   5.367 -1.9081  0.3782  1.3374
  379SOL     OW 1526   0.878   1.640   1.398  0.6938 -0.2339  0.0053
  379SOL    HW1 1527   0.884   1.696   1.476  1.9287  0.7522 -0.7674
  379SOL    HW2 1528   0.963   1.598   1.392  0.9328  0.4135 -1.3323
  380SOL     OW 1529   4.123   6.645   4.385  0.2860  0.4329  0.0905
  380SOL    HW1 1530   4.161   6.678   4.304 -1.3574  0.5208 -0.6807
  380SOL    HW2 1531   4.106   6.553   4.367 -2.6187  1.0370 -0.7292
  381SOL     OW 1532   3.975   5.476   4.329 -0.3600  0.1559 -0.2734
  381SOL    HW1 1533   4.019   5.553   4.293 -0.5330  0.7743  0.7869
  381SOL    HW2 1534   3.967   5.415   4.255  0.9971  0.5998 -0.8053
  382SOL     OW 1535   5.743   2.066   4.993  0.6293 -0.1132  0.0276
  382SOL    HW1 1536   5.652   2.081   4.970  0.6370  0.0132  0.0810
  382SOL    HW2 1537   5.774   2.149   5.029  0.4354 -0.4934  1.0861
  383SOL     OW 1538   2.745   3.099   1.716  0.0485 -0.4898 -0.2522
  383SOL    HW1 1539   2.755   3.017   1.668  1.8893 -0.2949 -0.2671
  383SOL    HW2 1540   2.740   3.073   1.808 -1.4098 -0.7273 -0.3808
  384SOL     OW 1541   6.332   5.172   2.991  0.3489 -0.5083  0.2436
  384SOL    HW1 1542   6.295   5.199   3.075 -1.0960 -0.8430 -0.2448
  384SOL    HW2 1543   6.407   5.229   2.978  0.2685 -0.0923  1.5107
  385SOL     OW 1544   1.023   1.384   0.529 -0.5386  0.7585  0.1087
  385SOL    HW1 1545   1.065   1.469   0.544  0.9330  0.3874 -1.6363
  385SOL    HW2 1546   1.045   1.333   0.607  0.2101  1.3528  0.3074
  386SOL     OW 1547   2.921   4.265   4.472  0.5220 -0.2841  0.4608
  386SOL    HW1 1548   2.996   4.280   4.528  0.8695 -0.4124  0.0364
  386SOL    HW2 1549   2.958   4.231   4.391 -0.0402 -0.8574  0.4400
  387SOL     OW 1550   0.395   2.186   2.552  0.2026  0.2396 -0.4127
  387SOL    HW1 1551   0.487   2.193   2.579  0.4501 -1.9356 -0.4907
  387SOL    HW2 1552   0.393   2.109   2.495 -1.7766 -0.1274  0.0906
  388SOL     OW 1553   1.374   4.684   2.228  0.1807 -0.3425 -0.1636
  388SOL    HW1 1554   1.302   4.624   2.247 -1.6706  2.0221  0.8748
  388SOL    HW2 1555   1.357   4.714   2.138 -0.1432  0.1993  0.0733
  389SOL     OW 1556   0.146   0.597   4.441 -0.2073  0.0340 -0.2284
  389SOL    HW1 1557   0.091   0.633   4.511  0.2572  0.6681 -0.1865
  389SOL    HW2 1558   0.207   0.539   4.487  0.8724  1.3441  0.0694
  390SOL     OW 1559   0.066   4.283   3.648 -0.0595  0.1419  0.2130
  390SOL    HW1 1560  -0.016   4.235   3.652  0.0430 -0.1150 -0.6268
  390SOL    HW2 1561   0.126   4.235   3.706  0.4607 -1.5829 -1.6612
  391SOL     OW 1562   5.395   2.208   6.685 -0.1148  0.0507 -0.1932
  391SOL    HW1 1563   5.409   2.303   6.690  0.0771  0.2791 -3.2247
  391SOL    HW2 1564   5.323   2.191   6.746  0.1232  2.0653  0.7160
  392SOL     OW 1565   3.476   1.320   1.925 -0.3710 -0.3455 -0.2847
  392SOL    HW1 1566   3.407   1.351   1.866 -1.2405  0.3007  1.0235
  392SOL    HW2 1567   3.433   1.255   1.981  0.3276 -0.6481 -0.0873
  393SOL     OW 1568   4.813   2.529   5.060  0.1125  0.0233 -0.0785
  393SOL    HW1 1569   4.870   2.502   5.132 -1.3231  2.0128  1.9533
  393SOL    HW2 1570   4.858   2.606   5.023  1.3034 -1.5157 -2.0216
  394SOL     OW 1571   6.291   0.596   3.777 -0.1745 -0.1072 -0.0805
  394SOL    HW1 1572   6.213   0.651   3.781 -0.4256 -0.3441 -1.3848
  394SOL    HW2 1573   6.363   0.658   3.760 -0.2958 -0.0491 -0.3919
  395SOL     OW 1574   3.635   1.995   1.597 -0.2988  0.0828 -0.2269
  395SOL    HW1 1575   3.692   2.069   1.623 -1.1501  1.0633 -1.0703
  395SOL    HW2 1576   3.688   1.945   1.535  1.0342 -1.1953  1.8112
  396SOL     OW 1577   4.204   1.371   6.778 -0.5046  0.3809  0.0608
  396SOL    HW1 1578   4.162   1.320   6.847  1.2998 -1.0447  0.1605
  396SOL    HW2 1579   4.154   1.350   6.699 -1.4935  0.6554  0.5995
  397SOL     OW 1580   2.382   6.683   1.179 -0.0116  0.3484 -0.4497
  397SOL    HW1 1581   2.315   6.677   1.248 -0.6207  1.3500 -0.9291
  397SOL    HW2 1582   2.335   6.717   1.103  0.6839 -0.6081 -1.3420
  398SOL     OW 1583   5.581   0.767   0.910 -0.0236 -0.3705  0.2180
  398SOL    HW1 1584   5.651   0.765   0.976  1.4892 -1.1491 -1.3095
  398SOL    HW2 1585   5.503   0.739   0.958  0.5000  1.2557  2.1742
  399SOL     OW 1586   2.087   6.578   4.573  0.2058 -0.7018  0.2395
  399SOL    HW1 1587   2.019   6.521   4.538 -1.5101  1.1829  0.3132
  399SOL    HW2 1588   2.051   6.610   4.656  0.1847  2.0047 -0.7232
  400SOL     OW 1589   2.473   2.025   6.825 -0.0921 -0.1276 -0.0315
  400SOL    HW1 1590   2.455   2.031   6.732 -0.5826  0.8644  0.1128
  400SOL    HW2 1591   2.467   1.932   6.845 -0.9634 -0.2497 -0.7990
  401SOL     OW 1592   1.675   4.605   3.979 -0.3483  0.3393 -0.8384
  401SOL    HW1 1593   1.591   4.560   3.989 -0.7232  0.9768 -1.0858
  401SOL    HW2 1594   1.654   4.687   3.934  0.0394  1.6014  1.1294
  402SOL     OW 1595   1.547   4.773   5.827  0.4278  0.0347 -0.4741
  402SOL    HW1 1596   1.523   4.857   5.789 -0.4353  0.1938  0.4000
  402SOL    HW2 1597   1.616   4.740   5.769  0.9240  1.4264 -0.7182
  403SOL     OW 1598   3.004   3.845   2.914  0.8129 -0.5347 -0.1416
  403SOL    HW1 1599   3.011   3.929   2.959 -0.2847 -1.1319  1.2085
  403SOL    HW2 1600   3.094   3.819   2.896  1.1516  1.0483 -0.8426
  404SOL     OW 1601   5.687   4.452   4.129  0.2958  0.3431  0.0349
  404SOL    HW1 1602   5.647   4.531   4.092 -0.8021  0.7635  1.9825
  404SOL    HW2 1603   5.721   4.405   4.053 -1.4337  1.3526 -1.4529
  405SOL     OW 1604   6.164   1.715   4.265  0.2371 -0.4200  0.0796
  405SOL    HW1 1605   6.178   1.645   4.329  1.8635 -0.1096  0.1209
  405SOL    HW2 1606   6.075   1.701   4.232 -0.5036 -0.8385  2.1055
  406SOL     OW 1607   3.811   5.673   1.152  0.0373  0.5115  0.9575
  406SOL    HW1 1608   3.872   5.714   1.091 -1.1020 -0.8124 -1.2195
  406SOL    HW2 1609   3.852   5.588   1.172 -0.2803  0.3376  0.8689
  407SOL     OW 1610   4.142   2.973   1.718  0.4360 -0.2410 -0.4124
  407SOL    HW1 1611   4.182   2.932   1.641 -2.3939 -0.2248 -2.0393
  407SOL    HW2 1612   4.077   2.909   1.748  0.4242  0.4112  1.0265
  408SOL     OW 1613   3.066   2.978   6.418  0.3459 -0.1646  0.4722
  408SOL    HW1 1614   3.052   3.072   6.430 -0.7832 -0.3001  0.3026
  408SOL    HW2 1615   3.132   2.972   6.349 -1.1505  0.4952 -1.0609
  409SOL     OW 1616   4.801   4.787   6.002  0.2522 -0.3560  0.1161
  409SOL    HW1 1617   4.774   4.874   6.032  1.0085 -0.1499  0.1992
  409SOL    HW2 1618   4.722   4.752   5.959  0.5840  1.3069 -2.0520
  410SOL     OW 1619   1.947   3.840   5.227  0.2955  0.2757 -0.7282
  410SOL    HW1 1620   1.866   3.857   5.276  0.1108 -1.6901 -0.2498
  410SOL    HW2 1621   1.951   3.745   5.221  2.1889  0.3637 -1.4279
  411SOL     OW 1622   5.202   3.501   2.970 -0.4955  0.4387 -0.3467
  411SOL    HW1 1623   5.206   3.421   3.023 -0.0091  1.0575  0.5644
  411SOL    HW2 1624   5.223   3.471   2.881  0.3619 -0.3430  0.0985
  412SOL     OW 1625   5.416   4.535   5.858 -0.6812  0.4027  0.3038
  412SOL    HW1 1626   5.368   4.482   5.794 -0.2764 -1.0930  1.1994
  412SOL    HW2 1627   5.354   4.604   5.884 -0.8971  0.9782 -1.5711
  413SOL     OW 1628   4.064   1.247   4.555  0.0506 -0.0406 -0.2638
  413SOL    HW1 1629   4.117   1.172   4.530  2.5704  1.9272 -1.2056
  413SOL    HW2 1630   4.127   1.313   4.582 -2.1143  1.4985  1.3919
  414SOL     OW 1631   4.082   3.848   6.598 -0.5999  0.2589  0.2466
  414SOL    HW1 1632   4.093   3.878   6.508 -0.9260  0.6338  0.3290
  414SOL    HW2 1633   3.992   3.871   6.620 -0.8415 -0.7307  0.3343
  415SOL     OW 1634   0.173   0.239   3.285  0.0836  0.4296 -0.3637
  415SOL    HW1 1635   0.142   0.254   3.374 -0.8098  0.0184 -0.5935
  415SOL    HW2 1636   0.259   0.197   3.296 -0.2541 -0.1001  0.3095
  416SOL     OW 1637   5.247   1.350   0.581 -0.2844  0.7224 -0.0302
  416SOL    HW1 1638   5.289   1.386   0.503  0.8362  0.1860  0.3086
  416SOL    HW2 1639   5.165   1.313   0.549 -0.2133  1.2127 -0.8137
  417SOL     OW 1640   2.836   4.488   5.049 -0.2553 -0.3989 -0.3664
  417SOL    HW1 1641   2.922   4.514   5.018 -1.2949  1.0617 -2.2679
  417SOL    HW2 1642   2.847   4.398   5.079  2.1766  0.1763  0.6836
  418SOL     OW 1643   1.836   4.527   0.612  0.1253  0.2410  0.0848
  418SOL    HW1 1644   1.771   4.530   0.682  1.0083  1.0019  0.8850
  418SOL    HW2 1645   1.857   4.618   0.593  0.6158  0.0171 -0.5037
  419SOL     OW 1646   6.345   2.062   6.201  0.0149  0.2769  0.1745
  419SOL    HW1 1647   6.278   2.124   6.230 -1.2382 -0.2441 -1.4113
  419SOL    HW2 1648   6.362   2.085   6.110 -0.1524 -1.3756 -0.3155
  420SOL     OW 1649   1.836   6.466   2.211 -0.4161  0.5073 -0.0743
  420SOL    HW1 1650   1.760   6.413   2.185 -2.6952  3.0425  0.9097
  420SOL    HW2 1651   1.865   6.426   2.293 -0.6915 -0.4897 -0.4457
  421SOL     OW 1652   6.259   6.416   6.103  0.7378 -0.5694 -0.0878
  421SOL    HW1 1653   6.206   6.493   6.084  0.1158 -0.5471  1.5791
  421SOL    HW2 1654   6.206   6.342   6.073  0.9598 -0.4170 -0.8878
  422SOL     OW 1655   5.103   3.847   5.975  0.3948 -0.3372 -0.7288
  422SOL    HW1 1656   5.027   3.906   5.980 -0.2297 -1.1750  0.0175
  422SOL    HW2 1657   5.066   3.763   5.948  0.6457 -1.3976  1.9383
  423SOL     OW 1658   5.986   1.060   3.539 -0.3240  0.3555 -0.0271
  423SOL    HW1 1659   5.912   1.104   3.497 -0.5722  0.4976  0.5484
  423SOL    HW2 1660   6.003   1.112   3.617 -0.1191 -0.1329  0.2566
  424SOL     OW 1661   6.574   1.471   4.393  0.0800 -0.1251 -0.3837
  424SOL    HW1 1662   6.481   1.470   4.416  0.0039  1.7724 -0.4426
  424SOL    HW2 1663   6.610   1.394   4.436 -1.5329 -0.9688 -0.4644
  425SOL     OW 1664   4.653   2.474   6.284 -0.0904 -0.0805 -0.5830
  425SOL    HW1 1665   4.731   2.418   6.283 -0.8240 -1.1360 -0.3177
  425SOL    HW2 1666   4.646   2.504   6.374 -0.3006 -0.4409 -0.4777
  426SOL     OW 1667   3.435   2.170   4.376 -1.0007 -0.4393 -0.2014
  426SOL    HW1 1668   3.399   2.086   4.352  0.2066 -1.0248 -0.0594
  426SOL    HW2 1669   3.373   2.206   4.440 -2.8796 -0.0134 -2.1755
  427SOL     OW 1670   3.380   1.318   5.326  0.3821  1.1760  0.3862
  427SOL    HW1 1671   3.302   1.362   5.292 -0.9056 -0.6156  0.8545
  427SOL    HW2 1672   3.375   1.230   5.290  1.5833  0.6884  1.3382
  428SOL     OW 1673   5.675   3.405   5.216 -0.4701 -0.3888  0.0277
  428SOL    HW1 1674   5.666   3.316   5.183 -1.3988 -0.2920 -0.0344
  428SOL    HW2 1675   5.747   3.401   5.279  2.2894 -0.3010 -2.9078
  429SOL     OW 1676   5.149   2.225   0.957  0.2513 -0.0527  0.2120
  429SOL    HW1 1677   5.122   2.171   1.031 -0.2748  1.4439  1.1630
  429SOL    HW2 1678   5.241   2.203   0.944  0.4492 -0.1052  1.5411
  430SOL     OW 1679   2.311   4.622   0.578 -0.4485  0.0231  0.6626
  430SOL    HW1 1680   2.337   4.709   0.606  0.4242 -0.1724  0.4705
  430SOL    HW2 1681   2.238   4.599   0.635 -1.2255  1.2059  0.1784
  431SOL     OW 1682   5.779   5.869   4.403 -0.0870  0.8292  0.5437
  431SOL    HW1 1683   5.751   5.777   4.399 -2.5195  1.4470  1.3400
  431SOL    HW2 1684   5.872   5.865   4.423  0.1900 -1.4594 -0.8505
  432SOL     OW 1685   3.907   5.260   1.859 -0.0217 -0.4265 -0.2691
  432SOL    HW1 1686   3.827   5.270   1.807  0.8565 -0.2890 -1.6387
  432SOL    HW2 1687   3.889   5.185   1.916 -1.3885  0.0567 -0.0216
  433SOL     OW 1688   0.094   2.042   4.548  0.3850 -0.2116  0.2990
  433SOL    HW1 1689   0.182   2.053   4.584  0.6890  0.2886 -0.5775
  433SOL    HW2 1690   0.105   1.988   4.470 -0.1195 -0.3348  0.3054
  434SOL     OW 1691   5.267   6.702   2.905 -0.4013 -0.2558 -0.8939
  434SOL    HW1 1692   5.270   6.778   2.847  0.0085  0.5822  0.1899
  434SOL    HW2 1693   5.300   6.629   2.852  0.2687  0.5494 -1.6020
  435SOL     OW 1694   6.102   1.833   6.793  0.6038  0.1026  0.1655
  435SOL    HW1 1695   6.177   1.858   6.846 -0.0819  0.9491  0.7543
  435SOL    HW2 1696   6.051   1.775   6.849 -0.0643  0.9090  0.4038
  436SOL     OW 1697   5.396   6.478   0.666 -0.0268 -0.2072  0.4461
  436SOL    HW1 1698   5.334   6.465   0.594 -0.6024 -1.0097  1.0630
  436SOL    HW2 1699   5.409   6.572   0.670 -1.7612  0.0596  0.7332
  437SOL     OW 1700   4.664   4.107   3.625  0.6425  0.1975  0.1355
  437SOL    HW1 1701   4.634   4.155   3.702 -0.0961  0.0717 -0.0729
  437SOL    HW2 1702   4.666   4.015   3.654  0.0181  0.1072 -0.0984
  438SOL     OW 1703   1.602   1.620   5.020 -0.5746  0.4026  0.2125
  438SOL    HW1 1704   1.632   1.554   5.082 -1.3749  0.6592  0.8879
  438SOL    HW2 1705   1.635   1.703   5.055 -0.0547  0.4333 -0.3278
  439SOL     OW 1706   4.775   5.539   1.956 -0.4003 -0.1552 -0.1714
  439SOL    HW1 1707   4.713   5.524   1.884  0.5897  1.4534 -1.4163
  439SOL    HW2 1708   4.737   5.610   2.006 -0.5764 -0.5813  0.3074
  440SOL     OW 1709   1.118   1.901   0.238 -0.2305 -0.1188 -0.3449
  440SOL    HW1 1710   1.197   1.898   0.184  0.7657  0.3217  1.0310
  440SOL    HW2 1711   1.051   1.857   0.186  1.5567 -2.8814 -0.5096
  441SOL     OW 1712   5.184   2.572   5.715  0.0814 -0.6482  0.0183
  441SOL    HW1 1713   5.111   2.541   5.768 -0.1125 -1.3247 -0.6320
  441SOL    HW2 1714   5.172   2.530   5.630 -0.0998  1.1030 -0.8597
  442SOL     OW 1715   0.020   0.699   6.348  0.6960  0.3200  0.0056
  442SOL    HW1 1716  -0.026   0.616   6.364  2.2682 -0.6772 -0.4439
  442SOL    HW2 1717  -0.019   0.760   6.411 -1.2313 -0.4520 -0.3681
  443SOL     OW 1718   3.731   6.563   4.708 -0.0391  0.5502  0.0018
  443SOL    HW1 1719   3.758   6.581   4.618  0.0389  0.2322 -0.0398
  443SOL    HW2 1720   3.655   6.619   4.721 -0.8508 -0.3454 -0.7024
  444SOL     OW 1721   5.197   4.988   6.116 -0.1585 -0.4386 -0.3463
  444SOL    HW1 1722   5.283   4.972   6.155 -0.0837  1.5552  0.4565
  444SOL    HW2 1723   5.203   5.077   6.081 -1.8208 -0.3318 -0.4656
  445SOL     OW 1724   4.097   1.544   5.608  0.1349 -0.2930  0.0227
  445SOL    HW1 1725   4.022   1.597   5.634  0.4793  0.0524  0.3151
  445SOL    HW2 1726   4.066   1.454   5.614 -0.6455 -0.1214 -1.0660
  446SOL     OW 1727   3.720   3.008   6.810  0.4400 -0.5279  0.2618
  446SOL    HW1 1728   3.655   3.027   6.742 -0.0929 -1.9901  0.3460
  446SOL    HW2 1729   3.705   2.917   6.834  2.6998 -1.0080  0.0832
  447SOL     OW 1730   5.371   3.766   6.041 -0.2836 -0.2764 -0.0262
  447SOL    HW1 1731   5.285   3.749   6.081 -0.2740 -0.8627 -0.2379
  447SOL    HW2 1732   5.351   3.821   5.965 -0.3647  0.3698  0.4566
  448SOL     OW 1733   0.676   5.653   4.148 -0.1713  0.1274 -0.1245
  448SOL    HW1 1734   0.644   5.628   4.234  0.0830  1.7600  0.4877
  448SOL    HW2 1735   0.617   5.610   4.086 -2.0082  1.0433  0.9145
  449SOL     OW 1736   2.551   6.108   4.562  0.0505  0.3091 -0.1778
  449SOL    HW1 1737   2.557   6.074   4.651 -1.8387  3.1345  1.1953
  449SOL    HW2 1738   2.531   6.031   4.509  0.4153 -1.3643  1.9340
  450SOL     OW 1739   6.487   1.793   0.658 -0.1135 -0.4072  0.3093
  450SOL    HW1 1740   6.564   1.849   0.665 -0.6110  0.1484  1.7003
  450SOL    HW2 1741   6.459   1.780   0.749 -1.4905 -0.8276 -0.1570
  451SOL     OW 1742   5.407   6.220   4.954  0.0250  0.6234 -0.7628
  451SOL    HW1 1743   5.397   6.132   4.991  1.0720  0.5597 -0.5882
  451SOL    HW2 1744   5.443   6.204   4.867  0.0725  0.8761 -0.7877
  452SOL     OW 1745   3.192   1.133   0.535 -0.0906  0.3628  0.1372
  452SOL    HW1 1746   3.255   1.064   0.517 -0.9053 -0.1771 -0.7588
  452SOL    HW2 1747   3.110   1.101   0.497 -0.3182  2.1376 -0.9727
  453SOL     OW 1748   3.433   2.484   1.959 -0.3689  0.1004  0.1810
  453SOL    HW1 1749   3.506   2.493   2.021 -0.4050  1.9876 -0.0022
  453SOL    HW2 1750   3.376   2.418   1.999  0.7492 -0.4230  0.9890
  454SOL     OW 1751   0.797   3.690   3.639  0.0443  0.1746 -0.2575
  454SOL    HW1 1752   0.799   3.597   3.661 -0.7935  0.3321  0.5523
  454SOL    HW2 1753   0.708   3.718   3.661  0.4522  1.2880  0.0453
  455SOL     OW 1754   3.904   1.376   2.504  0.4264  0.3859  0.0327
  455SOL    HW1 1755   3.842   1.436   2.463  0.3904  0.3386  0.0174
  455SOL    HW2 1756   3.950   1.335   2.430  0.0683 -0.0099  0.0308
  456SOL     OW 1757   5.587   3.608   3.777 -0.5503  0.8791  0.3517
  456SOL    HW1 1758   5.629   3.544   3.833  0.0274 -0.5535 -1.6227
  456SOL    HW2 1759   5.641   3.611   3.698 -2.0410  1.8336 -0.6931
  457SOL     OW 1760   2.615   3.539   5.372  0.2833  0.2325  0.0539
  457SOL    HW1 1761   2.526   3.551   5.406  0.4749  0.3592  0.5050
  457SOL    HW2 1762   2.669   3.596   5.425  0.5913  0.3945 -0.4327
  458SOL     OW 1763   4.323   3.390   4.169  0.1886 -0.2277 -0.7531
  458SOL    HW1 1764   4.417   3.401   4.179  0.0796  0.1127 -0.0809
  458SOL    HW2 1765   4.293   3.468   4.122  0.4334 -0.9861 -2.2440
  459SOL     OW 1766   1.251   5.563   4.422  0.6691  0.0331  0.2315
  459SOL    HW1 1767   1.200   5.498   4.373  2.2055 -0.1284 -1.2536
  459SOL    HW2 1768   1.185   5.623   4.457 -0.7372 -1.9230  1.0888
  460SOL     OW 1769   6.592   5.256   3.266 -0.3253  0.4596  0.0840
  460SOL    HW1 1770   6.617   5.347   3.281  0.5422  0.1603  0.4990
  460SOL    HW2 1771   6.567   5.253   3.174 -3.2618  1.7581  0.7296
  461SOL     OW 1772   5.616   2.510   4.617  0.2001 -0.4463  0.0164
  461SOL    HW1 1773   5.611   2.592   4.567  0.8756 -0.3654  0.0651
  461SOL    HW2 1774   5.695   2.467   4.583  0.3424 -0.6607  0.6150
  462SOL     OW 1775   2.835   0.866   4.433  0.1952 -0.3806 -0.2275
  462SOL    HW1 1776   2.804   0.949   4.398 -1.8776 -0.2639  1.6742
  462SOL    HW2 1777   2.867   0.888   4.521 -1.3790 -1.6945  0.7240
  463SOL     OW 1778   5.186   6.459   0.445 -0.1913  0.0114  0.1106
  463SOL    HW1 1779   5.094   6.470   0.471  0.1532  1.9127  0.7279
  463SOL    HW2 1780   5.184   6.390   0.380 -1.9486 -0.5869  0.7259
  464SOL     OW 1781   0.450   6.327   0.507 -0.3151 -0.6787  0.2822
  464SOL    HW1 1782   0.381   6.271   0.543  1.3779 -3.3158 -0.2510
  464SOL    HW2 1783   0.460   6.397   0.571 -3.3973 -0.1940  0.3786
  465SOL     OW 1784   4.323   6.410   1.080 -0.3496  0.2074  0.0987
  465SOL    HW1 1785   4.311   6.357   1.001 -0.5666 -3.2168  2.2417
  465SOL    HW2 1786   4.235   6.419   1.117 -0.1871  1.3974  0.2540
  466SOL     OW 1787   6.464   6.325   4.883 -0.5142  0.0945 -0.3285
  466SOL    HW1 1788   6.485   6.249   4.938 -0.1706  1.4226  1.4913
  466SOL    HW2 1789   6.548   6.347   4.841 -0.8367 -1.0861 -1.6603
  467SOL     OW 1790   6.087   1.074   1.120 -0.2086 -0.2106 -0.1423
  467SOL    HW1 1791   6.057   0.983   1.118 -0.9176 -0.0186  0.8516
  467SOL    HW2 1792   6.143   1.080   1.197  0.0459  0.1327 -0.3500
  468SOL     OW 1793   1.595   1.134   4.947  0.4316  0.5890  0.4423
  468SOL    HW1 1794   1.686   1.162   4.952  0.9930 -1.0660  0.1214
  468SOL    HW2 1795   1.559   1.152   5.034  0.3058  3.5438 -0.1102
  469SOL     OW 1796   2.929   5.207   5.334  0.1433  0.4543 -1.0515
  469SOL    HW1 1797   2.965   5.291   5.366  1.4522 -0.3096 -0.3940
  469SOL    HW2 1798   2.916   5.156   5.414 -1.7734  0.4149 -1.3486
  470SOL     OW 1799   5.539   2.841   2.267 -0.1308  0.5437 -0.3541
  470SOL    HW1 1800   5.469   2.859   2.203 -1.0019 -0.9074  0.1438
  470SOL    HW2 1801   5.560   2.749   2.254 -0.0653  0.3141  1.1918
  471SOL     OW 1802   4.666   0.646   6.713  0.1100 -0.1737 -0.0695
  471SOL    HW1 1803   4.760   0.651   6.727  0.2582 -0.6665 -0.8853
  471SOL    HW2 1804   4.635   0.736   6.726  0.4334 -0.2931  1.8927
  472SOL     OW 1805   3.474   1.146   2.398 -0.2075  0.1511  0.4425
  472SOL    HW1 1806   3.544   1.170   2.460 -0.0601  0.3904  0.1872
  472SOL    HW2 1807   3.397   1.133   2.453 -0.1314  0.5784  0.6576
  473SOL     OW 1808   3.823   4.846   1.235 -0.1229 -0.3834 -0.3584
  473SOL    HW1 1809   3.761   4.916   1.256  2.1166  1.7184 -0.4011
  473SOL    HW2 1810   3.864   4.873   1.153  1.1060 -1.5110 -0.1578
  474SOL     OW 1811   0.375   1.581   2.415 -0.5729 -0.3077  0.2815
  474SOL    HW1 1812   0.421   1.505   2.380 -0.1159  0.2404 -0.3210
  474SOL    HW2 1813   0.442   1.649   2.421 -1.0219  0.1120  0.6322
  475SOL     OW 1814   6.525   0.368   1.559 -0.4602  0.3333 -0.0734
  475SOL    HW1 1815   6.440   0.362   1.602 -1.2569  3.9358 -0.8044
  475SOL    HW2 1816   6.578   0.422   1.619  0.5176  0.1139 -0.7169
  476SOL     OW 1817   0.056   2.762   2.142  0.0026 -0.2357  0.0594
  476SOL    HW1 1818   0.145   2.753   2.108  0.0204  0.2828 -0.0386
  476SOL    HW2 1819   0.018   2.675   2.132  0.5621 -0.5121  0.2850
  477SOL     OW 1820   3.538   2.655   4.679  0.4671 -0.7681  0.2129
  477SOL    HW1 1821   3.519   2.562   4.687  1.8204 -1.0687  0.0927
  477SOL    HW2 1822   3.628   2.659   4.647  0.1222  0.5678 -0.6884
  478SOL     OW 1823   3.171   1.054   1.283 -0.0345 -0.2530 -0.0445
  478SOL    HW1 1824   3.175   1.011   1.198  0.9599  1.0181 -0.6771
  478SOL    HW2 1825   3.231   1.004   1.338 -0.4898 -0.9266 -0.1443
  479SOL     OW 1826   1.157   1.033   4.388  0.6961  0.3000  0.3200
  479SOL    HW1 1827   1.252   1.038   4.401  0.6554 -0.0498  0.7449
  479SOL    HW2 1828   1.126   1.123   4.401  0.8539  0.2464  1.1042
  480SOL     OW 1829   6.408   5.171   5.049  0.1157  0.0958  0.0220
  480SOL    HW1 1830   6.338   5.228   5.082  0.1116  0.2263 -0.2053
  480SOL    HW2 1831   6.395   5.169   4.954  1.6725  1.8617 -0.3019
  481SOL     OW 1832   1.823   2.791   4.343 -0.1063 -0.2505 -0.7222
  481SOL    HW1 1833   1.901   2.841   4.319  0.2789 -0.2730  0.4482
  481SOL    HW2 1834   1.751   2.839   4.302  0.4316  0.2611 -1.0903
  482SOL     OW 1835   4.352   6.368   4.401 -0.4056 -0.0570 -0.0062
  482SOL    HW1 1836   4.260   6.369   4.375  0.1342 -1.5000 -2.2546
  482SOL    HW2 1837   4.365   6.281   4.439  0.3730 -0.5427 -1.3068
  483SOL     OW 1838   2.615   6.396   4.701  0.0296  0.0869 -0.0073
  483SOL    HW1 1839   2.587   6.322   4.648 -0.8018 -2.4190  3.5638
  483SOL    HW2 1840   2.710   6.387   4.707  0.0059 -0.2397 -0.1319
  484SOL     OW 1841   0.349   0.214   0.774 -0.1608 -0.0673  0.4264
  484SOL    HW1 1842   0.353   0.237   0.681 -0.2813 -0.3197  0.3574
  484SOL    HW2 1843   0.359   0.119   0.776  0.5576  0.0109  0.7291
  485SOL     OW 1844   3.237   2.209   5.371  0.8777 -0.2000  0.4112
  485SOL    HW1 1845   3.175   2.231   5.302  0.7154  1.2849  0.9863
  485SOL    HW2 1846   3.322   2.203   5.327  0.7311  0.4465  0.0402
  486SOL     OW 1847   0.469   1.240   2.263  0.3209  0.4620 -0.7395
  486SOL    HW1 1848   0.415   1.177   2.215 -0.8635  1.0411 -0.2112
  486SOL    HW2 1849   0.544   1.256   2.206  0.4163 -1.0791 -1.0791
  487SOL     OW 1850   4.594   6.430   4.825  0.4101  0.4014 -0.0820
  487SOL    HW1 1851   4.644   6.500   4.783  1.6836 -1.4915 -1.9647
  487SOL    HW2 1852   4.509   6.432   4.781  0.5650  0.5641 -0.3801
  488SOL     OW 1853   5.716   1.865   5.186  0.1403 -0.2020  0.1611
  488SOL    HW1 1854   5.806   1.862   5.216  0.5467  0.7841 -0.9007
  488SOL    HW2 1855   5.713   1.939   5.125 -0.7343 -1.7886 -1.8663
  489SOL     OW 1856   3.516   3.282   5.361 -0.4282 -0.4928  0.4552
  489SOL    HW1 1857   3.611   3.290   5.371 -0.6762  1.4999  2.1212
  489SOL    HW2 1858   3.504   3.211   5.298  2.1801  0.0577 -0.8111
  490SOL     OW 1859   3.375   4.869   4.068  0.0262 -0.3211 -0.8990
  490SOL    HW1 1860   3.436   4.918   4.123 -0.8297  0.3315 -0.4959
  490SOL    HW2 1861   3.379   4.780   4.102 -0.7632  0.1441  0.5202
  491SOL     OW 1862   3.957   1.283   5.604 -0.5323  0.2006  0.3861
  491SOL    HW1 1863   3.910   1.315   5.680 -0.6592 -0.8341  0.7599
  491SOL    HW2 1864   3.907   1.316   5.529 -0.9756  0.3891  0.7585
  492SOL     OW 1865   3.843   0.825   1.759  0.3535  0.0099 -0.1288
  492SOL    HW1 1866   3.871   0.814   1.850 -1.5630  2.6022  0.8747
  492SOL    HW2 1867   3.785   0.750   1.743  1.1536 -0.7825  0.5509
  493SOL     OW 1868   2.585   0.163   4.561  0.1122 -0.1406 -0.5321
  493SOL    HW1 1869   2.539   0.245   4.545 -0.2991 -0.2161  0.2195
  493SOL    HW2 1870   2.526   0.095   4.527 -0.4044 -0.2467  0.5590
  494SOL     OW 1871   2.838   0.655   5.301  0.5627  0.4192 -0.0697
  494SOL    HW1 1872   2.915   0.604   5.275  0.2141 -0.1474 -0.0106
  494SOL    HW2 1873   2.847   0.738   5.254  1.8697  0.8806  0.9387
  495SOL     OW 1874   3.035   5.122   2.342  0.7057 -0.2472  0.8120
  495SOL    HW1 1875   3.127   5.114   2.368  0.8156  0.6415  0.7399
  495SOL    HW2 1876   3.028   5.211   2.307 -0.3661 -0.0213  1.5692
  496SOL     OW 1877   3.358   1.480   6.391 -0.6136 -0.0091  0.3383
  496SOL    HW1 1878   3.358   1.562   6.342 -0.1892  0.2770  0.7943
  496SOL    HW2 1879   3.421   1.425   6.345 -1.4419 -0.3534 -0.3990
  497SOL     OW 1880   5.026   2.463   3.086 -0.1576  0.5941  0.0231
  497SOL    HW1 1881   5.027   2.533   3.151  0.5949  1.2626 -0.6931
  497SOL    HW2 1882   5.114   2.426   3.089 -0.0738  0.7312 -0.7255
  498SOL     OW 1883   2.497   5.919   1.816  0.1276  0.0874  0.6955
  498SOL    HW1 1884   2.446   5.961   1.747  0.6658  1.0350  0.8508
  498SOL    HW2 1885   2.588   5.941   1.794  0.4382 -1.0986  0.7327
  499SOL     OW 1886   1.661   6.001   3.933 -0.0001  0.5431  0.0393
  499SOL    HW1 1887   1.678   6.080   3.985  0.8724 -0.2550  1.0250
  499SOL    HW2 1888   1.594   5.954   3.982 -2.5049  1.8578 -1.8927
  500SOL     OW 1889   0.515   1.759   0.594 -0.3328  0.0650 -0.1620
  500SOL    HW1 1890   0.535   1.850   0.618 -0.5521  1.0823 -3.3564
  500SOL    HW2 1891   0.420   1.752   0.606 -0.1458 -0.2102  1.3407
  501SOL     OW 1892   1.916   0.618   4.692  0.4895 -0.0099 -0.1223
  501SOL    HW1 1893   1.868   0.678   4.634  1.8611  1.2883  0.0379
  501SOL    HW2 1894   1.916   0.661   4.777 -1.4616 -1.8774  0.9427
  502SOL     OW 1895   6.746   5.692   4.783  0.2587 -0.0350 -0.3631
  502SOL    HW1 1896   6.735   5.624   4.850  0.2695  0.8263  0.5282
  502SOL    HW2 1897   6.811   5.656   4.722 -1.9290 -2.1387 -1.6605
  503SOL     OW 1898   4.586   3.565   6.259 -0.2567  0.0464  0.5940
  503SOL    HW1 1899   4.632   3.485   6.284 -0.8968 -0.3506  0.5342
  503SOL    HW2 1900   4.620   3.632   6.319  1.6881  0.1914 -0.5829
  504SOL     OW 1901   2.836   0.265   5.981 -0.1822 -0.0449  0.1602
  504SOL    HW1 1902   2.766   0.307   6.030  1.0170  0.9902  1.0273
  504SOL    HW2 1903   2.857   0.186   6.031 -1.2232 -0.7849 -0.5217
  505SOL     OW 1904   2.755   5.667   2.486 -0.0358  0.5871 -0.0963
  505SOL    HW1 1905   2.819   5.733   2.510 -0.2766  0.6359  0.4271
  505SOL    HW2 1906   2.786   5.586   2.527 -1.0750  0.9191  1.4482
  506SOL     OW 1907   2.049   3.953   3.827  0.0926  0.0855  0.0695
  506SOL    HW1 1908   1.959   3.944   3.858 -0.5820 -0.3270 -1.8752
  506SOL    HW2 1909   2.085   3.864   3.828 -0.3000 -0.1178 -1.2514
  507SOL     OW 1910   2.758   6.170   1.937 -0.0922 -0.3608  0.1596
  507SOL    HW1 1911   2.758   6.265   1.943 -0.9431 -0.3770  0.5895
  507SOL    HW2 1912   2.839   6.148   1.891 -0.7608  0.6653 -1.5909
  508SOL     OW 1913   3.773   4.960   3.267  0.2545 -0.4572 -0.2434
  508SOL    HW1 1914   3.698   4.927   3.316 -0.7353  2.1584  0.1719
  508SOL    HW2 1915   3.817   4.882   3.235 -2.3388 -2.1108 -0.0570
  509SOL     OW 1916   2.637   2.310   3.129 -0.7290  0.0641  0.1223
  509SOL    HW1 1917   2.698   2.284   3.198 -0.9749  0.2661  0.4146
  509SOL    HW2 1918   2.555   2.267   3.152 -0.3318 -1.4834 -1.0841
  510SOL     OW 1919   5.192   2.765   4.711  0.0383  0.1904 -0.6577
  510SOL    HW1 1920   5.143   2.683   4.717 -0.2534  0.4171  0.2669
  510SOL    HW2 1921   5.272   2.749   4.762 -1.2304  1.2900  1.8959
  511SOL     OW 1922   5.936   5.872   4.860 -0.6329  0.4712  0.7194
  511SOL    HW1 1923   5.901   5.786   4.838 -0.2500  0.5054 -0.0595
  511SOL    HW2 1924   6.031   5.859   4.862 -0.5286  1.0218 -0.1231
  512SOL     OW 1925   1.454   6.514   0.913 -0.0804  0.1272 -0.3901
  512SOL    HW1 1926   1.414   6.484   0.832  1.5442  0.4653 -1.3596
  512SOL    HW2 1927   1.432   6.446   0.977 -0.2601 -0.8278 -1.4302
  513SOL     OW 1928   4.355   4.359   4.048 -0.3254  0.0989  0.5053
  513SOL    HW1 1929   4.268   4.362   4.007  0.1533 -1.1617 -0.6833
  513SOL    HW2 1930   4.338   4.326   4.136 -1.0813  0.0629  0.3598
  514SOL     OW 1931   6.757   4.682   6.679  0.2147 -0.1027 -0.5423
  514SOL    HW1 1932   6.788   4.772   6.677  0.2185 -0.1149 -2.4520
  514SOL    HW2 1933   6.715   4.669   6.594 -1.5531 -1.3034  0.4393
  515SOL     OW 1934   2.355   4.780   6.269 -0.2163  0.2590 -0.0833
  515SOL    HW1 1935   2.357   4.719   6.343  0.4852  1.4882  0.9477
  515SOL    HW2 1936   2.402   4.857   6.300 -2.4574  2.0055 -0.7639
  516SOL     OW 1937   5.321   2.464   3.165 -0.0412 -0.3289  0.1454
  516SOL    HW1 1938   5.299   2.550   3.201 -0.1239  0.4402 -1.6409
  516SOL    HW2 1939   5.389   2.430   3.224  1.0611  1.6081  0.0693
  517SOL     OW 1940   6.629   3.938   4.004  0.0758  0.7039  0.1539
  517SOL    HW1 1941   6.656   3.993   4.077  0.2849  1.9975 -0.8704
  517SOL    HW2 1942   6.543   3.970   3.980 -0.8933 -1.0424  1.0829
  518SOL     OW 1943   5.922   6.784   4.993  0.5885  0.4152 -0.0958
  518SOL    HW1 1944   5.861   6.713   4.977  1.6706 -0.5389 -0.1311
  518SOL    HW2 1945   5.877   6.862   4.961  0.2554 -0.5669 -2.1888
  519SOL     OW 1946   5.462   2.049   1.227  0.1598 -0.3717 -0.2038
  519SOL    HW1 1947   5.536   2.087   1.182 -0.9265  0.7721 -1.0811
  519SOL    HW2 1948   5.387   2.064   1.169 -1.1500  0.4483  1.5792
  520SOL     OW 1949   5.783   3.672   5.121 -0.3018  0.4963 -0.1322
  520SOL    HW1 1950   5.817   3.699   5.036  0.0033  0.6253  0.0287
  520SOL    HW2 1951   5.725   3.599   5.101  1.0720 -0.5993 -0.2954
  521SOL     OW 1952   5.343   6.589   5.681  0.4358  0.2235 -0.2970
  521SOL    HW1 1953   5.409   6.625   5.740  1.0108 -1.6172  0.2442
  521SOL    HW2 1954   5.373   6.613   5.593  1.5162 -0.0732 -0.0181
  522SOL     OW 1955   4.034   0.596   0.208 -0.1660 -0.7690  0.7573
  522SOL    HW1 1956   4.078   0.641   0.136  0.2767 -1.9111  0.2990
  522SOL    HW2 1957   4.079   0.512   0.215 -1.0702 -1.2064  1.5008
  523SOL     OW 1958   1.007   5.014   2.489  0.3237 -0.0632 -0.2297
  523SOL    HW1 1959   0.915   4.991   2.479  0.7509 -1.2410 -1.9242
  523SOL    HW2 1960   1.005   5.102   2.527 -1.4885  0.0014 -0.3621
  524SOL     OW 1961   3.832   5.771   3.854  0.2339  0.7451  0.1147
  524SOL    HW1 1962   3.872   5.856   3.837  0.2782  0.9095  0.9948
  524SOL    HW2 1963   3.895   5.707   3.820  0.6070  1.0433  0.2426
  525SOL     OW 1964   4.413   1.191   5.267  0.2403  0.6263  0.2274
  525SOL    HW1 1965   4.321   1.190   5.243  0.2998  2.4118 -0.2289
  525SOL    HW2 1966   4.430   1.281   5.294  1.6295  0.0914  1.2422
  526SOL     OW 1967   3.600   6.311   1.498  0.0515  0.7236 -0.2340
  526SOL    HW1 1968   3.538   6.376   1.465 -0.6043 -0.4661 -1.4747
  526SOL    HW2 1969   3.595   6.239   1.434  2.4964  0.4481 -0.2079
  527SOL     OW 1970   0.904   1.793   4.057 -0.8971 -0.2997  0.4772
  527SOL    HW1 1971   0.914   1.706   4.095  1.4409 -0.2534  0.0720
  527SOL    HW2 1972   0.990   1.815   4.023 -1.6547  1.8218 -0.2357
  528SOL     OW 1973   1.519   6.798   5.829  0.3048 -0.0854  0.1858
  528SOL    HW1 1974   1.599   6.818   5.781 -0.3032  0.6689 -0.5299
  528SOL    HW2 1975   1.448   6.826   5.772 -0.4390  1.5651  1.7968
  529SOL     OW 1976   3.641   1.748   0.238 -0.6477 -0.3695 -0.3603
  529SOL    HW1 1977   3.597   1.739   0.322 -2.4105 -0.2653 -1.2093
  529SOL    HW2 1978   3.703   1.820   0.250 -2.1106  0.8172  0.3917
  530SOL     OW 1979   3.787   5.898   1.325  0.4768  0.6729  0.0575
  530SOL    HW1 1980   3.848   5.860   1.389 -1.7354  1.0734  2.5998
  530SOL    HW2 1981   3.760   5.824   1.270 -0.2156 -0.5197  1.9105
  531SOL     OW 1982   4.478   6.183   0.852 -0.2003  0.0302  0.4450
  531SOL    HW1 1983   4.442   6.097   0.872  0.7959 -0.6340 -0.4532
  531SOL    HW2 1984   4.529   6.207   0.929 -1.3720  0.3375  1.1461
  532SOL     OW 1985   0.055   0.602   1.520 -0.1548 -0.4146 -0.2529
  532SOL    HW1 1986   0.028   0.521   1.475  1.8284 -1.2585 -0.0133
  532SOL    HW2 1987   0.072   0.575   1.610 -2.7250  0.9944  0.7667
  533SOL     OW 1988   4.337   5.559   5.878 -0.5074 -0.1667  0.3043
  533SOL    HW1 1989   4.275   5.508   5.824  0.3221 -2.2956  1.2452
  533SOL    HW2 1990   4.283   5.598   5.946 -1.1068 -0.2534 -0.1135
  534SOL     OW 1991   2.526   1.591   4.105 -0.0449  0.5970  0.3340
  534SOL    HW1 1992   2.609   1.593   4.152 -0.3184 -0.0859  0.8622
  534SOL    HW2 1993   2.459   1.583   4.173 -0.5667  1.3280 -0.0713
  535SOL     OW 1994   0.560   0.028   0.279 -0.6705 -0.4848 -0.0288
  535SOL    HW1 1995   0.630   0.052   0.220 -0.6719 -3.5999 -1.5281
  535SOL    HW2 1996   0.484   0.078   0.248  0.2127  0.8142 -0.1608
  536SOL     OW 1997   3.105   2.936   3.945 -0.1325 -0.1420 -0.2642
  536SOL    HW1 1998   3.183   2.988   3.964 -0.7865  0.2304  1.5969
  536SOL    HW2 1999   3.139   2.849   3.921  0.8702 -0.0701  0.7960
  537SOL     OW 2000   5.206   2.012   4.754  0.3502  0.3220 -0.3803
  537SOL    HW1 2001   5.223   2.012   4.849 -1.7763 -0.9075  0.0764
  537SOL    HW2 2002   5.150   1.936   4.740  1.1723  0.0812 -2.7803
  538SOL     OW 2003   2.468   3.173   0.092 -0.2326  0.5386  0.3560
  538SOL    HW1 2004   2.479   3.079   0.075 -0.4661  0.7309 -0.9876
  538SOL    HW2 2005   2.380   3.180   0.130 -0.2608  0.2225  0.3532
  539SOL     OW 2006   4.194   4.637   0.969 -0.0890 -0.4158  0.0974
  539SOL    HW1 2007   4.240   4.554   0.952 -1.1429 -1.1838  0.8763
  539SOL    HW2 2008   4.196   4.683   0.885  1.0152 -0.9663 -0.1957
  540SOL     OW 2009   6.062   2.114   1.925  0.0325 -0.4925  0.0638
  540SOL    HW1 2010   5.987   2.130   1.982 -0.0785  1.5259 -0.5890
  540SOL    HW2 2011   6.135   2.160   1.967  0.5159 -1.0202 -0.1841
  541SOL     OW 2012   3.379   0.915   5.717 -0.0106 -0.4640  0.5948
  541SOL    HW1 2013   3.301   0.939   5.766 -0.1271 -1.0140  0.6856
  541SOL    HW2 2014   3.444   0.892   5.784  0.5571  0.9192  0.5590
  542SOL     OW 2015   2.357   5.065   0.582  0.2124 -0.1813 -0.4741
  542SOL    HW1 2016   2.420   5.135   0.595  1.8369 -1.4269 -1.3120
  542SOL    HW2 2017   2.359   5.015   0.664 -0.8537  0.6450  0.0762
  543SOL     OW 2018   2.815   5.886   4.417  0.1748 -0.1441 -0.6860
  543SOL    HW1 2019   2.856   5.807   4.383 -0.5979 -1.5468  1.4422
  543SOL    HW2 2020   2.883   5.953   4.413  0.9665 -1.0085 -2.1296
  544SOL     OW 2021   2.107   0.066   5.851  0.5195  0.1566  0.1333
  544SOL    HW1 2022   2.131   0.077   5.759 -0.9781 -0.5404 -0.3523
  544SOL    HW2 2023   2.043  -0.005   5.852  2.0063 -1.2790  1.9679
  545SOL     OW 2024   5.197   0.284   0.275  0.0578  0.0354 -0.3466
  545SOL    HW1 2025   5.203   0.222   0.347  0.5271 -0.5693 -0.8945
  545SOL    HW2 2026   5.264   0.350   0.294 -1.4737  1.2742  1.0460
  546SOL     OW 2027   5.396   5.484   3.623 -0.1837 -0.2288  0.0993
  546SOL    HW1 2028   5.371   5.408   3.675  1.5150 -0.3275  0.8430
  546SOL    HW2 2029   5.488   5.469   3.601  0.0822  1.4370 -0.0538
  547SOL     OW 2030   4.505   0.371   0.082 -0.2442  0.3433  0.4292
  547SOL    HW1 2031   4.477   0.425   0.156 -0.7796  1.9068 -0.8561
  547SOL    HW2 2032   4.596   0.348   0.103  0.8824  3.7533  0.0237
  548SOL     OW 2033   4.083   3.335   3.155 -0.4651  0.4145  0.0281
  548SOL    HW1 2034   4.085   3.239   3.165  0.6098  0.4375  0.1722
  548SOL    HW2 2035   4.119   3.368   3.237 -1.6646  0.9885  0.3402
  549SOL     OW 2036   0.964   3.688   4.901  0.5043  0.5535 -0.5045
  549SOL    HW1 2037   0.914   3.747   4.845 -0.9255  0.2974  0.4518
  549SOL    HW2 2038   0.962   3.604   4.854 -0.9887  0.2496  0.0149
  550SOL     OW 2039   0.843   6.235   1.730 -0.4442 -0.1393  0.3200
  550SOL    HW1 2040   0.854   6.319   1.775 -0.2499  0.0030  0.0134
  550SOL    HW2 2041   0.918   6.182   1.758  0.9578  0.7150 -1.5087
  551SOL     OW 2042   1.509   1.596   3.585  0.3471  0.2934  0.0582
  551SOL    HW1 2043   1.469   1.561   3.505 -0.5750  2.5194 -0.5071
  551SOL    HW2 2044   1.585   1.645   3.554  1.9620 -1.5423  0.8967
  552SOL     OW 2045   2.544   0.715   4.930  0.0334  0.2794  0.4823
  552SOL    HW1 2046   2.590   0.713   4.846  0.7422 -0.3936  0.8726
  552SOL    HW2 2047   2.452   0.711   4.907  0.1577  1.3644 -0.3098
  553SOL     OW 2048   0.996   4.537   6.717  0.0838  0.5540 -0.1651
  553SOL    HW1 2049   0.997   4.539   6.621  0.7518  1.4486 -0.1536
  553SOL    HW2 2050   0.903   4.532   6.739 -0.0164 -1.3090 -0.8517
  554SOL     OW 2051   1.910   1.250   1.787  0.5991 -0.3856  0.1749
  554SOL    HW1 2052   1.973   1.282   1.852  2.6638 -1.0324 -1.3712
  554SOL    HW2 2053   1.951   1.271   1.703 -0.3474 -2.5340 -0.9022
  555SOL     OW 2054   6.599   3.162   4.734 -0.4182  0.0923 -0.0439
  555SOL    HW1 2055   6.636   3.124   4.813 -0.3711 -0.4936 -0.3445
  555SOL    HW2 2056   6.670   3.162   4.670 -1.1731 -2.0941 -0.9883
  556SOL     OW 2057   3.947   5.866   4.793  0.4698 -0.3016  0.4007
  556SOL    HW1 2058   3.953   5.878   4.698 -0.6605 -0.4677  0.3001
  556SOL    HW2 2059   3.951   5.955   4.828 -1.8918  0.0353  0.0059
  557SOL     OW 2060   5.256   4.976   0.847 -0.5223  0.6009  0.7018
  557SOL    HW1 2061   5.309   4.954   0.924  2.2466  2.4616 -0.4977
  557SOL    HW2 2062   5.281   5.067   0.827 -0.8556  0.0764 -2.5782
  558SOL     OW 2063   3.385   5.957   0.003  0.2490  0.3619 -0.7695
  558SOL    HW1 2064   3.431   5.899   0.065 -2.4493  0.4229  1.5073
  558SOL    HW2 2065   3.407   6.045   0.033 -0.7789  0.3955 -0.0782
  559SOL     OW 2066   4.099   3.922   0.702 -0.3366 -0.0435  0.0019
  559SOL    HW1 2067   4.138   3.988   0.645  0.3540  1.1571  1.7641
  559SOL    HW2 2068   4.020   3.964   0.736 -2.0483 -1.6179 -1.7891
  560SOL     OW 2069   5.806   3.582   3.589 -0.3469 -0.0813 -0.2236
  560SOL    HW1 2070   5.774   3.521   3.523 -0.5432 -1.0187  0.6995
  560SOL    HW2 2071   5.888   3.542   3.620  0.3305  0.9189 -0.6822
  561SOL     OW 2072   6.759   4.901   4.620 -0.4520  0.8486 -0.3706
  561SOL    HW1 2073   6.840   4.856   4.644 -0.4607  0.6973 -0.6201
  561SOL    HW2 2074   6.788   4.981   4.576 -0.4381  0.8941 -0.2786
  562SOL     OW 2075   5.657   4.626   4.981 -0.0324  0.0909 -0.5448
  562SOL    HW1 2076   5.610   4.709   4.973  0.9826  0.7724  0.3123
  562SOL    HW2 2077   5.742   4.644   4.941  0.6391 -0.1544  0.7461
  563SOL     OW 2078   4.616   0.216   0.988 -0.5313  0.0748 -0.0133
  563SOL    HW1 2079   4.636   0.194   1.079  0.3716 -0.6693 -0.3749
  563SOL    HW2 2080   4.610   0.131   0.944 -0.0047  0.4526 -0.8369
  564SOL     OW 2081   0.283   6.405   2.526  0.4151  0.6428  0.5724
  564SOL    HW1 2082   0.372   6.405   2.491  0.7229  0.9464  1.3498
  564SOL    HW2 2083   0.229   6.373   2.453  1.1473  0.5022  0.0827
  565SOL     OW 2084   3.110   2.582   2.492  0.3686 -0.4470  0.3225
  565SOL    HW1 2085   3.025   2.579   2.450  0.4537 -2.7875  0.2023
  565SOL    HW2 2086   3.115   2.502   2.544  2.0457  0.1868  1.2398
  566SOL     OW 2087   4.885   2.061   2.197 -0.4881 -0.0941  0.2293
  566SOL    HW1 2088   4.865   2.131   2.134  0.6245 -0.9175 -1.1058
  566SOL    HW2 2089   4.970   2.027   2.168 -1.8383 -3.2722 -0.3751
  567SOL     OW 2090   0.240   2.148   6.758 -0.0236 -0.2257 -0.0728
  567SOL    HW1 2091   0.211   2.147   6.667  2.2812 -2.7101 -0.8956
  567SOL    HW2 2092   0.234   2.240   6.784 -1.4052  0.4475 -2.4734
  568SOL     OW 2093   3.733   0.420   2.115  0.3975  0.3154 -0.2249
  568SOL    HW1 2094   3.767   0.358   2.050  0.9278 -0.1662  0.4863
  568SOL    HW2 2095   3.776   0.503   2.093 -0.0173  0.3462 -0.9477
  569SOL     OW 2096   2.724   6.333   6.393  0.0628  0.4732 -0.1876
  569SOL    HW1 2097   2.693   6.346   6.483  0.7037 -1.7743  0.4148
  569SOL    HW2 2098   2.653   6.284   6.350  0.4087  0.1871 -0.4398
  570SOL     OW 2099   3.375   3.920   2.932 -0.0342 -0.0165  0.1188
  570SOL    HW1 2100   3.455   3.898   2.980  0.0319 -0.2852 -0.1124
  570SOL    HW2 2101   3.334   3.836   2.914 -1.2342  0.1942  1.6691
  571SOL     OW 2102   2.941   5.232   1.499 -0.3461 -0.2461  0.5959
  571SOL    HW1 2103   2.977   5.299   1.556 -0.4639 -0.0416  0.4307
  571SOL    HW2 2104   2.901   5.280   1.427 -0.9531 -0.4680  0.7761
  572SOL     OW 2105   1.724   0.783   2.533 -0.0379 -0.1470  0.5540
  572SOL    HW1 2106   1.649   0.838   2.557  0.7307  0.3390  1.9093
  572SOL    HW2 2107   1.756   0.748   2.616  0.5134 -1.3283 -0.1329
  573SOL     OW 2108   4.750   4.772   3.714  0.2516 -0.1484 -0.1779
  573SOL    HW1 2109   4.844   4.770   3.733  0.6833  0.3616 -1.9695
  573SOL    HW2 2110   4.735   4.694   3.661 -0.3973 -0.3707  0.3317
  574SOL     OW 2111   6.516   1.483   2.454 -0.1866  0.0091  0.2099
  574SOL    HW1 2112   6.526   1.407   2.513  0.8795  0.4714  0.6636
  574SOL    HW2 2113   6.472   1.447   2.377  1.2721 -1.3519 -0.0588
  575SOL     OW 2114   6.514   0.228   0.075 -0.2647  0.0164  0.2527
  575SOL    HW1 2115   6.561   0.146   0.066 -0.8391 -0.4853  1.5763
  575SOL    HW2 2116   6.437   0.217   0.019  0.0644 -0.0266 -0.1958
  576SOL     OW 2117   3.518   5.743   3.356  0.1108 -0.0056  0.6758
  576SOL    HW1 2118   3.518   5.838   3.359  0.9258  0.0143  0.2673
  576SOL    HW2 2119   3.610   5.718   3.368  0.2116 -0.6652 -1.2210
  577SOL     OW 2120   6.686   0.316   2.601 -0.6571  0.1315 -0.9968
  577SOL    HW1 2121   6.671   0.324   2.507 -0.7394  0.1544 -0.9811
  577SOL    HW2 2122   6.776   0.347   2.613 -0.4572 -0.3723 -1.1416
  578SOL     OW 2123   3.880   2.926   4.928 -0.3892  0.1955 -0.1292
  578SOL    HW1 2124   3.865   2.886   5.015 -0.2810  0.3813 -0.0260
  578SOL    HW2 2125   3.945   2.869   4.887 -1.4114 -0.6713 -0.6142
  579SOL     OW 2126   2.359   1.620   6.015  0.6053 -0.0701 -0.1057
  579SOL    HW1 2127   2.298   1.631   6.088 -1.5490  0.5676 -1.8787
  579SOL    HW2 2128   2.405   1.704   6.009  0.4739  0.0272  0.2322
  580SOL     OW 2129   4.961   2.298   0.652 -0.7237 -0.0957  0.0760
  580SOL    HW1 2130   5.042   2.290   0.602 -0.9042 -1.1873 -0.0785
  580SOL    HW2 2131   4.943   2.392   0.653  0.0641  0.0852 -0.6498
  581SOL     OW 2132   6.104   3.070   5.393 -0.0164  0.3526  0.1448
  581SOL    HW1 2133   6.095   2.997   5.333 -1.3420 -0.0687  0.8179
  581SOL    HW2 2134   6.198   3.087   5.397  0.0665  0.9970 -2.7207
  582SOL     OW 2135   5.138   3.939   4.683 -0.0898 -0.8745  0.7110
  582SOL    HW1 2136   5.144   3.981   4.769  3.4864 -1.8440  1.1179
  582SOL    HW2 2137   5.139   4.012   4.621  1.5147 -0.1722  1.4868
  583SOL     OW 2138   6.491   1.868   6.073  0.1448 -0.4932  0.1836
  583SOL    HW1 2139   6.460   1.903   5.989  0.5329 -0.3882  0.0806
  583SOL    HW2 2140   6.447   1.922   6.139  1.1837  0.5854  0.0157
  584SOL     OW 2141   4.663   0.277   0.432  0.6972 -0.5479 -0.5485
  584SOL    HW1 2142   4.748   0.249   0.469  0.3806 -2.0196 -0.8571
  584SOL    HW2 2143   4.683   0.358   0.385  1.2567  1.0250  2.2030
  585SOL     OW 2144   1.102   0.501   1.338 -0.1671 -0.1557 -0.5152
  585SOL    HW1 2145   1.017   0.484   1.297 -0.3613 -1.9508  0.5251
  585SOL    HW2 2146   1.080   0.549   1.418 -0.2556 -0.9589 -0.0494
  586SOL     OW 2147   6.433   4.209   1.294  0.2599 -0.6212 -0.8345
  586SOL    HW1 2148   6.426   4.114   1.304 -1.0601 -0.6052 -1.3663
  586SOL    HW2 2149   6.517   4.222   1.249  0.6710 -1.4922 -0.3497
  587SOL     OW 2150   6.777   6.478   2.053  0.2653  0.6172  0.1053
  587SOL    HW1 2151   6.708   6.452   1.991  1.0539  0.0727 -0.5663
  587SOL    HW2 2152   6.812   6.560   2.016  1.1795 -0.0523 -0.5512
  588SOL     OW 2153   2.503   1.474   5.312 -0.0928 -0.3470  0.0931
  588SOL    HW1 2154   2.472   1.457   5.223 -1.4940  0.1025  0.4711
  588SOL    HW2 2155   2.527   1.567   5.312 -0.3489 -0.2820  0.2633
  589SOL     OW 2156   1.956   6.447   5.883 -0.1918  0.0628 -0.4130
  589SOL    HW1 2157   1.896   6.377   5.857  0.9310 -0.6682 -1.1118
  589SOL    HW2 2158   2.039   6.425   5.840  0.5238  1.1594  0.3572
  590SOL     OW 2159   4.186   1.888   4.040  0.0077  0.4297  0.6354
  590SOL    HW1 2160   4.199   1.932   4.124  1.5309 -0.6587  1.0106
  590SOL    HW2 2161   4.132   1.812   4.060  0.6941 -0.0467  0.7262
  591SOL     OW 2162   3.990   4.828   6.507  0.1348  0.0962 -0.4423
  591SOL    HW1 2163   3.947   4.901   6.463  0.3397  0.7486  0.3962
  591SOL    HW2 2164   4.035   4.781   6.438 -1.3097 -0.1696 -1.2339
  592SOL     OW 2165   0.514   6.278   4.236  0.1100 -0.1930 -0.1484
  592SOL    HW1 2166   0.565   6.261   4.156 -1.7727 -0.8554 -1.2695
  592SOL    HW2 2167   0.521   6.372   4.249  1.4097 -0.2308 -0.3936
  593SOL     OW 2168   1.506   3.804   1.732  0.4756 -0.1441  0.5069
  593SOL    HW1 2169   1.569   3.732   1.739  0.1151 -0.3953  1.2684
  593SOL    HW2 2170   1.534   3.866   1.800 -2.0440 -1.7941  3.2807
  594SOL     OW 2171   3.940   0.292   1.950  0.3823  0.3329 -0.2778
  594SOL    HW1 2172   4.015   0.350   1.939  0.9709 -0.0274  1.5560
  594SOL    HW2 2173   3.977   0.207   1.971 -0.5000 -0.5610 -2.0602
  595SOL     OW 2174   4.531   6.151   6.113  0.1198 -0.8449 -0.3968
  595SOL    HW1 2175   4.543   6.162   6.018 -2.4941  0.6822 -0.6367
  595SOL    HW2 2176   4.512   6.239   6.145  3.1418 -0.9226  2.0204
  596SOL     OW 2177   3.929   0.368   1.531 -0.3594  0.1565 -0.4609
  596SOL    HW1 2178   3.922   0.289   1.585  1.7115 -0.3260 -0.7991
  596SOL    HW2 2179   3.970   0.433   1.588 -3.7744  1.7258  0.4448
  597SOL     OW 2180   4.081   6.735   0.468  0.2173  0.0329  0.6827
  597SOL    HW1 2181   4.099   6.813   0.521 -0.2619 -0.5082  1.6658
  597SOL    HW2 2182   3.986   6.727   0.470  0.1430  0.3604 -0.8022
  598SOL     OW 2183   3.639   6.471   3.206 -0.0805 -0.1997  0.3071
  598SOL    HW1 2184   3.678   6.384   3.196 -0.0775 -0.2460  0.6903
  598SOL    HW2 2185   3.711   6.532   3.190 -0.3757 -0.2388 -1.2363
  599SOL     OW 2186   0.801   4.730   5.704 -0.0907  0.4402 -0.4180
  599SOL    HW1 2187   0.806   4.727   5.799 -0.1523  1.0110 -0.3918
  599SOL    HW2 2188   0.887   4.761   5.676  0.1573 -0.3884 -0.5904
  600SOL     OW 2189   3.072   0.437   2.403  0.0344  0.1763 -0.1071
  600SOL    HW1 2190   3.114   0.395   2.479 -0.2295  2.5708  1.4858
  600SOL    HW2 2191   3.008   0.497   2.442  0.1763  1.7926 -2.1981
  601SOL     OW 2192   1.295   4.390   3.163  0.4848 -0.1140 -0.5725
  601SOL    HW1 2193   1.352   4.433   3.227  0.3657 -1.5467  0.5513
  601SOL    HW2 2194   1.268   4.460   3.104  0.5391  1.2940  1.0015
  602SOL     OW 2195   2.198   0.078   0.632  0.7713 -0.8642 -0.5630
  602SOL    HW1 2196   2.120   0.116   0.673  1.4410 -0.6418  0.5674
  602SOL    HW2 2197   2.190  -0.016   0.649  2.0417 -0.6048  2.0288
  603SOL     OW 2198   0.434   2.885   3.944 -0.5439  0.1956 -0.6071
  603SOL    HW1 2199   0.357   2.860   3.995 -0.7041  0.8025 -0.5395
  603SOL    HW2 2200   0.443   2.816   3.878 -0.7557 -0.2201 -0.2039
  604SOL     OW 2201   1.489   4.523   2.786  0.1056  0.3966 -0.3622
  604SOL    HW1 2202   1.502   4.596   2.726  0.8074 -0.0830 -0.8113
  604SOL    HW2 2203   1.398   4.497   2.773  0.1033  0.6327 -0.8334
  605SOL     OW 2204   2.626   0.784   0.063 -0.6004 -0.5525  0.4863
  605SOL    HW1 2205   2.565   0.842   0.019 -0.0152 -1.3324 -1.4667
  605SOL    HW2 2206   2.709   0.833   0.066 -0.4580 -0.7677  0.0786
  606SOL     OW 2207   5.885   1.987   0.860  0.3956 -0.0197 -0.0805
  606SOL    HW1 2208   5.864   2.080   0.860  0.2818 -0.0444 -0.1554
  606SOL    HW2 2209   5.808   1.945   0.820 -0.2908 -0.3068  1.4810
  607SOL     OW 2210   1.938   5.722   0.112 -0.1532  0.0019 -0.6212
  607SOL    HW1 2211   2.008   5.772   0.154 -1.3021  1.2585 -0.1340
  607SOL    HW2 2212   1.955   5.631   0.137 -0.5502  0.6483  2.2445
  608SOL     OW 2213   1.565   0.335   2.038  0.2117 -0.3191  0.7955
  608SOL    HW1 2214   1.479   0.375   2.048 -0.2175 -1.6044  2.3994
  608SOL    HW2 2215   1.621   0.384   2.098  0.6891  0.5896 -0.3244
  609SOL     OW 2216   5.033   4.881   5.873  0.1974  1.3844 -0.2144
  609SOL    HW1 2217   4.998   4.971   5.872 -0.2345  1.2154 -1.4655
  609SOL    HW2 2218   4.962   4.828   5.908 -0.7492  1.0974 -2.4029
  610SOL     OW 2219   2.100   6.632   1.708  0.0943  0.3819  0.1428
  610SOL    HW1 2220   2.096   6.545   1.668  1.0846  0.6388 -0.5451
  610SOL    HW2 2221   2.147   6.619   1.790  1.1418  0.4153 -0.4351
  611SOL     OW 2222   6.407   5.222   5.975  0.5447 -0.2202 -0.6688
  611SOL    HW1 2223   6.496   5.203   6.007  0.7153  0.3616 -0.7858
  611SOL    HW2 2224   6.371   5.136   5.953  1.0740 -0.4637 -0.6149
  612SOL     OW 2225   4.700   0.531   6.040  0.1508  0.1677 -0.2516
  612SOL    HW1 2226   4.668   0.595   5.976 -2.7137 -0.3957  0.4629
  612SOL    HW2 2227   4.745   0.584   6.106  0.6069  1.0611 -1.2414
  613SOL     OW 2228   1.159   5.493   1.004 -0.2752  0.2282  0.1383
  613SOL    HW1 2229   1.150   5.583   0.971  0.8401  0.1260 -0.5028
  613SOL    HW2 2230   1.153   5.439   0.925 -0.3279 -0.2244  0.4523
  614SOL     OW 2231   5.746   0.077   0.779 -0.0088  0.0585  0.2534
  614SOL    HW1 2232   5.824   0.090   0.832  1.7607  0.5842 -2.3238
  614SOL    HW2 2233   5.741  -0.018   0.766  2.7709  0.1632 -2.9356
  615SOL     OW 2234   2.261   4.827   4.305 -0.0837 -0.5367 -0.0002
  615SOL    HW1 2235   2.239   4.734   4.303  1.3142 -0.8703 -0.6516
  615SOL    HW2 2236   2.236   4.860   4.219  0.9416 -0.6948 -0.3737
  616SOL     OW 2237   6.623   1.794   2.341 -0.4600  0.1537 -0.2510
  616SOL    HW1 2238   6.570   1.852   2.396 -0.2089  0.5792 -0.4524
  616SOL    HW2 2239   6.607   1.825   2.251 -1.1852 -0.7876 -0.4749
  617SOL     OW 2240   1.156   1.466   4.098 -0.4789  0.6552  0.2979
  617SOL    HW1 2241   1.223   1.488   4.162 -2.2124  2.3884  1.6370
  617SOL    HW2 2242   1.205   1.434   4.022  1.6913 -0.7537  2.1534
  618SOL     OW 2243   4.538   5.574   2.901  0.2657 -0.0718  0.0208
  618SOL    HW1 2244   4.518   5.502   2.841 -2.7520  0.8099 -0.1617
  618SOL    HW2 2245   4.509   5.652   2.855  1.4185  1.0540  1.1393
  619SOL     OW 2246   6.024   5.463   5.285 -0.8893  0.3937 -0.6233
  619SOL    HW1 2247   6.031   5.533   5.350  0.0561 -0.5515  0.3315
  619SOL    HW2 2248   5.934   5.431   5.294 -0.5501 -0.2445  0.8067
  620SOL     OW 2249   1.205   2.034   5.079  0.0662 -0.1071  0.1436
  620SOL    HW1 2250   1.210   2.127   5.056  0.3686  0.2098  1.3732
  620SOL    HW2 2251   1.147   2.032   5.155 -2.1151 -1.2750 -1.4542
  621SOL     OW 2252   2.341   4.582   2.457 -0.1693  0.2283 -0.0484
  621SOL    HW1 2253   2.359   4.490   2.436 -1.4087  0.0054 -0.2141
  621SOL    HW2 2254   2.260   4.579   2.508  0.0363  1.1959  0.3466
  622SOL     OW 2255   2.739   1.147   3.411 -0.4714 -0.2415 -0.4686
  622SOL    HW1 2256   2.739   1.184   3.499  0.7432  1.5925 -1.1944
  622SOL    HW2 2257   2.750   1.222   3.353 -0.7409 -1.4645 -2.1770
  623SOL     OW 2258   0.779   3.326   2.932  0.0935  0.0190  1.3979
  623SOL    HW1 2259   0.864   3.359   2.960  0.5070  0.4045 -0.1940
  623SOL    HW2 2260   0.798   3.269   2.857 -1.0842  0.6706  0.5586
  624SOL     OW 2261   6.504   0.135   6.606  0.0212  0.1074  0.1746
  624SOL    HW1 2262   6.422   0.125   6.653 -0.2756 -0.4594 -0.4513
  624SOL    HW2 2263   6.556   0.058   6.630 -0.1773 -0.2461 -0.5022
  625SOL     OW 2264   6.335   2.267   3.809  0.5364 -0.1563 -0.4177
  625SOL    HW1 2265   6.271   2.271   3.738 -1.2696 -1.8529  1.0020
  625SOL    HW2 2266   6.288   2.227   3.882  2.3189  1.4500  1.7638
  626SOL     OW 2267   2.422   0.884   6.318 -0.0353 -0.2879  0.1490
  626SOL    HW1 2268   2.420   0.870   6.412  0.0679  0.6492  0.3049
  626SOL    HW2 2269   2.515   0.885   6.296 -0.0066  0.7025  0.2508
  627SOL     OW 2270   2.010   2.681   4.623 -0.0487 -0.2346  0.2365
  627SOL    HW1 2271   1.924   2.719   4.641  0.2202 -0.3101  1.7760
  627SOL    HW2 2272   2.063   2.705   4.698  1.0349 -0.9613 -0.2755
  628SOL     OW 2273   5.438   1.881   4.124 -0.0565  0.1421 -0.5854
  628SOL    HW1 2274   5.381   1.859   4.198 -1.1971  0.4760 -1.3375
  628SOL    HW2 2275   5.383   1.934   4.066  1.6238  2.2449 -0.3746
  629SOL     OW 2276   3.104   3.691   2.025  0.0632 -0.2308 -0.4068
  629SOL    HW1 2277   3.148   3.610   2.049  0.1869 -0.0489 -0.0118
  629SOL    HW2 2278   3.058   3.718   2.105 -0.0291  0.0545 -0.5538
  630SOL     OW 2279   6.570   3.817   5.099 -0.0247 -0.8479 -0.3019
  630SOL    HW1 2280   6.488   3.865   5.112  0.5630  0.0587  0.1426
  630SOL    HW2 2281   6.637   3.885   5.093  0.6433 -1.5549 -1.1497
  631SOL     OW 2282   1.186   4.051   6.421  0.1594 -0.1324 -0.3138
  631SOL    HW1 2283   1.214   4.118   6.483 -3.4909 -1.7187  3.5221
  631SOL    HW2 2284   1.220   3.969   6.457 -1.8073 -1.0822 -0.4973
  632SOL     OW 2285   5.220   6.197   1.584  0.2453 -0.0990 -0.2324
  632SOL    HW1 2286   5.280   6.269   1.568 -0.2466  0.3824  0.0671
  632SOL    HW2 2287   5.276   6.124   1.609  0.5995  1.0754  2.8626
  633SOL     OW 2288   3.314   3.982   4.823 -0.3341  0.2379  0.4102
  633SOL    HW1 2289   3.269   3.920   4.766  0.4993 -1.6694  1.7207
  633SOL    HW2 2290   3.403   3.987   4.787 -0.5351  1.1027  0.0108
  634SOL     OW 2291   0.577   6.556   0.227  0.0587  0.1895 -0.3836
  634SOL    HW1 2292   0.610   6.630   0.177  1.8275 -0.0789  0.3162
  634SOL    HW2 2293   0.535   6.595   0.304  1.6532  0.4991  0.3794
  635SOL     OW 2294   4.293   1.755   6.389 -0.3900  0.0250  0.0255
  635SOL    HW1 2295   4.222   1.777   6.450 -0.0695  0.8155  0.1313
  635SOL    HW2 2296   4.342   1.837   6.379 -0.0664 -0.2629 -0.8091
  636SOL     OW 2297   3.698   5.145   2.326  0.0407  0.2940 -0.1576
  636SOL    HW1 2298   3.733   5.219   2.276  0.7369 -0.9189 -1.5500
  636SOL    HW2 2299   3.614   5.125   2.283 -1.1250  1.4651  1.4497
  637SOL     OW 2300   1.839   2.470   1.822 -0.0821 -0.4203 -0.0357
  637SOL    HW1 2301   1.808   2.553   1.787 -2.2070 -1.0712  0.1483
  637SOL    HW2 2302   1.799   2.463   1.909  1.3775 -0.9233  0.6367
  638SOL     OW 2303   6.758   1.372   4.162 -0.2830 -0.2862  0.1077
  638SOL    HW1 2304   6.759   1.276   4.154 -1.4009 -0.2605 -0.7805
  638SOL    HW2 2305   6.686   1.390   4.222 -0.4873  0.0015 -0.2166
  639SOL     OW 2306   1.934   1.010   6.796 -1.0800 -0.0534 -0.2416
  639SOL    HW1 2307   1.933   0.920   6.764  1.9486  0.2957 -1.6989
  639SOL    HW2 2308   1.868   1.055   6.743 -1.5447 -1.1120 -0.5804
  640SOL     OW 2309   1.795   5.311   1.465  0.3036  0.4862  0.0649
  640SOL    HW1 2310   1.723   5.362   1.504  1.0641  0.9463  0.8957
  640SOL    HW2 2311   1.751   5.236   1.424 -0.7356  1.2209 -0.2254
  641SOL     OW 2312   3.861   6.365   6.723  0.5943  0.4756 -0.5061
  641SOL    HW1 2313   3.831   6.279   6.750  0.6438  0.1894 -1.3402
  641SOL    HW2 2314   3.797   6.426   6.760 -0.5244 -0.0613 -1.4974
  642SOL     OW 2315   6.247   5.288   5.480  0.0908  0.3460 -0.8045
  642SOL    HW1 2316   6.199   5.213   5.515  2.0063 -0.4505  0.2730
  642SOL    HW2 2317   6.220   5.293   5.388 -0.7331 -1.0991 -0.6708
  643SOL     OW 2318   6.462   2.589   1.416 -0.3945  0.1896 -0.6018
  643SOL    HW1 2319   6.557   2.596   1.409 -0.3016 -0.4057  0.0306
  643SOL    HW2 2320   6.429   2.645   1.345  0.4332 -0.3392 -1.4361
  644SOL     OW 2321   2.866   4.400   2.496 -0.2624 -0.5549 -0.6717
  644SOL    HW1 2322   2.948   4.402   2.547 -0.0939  1.7933 -0.9222
  644SOL    HW2 2323   2.797   4.400   2.562 -0.0557 -0.6106 -0.4538
  645SOL     OW 2324   4.707   5.642   5.905  0.4667  0.2134  0.4795
  645SOL    HW1 2325   4.623   5.683   5.924  0.3967 -0.1945  1.0956
  645SOL    HW2 2326   4.685   5.551   5.882  0.7955 -0.1704  1.6121
  646SOL     OW 2327   4.370   4.701   4.770 -0.0882  0.0589 -0.3003
  646SOL    HW1 2328   4.355   4.661   4.684 -0.3347  0.8615 -0.6357
  646SOL    HW2 2329   4.366   4.627   4.831  1.7473 -0.7780 -1.1241
  647SOL     OW 2330   1.223   4.656   1.962  0.1647 -0.8599 -0.1820
  647SOL    HW1 2331   1.132   4.634   1.984  0.1929 -1.2842 -0.4723
  647SOL    HW2 2332   1.216   4.735   1.910 -0.1151 -1.3553 -0.9211
  648SOL     OW 2333   2.218   0.692   0.161  0.0282 -0.1942 -0.6630
  648SOL    HW1 2334   2.122   0.697   0.157 -0.2461 -0.0429  2.9338
  648SOL    HW2 2335   2.247   0.737   0.082 -2.8019 -1.3199 -2.5462
  649SOL     OW 2336   1.788   0.640   6.429 -0.4042 -0.0210  0.1871
  649SOL    HW1 2337   1.829   0.710   6.379 -1.5427 -0.2615 -1.1446
  649SOL    HW2 2338   1.841   0.562   6.410 -0.5498 -0.0112 -0.2633
  650SOL     OW 2339   1.047   1.201   2.700  0.8930 -0.0762 -0.1450
  650SOL    HW1 2340   1.059   1.109   2.676 -1.5576 -0.4565 -0.2150
  650SOL    HW2 2341   1.050   1.201   2.796 -1.3130 -0.6812 -0.0214
  651SOL     OW 2342   3.165   0.705   2.919 -0.4625 -0.1962 -0.6016
  651SOL    HW1 2343   3.192   0.728   3.007 -0.3292  1.0085 -0.9428
  651SOL    HW2 2344   3.247   0.679   2.875 -0.5376 -0.8488 -0.3591
  652SOL     OW 2345   3.942   0.541   4.849 -0.4554 -0.0426  0.3554
  652SOL    HW1 2346   3.891   0.514   4.925 -0.7784  0.8824  0.4838
  652SOL    HW2 2347   3.961   0.460   4.802  0.1313 -0.6763  1.6489
  653SOL     OW 2348   3.079   1.769   2.300  0.1732 -0.2816 -0.3173
  653SOL    HW1 2349   3.024   1.831   2.253 -1.0062 -1.4525 -0.5506
  653SOL    HW2 2350   3.071   1.688   2.250 -0.5932 -1.3814  1.4849
  654SOL     OW 2351   4.089   1.287   3.514 -0.2593  0.2652 -0.1161
  654SOL    HW1 2352   4.119   1.200   3.540 -1.5239  0.2314  1.3847
  654SOL    HW2 2353   3.999   1.292   3.547  0.3994  2.8460  1.5773
  655SOL     OW 2354   1.935   3.132   4.209 -0.5584 -0.4157 -0.2840
  655SOL    HW1 2355   2.017   3.096   4.242 -0.3726 -0.8123 -1.1684
  655SOL    HW2 2356   1.915   3.204   4.269  1.1258  0.5611 -0.8499
  656SOL     OW 2357   0.032   4.613   3.333 -0.0927 -0.0607  0.2697
  656SOL    HW1 2358  -0.002   4.665   3.406  2.5169 -0.7066  2.0891
  656SOL    HW2 2359   0.125   4.634   3.330 -0.2147  0.5939 -3.5413
  657SOL     OW 2360   2.673   4.528   2.071  0.0964 -0.1737 -0.0789
  657SOL    HW1 2361   2.725   4.571   2.138 -0.9525  0.0978  0.5846
  657SOL    HW2 2362   2.585   4.563   2.083 -0.3604 -1.0270 -0.8189
  658SOL     OW 2363   5.799   4.022   6.123 -0.1179  0.7866 -0.2606
  658SOL    HW1 2364   5.816   3.931   6.148  0.8041  0.8256 -0.6813
  658SOL    HW2 2365   5.714   4.020   6.080 -0.5703  0.3002  0.6367
  659SOL     OW 2366   1.218   2.542   6.053  0.1012  0.2921 -0.2385
  659SOL    HW1 2367   1.172   2.560   6.135  0.4133 -1.5553  0.3881
  659SOL    HW2 2368   1.287   2.607   6.050 -0.7560  1.2599  0.2602
  660SOL     OW 2369   1.481   4.518   6.689  0.4925  0.0270  0.7950
  660SOL    HW1 2370   1.447   4.587   6.746  0.4059  0.7135 -0.0727
  660SOL    HW2 2371   1.438   4.533   6.605  1.8824  0.0484  0.0688
  661SOL     OW 2372   2.305   3.636   1.846  0.7075 -0.4431  0.5072
  661SOL    HW1 2373   2.370   3.623   1.778  0.9268  0.9994  0.4137
  661SOL    HW2 2374   2.222   3.647   1.799  0.5050 -1.4257  0.5921
  662SOL     OW 2375   2.501   4.767   5.987 -0.3686  0.5457 -0.4585
  662SOL    HW1 2376   2.480   4.856   5.959 -0.7071  0.8435  0.6810
  662SOL    HW2 2377   2.448   4.754   6.065  0.1829 -0.4225 -0.2339
  663SOL     OW 2378   5.665   5.434   4.469 -0.2437  0.3541  0.6390
  663SOL    HW1 2379   5.730   5.427   4.539  1.4220  0.3830 -0.8234
  663SOL    HW2 2380   5.642   5.343   4.449  0.9141  0.2099 -0.1711
  664SOL     OW 2381   6.465   2.334   2.473 -0.5208  0.1850 -0.6693
  664SOL    HW1 2382   6.539   2.390   2.495 -0.3532 -0.2221 -0.1695
  664SOL    HW2 2383   6.402   2.393   2.431 -1.0125  1.1205  1.2362
  665SOL     OW 2384   6.188   5.051   3.989 -0.7002 -0.6943  0.0270
  665SOL    HW1 2385   6.195   5.146   3.974  0.2638 -0.9007 -0.9109
  665SOL    HW2 2386   6.168   5.044   4.083 -3.1200  0.4916 -0.3221
  666SOL     OW 2387   5.372   1.912   2.648 -0.4362 -0.3250 -0.6951
  666SOL    HW1 2388   5.315   1.937   2.575  0.1620 -0.5837 -1.2647
  666SOL    HW2 2389   5.444   1.863   2.607  0.2295  0.0468 -0.0031
  667SOL     OW 2390   6.660   2.541   2.466  0.5725 -0.4954 -0.2952
  667SOL    HW1 2391   6.633   2.602   2.397 -0.2062  0.1925  0.5969
  667SOL    HW2 2392   6.752   2.522   2.447  0.3876 -0.2705 -1.4834
  668SOL     OW 2393   2.446   3.233   6.227 -0.0652 -0.2696  0.0529
  668SOL    HW1 2394   2.507   3.288   6.276 -0.2557 -0.3196  0.3495
  668SOL    HW2 2395   2.409   3.292   6.160  1.1028 -0.5088 -0.8352
  669SOL     OW 2396   4.809   1.546   4.746  0.4479 -0.2101  0.2211
  669SOL    HW1 2397   4.887   1.557   4.800  0.2812 -0.3957  0.4994
  669SOL    HW2 2398   4.757   1.625   4.762  0.2178 -0.4430  0.6307
  670SOL     OW 2399   1.012   2.767   4.769  0.5791 -0.5774  0.4790
  670SOL    HW1 2400   1.083   2.810   4.816 -0.3806  0.4973  0.9955
  670SOL    HW2 2401   0.949   2.837   4.752 -1.0882 -1.7762  1.4338
  671SOL     OW 2402   5.251   2.967   2.888 -0.1415  0.0381  0.2942
  671SOL    HW1 2403   5.345   2.959   2.871 -0.1857 -1.9904  0.6974
  671SOL    HW2 2404   5.219   3.023   2.818  0.9058 -1.7216 -1.6906
  672SOL     OW 2405   2.304   4.288   2.414 -0.1062 -0.8658 -0.5071
  672SOL    HW1 2406   2.393   4.279   2.380 -0.0168 -0.0124 -0.5256
  672SOL    HW2 2407   2.248   4.266   2.340  0.0834  1.1284 -1.3178
  673SOL     OW 2408   1.055   4.884   5.643  0.1675 -0.7932  0.2079
  673SOL    HW1 2409   1.009   4.935   5.576  0.4943 -0.6443  0.0948
  673SOL    HW2 2410   1.027   4.923   5.726  0.0048 -0.7758  0.1471
  674SOL     OW 2411   6.799   4.517   3.870  0.3703  0.3737  0.1879
  674SOL    HW1 2412   6.802   4.499   3.776  1.0014 -4.4162  0.8696
  674SOL    HW2 2413   6.709   4.497   3.895  0.6969 -0.3208  0.8469
  675SOL     OW 2414   1.186   1.153   3.063  0.1064 -0.6864  0.5977
  675SOL    HW1 2415   1.237   1.098   3.005 -0.0988  1.4846 -1.8423
  675SOL    HW2 2416   1.250   1.213   3.102 -0.0889 -0.3346  0.3893
  676SOL     OW 2417   2.997   1.280   6.815 -0.2829  0.0883  0.3137
  676SOL    HW1 2418   2.959   1.348   6.760  0.5398  1.5941  1.5455
  676SOL    HW2 2419   3.091   1.283   6.795 -0.0744  0.1593  1.2717
  677SOL     OW 2420   4.418   3.729   3.637 -0.0682 -0.2542  0.0476
  677SOL    HW1 2421   4.381   3.812   3.665 -0.7406 -0.1257 -1.1636
  677SOL    HW2 2422   4.438   3.683   3.718 -0.4319  0.7563  0.7284
  678SOL     OW 2423   6.464   4.968   0.727 -0.6228  0.1990 -0.2853
  678SOL    HW1 2424   6.450   5.047   0.676  0.0666  0.3722 -0.2145
  678SOL    HW2 2425   6.502   4.998   0.809 -0.6346 -0.1774 -0.1379
  679SOL     OW 2426   4.623   5.948   5.278  0.3526  0.0391  0.4887
  679SOL    HW1 2427   4.564   6.008   5.233 -0.4832 -2.7157 -2.4080
  679SOL    HW2 2428   4.705   5.997   5.286 -0.9933  2.4172  0.6415
  680SOL     OW 2429   3.265   1.079   6.358  0.2903  0.0303 -0.3059
  680SOL    HW1 2430   3.276   0.984   6.345 -1.5781 -0.1931 -0.5515
  680SOL    HW2 2431   3.328   1.101   6.426 -0.0044 -1.6188  0.5498
  681SOL     OW 2432   2.340   0.458   4.005  0.1106  0.2861 -0.6595
  681SOL    HW1 2433   2.316   0.372   3.969 -0.6516 -0.0416  0.5662
  681SOL    HW2 2434   2.348   0.442   4.099  1.3304  1.2709 -0.5826
  682SOL     OW 2435   0.029   1.435   0.205  0.1817  0.1085  0.4755
  682SOL    HW1 2436   0.056   1.444   0.114  0.9155  0.1285  0.6891
  682SOL    HW2 2437  -0.050   1.381   0.202  0.5025 -0.3326 -0.1270
  683SOL     OW 2438   1.129   0.335   5.222  0.0710  0.8463  0.0955
  683SOL    HW1 2439   1.130   0.431   5.226  0.2995  0.8422  0.1872
  683SOL    HW2 2440   1.206   0.313   5.168 -1.1937  0.7900 -1.7695
  684SOL     OW 2441   2.293   4.510   3.954 -0.3235 -0.0445  0.3329
  684SOL    HW1 2442   2.288   4.600   3.922 -1.5713 -0.6648 -1.3588
  684SOL    HW2 2443   2.223   4.503   4.019 -2.5893 -0.6414 -2.0025
  685SOL     OW 2444   5.178   4.289   6.221  0.0652  0.2836  0.0173
  685SOL    HW1 2445   5.091   4.266   6.253  0.3766  2.3540  2.7411
  685SOL    HW2 2446   5.225   4.206   6.217 -0.0405 -0.3901  5.3072
  686SOL     OW 2447   3.948   2.408   3.425 -0.0225 -0.5362  0.0764
  686SOL    HW1 2448   3.854   2.421   3.437  0.0619 -1.4896  2.3150
  686SOL    HW2 2449   3.964   2.320   3.460  1.6537 -0.4914 -0.5337
  687SOL     OW 2450   2.727   1.357   2.674  0.6124 -0.4745 -0.2604
  687SOL    HW1 2451   2.731   1.266   2.705  0.9240 -0.5062 -0.3816
  687SOL    HW2 2452   2.817   1.389   2.684  0.2847  0.1721  0.8220
  688SOL     OW 2453   6.122   5.056   4.918  0.4329  0.1265  0.3642
  688SOL    HW1 2454   6.154   5.021   5.002 -0.2857 -1.8535 -0.1251
  688SOL    HW2 2455   6.058   4.991   4.888 -0.4867  1.5783 -0.9838
  689SOL     OW 2456   2.595   2.569   3.100 -0.0701  0.8494  0.9034
  689SOL    HW1 2457   2.643   2.487   3.093  2.3971  2.1423  1.4118
  689SOL    HW2 2458   2.562   2.585   3.011  1.2736  0.3553  0.2972
  690SOL     OW 2459   0.099   3.078   4.095  0.5515 -0.5742  0.3920
  690SOL    HW1 2460   0.173   3.131   4.065  1.5469 -1.2105  1.6554
  690SOL    HW2 2461   0.039   3.076   4.020  1.7027  0.1362 -0.5785
  691SOL     OW 2462   4.909   5.093   1.456 -0.4468  0.0729 -0.4704
  691SOL    HW1 2463   4.918   5.184   1.428 -0.4523  0.3782  0.5078
  691SOL    HW2 2464   4.830   5.092   1.510  0.6403 -0.1008  1.1667
  692SOL     OW 2465   6.771   0.325   3.833 -0.1302  1.0233 -0.1117
  692SOL    HW1 2466   6.853   0.282   3.859 -1.0408  0.3204  1.7685
  692SOL    HW2 2467   6.779   0.413   3.870 -0.3642  0.8291  0.4169
  693SOL     OW 2468   0.891   2.194   4.005  0.7988 -0.0856 -0.2597
  693SOL    HW1 2469   0.953   2.140   3.956  0.0694  0.1870 -1.5373
  693SOL    HW2 2470   0.870   2.266   3.945 -0.8327 -0.2425  0.0789
  694SOL     OW 2471   6.146   6.701   4.564  0.0109 -0.1373  0.2257
  694SOL    HW1 2472   6.205   6.643   4.611  1.8432  0.8894 -0.6708
  694SOL    HW2 2473   6.132   6.658   4.479  0.1558  0.0085  0.1264
  695SOL     OW 2474   4.332   4.825   3.977  0.4666 -0.3761 -0.1576
  695SOL    HW1 2475   4.400   4.892   3.971 -0.8216  1.1344  1.1517
  695SOL    HW2 2476   4.367   4.760   4.038  0.6610  0.5363  0.7294
  696SOL     OW 2477   2.360   0.982   5.452  0.0894 -0.0536 -0.2880
  696SOL    HW1 2478   2.276   0.936   5.452  0.2693 -0.3872  0.1369
  696SOL    HW2 2479   2.415   0.930   5.394  0.3750 -0.5349  0.4043
  697SOL     OW 2480   6.370   2.406   1.814 -0.0607  0.1831 -0.1346
  697SOL    HW1 2481   6.450   2.375   1.772 -0.7642  0.8797 -2.1280
  697SOL    HW2 2482   6.317   2.440   1.742 -1.5074  1.1630  1.3183
  698SOL     OW 2483   4.933   6.761   6.564  0.2752 -1.0114 -0.0298
  698SOL    HW1 2484   4.897   6.820   6.498  0.7438 -0.9509 -0.2408
  698SOL    HW2 2485   4.942   6.816   6.642  0.3487 -0.9033 -0.1135
  699SOL     OW 2486   6.642   5.186   0.314 -0.0858  0.3021 -0.5046
  699SOL    HW1 2487   6.682   5.100   0.327 -1.5662 -0.1751  1.3667
  699SOL    HW2 2488   6.703   5.233   0.257  1.0029 -1.8010 -1.1771
  700SOL     OW 2489   5.370   4.903   3.427  0.0345 -0.5651  0.4325
  700SOL    HW1 2490   5.395   4.995   3.416  0.4631 -0.9167 -1.9690
  700SOL    HW2 2491   5.336   4.877   3.341  0.3744 -2.8005  0.9267
  701SOL     OW 2492   0.851   6.797   6.760 -0.3518 -0.0127  0.3752
  701SOL    HW1 2493   0.833   6.880   6.805  0.0817  0.5777 -0.5203
  701SOL    HW2 2494   0.764   6.763   6.738 -0.5442  0.0342  1.0202
  702SOL     OW 2495   0.840   6.374   6.450 -0.4961 -0.1425  0.0944
  702SOL    HW1 2496   0.762   6.328   6.420  0.4900 -2.1616  0.4198
  702SOL    HW2 2497   0.824   6.392   6.542 -1.4518  1.5041 -0.3484
  703SOL     OW 2498   3.246   3.019   1.672  0.1780 -1.0694 -0.1327
  703SOL    HW1 2499   3.189   2.974   1.735  0.4391 -0.7976  0.3032
  703SOL    HW2 2500   3.332   3.022   1.715 -0.1336  1.0486  0.4418
  704SOL     OW 2501   0.380   6.696   1.759  0.3434  0.0943  0.6438
  704SOL    HW1 2502   0.453   6.678   1.701 -1.9346 -1.5960 -1.9490
  704SOL    HW2 2503   0.360   6.789   1.744  0.9244  0.1441  0.1482
  705SOL     OW 2504   5.568   1.584   2.477  0.6192  0.3330  0.1560
  705SOL    HW1 2505   5.559   1.673   2.443  1.8902 -0.1987 -1.7323
  705SOL    HW2 2506   5.532   1.588   2.565 -1.4581  2.1741 -0.6982
  706SOL     OW 2507   5.441   2.513   5.850 -0.0872 -0.1595  0.0084
  706SOL    HW1 2508   5.358   2.530   5.807 -0.8024  1.6262  1.9039
  706SOL    HW2 2509   5.421   2.516   5.944  1.7773 -1.6560  0.5459
  707SOL     OW 2510   0.480   2.768   6.044  0.5818 -0.0256  0.3377
  707SOL    HW1 2511   0.541   2.703   6.078  0.6669 -0.8550 -1.3091
  707SOL    HW2 2512   0.531   2.819   5.982  0.0146  0.3274  0.1490
  708SOL     OW 2513   6.111   3.991   2.223 -0.0327 -0.3523  0.0114
  708SOL    HW1 2514   6.146   4.079   2.204  0.8613 -0.9188 -1.1453
  708SOL    HW2 2515   6.028   4.007   2.267  0.3254  1.0759  0.2216
  709SOL     OW 2516   3.490   4.113   5.968  0.2298  0.3275  0.1014
  709SOL    HW1 2517   3.541   4.192   5.988 -0.2963  0.7261 -0.1006
  709SOL    HW2 2518   3.511   4.052   6.038  1.4585  0.2584 -0.3075
  710SOL     OW 2519   0.444   0.843   1.014  0.9240  0.3588  0.6128
  710SOL    HW1 2520   0.418   0.928   0.979 -0.0240 -0.1901 -0.0763
  710SOL    HW2 2521   0.533   0.830   0.982  0.6811  0.6185 -0.2033
  711SOL     OW 2522   5.469   0.692   0.340 -0.3301  0.1646 -0.6538
  711SOL    HW1 2523   5.449   0.606   0.377  0.2971  0.5362  0.5728
  711SOL    HW2 2524   5.549   0.677   0.288 -0.4272 -0.0635 -0.7391
  712SOL     OW 2525   2.125   0.380   4.908 -0.3315  0.2073  0.4260
  712SOL    HW1 2526   2.193   0.329   4.866 -1.1049  0.9928 -1.9262
  712SOL    HW2 2527   2.059   0.393   4.840 -2.9199 -0.6133  2.6174
  713SOL     OW 2528   0.438   0.407   6.165 -0.1091 -0.3651 -0.7103
  713SOL    HW1 2529   0.364   0.360   6.202 -0.4654  0.5868 -0.1798
  713SOL    HW2 2530   0.422   0.499   6.188  1.6019 -0.2235  0.0757
  714SOL     OW 2531   1.237   3.473   3.115  0.4030 -0.0607 -0.8605
  714SOL    HW1 2532   1.256   3.567   3.112  1.1299 -0.0904  1.2299
  714SOL    HW2 2533   1.203   3.453   3.028  0.6825  2.0351 -1.5144
  715SOL     OW 2534   2.506   2.174   4.891  0.4891 -0.1794 -0.5261
  715SOL    HW1 2535   2.429   2.117   4.893  1.5593 -1.7022 -1.2438
  715SOL    HW2 2536   2.575   2.124   4.936  0.5367  2.0754  2.2302
  716SOL     OW 2537   2.800   4.964   4.334 -0.2612  0.0099 -0.3348
  716SOL    HW1 2538   2.772   4.873   4.345 -0.1849  0.0411  0.1667
  716SOL    HW2 2539   2.831   4.990   4.421  0.2426  0.3395 -0.6092
  717SOL     OW 2540   2.943   3.675   2.267  0.2695  0.0285 -0.5528
  717SOL    HW1 2541   2.862   3.625   2.256 -0.0650  0.6750 -1.0684
  717SOL    HW2 2542   2.916   3.756   2.311  1.1006 -1.0963  2.2323
  718SOL     OW 2543   6.078   1.546   0.057  0.0024 -0.0423 -0.2265
  718SOL    HW1 2544   6.168   1.575   0.074 -0.0596  1.2044 -1.8301
  718SOL    HW2 2545   6.070   1.464   0.106  0.1934  2.4859  4.5662
  719SOL     OW 2546   0.162   3.505   1.080  0.4424  0.2639 -0.4707
  719SOL    HW1 2547   0.136   3.413   1.083 -1.4364  0.7903  2.3299
  719SOL    HW2 2548   0.248   3.507   1.123  0.8706 -0.2304 -1.2677
  720SOL     OW 2549   5.119   3.196   4.055 -0.4073  0.5074 -0.1892
  720SOL    HW1 2550   5.132   3.101   4.049  0.4839  0.6114 -0.0857
  720SOL    HW2 2551   5.173   3.223   4.129 -0.1053  1.1936 -0.6470
  721SOL     OW 2552   2.727   3.372   3.098  0.3885 -0.2264  0.4308
  721SOL    HW1 2553   2.768   3.427   3.031 -0.1661 -0.6215 -0.2466
  721SOL    HW2 2554   2.744   3.418   3.180  2.5412 -0.5862  0.2399
  722SOL     OW 2555   5.549   3.038   4.175  0.8359  0.4817  0.0126
  722SOL    HW1 2556   5.516   2.982   4.105 -0.8606  1.0292  0.3121
  722SOL    HW2 2557   5.627   3.079   4.138  1.4545 -1.1771 -0.6088
  723SOL     OW 2558   2.900   3.940   2.311 -0.3941  0.4275  0.5324
  723SOL    HW1 2559   2.979   3.984   2.281 -0.5093 -0.1488 -0.6572
  723SOL    HW2 2560   2.847   4.009   2.350 -0.5285  1.3555 -1.2119
  724SOL     OW 2561   0.041   0.179   1.542 -0.0029 -0.2993  0.3269
  724SOL    HW1 2562   0.071   0.088   1.530  0.1851 -0.1139 -0.6802
  724SOL    HW2 2563   0.027   0.187   1.637 -2.8697 -2.2623  0.1913
  725SOL     OW 2564   5.417   3.491   5.203 -0.2094 -0.7542  0.1849
  725SOL    HW1 2565   5.508   3.462   5.209  0.2805  0.6938  0.3889
  725SOL    HW2 2566   5.400   3.497   5.109  1.1704  2.3835 -0.0111
  726SOL     OW 2567   5.440   4.353   6.337  0.3343  0.4158  0.8609
  726SOL    HW1 2568   5.361   4.305   6.312 -1.1793  2.3972  1.5525
  726SOL    HW2 2569   5.482   4.374   6.253  0.9506 -1.8563  0.5409
  727SOL     OW 2570   5.110   3.126   0.869  0.1767 -0.0151 -0.4071
  727SOL    HW1 2571   5.108   3.032   0.887  1.4041 -0.1261 -0.7788
  727SOL    HW2 2572   5.026   3.144   0.825  0.0460 -0.9826 -0.5745
  728SOL     OW 2573   6.119   4.626   0.011  0.0048  0.1951  0.1076
  728SOL    HW1 2574   6.173   4.700   0.042 -1.2575  1.1514  0.0974
  728SOL    HW2 2575   6.130   4.628  -0.084  1.6175 -0.9628  0.2291
  729SOL     OW 2576   2.320   4.649   6.508 -0.5710 -0.5011  0.3168
  729SOL    HW1 2577   2.386   4.700   6.555 -1.1872  0.3422  0.3077
  729SOL    HW2 2578   2.236   4.683   6.541 -1.0064 -2.0646  0.8803
  730SOL     OW 2579   6.459   0.934   0.766  0.2469 -0.2030  0.1078
  730SOL    HW1 2580   6.412   0.897   0.691  0.0414  0.3531 -0.0432
  730SOL    HW2 2581   6.550   0.939   0.737  0.3941 -1.2003  0.3683
  731SOL     OW 2582   3.531   1.078   6.027 -0.4195  0.2382 -0.2698
  731SOL    HW1 2583   3.613   1.122   6.006 -0.4661  1.2269  1.3878
  731SOL    HW2 2584   3.518   1.016   5.956  0.5997  1.6321 -1.7629
  732SOL     OW 2585   1.147   5.456   1.280 -0.6201 -0.0517 -0.0425
  732SOL    HW1 2586   1.194   5.535   1.306  0.8876 -0.5121 -1.2103
  732SOL    HW2 2587   1.142   5.461   1.185  0.7026 -1.9489 -0.2797
  733SOL     OW 2588   4.835   0.993   2.199 -0.1066 -0.3580 -0.7656
  733SOL    HW1 2589   4.867   0.911   2.235  0.2994 -0.5389 -1.5414
  733SOL    HW2 2590   4.775   0.968   2.129 -0.2039  0.0040 -0.8173
  734SOL     OW 2591   0.284   1.369   1.370  0.1345  0.2354 -0.1008
  734SOL    HW1 2592   0.284   1.460   1.401  0.5703  0.1316  0.2066
  734SOL    HW2 2593   0.296   1.317   1.449  0.4092 -0.0685 -0.3441
  735SOL     OW 2594   1.393   4.763   6.056 -0.3778 -0.7942 -0.5173
  735SOL    HW1 2595   1.477   4.761   6.010 -0.3037 -1.7587 -0.3758
  735SOL    HW2 2596   1.337   4.817   6.001  0.6844  0.9840  0.0527
  736SOL     OW 2597   5.160   5.457   6.578  0.6420 -0.0130 -0.4161
  736SOL    HW1 2598   5.220   5.412   6.637  1.8426 -1.9144 -2.9088
  736SOL    HW2 2599   5.214   5.522   6.534  0.5916 -0.7726 -1.6504
  737SOL     OW 2600   0.877   6.676   0.683 -0.1302 -0.4441 -0.5751
  737SOL    HW1 2601   0.798   6.644   0.725 -0.0350  1.2224  1.0079
  737SOL    HW2 2602   0.848   6.750   0.629  0.3345  0.3410  0.2132
  738SOL     OW 2603   5.507   1.445   5.687  0.0980  0.0776  0.0804
  738SOL    HW1 2604   5.463   1.475   5.607  0.3087  0.2286  0.0225
  738SOL    HW2 2605   5.504   1.349   5.681 -0.0158  0.0884 -0.0375
  739SOL     OW 2606   0.229   4.041   6.144  0.0686 -0.0392  0.6648
  739SOL    HW1 2607   0.168   3.981   6.101  0.8191 -0.5903  0.3650
  739SOL    HW2 2608   0.316   4.012   6.116  0.4139  3.1521 -2.2341
  740SOL     OW 2609   5.927   0.626   0.039  0.1852  0.1293  0.7900
  740SOL    HW1 2610   5.922   0.625  -0.057 -0.3646  0.1011  0.8133
  740SOL    HW2 2611   5.996   0.564   0.060 -2.4280 -3.1226  0.5346
  741SOL     OW 2612   2.105   6.728   2.160  0.0703  0.0309  0.4088
  741SOL    HW1 2613   2.059   6.688   2.086  1.6947 -2.4741  0.6529
  741SOL    HW2 2614   2.042   6.726   2.232  0.0056 -2.0378  0.3576
  742SOL     OW 2615   1.788   5.426   4.827 -0.1436  0.1544  0.2659
  742SOL    HW1 2616   1.830   5.496   4.878  0.3466  0.9766 -1.2273
  742SOL    HW2 2617   1.748   5.471   4.753  0.5161 -1.1842 -0.9389
  743SOL     OW 2618   6.416   2.785   5.816 -0.5386 -0.3084 -0.1808
  743SOL    HW1 2619   6.506   2.815   5.833 -0.7401  0.9556 -1.1718
  743SOL    HW2 2620   6.364   2.825   5.885 -0.4742 -0.2710 -0.1540
  744SOL     OW 2621   3.541   5.368   3.451  0.3875 -0.3676 -0.6244
  744SOL    HW1 2622   3.497   5.390   3.534  1.7168 -0.9748  0.2736
  744SOL    HW2 2623   3.545   5.272   3.451  2.4496 -0.3305 -0.2294
  745SOL     OW 2624   1.093   4.218   5.565 -0.1696  0.3777 -0.7496
  745SOL    HW1 2625   1.031   4.291   5.563 -1.6856 -0.5721  3.0273
  745SOL    HW2 2626   1.039   4.140   5.551  0.4236 -0.3306  0.7065
  746SOL     OW 2627   2.461   6.255   0.978 -0.0555 -0.4345  0.2626
  746SOL    HW1 2628   2.533   6.221   0.925 -0.6342  0.0947 -0.9134
  746SOL    HW2 2629   2.500   6.327   1.028  0.0753  0.4047 -1.0036
  747SOL     OW 2630   5.845   5.069   6.368 -0.0206 -0.7124  0.0633
  747SOL    HW1 2631   5.916   5.116   6.324  1.1144 -1.6308  0.8766
  747SOL    HW2 2632   5.857   5.090   6.461 -0.8817 -0.8115  0.2048
  748SOL     OW 2633   6.242   3.785   2.307  0.0392 -0.2908 -0.6567
  748SOL    HW1 2634   6.200   3.870   2.297 -1.9539 -1.0310  0.7516
  748SOL    HW2 2635   6.312   3.799   2.372 -0.5766  0.2020 -0.0887
  749SOL     OW 2636   5.292   1.323   2.648 -0.3415  0.3484  0.2175
  749SOL    HW1 2637   5.336   1.398   2.688 -0.0551  0.3979 -0.1901
  749SOL    HW2 2638   5.202   1.329   2.679 -0.3155  0.8474  0.2038
  750SOL     OW 2639   5.173   1.065   1.829  0.6841  0.2105 -0.2808
  750SOL    HW1 2640   5.182   1.070   1.924 -0.2500  1.8343 -0.2265
  750SOL    HW2 2641   5.211   1.147   1.797  0.4948 -0.0659 -1.2525
  751SOL     OW 2642   1.565   5.277   3.758 -0.1453 -0.1300 -0.5673
  751SOL    HW1 2643   1.509   5.201   3.742 -1.1320  0.4151  0.2117
  751SOL    HW2 2644   1.526   5.348   3.708  0.5547 -0.0299 -0.9895
  752SOL     OW 2645   5.668   5.308   4.896 -0.1220 -0.0635 -0.2175
  752SOL    HW1 2646   5.760   5.292   4.877  0.0260 -0.4474  0.7895
  752SOL    HW2 2647   5.621   5.244   4.841  0.2289 -0.2095 -0.3492
  753SOL     OW 2648   1.656   0.213   5.417  0.2212  0.2466  0.0535
  753SOL    HW1 2649   1.603   0.140   5.449  2.2615 -1.3985 -0.0984
  753SOL    HW2 2650   1.683   0.259   5.496  0.3268 -0.2056  0.2855
  754SOL     OW 2651   6.574   3.188   5.842  0.4752 -0.0482  1.0870
  754SOL    HW1 2652   6.592   3.097   5.815  0.5183  0.3665 -0.3903
  754SOL    HW2 2653   6.487   3.206   5.808  0.9142  0.8117  0.3927
  755SOL     OW 2654   1.690   0.268   3.932 -0.0979  0.3535  0.4983
  755SOL    HW1 2655   1.777   0.271   3.972 -0.1589 -0.7906  0.7290
  755SOL    HW2 2656   1.649   0.350   3.960  0.7289  0.6859  0.7766
  756SOL     OW 2657   2.898   4.557   0.313 -0.5028  0.3028 -0.5483
  756SOL    HW1 2658   2.979   4.606   0.330 -0.6354 -0.0928  1.4811
  756SOL    HW2 2659   2.928   4.477   0.269  0.1902  0.3066 -0.1096
  757SOL     OW 2660   3.690   1.419   1.760 -0.1641  0.1708 -0.7952
  757SOL    HW1 2661   3.725   1.370   1.686  1.2482 -1.1191  0.6552
  757SOL    HW2 2662   3.605   1.380   1.777 -0.0594 -0.1949 -1.1093
  758SOL     OW 2663   5.406   5.599   6.468 -0.1895  0.2422 -0.0484
  758SOL    HW1 2664   5.330   5.616   6.412  0.3994  1.6052 -0.4811
  758SOL    HW2 2665   5.482   5.624   6.415  0.5551 -0.7449  0.5034
  759SOL     OW 2666   2.453   3.889   0.274 -0.2255  0.4791 -0.4996
  759SOL    HW1 2667   2.497   3.828   0.334  0.4353  0.2797 -1.1711
  759SOL    HW2 2668   2.483   3.976   0.302  0.7278  0.3361 -1.0354
  760SOL     OW 2669   1.980   2.394   3.638  0.5759  0.7129 -0.2317
  760SOL    HW1 2670   1.925   2.328   3.680  0.7683  0.4207 -0.4348
  760SOL    HW2 2671   1.918   2.459   3.604  0.3228  0.1556 -0.8604
  761SOL     OW 2672   4.008   5.339   1.522 -0.3501  0.2083  0.0414
  761SOL    HW1 2673   3.967   5.254   1.531 -1.1205  0.6303  0.6366
  761SOL    HW2 2674   4.072   5.328   1.451  0.3418 -1.1383  0.8553
  762SOL     OW 2675   1.542   5.252   6.489  0.4476  0.2478  0.1022
  762SOL    HW1 2676   1.477   5.246   6.419  0.9670 -0.6164 -0.3239
  762SOL    HW2 2677   1.626   5.241   6.445  0.7051 -2.5500  1.0828
  763SOL     OW 2678   3.285   6.207   1.190 -0.2933 -0.6410  0.0286
  763SOL    HW1 2679   3.350   6.236   1.126 -0.2364 -2.2521 -0.6886
  763SOL    HW2 2680   3.336   6.179   1.266 -0.4195  4.0555  2.2064
  764SOL     OW 2681   5.335   6.442   0.931  0.3856  0.2263  0.1572
  764SOL    HW1 2682   5.413   6.431   0.986  0.7665 -0.0714 -0.4365
  764SOL    HW2 2683   5.368   6.436   0.842  0.0099  2.2444 -0.1484
  765SOL     OW 2684   4.843   1.795   1.430 -0.1041  0.5000  0.2132
  765SOL    HW1 2685   4.826   1.825   1.519 -1.9431  0.1128  0.0285
  765SOL    HW2 2686   4.937   1.808   1.418  0.4024 -0.4506  2.5729
  766SOL     OW 2687   3.148   0.002   3.303 -0.4531  0.1543 -0.4697
  766SOL    HW1 2688   3.202   0.065   3.350 -1.5658 -0.6709  2.1153
  766SOL    HW2 2689   3.209  -0.043   3.244  0.7945  2.0070 -0.6633
  767SOL     OW 2690   2.264   6.755   1.443  0.1073  0.1854  0.3782
  767SOL    HW1 2691   2.324   6.684   1.465  3.6607  2.2125 -1.8045
  767SOL    HW2 2692   2.279   6.821   1.511  0.8651  0.9440 -0.5034
  768SOL     OW 2693   4.422   0.866   0.887  0.2816  0.4443 -0.1334
  768SOL    HW1 2694   4.394   0.937   0.830 -0.2446  0.3546  0.0149
  768SOL    HW2 2695   4.343   0.837   0.932  0.2139 -1.1229 -1.1578
  769SOL     OW 2696   4.079   2.333   1.607 -1.1767 -0.2796  0.3354
  769SOL    HW1 2697   4.041   2.331   1.695  0.5663 -2.0393  1.1252
  769SOL    HW2 2698   4.128   2.251   1.601  2.4797  1.7673 -0.5474
  770SOL     OW 2699   1.317   0.785   4.217 -0.4360 -0.0133 -0.0107
  770SOL    HW1 2700   1.367   0.867   4.221 -3.2437  1.8892 -1.1454
  770SOL    HW2 2701   1.279   0.776   4.304 -1.2763  0.7086 -0.2909
  771SOL     OW 2702   0.621   2.165   4.000 -0.2910  0.2473 -0.3057
  771SOL    HW1 2703   0.635   2.259   3.991  0.2581  0.1922 -0.0486
  771SOL    HW2 2704   0.708   2.128   4.012 -0.4744 -0.3287 -0.6752
  772SOL     OW 2705   2.544   4.994   3.143 -0.1640 -0.2531 -0.3331
  772SOL    HW1 2706   2.522   4.965   3.231  0.4207  0.2101 -0.0272
  772SOL    HW2 2707   2.629   4.952   3.125  0.4600  0.8629 -0.0730
  773SOL     OW 2708   1.827   1.022   1.937  0.1913  0.3801  0.6450
  773SOL    HW1 2709   1.852   1.103   1.893  2.6737 -0.7386 -0.1842
  773SOL    HW2 2710   1.881   1.020   2.016  0.8395 -0.8694  0.1914
  774SOL     OW 2711   2.625   0.537   1.752 -0.9627 -0.4508 -0.4785
  774SOL    HW1 2712   2.538   0.569   1.730 -0.8853 -0.6268 -1.0479
  774SOL    HW2 2713   2.672   0.614   1.785 -1.9094 -0.7117  1.6486
  775SOL     OW 2714   4.600   3.689   0.888  0.4935 -0.0233 -0.2887
  775SOL    HW1 2715   4.629   3.761   0.832 -1.0646  1.8891  1.2207
  775SOL    HW2 2716   4.645   3.704   0.972 -2.3222  1.2343  1.1074
  776SOL     OW 2717   2.578   5.963   2.465 -0.0441 -0.2390  0.3188
  776SOL    HW1 2718   2.650   5.915   2.423 -1.1527 -0.8556 -0.9666
  776SOL    HW2 2719   2.514   5.977   2.394  0.0857  2.9454  0.6763
  777SOL     OW 2720   1.882   2.658   5.094  0.3838  0.5820 -0.1203
  777SOL    HW1 2721   1.798   2.691   5.063  0.5600  0.1431 -1.1346
  777SOL    HW2 2722   1.875   2.563   5.084  0.8053  0.5056  0.2896
  778SOL     OW 2723   2.089   6.552   6.551 -0.2190  0.0495 -0.3069
  778SOL    HW1 2724   2.102   6.474   6.604  1.4143 -0.7162 -1.7381
  778SOL    HW2 2725   2.063   6.620   6.613 -1.7066 -1.6137  0.9658
  779SOL     OW 2726   2.994   2.276   6.160 -0.3058 -0.3379 -0.3989
  779SOL    HW1 2727   2.958   2.222   6.230  2.9500 -0.7969  1.1312
  779SOL    HW2 2728   3.060   2.220   6.119  2.6219  2.0277  0.7016
  780SOL     OW 2729   4.377   6.447   2.046 -0.5048  0.1859 -0.6559
  780SOL    HW1 2730   4.453   6.484   2.002 -0.1904  1.2813  0.7550
  780SOL    HW2 2731   4.304   6.465   1.987  0.0839  0.4884 -1.3043
  781SOL     OW 2732   2.354   4.775   3.877  0.0332  0.2881  0.4154
  781SOL    HW1 2733   2.293   4.794   3.948  0.1038 -0.5537  0.7224
  781SOL    HW2 2734   2.366   4.858   3.832 -0.4688  0.7066  1.0362
  782SOL     OW 2735   3.315   1.299   2.692  0.4224  0.1467  0.0171
  782SOL    HW1 2736   3.258   1.311   2.768  0.5631  0.4311  0.0759
  782SOL    HW2 2737   3.368   1.378   2.688  0.6183  0.0060 -0.2065
  783SOL     OW 2738   5.418   1.954   6.214  0.1991 -0.2518  0.4081
  783SOL    HW1 2739   5.491   1.893   6.228 -0.1127 -0.8568 -0.4970
  783SOL    HW2 2740   5.351   1.927   6.277  0.0680 -0.8450  0.0200
  784SOL     OW 2741   2.589   4.491   3.540 -0.0271 -0.1446 -1.1267
  784SOL    HW1 2742   2.677   4.507   3.573 -0.9524  0.3391  1.3557
  784SOL    HW2 2743   2.596   4.410   3.489  1.4201 -1.5134  1.0674
  785SOL     OW 2744   6.277   1.149   0.817  0.0547  0.6110  0.2269
  785SOL    HW1 2745   6.206   1.147   0.753 -0.0208 -0.2966  0.3173
  785SOL    HW2 2746   6.310   1.058   0.819 -0.8359  0.2746  2.4555
  786SOL     OW 2747   2.001   6.187   1.912 -0.0335  0.2450  0.6052
  786SOL    HW1 2748   1.926   6.247   1.905  0.8035  1.3952  1.1434
  786SOL    HW2 2749   2.056   6.225   1.980  1.2719 -0.3188 -0.0923
  787SOL     OW 2750   5.495   2.984   6.580 -0.1826  0.3379 -0.5931
  787SOL    HW1 2751   5.541   2.908   6.546  0.1835 -0.0528  0.7158
  787SOL    HW2 2752   5.522   3.056   6.523  0.8646 -0.1737 -0.7615
  788SOL     OW 2753   1.067   6.452   3.834  0.0635 -0.7133  0.0724
  788SOL    HW1 2754   1.118   6.520   3.878 -0.4239 -0.2964  0.0071
  788SOL    HW2 2755   1.121   6.373   3.841 -0.1590 -0.7502  1.7407
  789SOL     OW 2756   2.181   3.152   0.203  0.4210  0.1161 -0.1135
  789SOL    HW1 2757   2.085   3.155   0.194  0.5679  2.0412 -1.6598
  789SOL    HW2 2758   2.199   3.202   0.283  0.1251 -0.6765  0.4595
  790SOL     OW 2759   2.018   3.258   6.632  0.4782 -0.1338  0.4309
  790SOL    HW1 2760   2.069   3.307   6.696  0.3952  0.6215 -0.0585
  790SOL    HW2 2761   1.932   3.248   6.673  0.9231 -1.1857  1.1473
  791SOL     OW 2762   3.135   0.901   3.391  0.2993 -0.4314 -0.1235
  791SOL    HW1 2763   3.198   0.855   3.336 -0.5309 -1.6060 -0.1298
  791SOL    HW2 2764   3.075   0.942   3.329 -1.2249 -2.5789 -0.1644
  792SOL     OW 2765   5.476   0.516   4.764 -0.0993 -0.1071  0.0294
  792SOL    HW1 2766   5.410   0.510   4.834 -1.7835  3.3394 -1.0230
  792SOL    HW2 2767   5.424   0.513   4.683  1.2748  0.6644 -0.9075
  793SOL     OW 2768   2.104   2.251   3.163  0.3843 -0.1381 -0.3236
  793SOL    HW1 2769   2.051   2.330   3.176  1.3886  0.5175 -0.1610
  793SOL    HW2 2770   2.070   2.213   3.081 -2.5640 -1.5601  1.3739
  794SOL     OW 2771   6.190   2.328   6.185  0.1572  0.2887 -0.0288
  794SOL    HW1 2772   6.197   2.284   6.269 -1.0582  2.0291  1.0307
  794SOL    HW2 2773   6.271   2.378   6.177  0.5703 -0.3925 -0.2345
  795SOL     OW 2774   2.675   5.876   0.732 -0.3711 -0.0782  0.1938
  795SOL    HW1 2775   2.617   5.832   0.794  0.1573 -0.3861  0.4810
  795SOL    HW2 2776   2.740   5.810   0.709 -1.8729 -0.7579 -2.5322
  796SOL     OW 2777   5.621   6.773   2.352 -0.1052  0.1130  0.3612
  796SOL    HW1 2778   5.716   6.772   2.363 -0.1325 -0.7560  0.5421
  796SOL    HW2 2779   5.586   6.751   2.438 -0.5160  1.7282  0.6370
  797SOL     OW 2780   6.502   1.952   4.531 -0.0718 -0.0882  0.2787
  797SOL    HW1 2781   6.561   1.888   4.490 -1.1766 -0.8054 -0.2596
  797SOL    HW2 2782   6.415   1.913   4.521 -0.6806  1.1237  0.7019
  798SOL     OW 2783   0.085   3.333   4.533  0.5496  0.1258 -0.1787
  798SOL    HW1 2784   0.080   3.426   4.508  1.9776 -0.0973 -1.4349
  798SOL    HW2 2785   0.037   3.287   4.464 -1.5727 -0.0032  1.2892
  799SOL     OW 2786   4.241   0.067   0.635  0.2069  0.0500 -0.6045
  799SOL    HW1 2787   4.177   0.113   0.690 -0.6241  2.6316 -3.4457
  799SOL    HW2 2788   4.323   0.071   0.685 -1.1033 -0.4199  1.6947
  800SOL     OW 2789   1.889   4.888   5.302  0.5258 -0.0362 -0.6025
  800SOL    HW1 2790   1.850   4.898   5.215  2.8727  0.5006 -1.6625
  800SOL    HW2 2791   1.932   4.803   5.299 -0.0574 -0.3800  0.3509
  801SOL     OW 2792   4.511   1.161   1.148 -0.2994  0.0063  0.0036
  801SOL    HW1 2793   4.441   1.207   1.101 -0.1625 -0.6992 -0.9449
  801SOL    HW2 2794   4.511   1.073   1.109  0.4983 -0.2862  0.6446
  802SOL     OW 2795   2.915   3.874   6.602 -0.5912 -0.1205 -0.3455
  802SOL    HW1 2796   2.891   3.933   6.530 -0.0021  0.0326 -0.4249
  802SOL    HW2 2797   2.892   3.922   6.681 -0.1298  0.2180 -0.4097
  803SOL     OW 2798   6.750   0.760   4.125 -0.3053  0.3056 -0.1213
  803SOL    HW1 2799   6.815   0.792   4.188 -1.5263  0.1077  1.2869
  803SOL    HW2 2800   6.675   0.735   4.178 -1.0928 -0.6371 -1.6040
  804SOL     OW 2801   2.090   5.276   0.339 -0.2660 -0.5387 -0.2483
  804SOL    HW1 2802   2.127   5.226   0.266 -3.3500 -0.5407 -1.9739
  804SOL    HW2 2803   2.040   5.212   0.389 -1.4617  0.1585 -0.5107
  805SOL     OW 2804   4.404   0.150   3.930 -0.1104  0.1057 -0.0653
  805SOL    HW1 2805   4.460   0.157   3.853 -0.6619  4.9112 -0.3069
  805SOL    HW2 2806   4.438   0.216   3.991 -3.6352  1.2046  0.9654
  806SOL     OW 2807   1.322   5.182   3.075  0.2283 -0.3125 -0.6439
  806SOL    HW1 2808   1.333   5.162   2.982  1.6640 -0.8258 -0.3852
  806SOL    HW2 2809   1.377   5.119   3.121 -1.2205 -0.7299  0.6453
  807SOL     OW 2810   3.128   4.333   5.640  0.3789 -0.1693  0.3472
  807SOL    HW1 2811   3.102   4.249   5.678 -1.7891  1.2995  2.4001
  807SOL    HW2 2812   3.048   4.367   5.599  1.3140  0.7246 -0.8099
  808SOL     OW 2813   3.253   4.790   3.455 -0.5379  0.3935  0.1199
  808SOL    HW1 2814   3.230   4.798   3.363  0.6591  0.5347 -0.1764
  808SOL    HW2 2815   3.182   4.738   3.493 -0.5571 -0.4691 -1.0650
  809SOL     OW 2816   1.408   3.089   4.690 -0.2342 -0.4096 -0.2609
  809SOL    HW1 2817   1.479   3.144   4.657 -1.9434  0.8582 -2.0022
  809SOL    HW2 2818   1.437   2.999   4.671  1.4617 -0.0291  0.3110
  810SOL     OW 2819   2.994   1.397   2.657 -0.5411 -0.2313 -0.1937
  810SOL    HW1 2820   3.071   1.420   2.605 -1.6807  1.4569 -1.2467
  810SOL    HW2 2821   3.030   1.369   2.741  1.2451 -0.4535 -0.9782
  811SOL     OW 2822   1.552   3.117   0.094 -0.2723 -0.2752  0.7670
  811SOL    HW1 2823   1.531   3.162   0.176 -2.5583  1.0329 -0.4410
  811SOL    HW2 2824   1.527   3.026   0.110 -0.4589 -0.0951  1.5752
  812SOL     OW 2825   1.761   1.847   5.121 -0.2695  0.3303 -0.2869
  812SOL    HW1 2826   1.819   1.859   5.196 -1.6304  0.1312  0.8414
  812SOL    HW2 2827   1.691   1.910   5.135  0.4284  1.7016 -2.4675
  813SOL     OW 2828   1.857   2.305   0.214 -0.6924 -0.2733  0.9046
  813SOL    HW1 2829   1.837   2.216   0.243 -0.1703 -0.1962  1.5220
  813SOL    HW2 2830   1.949   2.318   0.239 -0.5137  0.1338  0.0510
  814SOL     OW 2831   3.747   0.078   2.793 -0.2867  0.2969 -0.1433
  814SOL    HW1 2832   3.795   0.089   2.875  0.8920  0.4779 -0.8299
  814SOL    HW2 2833   3.788   0.002   2.752  1.5639  2.2390 -2.1600
  815SOL     OW 2834   2.635   6.662   0.805 -0.0485 -0.3531  0.0146
  815SOL    HW1 2835   2.641   6.672   0.900  4.0802  1.1093 -0.1912
  815SOL    HW2 2836   2.647   6.750   0.771  0.4779 -1.1076 -1.8859
  816SOL     OW 2837   0.401   6.656   5.381  0.6489 -0.1096  0.3768
  816SOL    HW1 2838   0.368   6.697   5.461 -1.1704  0.5565 -0.6547
  816SOL    HW2 2839   0.343   6.689   5.312  3.7882  1.5800 -1.7129
  817SOL     OW 2840   2.804   2.182   3.333 -0.3927  0.4610 -0.1738
  817SOL    HW1 2841   2.779   2.124   3.404 -0.5614  2.5216  1.5436
  817SOL    HW2 2842   2.870   2.240   3.371 -1.0591  2.1489 -1.4622
  818SOL     OW 2843   5.760   6.203   2.757  0.0445 -0.1926  0.1729
  818SOL    HW1 2844   5.769   6.118   2.800  0.1776 -1.5887 -2.4294
  818SOL    HW2 2845   5.682   6.242   2.797 -1.2290 -2.4381  0.0631
  819SOL     OW 2846   2.573   3.509   5.095  0.8120  0.0283 -0.2367
  819SOL    HW1 2847   2.587   3.513   5.189  1.7432 -0.4340 -0.3515
  819SOL    HW2 2848   2.646   3.458   5.061 -0.6226 -1.6624 -0.9708
  820SOL     OW 2849   1.457   4.191   0.180  0.4889  0.2023  0.1637
  820SOL    HW1 2850   1.443   4.097   0.186  1.4305 -0.0360 -1.1097
  820SOL    HW2 2851   1.545   4.201   0.145  0.5368  1.5713  0.6056
  821SOL     OW 2852   1.253   5.994   5.969  0.1651  0.1423 -0.3063
  821SOL    HW1 2853   1.184   6.017   5.907 -0.6737  0.0738  0.5829
  821SOL    HW2 2854   1.208   5.980   6.052  0.7806 -3.3556 -0.4222
  822SOL     OW 2855   3.838   1.548   6.442  0.5871 -0.0047 -0.1882
  822SOL    HW1 2856   3.775   1.564   6.512  1.8662 -0.0292  1.0198
  822SOL    HW2 2857   3.798   1.586   6.364 -1.0291 -0.2792  0.4745
  823SOL     OW 2858   2.262   2.757   2.561  0.3995  0.1232  0.7936
  823SOL    HW1 2859   2.209   2.690   2.604  0.8549 -0.0450  1.0993
  823SOL    HW2 2860   2.228   2.760   2.471 -1.0798  1.0226  1.3336
  824SOL     OW 2861   0.580   0.452   0.740 -0.3518  0.3179  0.3261
  824SOL    HW1 2862   0.674   0.451   0.756 -0.4412  0.7129  0.9315
  824SOL    HW2 2863   0.561   0.368   0.699  0.3740  0.5251 -0.4694
  825SOL     OW 2864   1.025   3.795   2.524 -0.4577  0.2907  0.2398
  825SOL    HW1 2865   0.968   3.856   2.570 -1.6238 -1.0635  0.6626
  825SOL    HW2 2866   1.029   3.829   2.434 -2.6685 -0.0089 -0.0387
  826SOL     OW 2867   2.820   3.321   1.896  0.1141 -0.3842 -0.2914
  826SOL    HW1 2868   2.763   3.257   1.852  0.8545 -0.4641 -1.1589
  826SOL    HW2 2869   2.768   3.402   1.897 -0.1138 -0.5172 -0.8635
  827SOL     OW 2870   5.094   0.959   2.439 -0.0470 -0.2550  0.3444
  827SOL    HW1 2871   5.087   0.906   2.518 -1.5307  1.0332  1.1379
  827SOL    HW2 2872   5.030   0.922   2.379 -1.9818  1.2846  1.3510
  828SOL     OW 2873   1.987   1.466   6.681 -0.0245 -0.3904  0.1232
  828SOL    HW1 2874   2.064   1.469   6.624 -1.0602 -2.7205 -1.5622
  828SOL    HW2 2875   2.023   1.451   6.768  1.4930  0.1730 -0.3678
  829SOL     OW 2876   6.256   3.284   2.622  0.1125  0.4508 -0.0965
  829SOL    HW1 2877   6.219   3.370   2.643 -3.2389 -0.9428  0.3027
  829SOL    HW2 2878   6.332   3.276   2.680 -0.6016  2.3848  1.2184
  830SOL     OW 2879   2.900   3.661   5.957 -0.1238  0.0592 -0.6004
  830SOL    HW1 2880   2.936   3.677   5.870  1.3285 -2.6064 -0.5884
  830SOL    HW2 2881   2.839   3.587   5.944 -1.0397  0.6110  0.4153
  831SOL     OW 2882   0.495   2.014   6.753  0.2085 -0.0195 -0.2858
  831SOL    HW1 2883   0.573   2.067   6.739 -0.1289  0.7032  0.4647
  831SOL    HW2 2884   0.424   2.078   6.759 -0.1109 -0.5027  1.3850
  832SOL     OW 2885   6.373   6.171   2.323 -0.0197 -0.1385  0.2159
  832SOL    HW1 2886   6.403   6.219   2.246 -1.4506  1.2549  0.4772
  832SOL    HW2 2887   6.413   6.216   2.397 -0.8668  0.2816  0.4309
  833SOL     OW 2888   0.305   0.604   6.268 -0.0170  0.2563 -0.1693
  833SOL    HW1 2889   0.217   0.642   6.265 -0.4947 -0.8170 -0.2252
  833SOL    HW2 2890   0.363   0.679   6.280 -0.8979  1.0313 -0.6308
  834SOL     OW 2891   4.783   2.957   1.248 -0.0834 -0.1351  0.1444
  834SOL    HW1 2892   4.715   2.991   1.190  0.2719  2.2955  1.0542
  834SOL    HW2 2893   4.854   2.933   1.189 -0.8740 -0.6098 -0.6436
  835SOL     OW 2894   5.024   6.569   1.790 -0.4775 -0.3207  0.0005
  835SOL    HW1 2895   5.103   6.527   1.825 -0.1868 -0.1750 -0.4702
  835SOL    HW2 2896   4.997   6.513   1.718 -0.5013 -0.0865 -0.1717
  836SOL     OW 2897   0.106   1.417   1.193 -0.0716 -0.3013  0.1647
  836SOL    HW1 2898   0.032   1.438   1.249  0.5459  1.4384  0.3964
  836SOL    HW2 2899   0.175   1.388   1.253 -0.4079 -1.4985 -0.0101
  837SOL     OW 2900   6.464   3.659   0.579 -0.4731  0.3204 -0.3262
  837SOL    HW1 2901   6.506   3.731   0.534 -1.7096  0.7848 -0.7864
  837SOL    HW2 2902   6.429   3.604   0.509  0.6270 -0.8577  0.0141
  838SOL     OW 2903   1.396   4.818   3.520  0.2594 -0.0714 -0.2249
  838SOL    HW1 2904   1.432   4.870   3.449  1.9395  0.5599  1.0520
  838SOL    HW2 2905   1.453   4.741   3.525  0.3083  0.0122  0.6006
  839SOL     OW 2906   0.231   4.832   6.499  0.2876 -0.2521 -0.4747
  839SOL    HW1 2907   0.251   4.862   6.411 -1.0163 -1.6106 -1.2840
  839SOL    HW2 2908   0.186   4.748   6.486 -0.7272 -0.0664  1.4331
  840SOL     OW 2909   5.769   4.400   6.818 -0.6669 -0.1186  0.2024
  840SOL    HW1 2910   5.806   4.347   6.747 -0.4021  0.7716 -0.3428
  840SOL    HW2 2911   5.818   4.374   6.896  0.6235  0.5098 -0.3681
  841SOL     OW 2912   2.995   0.497   2.853  0.1106 -1.0945  0.0226
  841SOL    HW1 2913   3.019   0.585   2.882 -1.7912 -0.8947  1.2025
  841SOL    HW2 2914   3.036   0.439   2.916  0.2740 -0.9662  0.0340
  842SOL     OW 2915   5.226   5.930   1.033  0.3512  0.3738  0.0211
  842SOL    HW1 2916   5.321   5.917   1.027  0.3104  0.1155 -0.1069
  842SOL    HW2 2917   5.213   6.022   1.013  0.6087  0.4943  0.3955
  843SOL     OW 2918   2.281   3.028   6.292  0.0911  0.6484  0.1110
  843SOL    HW1 2919   2.224   3.017   6.216 -1.1429  1.3407  0.9008
  843SOL    HW2 2920   2.336   3.103   6.269  0.0908  0.5240 -0.3125
  844SOL     OW 2921   5.260   0.145   4.216 -0.1348  0.1041 -0.0388
  844SOL    HW1 2922   5.238   0.094   4.138  0.5538 -2.3646  1.2499
  844SOL    HW2 2923   5.348   0.115   4.240 -0.7614 -0.1134  2.2885
  845SOL     OW 2924   0.510   1.650   1.671 -0.7848 -0.3703  0.7550
  845SOL    HW1 2925   0.535   1.677   1.583  0.9265  0.9614  1.5770
  845SOL    HW2 2926   0.421   1.683   1.682 -0.0168  2.0473  0.4615
  846SOL     OW 2927   2.144   0.427   1.095 -0.3283  0.4710 -0.0933
  846SOL    HW1 2928   2.201   0.480   1.038  1.0029 -2.0378 -1.2881
  846SOL    HW2 2929   2.164   0.337   1.070 -1.0393 -0.7027  3.1677
  847SOL     OW 2930   5.073   4.910   6.476  0.2097 -0.2431 -0.5365
  847SOL    HW1 2931   5.106   4.839   6.421 -0.7417 -0.8666 -0.3304
  847SOL    HW2 2932   5.031   4.970   6.415  0.2457 -0.2961 -0.6144
  848SOL     OW 2933   5.403   6.286   3.328  0.3951  0.0237  0.1040
  848SOL    HW1 2934   5.434   6.372   3.298  1.7547 -0.9954 -1.5643
  848SOL    HW2 2935   5.330   6.266   3.269 -0.3178  0.2816  0.8859
  849SOL     OW 2936   1.132   4.916   1.293 -0.4462  0.0542  0.2299
  849SOL    HW1 2937   1.178   4.892   1.374  1.7651 -0.6272 -1.1442
  849SOL    HW2 2938   1.083   4.995   1.316 -0.2785 -0.4057  2.3631
  850SOL     OW 2939   6.534   0.878   4.810 -0.3123  0.2710  0.6762
  850SOL    HW1 2940   6.488   0.910   4.733 -0.0330 -0.3518  0.2383
  850SOL    HW2 2941   6.505   0.935   4.881 -1.7928 -0.1194  0.4263
  851SOL     OW 2942   4.616   1.653   5.151 -0.3631  0.1853  0.1168
  851SOL    HW1 2943   4.564   1.667   5.072  0.0620  0.8062 -0.0578
  851SOL    HW2 2944   4.681   1.723   5.150 -0.8369  0.6626  1.4349
  852SOL     OW 2945   0.737   1.423   0.409  0.7090  0.0043 -0.0837
  852SOL    HW1 2946   0.752   1.461   0.322  2.3009 -0.6847 -0.1489
  852SOL    HW2 2947   0.823   1.421   0.449  0.6351 -2.8859  0.1681
  853SOL     OW 2948   1.789   4.406   4.469  0.8745 -0.8832 -0.2688
  853SOL    HW1 2949   1.844   4.421   4.392  1.3441 -0.1646  0.1952
  853SOL    HW2 2950   1.713   4.462   4.455  0.2381 -1.8798 -0.9119
  854SOL     OW 2951   2.640   3.515   2.387 -0.1034 -0.0857 -0.2956
  854SOL    HW1 2952   2.672   3.541   2.473 -2.0785 -1.2793  0.8815
  854SOL    HW2 2953   2.701   3.447   2.358 -0.9656 -1.7164  1.5013
  855SOL     OW 2954   2.197   0.952   4.798  0.1308  0.6726 -0.7596
  855SOL    HW1 2955   2.171   1.004   4.722 -0.6408  1.6391  0.1330
  855SOL    HW2 2956   2.236   1.015   4.858  0.2285  0.0256 -0.1278
  856SOL     OW 2957   3.260   0.311   1.246  0.2205  0.6775  0.8952
  856SOL    HW1 2958   3.269   0.399   1.282 -1.2442  0.5963  1.5278
  856SOL    HW2 2959   3.168   0.305   1.219  0.2914 -0.6626  0.8597
  857SOL     OW 2960   1.761   2.131   3.146  0.0253  0.2818  0.0281
  857SOL    HW1 2961   1.814   2.138   3.067 -0.0587  1.2071  0.0492
  857SOL    HW2 2962   1.749   2.037   3.158  1.2117  0.0806 -0.2769
  858SOL     OW 2963   6.791   6.524   6.413  0.1186  0.1231  0.5520
  858SOL    HW1 2964   6.749   6.467   6.348 -0.1173  0.6454  0.2395
  858SOL    HW2 2965   6.850   6.466   6.461 -0.4337 -0.4756  0.5257
  859SOL     OW 2966   1.349   5.549   1.763  0.1966 -0.0210 -0.7096
  859SOL    HW1 2967   1.317   5.464   1.733 -1.7534 -0.3295  1.8225
  859SOL    HW2 2968   1.374   5.595   1.684  1.4187 -2.9547 -2.1806
  860SOL     OW 2969   3.913   0.019   1.182  0.2303  0.4089  0.7193
  860SOL    HW1 2970   3.913  -0.077   1.190 -2.3982  0.4315  2.2457
  860SOL    HW2 2971   3.846   0.038   1.117  1.5543  1.2415 -0.4558
  861SOL     OW 2972   1.286   0.305   0.991 -0.0325 -0.3182 -0.0395
  861SOL    HW1 2973   1.376   0.302   1.024  0.6325  0.9280 -1.6161
  861SOL    HW2 2974   1.247   0.223   1.021  1.3652 -0.5224  1.3678
  862SOL     OW 2975   1.862   2.155   6.138  0.3864 -0.2246  0.0601
  862SOL    HW1 2976   1.846   2.244   6.169 -2.9369 -0.7288  0.1159
  862SOL    HW2 2977   1.901   2.167   6.051 -1.0376  1.3267 -0.4167
  863SOL     OW 2978   6.828   4.165   2.137 -0.4151 -0.3065  0.4134
  863SOL    HW1 2979   6.904   4.107   2.131 -2.0912 -2.4591 -3.1961
  863SOL    HW2 2980   6.785   4.139   2.219  1.7464 -0.2430  1.6297
  864SOL     OW 2981   3.771   2.958   5.906 -0.4823  0.2958 -0.1974
  864SOL    HW1 2982   3.691   3.007   5.884 -0.6157  0.4896  0.6851
  864SOL    HW2 2983   3.747   2.866   5.895 -1.3576  0.2615  1.6824
  865SOL     OW 2984   0.795   2.655   4.434 -0.3682  0.2026 -0.1457
  865SOL    HW1 2985   0.783   2.697   4.349 -0.6746  0.5276  0.0579
  865SOL    HW2 2986   0.715   2.604   4.447  0.8056 -2.1114 -1.3126
  866SOL     OW 2987   0.259   3.577   4.488 -0.0205 -0.1511  0.2385
  866SOL    HW1 2988   0.168   3.588   4.460  0.1316  0.9394  0.1156
  866SOL    HW2 2989   0.307   3.560   4.407  0.0331  0.3213  0.1693
  867SOL     OW 2990   2.387   2.531   0.805  0.0644  0.3231  0.5167
  867SOL    HW1 2991   2.371   2.585   0.882 -0.4738 -1.1096  1.4668
  867SOL    HW2 2992   2.479   2.545   0.784 -0.1340  1.8053  0.5416
  868SOL     OW 2993   5.212   4.465   1.592  0.3677 -0.0671 -0.1785
  868SOL    HW1 2994   5.210   4.507   1.506 -0.5434 -0.3217 -0.2858
  868SOL    HW2 2995   5.290   4.502   1.634  1.3293 -0.5995 -1.4245
  869SOL     OW 2996   5.297   5.930   2.608 -0.0244 -0.2991  0.4306
  869SOL    HW1 2997   5.367   5.914   2.671 -0.6187 -1.7003  0.7690
  869SOL    HW2 2998   5.342   5.957   2.528  0.8465 -0.3447  0.8895
  870SOL     OW 2999   5.081   4.776   4.578  0.1087 -0.1981 -0.0132
  870SOL    HW1 3000   5.074   4.681   4.580  0.6358 -0.3739 -3.0593
  870SOL    HW2 3001   4.997   4.806   4.544  0.4346  0.3407 -0.3656
  871SOL     OW 3002   5.689   6.626   0.810 -0.3258 -0.2531 -0.1604
  871SOL    HW1 3003   5.602   6.607   0.775 -0.3160  0.3928 -0.5565
  871SOL    HW2 3004   5.749   6.582   0.749 -0.2620  1.6866 -1.6066
  872SOL     OW 3005   6.028   3.483   4.205  0.3751  0.7441 -0.3930
  872SOL    HW1 3006   5.966   3.556   4.197 -1.0986 -0.3273  0.5811
  872SOL    HW2 3007   6.081   3.505   4.281 -1.3783 -0.0203  1.1518
  873SOL     OW 3008   0.880   5.192   0.681 -0.1889 -0.2800  0.2093
  873SOL    HW1 3009   0.786   5.175   0.694 -0.1249 -0.3536  0.5845
  873SOL    HW2 3010   0.917   5.107   0.657 -0.3927 -0.0467 -0.9891
  874SOL     OW 3011   6.546   0.927   2.348 -0.2066 -0.3369  0.5333
  874SOL    HW1 3012   6.533   1.012   2.391  3.7122  0.1460  1.1077
  874SOL    HW2 3013   6.577   0.870   2.418  1.0006 -1.0997 -0.6042
  875SOL     OW 3014   0.383   0.552   3.669  0.4851  0.0070  0.2009
  875SOL    HW1 3015   0.291   0.578   3.672 -0.2206 -2.2491  0.0383
  875SOL    HW2 3016   0.387   0.472   3.721  2.3698  0.0639  0.2122
  876SOL     OW 3017   1.720   2.544   2.054 -0.2126 -0.3776  0.0486
  876SOL    HW1 3018   1.804   2.568   2.093 -0.1829  0.8710 -0.7215
  876SOL    HW2 3019   1.678   2.487   2.119  1.4485 -1.4863  0.1977
  877SOL     OW 3020   6.514   2.475   3.183  1.1379 -0.2663 -0.3899
  877SOL    HW1 3021   6.421   2.497   3.193  1.0554 -0.1225 -1.4161
  877SOL    HW2 3022   6.514   2.384   3.154  1.2488  0.1513 -1.7578
  878SOL     OW 3023   3.498   3.465   3.919 -0.1890 -0.0154 -0.0057
  878SOL    HW1 3024   3.426   3.525   3.936  0.5107  0.5991  0.9074
  878SOL    HW2 3025   3.457   3.379   3.911 -1.1128  0.4600 -0.4933
  879SOL     OW 3026   6.040   0.069   0.915 -0.4160  0.2920 -0.0387
  879SOL    HW1 3027   6.048   0.121   0.836  0.7911  2.9989  1.7330
  879SOL    HW2 3028   6.130   0.050   0.941 -0.7924 -0.5680  0.7195
  880SOL     OW 3029   3.156   3.879   6.725 -0.6720  0.1994  0.2162
  880SOL    HW1 3030   3.080   3.880   6.668  0.0330 -0.9626 -0.7913
  880SOL    HW2 3031   3.167   3.787   6.751  0.6900  0.2449 -0.1023
  881SOL     OW 3032   1.516   3.637   0.563 -0.2300 -0.3435 -0.9792
  881SOL    HW1 3033   1.422   3.621   0.552 -0.1315 -1.0043 -0.8553
  881SOL    HW2 3034   1.548   3.564   0.615 -0.1167  1.1643  1.2079
  882SOL     OW 3035   2.244   3.603   4.265  0.3831  0.0219  0.1677
  882SOL    HW1 3036   2.159   3.564   4.245  1.3589 -2.2684  0.2078
  882SOL    HW2 3037   2.273   3.559   4.345  1.4196  1.0907  0.4177
  883SOL     OW 3038   0.268   0.241   6.293  0.3822 -0.2306 -0.5613
  883SOL    HW1 3039   0.275   0.243   6.388  0.6086 -2.4678 -0.4590
  883SOL    HW2 3040   0.188   0.289   6.272  1.8712  2.9800  0.4455
  884SOL     OW 3041   2.719   1.081   4.070  0.4960 -0.0819 -0.4705
  884SOL    HW1 3042   2.628   1.097   4.094  0.8485  0.0274  0.8765
  884SOL    HW2 3043   2.718   0.997   4.025 -0.1605 -0.4791  0.2695
  885SOL     OW 3044   4.581   5.955   1.372 -0.7725 -0.3227  0.2581
  885SOL    HW1 3045   4.507   5.932   1.429 -1.6905  1.4551 -0.1473
  885SOL    HW2 3046   4.592   6.049   1.384  0.5455 -0.3163 -0.7507
  886SOL     OW 3047   4.896   0.698   6.194  0.1801  0.4220 -0.4831
  886SOL    HW1 3048   4.869   0.789   6.199  1.2251  0.7163  0.0216
  886SOL    HW2 3049   4.872   0.661   6.279 -0.3950  0.1713 -0.7470
  887SOL     OW 3050   4.272   3.906   1.788  0.0323 -0.3049  0.0292
  887SOL    HW1 3051   4.183   3.875   1.774  0.4989 -0.7427 -2.4497
  887SOL    HW2 3052   4.263   3.984   1.843 -1.8795 -0.1852 -0.4020
  888SOL     OW 3053   2.102   5.427   2.048 -0.4986 -0.0757 -0.4225
  888SOL    HW1 3054   2.097   5.374   2.128  0.3218 -2.9803 -2.1693
  888SOL    HW2 3055   2.010   5.439   2.022 -0.6983 -0.6412 -0.0057
  889SOL     OW 3056   1.766   5.700   0.362 -0.1958  0.1607  0.2648
  889SOL    HW1 3057   1.808   5.737   0.285 -0.5507  0.1015  0.0403
  889SOL    HW2 3058   1.743   5.611   0.336  0.3821 -0.1192  0.7010
  890SOL     OW 3059   4.476   5.953   0.992  0.6573  0.1845 -0.0774
  890SOL    HW1 3060   4.509   5.876   0.946  1.2529  0.4411 -0.0771
  890SOL    HW2 3061   4.554   6.001   1.020  0.2944  0.5941  0.2562
  891SOL     OW 3062   4.013   3.602   3.054  0.3619  0.2303 -0.1033
  891SOL    HW1 3063   4.098   3.626   3.091  1.0067  1.1495 -2.0440
  891SOL    HW2 3064   3.992   3.518   3.094  1.5375  0.6048  1.4069
  892SOL     OW 3065   4.193   6.327   0.795 -0.6215 -0.0207 -0.3504
  892SOL    HW1 3066   4.277   6.283   0.785 -0.0018  0.2628  2.5961
  892SOL    HW2 3067   4.213   6.420   0.780 -0.8332 -0.1522 -1.5003
  893SOL     OW 3068   0.300   3.086   6.823 -0.1412 -0.2197 -0.1523
  893SOL    HW1 3069   0.359   3.045   6.759  0.3319  0.8341 -0.4130
  893SOL    HW2 3070   0.220   3.102   6.774  0.1828  0.4846 -0.4654
  894SOL     OW 3071   5.784   4.662   3.279 -0.1876 -0.1346 -0.7468
  894SOL    HW1 3072   5.730   4.591   3.246 -1.6958  0.9861 -0.7679
  894SOL    HW2 3073   5.851   4.618   3.332 -1.2865 -1.5385 -0.4589
  895SOL     OW 3074   6.093   2.489   1.262 -0.0422  0.6068  0.5745
  895SOL    HW1 3075   6.040   2.419   1.226  1.1717 -1.0835  1.8625
  895SOL    HW2 3076   6.103   2.552   1.191 -1.1750 -0.5222 -0.6245
  896SOL     OW 3077   5.567   3.193   6.448  0.6467 -0.0702  0.1651
  896SOL    HW1 3078   5.563   3.286   6.467 -3.2484 -0.1227  0.4564
  896SOL    HW2 3079   5.537   3.186   6.357  1.8514 -1.0260 -0.1915
  897SOL     OW 3080   0.809   5.589   6.763  0.6780  0.0612  0.0409
  897SOL    HW1 3081   0.809   5.656   6.831  0.7217 -0.8948  1.0073
  897SOL    HW2 3082   0.898   5.591   6.727  0.7807  0.2760  0.3042
  898SOL     OW 3083   4.555   3.472   0.202 -0.2179 -0.8899  0.1801
  898SOL    HW1 3084   4.622   3.411   0.232  0.0479 -0.9811 -0.5737
  898SOL    HW2 3085   4.533   3.524   0.279  1.9263  0.3002  0.0657
  899SOL     OW 3086   1.754   2.452   3.337  0.5749  0.6106  0.1458
  899SOL    HW1 3087   1.825   2.439   3.275  0.7870  1.4343  0.2080
  899SOL    HW2 3088   1.778   2.531   3.385  0.3393  0.0810  1.1738
  900SOL     OW 3089   4.078   6.672   1.676  0.1185  0.1466  0.4420
  900SOL    HW1 3090   4.095   6.633   1.590 -1.3412 -1.4020  0.7937
  900SOL    HW2 3091   3.998   6.724   1.663  0.3799  0.6245  0.6856
  901SOL     OW 3092   5.522   0.474   2.338 -0.5077 -0.2527 -0.0617
  901SOL    HW1 3093   5.437   0.504   2.305 -1.2723 -1.5532  0.6388
  901SOL    HW2 3094   5.511   0.380   2.351  1.8488 -1.0002 -2.4132
  902SOL     OW 3095   4.009   1.911   0.466 -0.0180 -0.1285 -0.2190
  902SOL    HW1 3096   3.923   1.932   0.503 -2.8731 -0.2917 -5.7858
  902SOL    HW2 3097   4.013   1.816   0.468  0.4860 -0.0992  0.7704
  903SOL     OW 3098   1.603   6.707   6.051 -0.2830  0.4231  0.3896
  903SOL    HW1 3099   1.602   6.614   6.026  0.1774  0.4251  0.3513
  903SOL    HW2 3100   1.578   6.754   5.972  1.0938  0.4255 -0.0790
  904SOL     OW 3101   6.264   6.467   4.760  0.1218  0.3591 -0.2542
  904SOL    HW1 3102   6.350   6.439   4.791  1.8054  1.5478 -3.3755
  904SOL    HW2 3103   6.238   6.537   4.820  1.4470  0.1745  0.5708
  905SOL     OW 3104   3.027   1.179   6.500 -0.4881 -0.3930  0.3120
  905SOL    HW1 3105   3.095   1.134   6.450 -1.1069 -1.4029  0.3378
  905SOL    HW2 3106   3.061   1.267   6.515  0.9907 -1.0037  0.6825
  906SOL     OW 3107   0.856   2.909   4.486 -0.8782 -0.2426  0.3061
  906SOL    HW1 3108   0.819   2.822   4.495 -2.3598  0.3229 -0.0095
  906SOL    HW2 3109   0.843   2.950   4.572  0.8881 -0.6939  0.8317
  907SOL     OW 3110   5.417   1.127   1.331  0.3770  0.1984 -0.4168
  907SOL    HW1 3111   5.361   1.098   1.259  1.4150  1.9354 -2.0222
  907SOL    HW2 3112   5.367   1.108   1.410 -1.5883 -0.1371 -1.6855
  908SOL     OW 3113   4.764   2.995   3.433 -0.0934  0.3943 -0.2284
  908SOL    HW1 3114   4.693   2.960   3.379  0.9068  0.0490 -1.3847
  908SOL    HW2 3115   4.768   2.937   3.509 -0.5542 -0.0547 -0.5386
  909SOL     OW 3116   3.751   4.180   4.671  0.2624 -0.2656 -0.0599
  909SOL    HW1 3117   3.842   4.154   4.683  0.1231 -0.3757  0.7775
  909SOL    HW2 3118   3.756   4.259   4.616  0.8699 -0.1401  0.1691
  910SOL     OW 3119   1.049   6.610   0.040 -0.3478  0.0081 -0.3195
  910SOL    HW1 3120   0.985   6.678   0.020  0.9721  1.4060 -0.0106
  910SOL    HW2 3121   1.004   6.528   0.022 -3.1253  0.7844  2.3300
  911SOL     OW 3122   3.853   6.751   6.186 -0.1273  0.2621 -0.7004
  911SOL    HW1 3123   3.868   6.732   6.278  0.0480 -0.1207 -0.8061
  911SOL    HW2 3124   3.883   6.841   6.174  1.5647 -0.2833 -0.7815
  912SOL     OW 3125   1.139   2.767   5.598  0.2030  0.3417  0.3398
  912SOL    HW1 3126   1.136   2.819   5.679 -0.3328  0.3964  0.2873
  912SOL    HW2 3127   1.179   2.684   5.625  0.2724  0.4578  0.6063
  913SOL     OW 3128   2.157   1.258   3.267  0.3159 -0.0503  0.1155
  913SOL    HW1 3129   2.131   1.312   3.192  1.4129  4.1515  2.4404
  913SOL    HW2 3130   2.212   1.190   3.229 -0.3364  1.0062 -3.0362
  914SOL     OW 3131   4.868   0.901   5.464 -0.0245  0.3328  0.1168
  914SOL    HW1 3132   4.804   0.964   5.432  0.9058  1.1676 -0.1158
  914SOL    HW2 3133   4.917   0.874   5.387  0.5522  0.4435  0.4370
  915SOL     OW 3134   5.759   6.694   4.323 -0.1533  0.2483 -0.0683
  915SOL    HW1 3135   5.805   6.619   4.285 -1.7993 -0.4654 -0.7568
  915SOL    HW2 3136   5.758   6.759   4.253 -0.9597 -0.0886 -0.3802
  916SOL     OW 3137   5.457   4.271   5.248  0.2594  0.0110  0.4664
  916SOL    HW1 3138   5.445   4.181   5.220 -0.0484  0.6918 -1.7711
  916SOL    HW2 3139   5.372   4.313   5.232 -0.2957  0.2685  3.4988
  917SOL     OW 3140   0.204   0.256   1.041 -0.3098 -0.2862 -0.1521
  917SOL    HW1 3141   0.234   0.266   0.950  2.4896 -1.1389  0.5889
  917SOL    HW2 3142   0.239   0.333   1.086 -1.8998  0.2680  0.2125
  918SOL     OW 3143   3.640   3.325   3.704 -0.3023 -0.6935 -0.1526
  918SOL    HW1 3144   3.647   3.392   3.636  2.3659  0.0615  0.7214
  918SOL    HW2 3145   3.587   3.365   3.772  1.2341  0.6160  0.3456
  919SOL     OW 3146   2.363   0.906   1.658  0.0060  0.3075  0.1617
  919SOL    HW1 3147   2.373   0.836   1.722  0.4512  0.1707 -0.0530
  919SOL    HW2 3148   2.354   0.861   1.574 -2.0999  0.4318  0.2770
  920SOL     OW 3149   0.960   1.911   4.318 -0.3984 -0.2363  0.4563
  920SOL    HW1 3150   0.893   1.901   4.250  0.4418  0.0950 -0.4597
  920SOL    HW2 3151   0.924   1.977   4.377 -0.4697  0.7238 -0.6018
  921SOL     OW 3152   3.378   4.771   4.372  0.7294 -0.1986 -0.1493
  921SOL    HW1 3153   3.464   4.730   4.381  0.0629 -1.2395  2.1812
  921SOL    HW2 3154   3.396   4.862   4.349  2.3822 -0.6905 -0.9392
  922SOL     OW 3155   2.267   0.591   6.652  0.1180  0.6474  0.6996
  922SOL    HW1 3156   2.307   0.550   6.576  0.0369  1.0461  0.4425
  922SOL    HW2 3157   2.244   0.517   6.709 -0.9281  0.2427 -0.1972
  923SOL     OW 3158   4.317   6.354   3.218  0.5066  0.6879  0.8659
  923SOL    HW1 3159   4.384   6.420   3.231  2.9241 -1.6004  0.8499
  923SOL    HW2 3160   4.334   6.288   3.285 -2.0801  0.2352  1.1889
  924SOL     OW 3161   1.792   1.342   4.370 -0.5814 -0.2136 -0.1120
  924SOL    HW1 3162   1.782   1.418   4.313 -1.8899  0.4067  0.8990
  924SOL    HW2 3163   1.803   1.379   4.457  2.7885 -1.0928 -0.0139
  925SOL     OW 3164   2.191   2.767   5.876 -0.4587 -0.7373 -0.3013
  925SOL    HW1 3165   2.167   2.851   5.915 -0.1508 -0.8517  0.1338
  925SOL    HW2 3166   2.281   2.780   5.846 -0.5928 -0.7452 -0.7106
  926SOL     OW 3167   3.099   2.068   1.050 -0.4036 -0.3334  0.4738
  926SOL    HW1 3168   3.144   1.994   1.009 -0.7756  1.2106 -3.0444
  926SOL    HW2 3169   3.145   2.146   1.018 -2.7214  1.1229  0.4294
  927SOL     OW 3170   4.541   4.615   2.502  0.0585  0.2417  0.6360
  927SOL    HW1 3171   4.627   4.656   2.506 -0.6512  2.0021 -0.8172
  927SOL    HW2 3172   4.539   4.571   2.418 -0.7033  0.8553  0.3183
  928SOL     OW 3173   1.403   3.529   0.087 -0.3946  0.7554  0.0923
  928SOL    HW1 3174   1.447   3.461   0.138  0.4050  1.3782  0.2578
  928SOL    HW2 3175   1.428   3.511  -0.003 -2.2064 -0.6421 -0.1903
  929SOL     OW 3176   1.797   0.945   2.319 -0.4709  0.4183  0.2318
  929SOL    HW1 3177   1.744   1.024   2.316 -0.6291  0.3461  0.9771
  929SOL    HW2 3178   1.785   0.911   2.408 -1.3713 -1.0981 -0.4298
  930SOL     OW 3179   6.559   3.726   1.628  0.0365  0.3467  0.7078
  930SOL    HW1 3180   6.514   3.786   1.688  1.0982  1.5125  0.3808
  930SOL    HW2 3181   6.650   3.754   1.631  0.5916 -1.3690  0.6354
  931SOL     OW 3182   1.443   3.206   3.488 -0.1850 -0.3950 -0.3344
  931SOL    HW1 3183   1.425   3.132   3.546 -1.6563 -0.2852 -0.6074
  931SOL    HW2 3184   1.426   3.173   3.400  0.5244 -0.1256 -0.5763
  932SOL     OW 3185   1.511   5.944   6.171  1.2268  0.3640  0.5761
  932SOL    HW1 3186   1.436   5.998   6.197  2.0187  2.1783 -0.7176
  932SOL    HW2 3187   1.474   5.856   6.159 -0.4161  0.9234  1.2492
  933SOL     OW 3188   0.366   6.212   0.273  0.0274  0.0115 -0.3400
  933SOL    HW1 3189   0.400   6.123   0.277  3.3694  1.0323 -2.1391
  933SOL    HW2 3190   0.406   6.257   0.348 -2.4999 -0.1067  1.2217
  934SOL     OW 3191   5.679   2.452   2.868  0.2362 -0.1763  0.2933
  934SOL    HW1 3192   5.616   2.397   2.821  0.1445 -0.5757  0.8780
  934SOL    HW2 3193   5.657   2.541   2.842 -1.3606 -0.2006  1.4190
  935SOL     OW 3194   3.815   6.663   3.054  0.0513 -0.3003  0.3966
  935SOL    HW1 3195   3.797   6.627   2.967  1.1448 -0.8140  0.3644
  935SOL    HW2 3196   3.853   6.749   3.037  0.8372 -0.6489  0.3232
  936SOL     OW 3197   5.355   4.033   5.116 -0.3467 -0.0481  0.3335
  936SOL    HW1 3198   5.424   4.007   5.055 -1.3227 -0.8898 -0.4467
  936SOL    HW2 3199   5.331   3.952   5.161 -2.1322 -0.1966 -0.7832
  937SOL     OW 3200   6.181   0.221   3.235 -0.1533  0.4147  0.0815
  937SOL    HW1 3201   6.265   0.262   3.215 -0.6924  0.3044 -2.7641
  937SOL    HW2 3202   6.198   0.127   3.228  0.1316  0.2036  2.6022
  938SOL     OW 3203   0.246   3.994   5.353 -0.2577  0.0562  0.0280
  938SOL    HW1 3204   0.321   4.043   5.384 -1.1010  0.0040  2.3913
  938SOL    HW2 3205   0.281   3.937   5.284  1.9545 -0.2504  1.3109
  939SOL     OW 3206   1.228   4.280   3.754  0.0142 -0.3039 -0.2702
  939SOL    HW1 3207   1.222   4.190   3.787  0.7179 -0.8392 -1.5497
  939SOL    HW2 3208   1.321   4.291   3.732 -0.6888 -0.7143 -3.9739
  940SOL     OW 3209   3.058   3.572   2.544  0.4443 -0.1241  0.0145
  940SOL    HW1 3210   3.092   3.485   2.519  0.7295 -0.0931  0.2953
  940SOL    HW2 3211   3.072   3.626   2.466 -1.4733 -0.7997 -0.8654
  941SOL     OW 3212   4.675   3.255   2.762  0.0756  0.6778 -0.1489
  941SOL    HW1 3213   4.636   3.342   2.776 -1.8871 -0.3191  1.1796
  941SOL    HW2 3214   4.762   3.262   2.800 -0.2745  1.9130  0.5082
  942SOL     OW 3215   1.587   5.180   5.131  0.4720  0.3132 -0.1908
  942SOL    HW1 3216   1.635   5.262   5.124  2.6420 -0.8812 -0.1691
  942SOL    HW2 3217   1.588   5.159   5.225 -0.5522  0.4989 -0.1226
  943SOL     OW 3218   3.003   6.646   2.208  0.0529  0.5944  0.0870
  943SOL    HW1 3219   2.974   6.676   2.294  1.4201  1.1068  0.3974
  943SOL    HW2 3220   2.994   6.551   2.210  0.1828  0.5947  0.8474
  944SOL     OW 3221   2.981   6.428   3.472 -0.0202 -0.1587  0.8313
  944SOL    HW1 3222   2.943   6.437   3.385  1.1205  1.8380  0.4742
  944SOL    HW2 3223   3.067   6.389   3.457 -0.3555 -1.0566  1.2147
  945SOL     OW 3224   0.536   3.025   5.107 -0.0162  0.3332  0.1368
  945SOL    HW1 3225   0.550   3.119   5.117 -1.6861  0.5974  0.3567
  945SOL    HW2 3226   0.455   3.018   5.056 -0.3664 -0.9700  0.8215
  946SOL     OW 3227   1.828   4.912   3.391 -0.2382  0.5264  0.2699
  946SOL    HW1 3228   1.922   4.894   3.394 -0.3845 -0.2496  0.2617
  946SOL    HW2 3229   1.823   5.007   3.375  0.5346  0.7560  1.3125
  947SOL     OW 3230   2.335   4.510   5.109 -0.1951  0.1818 -0.2710
  947SOL    HW1 3231   2.351   4.535   5.018 -3.3420 -1.8612 -1.5368
  947SOL    HW2 3232   2.358   4.417   5.113 -2.2135 -0.3403  0.3384
  948SOL     OW 3233   6.227   6.053   3.578  0.2121 -0.1745 -0.0726
  948SOL    HW1 3234   6.236   6.108   3.500 -0.9522 -0.4721 -0.4263
  948SOL    HW2 3235   6.273   5.972   3.556  0.3915 -0.0345 -0.2208
  949SOL     OW 3236   4.257   3.763   6.815  0.4446 -0.1558  1.0289
  949SOL    HW1 3237   4.195   3.772   6.743 -0.0165  0.4528  1.4921
  949SOL    HW2 3238   4.305   3.682   6.795  0.9986  0.5057 -0.4477
  950SOL     OW 3239   5.950   6.129   6.395  0.0358  0.4261  0.1248
  950SOL    HW1 3240   5.877   6.093   6.446 -0.1692 -0.8733 -1.0160
  950SOL    HW2 3241   5.934   6.223   6.393 -2.6758  0.0395 -1.6064
  951SOL     OW 3242   0.869   2.272   1.954 -0.4028  0.2412  0.0932
  951SOL    HW1 3243   0.922   2.200   1.921 -1.1352 -0.1691 -0.1875
  951SOL    HW2 3244   0.862   2.256   2.048  0.1410  0.4168  0.1708
  952SOL     OW 3245   1.854   1.963   3.700 -0.0135  0.6859 -0.8296
  952SOL    HW1 3246   1.793   1.953   3.627 -1.7745  1.8579  0.3738
  952SOL    HW2 3247   1.839   2.053   3.731  1.6344  0.6651  0.1479
  953SOL     OW 3248   3.560   0.584   3.420 -0.1250 -0.4227  0.2596
  953SOL    HW1 3249   3.504   0.606   3.345 -0.3659 -0.9872  0.2690
  953SOL    HW2 3250   3.562   0.664   3.472 -1.6816 -0.6430  0.7312
  954SOL     OW 3251   5.695   2.328   4.294 -0.3068  0.5032 -0.2248
  954SOL    HW1 3252   5.601   2.327   4.278 -0.2318  1.0656 -0.7849
  954SOL    HW2 3253   5.706   2.290   4.381 -1.1701  1.6918  0.4378
  955SOL     OW 3254   0.283   4.890   6.239 -0.4038  0.1705  0.1405
  955SOL    HW1 3255   0.253   4.874   6.150 -1.5254  1.1994  0.3119
  955SOL    HW2 3256   0.378   4.900   6.231 -0.6480  1.7442 -1.1894
  956SOL     OW 3257   4.115   6.153   6.203 -0.1521  0.1291  0.0315
  956SOL    HW1 3258   4.049   6.123   6.141  0.7405 -2.1086  0.0611
  956SOL    HW2 3259   4.075   6.137   6.289 -0.4709  0.9984  0.0503
  957SOL     OW 3260   5.991   5.520   0.657 -0.8173  0.6638 -0.8557
  957SOL    HW1 3261   6.004   5.612   0.632  0.5464  0.3813 -1.2831
  957SOL    HW2 3262   6.019   5.471   0.580  0.7934 -0.1640  0.2087
  958SOL     OW 3263   0.222   5.235   1.052  0.0815  0.2547  0.0958
  958SOL    HW1 3264   0.156   5.172   1.082 -0.3127 -0.3435 -1.8730
  958SOL    HW2 3265   0.179   5.282   0.980  1.3500  0.7667 -0.3539
  959SOL     OW 3266   1.017   4.661   4.414 -1.0122  0.3176 -0.1600
  959SOL    HW1 3267   1.073   4.685   4.340  1.1776  0.6321  1.4550
  959SOL    HW2 3268   1.043   4.572   4.436 -1.7581  0.1639  0.1281
  960SOL     OW 3269   4.705   2.039   5.644 -0.2423 -0.2128  0.6040
  960SOL    HW1 3270   4.630   2.084   5.605 -0.2856 -0.8697 -0.1027
  960SOL    HW2 3271   4.669   1.955   5.675 -0.3897  0.6225  2.8510
  961SOL     OW 3272   4.606   4.093   4.017  0.9510 -0.2526  0.0915
  961SOL    HW1 3273   4.578   4.167   3.963 -2.7125 -1.9815 -0.6753
  961SOL    HW2 3274   4.687   4.062   3.975 -0.4020  0.0305 -2.9912
  962SOL     OW 3275   3.064   3.687   5.749  0.3352  0.0928 -0.3588
  962SOL    HW1 3276   3.152   3.657   5.726 -0.0406 -1.0552 -0.3595
  962SOL    HW2 3277   3.075   3.779   5.773  1.3073  0.3484 -1.7002
  963SOL     OW 3278   4.152   4.621   2.992 -0.2975  0.0612 -0.7444
  963SOL    HW1 3279   4.060   4.631   3.017  0.3475  1.0344  1.5885
  963SOL    HW2 3280   4.172   4.701   2.942 -0.1799  1.0152  0.7583
  964SOL     OW 3281   0.540   2.731   0.724 -0.4198  0.1007 -0.3651
  964SOL    HW1 3282   0.557   2.761   0.814  0.3197 -0.8507 -0.1708
  964SOL    HW2 3283   0.485   2.653   0.735  1.3660 -1.2636 -0.5833
  965SOL     OW 3284   6.228   2.781   6.253  0.1109  0.0457  0.2910
  965SOL    HW1 3285   6.229   2.826   6.169  0.5968  1.0125  0.7970
  965SOL    HW2 3286   6.162   2.712   6.243 -1.0523  1.2153 -0.3268
  966SOL     OW 3287   4.990   4.447   0.187 -0.4581 -0.0431 -0.2146
  966SOL    HW1 3288   5.082   4.446   0.159 -0.5422 -1.2266 -0.4963
  966SOL    HW2 3289   4.940   4.432   0.107 -0.9445  1.1106 -0.1515
  967SOL     OW 3290   5.430   3.094   0.294  0.2964 -0.7090  0.0326
  967SOL    HW1 3291   5.406   3.166   0.352 -1.9131 -0.8204 -0.6574
  967SOL    HW2 3292   5.454   3.137   0.212 -1.3812 -0.7145 -0.4988
  968SOL     OW 3293   2.075   4.402   4.114 -0.1048 -0.1267 -0.0054
  968SOL    HW1 3294   1.981   4.418   4.106 -0.1782 -1.0362 -1.2981
  968SOL    HW2 3295   2.083   4.307   4.118  0.8369 -0.1597 -1.6974
  969SOL     OW 3296   1.950   2.064   2.943 -0.3207  0.4405 -0.4008
  969SOL    HW1 3297   1.999   2.075   2.861  0.0019  1.1261 -0.1199
  969SOL    HW2 3298   1.943   1.969   2.954  1.6707  0.2995 -0.0302
  970SOL     OW 3299   3.431   1.049   5.467  0.5740 -0.5198  0.6330
  970SOL    HW1 3300   3.385   1.126   5.501 -0.2061 -0.2413 -0.9600
  970SOL    HW2 3301   3.421   0.983   5.535 -0.9511 -0.0115  0.9313
  971SOL     OW 3302   4.722   3.908   0.768  0.3735 -0.2067 -0.3882
  971SOL    HW1 3303   4.818   3.908   0.768  0.4035  0.8981  0.8064
  971SOL    HW2 3304   4.698   3.913   0.675  1.4961  0.6750 -0.6613
  972SOL     OW 3305   4.057   4.976   0.196  0.1861 -0.4098 -0.2295
  972SOL    HW1 3306   4.110   4.897   0.188  0.6954 -0.0070 -0.9131
  972SOL    HW2 3307   4.107   5.044   0.150  0.1088  0.4932  0.9445
  973SOL     OW 3308   0.755   4.480   2.159  0.1366 -0.3214  0.1810
  973SOL    HW1 3309   0.662   4.502   2.146  0.1972  0.6468  1.3078
  973SOL    HW2 3310   0.769   4.405   2.101 -0.4873  1.5410 -2.6357
  974SOL     OW 3311   0.045   0.325   6.117  0.5412 -0.2892  0.1290
  974SOL    HW1 3312   0.049   0.230   6.100  0.8032 -0.1538 -0.6045
  974SOL    HW2 3313   0.041   0.364   6.030 -1.6063  0.3017  0.4429
  975SOL     OW 3314   5.687   4.940   4.833  0.2139  0.2068 -0.3828
  975SOL    HW1 3315   5.773   4.913   4.866  0.2267  0.0180 -0.5713
  975SOL    HW2 3316   5.624   4.890   4.886  0.2522 -0.9137 -1.3470
  976SOL     OW 3317   5.022   3.573   4.685  0.2530  0.1258 -0.2793
  976SOL    HW1 3318   4.970   3.493   4.683  2.2366 -1.3136  1.3945
  976SOL    HW2 3319   4.996   3.617   4.767  0.2965  0.3994 -0.4095
  977SOL     OW 3320   5.216   0.702   1.676 -0.4832 -0.6811  0.1225
  977SOL    HW1 3321   5.261   0.622   1.702 -0.5317 -0.7335  0.0457
  977SOL    HW2 3322   5.285   0.769   1.674 -0.3920 -0.7788 -0.0729
  978SOL     OW 3323   1.085   0.018   0.377 -0.1863 -0.0863 -0.1678
  978SOL    HW1 3324   1.144  -0.009   0.447 -0.8616 -1.4908 -0.0990
  978SOL    HW2 3325   1.051  -0.064   0.341 -1.7519  0.6567 -0.4977
  979SOL     OW 3326   1.663   5.699   5.961  0.3061 -0.7572 -0.4232
  979SOL    HW1 3327   1.596   5.699   6.029  0.4737 -2.9353 -0.1843
  979SOL    HW2 3328   1.624   5.746   5.887 -2.1794 -3.2633 -0.8747
  980SOL     OW 3329   5.126   1.872   0.163 -1.0283 -0.4305  0.3677
  980SOL    HW1 3330   5.100   1.894   0.073 -2.6491  1.6347  1.2522
  980SOL    HW2 3331   5.195   1.807   0.153 -2.2849 -1.4861 -2.3236
  981SOL     OW 3332   2.442   0.816   0.895 -0.2176 -1.1989  0.0014
  981SOL    HW1 3333   2.447   0.852   0.806 -3.7852 -2.8402 -1.0348
  981SOL    HW2 3334   2.403   0.885   0.947  0.6342 -0.7126  0.0158
  982SOL     OW 3335   5.277   5.336   1.073  0.0615 -0.2857 -0.1526
  982SOL    HW1 3336   5.299   5.410   1.017  1.5671  0.1178  0.8823
  982SOL    HW2 3337   5.338   5.267   1.046  0.8936 -0.0441  1.0061
  983SOL     OW 3338   3.225   5.869   5.749  0.5952  0.2873  0.1952
  983SOL    HW1 3339   3.151   5.900   5.698  0.0438 -3.0458 -1.3233
  983SOL    HW2 3340   3.192   5.790   5.793  2.3400  0.5592  2.1561
  984SOL     OW 3341   5.393   2.476   0.039  0.4495 -0.2484  0.1110
  984SOL    HW1 3342   5.420   2.477   0.131 -0.6127 -0.1966  0.4330
  984SOL    HW2 3343   5.454   2.536  -0.005  0.2314  0.6453  0.9979
  985SOL     OW 3344   5.120   4.748   4.847  0.4523  0.3440  0.5997
  985SOL    HW1 3345   5.057   4.785   4.786  2.6936  1.9223 -0.8823
  985SOL    HW2 3346   5.137   4.660   4.813  1.4437  1.0931 -0.9413
  986SOL     OW 3347   4.784   0.145   3.670 -0.9098  0.0010  0.1553
  986SOL    HW1 3348   4.818   0.117   3.585 -0.4359 -0.3364  0.4465
  986SOL    HW2 3349   4.837   0.097   3.734 -0.3619  1.2421  0.6677
  987SOL     OW 3350   0.066   5.968   3.912 -0.1649  0.1968 -0.0060
  987SOL    HW1 3351   0.160   5.979   3.896  0.1160 -0.4750  1.0067
  987SOL    HW2 3352   0.040   6.046   3.961 -0.0692  0.2723 -0.0777
  988SOL     OW 3353   5.034   4.098   0.073  0.2377 -0.1354 -0.2665
  988SOL    HW1 3354   5.065   4.097   0.163 -0.9811 -1.1774  0.1671
  988SOL    HW2 3355   5.077   4.024   0.031  1.5865  0.9360 -0.8506
  989SOL     OW 3356   5.616   0.833   6.537 -0.6778 -0.2452 -0.2804
  989SOL    HW1 3357   5.590   0.748   6.501 -1.7792 -0.4190  0.8254
  989SOL    HW2 3358   5.632   0.815   6.630  0.2748  0.5306 -0.2832
  990SOL     OW 3359   0.634   3.483   1.720  0.2480  0.0675  0.5263
  990SOL    HW1 3360   0.677   3.527   1.794  0.4976  1.2750 -0.3212
  990SOL    HW2 3361   0.542   3.505   1.730  0.5647  2.2720 -0.8283
  991SOL     OW 3362   2.235   0.179   2.129  0.0466  0.2450  0.5423
  991SOL    HW1 3363   2.270   0.229   2.055  0.0587 -0.2827  0.1857
  991SOL    HW2 3364   2.192   0.104   2.089  2.8026 -1.8520  1.1232
  992SOL     OW 3365   3.749   4.752   3.886  0.2355  0.2888  0.3936
  992SOL    HW1 3366   3.830   4.804   3.883 -0.8104  2.0564  1.1507
  992SOL    HW2 3367   3.680   4.815   3.866 -0.9305 -1.3409 -1.0392
  993SOL     OW 3368   0.109   6.512   0.583 -0.1051  0.1656 -0.4751
  993SOL    HW1 3369   0.158   6.578   0.633 -0.6966  0.0409  0.2828
  993SOL    HW2 3370   0.159   6.502   0.502  1.8589 -0.9039  0.7928
  994SOL     OW 3371   4.924   2.448   1.666  0.6253  0.4844  0.2518
  994SOL    HW1 3372   4.848   2.506   1.661 -1.5706 -2.1331  0.7862
  994SOL    HW2 3373   4.929   2.407   1.579 -0.0796 -0.9997  0.8624
  995SOL     OW 3374   0.087   4.048   4.955  0.2518  0.1161  0.0784
  995SOL    HW1 3375   0.102   4.140   4.934 -2.4886  0.1474 -2.3040
  995SOL    HW2 3376   0.030   4.050   5.032  0.7542  0.3720  0.4482
  996SOL     OW 3377   2.846   6.099   2.564 -0.1726  0.5856  0.0734
  996SOL    HW1 3378   2.865   6.007   2.583  1.0341  0.3165 -2.0620
  996SOL    HW2 3379   2.756   6.112   2.596 -0.1028 -1.0929  1.1045
  997SOL     OW 3380   6.780   5.634   1.955 -0.3183  0.2257  0.0171
  997SOL    HW1 3381   6.871   5.618   1.928  0.5087  0.5429  2.3420
  997SOL    HW2 3382   6.727   5.605   1.881  1.5979 -1.8668 -0.6435
  998SOL     OW 3383   1.217   3.884   0.821 -0.2447  0.1316 -0.2423
  998SOL    HW1 3384   1.168   3.830   0.758  3.3135 -4.1032  0.1818
  998SOL    HW2 3385   1.190   3.850   0.906  2.7367 -1.9367  0.0053
  999SOL     OW 3386   1.179   1.244   2.419 -0.3427  0.4478  0.5980
  999SOL    HW1 3387   1.096   1.283   2.446 -0.9828  0.4501 -1.2686
  999SOL    HW2 3388   1.227   1.231   2.501 -1.7005  1.5149  1.6040
 1000SOL     OW 3389   5.454   3.703   1.227  0.0119 -0.5435  0.4198
 1000SOL    HW1 3390   5.533   3.756   1.227 -0.2125 -0.1899  1.3034
 1000SOL    HW2 3391   5.481   3.620   1.188  0.6354 -0.1713  0.0417
 1001SOL     OW 3392   6.671   6.749   5.082 -0.1502  0.0355  0.2213
 1001SOL    HW1 3393   6.746   6.746   5.023 -0.1719  1.2113  0.1114
 1001SOL    HW2 3394   6.709   6.758   5.169 -0.1497  1.4904  0.0945
 1002SOL     OW 3395   4.784   4.762   2.207  0.4171 -0.0617  0.8335
 1002SOL    HW1 3396   4.737   4.830   2.159  1.4746  0.1260  0.0096
 1002SOL    HW2 3397   4.874   4.795   2.213  1.1883 -1.7924 -0.4264
 1003SOL     OW 3398   4.757   2.901   6.718  0.1749 -0.2539 -0.5518
 1003SOL    HW1 3399   4.767   2.996   6.722 -1.7697 -0.0231  2.5101
 1003SOL    HW2 3400   4.708   2.885   6.638 -2.1488  1.7468  0.3368
 1004SOL     OW 3401   6.758   3.792   5.651  0.3887 -0.1297 -0.4959
 1004SOL    HW1 3402   6.707   3.783   5.571 -1.2606  0.5696  0.4371
 1004SOL    HW2 3403   6.816   3.866   5.634  0.4724 -0.3538 -1.2302
 1005SOL     OW 3404   4.270   5.367   3.079  0.2930 -0.1202 -0.5119
 1005SOL    HW1 3405   4.198   5.333   3.026 -1.2753  0.4054  1.2054
 1005SOL    HW2 3406   4.260   5.325   3.164  1.5073  0.6404  0.0359
 1006SOL     OW 3407   0.405   2.508   0.498  0.1844  0.2776 -0.0090
 1006SOL    HW1 3408   0.360   2.544   0.574 -0.5546  0.3129 -0.4512
 1006SOL    HW2 3409   0.443   2.584   0.454 -0.8593  0.4617 -0.6109
 1007SOL     OW 3410   5.119   5.968   5.603 -0.1528 -0.6240 -0.4709
 1007SOL    HW1 3411   5.134   6.001   5.692 -1.9980 -2.2032  0.4967
 1007SOL    HW2 3412   5.101   6.046   5.551  1.1010  0.3438  0.4812
 1008SOL     OW 3413   4.273   4.601   3.767 -0.4039  0.1903 -0.0885
 1008SOL    HW1 3414   4.221   4.637   3.695 -0.9669 -0.3761  0.0296
 1008SOL    HW2 3415   4.286   4.675   3.826 -0.8466  0.4061 -0.2521
 1009SOL     OW 3416   5.980   1.427   4.136  0.0390 -0.2738 -0.1946
 1009SOL    HW1 3417   5.907   1.385   4.092  0.2671 -0.5397 -0.3167
 1009SOL    HW2 3418   5.967   1.521   4.121 -1.4063 -0.1653  1.4953
 1010SOL     OW 3419   0.126   4.896   5.374  0.0548 -0.5078  0.0786
 1010SOL    HW1 3420   0.069   4.883   5.298  0.1659 -0.2054 -0.0569
 1010SOL    HW2 3421   0.105   4.984   5.405  0.4308 -0.4031  0.0430
 1011SOL     OW 3422   0.139   5.015   4.258 -0.3479 -0.0573 -0.3975
 1011SOL    HW1 3423   0.115   5.046   4.170  0.9571 -1.3452 -1.2483
 1011SOL    HW2 3424   0.188   4.935   4.242 -1.2281 -1.0378  1.6027
 1012SOL     OW 3425   3.384   6.141   6.072  0.2429 -0.7024  0.6318
 1012SOL    HW1 3426   3.360   6.054   6.040  0.7002 -0.2968 -0.8883
 1012SOL    HW2 3427   3.452   6.124   6.138  0.5704 -1.4767  0.1046
 1013SOL     OW 3428   4.268   5.116   5.646  0.1456 -0.3605 -0.4071
 1013SOL    HW1 3429   4.238   5.133   5.735 -0.5693  1.1869 -0.9012
 1013SOL    HW2 3430   4.189   5.086   5.600  0.9304 -3.1867 -0.0834
 1014SOL     OW 3431   6.582   2.964   1.399 -0.4652 -0.4802  0.4355
 1014SOL    HW1 3432   6.631   2.883   1.384 -0.0260 -0.4471  1.5955
 1014SOL    HW2 3433   6.588   2.978   1.493  1.0728  1.8957  0.0782
 1015SOL     OW 3434   1.790   2.586   3.579  0.2558 -0.5181 -0.0713
 1015SOL    HW1 3435   1.808   2.677   3.556 -1.0036 -0.2500 -0.0509
 1015SOL    HW2 3436   1.784   2.586   3.675 -0.0585 -0.5643 -0.0909
 1016SOL     OW 3437   2.185   3.989   6.783 -0.2551  0.4689  0.1625
 1016SOL    HW1 3438   2.113   4.043   6.751 -0.0172 -0.5912 -2.4269
 1016SOL    HW2 3439   2.153   3.899   6.776  1.2203 -0.0177 -0.9450
 1017SOL     OW 3440   1.971   4.813   1.369 -0.8258 -0.0169  1.0035
 1017SOL    HW1 3441   1.941   4.765   1.446  2.2387  0.7353  2.8104
 1017SOL    HW2 3442   2.048   4.862   1.399  0.1867  0.7479 -2.4121
 1018SOL     OW 3443   0.590   2.308   0.657  0.1052  0.7253  0.6571
 1018SOL    HW1 3444   0.551   2.380   0.607  0.0073  1.4940  1.8048
 1018SOL    HW2 3445   0.671   2.344   0.692  0.9245 -0.2764 -0.1472
 1019SOL     OW 3446   0.676   6.250   2.192 -0.4168 -0.1069  0.3263
 1019SOL    HW1 3447   0.662   6.338   2.156  0.2074 -0.4966 -0.9412
 1019SOL    HW2 3448   0.671   6.192   2.116  0.2189 -1.0528  0.9829
 1020SOL     OW 3449   2.903   6.650   2.488  0.1727 -0.2777 -0.2238
 1020SOL    HW1 3450   2.915   6.604   2.571 -1.6900  2.2541  1.6191
 1020SOL    HW2 3451   2.841   6.596   2.439  1.6510 -2.0377 -0.2743
 1021SOL     OW 3452   0.885   0.863   2.863 -0.6868 -0.3307  0.7064
 1021SOL    HW1 3453   0.844   0.781   2.891  1.2168 -0.8916  2.0280
 1021SOL    HW2 3454   0.835   0.931   2.909 -1.7276 -0.7662  0.2730
 1022SOL     OW 3455   2.161   3.883   6.081 -0.5240  0.1353 -0.0756
 1022SOL    HW1 3456   2.093   3.880   6.149 -1.0795  0.7225 -0.5935
 1022SOL    HW2 3457   2.227   3.942   6.116 -0.1643 -0.6112  0.5289
 1023SOL     OW 3458   6.169   6.084   1.993  0.2664  0.6037  0.2065
 1023SOL    HW1 3459   6.190   6.041   2.076 -2.8710 -1.7854 -0.0369
 1023SOL    HW2 3460   6.097   6.143   2.015  0.7213  1.4374 -0.5051
 1024SOL     OW 3461   4.532   0.680   6.299 -0.4230  0.1780 -0.5067
 1024SOL    HW1 3462   4.455   0.721   6.261 -1.7610 -0.2333  1.5569
 1024SOL    HW2 3463   4.559   0.739   6.369 -0.1473 -0.6651  0.1207
 1025SOL     OW 3464   3.923   3.007   4.512  0.1508 -0.0456  0.9196
 1025SOL    HW1 3465   3.963   2.999   4.426  1.8067 -1.0979  1.7481
 1025SOL    HW2 3466   3.875   2.925   4.525  0.7635 -0.3388  1.3976
 1026SOL     OW 3467   6.563   0.092   4.374  0.7356 -0.0717  0.3844
 1026SOL    HW1 3468   6.532   0.178   4.349  0.2343 -0.4275 -0.2469
 1026SOL    HW2 3469   6.497   0.058   4.434  1.3142  0.2836  1.2293
 1027SOL     OW 3470   4.355   4.727   4.476 -0.2203  0.8525  0.1807
 1027SOL    HW1 3471   4.444   4.692   4.476 -0.5218 -0.0707 -1.6222
 1027SOL    HW2 3472   4.364   4.817   4.444  0.1762  1.1908  1.2142
 1028SOL     OW 3473   0.190   4.593   5.662 -0.1940  0.5345 -0.5932
 1028SOL    HW1 3474   0.216   4.685   5.656  2.7254 -0.2553 -1.9922
 1028SOL    HW2 3475   0.255   4.554   5.721 -2.9864 -0.2291  2.2354
 1029SOL     OW 3476   0.079   2.497   1.139 -0.0745 -0.4420  0.5184
 1029SOL    HW1 3477  -0.008   2.474   1.173 -0.2736  1.0197  1.0880
 1029SOL    HW2 3478   0.084   2.592   1.150  0.6149 -0.1550 -1.8830
 1030SOL     OW 3479   5.494   4.879   5.974  0.4347 -0.0808  0.2338
 1030SOL    HW1 3480   5.474   4.819   6.045  0.0869 -0.4074 -0.1380
 1030SOL    HW2 3481   5.583   4.910   5.993  1.3356 -2.0724 -0.5016
 1031SOL     OW 3482   4.158   4.748   2.479  0.4823  0.2550 -0.1812
 1031SOL    HW1 3483   4.136   4.841   2.485 -0.4101  0.2074 -1.9469
 1031SOL    HW2 3484   4.080   4.703   2.513  0.9139  0.1436  0.6723
 1032SOL     OW 3485   3.643   4.921   0.463  0.3771  0.3662 -0.3374
 1032SOL    HW1 3486   3.687   5.005   0.472  1.4151 -0.1680 -0.2703
 1032SOL    HW2 3487   3.703   4.869   0.409  0.1795 -0.6274  0.3848
 1033SOL     OW 3488   2.389   4.027   2.023 -0.2703 -0.2396 -0.5656
 1033SOL    HW1 3489   2.304   4.011   1.982 -0.6055  0.1727 -0.0376
 1033SOL    HW2 3490   2.376   4.106   2.074  0.7380  0.4548 -1.3457
 1034SOL     OW 3491   2.687   2.604   1.437 -0.3125 -0.1326 -0.1138
 1034SOL    HW1 3492   2.601   2.568   1.455 -0.3150  0.3548  0.8878
 1034SOL    HW2 3493   2.747   2.530   1.442 -0.7560 -0.6511 -1.7168
 1035SOL     OW 3494   4.921   3.318   4.643 -0.2349  0.0496  0.0164
 1035SOL    HW1 3495   4.936   3.236   4.690 -1.1723 -0.4565 -0.5365
 1035SOL    HW2 3496   4.915   3.292   4.551 -0.6563  0.7286 -0.1525
 1036SOL     OW 3497   1.049   1.297   4.357 -0.4609 -0.1430 -0.4146
 1036SOL    HW1 3498   0.964   1.284   4.316  0.1628  0.0424 -1.8194
 1036SOL    HW2 3499   1.095   1.356   4.298  1.2209 -1.5124 -0.5539
 1037SOL     OW 3500   0.994   4.483   5.622  0.3240  0.5310 -0.6468
 1037SOL    HW1 3501   1.050   4.550   5.662 -0.6395  1.3163 -0.5721
 1037SOL    HW2 3502   0.946   4.530   5.553 -0.0906 -0.1723 -0.8514
 1038SOL     OW 3503   3.410   2.717   2.317  0.5578 -0.1967 -0.2210
 1038SOL    HW1 3504   3.477   2.783   2.298 -0.4257  1.1653  0.8249
 1038SOL    HW2 3505   3.452   2.657   2.378  1.2003 -0.0494 -0.5077
 1039SOL     OW 3506   2.812   0.372   0.828 -0.8156 -0.6255 -0.5790
 1039SOL    HW1 3507   2.825   0.334   0.741 -1.0472  0.6688 -1.1991
 1039SOL    HW2 3508   2.738   0.323   0.865 -1.0890 -0.8061 -1.3474
 1040SOL     OW 3509   3.717   1.610   2.700 -0.0106  0.2866 -1.4656
 1040SOL    HW1 3510   3.749   1.596   2.611  1.7817 -2.6068 -0.5085
 1040SOL    HW2 3511   3.770   1.552   2.754 -0.7022  2.2959  1.6047
 1041SOL     OW 3512   2.124   0.960   0.482 -0.1091 -0.0871 -0.1143
 1041SOL    HW1 3513   2.147   1.015   0.407 -0.7378  0.7241  0.2875
 1041SOL    HW2 3514   2.042   0.918   0.457 -1.6287  2.0628  1.0707
 1042SOL     OW 3515   0.460   6.308   1.011 -0.1309  0.2004 -0.7148
 1042SOL    HW1 3516   0.403   6.384   0.994 -0.7019 -0.0833 -0.1089
 1042SOL    HW2 3517   0.408   6.233   0.985  0.5562  0.0278 -1.6113
 1043SOL     OW 3518   1.288   2.487   4.060 -0.0958 -0.5984 -0.0013
 1043SOL    HW1 3519   1.290   2.396   4.089  0.4216 -0.8183 -0.6942
 1043SOL    HW2 3520   1.197   2.503   4.035 -0.7145 -0.2123  2.2554
 1044SOL     OW 3521   6.773   6.647   1.722  0.1276 -0.3414  1.0686
 1044SOL    HW1 3522   6.711   6.717   1.700 -0.1029 -0.8132  0.1589
 1044SOL    HW2 3523   6.719   6.579   1.762  0.0366 -0.7719  0.2353
 1045SOL     OW 3524   0.173   1.667   4.460  0.0621  0.7281  0.4586
 1045SOL    HW1 3525   0.136   1.691   4.545  1.5163  0.3931  1.2145
 1045SOL    HW2 3526   0.263   1.640   4.479  0.3455  0.4042 -1.1576
 1046SOL     OW 3527   1.301   0.994   2.898 -0.3262  0.1833 -0.1562
 1046SOL    HW1 3528   1.278   0.901   2.903 -2.5606  0.6950 -0.0603
 1046SOL    HW2 3529   1.311   1.011   2.804  0.9186 -0.3016 -0.1340
 1047SOL     OW 3530   1.368   2.433   2.303  0.3787 -1.2773 -0.3420
 1047SOL    HW1 3531   1.306   2.367   2.273  1.1114 -1.4611 -1.4856
 1047SOL    HW2 3532   1.349   2.510   2.250 -0.2055 -0.6624  0.7096
 1048SOL     OW 3533   5.324   2.623   2.216  0.2916  0.0836 -0.2693
 1048SOL    HW1 3534   5.368   2.577   2.144  1.2746 -0.4235  0.6277
 1048SOL    HW2 3535   5.366   2.589   2.295 -2.1337 -0.8427  0.6837
 1049SOL     OW 3536   1.410   4.695   4.528 -0.1092 -0.2517 -0.5674
 1049SOL    HW1 3537   1.501   4.688   4.501  0.4769  1.6300  0.7028
 1049SOL    HW2 3538   1.385   4.606   4.552  2.3377 -0.4249  1.8305
 1050SOL     OW 3539   2.897   3.656   1.798 -0.1146  0.1043 -0.0548
 1050SOL    HW1 3540   2.810   3.625   1.825  0.3134 -0.7897  0.3717
 1050SOL    HW2 3541   2.940   3.578   1.763  0.9910  0.2036  1.0016
 1051SOL     OW 3542   0.345   5.930   2.096  0.5019 -0.0872  0.0392
 1051SOL    HW1 3543   0.405   5.856   2.111 -0.9271 -1.5072 -0.9038
 1051SOL    HW2 3544   0.337   5.935   2.001 -0.9606 -0.0316  0.1462
 1052SOL     OW 3545   4.198   4.134   6.458 -0.3422  0.1345 -0.1529
 1052SOL    HW1 3546   4.114   4.102   6.490  0.0299 -0.7720 -0.0708
 1052SOL    HW2 3547   4.174   4.203   6.395 -1.3233 -2.5485 -2.9547
 1053SOL     OW 3548   3.363   3.338   2.973  0.1069 -0.4770  0.0399
 1053SOL    HW1 3549   3.394   3.386   3.050 -0.0209 -0.1523 -0.1074
 1053SOL    HW2 3550   3.277   3.305   2.998 -2.2600  3.6733 -1.4827
 1054SOL     OW 3551   5.103   4.288   2.762  0.1286  0.2727  0.1312
 1054SOL    HW1 3552   5.165   4.341   2.712  0.9882 -0.9976 -0.2000
 1054SOL    HW2 3553   5.038   4.260   2.698  0.0833  0.3277  0.1530
 1055SOL     OW 3554   4.705   0.874   4.181  0.2023  0.3675 -0.6087
 1055SOL    HW1 3555   4.715   0.846   4.272  0.4448 -0.0660 -0.7661
 1055SOL    HW2 3556   4.792   0.863   4.143 -0.2438 -1.0005 -1.3126
 1056SOL     OW 3557   3.217   5.013   2.926  0.3248  0.1894 -0.1793
 1056SOL    HW1 3558   3.310   5.032   2.923  0.3913  0.1152  1.0925
 1056SOL    HW2 3559   3.188   5.043   3.012 -0.7045 -0.3240 -0.3213
 1057SOL     OW 3560   1.445   3.416   5.025 -0.2214 -0.8177  0.0748
 1057SOL    HW1 3561   1.362   3.368   5.030 -0.8569  0.2345  0.0859
 1057SOL    HW2 3562   1.476   3.420   5.115 -1.2785  0.6233  0.4178
 1058SOL     OW 3563   1.600   0.365   6.622  0.1036  0.0439 -0.5547
 1058SOL    HW1 3564   1.574   0.291   6.677  2.5838 -1.3955 -1.1593
 1058SOL    HW2 3565   1.579   0.337   6.533  1.7199 -0.3370 -0.8586
 1059SOL     OW 3566   5.750   3.320   4.583 -0.1613  0.8763 -0.0947
 1059SOL    HW1 3567   5.704   3.357   4.659 -0.5028  1.3097 -0.5058
 1059SOL    HW2 3568   5.802   3.392   4.549  1.9124  0.0684  1.1413
 1060SOL     OW 3569   6.684   2.063   3.797 -0.3148 -0.1011  0.1677
 1060SOL    HW1 3570   6.716   2.000   3.861  0.9339  0.2075 -0.1213
 1060SOL    HW2 3571   6.700   2.021   3.712 -1.9516 -0.5104  0.0240
 1061SOL     OW 3572   1.564   1.107   3.390  0.2668 -0.4554  0.2130
 1061SOL    HW1 3573   1.523   1.035   3.436 -0.7928  0.5907  0.9737
 1061SOL    HW2 3574   1.616   1.152   3.456  0.7778 -0.4155 -0.2109
 1062SOL     OW 3575   1.730   4.774   2.186 -0.4845  0.2729  0.1916
 1062SOL    HW1 3576   1.687   4.690   2.168 -1.0290  0.4423  0.6715
 1062SOL    HW2 3577   1.820   4.761   2.157 -0.6804 -0.3242 -0.1778
 1063SOL     OW 3578   6.009   4.409   4.702 -0.1550  0.0252  0.1621
 1063SOL    HW1 3579   6.085   4.465   4.721 -0.2991  0.3712 -0.2706
 1063SOL    HW2 3580   6.013   4.341   4.769  0.0436  0.5327  0.6774
 1064SOL     OW 3581   0.479   5.405   4.072  0.0536 -0.4733 -0.4639
 1064SOL    HW1 3582   0.390   5.437   4.089  0.3068  0.4520 -0.7966
 1064SOL    HW2 3583   0.478   5.314   4.102 -0.7636 -0.2249  0.3056
 1065SOL     OW 3584   2.532   1.913   5.932 -0.0798 -0.0308  0.1722
 1065SOL    HW1 3585   2.537   1.915   6.028 -1.3144  1.7033  0.2611
 1065SOL    HW2 3586   2.614   1.953   5.903  0.7807 -1.5491  0.4492
 1066SOL     OW 3587   0.157   1.681   4.203  0.2122 -0.3032 -0.6934
 1066SOL    HW1 3588   0.152   1.671   4.298  1.6980 -0.2550 -0.5843
 1066SOL    HW2 3589   0.195   1.768   4.190  0.1031 -0.3453 -1.3265
 1067SOL     OW 3590   6.049   5.549   4.456  0.3144  0.0991  0.5475
 1067SOL    HW1 3591   6.047   5.539   4.361  1.1721  1.6132  0.3348
 1067SOL    HW2 3592   6.047   5.644   4.470  3.6800  0.1057  1.8919
 1068SOL     OW 3593   6.130   0.470   0.096 -0.2150  0.0470  0.2409
 1068SOL    HW1 3594   6.164   0.490   0.009  0.6431  0.6509  0.6955
 1068SOL    HW2 3595   6.176   0.390   0.122  0.5734  0.6232  0.6782
 1069SOL     OW 3596   0.822   4.468   0.927 -1.0442 -0.1865 -0.0113
 1069SOL    HW1 3597   0.827   4.552   0.882  1.2586  0.2305  0.8599
 1069SOL    HW2 3598   0.885   4.412   0.881  1.9321  0.4734  2.8527
 1070SOL     OW 3599   5.343   6.348   5.558  0.0634 -0.0423  0.4141
 1070SOL    HW1 3600   5.387   6.287   5.617  0.9807 -0.0868 -0.2899
 1070SOL    HW2 3601   5.335   6.429   5.608 -1.2222 -0.7232  1.3820
 1071SOL     OW 3602   6.559   6.256   3.702 -0.1744 -0.0605 -0.2606
 1071SOL    HW1 3603   6.652   6.240   3.684 -0.0737 -1.5516  1.2846
 1071SOL    HW2 3604   6.513   6.183   3.661 -0.2897 -1.2339  1.7861
 1072SOL     OW 3605   6.054   2.068   5.511  0.4253 -0.1102  0.0601
 1072SOL    HW1 3606   5.992   2.094   5.580  1.8574  1.1836  0.9299
 1072SOL    HW2 3607   6.060   2.145   5.454  1.5954 -0.0260  0.2749
 1073SOL     OW 3608   4.752   2.438   0.367  0.0385 -0.1903  0.0875
 1073SOL    HW1 3609   4.765   2.533   0.366  2.8547 -0.3749  2.8540
 1073SOL    HW2 3610   4.674   2.425   0.421  0.2484  0.5284  0.5749
 1074SOL     OW 3611   3.215   2.580   0.611 -0.4198  0.0275 -0.1733
 1074SOL    HW1 3612   3.169   2.526   0.548  0.0965 -0.6806  0.0417
 1074SOL    HW2 3613   3.148   2.609   0.672 -0.6380 -0.7402 -0.0405
 1075SOL     OW 3614   2.470   0.642   2.360 -0.1510  0.0970 -0.2474
 1075SOL    HW1 3615   2.480   0.732   2.390 -1.1145  0.4166 -0.8098
 1075SOL    HW2 3616   2.519   0.638   2.278  2.1790 -0.6755  1.1178
 1076SOL     OW 3617   3.556   4.924   3.840  0.4364  0.0080  0.1978
 1076SOL    HW1 3618   3.524   5.014   3.833  1.8025  0.4848 -0.1797
 1076SOL    HW2 3619   3.526   4.895   3.927 -0.3444  0.6759  0.1668
 1077SOL     OW 3620   5.383   6.198   6.469  0.0299  0.6671 -0.6585
 1077SOL    HW1 3621   5.424   6.190   6.555 -0.5235 -1.2544 -0.5306
 1077SOL    HW2 3622   5.291   6.176   6.485 -0.4300  1.9460 -1.4613
 1078SOL     OW 3623   0.747   0.128   3.226  0.3887 -0.1700  0.3272
 1078SOL    HW1 3624   0.763   0.145   3.319 -1.3175 -1.0411  0.8203
 1078SOL    HW2 3625   0.678   0.190   3.202 -1.0031 -1.6465  0.3525
 1079SOL     OW 3626   6.189   2.514   4.623  0.0128  0.0793 -0.1035
 1079SOL    HW1 3627   6.135   2.592   4.609  1.2727  1.1893  0.9590
 1079SOL    HW2 3628   6.269   2.529   4.573  0.8148  0.0883  1.1359
 1080SOL     OW 3629   1.728   0.567   5.217 -0.2710  0.4039  0.4744
 1080SOL    HW1 3630   1.702   0.658   5.207  1.1652  0.6754 -1.3268
 1080SOL    HW2 3631   1.656   0.517   5.179  0.4551  0.9976 -1.8012
 1081SOL     OW 3632   4.447   4.963   1.679  0.4383 -0.0856  0.1344
 1081SOL    HW1 3633   4.473   4.874   1.701  2.6138  0.2628 -0.8348
 1081SOL    HW2 3634   4.353   4.965   1.698 -0.0306 -3.0404 -1.3464
 1082SOL     OW 3635   0.783   3.595   4.102  0.0999  0.7913  0.6986
 1082SOL    HW1 3636   0.799   3.502   4.087 -1.2286  0.4574  1.1775
 1082SOL    HW2 3637   0.803   3.637   4.019  2.3987  0.3425  0.9466
 1083SOL     OW 3638   2.467   1.490   6.396 -0.0251 -0.1497 -0.3857
 1083SOL    HW1 3639   2.533   1.441   6.445  0.1247 -0.5529 -0.9772
 1083SOL    HW2 3640   2.517   1.534   6.327 -0.3519 -0.3237 -0.7357
 1084SOL     OW 3641   1.736   1.455   6.020  0.0644 -0.1120  0.1707
 1084SOL    HW1 3642   1.758   1.424   5.932  1.6736 -0.5931  0.7063
 1084SOL    HW2 3643   1.728   1.375   6.072 -0.3825  0.1929  0.5791
 1085SOL     OW 3644   2.486   5.784   2.158 -0.0928  0.2956  0.0994
 1085SOL    HW1 3645   2.447   5.870   2.177 -0.9090 -0.4122  1.7590
 1085SOL    HW2 3646   2.411   5.726   2.147  0.4647 -0.2801 -0.7538
 1086SOL     OW 3647   0.181   1.974   4.108  0.4826  0.6712 -0.1835
 1086SOL    HW1 3648   0.176   2.052   4.052 -1.6081  1.1858  0.6092
 1086SOL    HW2 3649   0.272   1.971   4.137  0.7863  2.4046 -0.8252
 1087SOL     OW 3650   6.252   6.788   6.412  0.4258  0.2511  0.2467
 1087SOL    HW1 3651   6.317   6.858   6.418 -1.1827  1.6874  2.5244
 1087SOL    HW2 3652   6.304   6.709   6.396  2.5615  1.5652  0.2221
 1088SOL     OW 3653   6.629   6.507   5.432  0.7196  0.1886 -0.0824
 1088SOL    HW1 3654   6.622   6.595   5.470  1.0758  0.2758 -0.2132
 1088SOL    HW2 3655   6.712   6.508   5.384  0.9040 -0.3356  0.2134
 1089SOL     OW 3656   6.074   4.765   2.609 -0.2458 -0.2052 -0.2659
 1089SOL    HW1 3657   6.000   4.705   2.622 -1.3674  1.1674 -0.1079
 1089SOL    HW2 3658   6.143   4.731   2.666 -0.8813 -1.2882 -0.1173
 1090SOL     OW 3659   3.554   0.454   5.272  0.1484 -0.1344  0.1202
 1090SOL    HW1 3660   3.570   0.449   5.178  0.3571 -1.4047  0.2065
 1090SOL    HW2 3661   3.606   0.383   5.309  0.4995  0.6948  1.2635
 1091SOL     OW 3662   1.716   2.366   6.827 -0.1137 -0.0283  0.1936
 1091SOL    HW1 3663   1.786   2.362   6.892  0.1587  0.8133 -0.0288
 1091SOL    HW2 3664   1.712   2.278   6.790 -0.3559 -0.5604  1.4212
 1092SOL     OW 3665   4.225   5.401   4.924  0.0553 -0.1264  0.3894
 1092SOL    HW1 3666   4.313   5.396   4.962  0.0761 -2.8112  0.1878
 1092SOL    HW2 3667   4.170   5.430   4.997  0.3346 -3.7111  2.2887
 1093SOL     OW 3668   5.240   1.893   5.684  0.3833 -0.3510 -0.4281
 1093SOL    HW1 3669   5.145   1.904   5.679  0.3039 -1.1627 -0.9007
 1093SOL    HW2 3670   5.258   1.888   5.778  0.1843  1.4894 -0.2517
 1094SOL     OW 3671   1.530   2.071   0.322  0.2380 -0.0489  0.5556
 1094SOL    HW1 3672   1.569   1.984   0.316 -3.0433 -1.6219  0.4857
 1094SOL    HW2 3673   1.487   2.074   0.407  1.2925  2.0331  1.0976
 1095SOL     OW 3674   6.817   0.442   5.447 -0.9212 -0.1703 -0.4980
 1095SOL    HW1 3675   6.903   0.400   5.444 -0.7518  0.1167  0.1413
 1095SOL    HW2 3676   6.784   0.436   5.357  1.2470  2.8184 -1.6524
 1096SOL     OW 3677   1.252   5.797   1.920  0.6142  0.5249  0.2856
 1096SOL    HW1 3678   1.253   5.717   1.867 -1.7493  0.2421  0.5199
 1096SOL    HW2 3679   1.282   5.866   1.861  1.5600 -0.3394 -0.2764
 1097SOL     OW 3680   1.129   6.762   5.915 -0.8709 -0.1483  0.2245
 1097SOL    HW1 3681   1.149   6.853   5.891 -1.8453 -0.5521 -2.4334
 1097SOL    HW2 3682   1.184   6.709   5.857 -1.8190 -1.2562  0.3026
 1098SOL     OW 3683   2.254   0.297   3.177 -0.5398  0.4478  0.1951
 1098SOL    HW1 3684   2.208   0.369   3.221 -1.3964  2.1997 -3.1728
 1098SOL    HW2 3685   2.184   0.236   3.151  0.1051 -1.3452  2.3738
 1099SOL     OW 3686   3.108   4.093   6.537 -0.0771 -0.0434  0.4123
 1099SOL    HW1 3687   3.081   4.155   6.470 -1.7896  0.3514  1.3937
 1099SOL    HW2 3688   3.110   4.145   6.618  1.6655 -0.5614  0.7352
 1100SOL     OW 3689   4.079   2.360   6.212  0.1255 -0.4429 -0.1485
 1100SOL    HW1 3690   4.003   2.305   6.192 -0.6024 -0.1005  1.4793
 1100SOL    HW2 3691   4.155   2.306   6.192 -0.5043 -0.5517 -2.4890
 1101SOL     OW 3692   0.005   1.702   1.109 -0.0203  0.2703 -0.4641
 1101SOL    HW1 3693   0.023   1.621   1.157  0.3220  0.9594  0.6030
 1101SOL    HW2 3694   0.057   1.768   1.154  0.0834  0.9971 -1.6363
 1102SOL     OW 3695   3.763   1.159   0.274  0.3269  0.0202 -0.0228
 1102SOL    HW1 3696   3.797   1.240   0.235 -0.8646  0.1918 -0.7709
 1102SOL    HW2 3697   3.779   1.092   0.208 -1.5607  0.2830 -0.8203
 1103SOL     OW 3698   4.041   2.137   2.084 -0.1055 -0.3312 -0.0813
 1103SOL    HW1 3699   4.050   2.192   2.162  1.0848  1.4438 -1.3833
 1103SOL    HW2 3700   4.129   2.137   2.045 -0.7541 -0.8376 -1.6190
 1104SOL     OW 3701   6.581   3.356   0.683  0.2384  0.2814  0.2106
 1104SOL    HW1 3702   6.544   3.268   0.695  2.3437 -1.2614 -3.1065
 1104SOL    HW2 3703   6.609   3.383   0.770 -2.5449 -1.2630  1.7228
 1105SOL     OW 3704   4.432   4.266   2.429  0.9360 -0.0493  0.0009
 1105SOL    HW1 3705   4.463   4.278   2.519  1.0050 -0.0484 -0.0233
 1105SOL    HW2 3706   4.445   4.173   2.411  2.3447  0.2295 -0.5384
 1106SOL     OW 3707   2.993   6.162   5.181 -0.3446 -0.2429 -0.0258
 1106SOL    HW1 3708   3.067   6.154   5.241  0.7723 -1.7222 -1.4847
 1106SOL    HW2 3709   3.031   6.146   5.094 -1.9143  1.6200 -1.1421
 1107SOL     OW 3710   0.362   5.570   5.482  0.2231  0.0170 -0.2433
 1107SOL    HW1 3711   0.414   5.644   5.452 -1.2460  1.8960  1.5699
 1107SOL    HW2 3712   0.284   5.609   5.522 -0.6986 -2.5149  0.6663
 1108SOL     OW 3713   5.203   2.361   4.171  0.2913 -0.6709 -0.7902
 1108SOL    HW1 3714   5.270   2.429   4.160 -0.2820  0.2112  0.9009
 1108SOL    HW2 3715   5.251   2.286   4.205  0.4799 -0.1071  0.2231
 1109SOL     OW 3716   0.223   3.221   5.958  0.1221  0.2037  0.0096
 1109SOL    HW1 3717   0.282   3.149   5.982 -0.5796 -0.3213  0.1727
 1109SOL    HW2 3718   0.282   3.295   5.940  0.8244 -0.2801  0.2809
 1110SOL     OW 3719   6.400   2.753   4.211 -0.3719 -0.2236 -0.4607
 1110SOL    HW1 3720   6.330   2.689   4.224 -0.8925  0.5335  0.6098
 1110SOL    HW2 3721   6.357   2.827   4.168  0.4917 -1.0426 -2.9238
 1111SOL     OW 3722   4.009   3.709   2.806  0.0424  0.2631 -0.1799
 1111SOL    HW1 3723   4.039   3.675   2.891  0.9171 -0.1824 -0.6466
 1111SOL    HW2 3724   3.919   3.677   2.799  0.8930 -2.3163 -0.7124
 1112SOL     OW 3725   1.083   2.723   1.440 -0.6711  0.4163  0.2981
 1112SOL    HW1 3726   1.121   2.715   1.528 -0.6475  1.1978  0.3652
 1112SOL    HW2 3727   1.145   2.778   1.392  0.2263 -1.4154 -0.7644
 1113SOL     OW 3728   1.823   6.605   0.069  0.2950 -0.5585  0.5407
 1113SOL    HW1 3729   1.843   6.571   0.156 -0.6645  1.1609  1.4927
 1113SOL    HW2 3730   1.907   6.606   0.023  1.1237 -0.0138  1.9990
 1114SOL     OW 3731   4.519   4.309   0.117 -0.7139 -0.4828  0.1960
 1114SOL    HW1 3732   4.448   4.300   0.053  1.5246 -1.4794 -2.3840
 1114SOL    HW2 3733   4.578   4.236   0.097  1.2864  0.5768  1.8440
 1115SOL     OW 3734   6.825   6.483   1.439  0.6115 -0.5247 -0.3571
 1115SOL    HW1 3735   6.779   6.558   1.400 -0.0381 -0.4567  0.5182
 1115SOL    HW2 3736   6.797   6.482   1.530  1.8243 -0.9048  0.0326
 1116SOL     OW 3737   4.880   4.192   0.548  0.3566 -0.7106 -0.0707
 1116SOL    HW1 3738   4.924   4.272   0.577  2.2070 -1.7082  0.0903
 1116SOL    HW2 3739   4.853   4.210   0.458  0.9914  0.0234 -0.1241
 1117SOL     OW 3740   2.093   3.558   3.649  0.1895 -0.2224 -0.5784
 1117SOL    HW1 3741   2.024   3.493   3.639  0.7433 -0.5903 -2.3819
 1117SOL    HW2 3742   2.172   3.515   3.615  1.6298 -0.2369  2.4176
 1118SOL     OW 3743   3.192   0.713   2.489 -0.1162 -0.4691 -0.0447
 1118SOL    HW1 3744   3.263   0.768   2.522 -0.7229 -0.1263  0.7142
 1118SOL    HW2 3745   3.226   0.676   2.408  0.5353  0.5227 -0.2398
 1119SOL     OW 3746   5.076   5.724   6.225 -0.3884  0.0831  0.5150
 1119SOL    HW1 3747   5.043   5.754   6.310  0.5426  1.1704  0.5206
 1119SOL    HW2 3748   5.001   5.734   6.166 -0.5484  1.0059  0.8493
 1120SOL     OW 3749   4.556   0.630   5.247 -0.5962 -0.2457 -0.0293
 1120SOL    HW1 3750   4.571   0.655   5.339 -2.0625  0.8069 -0.0567
 1120SOL    HW2 3751   4.581   0.537   5.244 -2.6698 -0.9622  2.0039
 1121SOL     OW 3752   5.653   1.761   4.272 -0.0341  0.0179  0.0282
 1121SOL    HW1 3753   5.605   1.823   4.326  0.1325  0.8452 -0.7533
 1121SOL    HW2 3754   5.612   1.768   4.186  1.5098  0.8073 -0.6890
 1122SOL     OW 3755   1.353   1.086   3.904  0.4433 -0.4557 -0.0015
 1122SOL    HW1 3756   1.273   1.048   3.942 -1.3614 -0.3263 -3.2848
 1122SOL    HW2 3757   1.340   1.180   3.911  0.8448 -0.4380  0.4818
 1123SOL     OW 3758   4.232   5.344   3.490 -0.1624  0.2846 -0.5750
 1123SOL    HW1 3759   4.144   5.380   3.497 -0.7181 -1.2582  1.1373
 1123SOL    HW2 3760   4.285   5.416   3.456 -0.9989  3.1017  3.3793
 1124SOL     OW 3761   2.258   5.027   6.696  0.0179 -0.1536  0.6398
 1124SOL    HW1 3762   2.271   5.074   6.614 -0.6398 -1.3712 -0.1889
 1124SOL    HW2 3763   2.324   4.958   6.696 -1.0481 -1.2157  0.2999
 1125SOL     OW 3764   0.794   6.388   4.378 -0.3873 -0.4126  0.0868
 1125SOL    HW1 3765   0.743   6.394   4.297  1.4558 -1.1538 -1.1727
 1125SOL    HW2 3766   0.879   6.425   4.357  0.4491 -1.4662  1.4156
 1126SOL     OW 3767   5.348   3.712   4.475  0.7354  0.1210 -0.2701
 1126SOL    HW1 3768   5.349   3.671   4.388 -0.2931  2.2566 -1.3512
 1126SOL    HW2 3769   5.320   3.642   4.534 -1.5849 -0.6314 -2.1204
 1127SOL     OW 3770   6.453   3.921   1.756  0.4391 -0.1681  0.0544
 1127SOL    HW1 3771   6.430   3.925   1.848 -0.0954 -1.4562  0.0005
 1127SOL    HW2 3772   6.400   3.990   1.715  1.8037  1.4491  0.8817
 1128SOL     OW 3773   3.760   2.539   4.152  0.1554 -0.1932  0.4402
 1128SOL    HW1 3774   3.678   2.585   4.138 -0.5313 -1.6397 -0.5453
 1128SOL    HW2 3775   3.787   2.509   4.065  0.6445 -1.4792  0.9985
 1129SOL     OW 3776   4.253   4.728   0.178 -0.0591 -0.2832 -0.1229
 1129SOL    HW1 3777   4.220   4.672   0.108 -1.2814  0.5295 -0.2358
 1129SOL    HW2 3778   4.313   4.788   0.135 -0.5195 -0.0279 -0.4166
 1130SOL     OW 3779   5.959   2.547   5.886 -0.3191 -0.5003 -0.2685
 1130SOL    HW1 3780   5.905   2.519   5.960 -0.5816 -0.2472 -0.3631
 1130SOL    HW2 3781   6.041   2.498   5.896 -0.1967 -0.1696  0.4161
 1131SOL     OW 3782   1.700   0.446   5.590  0.5096 -0.3975 -0.2569
 1131SOL    HW1 3783   1.629   0.461   5.653  0.2651 -0.5940 -0.4810
 1131SOL    HW2 3784   1.743   0.531   5.582  0.9593 -0.5312  0.6727
 1132SOL     OW 3785   4.140   4.369   5.140 -0.1103  0.0957  0.3508
 1132SOL    HW1 3786   4.176   4.303   5.082 -0.0986  0.7841 -0.4491
 1132SOL    HW2 3787   4.216   4.410   5.181  0.0278  1.2141 -0.9629
 1133SOL     OW 3788   0.969   5.761   1.977  0.2169  0.3744 -0.2045
 1133SOL    HW1 3789   0.995   5.675   2.011  0.9736  0.8055  0.3251
 1133SOL    HW2 3790   1.050   5.812   1.976  0.0330  0.6869 -1.7358
 1134SOL     OW 3791   2.532   2.864   3.666 -0.2350 -0.0116  0.1106
 1134SOL    HW1 3792   2.508   2.832   3.579  0.2925 -0.6888  0.2070
 1134SOL    HW2 3793   2.449   2.874   3.712 -0.5556  0.7939 -0.6127
 1135SOL     OW 3794   5.898   2.183   5.714  0.9583 -0.2123 -0.1563
 1135SOL    HW1 3795   5.809   2.169   5.680  0.7148  1.2317 -0.1632
 1135SOL    HW2 3796   5.902   2.130   5.793 -0.0081 -0.0985 -0.0189
 1136SOL     OW 3797   3.950   1.634   4.669 -0.5152 -0.0133  0.8036
 1136SOL    HW1 3798   3.866   1.660   4.709 -1.5312 -2.4747  0.4484
 1136SOL    HW2 3799   3.939   1.654   4.576 -2.0760 -3.2009  0.1794
 1137SOL     OW 3800   0.098   3.006   0.515 -0.1810 -0.2881 -0.2589
 1137SOL    HW1 3801   0.019   2.975   0.471 -1.4072  1.6523  0.4379
 1137SOL    HW2 3802   0.168   2.949   0.482 -1.8854 -2.2842 -0.6559
 1138SOL     OW 3803   1.842   3.130   0.630  0.0733  0.1312  0.1078
 1138SOL    HW1 3804   1.928   3.104   0.596 -1.2171 -1.2963 -2.3448
 1138SOL    HW2 3805   1.803   3.182   0.559 -1.5679 -0.2749  0.6634
 1139SOL     OW 3806   1.723   3.666   4.029  0.3562  0.8081 -0.3685
 1139SOL    HW1 3807   1.663   3.604   3.987  0.9607 -0.4864  0.6317
 1139SOL    HW2 3808   1.810   3.629   4.017  0.6277  0.8206  1.2532
 1140SOL     OW 3809   0.786   6.506   3.027 -0.1039 -0.0737 -0.2107
 1140SOL    HW1 3810   0.858   6.530   3.084 -0.0847  0.2517 -0.3655
 1140SOL    HW2 3811   0.752   6.425   3.063 -0.0204  0.0708  0.1934
 1141SOL     OW 3812   0.505   5.718   3.699  0.1022 -0.2579  0.2145
 1141SOL    HW1 3813   0.425   5.670   3.677 -0.1826  0.6551 -0.7964
 1141SOL    HW2 3814   0.546   5.665   3.767 -2.0800 -0.0164  1.8243
 1142SOL     OW 3815   1.644   2.470   0.812 -0.0658 -0.6953  0.2937
 1142SOL    HW1 3816   1.566   2.489   0.761  0.2922 -0.9808 -0.3695
 1142SOL    HW2 3817   1.630   2.381   0.845 -0.6046 -0.2628  1.2884
 1143SOL     OW 3818   6.377   1.965   1.670  0.3143 -0.9333 -0.0401
 1143SOL    HW1 3819   6.444   1.946   1.736  0.0030  1.7310  1.1743
 1143SOL    HW2 3820   6.427   1.985   1.591  0.8168 -1.6384  0.0917
 1144SOL     OW 3821   6.127   0.371   2.412  0.6964 -0.6066  0.3673
 1144SOL    HW1 3822   6.079   0.299   2.453  0.5427 -1.1070 -0.6403
 1144SOL    HW2 3823   6.061   0.439   2.400  1.1379  0.2952  2.5809
 1145SOL     OW 3824   6.400   5.834   2.828 -0.3487 -0.0481  0.4258
 1145SOL    HW1 3825   6.465   5.764   2.818  0.0905  0.2044  1.3556
 1145SOL    HW2 3826   6.417   5.870   2.916 -0.9736  0.8069  0.2110
 1146SOL     OW 3827   3.576   3.611   4.709  0.7530  0.1228  0.7047
 1146SOL    HW1 3828   3.527   3.634   4.788  1.2150 -0.6644  1.2371
 1146SOL    HW2 3829   3.660   3.578   4.742  0.1090 -2.4425  0.0717
 1147SOL     OW 3830   0.898   2.187   5.158 -0.0731  0.2453  0.2802
 1147SOL    HW1 3831   0.952   2.109   5.146 -1.9643 -0.8986 -1.4371
 1147SOL    HW2 3832   0.875   2.215   5.069 -3.9870 -0.6488  0.8123
 1148SOL     OW 3833   1.849   4.601   3.402  0.3090  0.3028 -0.1846
 1148SOL    HW1 3834   1.939   4.579   3.380  0.5270  0.7547  0.2473
 1148SOL    HW2 3835   1.809   4.517   3.426  0.5066  0.0466 -0.7273
 1149SOL     OW 3836   3.917   2.321   2.263 -0.3113  0.3759  0.1185
 1149SOL    HW1 3837   3.880   2.294   2.347 -2.2841 -1.1146 -1.1365
 1149SOL    HW2 3838   3.925   2.417   2.270 -3.1153  0.6354  1.0605
 1150SOL     OW 3839   1.466   3.855   4.975 -0.1401 -0.3434 -0.2206
 1150SOL    HW1 3840   1.426   3.823   5.056 -1.0433 -0.7900 -0.8349
 1150SOL    HW2 3841   1.415   3.933   4.953 -0.1296 -0.4287 -0.5505
 1151SOL     OW 3842   0.152   2.230   6.502 -0.6962 -0.0761  0.2069
 1151SOL    HW1 3843   0.089   2.173   6.458 -1.2128 -0.8310  1.8546
 1151SOL    HW2 3844   0.238   2.199   6.473 -1.0057 -1.0589  0.3143
 1152SOL     OW 3845   4.448   5.455   2.103  0.0631 -0.4918  0.2707
 1152SOL    HW1 3846   4.404   5.376   2.074 -1.2316 -0.0387  0.9300
 1152SOL    HW2 3847   4.392   5.527   2.072  0.7296  0.1323  0.4716
 1153SOL     OW 3848   5.966   0.427   0.290  0.0392 -0.0611 -0.3651
 1153SOL    HW1 3849   5.959   0.500   0.351 -1.3559 -0.8968  0.5399
 1153SOL    HW2 3850   6.024   0.459   0.221 -0.1246  1.7073  0.2581
 1154SOL     OW 3851   5.155   2.908   0.515  0.4091 -0.1513  0.3866
 1154SOL    HW1 3852   5.155   2.932   0.422  1.2071 -1.3073  0.0594
 1154SOL    HW2 3853   5.243   2.931   0.545  0.8367 -1.5848  0.3266
 1155SOL     OW 3854   3.974   4.811   3.134 -0.0872  0.6232 -0.1565
 1155SOL    HW1 3855   3.989   4.903   3.112  3.3816 -0.2063 -1.9472
 1155SOL    HW2 3856   3.925   4.777   3.059  1.8806  0.2794 -1.3479
 1156SOL     OW 3857   2.350   1.152   6.299 -0.3389  0.6751 -0.0339
 1156SOL    HW1 3858   2.331   1.197   6.382 -2.4480  0.6441 -0.4306
 1156SOL    HW2 3859   2.369   1.061   6.325  1.6102  1.2119  0.5783
 1157SOL     OW 3860   0.680   0.990   5.713  0.6483  0.0257 -0.4839
 1157SOL    HW1 3861   0.594   1.032   5.710  1.1489  1.0237 -1.8823
 1157SOL    HW2 3862   0.676   0.923   5.645  0.4064 -1.1817  0.6589
 1158SOL     OW 3863   5.923   3.353   1.274  0.2109  0.4753 -0.3837
 1158SOL    HW1 3864   5.858   3.410   1.315  0.2870  0.6439 -0.4964
 1158SOL    HW2 3865   5.998   3.354   1.334  0.2273  0.5251 -0.4056
 1159SOL     OW 3866   5.397   4.283   2.668  0.1306  0.6825  0.3826
 1159SOL    HW1 3867   5.447   4.207   2.696  0.2838  0.7328  0.2499
 1159SOL    HW2 3868   5.456   4.357   2.683 -0.3806  0.8994  1.4718
 1160SOL     OW 3869   2.400   0.455   6.409 -0.2486 -0.5594 -0.1446
 1160SOL    HW1 3870   2.367   0.370   6.378 -1.3660 -0.2996  0.2797
 1160SOL    HW2 3871   2.398   0.511   6.331 -1.6288 -0.3265  0.0218
 1161SOL     OW 3872   5.908   4.911   0.367  0.2853  0.1593  0.1867
 1161SOL    HW1 3873   5.847   4.840   0.387 -0.1441 -0.4448 -2.7503
 1161SOL    HW2 3874   5.864   4.990   0.398  0.2821 -0.6745  2.5319
 1162SOL     OW 3875   1.660   3.847   6.336  0.1240 -0.3015 -0.3871
 1162SOL    HW1 3876   1.621   3.846   6.249  0.0856 -1.4293 -0.3701
 1162SOL    HW2 3877   1.686   3.756   6.352 -0.3939 -0.2296  1.0076
 1163SOL     OW 3878   0.712   6.551   5.552 -1.0719  0.2389  0.0462
 1163SOL    HW1 3879   0.793   6.576   5.597 -1.8186  1.2093  0.8952
 1163SOL    HW2 3880   0.679   6.633   5.515 -1.5308 -0.1996 -0.5368
 1164SOL     OW 3881   0.247   2.426   0.039  0.2474  0.2680  0.8091
 1164SOL    HW1 3882   0.176   2.443   0.100  0.5849 -0.3413  1.3853
 1164SOL    HW2 3883   0.326   2.456   0.084  0.2700  1.8159 -0.1988
 1165SOL     OW 3884   3.810   1.794   4.244 -0.3740  0.1728 -0.7237
 1165SOL    HW1 3885   3.766   1.746   4.315  1.6916  0.6687  1.0144
 1165SOL    HW2 3886   3.765   1.878   4.241 -0.3887  0.2126  0.1561
 1166SOL     OW 3887   4.567   2.142   6.690 -0.1181  0.3316 -0.0709
 1166SOL    HW1 3888   4.647   2.133   6.637 -0.0039 -0.1802  0.1849
 1166SOL    HW2 3889   4.599   2.154   6.779 -0.3285 -0.5422  0.1310
 1167SOL     OW 3890   2.901   5.178   3.410  0.4789 -0.2609 -0.4168
 1167SOL    HW1 3891   2.914   5.264   3.450  1.7413 -0.6490  0.0775
 1167SOL    HW2 3892   2.844   5.131   3.470  1.3288 -0.4010  0.2978
 1168SOL     OW 3893   5.428   4.052   1.271  0.5401  0.4435  0.4213
 1168SOL    HW1 3894   5.454   3.977   1.326 -1.9977 -1.3451 -0.6295
 1168SOL    HW2 3895   5.465   4.128   1.316  4.3601 -1.4323  0.8921
 1169SOL     OW 3896   2.107   3.440   3.142 -0.5543  0.9086  0.0271
 1169SOL    HW1 3897   2.134   3.525   3.174  2.2541  0.2082 -0.2300
 1169SOL    HW2 3898   2.063   3.458   3.059 -0.3759  2.1321  0.1860
 1170SOL     OW 3899   2.325   6.173   6.189  0.0404 -0.0754  0.1150
 1170SOL    HW1 3900   2.271   6.096   6.203  1.6181 -1.0247  1.2592
 1170SOL    HW2 3901   2.314   6.225   6.269  0.3506  0.0364  0.0868
 1171SOL     OW 3902   6.274   3.521   3.841 -0.3544 -0.2163 -0.2386
 1171SOL    HW1 3903   6.217   3.456   3.800 -2.7430  1.2617  0.5265
 1171SOL    HW2 3904   6.244   3.524   3.932 -0.0219  1.6144 -0.1541
 1172SOL     OW 3905   1.435   1.278   6.345 -0.2192  0.1265 -0.2106
 1172SOL    HW1 3906   1.526   1.247   6.346  0.4257  1.8947  0.2482
 1172SOL    HW2 3907   1.401   1.255   6.432  0.6513  1.7118  0.5958
 1173SOL     OW 3908   1.686   3.540   4.928 -0.0759  0.4049 -0.0783
 1173SOL    HW1 3909   1.607   3.490   4.909 -0.4411  0.5255  1.0380
 1173SOL    HW2 3910   1.657   3.611   4.986  0.7316  0.8603 -0.2101
 1174SOL     OW 3911   0.799   1.030   4.046 -0.5995 -0.7020 -0.0807
 1174SOL    HW1 3912   0.872   1.023   3.985 -0.8285  0.8017 -0.5764
 1174SOL    HW2 3913   0.722   1.009   3.993 -0.6368 -1.1615  0.1513
 1175SOL     OW 3914   6.730   5.764   3.895 -0.7433 -0.1032 -0.0789
 1175SOL    HW1 3915   6.648   5.813   3.883 -0.4853 -0.0788 -2.2641
 1175SOL    HW2 3916   6.797   5.832   3.901 -0.6974 -0.1441 -0.1332
 1176SOL     OW 3917   0.073   3.659   1.664 -0.1411  0.3862 -0.2711
 1176SOL    HW1 3918   0.055   3.735   1.719  0.9561  0.4731  0.0030
 1176SOL    HW2 3919  -0.010   3.611   1.660 -0.4575  0.8196  0.7737
 1177SOL     OW 3920   3.134   0.295   6.693  0.1496  0.0709 -0.5961
 1177SOL    HW1 3921   3.072   0.318   6.624 -0.1120  1.7161  0.1382
 1177SOL    HW2 3922   3.096   0.218   6.736 -0.9612  0.5551 -0.6876
 1178SOL     OW 3923   1.279   2.381   0.754 -0.0117  0.2532 -0.2004
 1178SOL    HW1 3924   1.203   2.438   0.749  0.5916  0.9852 -1.5722
 1178SOL    HW2 3925   1.313   2.379   0.664  0.8480 -1.0717  0.1317
 1179SOL     OW 3926   2.299   6.218   1.753  0.0769  0.3040 -0.4704
 1179SOL    HW1 3927   2.258   6.132   1.743 -0.4652  0.6071 -0.8846
 1179SOL    HW2 3928   2.342   6.214   1.839 -0.7784 -0.0345 -0.0502
 1180SOL     OW 3929   1.201   6.375   6.102 -0.2613 -0.0354  0.3702
 1180SOL    HW1 3930   1.243   6.325   6.171  0.7159  2.1035  1.4130
 1180SOL    HW2 3931   1.268   6.383   6.034 -0.3230  0.1037  0.3261
 1181SOL     OW 3932   0.842   5.622   5.968  0.4935  0.3883 -0.2162
 1181SOL    HW1 3933   0.828   5.564   6.042 -0.6226  2.8494  1.6209
 1181SOL    HW2 3934   0.761   5.617   5.918  0.5150  0.1819 -0.2341
 1182SOL     OW 3935   2.216   3.504   2.832  0.0470 -0.0308 -0.0451
 1182SOL    HW1 3936   2.304   3.469   2.821  0.0844 -0.5801  1.7669
 1182SOL    HW2 3937   2.221   3.592   2.793  0.4925 -1.1579 -2.7971
 1183SOL     OW 3938   6.596   4.921   5.396  0.0812  0.1054 -0.2707
 1183SOL    HW1 3939   6.621   4.929   5.304 -0.8928 -0.3256 -0.5886
 1183SOL    HW2 3940   6.622   4.832   5.420  0.5129  0.2830 -0.0635
 1184SOL     OW 3941   2.894   2.666   2.864  0.3463 -0.4406 -0.1228
 1184SOL    HW1 3942   2.868   2.672   2.956  0.2486  0.0984 -0.1818
 1184SOL    HW2 3943   2.967   2.604   2.864  0.6684 -0.0692  0.3892
 1185SOL     OW 3944   6.647   3.485   2.352 -0.4060 -0.2560 -0.1178
 1185SOL    HW1 3945   6.692   3.569   2.339 -1.2681  0.2163 -0.1440
 1185SOL    HW2 3946   6.713   3.428   2.391  0.6483 -0.0262 -1.4702
 1186SOL     OW 3947   1.614   4.074   3.135  0.8026 -0.0963 -0.2216
 1186SOL    HW1 3948   1.662   3.993   3.116 -1.2940 -1.5720  0.5101
 1186SOL    HW2 3949   1.522   4.050   3.130  0.1115  2.1545  0.4698
 1187SOL     OW 3950   3.122   0.963   2.223 -0.0050  0.2408  0.3491
 1187SOL    HW1 3951   3.031   0.963   2.254  0.2757  3.2711  1.4974
 1187SOL    HW2 3952   3.175   0.970   2.302  1.0700  1.5450 -0.4485
 1188SOL     OW 3953   6.045   3.367   6.593 -0.5995  1.0293  0.0693
 1188SOL    HW1 3954   6.044   3.387   6.686 -1.6818  2.1458 -0.1534
 1188SOL    HW2 3955   5.966   3.410   6.558  0.5526  1.9154 -1.6037
 1189SOL     OW 3956   4.340   0.354   6.709  0.2996  0.3517  0.3339
 1189SOL    HW1 3957   4.376   0.377   6.794 -1.9916  0.3318  1.3994
 1189SOL    HW2 3958   4.351   0.259   6.703 -1.2057  0.0685  1.5168
 1190SOL     OW 3959   2.805   0.733   1.809 -0.7182  0.2208  0.5089
 1190SOL    HW1 3960   2.762   0.816   1.790  0.4662  0.8158  0.2881
 1190SOL    HW2 3961   2.844   0.745   1.895  1.1362  0.6509 -0.3391
 1191SOL     OW 3962   5.035   2.750   6.417  0.3185  0.2313  0.2843
 1191SOL    HW1 3963   5.041   2.675   6.475  0.4703 -0.6550 -0.8543
 1191SOL    HW2 3964   4.942   2.758   6.396  0.1247  1.1369  1.3588
 1192SOL     OW 3965   2.114   2.713   6.385  0.3501 -0.1322 -0.1424
 1192SOL    HW1 3966   2.205   2.691   6.362  0.7297  0.7912  0.4378
 1192SOL    HW2 3967   2.081   2.634   6.428  0.9527 -0.3996 -0.1561
 1193SOL     OW 3968   5.911   3.893   5.539 -0.0986  0.3740  0.0778
 1193SOL    HW1 3969   5.997   3.858   5.563 -0.2317  0.6004  0.9024
 1193SOL    HW2 3970   5.858   3.882   5.618 -0.1406  2.4699  0.3995
 1194SOL     OW 3971   4.046   6.376   0.156  0.3356  0.4146  0.9152
 1194SOL    HW1 3972   4.014   6.435   0.087  1.3639  0.2678  0.2847
 1194SOL    HW2 3973   3.967   6.331   0.187 -0.0728 -0.0773 -0.7207
 1195SOL     OW 3974   2.241   6.024   2.591  0.3875 -0.6759  0.2176
 1195SOL    HW1 3975   2.250   6.102   2.537  1.0467 -2.1507 -1.9120
 1195SOL    HW2 3976   2.321   6.021   2.643  1.6809 -1.3472 -1.7181
 1196SOL     OW 3977   1.486   0.803   5.504 -0.0478 -0.1846 -0.0698
 1196SOL    HW1 3978   1.440   0.876   5.463  0.3408 -0.4353 -0.9834
 1196SOL    HW2 3979   1.417   0.737   5.519 -0.6367  0.8270  1.9247
 1197SOL     OW 3980   1.236   3.266   4.287 -0.3635  0.1505 -0.1222
 1197SOL    HW1 3981   1.247   3.346   4.337  2.0422 -1.0080  1.3764
 1197SOL    HW2 3982   1.217   3.198   4.352  0.1526 -0.9328 -1.0533
 1198SOL     OW 3983   1.473   2.934   3.523 -0.1997  0.1904 -0.5579
 1198SOL    HW1 3984   1.422   2.875   3.578 -1.7373 -0.6283 -2.7155
 1198SOL    HW2 3985   1.443   2.916   3.434  1.3279  2.2536 -1.5848
 1199SOL     OW 3986   5.662   6.775   6.355 -0.9898  0.2827  0.4841
 1199SOL    HW1 3987   5.635   6.803   6.443  0.6607  1.8101  0.5678
 1199SOL    HW2 3988   5.735   6.715   6.371 -2.0058 -1.0893  0.1719
 1200SOL     OW 3989   1.437   3.682   2.004  0.3527 -0.6667  0.6927
 1200SOL    HW1 3990   1.461   3.626   1.930  0.3721 -0.7993  0.7976
 1200SOL    HW2 3991   1.447   3.625   2.080 -2.7968 -1.6002  0.5793
 1201SOL     OW 3992   3.080   2.168   5.063 -1.4482 -0.3767  0.2626
 1201SOL    HW1 3993   3.027   2.144   4.986 -0.3472  0.9179 -0.9564
 1201SOL    HW2 3994   3.082   2.263   5.062 -1.8169 -0.3012  2.2498
 1202SOL     OW 3995   2.700   5.302   2.178 -0.1538  0.3436  0.4873
 1202SOL    HW1 3996   2.634   5.294   2.109 -0.0504  1.7314  0.1862
 1202SOL    HW2 3997   2.706   5.397   2.194  2.4912  0.3843 -0.2381
 1203SOL     OW 3998   6.435   0.704   0.110 -0.1461 -0.2755  0.0910
 1203SOL    HW1 3999   6.470   0.737   0.028 -0.6277 -0.8820 -0.3651
 1203SOL    HW2 4000   6.445   0.776   0.172 -0.0349  0.2736 -0.5672
 1204SOL     OW 4001   0.640   3.800   1.835  0.6611  0.0288  0.2542
 1204SOL    HW1 4002   0.674   3.887   1.814 -0.5892  0.4387 -0.1932
 1204SOL    HW2 4003   0.645   3.795   1.930 -1.3396  1.5502  0.5189
 1205SOL     OW 4004   5.962   6.310   4.336  0.4507 -0.0707  0.0659
 1205SOL    HW1 4005   5.984   6.229   4.383  1.7636  0.2490  0.0480
 1205SOL    HW2 4006   5.930   6.280   4.251 -1.4199 -0.6353  0.9054
 1206SOL     OW 4007   4.843   0.431   1.036 -0.1185  0.5693 -0.1436
 1206SOL    HW1 4008   4.783   0.496   1.000 -0.1917  0.3446 -0.4328
 1206SOL    HW2 4009   4.786   0.358   1.062  0.0257  0.3538 -0.4245
 1207SOL     OW 4010   3.385   3.994   6.649  0.0469 -0.2595  0.6702
 1207SOL    HW1 4011   3.294   3.980   6.676 -0.6943 -0.3725 -1.6957
 1207SOL    HW2 4012   3.414   3.908   6.619  0.7300 -0.0791  0.7972
 1208SOL     OW 4013   6.398   4.208   4.093 -0.4535  0.1103 -0.2047
 1208SOL    HW1 4014   6.382   4.155   4.015  1.6177 -0.6998 -0.1436
 1208SOL    HW2 4015   6.376   4.150   4.166  0.1356 -0.0778 -0.1683
 1209SOL     OW 4016   0.832   0.159   0.806  0.6743 -0.4409  0.2619
 1209SOL    HW1 4017   0.923   0.128   0.809  0.6451 -0.5235  0.2913
 1209SOL    HW2 4018   0.833   0.230   0.742  0.7625 -0.4339  0.2710
 1210SOL     OW 4019   1.912   6.260   2.427 -0.3981  0.1923  0.7584
 1210SOL    HW1 4020   1.977   6.223   2.368 -0.2899 -1.5437  1.8997
 1210SOL    HW2 4021   1.963   6.313   2.489 -0.4722  1.6627 -0.3696
 1211SOL     OW 4022   0.137   2.556   2.719 -0.0720 -0.2163  0.6677
 1211SOL    HW1 4023   0.136   2.532   2.626  1.4194  1.9831  0.0042
 1211SOL    HW2 4024   0.045   2.567   2.742 -0.4609 -0.7513 -0.5409
 1212SOL     OW 4025   1.502   5.915   4.110  0.5353  0.4314  0.3350
 1212SOL    HW1 4026   1.550   5.840   4.144 -1.2026 -1.4177 -1.0307
 1212SOL    HW2 4027   1.421   5.918   4.162 -0.4013 -0.0682 -1.0260
 1213SOL     OW 4028   5.108   6.495   0.769 -0.0733  0.5063 -0.6362
 1213SOL    HW1 4029   5.061   6.578   0.769  1.7936  1.6834 -2.2835
 1213SOL    HW2 4030   5.172   6.503   0.839  0.7721  0.9188 -1.4320
 1214SOL     OW 4031   6.820   2.192   2.339  0.0978  0.0751 -0.6049
 1214SOL    HW1 4032   6.808   2.191   2.244  1.1917 -1.7496 -0.7701
 1214SOL    HW2 4033   6.738   2.158   2.374  0.1571 -0.4870 -0.9913
 1215SOL     OW 4034   1.843   0.291   0.921  0.0611  0.5169  0.3868
 1215SOL    HW1 4035   1.793   0.288   1.002 -0.4814  2.4004  0.1721
 1215SOL    HW2 4036   1.930   0.259   0.945 -0.8165 -1.5755  1.0482
 1216SOL     OW 4037   1.280   0.637   1.113 -0.3820 -0.7000 -0.5276
 1216SOL    HW1 4038   1.210   0.696   1.142  1.2890  0.4514  1.4409
 1216SOL    HW2 4039   1.286   0.571   1.182 -1.0727 -2.2461 -1.8766
 1217SOL     OW 4040   3.091   5.334   1.901 -0.3315  0.3973  0.5268
 1217SOL    HW1 4041   3.078   5.347   1.995 -0.5491 -0.4111  0.6166
 1217SOL    HW2 4042   3.020   5.382   1.860 -1.4299 -0.8585  0.8686
 1218SOL     OW 4043   1.751   4.000   0.142 -1.0793  0.3165  0.4670
 1218SOL    HW1 4044   1.817   3.997   0.073  0.0617  0.7760  1.5122
 1218SOL    HW2 4045   1.718   4.090   0.139 -2.8543 -0.3070 -1.0885
 1219SOL     OW 4046   4.044   2.737   0.801 -0.2202 -0.0342  0.4102
 1219SOL    HW1 4047   4.136   2.762   0.792 -0.1006  0.1203  1.9020
 1219SOL    HW2 4048   3.998   2.821   0.807 -0.2910 -0.1273  1.1664
 1220SOL     OW 4049   4.645   5.354   4.268  0.0442  0.1882  0.5272
 1220SOL    HW1 4050   4.622   5.361   4.361  0.5324  0.8177  0.6003
 1220SOL    HW2 4051   4.563   5.371   4.222 -0.1313  0.1830  0.8330
 1221SOL     OW 4052   1.633   4.805   4.697 -0.0750  0.5761 -0.7346
 1221SOL    HW1 4053   1.674   4.809   4.611 -0.6931  0.7969 -1.0189
 1221SOL    HW2 4054   1.651   4.890   4.737  0.2860  0.4427 -0.6019
 1222SOL     OW 4055   2.492   3.582   4.834  0.3558 -0.1384 -0.2701
 1222SOL    HW1 4056   2.470   3.494   4.865  1.3282 -0.7115 -1.1533
 1222SOL    HW2 4057   2.544   3.620   4.904 -0.6606  0.0190  0.4247
 1223SOL     OW 4058   4.882   3.827   1.628 -0.1914 -0.4823  0.6373
 1223SOL    HW1 4059   4.888   3.907   1.681  0.4297  1.0356 -1.5934
 1223SOL    HW2 4060   4.932   3.762   1.677 -0.6224  0.4999  2.4678
 1224SOL     OW 4061   6.046   0.062   5.826  0.2193 -0.0599  0.4865
 1224SOL    HW1 4062   5.987   0.137   5.830  0.2483  0.1955 -2.2032
 1224SOL    HW2 4063   6.030   0.023   5.740  2.4124 -1.2842  0.5525
 1225SOL     OW 4064   2.014   6.782   6.131  0.2057  0.0381  0.2187
 1225SOL    HW1 4065   2.010   6.856   6.191  0.8125 -0.8977  1.4759
 1225SOL    HW2 4066   1.950   6.802   6.063 -0.4805  1.1628  1.1659
 1226SOL     OW 4067   6.812   3.977   3.113 -0.5720 -0.3140 -0.0113
 1226SOL    HW1 4068   6.792   3.951   3.203  2.2838 -1.7516  0.3485
 1226SOL    HW2 4069   6.781   3.903   3.060  0.8776 -1.1349  0.2270
 1227SOL     OW 4070   1.836   5.735   3.750 -0.2061 -0.5024  0.1966
 1227SOL    HW1 4071   1.930   5.750   3.745 -0.3588  0.2672 -0.5352
 1227SOL    HW2 4072   1.808   5.785   3.827  0.3278 -2.7300  1.9469
 1228SOL     OW 4073   2.235   5.215   3.257  0.0570  0.7804  0.0847
 1228SOL    HW1 4074   2.194   5.138   3.217 -1.3724  2.0578 -1.0246
 1228SOL    HW2 4075   2.204   5.214   3.348 -0.6608  0.5167 -0.1527
 1229SOL     OW 4076   2.483   2.455   4.512 -0.2263  0.0918 -0.1121
 1229SOL    HW1 4077   2.532   2.537   4.506  0.1507 -0.2216 -1.9556
 1229SOL    HW2 4078   2.535   2.401   4.572  0.2292  0.7201  0.0772
 1230SOL     OW 4079   3.077   0.458   3.857 -0.2945 -0.7676  0.8834
 1230SOL    HW1 4080   3.050   0.368   3.872 -1.7407 -0.8958 -1.7804
 1230SOL    HW2 4081   3.143   0.452   3.787 -0.2652  0.2217  0.8107
 1231SOL     OW 4082   4.189   4.855   2.779  0.1689  0.9667  0.3362
 1231SOL    HW1 4083   4.198   4.934   2.726 -0.3606  2.0076  1.7203
 1231SOL    HW2 4084   4.108   4.814   2.749  0.8846  0.4474 -0.9784
 1232SOL     OW 4085   0.719   4.917   0.902  0.2601 -0.4351  0.1588
 1232SOL    HW1 4086   0.773   4.843   0.875 -0.2455 -0.2513 -1.5155
 1232SOL    HW2 4087   0.773   4.965   0.964  1.5711 -0.8561 -0.6097
 1233SOL     OW 4088   2.196   3.041   4.263  0.0793  0.2210 -0.3325
 1233SOL    HW1 4089   2.180   2.971   4.327  0.6520  0.3804 -0.0046
 1233SOL    HW2 4090   2.252   3.103   4.310  0.9180  0.0946 -1.1313
 1234SOL     OW 4091   0.662   4.293   0.523 -0.2376  0.1669 -0.0038
 1234SOL    HW1 4092   0.641   4.241   0.445 -0.6825 -0.0862  0.2861
 1234SOL    HW2 4093   0.752   4.322   0.508 -0.2149 -0.1313 -0.4729
 1235SOL     OW 4094   0.380   1.182   3.212  0.2186 -0.0928  0.3924
 1235SOL    HW1 4095   0.318   1.186   3.139 -0.4305  1.8672  0.9853
 1235SOL    HW2 4096   0.436   1.259   3.199  1.0563 -0.5528  1.1611
 1236SOL     OW 4097   3.251   5.430   4.391  0.5239 -0.9606  0.2419
 1236SOL    HW1 4098   3.178   5.374   4.417 -0.7655  0.7433  0.4742
 1236SOL    HW2 4099   3.236   5.448   4.298 -0.0308  0.3014  0.5517
 1237SOL     OW 4100   5.087   2.670   5.281  0.4126 -0.4987  0.3849
 1237SOL    HW1 4101   4.992   2.668   5.268  0.6957 -0.0385 -2.2180
 1237SOL    HW2 4102   5.106   2.589   5.329 -1.1180 -1.4030 -0.4594
 1238SOL     OW 4103   6.126   3.913   3.441  0.4757 -0.0765  0.3460
 1238SOL    HW1 4104   6.103   3.964   3.363  0.1917  2.2310  1.8616
 1238SOL    HW2 4105   6.042   3.890   3.480  0.6191  1.0924  1.3792
 1239SOL     OW 4106   2.950   3.366   2.883 -0.4053 -0.0585  0.2838
 1239SOL    HW1 4107   3.034   3.387   2.843 -1.0483  1.5096 -0.3357
 1239SOL    HW2 4108   2.906   3.450   2.893 -1.7046 -0.7845  1.0598
 1240SOL     OW 4109   3.940   6.102   4.941 -0.4674  0.2738 -0.5410
 1240SOL    HW1 4110   3.873   6.171   4.932  1.5934  2.2083 -2.5159
 1240SOL    HW2 4111   4.003   6.138   5.003 -0.0398 -0.4084 -0.5709
 1241SOL     OW 4112   5.642   0.066   0.027 -0.1678 -0.0514 -0.3716
 1241SOL    HW1 4113   5.688   0.064  -0.057  0.2655  0.4982 -0.1471
 1241SOL    HW2 4114   5.589  -0.015   0.027  1.0375 -0.8639 -0.4900
 1242SOL     OW 4115   4.278   5.528   1.656  0.2533  0.4417  0.5145
 1242SOL    HW1 4116   4.287   5.567   1.743  1.8045  0.6830  0.2729
 1242SOL    HW2 4117   4.184   5.512   1.646 -0.0616  1.3774  1.8057
 1243SOL     OW 4118   5.114   4.113   0.334 -0.2424  0.3195 -0.2269
 1243SOL    HW1 4119   5.092   4.102   0.427 -0.8480 -0.0827 -0.4066
 1243SOL    HW2 4120   5.137   4.205   0.325 -2.9669  1.0956 -0.1984
 1244SOL     OW 4121   5.251   6.200   2.346 -1.0963  0.1166 -0.0251
 1244SOL    HW1 4122   5.207   6.142   2.285 -2.1783 -0.9058  1.6424
 1244SOL    HW2 4123   5.305   6.143   2.400  0.1062  1.0329 -0.1994
 1245SOL     OW 4124   0.732   6.201   0.896  0.1382 -0.2532 -0.2280
 1245SOL    HW1 4125   0.779   6.118   0.888 -0.0844 -0.3750 -0.2664
 1245SOL    HW2 4126   0.794   6.266   0.864  0.2094 -0.4381 -0.4692
 1246SOL     OW 4127   1.631   0.713   1.030 -0.4280  0.5807 -0.0078
 1246SOL    HW1 4128   1.717   0.751   1.011 -1.4547  1.6388 -2.9805
 1246SOL    HW2 4129   1.597   0.765   1.102  2.0796 -1.0792  2.6202
 1247SOL     OW 4130   3.811   6.176   3.415 -0.4566  0.1081 -0.0054
 1247SOL    HW1 4131   3.884   6.119   3.440 -0.2853 -0.9734 -2.6131
 1247SOL    HW2 4132   3.853   6.254   3.381 -0.6370  0.7589  1.2113
 1248SOL     OW 4133   4.373   5.221   0.391 -0.4443 -0.2311  0.4924
 1248SOL    HW1 4134   4.368   5.247   0.483 -0.3863 -1.3966  0.8346
 1248SOL    HW2 4135   4.466   5.206   0.375  0.0010  2.9376 -0.6398
 1249SOL     OW 4136   0.359   5.038   0.908 -0.1974 -0.3747 -0.0376
 1249SOL    HW1 4137   0.274   5.060   0.870 -0.9251 -1.7497  0.7121
 1249SOL    HW2 4138   0.340   4.969   0.971  1.6795 -1.8234 -0.9547
 1250SOL     OW 4139   4.731   3.380   2.421 -0.4003 -1.0377  0.6464
 1250SOL    HW1 4140   4.720   3.458   2.476 -0.7838  0.0363 -0.8947
 1250SOL    HW2 4141   4.814   3.395   2.375  0.0357 -2.0346  1.0749
 1251SOL     OW 4142   2.889   2.387   5.026  0.3597  0.1490  0.1858
 1251SOL    HW1 4143   2.843   2.326   5.084 -2.1384  0.0306 -1.7693
 1251SOL    HW2 4144   2.875   2.473   5.065  1.0030 -0.1476  1.1233
 1252SOL     OW 4145   0.823   4.775   5.980 -0.5355 -0.1401 -0.2026
 1252SOL    HW1 4146   0.851   4.867   5.974 -1.2549  0.1183  0.2867
 1252SOL    HW2 4147   0.796   4.764   6.071 -1.6869 -0.4600 -0.5608
 1253SOL     OW 4148   6.821   3.548   2.914 -0.2802  0.2886 -0.0088
 1253SOL    HW1 4149   6.801   3.616   2.978 -1.3713  0.4722 -0.5331
 1253SOL    HW2 4150   6.736   3.523   2.877  0.1029 -1.2380  0.0442
 1254SOL     OW 4151   2.921   0.122   4.953 -0.6430  0.1401  0.3352
 1254SOL    HW1 4152   2.866   0.143   4.877 -1.6037 -2.3796  0.2465
 1254SOL    HW2 4153   2.874   0.160   5.027 -1.3156  0.0227 -0.0160
 1255SOL     OW 4154   6.733   1.945   0.223  0.0431 -0.0745  0.1232
 1255SOL    HW1 4155   6.655   1.960   0.276 -0.0486  1.7528 -0.4558
 1255SOL    HW2 4156   6.754   1.852   0.236 -2.6377 -0.8238 -0.2909
 1256SOL     OW 4157   6.411   3.641   1.419 -0.1490  0.3164  0.4066
 1256SOL    HW1 4158   6.378   3.557   1.452  0.9738 -0.1942  0.2879
 1256SOL    HW2 4159   6.477   3.667   1.483  0.5851  0.3415 -0.3503
 1257SOL     OW 4160   4.065   5.981   1.110  0.2569 -0.0952  0.0747
 1257SOL    HW1 4161   4.148   6.005   1.151 -0.0760  0.5989  0.3663
 1257SOL    HW2 4162   4.031   6.064   1.076  0.5683 -0.6578 -1.7173
 1258SOL     OW 4163   0.067   1.299   2.412  0.1777  0.1399 -0.0166
 1258SOL    HW1 4164   0.066   1.394   2.422  2.1061  0.0826  1.2564
 1258SOL    HW2 4165   0.003   1.267   2.475  0.7031  0.5486  0.7445
 1259SOL     OW 4166   5.566   6.216   0.413  0.7768  0.0299  0.1812
 1259SOL    HW1 4167   5.604   6.213   0.325 -0.0028  1.4354 -0.2414
 1259SOL    HW2 4168   5.472   6.208   0.398  0.7468 -1.7822  1.0776
 1260SOL     OW 4169   0.575   3.523   2.951 -0.0640  0.2060  0.1294
 1260SOL    HW1 4170   0.647   3.460   2.954 -0.9047 -0.7774  3.4607
 1260SOL    HW2 4171   0.609   3.600   2.995 -0.2863  0.6726 -0.4987
 1261SOL     OW 4172   4.415   6.217   2.215  0.5209  0.4811 -0.5907
 1261SOL    HW1 4173   4.328   6.214   2.255  1.1239  0.0286  0.7719
 1261SOL    HW2 4174   4.423   6.306   2.181 -0.4438  0.5444 -0.6601
 1262SOL     OW 4175   5.437   4.297   0.564 -0.0137 -0.3304 -0.3403
 1262SOL    HW1 4176   5.476   4.318   0.649 -2.7045  1.2177  0.6443
 1262SOL    HW2 4177   5.502   4.326   0.500  1.2373  0.3699  1.1569
 1263SOL     OW 4178   3.632   6.439   6.301  0.1685 -0.1092 -0.1746
 1263SOL    HW1 4179   3.625   6.417   6.394  0.6643 -0.0996 -0.1321
 1263SOL    HW2 4180   3.719   6.477   6.292 -0.1109  0.4588 -0.5301
 1264SOL     OW 4181   1.324   6.354   5.525  0.0396  0.0784 -0.0901
 1264SOL    HW1 4182   1.344   6.266   5.493  0.0896 -0.2926  0.9093
 1264SOL    HW2 4183   1.395   6.374   5.586  2.0333  2.2907 -2.8731
 1265SOL     OW 4184   6.384   2.668   1.995 -0.2296 -0.2683 -0.0235
 1265SOL    HW1 4185   6.368   2.580   1.962 -0.2059 -1.2979  2.4787
 1265SOL    HW2 4186   6.305   2.690   2.045  0.8806 -0.1447  1.8093
 1266SOL     OW 4187   3.597   4.261   4.008  0.3810 -0.2133 -0.0201
 1266SOL    HW1 4188   3.657   4.308   4.066 -1.3339  1.2681  0.6612
 1266SOL    HW2 4189   3.584   4.322   3.934  0.3238 -0.8564 -0.5497
 1267SOL     OW 4190   0.141   4.452   1.440 -0.9434 -0.0928  0.2392
 1267SOL    HW1 4191   0.053   4.428   1.412 -1.5431  1.7219  0.4174
 1267SOL    HW2 4192   0.134   4.459   1.536 -0.3179 -0.9790  0.3572
 1268SOL     OW 4193   2.738   0.440   3.465 -0.1480 -0.0365 -0.5174
 1268SOL    HW1 4194   2.702   0.353   3.444  1.0459 -0.3047 -1.5529
 1268SOL    HW2 4195   2.833   0.426   3.467  0.1595  1.5422 -2.1596
 1269SOL     OW 4196   6.157   4.068   3.133 -0.3295 -0.2977  0.4827
 1269SOL    HW1 4197   6.121   4.082   3.046  0.5705  0.5274  0.2311
 1269SOL    HW2 4198   6.095   4.112   3.192  0.2238  1.0959  0.0585
 1270SOL     OW 4199   1.198   5.248   2.390 -0.2775  0.3593 -0.2184
 1270SOL    HW1 4200   1.147   5.316   2.347  0.6630  0.0947 -1.8164
 1270SOL    HW2 4201   1.134   5.183   2.417 -1.2338  1.9353  1.5712
 1271SOL     OW 4202   5.168   6.750   0.133  0.3598 -0.8199 -0.3999
 1271SOL    HW1 4203   5.179   6.843   0.115 -0.8445 -1.1184 -3.1998
 1271SOL    HW2 4204   5.255   6.713   0.122  0.7996 -0.0947  0.5002
 1272SOL     OW 4205   0.378   1.859   5.043 -1.0246 -0.4646  0.2076
 1272SOL    HW1 4206   0.345   1.869   4.953 -0.9420  0.2506  0.2524
 1272SOL    HW2 4207   0.321   1.915   5.096  0.4747  1.1021  0.2320
 1273SOL     OW 4208   4.757   1.783   0.785 -0.6299 -0.3902  0.3380
 1273SOL    HW1 4209   4.724   1.868   0.813  0.6334  0.0850  0.4421
 1273SOL    HW2 4210   4.842   1.802   0.746 -0.9457 -1.4415 -0.9255
 1274SOL     OW 4211   6.176   6.070   6.530  0.1149  0.3660  0.5511
 1274SOL    HW1 4212   6.215   6.144   6.485  0.1986  0.5216  0.8756
 1274SOL    HW2 4213   6.093   6.055   6.485  1.1169 -0.8070 -1.0272
 1275SOL     OW 4214   2.103   2.107   0.439  0.3231 -0.0559  0.2150
 1275SOL    HW1 4215   2.135   2.039   0.380 -0.8750 -0.3133 -0.1683
 1275SOL    HW2 4216   2.150   2.186   0.413  1.5817 -0.6710  0.5315
 1276SOL     OW 4217   6.525   0.095   0.349  0.3134 -0.6398 -0.0117
 1276SOL    HW1 4218   6.477   0.129   0.274 -0.4274  0.1103  0.7881
 1276SOL    HW2 4219   6.596   0.158   0.363  0.1345 -0.4972  0.2473
 1277SOL     OW 4220   2.114   2.541   1.909 -0.4999  0.0669  0.2133
 1277SOL    HW1 4221   2.045   2.496   1.860  0.0477 -1.8768  1.0945
 1277SOL    HW2 4222   2.080   2.545   1.999 -0.6161  1.6536  0.1152
 1278SOL     OW 4223   3.557   0.853   1.937  0.7727  0.2959  0.2002
 1278SOL    HW1 4224   3.524   0.880   2.023 -0.8238 -0.4951 -0.1104
 1278SOL    HW2 4225   3.652   0.858   1.944  0.7081 -0.3648  2.2357
 1279SOL     OW 4226   5.510   3.971   1.571 -0.0894 -0.3469  0.3214
 1279SOL    HW1 4227   5.586   4.013   1.531 -0.3088  1.1117  1.3536
 1279SOL    HW2 4228   5.493   4.022   1.650 -0.7728 -2.0219  1.3326
 1280SOL     OW 4229   6.022   2.177   5.008 -0.1035  0.6862 -0.0912
 1280SOL    HW1 4230   5.991   2.218   4.927 -0.3702  1.6040  0.4497
 1280SOL    HW2 4231   6.019   2.248   5.073 -0.4498 -0.1605  0.8545
 1281SOL     OW 4232   1.451   4.107   2.303  0.4196  0.6523  0.1913
 1281SOL    HW1 4233   1.453   4.022   2.260  1.8425  0.7756 -0.0486
 1281SOL    HW2 4234   1.377   4.103   2.363  0.9961 -1.0664  0.8202
 1282SOL     OW 4235   6.725   1.354   3.220  0.6636 -0.1770 -0.4089
 1282SOL    HW1 4236   6.644   1.397   3.247 -0.3698 -1.7951 -0.8294
 1282SOL    HW2 4237   6.788   1.426   3.211 -0.7480  1.1336 -0.2152
 1283SOL     OW 4238   6.113   6.357   0.351  0.3197  0.0741  0.2782
 1283SOL    HW1 4239   6.185   6.421   0.357  2.1499 -1.8421  0.0239
 1283SOL    HW2 4240   6.136   6.290   0.415  0.3624 -2.0707 -1.8679
 1284SOL     OW 4241   0.441   3.787   4.553  0.4886  0.3185  0.1329
 1284SOL    HW1 4242   0.367   3.733   4.526  1.2327  0.1210 -1.6923
 1284SOL    HW2 4243   0.461   3.758   4.643 -0.0062 -1.4784 -0.2915
 1285SOL     OW 4244   4.016   4.895   4.658  0.5468 -0.1772 -0.3398
 1285SOL    HW1 4245   4.078   4.934   4.720 -0.3897 -0.7049  0.9568
 1285SOL    HW2 4246   4.037   4.937   4.574  1.6740  0.7334  0.3716
 1286SOL     OW 4247   4.672   4.424   1.916  0.0789 -0.3331 -0.9591
 1286SOL    HW1 4248   4.712   4.471   1.843  0.3581  1.7566  0.4444
 1286SOL    HW2 4249   4.713   4.461   1.994 -0.9914 -1.7135  0.3179
 1287SOL     OW 4250   0.760   4.981   2.383 -0.0698 -0.6997  0.0141
 1287SOL    HW1 4251   0.737   5.074   2.374 -0.1347 -0.6056  1.0481
 1287SOL    HW2 4252   0.690   4.935   2.336 -1.5003 -0.3333  1.6908
 1288SOL     OW 4253   1.761   1.867   4.268 -0.1615 -0.0984  0.5700
 1288SOL    HW1 4254   1.666   1.868   4.257  0.0040  0.8878 -1.2284
 1288SOL    HW2 4255   1.793   1.934   4.208  1.7280 -0.9352  0.5485
 1289SOL     OW 4256   0.902   0.018   1.091 -0.1967  0.3005  0.1867
 1289SOL    HW1 4257   0.907  -0.074   1.114 -1.5603 -0.0996 -0.9915
 1289SOL    HW2 4258   0.827   0.025   1.031  0.3202  2.0354 -0.3448
 1290SOL     OW 4259   1.924   0.631   0.119 -0.9801  0.3489 -0.2235
 1290SOL    HW1 4260   1.850   0.589   0.162  0.7648 -2.3917  0.3508
 1290SOL    HW2 4261   1.932   0.586   0.035  0.8897 -0.5219  0.3594
 1291SOL     OW 4262   2.127   1.724   2.619 -0.2026 -0.2843 -0.3021
 1291SOL    HW1 4263   2.206   1.778   2.617 -0.7277  0.5073 -1.6421
 1291SOL    HW2 4264   2.124   1.682   2.532 -2.3674  1.4656 -1.1855
 1292SOL     OW 4265   3.859   5.949   2.572  0.3584  0.4503  0.2255
 1292SOL    HW1 4266   3.934   5.991   2.529  0.2100 -0.7386 -1.2903
 1292SOL    HW2 4267   3.898   5.897   2.643  1.3543 -2.1227 -2.0466
 1293SOL     OW 4268   6.709   6.591   3.821  0.2761  0.0691 -0.1110
 1293SOL    HW1 4269   6.773   6.520   3.817 -1.5152 -1.8349  2.1361
 1293SOL    HW2 4270   6.667   6.591   3.735  0.1838 -1.7800 -0.1004
 1294SOL     OW 4271   0.885   5.123   0.985  0.0268 -0.0243 -0.2609
 1294SOL    HW1 4272   0.878   5.166   0.900  1.8359  0.0539 -0.4108
 1294SOL    HW2 4273   0.841   5.183   1.046  2.7229  2.3071 -0.4117
 1295SOL     OW 4274   5.321   3.000   4.318 -0.2315  0.0481  0.0163
 1295SOL    HW1 4275   5.394   3.029   4.262 -1.5953 -0.9045 -2.4206
 1295SOL    HW2 4276   5.350   2.915   4.352 -1.0775 -1.6054 -3.0441
 1296SOL     OW 4277   1.255   3.525   1.657  0.5371 -0.0847 -0.1054
 1296SOL    HW1 4278   1.164   3.555   1.651 -0.2020 -1.8561  1.2596
 1296SOL    HW2 4279   1.288   3.564   1.738  1.8555  2.5014 -1.7654
 1297SOL     OW 4280   0.998   3.876   6.657  0.0613 -0.1430  0.0403
 1297SOL    HW1 4281   1.048   3.936   6.600  2.1677  0.0844  1.9895
 1297SOL    HW2 4282   1.041   3.791   6.645  0.6590 -0.0548  1.3524
 1298SOL     OW 4283   0.371   0.622   0.092  0.6232  0.9592 -0.4610
 1298SOL    HW1 4284   0.316   0.554   0.053 -0.2945  1.2624  0.2658
 1298SOL    HW2 4285   0.458   0.583   0.095  0.1222 -0.1758 -0.0901
 1299SOL     OW 4286   4.715   0.702   2.651 -0.4783  0.2241 -0.2921
 1299SOL    HW1 4287   4.757   0.621   2.623  0.7438  1.4495 -2.2200
 1299SOL    HW2 4288   4.688   0.744   2.570  0.0213  2.3145  0.5768
 1300SOL     OW 4289   2.811   3.561   0.043  0.0238  0.1062  0.0435
 1300SOL    HW1 4290   2.749   3.489   0.051 -1.1421  1.1718  0.9491
 1300SOL    HW2 4291   2.759   3.640   0.054  1.1343  1.1618 -1.7336
 1301SOL     OW 4292   5.917   0.324   5.839  0.6623  0.6614 -0.3122
 1301SOL    HW1 4293   5.938   0.306   5.930 -0.9831  2.0396  0.3935
 1301SOL    HW2 4294   5.996   0.367   5.804  1.8064 -1.0676  0.0223
 1302SOL     OW 4295   3.759   2.605   6.724 -0.2016  0.1305 -0.2784
 1302SOL    HW1 4296   3.828   2.611   6.659  0.9222 -2.4633  0.5689
 1302SOL    HW2 4297   3.800   2.565   6.801 -2.1464  0.4800  1.0421
 1303SOL     OW 4298   1.162   2.310   6.333  0.3209 -0.3360 -0.3499
 1303SOL    HW1 4299   1.234   2.251   6.312  0.1132 -1.3995  1.6884
 1303SOL    HW2 4300   1.085   2.268   6.296  0.4768 -0.1868 -0.8481
 1304SOL     OW 4301   6.303   5.428   6.775 -0.1770 -0.2737  0.4521
 1304SOL    HW1 4302   6.395   5.420   6.748 -0.4780  0.1662 -0.7636
 1304SOL    HW2 4303   6.276   5.338   6.795  0.0875 -0.6272 -0.6973
 1305SOL     OW 4304   2.865   1.735   3.798  0.5724 -0.2044 -0.1148
 1305SOL    HW1 4305   2.943   1.764   3.750  1.0452  1.3324  1.5008
 1305SOL    HW2 4306   2.852   1.801   3.866 -1.2334 -1.2730  0.6566
 1306SOL     OW 4307   5.813   4.977   3.384 -0.1861 -0.1835 -0.5246
 1306SOL    HW1 4308   5.850   4.895   3.351  0.7668  0.3516 -0.8222
 1306SOL    HW2 4309   5.829   4.974   3.478  0.9485  0.1809 -0.6859
 1307SOL     OW 4310   0.248   1.867   6.772  0.2281 -0.3221 -0.0390
 1307SOL    HW1 4311   0.207   1.953   6.784  1.5008  0.5600 -1.5341
 1307SOL    HW2 4312   0.342   1.886   6.773  0.5225 -1.6639 -0.5540
 1308SOL     OW 4313   3.589   0.096   6.152 -0.2668  0.0345 -0.0062
 1308SOL    HW1 4314   3.648   0.152   6.201 -0.6765 -0.6263  1.2818
 1308SOL    HW2 4315   3.595   0.011   6.195 -1.8248 -0.1566 -0.0977
 1309SOL     OW 4316   2.134   5.930   6.619  0.4702 -0.4571  0.4526
 1309SOL    HW1 4317   2.111   5.982   6.543  2.0288 -1.6733 -0.9508
 1309SOL    HW2 4318   2.088   5.970   6.692  1.1287  2.4978 -0.6318
 1310SOL     OW 4319   3.374   5.477   2.924  0.2184  0.2322  0.0449
 1310SOL    HW1 4320   3.405   5.563   2.952  1.2479  0.4474 -1.6160
 1310SOL    HW2 4321   3.334   5.439   3.002  2.2263  1.1081  1.5886
 1311SOL     OW 4322   3.593   4.369   6.062  0.2606  0.5835 -0.2277
 1311SOL    HW1 4323   3.577   4.431   6.134 -0.7524 -0.4348  0.4530
 1311SOL    HW2 4324   3.599   4.425   5.984 -0.6675  1.5578  0.3555
 1312SOL     OW 4325   4.195   2.132   2.950 -0.2061 -0.0520 -0.3633
 1312SOL    HW1 4326   4.227   2.165   3.033  0.5725  3.2644 -1.8215
 1312SOL    HW2 4327   4.255   2.062   2.927  0.3663 -0.1150  1.2118
 1313SOL     OW 4328   4.935   5.590   0.808  0.1248  0.2170 -0.3681
 1313SOL    HW1 4329   4.893   5.600   0.894 -1.2083 -1.3832 -0.7876
 1313SOL    HW2 4330   4.915   5.672   0.763 -1.0898  0.1937  0.0761
 1314SOL     OW 4331   0.821   0.813   5.283 -0.5622 -0.1828  0.5107
 1314SOL    HW1 4332   0.799   0.841   5.194 -0.6104 -0.9181  0.2824
 1314SOL    HW2 4333   0.779   0.727   5.292 -0.8966  0.0592  1.3907
 1315SOL     OW 4334   2.640   2.561   3.933 -0.1233  0.5282  0.0651
 1315SOL    HW1 4335   2.559   2.513   3.949  0.1348 -0.3403 -1.0736
 1315SOL    HW2 4336   2.701   2.494   3.902  1.3297  1.0031  1.8025
 1316SOL     OW 4337   1.231   1.132   2.141  1.0824  0.0286  0.0209
 1316SOL    HW1 4338   1.183   1.060   2.101 -0.4965  0.1130  1.6579
 1316SOL    HW2 4339   1.203   1.132   2.232  1.2372  2.5494  0.1316
 1317SOL     OW 4340   0.994   0.274   6.523  0.1998 -0.4633  0.5539
 1317SOL    HW1 4341   0.937   0.202   6.495  0.6383 -0.9560  0.9022
 1317SOL    HW2 4342   0.997   0.333   6.448 -0.1602 -0.8157  0.2567
 1318SOL     OW 4343   3.573   3.197   4.351  0.1492  0.0836  0.0608
 1318SOL    HW1 4344   3.640   3.198   4.420 -0.6263 -0.5661  0.8467
 1318SOL    HW2 4345   3.501   3.249   4.386 -0.4279 -0.6114 -0.0617
 1319SOL     OW 4346   3.292   6.801   1.562 -0.1423 -0.4351 -0.3227
 1319SOL    HW1 4347   3.197   6.798   1.548 -0.3947  1.6296  0.6078
 1319SOL    HW2 4348   3.326   6.839   1.481 -0.1141 -0.9681 -0.5673
 1320SOL     OW 4349   1.255   3.282   0.749 -0.4719  0.5118 -0.2361
 1320SOL    HW1 4350   1.295   3.355   0.796  0.4709  0.5847 -1.1193
 1320SOL    HW2 4351   1.233   3.318   0.663 -1.2643  0.1085 -0.2174
 1321SOL     OW 4352   3.770   4.102   0.040 -0.3148 -0.0004  0.1648
 1321SOL    HW1 4353   3.795   4.195   0.037 -3.4177  1.0356  1.6631
 1321SOL    HW2 4354   3.726   4.086  -0.043  0.9602 -0.4085 -0.4465
 1322SOL     OW 4355   5.757   0.111   6.583 -0.7857  0.4328 -0.4458
 1322SOL    HW1 4356   5.671   0.067   6.585 -1.2644  1.3680  1.9062
 1322SOL    HW2 4357   5.738   0.202   6.603  0.7971  0.6010  0.4129
 1323SOL     OW 4358   5.421   2.603   4.291 -0.5619  0.8256 -0.7240
 1323SOL    HW1 4359   5.481   2.614   4.365 -0.6051 -1.7072 -0.2286
 1323SOL    HW2 4360   5.469   2.548   4.229 -1.2152  1.3866 -1.7590
 1324SOL     OW 4361   0.050   6.217   5.853  0.4736 -0.1500 -0.3114
 1324SOL    HW1 4362   0.134   6.254   5.881  1.8637 -2.6551 -0.7600
 1324SOL    HW2 4363   0.035   6.254   5.766  0.7614  0.8319  0.0454
 1325SOL     OW 4364   0.869   4.754   3.173  0.5197 -0.8834  0.6307
 1325SOL    HW1 4365   0.845   4.749   3.080 -0.3422  2.1275  0.5719
 1325SOL    HW2 4366   0.962   4.734   3.175  1.7629  3.4175 -1.7028
 1326SOL     OW 4367   4.692   1.689   4.294 -0.5056 -0.3553  0.1125
 1326SOL    HW1 4368   4.618   1.670   4.236 -1.3450  0.8014  0.7787
 1326SOL    HW2 4369   4.687   1.783   4.310  0.7468 -0.3695  0.6695
 1327SOL     OW 4370   6.153   3.225   3.145  0.2558 -0.1313  0.2394
 1327SOL    HW1 4371   6.103   3.215   3.064 -0.0549 -1.9863  0.6096
 1327SOL    HW2 4372   6.206   3.145   3.150  1.4645  0.6797  1.0870
 1328SOL     OW 4373   3.013   1.458   5.935 -0.6572 -0.1242 -0.1287
 1328SOL    HW1 4374   3.098   1.457   5.890 -0.3340 -1.0676  0.4808
 1328SOL    HW2 4375   2.949   1.465   5.864 -0.0637  2.8121 -0.5323
 1329SOL     OW 4376   0.342   2.312   3.757  0.1624  0.0455 -0.3784
 1329SOL    HW1 4377   0.315   2.268   3.838 -0.6715 -0.1106 -0.7302
 1329SOL    HW2 4378   0.419   2.363   3.782 -1.2633  1.6441  1.0185
 1330SOL     OW 4379   2.297   0.518   4.319  0.0303  0.2458 -0.3096
 1330SOL    HW1 4380   2.278   0.599   4.272  0.7507 -0.1965 -1.3985
 1330SOL    HW2 4381   2.215   0.496   4.364 -0.6070  0.8153 -1.1719
 1331SOL     OW 4382   5.672   3.430   2.270  0.6628 -0.5201 -0.3397
 1331SOL    HW1 4383   5.609   3.482   2.219 -1.2681 -2.8141 -0.4684
 1331SOL    HW2 4384   5.658   3.457   2.360 -0.5592 -1.0071 -0.3667
 1332SOL     OW 4385   4.052   1.920   2.448 -0.4958  0.4098  0.0812
 1332SOL    HW1 4386   4.018   1.970   2.523  0.0404  0.3574  0.3694
 1332SOL    HW2 4387   4.147   1.928   2.457 -0.3784 -1.2813  0.5668
 1333SOL     OW 4388   4.303   5.040   2.205  0.0811  0.5023  0.2808
 1333SOL    HW1 4389   4.375   4.976   2.211  0.0361  0.4959  0.7932
 1333SOL    HW2 4390   4.307   5.088   2.287 -1.2379 -0.2950  0.8469
 1334SOL     OW 4391   6.148   3.903   6.703 -0.5067  0.3299  0.0755
 1334SOL    HW1 4392   6.210   3.880   6.633 -1.2028 -0.9125 -0.1561
 1334SOL    HW2 4393   6.173   3.992   6.728  1.0778  0.0449 -0.3362
 1335SOL     OW 4394   4.753   1.361   0.349 -0.5189  0.1903  0.4142
 1335SOL    HW1 4395   4.746   1.273   0.387 -0.6074  0.5791  1.3364
 1335SOL    HW2 4396   4.823   1.402   0.399 -2.2690  1.5585  1.8844
 1336SOL     OW 4397   2.451   5.900   1.530 -0.0430  0.0722 -0.1213
 1336SOL    HW1 4398   2.435   5.877   1.438 -0.9024  0.6520 -0.1399
 1336SOL    HW2 4399   2.367   5.885   1.573 -0.7033  2.9908 -0.1352
 1337SOL     OW 4400   6.692   2.830   6.015 -0.2195  0.4180  0.4996
 1337SOL    HW1 4401   6.761   2.824   5.948  0.0933 -0.9935  0.9056
 1337SOL    HW2 4402   6.734   2.873   6.089  0.4393 -0.9413  0.9551
 1338SOL     OW 4403   1.456   2.650   2.035 -0.0457  0.0739 -0.0617
 1338SOL    HW1 4404   1.543   2.611   2.023 -0.0829  0.5492 -2.5403
 1338SOL    HW2 4405   1.395   2.578   2.017 -0.1312  0.3381 -0.8628
 1339SOL     OW 4406   6.381   2.729   5.216  0.6587  0.4316 -0.0739
 1339SOL    HW1 4407   6.396   2.668   5.144 -1.2724  0.2655 -0.3876
 1339SOL    HW2 4408   6.290   2.758   5.204  0.1582  0.1359  2.4844
 1340SOL     OW 4409   0.654   6.533   2.102 -0.0251  0.0103 -0.1100
 1340SOL    HW1 4410   0.558   6.537   2.104 -0.1148 -1.7909  0.7225
 1340SOL    HW2 4411   0.682   6.616   2.142 -1.1883  1.1168 -1.4666
 1341SOL     OW 4412   2.205   1.125   1.781  0.2739 -0.0426  0.1312
 1341SOL    HW1 4413   2.256   1.179   1.721 -0.2520  0.3960  0.0696
 1341SOL    HW2 4414   2.247   1.039   1.778  1.6409  0.5576  0.8564
 1342SOL     OW 4415   6.382   3.099   5.426 -0.4109  0.0646 -0.6924
 1342SOL    HW1 4416   6.421   3.186   5.429  1.3119 -0.6474 -1.2969
 1342SOL    HW2 4417   6.436   3.046   5.484 -0.3309 -1.0184 -1.7214
 1343SOL     OW 4418   1.915   6.712   0.807 -0.6190 -0.4584 -0.5711
 1343SOL    HW1 4419   1.995   6.659   0.811 -0.1548  0.0881 -1.9495
 1343SOL    HW2 4420   1.927   6.779   0.874  0.5195  0.1650 -1.3553
 1344SOL     OW 4421   3.713   4.456   3.793 -0.2750 -0.0817  0.2331
 1344SOL    HW1 4422   3.735   4.542   3.829  1.7290 -0.1144 -0.7674
 1344SOL    HW2 4423   3.661   4.476   3.715  0.1175  0.2160  0.0457
 1345SOL     OW 4424   5.274   0.034   6.214 -0.2089 -0.2946 -0.1981
 1345SOL    HW1 4425   5.231   0.117   6.191 -0.8919 -1.3238 -3.0453
 1345SOL    HW2 4426   5.218  -0.005   6.281 -1.2406  0.4215 -0.6231
 1346SOL     OW 4427   3.169   5.632   3.058  0.1961 -0.2092  0.3348
 1346SOL    HW1 4428   3.224   5.578   3.114  0.3135  0.4586  0.8755
 1346SOL    HW2 4429   3.216   5.716   3.052 -0.5446  0.2177  0.4445
 1347SOL     OW 4430   0.023   2.426   4.032  0.1770  0.0062  0.4897
 1347SOL    HW1 4431  -0.007   2.468   3.952 -0.8036  1.3122  1.4855
 1347SOL    HW2 4432  -0.033   2.463   4.101 -0.9261 -3.0903  1.4404
 1348SOL     OW 4433   6.580   6.751   2.578  0.1514  0.6745  0.2351
 1348SOL    HW1 4434   6.673   6.729   2.581  0.2128  0.9767  1.9021
 1348SOL    HW2 4435   6.566   6.804   2.657 -1.4280  0.6305  0.0122
 1349SOL     OW 4436   5.540   4.424   6.555  0.3885 -0.9109  0.4786
 1349SOL    HW1 4437   5.492   4.399   6.476 -1.8045  0.8457  1.1447
 1349SOL    HW2 4438   5.552   4.518   6.546  1.8602 -0.9971  1.3697
 1350SOL     OW 4439   4.559   1.051   4.411  0.4256 -1.0274  0.2264
 1350SOL    HW1 4440   4.622   1.016   4.475  0.9307  0.2735  0.4741
 1350SOL    HW2 4441   4.564   1.146   4.423 -2.5872 -0.8930  1.1977
 1351SOL     OW 4442   0.818   4.278   2.844 -0.4533  0.1749 -0.0199
 1351SOL    HW1 4443   0.747   4.260   2.782 -0.5547 -0.3262  0.2414
 1351SOL    HW2 4444   0.777   4.330   2.913 -0.4212  0.4313 -0.1952
 1352SOL     OW 4445   4.573   0.142   3.013  0.0895 -0.4350 -0.3741
 1352SOL    HW1 4446   4.509   0.144   2.942  0.2593  0.0151 -0.5183
 1352SOL    HW2 4447   4.632   0.071   2.990  0.3270 -0.0902 -0.8513
 1353SOL     OW 4448   1.897   6.631   2.770  0.2923 -0.3095 -0.4453
 1353SOL    HW1 4449   1.980   6.661   2.732  1.1671  0.1425  1.7089
 1353SOL    HW2 4450   1.917   6.613   2.861 -2.4041  1.7378  0.6923
 1354SOL     OW 4451   5.141   4.322   3.100 -0.1667  0.5908  0.2403
 1354SOL    HW1 4452   5.100   4.380   3.037  1.3025 -0.1694 -1.5002
 1354SOL    HW2 4453   5.109   4.235   3.077  0.2786  0.3159  0.6401
 1355SOL     OW 4454   6.171   6.130   4.969 -0.2858 -0.3104  0.0412
 1355SOL    HW1 4455   6.183   6.144   4.875 -1.5748 -1.9625 -0.4355
 1355SOL    HW2 4456   6.130   6.043   4.974  1.4800 -1.0881  2.2528
 1356SOL     OW 4457   1.276   1.440   2.223 -1.3067 -0.3459 -0.5231
 1356SOL    HW1 4458   1.360   1.430   2.178  0.3358  3.3604  1.2046
 1356SOL    HW2 4459   1.287   1.392   2.305 -0.0819  1.4383  0.4331
 1357SOL     OW 4460   0.499   0.764   6.566  0.0284 -0.1703 -0.4603
 1357SOL    HW1 4461   0.407   0.748   6.542 -0.1356 -0.3504  0.2592
 1357SOL    HW2 4462   0.497   0.842   6.620  0.4366  0.4190 -1.2706
 1358SOL     OW 4463   1.454   2.803   4.706 -0.2525  0.0938  0.0988
 1358SOL    HW1 4464   1.524   2.743   4.681  1.8625  1.8542  1.4052
 1358SOL    HW2 4465   1.405   2.757   4.775  2.4973  0.4253  2.4630
 1359SOL     OW 4466   1.947   3.172   3.054  0.4087  0.2110  0.1454
 1359SOL    HW1 4467   1.925   3.265   3.041  0.5254  0.4252  1.3335
 1359SOL    HW2 4468   2.042   3.169   3.042  0.5357  0.4340  0.9966
 1360SOL     OW 4469   1.777   4.650   5.020 -0.2931 -0.6269  0.1699
 1360SOL    HW1 4470   1.788   4.745   5.020 -0.4254 -0.6116  0.2957
 1360SOL    HW2 4471   1.830   4.620   4.945 -1.4155 -0.3099 -0.7863
 1361SOL     OW 4472   1.231   3.695   5.724 -0.3793  0.1080  0.1929
 1361SOL    HW1 4473   1.246   3.786   5.752 -2.8887  0.7231 -0.2634
 1361SOL    HW2 4474   1.314   3.651   5.742  0.6622  2.3056  1.1514
 1362SOL     OW 4475   5.833   6.593   6.621 -0.2617  0.3279 -0.8399
 1362SOL    HW1 4476   5.912   6.631   6.581  1.2840  0.5984  2.1668
 1362SOL    HW2 4477   5.859   6.576   6.711 -3.2505 -1.0104 -0.1427
 1363SOL     OW 4478   0.790   3.391   6.022  0.0452 -0.3813 -0.0526
 1363SOL    HW1 4479   0.884   3.397   6.037 -0.1254  0.4314  0.7377
 1363SOL    HW2 4480   0.761   3.318   6.077  0.4148 -1.6048 -1.4046
 1364SOL     OW 4481   6.552   5.814   4.299  0.1323  0.7917  0.2980
 1364SOL    HW1 4482   6.608   5.775   4.231  0.0626  1.2363 -0.0185
 1364SOL    HW2 4483   6.525   5.739   4.352 -1.6252  0.0910 -1.4552
 1365SOL     OW 4484   5.018   2.225   2.876  0.3289 -0.3988  0.3152
 1365SOL    HW1 4485   5.097   2.275   2.897  1.7141 -2.5984  0.7697
 1365SOL    HW2 4486   4.996   2.179   2.957 -0.7130 -0.7392 -0.1428
 1366SOL     OW 4487   4.056   5.330   2.274  0.0163  0.2799 -0.5164
 1366SOL    HW1 4488   4.044   5.242   2.310  0.4645  0.2744 -0.3742
 1366SOL    HW2 4489   4.001   5.332   2.197  0.5776 -0.3861 -0.9515
 1367SOL     OW 4490   4.511   4.891   6.003 -0.3806 -0.3027  0.2466
 1367SOL    HW1 4491   4.540   4.824   5.941  0.2880  0.7646 -0.6228
 1367SOL    HW2 4492   4.513   4.973   5.953  2.1298  0.9425  2.1606
 1368SOL     OW 4493   1.067   5.779   5.663  0.3425  0.5250 -0.0740
 1368SOL    HW1 4494   0.996   5.775   5.598 -0.0383 -0.7744  0.3992
 1368SOL    HW2 4495   1.023   5.766   5.747  1.1377 -0.4348  0.2124
 1369SOL     OW 4496   4.820   2.419   5.823 -0.7603  0.0995  0.1696
 1369SOL    HW1 4497   4.891   2.391   5.881  1.0990  1.1583 -1.4570
 1369SOL    HW2 4498   4.836   2.513   5.811 -2.2726  0.2939 -0.4847
 1370SOL     OW 4499   3.125   4.041   2.207  0.1737  0.1635  0.3657
 1370SOL    HW1 4500   3.150   4.109   2.269 -0.0608 -0.6996  1.4353
 1370SOL    HW2 4501   3.205   3.991   2.193 -0.0248 -0.2880  0.8165
 1371SOL     OW 4502   1.073   5.138   4.054  0.1108  0.1782 -0.1503
 1371SOL    HW1 4503   1.124   5.217   4.038  0.7574 -0.2520 -0.2158
 1371SOL    HW2 4504   1.107   5.074   3.992 -0.3770 -0.1739 -0.0623
 1372SOL     OW 4505   1.420   3.047   6.434 -0.2361 -0.7923  0.5542
 1372SOL    HW1 4506   1.394   3.106   6.364  0.3153 -1.0224  0.1501
 1372SOL    HW2 4507   1.338   3.011   6.468 -0.5173 -0.4745  0.2120
 1373SOL     OW 4508   4.926   4.512   1.096  0.2912 -0.0692 -0.2077
 1373SOL    HW1 4509   4.897   4.564   1.021  0.2679  0.3557  0.0893
 1373SOL    HW2 4510   4.975   4.574   1.151 -0.7969 -0.0365  0.7671
 1374SOL     OW 4511   5.975   0.718   3.818  0.1766  0.0032  0.0610
 1374SOL    HW1 4512   5.986   0.794   3.876  0.8823  0.0999 -0.1899
 1374SOL    HW2 4513   5.990   0.753   3.730  0.0952 -0.3429 -0.0905
 1375SOL     OW 4514   4.040   6.260   3.557 -0.1242  0.1227  0.5891
 1375SOL    HW1 4515   4.128   6.235   3.530 -0.2755  0.3512 -0.1462
 1375SOL    HW2 4516   4.051   6.342   3.604  0.2812 -0.8612  2.3043
 1376SOL     OW 4517   0.219   2.095   5.727  0.4240  0.1488  0.2844
 1376SOL    HW1 4518   0.269   2.059   5.655  0.6093 -0.9962  0.9655
 1376SOL    HW2 4519   0.276   2.162   5.765  0.4122  0.6018 -0.4794
 1377SOL     OW 4520   2.242   5.760   5.423 -0.0977  0.2711 -0.0216
 1377SOL    HW1 4521   2.197   5.681   5.394 -0.3355 -0.5482  2.3622
 1377SOL    HW2 4522   2.212   5.828   5.362 -3.4483 -0.5378  0.5226
 1378SOL     OW 4523   0.533   4.182   1.631 -0.1556 -0.5092 -0.2484
 1378SOL    HW1 4524   0.581   4.111   1.674  0.1495  0.3876  0.9620
 1378SOL    HW2 4525   0.521   4.247   1.700 -2.6530 -0.4500 -0.6695
 1379SOL     OW 4526   1.224   6.257   6.653 -0.6244 -0.4939  0.4944
 1379SOL    HW1 4527   1.183   6.174   6.629  0.4384 -0.4347 -1.7426
 1379SOL    HW2 4528   1.203   6.316   6.581  1.9259  0.0138  0.0820
 1380SOL     OW 4529   1.004   0.724   6.721  0.2618 -0.1928  0.0659
 1380SOL    HW1 4530   0.914   0.691   6.731 -0.3175  0.8381 -1.3586
 1380SOL    HW2 4531   1.034   0.738   6.811 -1.5806  0.8611  0.5694
 1381SOL     OW 4532   1.710   0.809   0.069 -0.2196  0.3322 -0.0682
 1381SOL    HW1 4533   1.682   0.729   0.025  1.2436 -0.7982  0.9749
 1381SOL    HW2 4534   1.803   0.796   0.087 -0.1366  1.9260  0.8749
 1382SOL     OW 4535   3.421   1.898   5.246  0.2830 -0.4354 -0.6085
 1382SOL    HW1 4536   3.476   1.823   5.268  0.8303 -0.3134 -1.4706
 1382SOL    HW2 4537   3.339   1.884   5.294  0.5235 -1.3799 -0.4588
 1383SOL     OW 4538   0.051   4.732   4.014 -0.2300 -0.3469  0.0623
 1383SOL    HW1 4539   0.032   4.644   3.980 -0.5381 -0.2705  0.0313
 1383SOL    HW2 4540   0.025   4.791   3.943  0.3515 -0.2451 -0.0732
 1384SOL     OW 4541   4.069   2.696   4.890  0.0004  0.1915 -0.1131
 1384SOL    HW1 4542   4.161   2.708   4.869 -0.2273 -0.0107 -1.3213
 1384SOL    HW2 4543   4.027   2.679   4.805 -1.4151  1.9737  0.1581
 1385SOL     OW 4544   3.377   6.254   6.527  0.0595  0.0832  0.0848
 1385SOL    HW1 4545   3.326   6.173   6.526  0.0121  0.1149 -0.5141
 1385SOL    HW2 4546   3.360   6.294   6.442 -1.8919  1.9720  1.2491
 1386SOL     OW 4547   6.391   5.123   2.276 -0.6229 -0.3189 -0.0479
 1386SOL    HW1 4548   6.404   5.114   2.370 -0.0427 -0.9430 -0.1749
 1386SOL    HW2 4549   6.425   5.210   2.255  0.3362 -0.6246  0.1529
 1387SOL     OW 4550   5.070   2.025   6.469  0.1431 -0.4724 -0.0055
 1387SOL    HW1 4551   5.134   2.095   6.465  0.6498 -0.8388  1.2123
 1387SOL    HW2 4552   5.111   1.952   6.423 -0.4434  0.0466 -1.3990
 1388SOL     OW 4553   2.933   6.634   5.330  0.4629 -0.2583  0.0455
 1388SOL    HW1 4554   2.976   6.671   5.252 -1.8384  0.6630 -0.8674
 1388SOL    HW2 4555   2.924   6.541   5.309 -0.7289  0.0928 -1.1196
 1389SOL     OW 4556   5.872   1.652   6.562  0.5331  0.4666 -0.2741
 1389SOL    HW1 4557   5.959   1.690   6.553  0.7408 -0.2266 -1.4504
 1389SOL    HW2 4558   5.860   1.600   6.482 -0.5792 -0.2172  0.3094
 1390SOL     OW 4559   6.394   1.458   3.804 -0.6284 -0.2016  0.7007
 1390SOL    HW1 4560   6.354   1.495   3.883 -0.8125  0.2698  0.3932
 1390SOL    HW2 4561   6.479   1.426   3.833 -1.5173 -1.9475  1.5485
 1391SOL     OW 4562   5.139   0.245   6.456  0.0837  0.1355 -0.4683
 1391SOL    HW1 4563   5.080   0.189   6.405 -0.3364  0.4501 -0.3300
 1391SOL    HW2 4564   5.081   0.297   6.512  0.3062  2.0966 -1.9358
 1392SOL     OW 4565   0.112   4.112   6.434 -0.2471  0.0001 -0.0422
 1392SOL    HW1 4566   0.194   4.151   6.467 -0.1095 -0.8062  0.5934
 1392SOL    HW2 4567   0.111   4.134   6.341 -0.9962  3.0005  0.5418
 1393SOL     OW 4568   6.261   0.376   5.251  0.3903  0.2490 -0.1797
 1393SOL    HW1 4569   6.298   0.288   5.256 -3.2017 -1.4455 -0.1107
 1393SOL    HW2 4570   6.250   0.392   5.157 -2.7474 -1.3069 -0.1904
 1394SOL     OW 4571   6.540   2.699   0.487  0.3807  0.2574  0.3316
 1394SOL    HW1 4572   6.545   2.671   0.579 -0.9614  0.2361  0.4167
 1394SOL    HW2 4573   6.447   2.710   0.471  0.6594  1.2062 -0.7573
 1395SOL     OW 4574   2.387   4.692   1.069 -0.7773 -1.1356 -0.5636
 1395SOL    HW1 4575   2.473   4.694   1.111 -0.4363 -1.8690 -1.1913
 1395SOL    HW2 4576   2.344   4.772   1.099  0.3494 -0.4514 -0.6916
 1396SOL     OW 4577   0.437   1.605   2.764  0.1092  0.2282 -0.1216
 1396SOL    HW1 4578   0.480   1.530   2.722  0.6304  0.6776 -0.4091
 1396SOL    HW2 4579   0.502   1.675   2.760 -0.0193  0.4280  1.0007
 1397SOL     OW 4580   0.348   3.675   5.453 -0.2434  0.1990 -0.3478
 1397SOL    HW1 4581   0.391   3.692   5.370  0.1191  1.5606  0.0820
 1397SOL    HW2 4582   0.259   3.650   5.429  0.3831 -1.3000 -1.1898
 1398SOL     OW 4583   2.606   0.357   6.579  0.2066 -0.4808  0.1321
 1398SOL    HW1 4584   2.686   0.371   6.528  1.2772  1.4964  2.1776
 1398SOL    HW2 4585   2.535   0.387   6.523  1.1198 -0.3120 -0.9513
 1399SOL     OW 4586   4.583   0.684   1.827  0.4920  0.5079 -0.0290
 1399SOL    HW1 4587   4.512   0.734   1.867  1.4577  0.7481  1.4667
 1399SOL    HW2 4588   4.655   0.746   1.819  0.2610  0.5400 -2.4765
 1400SOL     OW 4589   6.688   2.665   5.031  0.0220 -0.2721  0.3415
 1400SOL    HW1 4590   6.670   2.740   5.088  0.2298  1.1138 -1.3068
 1400SOL    HW2 4591   6.741   2.702   4.960 -1.3927 -1.5743 -1.5082
 1401SOL     OW 4592   2.153   4.446   6.691  0.2336  0.2460  0.0452
 1401SOL    HW1 4593   2.196   4.504   6.754 -0.3103 -0.8301  1.4715
 1401SOL    HW2 4594   2.061   4.472   6.694 -0.0746 -0.8789  0.9592
 1402SOL     OW 4595   4.186   0.317   1.307  0.7547 -0.4886 -0.2972
 1402SOL    HW1 4596   4.168   0.259   1.382 -0.6162  1.0905  0.6588
 1402SOL    HW2 4597   4.130   0.393   1.321  1.0590  0.2297 -2.5383
 1403SOL     OW 4598   5.754   5.177   4.191 -0.2369  0.1016 -0.5530
 1403SOL    HW1 4599   5.726   5.234   4.119 -0.1919 -0.0034 -0.6529
 1403SOL    HW2 4600   5.732   5.089   4.161 -0.4622  0.0792 -0.3280
 1404SOL     OW 4601   1.740   0.210   1.152  0.2471 -0.1990 -0.1746
 1404SOL    HW1 4602   1.671   0.276   1.162  1.2083  0.9060 -0.6935
 1404SOL    HW2 4603   1.765   0.188   1.241 -0.7024 -0.5323  0.0177
 1405SOL     OW 4604   2.569   6.657   1.904  1.0699  0.1110  0.2501
 1405SOL    HW1 4605   2.503   6.721   1.877  2.2079  1.1689 -0.0979
 1405SOL    HW2 4606   2.558   6.650   1.999  0.5358  0.3524  0.2070
 1406SOL     OW 4607   4.355   3.165   1.719  0.3880 -0.2151 -0.0316
 1406SOL    HW1 4608   4.274   3.114   1.717  0.4399 -0.2874 -0.3552
 1406SOL    HW2 4609   4.369   3.185   1.811  0.7669 -1.4270  0.1884
 1407SOL     OW 4610   5.658   5.753   0.797  0.5882 -0.1902 -0.0110
 1407SOL    HW1 4611   5.709   5.825   0.759  0.6734  0.6548  1.5769
 1407SOL    HW2 4612   5.721   5.684   0.813  1.5148  1.0795  2.5302
 1408SOL     OW 4613   1.899   4.082   5.963 -0.4871  0.4085  0.4013
 1408SOL    HW1 4614   1.878   4.061   6.055 -0.9934  0.3938  0.2892
 1408SOL    HW2 4615   1.850   4.162   5.946  1.9079  2.1091  1.0031
 1409SOL     OW 4616   6.140   4.421   2.554  0.6298 -0.1701  0.3039
 1409SOL    HW1 4617   6.144   4.415   2.649  1.6948  2.5602  0.5072
 1409SOL    HW2 4618   6.228   4.396   2.525  0.8160  0.5948  0.1857
 1410SOL     OW 4619   6.124   3.882   4.744 -0.1524 -0.1379  0.3226
 1410SOL    HW1 4620   6.183   3.953   4.718  0.0767 -1.0248 -1.7461
 1410SOL    HW2 4621   6.036   3.921   4.739  0.0345  0.2602  0.0687
 1411SOL     OW 4622   0.158   5.299   1.674  0.3853 -0.3882 -0.0373
 1411SOL    HW1 4623   0.169   5.390   1.644 -0.5872 -0.5002 -0.8026
 1411SOL    HW2 4624   0.167   5.247   1.594 -0.2477 -0.8631  0.1945
 1412SOL     OW 4625   2.174   2.270   2.843  0.2285 -0.1541  0.2709
 1412SOL    HW1 4626   2.094   2.311   2.812  0.5389 -0.3617 -0.8593
 1412SOL    HW2 4627   2.229   2.343   2.872 -0.1587  0.0269  0.5600
 1413SOL     OW 4628   4.656   1.840   3.172 -0.2166 -0.0737  0.1092
 1413SOL    HW1 4629   4.607   1.922   3.170 -1.8070 -1.0042 -1.1587
 1413SOL    HW2 4630   4.719   1.849   3.100  1.2654  0.9505  1.4731
 1414SOL     OW 4631   4.111   1.958   5.543  0.2355 -0.5177  0.2089
 1414SOL    HW1 4632   4.081   2.011   5.616 -1.0150 -0.2567 -0.4696
 1414SOL    HW2 4633   4.101   1.867   5.572 -0.2660 -0.4138  0.3595
 1415SOL     OW 4634   5.550   2.976   4.674  0.7200 -0.5889  0.1274
 1415SOL    HW1 4635   5.628   3.016   4.712 -0.1686  2.2488 -0.7875
 1415SOL    HW2 4636   5.484   3.046   4.676 -1.3406 -2.3968 -0.5575
 1416SOL     OW 4637   5.661   1.439   3.707 -0.6408 -0.1124 -0.3622
 1416SOL    HW1 4638   5.756   1.433   3.701 -0.6147  0.6935 -0.7870
 1416SOL    HW2 4639   5.635   1.356   3.749  0.2787 -0.1457  0.1757
 1417SOL     OW 4640   4.880   6.097   1.605 -0.1464  0.1546  0.0607
 1417SOL    HW1 4641   4.841   6.179   1.574  1.1884  0.8465  0.0994
 1417SOL    HW2 4642   4.917   6.057   1.527 -0.4366 -0.2135  0.1098
 1418SOL     OW 4643   5.622   2.987   2.986  0.4035  0.4123  0.4086
 1418SOL    HW1 4644   5.704   2.995   3.036  0.5826 -1.2137  0.4351
 1418SOL    HW2 4645   5.554   3.018   3.046  0.8327  0.3441  0.9378
 1419SOL     OW 4646   4.775   1.246   1.072  0.3412 -0.0632  0.1938
 1419SOL    HW1 4647   4.794   1.339   1.089  0.8651 -0.3160  1.0509
 1419SOL    HW2 4648   4.696   1.228   1.123  0.8376 -0.3462  0.8742
 1420SOL     OW 4649   0.635   5.422   6.024  0.3867  0.9205 -0.1077
 1420SOL    HW1 4650   0.608   5.464   5.943 -0.2768 -0.2205 -0.4990
 1420SOL    HW2 4651   0.562   5.436   6.084  0.3153  0.6504 -0.1274
 1421SOL     OW 4652   5.618   6.472   6.525 -0.0843 -0.1846 -0.0288
 1421SOL    HW1 4653   5.639   6.379   6.534 -0.2861 -0.4340 -1.7366
 1421SOL    HW2 4654   5.691   6.518   6.567 -0.9091 -1.0662  2.5862
 1422SOL     OW 4655   4.468   5.141   3.463 -0.0099 -0.1928  0.7333
 1422SOL    HW1 4656   4.393   5.175   3.415 -0.0106  0.2743  1.0646
 1422SOL    HW2 4657   4.507   5.217   3.506  0.9428 -0.3389  0.1721
 1423SOL     OW 4658   1.794   2.813   5.817  0.7328  0.2937 -0.3952
 1423SOL    HW1 4659   1.851   2.873   5.865  0.7163  0.1415 -0.1854
 1423SOL    HW2 4660   1.853   2.750   5.777  0.7073  0.0891 -0.1123
 1424SOL     OW 4661   2.063   4.786   0.944  0.0328  0.4095  0.0092
 1424SOL    HW1 4662   2.112   4.834   1.011 -1.0673  0.1240  1.0488
 1424SOL    HW2 4663   1.975   4.776   0.980 -0.0950 -1.3783 -0.6716
 1425SOL     OW 4664   4.414   2.669   2.710  0.4082  0.2148  0.1778
 1425SOL    HW1 4665   4.413   2.624   2.794 -1.0197  2.3868  1.4423
 1425SOL    HW2 4666   4.507   2.684   2.692  0.7818 -1.1288  0.8511
 1426SOL     OW 4667   4.224   4.139   1.989 -0.4803 -0.4848 -0.2372
 1426SOL    HW1 4668   4.177   4.177   2.063 -1.3903 -1.1168 -0.4747
 1426SOL    HW2 4669   4.249   4.214   1.936  0.8671  0.0553  1.0668
 1427SOL     OW 4670   6.299   4.877   6.256 -0.7542 -0.0941 -0.4173
 1427SOL    HW1 4671   6.335   4.924   6.331 -0.3366 -1.1038  0.0323
 1427SOL    HW2 4672   6.217   4.839   6.287  0.1561 -1.7966  0.0369
 1428SOL     OW 4673   3.958   2.359   2.778  0.1928  0.0895 -0.3746
 1428SOL    HW1 4674   4.039   2.348   2.827 -0.5875 -1.6102  0.6419
 1428SOL    HW2 4675   3.894   2.307   2.826 -1.1545  0.2142 -1.9458
 1429SOL     OW 4676   1.687   5.122   2.441  0.1525 -0.3546  0.0163
 1429SOL    HW1 4677   1.611   5.154   2.392 -0.9533 -0.8973  1.3213
 1429SOL    HW2 4678   1.664   5.032   2.465  0.7474 -0.1768  1.3356
 1430SOL     OW 4679   5.423   5.208   0.840 -0.2441  0.5703 -0.1704
 1430SOL    HW1 4680   5.444   5.289   0.887 -0.5586  0.6494 -0.1640
 1430SOL    HW2 4681   5.345   5.229   0.789 -0.0405  0.4154 -0.5525
 1431SOL     OW 4682   4.836   1.258   4.706  0.7654  0.2280  0.2508
 1431SOL    HW1 4683   4.882   1.230   4.786  1.6227  1.1645  0.1116
 1431SOL    HW2 4684   4.821   1.351   4.719 -0.6895  0.0433  0.0602
 1432SOL     OW 4685   1.657   3.540   5.293 -0.4960  0.1166 -0.1055
 1432SOL    HW1 4686   1.592   3.608   5.312  1.5463  1.7971  1.3769
 1432SOL    HW2 4687   1.621   3.461   5.333 -0.7633  1.4698  2.5938
 1433SOL     OW 4688   6.809   5.191   1.904 -0.0500  0.4372  0.1126
 1433SOL    HW1 4689   6.845   5.223   1.821  0.2019  1.7354  0.7135
 1433SOL    HW2 4690   6.717   5.218   1.902  0.0802  0.9194  0.4718
 1434SOL     OW 4691   4.097   0.960   1.433 -1.0157 -0.3259  0.1973
 1434SOL    HW1 4692   4.077   0.938   1.342 -0.3249  0.8306 -0.2523
 1434SOL    HW2 4693   4.118   1.053   1.431  0.1807 -0.5427  1.3425
 1435SOL     OW 4694   5.301   6.685   5.236  0.4641  0.5144  0.4599
 1435SOL    HW1 4695   5.219   6.726   5.264 -0.3205  0.1848 -1.2385
 1435SOL    HW2 4696   5.356   6.684   5.315 -2.5725 -2.9671  2.8672
 1436SOL     OW 4697   3.956   4.692   5.949 -0.1192 -0.4384 -0.5386
 1436SOL    HW1 4698   3.934   4.702   6.041 -1.2274 -1.4141 -0.6597
 1436SOL    HW2 4699   3.970   4.598   5.938 -1.1688 -0.4993 -1.5826
 1437SOL     OW 4700   4.515   0.879   6.725 -0.2006 -0.6264 -0.4427
 1437SOL    HW1 4701   4.513   0.894   6.820 -0.2635  0.8830 -0.6682
 1437SOL    HW2 4702   4.433   0.834   6.706 -0.1082 -1.1035  0.2325
 1438SOL     OW 4703   4.576   4.269   6.119 -0.3754  0.1643 -0.2482
 1438SOL    HW1 4704   4.553   4.236   6.032  0.4188 -0.8022 -0.1120
 1438SOL    HW2 4705   4.623   4.351   6.103  0.1608 -0.2360 -0.7608
 1439SOL     OW 4706   5.326   0.973   5.852 -0.9115  0.1429 -0.5790
 1439SOL    HW1 4707   5.402   1.030   5.863 -0.9861  0.4013 -1.3098
 1439SOL    HW2 4708   5.255   1.020   5.894 -0.9246  0.4959 -0.9822
 1440SOL     OW 4709   4.494   0.341   3.291 -0.0124 -0.3379  0.6389
 1440SOL    HW1 4710   4.412   0.388   3.300 -1.1226 -2.0394 -0.0897
 1440SOL    HW2 4711   4.542   0.360   3.372 -1.7633 -0.5096  1.7731
 1441SOL     OW 4712   5.456   4.794   3.668  0.2526 -0.0044 -0.0170
 1441SOL    HW1 4713   5.399   4.727   3.704  0.1205  0.9322  1.5782
 1441SOL    HW2 4714   5.427   4.803   3.577  1.0834 -2.9376 -0.6784
 1442SOL     OW 4715   4.542   2.596   5.054  0.6307  0.1799  0.5850
 1442SOL    HW1 4716   4.630   2.559   5.069  0.9899  1.0876  0.8067
 1442SOL    HW2 4717   4.495   2.577   5.135  0.3764 -0.9588  0.1843
 1443SOL     OW 4718   0.623   4.681   6.466 -0.1057 -0.6672 -0.1372
 1443SOL    HW1 4719   0.683   4.747   6.430  0.1252 -0.2303  1.0109
 1443SOL    HW2 4720   0.536   4.719   6.455 -0.0209 -0.4441 -0.0459
 1444SOL     OW 4721   1.818   0.334   6.403  0.6436  0.2155 -0.3088
 1444SOL    HW1 4722   1.803   0.265   6.468 -0.6918  0.4873 -0.2991
 1444SOL    HW2 4723   1.730   0.358   6.373  1.0826  1.8918 -0.3515
 1445SOL     OW 4724   1.875   3.038   4.986  0.3443 -0.1617  0.2464
 1445SOL    HW1 4725   1.847   2.981   5.058  0.9717 -0.9040 -0.0804
 1445SOL    HW2 4726   1.840   3.124   5.009 -1.1428 -0.7876  0.4455
 1446SOL     OW 4727   6.328   0.496   0.797 -0.1566  0.5217 -0.6212
 1446SOL    HW1 4728   6.421   0.517   0.792 -0.1830  0.5865 -0.8568
 1446SOL    HW2 4729   6.324   0.418   0.851  0.1313 -0.1453 -1.5430
 1447SOL     OW 4730   1.483   0.135   1.850  0.0670  0.4333 -0.4620
 1447SOL    HW1 4731   1.503   0.209   1.908  0.1677  1.4976 -1.7968
 1447SOL    HW2 4732   1.553   0.072   1.866  1.7582  1.9553 -1.4479
 1448SOL     OW 4733   2.676   0.077   3.220 -0.3238  0.2961  0.5577
 1448SOL    HW1 4734   2.730   0.001   3.200  0.8973  1.6249 -1.5610
 1448SOL    HW2 4735   2.691   0.094   3.313  0.4530 -1.2168  0.7287
 1449SOL     OW 4736   3.816   3.733   2.315  0.3937 -0.1100 -0.1621
 1449SOL    HW1 4737   3.810   3.809   2.257  0.2437  0.4023  0.5148
 1449SOL    HW2 4738   3.902   3.696   2.296  0.2043 -0.1606 -0.9641
 1450SOL     OW 4739   5.263   5.719   2.375  0.1277  0.1223 -0.3584
 1450SOL    HW1 4740   5.348   5.756   2.399 -0.2565  1.4706 -0.9498
 1450SOL    HW2 4741   5.221   5.788   2.322 -1.2785 -0.5592 -0.1876
 1451SOL     OW 4742   5.757   4.291   6.473 -0.6381  0.3458  0.5414
 1451SOL    HW1 4743   5.681   4.321   6.522 -0.2473  0.1703  1.2626
 1451SOL    HW2 4744   5.798   4.225   6.529  0.3964  0.8733  0.4309
 1452SOL     OW 4745   5.080   6.416   2.416  0.3680 -0.0905  0.7715
 1452SOL    HW1 4746   5.049   6.441   2.329  2.2289  1.6231  0.5306
 1452SOL    HW2 4747   5.131   6.336   2.402  0.2755 -0.0787  0.3692
 1453SOL     OW 4748   0.588   5.537   1.723 -0.1436 -0.5140  0.1584
 1453SOL    HW1 4749   0.567   5.616   1.673  1.6522 -0.2114 -0.1846
 1453SOL    HW2 4750   0.604   5.470   1.657  0.3525 -0.6156  0.3766
 1454SOL     OW 4751   3.766   0.938   2.883 -0.5527  0.0650 -0.3737
 1454SOL    HW1 4752   3.790   0.996   2.955 -1.0580 -0.4950  0.2539
 1454SOL    HW2 4753   3.679   0.906   2.906  0.3484 -2.1769  0.0752
 1455SOL     OW 4754   0.257   0.307   1.437 -0.5176  0.0413 -0.1808
 1455SOL    HW1 4755   0.165   0.284   1.451 -0.0209 -1.2319  1.2765
 1455SOL    HW2 4756   0.298   0.226   1.408  0.5436 -0.0148  1.3224
 1456SOL     OW 4757   3.779   0.064   3.848 -0.2147  0.3398 -0.1193
 1456SOL    HW1 4758   3.684   0.072   3.834 -0.3430 -1.5286 -0.6116
 1456SOL    HW2 4759   3.795   0.107   3.932 -1.5765  0.2497  0.2071
 1457SOL     OW 4760   5.285   1.637   0.107 -0.1999  0.2475  0.0474
 1457SOL    HW1 4761   5.315   1.553   0.143  0.0126  1.0494  1.8117
 1457SOL    HW2 4762   5.365   1.687   0.093 -0.4655  1.2377  1.8331
 1458SOL     OW 4763   1.733   3.021   5.430 -0.1054  0.2308 -0.6075
 1458SOL    HW1 4764   1.680   3.098   5.409 -0.2886  0.3143  0.1383
 1458SOL    HW2 4765   1.672   2.962   5.474 -0.6470 -1.4296 -3.3473
 1459SOL     OW 4766   5.235   3.091   6.673 -0.2413 -0.3670 -0.1031
 1459SOL    HW1 4767   5.330   3.091   6.662 -0.1647 -0.1681  0.5231
 1459SOL    HW2 4768   5.213   3.183   6.691 -0.5333 -0.4376 -0.0953
 1460SOL     OW 4769   0.595   5.521   3.841  0.2964  0.4395 -0.4445
 1460SOL    HW1 4770   0.559   5.482   3.921 -1.5923 -0.6080 -1.7311
 1460SOL    HW2 4771   0.680   5.479   3.831 -1.1386 -2.6346 -1.1177
 1461SOL     OW 4772   0.835   6.125   0.076  0.2022 -0.5519  0.0555
 1461SOL    HW1 4773   0.876   6.205   0.110  2.7123 -1.1047 -1.4388
 1461SOL    HW2 4774   0.742   6.148   0.067  0.8138  2.1792 -0.2260
 1462SOL     OW 4775   4.975   1.922   5.717 -0.1343  0.8799 -0.4594
 1462SOL    HW1 4776   4.924   2.002   5.719  0.6458  1.3708  1.6562
 1462SOL    HW2 4777   4.913   1.852   5.737 -0.5100  1.1282 -0.7552
 1463SOL     OW 4778   3.743   4.359   4.888 -0.1020  0.7117 -0.2922
 1463SOL    HW1 4779   3.773   4.304   4.816  1.7089  0.2094  0.8066
 1463SOL    HW2 4780   3.649   4.372   4.870  0.1807  0.1649 -2.4195
 1464SOL     OW 4781   5.288   5.408   4.371  0.1258 -0.1994  0.3065
 1464SOL    HW1 4782   5.363   5.354   4.395  0.2895  0.0020  0.2405
 1464SOL    HW2 4783   5.217   5.376   4.428  0.4958  0.2283  1.0112
 1465SOL     OW 4784   3.636   5.988   4.493 -0.0395 -0.4478  0.2301
 1465SOL    HW1 4785   3.597   6.032   4.569  1.4915  0.8668  0.3220
 1465SOL    HW2 4786   3.569   5.992   4.425 -0.6459  0.3021  0.8590
 1466SOL     OW 4787   5.046   3.699   3.447  0.0482 -0.0568  0.3296
 1466SOL    HW1 4788   5.140   3.715   3.438 -0.5143  2.0187 -4.1294
 1466SOL    HW2 4789   5.016   3.766   3.508  1.0411  1.3778 -0.7093
 1467SOL     OW 4790   6.727   2.206   0.137 -0.2903 -0.0212  0.6312
 1467SOL    HW1 4791   6.706   2.116   0.162 -0.9989  0.3770  1.5294
 1467SOL    HW2 4792   6.744   2.251   0.220 -2.2493  1.2385  0.4252
 1468SOL     OW 4793   2.590   6.120   6.228 -0.3138  0.3464  0.0370
 1468SOL    HW1 4794   2.495   6.124   6.219 -0.2553  4.6417 -0.7935
 1468SOL    HW2 4795   2.620   6.079   6.148 -1.4266 -0.4638  0.0065
 1469SOL     OW 4796   5.770   0.523   5.450  0.4163 -1.2794  0.0452
 1469SOL    HW1 4797   5.745   0.456   5.514  0.7691 -0.7445  0.7481
 1469SOL    HW2 4798   5.813   0.474   5.380  0.2625 -1.8383  0.3353
 1470SOL     OW 4799   4.337   2.513   0.608 -0.2362  0.4110 -0.0494
 1470SOL    HW1 4800   4.396   2.540   0.538  0.3718 -0.9361 -0.0931
 1470SOL    HW2 4801   4.392   2.509   0.686 -0.3967 -0.2285  0.0413
 1471SOL     OW 4802   2.483   4.750   1.738 -0.2150  0.4051 -0.0709
 1471SOL    HW1 4803   2.456   4.839   1.717  0.0702  0.4458 -0.2821
 1471SOL    HW2 4804   2.575   4.759   1.763 -0.1613  0.1600 -0.1792
 1472SOL     OW 4805   1.340   4.777   3.128 -0.4196 -0.2863 -0.1573
 1472SOL    HW1 4806   1.303   4.831   3.058 -2.2255 -2.6553 -1.1651
 1472SOL    HW2 4807   1.390   4.709   3.083  0.1076 -0.6917  0.9807
 1473SOL     OW 4808   0.051   4.283   5.261 -0.5109 -0.2682  0.3571
 1473SOL    HW1 4809   0.006   4.202   5.285 -0.0117 -0.5231  0.4554
 1473SOL    HW2 4810   0.050   4.335   5.341  1.0814 -1.0856  0.9563
 1474SOL     OW 4811   6.128   0.808   2.960  0.0845 -0.1354 -0.1683
 1474SOL    HW1 4812   6.221   0.806   2.980  0.4708 -0.6532 -1.8514
 1474SOL    HW2 4813   6.085   0.820   3.045  1.6525 -0.2168  0.6687
 1475SOL     OW 4814   2.277   5.127   6.436 -0.5210  0.7825 -0.2805
 1475SOL    HW1 4815   2.208   5.084   6.386 -0.4205  0.7289 -0.3725
 1475SOL    HW2 4816   2.357   5.113   6.385 -0.2026 -0.2947  0.4804
 1476SOL     OW 4817   0.952   0.622   4.406 -0.2687  0.0901 -0.4907
 1476SOL    HW1 4818   0.910   0.566   4.340  1.0872  0.0779 -1.3900
 1476SOL    HW2 4819   0.940   0.711   4.373 -1.0615  0.2267  0.1377
 1477SOL     OW 4820   3.283   3.085   6.744  0.1892 -0.4868 -0.0113
 1477SOL    HW1 4821   3.291   3.157   6.681  0.1244 -0.5205 -0.0596
 1477SOL    HW2 4822   3.289   3.127   6.830  1.1495 -0.5438 -0.0398
 1478SOL     OW 4823   1.213   4.540   3.918  0.4321  0.3045  0.5777
 1478SOL    HW1 4824   1.150   4.479   3.879 -0.3401  1.2724  0.2633
 1478SOL    HW2 4825   1.243   4.594   3.845  1.9047 -0.3450  0.6637
 1479SOL     OW 4826   4.972   0.730   1.556 -0.4961  0.2756 -0.0120
 1479SOL    HW1 4827   5.066   0.731   1.570 -0.4788  0.4557 -0.1487
 1479SOL    HW2 4828   4.938   0.797   1.616 -0.2311  2.5580 -2.2738
 1480SOL     OW 4829   2.918   2.492   2.121 -0.0541  0.5394  0.0745
 1480SOL    HW1 4830   2.935   2.399   2.107 -0.1998  0.6190 -0.6684
 1480SOL    HW2 4831   2.880   2.496   2.209 -2.5775 -0.4283 -0.8622
 1481SOL     OW 4832   0.535   6.303   1.849  0.0051 -0.1079  0.3449
 1481SOL    HW1 4833   0.546   6.364   1.776 -0.1417 -0.5807 -0.0729
 1481SOL    HW2 4834   0.448   6.267   1.838  0.0330 -0.2857  0.6793
 1482SOL     OW 4835   5.759   6.471   4.117 -0.2773  0.3587 -0.2079
 1482SOL    HW1 4836   5.687   6.534   4.113  1.9808  3.1126 -1.9927
 1482SOL    HW2 4837   5.761   6.430   4.031 -0.3340 -0.5141  0.1926
 1483SOL     OW 4838   4.800   4.971   4.954 -0.2805  0.1515 -0.4308
 1483SOL    HW1 4839   4.824   4.928   5.036 -0.9794  1.3690  0.4467
 1483SOL    HW2 4840   4.737   4.911   4.913 -0.0036 -0.4220 -0.0254
 1484SOL     OW 4841   6.769   0.876   6.523 -0.2034 -0.4058  0.0776
 1484SOL    HW1 4842   6.780   0.959   6.477 -0.4155 -0.3944  0.0450
 1484SOL    HW2 4843   6.739   0.902   6.611 -0.8576 -0.4719 -0.1227
 1485SOL     OW 4844   3.252   2.052   0.595 -0.9415  0.1474  0.1130
 1485SOL    HW1 4845   3.243   2.038   0.501 -1.9523  1.4131 -0.0055
 1485SOL    HW2 4846   3.239   1.966   0.633 -1.8306 -0.1729 -0.8453
 1486SOL     OW 4847   2.295   6.423   3.786  0.0051 -0.0075  0.6523
 1486SOL    HW1 4848   2.220   6.365   3.770  0.1726 -0.1505  0.3842
 1486SOL    HW2 4849   2.326   6.446   3.699  0.8738 -0.7238  0.7639
 1487SOL     OW 4850   1.942   3.528   3.959 -0.6757 -0.6923  0.3697
 1487SOL    HW1 4851   1.974   3.539   4.048  0.8020 -0.2482 -0.1846
 1487SOL    HW2 4852   1.940   3.434   3.945 -2.3631 -0.8465  1.3352
 1488SOL     OW 4853   4.797   1.953   2.439 -0.1013  0.0840  0.0935
 1488SOL    HW1 4854   4.733   1.891   2.404 -0.5064  1.0854 -1.0060
 1488SOL    HW2 4855   4.832   1.998   2.362 -0.0747  1.4746  0.8852
 1489SOL     OW 4856   5.613   3.168   2.093 -0.3789  0.6905  0.0100
 1489SOL    HW1 4857   5.674   3.235   2.062  0.0625  1.1258  1.6998
 1489SOL    HW2 4858   5.631   3.161   2.187  0.7780 -3.0323 -0.3500
 1490SOL     OW 4859   0.428   5.439   2.348  0.7845 -0.3535  0.2344
 1490SOL    HW1 4860   0.452   5.522   2.306  0.6651 -0.0602  0.7360
 1490SOL    HW2 4861   0.391   5.465   2.432  0.3434 -0.8947  0.2149
 1491SOL     OW 4862   6.226   5.249   0.303 -0.4553  0.6531  0.0976
 1491SOL    HW1 4863   6.320   5.269   0.301  0.4411 -2.8364  0.5942
 1491SOL    HW2 4864   6.206   5.220   0.214 -0.2972 -1.2516  0.6362
 1492SOL     OW 4865   2.263   3.566   0.321 -0.0332 -0.9208 -0.4444
 1492SOL    HW1 4866   2.339   3.542   0.267 -0.8247  1.0986 -2.6655
 1492SOL    HW2 4867   2.234   3.650   0.285  1.0071  2.2327  4.9428
 1493SOL     OW 4868   0.519   4.233   5.654 -0.6330  0.8523 -0.2556
 1493SOL    HW1 4869   0.513   4.155   5.710 -2.0003  1.4791  0.5218
 1493SOL    HW2 4870   0.581   4.290   5.700  0.3882  0.2463 -0.8368
 1494SOL     OW 4871   6.368   0.407   6.590  0.3374  0.0284  0.1171
 1494SOL    HW1 4872   6.368   0.424   6.496 -1.4829 -0.1642  0.0517
 1494SOL    HW2 4873   6.389   0.314   6.598 -2.0300 -0.5827 -0.2867
 1495SOL     OW 4874   0.886   5.453   6.338 -0.1397 -0.4257 -1.1857
 1495SOL    HW1 4875   0.951   5.420   6.400 -0.8674 -0.4639 -0.4362
 1495SOL    HW2 4876   0.881   5.386   6.270 -1.0502 -1.5370 -0.0661
 1496SOL     OW 4877   1.940   1.665   0.145 -0.0161  0.6193 -0.5919
 1496SOL    HW1 4878   2.008   1.618   0.097 -1.4612 -0.1541 -2.0023
 1496SOL    HW2 4879   1.987   1.728   0.199  1.8975 -1.2089 -0.0110
 1497SOL     OW 4880   0.761   6.484   1.457  1.0807 -0.4063 -0.0162
 1497SOL    HW1 4881   0.854   6.488   1.481  0.2061  1.4214  3.9536
 1497SOL    HW2 4882   0.724   6.422   1.520 -0.4016 -1.3850 -1.7777
 1498SOL     OW 4883   5.421   0.389   1.370 -0.1471 -0.5478 -0.2227
 1498SOL    HW1 4884   5.395   0.461   1.313  2.7485  1.2137  0.4438
 1498SOL    HW2 4885   5.340   0.343   1.390 -1.8987  1.5731 -1.9746
 1499SOL     OW 4886   0.267   1.328   6.357 -0.3582 -0.1452  0.3106
 1499SOL    HW1 4887   0.256   1.234   6.372  0.0631 -0.0831  1.0637
 1499SOL    HW2 4888   0.181   1.357   6.325 -1.5276 -0.2463  3.0435
 1500SOL     OW 4889   5.507   5.811   2.751 -0.2721 -0.2073  0.4111
 1500SOL    HW1 4890   5.599   5.834   2.765 -0.0535 -0.1729 -0.9509
 1500SOL    HW2 4891   5.510   5.738   2.690 -1.1521 -0.2844  0.4479
 1501SOL     OW 4892   2.113   5.213   1.060  0.1420  0.2771  0.1626
 1501SOL    HW1 4893   2.148   5.135   1.102 -2.3094 -0.8485  0.3002
 1501SOL    HW2 4894   2.132   5.202   0.967 -1.7360 -1.4440 -0.0765
 1502SOL     OW 4895   1.176   3.143   3.732  0.1974 -0.2425 -0.8543
 1502SOL    HW1 4896   1.144   3.186   3.652  0.4420 -1.2450 -1.5203
 1502SOL    HW2 4897   1.157   3.050   3.718  2.3714 -0.7585 -0.8110
 1503SOL     OW 4898   6.817   1.842   3.967 -0.0139 -0.1038  0.0771
 1503SOL    HW1 4899   6.906   1.864   3.995 -0.2820  1.7666 -0.4336
 1503SOL    HW2 4900   6.772   1.816   4.048  1.4187 -2.8718  0.1144
 1504SOL     OW 4901   4.268   3.848   6.350  0.1983 -0.0016  0.0727
 1504SOL    HW1 4902   4.262   3.889   6.436 -0.3927 -1.1358  0.5960
 1504SOL    HW2 4903   4.332   3.901   6.302  0.3914  0.7550  1.1362
 1505SOL     OW 4904   0.843   4.357   1.709 -0.1355 -0.3419  0.0489
 1505SOL    HW1 4905   0.898   4.368   1.632 -1.6168 -1.7256 -1.2559
 1505SOL    HW2 4906   0.764   4.407   1.689 -1.0047 -1.6383  0.1508
 1506SOL     OW 4907   3.447   0.358   2.492  0.3147  0.2421  0.0845
 1506SOL    HW1 4908   3.469   0.373   2.583 -0.1981  0.9564  0.1021
 1506SOL    HW2 4909   3.435   0.446   2.455  0.5695 -0.0333 -0.6816
 1507SOL     OW 4910   4.536   3.182   2.563  0.0052 -0.2707  0.2239
 1507SOL    HW1 4911   4.594   3.221   2.497  0.3858  0.6357  1.0609
 1507SOL    HW2 4912   4.588   3.183   2.643 -0.3029 -1.7189  0.4811
 1508SOL     OW 4913   2.884   2.765   6.393  0.3037  0.3408 -0.1450
 1508SOL    HW1 4914   2.820   2.748   6.325  0.8418 -1.6019 -0.2352
 1508SOL    HW2 4915   2.925   2.848   6.368 -0.9217  0.7176 -1.0188
 1509SOL     OW 4916   0.396   1.926   2.432 -0.0607  0.0569  0.1533
 1509SOL    HW1 4917   0.443   1.947   2.351  0.4721 -3.7958 -0.7589
 1509SOL    HW2 4918   0.306   1.912   2.404  0.1408 -1.3670  0.1542
 1510SOL     OW 4919   2.589   1.442   6.685  0.3314  0.1314  0.7263
 1510SOL    HW1 4920   2.556   1.353   6.688  0.4967 -0.0060 -0.7306
 1510SOL    HW2 4921   2.551   1.485   6.762 -0.2577 -1.0110  1.0894
 1511SOL     OW 4922   1.811   1.172   0.422 -0.4971  0.6075 -0.3562
 1511SOL    HW1 4923   1.851   1.096   0.380  1.8162  0.0661  2.4609
 1511SOL    HW2 4924   1.847   1.247   0.375  1.2598  0.0180 -0.0340
 1512SOL     OW 4925   5.886   4.788   5.035 -0.1051 -0.4975  0.2747
 1512SOL    HW1 4926   5.906   4.705   5.079  2.3707 -0.0370  0.1876
 1512SOL    HW2 4927   5.925   4.855   5.092  0.1603  0.3793 -0.8979
 1513SOL     OW 4928   1.618   6.164   2.547  0.1440 -0.8798 -0.3152
 1513SOL    HW1 4929   1.687   6.196   2.489 -0.7480  2.7080  0.3372
 1513SOL    HW2 4930   1.537   6.200   2.509 -0.8609 -1.5115  1.1622
 1514SOL     OW 4931   1.091   1.660   5.197  0.0860  0.9454 -0.8434
 1514SOL    HW1 4932   1.177   1.641   5.234  0.6501  3.0188 -0.9282
 1514SOL    HW2 4933   1.039   1.582   5.215  2.0013 -0.4241 -0.9005
 1515SOL     OW 4934   3.067   5.408   3.831  0.2529 -0.1099 -0.0165
 1515SOL    HW1 4935   3.010   5.333   3.847 -0.4479  0.3817 -0.1448
 1515SOL    HW2 4936   3.043   5.439   3.744 -1.2204  1.7266  0.9542
 1516SOL     OW 4937   5.330   0.334   5.618  0.1211 -0.2296  0.3897
 1516SOL    HW1 4938   5.391   0.407   5.630 -1.6283  1.1022  1.5375
 1516SOL    HW2 4939   5.243   0.373   5.622 -0.9751 -2.6024  3.2030
 1517SOL     OW 4940   5.144   3.279   1.567  0.2085 -0.0532 -0.5606
 1517SOL    HW1 4941   5.196   3.357   1.586 -0.0771  0.1267 -0.5201
 1517SOL    HW2 4942   5.201   3.226   1.512  0.7068 -0.1814  0.0641
 1518SOL     OW 4943   4.045   6.272   1.176 -0.4165  0.0432 -0.1872
 1518SOL    HW1 4944   4.089   6.247   1.257  0.3963  2.7273  0.3059
 1518SOL    HW2 4945   3.965   6.316   1.205 -1.0276 -0.5555 -0.9266
 1519SOL     OW 4946   1.380   3.502   6.628  0.5339  0.2973 -0.0716
 1519SOL    HW1 4947   1.415   3.414   6.643 -0.8406 -0.7436 -2.3998
 1519SOL    HW2 4948   1.417   3.528   6.543 -0.2157  1.3652 -0.0872
 1520SOL     OW 4949   2.290   3.741   3.503 -0.0380 -0.4425 -0.2182
 1520SOL    HW1 4950   2.350   3.666   3.509 -0.7039 -0.9706 -0.0188
 1520SOL    HW2 4951   2.289   3.778   3.591 -0.2154 -0.6047 -0.1509
 1521SOL     OW 4952   5.770   0.223   6.309 -0.2513 -0.4758  0.0400
 1521SOL    HW1 4953   5.776   0.153   6.375 -3.4974 -0.8685  0.1043
 1521SOL    HW2 4954   5.802   0.183   6.229  1.2862 -0.8336  0.7911
 1522SOL     OW 4955   5.540   5.592   3.072  0.4776  0.2423 -0.2415
 1522SOL    HW1 4956   5.511   5.640   3.150 -1.4447  0.5091 -1.0753
 1522SOL    HW2 4957   5.620   5.637   3.045 -0.1673  1.7038  0.1758
 1523SOL     OW 4958   4.039   6.041   2.012  0.1859 -0.2518  0.1051
 1523SOL    HW1 4959   4.132   6.055   2.032  0.1320 -0.0449  0.2140
 1523SOL    HW2 4960   4.037   6.030   1.917  0.1518  1.2290 -0.0896
 1524SOL     OW 4961   3.217   5.252   1.290  1.0052  0.4438  0.6938
 1524SOL    HW1 4962   3.221   5.262   1.195  0.0389 -0.4776  0.5318
 1524SOL    HW2 4963   3.128   5.278   1.314 -0.1560 -3.0380  0.7777
 1525SOL     OW 4964   5.641   3.253   3.230 -0.0397  0.3508  0.0381
 1525SOL    HW1 4965   5.569   3.257   3.293 -0.1210  1.6023 -0.1174
 1525SOL    HW2 4966   5.614   3.311   3.160  0.0793 -0.9814 -1.1600
 1526SOL     OW 4967   1.830   3.804   4.280 -0.7731 -0.2409  0.4877
 1526SOL    HW1 4968   1.795   3.808   4.369 -1.1581 -1.6464  0.4226
 1526SOL    HW2 4969   1.789   3.879   4.235 -1.7697 -0.4118  1.0801
 1527SOL     OW 4970   2.676   2.165   1.436  0.2448  0.0388  0.7047
 1527SOL    HW1 4971   2.667   2.076   1.471 -0.7181  0.2156  0.9449
 1527SOL    HW2 4972   2.592   2.183   1.394  0.1961  1.0636  1.2002
 1528SOL     OW 4973   5.620   4.990   6.464 -0.5316  0.3957 -0.5601
 1528SOL    HW1 4974   5.618   5.049   6.539 -0.1093 -0.6963  0.3388
 1528SOL    HW2 4975   5.704   5.008   6.421  0.0215 -0.1851  0.2538
 1529SOL     OW 4976   5.188   2.265   2.641 -0.2478  0.0606  0.0223
 1529SOL    HW1 4977   5.108   2.247   2.691 -1.0959  0.2420 -1.2179
 1529SOL    HW2 4978   5.162   2.332   2.577  1.7725  2.7411  1.7789
 1530SOL     OW 4979   4.938   1.800   6.076  0.1675 -0.5963 -0.3014
 1530SOL    HW1 4980   4.935   1.717   6.027 -2.8441 -1.1629  0.6253
 1530SOL    HW2 4981   5.005   1.786   6.143 -1.2159 -2.8995  0.7187
 1531SOL     OW 4982   0.559   4.318   6.228 -0.0785  0.3940 -0.7160
 1531SOL    HW1 4983   0.470   4.301   6.197 -0.5815 -0.1106  0.8967
 1531SOL    HW2 4984   0.575   4.410   6.209 -1.4982  0.8612  0.2152
 1532SOL     OW 4985   4.500   3.915   4.408 -0.0347 -0.1407 -0.3784
 1532SOL    HW1 4986   4.552   3.836   4.423  0.9730  0.5017 -0.3684
 1532SOL    HW2 4987   4.522   3.941   4.319 -0.6121 -0.0431 -0.4983
 1533SOL     OW 4988   5.712   5.966   2.940 -0.1922  0.7349  0.6907
 1533SOL    HW1 4989   5.747   5.937   3.024  0.9317  1.2623  0.4263
 1533SOL    HW2 4990   5.731   5.895   2.880  0.2614  0.9462  0.5849
 1534SOL     OW 4991   0.517   4.680   0.974  0.0849 -0.2218 -0.1898
 1534SOL    HW1 4992   0.520   4.594   0.931  0.1076  0.1736 -0.9997
 1534SOL    HW2 4993   0.568   4.737   0.917  0.2540  0.2834  0.4601
 1535SOL     OW 4994   6.152   5.451   3.720 -0.2446  0.1317  0.5769
 1535SOL    HW1 4995   6.125   5.526   3.667  0.8226  0.3103  0.2593
 1535SOL    HW2 4996   6.229   5.483   3.768 -0.1356 -0.5764  0.8761
 1536SOL     OW 4997   0.946   6.282   6.036  0.0542  0.2064  0.2432
 1536SOL    HW1 4998   1.035   6.316   6.032  0.6487 -1.3883 -1.2007
 1536SOL    HW2 4999   0.891   6.358   6.019  1.2335  0.8795 -0.7145
 1537SOL     OW 5000   1.575   0.309   1.571 -0.1109  0.2095  0.1205
 1537SOL    HW1 5001   1.531   0.357   1.641  0.2592  1.4029 -0.4317
 1537SOL    HW2 5002   1.518   0.234   1.553 -0.6470  0.3725  1.0954
 1538SOL     OW 5003   3.454   5.991   5.830  0.1426 -0.4048 -0.2037
 1538SOL    HW1 5004   3.418   6.079   5.819  0.1344 -0.5719 -1.7079
 1538SOL    HW2 5005   3.386   5.933   5.796 -0.0528 -1.0563  1.2034
 1539SOL     OW 5006   2.966   0.872   4.680  0.5873 -0.0519  0.1735
 1539SOL    HW1 5007   3.039   0.829   4.725  0.8036  0.6936  0.5516
 1539SOL    HW2 5008   2.967   0.962   4.713  0.3186  0.3237 -0.8146
 1540SOL     OW 5009   2.491   4.145   4.970  0.6759  0.3787 -0.3778
 1540SOL    HW1 5010   2.521   4.104   5.051 -0.6729 -2.8288 -1.3840
 1540SOL    HW2 5011   2.571   4.163   4.921  1.4522  1.6405  1.2302
 1541SOL     OW 5012   0.825   4.153   5.055 -0.5978 -0.4800  0.7304
 1541SOL    HW1 5013   0.883   4.078   5.047  0.1301  0.1383 -0.1052
 1541SOL    HW2 5014   0.738   4.118   5.038 -0.2995 -1.1826  0.6119
 1542SOL     OW 5015   0.083   1.766   5.101  0.2742  0.1505  0.5541
 1542SOL    HW1 5016   0.086   1.762   5.197 -0.9561  0.5092  0.6317
 1542SOL    HW2 5017   0.066   1.858   5.082  0.8558  0.1411 -0.0337
 1543SOL     OW 5018   5.491   6.799   0.289 -0.1035  0.0176  0.5307
 1543SOL    HW1 5019   5.492   6.748   0.208 -1.5711 -0.4858  0.8140
 1543SOL    HW2 5020   5.455   6.884   0.263  3.5291  1.5281 -0.2207
 1544SOL     OW 5021   1.859   6.361   6.674  0.2277 -0.0854 -0.2059
 1544SOL    HW1 5022   1.789   6.386   6.734 -0.0719  0.1491 -0.6435
 1544SOL    HW2 5023   1.843   6.414   6.596  0.0073 -1.1315 -0.8925
 1545SOL     OW 5024   3.703   6.152   2.376 -0.0053  0.3561  0.2804
 1545SOL    HW1 5025   3.635   6.173   2.439 -0.0561 -0.9366  0.6722
 1545SOL    HW2 5026   3.752   6.080   2.415  1.8992  1.5502  0.2196
 1546SOL     OW 5027   4.666   6.339   5.331 -0.0465  0.3228 -0.0857
 1546SOL    HW1 5028   4.713   6.401   5.387  1.4382 -0.5353 -0.3160
 1546SOL    HW2 5029   4.733   6.276   5.304 -1.3573 -0.9745 -0.4306
 1547SOL     OW 5030   4.510   6.115   6.522  0.1912  0.5134  0.0510
 1547SOL    HW1 5031   4.489   6.209   6.520 -0.9427  0.3266  1.6411
 1547SOL    HW2 5032   4.590   6.108   6.470 -0.6085  2.1020 -1.5378
 1548SOL     OW 5033   1.418   6.337   1.150 -0.5235  0.0119  0.1172
 1548SOL    HW1 5034   1.339   6.307   1.195  0.8375 -3.0734  0.7195
 1548SOL    HW2 5035   1.477   6.364   1.221 -0.5293  0.9998 -0.2420
 1549SOL     OW 5036   1.551   1.314   1.495 -0.0961  0.2080  0.0733
 1549SOL    HW1 5037   1.610   1.264   1.552 -0.7665  0.0056  0.5940
 1549SOL    HW2 5038   1.464   1.283   1.517 -0.4051  0.4978 -0.7097
 1550SOL     OW 5039   3.397   4.258   3.701  0.5052  0.0500  0.2098
 1550SOL    HW1 5040   3.344   4.269   3.780 -4.0928 -0.8731 -2.3818
 1550SOL    HW2 5041   3.402   4.346   3.664 -2.1488 -0.1689 -0.9749
 1551SOL     OW 5042   0.454   5.203   2.647  0.2574 -0.3174  0.4852
 1551SOL    HW1 5043   0.495   5.221   2.731  2.0170  1.7738 -0.6836
 1551SOL    HW2 5044   0.394   5.276   2.634 -0.6528 -1.0924  0.3046
 1552SOL     OW 5045   4.191   0.900   5.143 -0.0726 -0.3189 -0.1942
 1552SOL    HW1 5046   4.248   0.866   5.074  0.3058 -2.5252  1.1056
 1552SOL    HW2 5047   4.118   0.838   5.147 -1.0819  0.8591  0.0977
 1553SOL     OW 5048   2.027   4.184   0.327  0.0096 -0.3344 -0.0822
 1553SOL    HW1 5049   2.104   4.234   0.353 -0.2958 -0.2699  0.7239
 1553SOL    HW2 5050   2.018   4.201   0.233  1.6464 -1.2580 -0.4395
 1554SOL     OW 5051   4.012   1.390   6.591 -0.0194  0.4297 -0.0912
 1554SOL    HW1 5052   3.958   1.459   6.551  0.2150  1.3426  1.0976
 1554SOL    HW2 5053   4.073   1.364   6.522 -1.9546 -0.6525 -1.4970
 1555SOL     OW 5054   6.703   1.249   1.913 -0.5719  0.4461 -0.0159
 1555SOL    HW1 5055   6.670   1.185   1.976 -4.4282  2.8047  0.6998
 1555SOL    HW2 5056   6.633   1.257   1.848  1.7163  0.7718 -2.6062
 1556SOL     OW 5057   0.718   0.169   0.101  0.0756  0.4323 -0.1296
 1556SOL    HW1 5058   0.805   0.190   0.135  0.8468 -0.4467 -1.4572
 1556SOL    HW2 5059   0.689   0.249   0.059 -0.1234  0.9828  1.0336
 1557SOL     OW 5060   3.307   5.094   5.586  0.9058 -0.0082 -0.4488
 1557SOL    HW1 5061   3.287   5.001   5.574  0.3131 -0.1287  1.1971
 1557SOL    HW2 5062   3.236   5.127   5.640  0.5999  1.6533 -1.7808
 1558SOL     OW 5063   6.609   2.611   6.523 -0.5099 -0.4035  0.3137
 1558SOL    HW1 5064   6.613   2.689   6.577 -1.5594 -0.7452  0.9177
 1558SOL    HW2 5065   6.699   2.598   6.491  0.2435 -0.4626  2.3421
 1559SOL     OW 5066   1.196   4.425   0.712 -0.1766  0.3717 -0.2596
 1559SOL    HW1 5067   1.271   4.370   0.692  0.8010  1.5035  0.1433
 1559SOL    HW2 5068   1.125   4.363   0.731  0.6600 -0.7217 -0.5850
 1560SOL     OW 5069   1.958   0.172   2.551 -0.3107 -0.3226  0.3512
 1560SOL    HW1 5070   2.014   0.097   2.573  0.9576  0.6339  0.4628
 1560SOL    HW2 5071   1.881   0.161   2.607 -1.0204 -2.5085 -0.9141
 1561SOL     OW 5072   2.002   5.285   5.318 -0.3720 -0.0821 -0.0238
 1561SOL    HW1 5073   2.053   5.220   5.270 -0.9932 -0.6989  0.1410
 1561SOL    HW2 5074   1.948   5.234   5.378 -1.2272  0.5518 -0.2353
 1562SOL     OW 5075   3.895   4.235   5.957  0.5250  0.3927  0.3219
 1562SOL    HW1 5076   3.967   4.197   6.007  0.3804  0.0232  0.2491
 1562SOL    HW2 5077   3.823   4.240   6.019  0.4371  0.2202  0.2322
 1563SOL     OW 5078   6.076   2.298   4.525  0.5742  0.2128  0.2498
 1563SOL    HW1 5079   6.140   2.260   4.464 -0.4527  1.3459 -1.6471
 1563SOL    HW2 5080   6.126   2.361   4.576  1.3207 -0.1892  0.0339
 1564SOL     OW 5081   3.290   5.121   6.345  0.6448 -0.0254  0.2725
 1564SOL    HW1 5082   3.349   5.086   6.278  0.2899 -1.2428  0.5593
 1564SOL    HW2 5083   3.348   5.153   6.414  1.0440  1.9209 -0.8915
 1565SOL     OW 5084   3.981   2.626   3.253 -0.1922  0.1044 -0.3170
 1565SOL    HW1 5085   3.977   2.556   3.318 -1.0197 -0.4238 -0.9090
 1565SOL    HW2 5086   4.064   2.670   3.269  0.8405 -1.6667 -0.5882
 1566SOL     OW 5087   6.796   3.665   1.054  0.1051  0.5343  0.4531
 1566SOL    HW1 5088   6.882   3.624   1.062  0.9450  2.2195  0.6271
 1566SOL    HW2 5089   6.807   3.730   0.985 -2.2376 -1.9524 -2.5283
 1567SOL     OW 5090   4.097   0.909   6.397  0.4107 -0.0783 -0.2931
 1567SOL    HW1 5091   4.114   1.003   6.400 -1.8117  0.4228 -1.1347
 1567SOL    HW2 5092   4.033   0.899   6.326 -1.3359 -1.8700  1.4136
 1568SOL     OW 5093   1.676   5.356   0.503 -0.1594 -0.3447  0.8317
 1568SOL    HW1 5094   1.671   5.263   0.485 -0.7410 -0.2421  0.4279
 1568SOL    HW2 5095   1.669   5.398   0.417 -2.7010  0.1370  1.1718
 1569SOL     OW 5096   2.474   0.782   3.520  0.2564 -0.3057 -0.5101
 1569SOL    HW1 5097   2.529   0.715   3.479 -0.4079  0.3781 -2.6632
 1569SOL    HW2 5098   2.491   0.862   3.470  0.9001  1.1688  1.8744
 1570SOL     OW 5099   0.508   2.525   3.406 -0.0015  0.9006 -0.4481
 1570SOL    HW1 5100   0.482   2.537   3.315 -1.2455  0.8647 -0.1193
 1570SOL    HW2 5101   0.434   2.478   3.446  0.9482  0.0353  0.3481
 1571SOL     OW 5102   3.513   0.334   1.730  0.4831  0.0460  0.1495
 1571SOL    HW1 5103   3.447   0.289   1.783 -2.2107  2.3000 -0.9786
 1571SOL    HW2 5104   3.537   0.411   1.782  1.5866 -0.2900  0.1550
 1572SOL     OW 5105   1.423   3.235   6.670  0.4806  0.5074  0.4424
 1572SOL    HW1 5106   1.473   3.185   6.606 -1.3608 -1.1280  0.2069
 1572SOL    HW2 5107   1.423   3.181   6.749  1.0673  1.6015  1.2222
 1573SOL     OW 5108   2.850   3.222   4.696  0.4289 -0.5627 -0.2283
 1573SOL    HW1 5109   2.913   3.282   4.655  0.2668 -0.6316 -0.5874
 1573SOL    HW2 5110   2.814   3.271   4.770 -1.3423  0.6749 -1.7975
 1574SOL     OW 5111   1.198   2.220   2.173 -0.0750 -0.5066 -0.4642
 1574SOL    HW1 5112   1.120   2.178   2.138 -0.0818 -0.8006 -0.0945
 1574SOL    HW2 5113   1.243   2.151   2.222 -0.6570  0.1750  1.0864
 1575SOL     OW 5114   2.678   4.156   4.558  0.4889 -0.2291 -0.2230
 1575SOL    HW1 5115   2.624   4.211   4.500 -1.1671 -0.8939  0.6281
 1575SOL    HW2 5116   2.768   4.178   4.534 -0.1234  0.2076 -2.3984
 1576SOL     OW 5117   4.927   3.773   1.357 -0.2325 -0.2371  0.0202
 1576SOL    HW1 5118   4.899   3.769   1.448 -1.5012  0.6077 -0.3095
 1576SOL    HW2 5119   5.005   3.828   1.358 -0.4956  0.1275  0.5386
 1577SOL     OW 5120   3.744   4.643   4.324 -0.5382 -0.3815  0.6266
 1577SOL    HW1 5121   3.698   4.671   4.244 -0.6673 -0.0128  0.8269
 1577SOL    HW2 5122   3.684   4.666   4.395  0.4906  1.3261  0.9966
 1578SOL     OW 5123   0.829   2.133   1.225 -0.1444 -0.2651  0.5023
 1578SOL    HW1 5124   0.811   2.039   1.222 -0.5252 -0.1704 -0.5607
 1578SOL    HW2 5125   0.743   2.175   1.211  0.4804  0.2010 -2.5461
 1579SOL     OW 5126   5.225   2.339   5.895 -0.6459  0.2092 -0.8156
 1579SOL    HW1 5127   5.257   2.263   5.846 -1.4100 -0.8745  0.2891
 1579SOL    HW2 5128   5.246   2.319   5.986 -1.1045  1.2065 -0.4730
 1580SOL     OW 5129   1.192   0.525   4.449  0.1309 -0.1623  0.4527
 1580SOL    HW1 5130   1.110   0.571   4.429  0.0244 -0.3400  0.4736
 1580SOL    HW2 5131   1.164   0.448   4.498  0.0390 -1.5921 -1.6989
 1581SOL     OW 5132   2.958   1.628   1.385  0.1846  0.2660  0.0989
 1581SOL    HW1 5133   2.951   1.533   1.370  0.5901 -0.1764  2.3039
 1581SOL    HW2 5134   2.947   1.667   1.299  2.4934 -1.9059 -1.3052
 1582SOL     OW 5135   0.956   4.279   2.574  0.6372  0.0001 -0.3654
 1582SOL    HW1 5136   0.914   4.329   2.644  2.7968  0.8668  0.4045
 1582SOL    HW2 5137   0.935   4.326   2.494  0.0357  0.3076 -0.0327
 1583SOL     OW 5138   3.943   1.742   2.931 -0.1171  0.5896  0.1501
 1583SOL    HW1 5139   4.031   1.753   2.897 -0.2381 -1.9499 -1.2681
 1583SOL    HW2 5140   3.932   1.812   2.995  2.6256  1.4241 -0.1915
 1584SOL     OW 5141   5.918   0.688   2.146  0.1963 -0.1754 -0.7691
 1584SOL    HW1 5142   5.992   0.654   2.196 -0.1010 -0.9852 -0.8673
 1584SOL    HW2 5143   5.955   0.711   2.061  0.6839  1.1215 -0.2409
 1585SOL     OW 5144   4.040   0.619   6.276  0.4196 -0.4274 -0.0051
 1585SOL    HW1 5145   4.079   0.683   6.334 -1.7388  2.0554 -1.0849
 1585SOL    HW2 5146   3.993   0.559   6.334  1.0067  0.0071  0.9430
 1586SOL     OW 5147   1.966   6.552   5.546  0.0321 -0.0135  0.4773
 1586SOL    HW1 5148   1.985   6.621   5.481  0.0181  0.5729  1.0834
 1586SOL    HW2 5149   2.049   6.508   5.560 -0.3022 -1.2884 -1.2088
 1587SOL     OW 5150   6.434   3.959   5.695 -0.0993 -0.2282 -0.1108
 1587SOL    HW1 5151   6.490   3.888   5.727 -1.2374 -1.8411 -1.4886
 1587SOL    HW2 5152   6.348   3.940   5.732 -0.3465  0.6620 -0.2133
 1588SOL     OW 5153   1.345   1.791   3.755  0.3725  0.1228 -0.5167
 1588SOL    HW1 5154   1.329   1.839   3.674  0.3091  1.3369  0.1834
 1588SOL    HW2 5155   1.422   1.737   3.736  0.6350  0.7307 -1.2501
 1589SOL     OW 5156   3.966   3.069   1.088  0.3122  0.2269  0.4673
 1589SOL    HW1 5157   3.941   2.991   1.138 -2.7767  0.9388  0.2525
 1589SOL    HW2 5158   4.039   3.106   1.137 -1.0837 -0.3649  3.1955
 1590SOL     OW 5159   0.953   6.704   3.500 -0.2044 -0.4090 -0.5512
 1590SOL    HW1 5160   0.978   6.613   3.517  0.1587 -0.1809  0.1619
 1590SOL    HW2 5161   0.857   6.703   3.504 -0.1744 -0.2058  2.6671
 1591SOL     OW 5162   4.222   2.427   4.990  0.0915  0.7738 -0.1211
 1591SOL    HW1 5163   4.262   2.467   4.913  0.3320  1.1492  0.1922
 1591SOL    HW2 5164   4.198   2.501   5.046 -0.0937  0.5069  0.1604
 1592SOL     OW 5165   4.415   1.132   0.147 -0.2599 -0.8342 -0.5071
 1592SOL    HW1 5166   4.356   1.062   0.176 -0.8907 -0.8626 -1.8110
 1592SOL    HW2 5167   4.382   1.211   0.189 -1.8585 -0.6713 -2.0033
 1593SOL     OW 5168   2.026   5.936   1.539  0.1173  0.0934  0.0784
 1593SOL    HW1 5169   1.962   5.902   1.477  3.1805 -0.4870 -3.0590
 1593SOL    HW2 5170   2.031   6.029   1.519 -0.1047  0.2438  0.7041
 1594SOL     OW 5171   3.178   3.576   6.692  0.1271 -0.3223 -0.2050
 1594SOL    HW1 5172   3.140   3.590   6.605  0.9229  3.7282 -0.0943
 1594SOL    HW2 5173   3.268   3.550   6.674  0.3274  0.6207 -0.6398
 1595SOL     OW 5174   6.769   1.112   5.718 -0.1516 -0.4626 -0.2317
 1595SOL    HW1 5175   6.679   1.096   5.744 -0.0634  0.4562  0.7074
 1595SOL    HW2 5176   6.763   1.170   5.642 -0.3533 -1.0324 -0.6609
 1596SOL     OW 5177   3.447   6.276   4.098  0.5785  0.1996 -0.0601
 1596SOL    HW1 5178   3.429   6.205   4.159 -0.3077 -0.2252 -0.7923
 1596SOL    HW2 5179   3.533   6.309   4.124 -0.6607  1.4698  2.8127
 1597SOL     OW 5180   6.431   3.347   4.638  0.9722 -0.4137  0.0870
 1597SOL    HW1 5181   6.470   3.276   4.690  1.7904 -1.7044 -2.1423
 1597SOL    HW2 5182   6.348   3.310   4.607  1.5742 -0.5542 -1.3902
 1598SOL     OW 5183   4.120   1.574   4.298  0.4362 -0.4026  0.3299
 1598SOL    HW1 5184   4.127   1.487   4.258 -1.3628 -0.1468 -0.6373
 1598SOL    HW2 5185   4.046   1.567   4.358  0.6901  0.3050  0.7326
 1599SOL     OW 5186   2.881   4.794   3.804 -0.2834  0.3298  0.7262
 1599SOL    HW1 5187   2.801   4.834   3.838  0.6774  1.3683  1.8927
 1599SOL    HW2 5188   2.917   4.746   3.879  0.2400 -0.0137  0.2564
 1600SOL     OW 5189   0.849   5.644   1.100 -0.2650  0.0232  0.4412
 1600SOL    HW1 5190   0.816   5.639   1.011  0.2932 -0.4210  0.2498
 1600SOL    HW2 5191   0.776   5.618   1.155 -1.7200  3.4544  0.3992
 1601SOL     OW 5192   2.415   1.989   6.538 -0.2952 -0.0810 -0.0926
 1601SOL    HW1 5193   2.333   2.004   6.584  0.6405 -0.2844  1.7051
 1601SOL    HW2 5194   2.426   1.894   6.538 -0.9348 -0.2118 -2.0060
 1602SOL     OW 5195   1.809   4.693   1.586 -0.3843 -0.4021  0.0762
 1602SOL    HW1 5196   1.761   4.729   1.660 -2.0888  2.2529 -2.1712
 1602SOL    HW2 5197   1.746   4.638   1.540  0.2788 -0.9737 -0.1883
 1603SOL     OW 5198   1.924   5.601   5.017  0.2745 -0.1552  0.2240
 1603SOL    HW1 5199   2.005   5.607   5.068 -0.4230  0.3973  1.2918
 1603SOL    HW2 5200   1.897   5.692   5.003 -0.2363 -0.3374 -0.0108
 1604SOL     OW 5201   6.533   6.737   5.701 -0.1342  0.2498  0.1867
 1604SOL    HW1 5202   6.470   6.749   5.772 -1.9992 -1.9922 -0.9433
 1604SOL    HW2 5203   6.587   6.662   5.729  0.2113  0.4020 -0.0582
 1605SOL     OW 5204   1.930   2.807   1.956  0.5610 -0.7453  0.6647
 1605SOL    HW1 5205   1.896   2.876   2.013 -0.5730 -0.2564 -0.5319
 1605SOL    HW2 5206   1.852   2.770   1.915  1.3317 -1.0657 -0.5617
 1606SOL     OW 5207   5.300   5.589   0.525  0.2005  0.3937 -0.7457
 1606SOL    HW1 5208   5.322   5.496   0.519  0.2334  0.2594  0.9793
 1606SOL    HW2 5209   5.381   5.632   0.553 -0.0557  0.8166 -0.6435
 1607SOL     OW 5210   5.688   3.918   5.137  0.0969  0.5223  0.0978
 1607SOL    HW1 5211   5.609   3.896   5.088 -0.7470  1.3510  1.0535
 1607SOL    HW2 5212   5.746   3.843   5.123 -1.2257 -0.5523  0.1840
 1608SOL     OW 5213   4.107   6.283   6.668  0.0858 -0.3917 -0.1043
 1608SOL    HW1 5214   4.025   6.329   6.683  0.8155  0.7700  0.4815
 1608SOL    HW2 5215   4.087   6.191   6.683 -0.7392  0.0380  1.6345
 1609SOL     OW 5216   1.044   1.410   6.468  0.3529  0.2380  0.3383
 1609SOL    HW1 5217   1.118   1.424   6.410 -0.4194 -0.8317 -0.9653
 1609SOL    HW2 5218   1.061   1.467   6.543  0.1011  3.8308 -2.0603
 1610SOL     OW 5219   1.904   3.692   1.566  0.5882 -0.9991 -0.0534
 1610SOL    HW1 5220   1.815   3.655   1.569  0.1301 -0.3106 -2.7235
 1610SOL    HW2 5221   1.954   3.629   1.514  1.1759 -0.4677 -0.1356
 1611SOL     OW 5222   1.513   5.579   5.330  0.6132  0.3136  0.1355
 1611SOL    HW1 5223   1.541   5.653   5.276  1.1642  0.6909  0.9173
 1611SOL    HW2 5224   1.573   5.508   5.307  0.1115  0.1061 -0.5834
 1612SOL     OW 5225   2.509   4.800   4.489  0.2561 -0.6443 -0.0018
 1612SOL    HW1 5226   2.480   4.759   4.571  1.6697 -0.3759  0.6580
 1612SOL    HW2 5227   2.430   4.841   4.453  0.1328  1.7959  2.7297
 1613SOL     OW 5228   1.284   5.751   6.471 -0.2697  0.5451  0.5068
 1613SOL    HW1 5229   1.303   5.666   6.433 -1.6061  0.3309  0.2681
 1613SOL    HW2 5230   1.365   5.776   6.516  0.8845  0.1665 -1.2635
 1614SOL     OW 5231   5.445   2.952   0.891 -0.6377 -0.2528  0.0742
 1614SOL    HW1 5232   5.415   2.868   0.927 -0.4696 -0.2899  0.1280
 1614SOL    HW2 5233   5.525   2.930   0.843 -0.4257 -0.0748  0.3423
 1615SOL     OW 5234   3.469   2.403   0.449 -0.0495  1.0678 -0.5792
 1615SOL    HW1 5235   3.538   2.464   0.423  0.3793  1.3312  1.0470
 1615SOL    HW2 5236   3.419   2.451   0.515 -0.0356 -0.1148  0.3332
 1616SOL     OW 5237   6.357   0.729   1.537  0.0678 -0.5052  0.6618
 1616SOL    HW1 5238   6.431   0.722   1.477 -0.2860  1.1829 -0.0389
 1616SOL    HW2 5239   6.280   0.719   1.481 -0.2437 -0.3948  1.0690
 1617SOL     OW 5240   1.083   0.818   3.510 -0.2331  0.3528  0.2124
 1617SOL    HW1 5241   1.144   0.844   3.579  0.9166  0.4975 -0.8239
 1617SOL    HW2 5242   1.131   0.753   3.459 -0.8354  0.6517 -0.7686
 1618SOL     OW 5243   1.098   1.668   1.170  0.3347 -0.0454  0.5236
 1618SOL    HW1 5244   1.148   1.699   1.246 -1.1715 -0.1639  1.5891
 1618SOL    HW2 5245   1.140   1.585   1.146  1.5514  0.5580  0.4657
 1619SOL     OW 5246   2.599   0.211   1.996 -0.1540 -0.5735 -0.2278
 1619SOL    HW1 5247   2.513   0.247   1.971 -0.4148 -0.4244  0.8459
 1619SOL    HW2 5248   2.653   0.223   1.918 -0.0263  2.7525  0.2414
 1620SOL     OW 5249   5.977   0.762   6.288  0.0114 -0.3825  0.4250
 1620SOL    HW1 5250   6.070   0.774   6.267 -0.3633  1.1162 -0.5880
 1620SOL    HW2 5251   5.936   0.845   6.262 -2.0763 -1.9718 -1.8881
 1621SOL     OW 5252   2.001   1.925   4.967  0.1058  0.3654 -0.1834
 1621SOL    HW1 5253   1.931   1.892   5.024  1.3568 -1.1038  0.5807
 1621SOL    HW2 5254   1.962   2.001   4.923 -1.0872  1.3202  2.2796
 1622SOL     OW 5255   0.901   3.698   3.889  0.0751  0.3097 -0.4914
 1622SOL    HW1 5256   0.867   3.733   3.807 -0.0307  2.6313  0.4550
 1622SOL    HW2 5257   0.937   3.774   3.935 -0.4170 -0.7846  1.8880
 1623SOL     OW 5258   4.406   1.738   5.767  0.6857 -0.3481 -0.0176
 1623SOL    HW1 5259   4.445   1.778   5.845  0.8104  0.5570 -0.5280
 1623SOL    HW2 5260   4.414   1.805   5.699 -0.9854 -0.4672 -0.3691
 1624SOL     OW 5261   6.451   0.967   5.225  0.4949  0.3590  0.2721
 1624SOL    HW1 5262   6.391   0.926   5.286  1.4586 -1.7193 -0.0903
 1624SOL    HW2 5263   6.399   0.979   5.145 -0.1106  0.9248  0.7389
 1625SOL     OW 5264   5.598   2.571   1.812 -0.4079  0.9487 -0.7834
 1625SOL    HW1 5265   5.628   2.645   1.759  1.9346  1.4956  1.1130
 1625SOL    HW2 5266   5.632   2.494   1.766  1.2968  1.3918 -0.3631
 1626SOL     OW 5267   6.107   3.075   0.545 -0.0697  0.3198  0.0141
 1626SOL    HW1 5268   6.073   3.117   0.466  1.8240 -0.3563 -1.2093
 1626SOL    HW2 5269   6.097   2.982   0.529  1.5251  0.1307 -0.0348
 1627SOL     OW 5270   6.201   1.916   4.479 -0.0377 -0.0773 -0.0360
 1627SOL    HW1 5271   6.206   1.838   4.423 -1.2982 -1.0100  1.0709
 1627SOL    HW2 5272   6.199   1.990   4.417 -1.2360 -1.0575 -1.2443
 1628SOL     OW 5273   1.752   2.512   5.984  0.1000 -0.4047  0.3268
 1628SOL    HW1 5274   1.842   2.517   6.016  0.0034 -0.5764  0.6261
 1628SOL    HW2 5275   1.699   2.504   6.063 -0.0715 -1.7704  0.0935
 1629SOL     OW 5276   3.191   5.125   3.380  0.3872  0.3136  0.3708
 1629SOL    HW1 5277   3.117   5.185   3.370  1.3424  1.4738 -0.0068
 1629SOL    HW2 5278   3.226   5.144   3.467  1.4375  1.2105 -0.2239
 1630SOL     OW 5279   1.533   4.368   0.368 -0.5332 -0.3359  0.8977
 1630SOL    HW1 5280   1.618   4.338   0.401  0.8572  1.1780 -0.9889
 1630SOL    HW2 5281   1.525   4.325   0.282 -1.3472  0.0578  0.7704
 1631SOL     OW 5282   5.756   0.190   3.634  0.4679  0.2331 -0.1242
 1631SOL    HW1 5283   5.807   0.159   3.559 -0.1070  1.2405 -0.9518
 1631SOL    HW2 5284   5.689   0.123   3.647  1.5411 -0.7639  0.5480
 1632SOL     OW 5285   6.148   1.668   4.748  0.1551 -0.1914 -0.1823
 1632SOL    HW1 5286   6.069   1.633   4.708 -1.5107  0.2951  2.4195
 1632SOL    HW2 5287   6.130   1.665   4.842  2.5245  1.6298  0.4225
 1633SOL     OW 5288   3.388   1.679   3.671 -0.6827  0.0830  0.8283
 1633SOL    HW1 5289   3.437   1.712   3.596 -0.2021 -0.7363  0.7766
 1633SOL    HW2 5290   3.419   1.732   3.745  0.2361 -0.3696  0.7829
 1634SOL     OW 5291   3.992   5.953   1.758  0.2496 -0.4197  0.0070
 1634SOL    HW1 5292   3.955   5.980   1.675 -1.4696 -0.6183  0.6728
 1634SOL    HW2 5293   4.076   5.913   1.735  0.8376  1.4809 -1.4004
 1635SOL     OW 5294   3.259   2.978   2.987 -0.0110 -0.9268 -0.0926
 1635SOL    HW1 5295   3.298   3.011   2.906 -0.0078 -3.0048 -1.0156
 1635SOL    HW2 5296   3.222   3.055   3.029  4.1150  1.0823  0.3822
 1636SOL     OW 5297   5.537   6.672   1.678 -0.8440 -0.0361  0.0676
 1636SOL    HW1 5298   5.490   6.742   1.724 -0.9158 -0.7969  1.1824
 1636SOL    HW2 5299   5.600   6.719   1.624 -1.4110  0.9252  0.2019
 1637SOL     OW 5300   0.691   4.370   3.044  0.4235  0.2675  0.0880
 1637SOL    HW1 5301   0.646   4.454   3.046  1.7323  0.9899 -0.0411
 1637SOL    HW2 5302   0.661   4.325   3.123 -1.8680 -0.0280 -0.8652
 1638SOL     OW 5303   1.674   6.260   5.300  0.3162  0.4556  0.1343
 1638SOL    HW1 5304   1.614   6.241   5.228 -0.2258  0.2929  0.6174
 1638SOL    HW2 5305   1.742   6.315   5.262 -0.0922  0.5625 -0.4441
 1639SOL     OW 5306   0.938   2.819   0.051 -0.0760  0.5198  0.4335
 1639SOL    HW1 5307   0.869   2.839   0.114 -0.7050  0.8260 -0.3330
 1639SOL    HW2 5308   0.977   2.737   0.082 -0.2639  0.7543  1.3004
 1640SOL     OW 5309   6.677   1.500   1.324  0.1300 -0.1008  0.3756
 1640SOL    HW1 5310   6.614   1.571   1.333 -0.3822 -0.3740 -0.8779
 1640SOL    HW2 5311   6.631   1.433   1.275  1.4087 -0.2675 -0.6581
 1641SOL     OW 5312   5.147   2.649   1.435  0.5394  0.3637 -0.4599
 1641SOL    HW1 5313   5.104   2.576   1.389  0.6223 -0.0695  0.1435
 1641SOL    HW2 5314   5.167   2.712   1.366 -2.1434  1.1357 -0.6354
 1642SOL     OW 5315   3.071   3.671   3.767  0.3456 -0.0867  0.5473
 1642SOL    HW1 5316   3.043   3.762   3.769  1.7134  0.3849 -0.1847
 1642SOL    HW2 5317   2.998   3.623   3.729 -0.0080  0.8628  0.0164
 1643SOL     OW 5318   0.905   6.060   6.178  0.0030  0.4932 -0.3394
 1643SOL    HW1 5319   0.914   6.148   6.143  0.6738 -0.0596 -1.6454
 1643SOL    HW2 5320   0.994   6.025   6.177 -0.2501 -0.1825  0.1817
 1644SOL     OW 5321   2.857   1.331   4.156  0.1128  0.1406 -0.3557
 1644SOL    HW1 5322   2.818   1.258   4.108 -0.0217 -0.3972  0.5523
 1644SOL    HW2 5323   2.938   1.295   4.193 -1.5351 -0.6292  2.8928
 1645SOL     OW 5324   5.575   2.130   6.430  0.3681  0.2809  0.3992
 1645SOL    HW1 5325   5.647   2.067   6.432  0.3451  0.0906 -2.2205
 1645SOL    HW2 5326   5.503   2.083   6.388 -0.0778  1.6174 -0.3971
 1646SOL     OW 5327   0.559   4.233   0.273  0.2556 -0.0174  0.1379
 1646SOL    HW1 5328   0.627   4.183   0.228  0.7169  1.1286 -0.4815
 1646SOL    HW2 5329   0.509   4.274   0.202  0.3993  1.0425  0.6262
 1647SOL     OW 5330   4.517   5.876   3.481  0.4120 -0.1609  0.2469
 1647SOL    HW1 5331   4.599   5.923   3.466 -0.0975  0.1958 -1.5836
 1647SOL    HW2 5332   4.545   5.789   3.510  1.3922  0.4692  1.3180
 1648SOL     OW 5333   3.866   5.765   4.148  0.0984  0.2125  0.4398
 1648SOL    HW1 5334   3.815   5.688   4.172 -0.1082  0.5218  1.0242
 1648SOL    HW2 5335   3.892   5.750   4.057 -0.0003 -0.5063  0.5284
 1649SOL     OW 5336   4.172   4.311   2.252 -0.1354 -0.3007  0.1619
 1649SOL    HW1 5337   4.252   4.336   2.298  0.1891  1.5708 -1.3146
 1649SOL    HW2 5338   4.128   4.251   2.312  1.3395  0.2855  1.9129
 1650SOL     OW 5339   5.530   3.658   6.240  0.1820 -0.1357 -0.3364
 1650SOL    HW1 5340   5.497   3.568   6.235 -0.3829  0.1097 -1.1614
 1650SOL    HW2 5341   5.474   3.708   6.181  0.5424  0.7518  0.0466
 1651SOL     OW 5342   6.486   3.067   4.218  0.2361  0.3607  0.4161
 1651SOL    HW1 5343   6.564   3.013   4.219 -0.7792 -1.1693  0.9320
 1651SOL    HW2 5344   6.496   3.127   4.292  0.8954  0.1620  0.4863
 1652SOL     OW 5345   3.021   4.814   0.974 -0.1883  0.1326 -0.3703
 1652SOL    HW1 5346   3.050   4.841   1.061  1.0157 -2.4014  0.0916
 1652SOL    HW2 5347   3.008   4.897   0.927 -0.9695  1.5818  2.1873
 1653SOL     OW 5348   5.345   3.780   1.458 -0.4501 -0.0575 -0.0462
 1653SOL    HW1 5349   5.407   3.846   1.489  1.0723 -1.2200 -0.5173
 1653SOL    HW2 5350   5.380   3.750   1.375 -1.7442 -0.6431 -0.4128
 1654SOL     OW 5351   5.613   1.352   3.173 -0.1477 -0.1946  0.5309
 1654SOL    HW1 5352   5.672   1.425   3.154  0.0456 -0.9006 -2.0160
 1654SOL    HW2 5353   5.600   1.355   3.268  2.0010  1.4854  0.8529
 1655SOL     OW 5354   3.603   5.711   6.285 -0.5321 -0.2206  0.5382
 1655SOL    HW1 5355   3.573   5.635   6.334 -1.7038  0.4381  0.8935
 1655SOL    HW2 5356   3.585   5.688   6.193  3.1191 -2.1069  0.1211
 1656SOL     OW 5357   4.543   5.758   0.809 -0.7114  0.0562  0.2378
 1656SOL    HW1 5358   4.449   5.746   0.822 -0.7549  0.0982 -0.0384
 1656SOL    HW2 5359   4.550   5.832   0.749 -0.4587  1.3615  1.7901
 1657SOL     OW 5360   2.463   6.536   0.270 -0.4197 -0.4407  0.5164
 1657SOL    HW1 5361   2.444   6.630   0.274  2.7433  0.3274  0.4793
 1657SOL    HW2 5362   2.547   6.527   0.317  1.1584 -2.6410 -2.3967
 1658SOL     OW 5363   4.133   5.080   3.968  0.2116 -0.4190 -0.2507
 1658SOL    HW1 5364   4.098   5.082   3.879 -1.2951  1.3524  0.3125
 1658SOL    HW2 5365   4.223   5.111   3.959 -0.5030  1.6374 -0.9930
 1659SOL     OW 5366   3.834   5.624   4.544 -0.3667 -0.0830  0.2456
 1659SOL    HW1 5367   3.747   5.621   4.503 -0.9691  0.4099  1.4171
 1659SOL    HW2 5368   3.870   5.709   4.520 -0.1916 -0.3005 -0.2665
 1660SOL     OW 5369   1.563   2.594   1.018 -0.3280  0.1133  0.3614
 1660SOL    HW1 5370   1.609   2.564   0.940 -0.7940  2.7181 -1.0264
 1660SOL    HW2 5371   1.483   2.541   1.021 -0.4914  0.2365 -1.1858
 1661SOL     OW 5372   1.361   2.424   0.993 -0.2497 -0.3188  0.1821
 1661SOL    HW1 5373   1.365   2.344   1.045  1.1594 -0.8875 -0.7214
 1661SOL    HW2 5374   1.308   2.401   0.917  2.3526 -1.3650 -1.4835
 1662SOL     OW 5375   4.967   4.183   2.506 -0.7096 -0.1815 -0.2002
 1662SOL    HW1 5376   5.039   4.126   2.480 -0.4542  0.3134 -0.5828
 1662SOL    HW2 5377   4.904   4.124   2.548 -0.3330 -0.7027 -0.3593
 1663SOL     OW 5378   2.400   6.303   0.160  0.3690 -0.1460 -0.4400
 1663SOL    HW1 5379   2.359   6.246   0.225  0.7706 -1.0033 -0.9154
 1663SOL    HW2 5380   2.428   6.380   0.209  0.7818 -0.8359  0.4245
 1664SOL     OW 5381   4.547   2.075   3.111  0.3170 -0.4328 -0.3348
 1664SOL    HW1 5382   4.525   2.059   3.019 -0.3646 -0.2254 -0.2128
 1664SOL    HW2 5383   4.469   2.117   3.147 -0.6234 -3.1061  1.0613
 1665SOL     OW 5384   1.746   4.914   5.077 -0.1868 -0.1886 -0.6873
 1665SOL    HW1 5385   1.692   4.965   5.017  0.2356 -0.0443 -0.9474
 1665SOL    HW2 5386   1.836   4.939   5.055  0.0043 -0.7553 -0.5534
 1666SOL     OW 5387   3.809   1.961   2.052  0.0444  0.3909 -0.6010
 1666SOL    HW1 5388   3.834   2.049   2.081  0.1603 -0.2056  1.2300
 1666SOL    HW2 5389   3.859   1.902   2.109  0.6401 -0.8982 -2.3615
 1667SOL     OW 5390   6.448   0.254   3.342 -0.3313  0.1423  0.0025
 1667SOL    HW1 5391   6.412   0.210   3.419 -0.9254 -0.6083 -0.6903
 1667SOL    HW2 5392   6.446   0.347   3.365  2.9000 -0.1984  2.3320
 1668SOL     OW 5393   0.886   5.332   3.320 -0.0409  0.3992  0.0434
 1668SOL    HW1 5394   0.936   5.308   3.242  1.3612 -0.4505  1.1320
 1668SOL    HW2 5395   0.808   5.376   3.287 -0.4133 -1.5495 -1.9081
 1669SOL     OW 5396   4.047   6.052   2.930  0.3555 -0.1956  0.0279
 1669SOL    HW1 5397   4.069   6.146   2.930 -0.4477  0.0172 -1.1632
 1669SOL    HW2 5398   4.087   6.018   3.010  3.4664  0.5089 -1.0573
 1670SOL     OW 5399   0.413   6.675   0.460 -0.1897 -0.5727 -0.4288
 1670SOL    HW1 5400   0.360   6.690   0.538 -1.4855 -0.7008 -1.2599
 1670SOL    HW2 5401   0.407   6.757   0.411  1.4083 -0.1467  0.0379
 1671SOL     OW 5402   2.909   3.437   6.605  0.7555 -0.2458 -0.0896
 1671SOL    HW1 5403   2.958   3.517   6.590 -1.1150  0.9438 -0.1106
 1671SOL    HW2 5404   2.861   3.453   6.687 -0.1075 -1.0834 -0.4073
 1672SOL     OW 5405   4.159   3.470   4.949  0.5364 -0.6327  0.2444
 1672SOL    HW1 5406   4.162   3.565   4.964  2.9878 -0.6276  0.0842
 1672SOL    HW2 5407   4.214   3.456   4.873  0.4822 -2.2327  0.4781
 1673SOL     OW 5408   0.787   3.014   4.710 -0.1655 -0.3508 -0.0775
 1673SOL    HW1 5409   0.782   3.004   4.805 -2.7406 -3.4719 -0.3495
 1673SOL    HW2 5410   0.703   3.054   4.686  0.9052  1.4567 -1.0466
 1674SOL     OW 5411   2.235   6.360   4.483  0.1328 -0.0028 -0.2796
 1674SOL    HW1 5412   2.161   6.361   4.422 -0.9901  1.4067  1.0345
 1674SOL    HW2 5413   2.212   6.424   4.550  2.3619  0.1564  0.4168
 1675SOL     OW 5414   2.002   4.441   5.828 -0.1668 -0.7470 -0.2935
 1675SOL    HW1 5415   2.077   4.387   5.851  0.7666  0.4549 -0.4097
 1675SOL    HW2 5416   1.978   4.484   5.910  1.7051  1.7635 -0.9363
 1676SOL     OW 5417   5.549   4.012   6.007  0.4923 -0.4025  0.0985
 1676SOL    HW1 5418   5.488   3.961   5.953 -0.1188 -0.0709  0.4572
 1676SOL    HW2 5419   5.504   4.096   6.019  0.4314 -0.6102  1.4487
 1677SOL     OW 5420   2.186   2.341   6.090 -0.3038 -0.1801  0.1598
 1677SOL    HW1 5421   2.177   2.312   6.181 -2.1470 -3.1500 -0.8335
 1677SOL    HW2 5422   2.265   2.298   6.058 -0.0156  0.3392  0.1644
 1678SOL     OW 5423   3.505   1.113   4.940  0.1738 -0.2945  0.3926
 1678SOL    HW1 5424   3.561   1.190   4.933  0.6827 -0.6461  0.5372
 1678SOL    HW2 5425   3.559   1.041   4.909  0.3772 -0.9095  2.0482
 1679SOL     OW 5426   5.125   5.986   2.229  0.3242 -0.0464  0.2419
 1679SOL    HW1 5427   5.074   6.062   2.199  0.1560 -0.4727 -0.5871
 1679SOL    HW2 5428   5.062   5.930   2.274  0.4280  0.2536  0.7662
 1680SOL     OW 5429   3.776   3.852   0.202  0.0623 -0.1469  0.3240
 1680SOL    HW1 5430   3.802   3.801   0.125 -0.9349 -0.1375 -0.0369
 1680SOL    HW2 5431   3.746   3.936   0.167 -0.1246 -0.0335  0.7434
 1681SOL     OW 5432   4.419   3.922   0.639  0.5499  0.5473  0.5241
 1681SOL    HW1 5433   4.485   3.853   0.633  0.3252  0.1421  2.1798
 1681SOL    HW2 5434   4.418   3.947   0.732 -0.5354  1.6343  0.2584
 1682SOL     OW 5435   0.360   4.671   1.654  0.4079  0.1302 -0.0664
 1682SOL    HW1 5436   0.266   4.679   1.640  0.4057  0.3331  0.0676
 1682SOL    HW2 5437   0.387   4.602   1.593  0.1953  0.1643 -0.2008
 1683SOL     OW 5438   3.298   2.537   4.536 -0.1295  1.0987  0.6562
 1683SOL    HW1 5439   3.263   2.609   4.588 -0.6588  1.8609 -0.7103
 1683SOL    HW2 5440   3.264   2.552   4.448 -0.9417 -1.2693  0.4838
 1684SOL     OW 5441   3.670   2.061   6.278 -0.5282 -0.4831  0.0131
 1684SOL    HW1 5442   3.616   2.138   6.290  0.8980  0.5208  0.2461
 1684SOL    HW2 5443   3.641   2.000   6.346 -1.3107  0.0543  0.1669
 1685SOL     OW 5444   3.041   2.558   6.411 -0.6078 -0.0368  0.3718
 1685SOL    HW1 5445   3.107   2.588   6.473 -1.3688 -0.6882  1.5198
 1685SOL    HW2 5446   2.977   2.630   6.408 -0.4976  0.0551  0.2353
 1686SOL     OW 5447   4.954   4.116   5.529 -0.0037 -0.1585 -0.5838
 1686SOL    HW1 5448   4.949   4.021   5.533  2.0624 -0.5851 -3.8459
 1686SOL    HW2 5449   4.871   4.143   5.489 -0.8190 -0.4685  0.8366
 1687SOL     OW 5450   1.760   5.326   3.156 -1.0776  0.3998 -0.3454
 1687SOL    HW1 5451   1.725   5.268   3.088 -0.2150 -0.3304 -0.1880
 1687SOL    HW2 5452   1.685   5.344   3.213 -2.1789  2.1956 -2.2494
 1688SOL     OW 5453   5.111   0.492   5.643  0.3815  0.1505  0.6145
 1688SOL    HW1 5454   5.020   0.483   5.616  0.2525  2.2744  0.1706
 1688SOL    HW2 5455   5.117   0.581   5.678  2.5664  0.5264 -0.5708
 1689SOL     OW 5456   4.070   5.394   6.739  0.3412  0.0783 -0.5422
 1689SOL    HW1 5457   4.055   5.368   6.830 -0.7482  0.7808 -0.4932
 1689SOL    HW2 5458   4.111   5.480   6.745 -0.0217  0.2685 -0.6976
 1690SOL     OW 5459   0.976   6.538   2.159 -0.4466  0.0566 -0.6505
 1690SOL    HW1 5460   0.997   6.630   2.176 -2.3693  0.3941  0.1000
 1690SOL    HW2 5461   0.939   6.507   2.242  0.5730 -1.5350 -0.7604
 1691SOL     OW 5462   4.515   1.418   3.965 -0.6370  0.3160  0.4129
 1691SOL    HW1 5463   4.535   1.326   3.982 -0.9412  0.5387  2.1405
 1691SOL    HW2 5464   4.595   1.454   3.929 -0.8970 -0.8868 -1.5397
 1692SOL     OW 5465   6.039   2.754   6.833 -0.0754 -0.1111  0.7403
 1692SOL    HW1 5466   6.085   2.813   6.774  0.1107  0.1490  1.1441
 1692SOL    HW2 5467   5.955   2.797   6.849  0.6431  0.8449  2.2623
 1693SOL     OW 5468   5.118   1.324   0.121  0.0148  0.3351 -0.0712
 1693SOL    HW1 5469   5.028   1.348   0.099 -0.3094 -0.2258  0.5915
 1693SOL    HW2 5470   5.163   1.319   0.036 -0.5706  0.6475 -0.4064
 1694SOL     OW 5471   0.099   5.108   0.783  0.0528 -0.1114  0.7417
 1694SOL    HW1 5472   0.008   5.140   0.778  0.1175  0.2356  1.6522
 1694SOL    HW2 5473   0.107   5.050   0.708 -0.5149  0.9083 -0.1542
 1695SOL     OW 5474   6.115   3.416   1.969 -0.5072  0.1363  0.1000
 1695SOL    HW1 5475   6.102   3.496   1.919  0.2396  0.4539  0.3957
 1695SOL    HW2 5476   6.175   3.364   1.917  1.5023  1.1140  1.2889
 1696SOL     OW 5477   2.708   4.566   2.343  0.2104 -0.2464  0.3163
 1696SOL    HW1 5478   2.782   4.522   2.384 -0.9523 -1.6641  0.9918
 1696SOL    HW2 5479   2.673   4.622   2.412  1.3248  1.3775 -0.3637
 1697SOL     OW 5480   1.916   0.208   0.671  0.2462 -0.4189  0.1352
 1697SOL    HW1 5481   1.836   0.201   0.619  1.3554 -1.4734 -1.5338
 1697SOL    HW2 5482   1.886   0.234   0.758 -2.0278 -1.9002 -0.1189
 1698SOL     OW 5483   1.283   6.682   6.188  0.4467  0.7690  0.8348
 1698SOL    HW1 5484   1.207   6.682   6.129 -0.1563 -2.0107  1.4619
 1698SOL    HW2 5485   1.355   6.651   6.133  0.9932  2.6144  0.4534
 1699SOL     OW 5486   3.865   0.093   2.418  0.0121  0.6260 -0.3333
 1699SOL    HW1 5487   3.896   0.139   2.496 -1.1397 -1.6473  1.5645
 1699SOL    HW2 5488   3.798   0.151   2.381  0.1111  1.4501  0.7256
 1700SOL     OW 5489   2.038   0.827   1.603  0.1247  0.0176 -0.1777
 1700SOL    HW1 5490   1.985   0.766   1.654 -0.8274 -1.0143 -2.2970
 1700SOL    HW2 5491   2.047   0.904   1.659 -1.6294 -0.6978  1.1647
 1701SOL     OW 5492   1.481   4.532   3.767  0.1269  0.0744 -0.6696
 1701SOL    HW1 5493   1.500   4.469   3.698  1.6327  0.4046 -0.5884
 1701SOL    HW2 5494   1.447   4.480   3.840  3.1662 -0.9673  0.1214
 1702SOL     OW 5495   6.488   6.155   0.535  0.3171 -0.4027  0.1045
 1702SOL    HW1 5496   6.490   6.203   0.452 -0.9522  0.1041  0.3335
 1702SOL    HW2 5497   6.395   6.133   0.547  0.6647 -1.6095  0.7553
 1703SOL     OW 5498   1.121   4.950   3.837  0.2158  0.4074  0.0615
 1703SOL    HW1 5499   1.206   4.907   3.835  0.9443  1.8145 -1.1764
 1703SOL    HW2 5500   1.077   4.921   3.757 -0.1726  0.2760  0.3177
 1704SOL     OW 5501   1.740   4.800   4.443 -0.3298 -0.3581  0.3499
 1704SOL    HW1 5502   1.824   4.756   4.430  0.4004  1.0093  0.2881
 1704SOL    HW2 5503   1.684   4.766   4.373 -0.0890 -1.8589  0.8558
 1705SOL     OW 5504   0.470   1.267   5.451  0.6388 -0.5583 -0.4730
 1705SOL    HW1 5505   0.440   1.266   5.360 -3.5606  0.3281  0.7255
 1705SOL    HW2 5506   0.476   1.359   5.474 -0.1122 -0.7779  0.6541
 1706SOL     OW 5507   4.285   3.646   1.258 -0.1248 -0.4209  0.2524
 1706SOL    HW1 5508   4.374   3.611   1.254 -0.3235 -0.8952 -0.2376
 1706SOL    HW2 5509   4.229   3.571   1.236 -0.7031 -0.3656  1.4667
 1707SOL     OW 5510   6.327   2.696   3.413 -0.1942  0.3105 -0.1176
 1707SOL    HW1 5511   6.235   2.721   3.422  0.0277  1.9023 -1.6500
 1707SOL    HW2 5512   6.338   2.684   3.318  1.0499 -0.4514  0.1099
 1708SOL     OW 5513   4.393   2.851   0.321 -0.4971  0.1825  0.4508
 1708SOL    HW1 5514   4.431   2.921   0.268  0.6065 -0.1974  0.6982
 1708SOL    HW2 5515   4.397   2.774   0.264 -2.6759  0.5059 -0.2058
 1709SOL     OW 5516   5.947   2.854   4.947  0.6996  0.2377 -0.4297
 1709SOL    HW1 5517   5.864   2.810   4.928  2.1217 -2.4462 -0.9872
 1709SOL    HW2 5518   5.957   2.916   4.875 -1.2198  1.3115  0.1634
 1710SOL     OW 5519   5.619   2.877   5.346 -0.5642  0.1959  0.4459
 1710SOL    HW1 5520   5.691   2.882   5.409  0.4123 -1.8755 -0.3925
 1710SOL    HW2 5521   5.540   2.887   5.399  0.2845  0.8717  1.6300
 1711SOL     OW 5522   3.817   3.142   1.875  0.6563  0.3404  0.7151
 1711SOL    HW1 5523   3.758   3.072   1.848  0.7268  0.2234  0.8633
 1711SOL    HW2 5524   3.858   3.110   1.955  0.4492  0.6838  0.9624
 1712SOL     OW 5525   5.744   4.380   1.576 -0.2947 -0.2392 -0.0312
 1712SOL    HW1 5526   5.819   4.323   1.557 -0.6267 -0.3149 -1.2255
 1712SOL    HW2 5527   5.721   4.361   1.666  1.2937 -0.0151  0.4590
 1713SOL     OW 5528   0.048   0.256   1.876  0.0200  0.1096  0.2999
 1713SOL    HW1 5529  -0.038   0.251   1.918  0.4440  0.2697  1.2086
 1713SOL    HW2 5530   0.110   0.251   1.948  0.8008 -0.9189 -0.4165
 1714SOL     OW 5531   2.148   1.475   0.066  0.8513 -0.2569 -0.8074
 1714SOL    HW1 5532   2.135   1.426   0.147  0.5288  1.4185  0.2106
 1714SOL    HW2 5533   2.243   1.484   0.059  0.8493  0.8204  0.2017
 1715SOL     OW 5534   0.036   6.333   3.761  0.4745  0.1346 -0.0178
 1715SOL    HW1 5535   0.097   6.260   3.756  0.7632  0.4145 -0.6930
 1715SOL    HW2 5536   0.035   6.370   3.673 -2.0180 -0.9432 -0.5309
 1716SOL     OW 5537   6.440   0.185   5.280  0.2300 -0.4912  0.2603
 1716SOL    HW1 5538   6.497   0.109   5.287  0.4726 -0.2477  1.0987
 1716SOL    HW2 5539   6.475   0.236   5.207 -0.4836 -1.6138 -0.9194
 1717SOL     OW 5540   1.699   6.596   5.488  0.0740 -0.5777  0.4241
 1717SOL    HW1 5541   1.695   6.618   5.395 -0.1433  1.9651  0.9681
 1717SOL    HW2 5542   1.789   6.565   5.502 -0.0517 -1.5464 -0.6899
 1718SOL     OW 5543   2.022   1.341   0.583 -0.2127 -0.0083  0.2173
 1718SOL    HW1 5544   2.030   1.265   0.641  0.4179 -0.6683 -0.6986
 1718SOL    HW2 5545   2.102   1.391   0.599 -0.6948  0.5670  0.9268
 1719SOL     OW 5546   4.731   2.296   1.314  0.0143 -0.3287 -0.0405
 1719SOL    HW1 5547   4.662   2.302   1.248  0.2854 -1.2773 -0.4304
 1719SOL    HW2 5548   4.697   2.235   1.379  0.5886 -1.0363 -0.3860
 1720SOL     OW 5549   3.843   4.384   4.555  0.3269 -0.1253  0.0963
 1720SOL    HW1 5550   3.809   4.429   4.477 -0.3412  0.3176  0.6337
 1720SOL    HW2 5551   3.888   4.452   4.604  1.0755 -0.4857 -0.0826
 1721SOL     OW 5552   3.971   4.909   3.793  0.0082  0.1424  0.7208
 1721SOL    HW1 5553   4.037   4.872   3.735  0.1058 -0.1551  1.0192
 1721SOL    HW2 5554   3.985   4.866   3.877 -1.4935 -1.0130  0.4313
 1722SOL     OW 5555   3.904   0.083   3.029  0.4458 -0.6284  0.3303
 1722SOL    HW1 5556   3.999   0.083   3.040  0.5203  1.1029  0.0193
 1722SOL    HW2 5557   3.869   0.090   3.118  0.6631  0.0970  0.3657
 1723SOL     OW 5558   2.681   0.068   0.677 -0.8326 -0.0848 -0.0824
 1723SOL    HW1 5559   2.730   0.041   0.600  0.0101 -0.8657  0.7024
 1723SOL    HW2 5560   2.609   0.121   0.643 -1.0969 -1.3030 -1.4769
 1724SOL     OW 5561   3.194   5.448   5.614  0.0087 -0.1884 -0.0112
 1724SOL    HW1 5562   3.222   5.358   5.634  0.7603 -0.2372 -1.1469
 1724SOL    HW2 5563   3.192   5.492   5.699  1.1623 -0.8721  0.3987
 1725SOL     OW 5564   5.204   1.049   1.515 -0.7530  0.0675  0.0487
 1725SOL    HW1 5565   5.122   1.098   1.521 -0.0188  1.4918 -0.9560
 1725SOL    HW2 5566   5.233   1.039   1.606 -0.7710  1.8028  0.2672
 1726SOL     OW 5567   0.177   2.426   6.026 -1.1810  0.0207  0.4889
 1726SOL    HW1 5568   0.118   2.469   6.088  0.0003  0.8453  1.0718
 1726SOL    HW2 5569   0.262   2.428   6.068 -0.7385 -1.2618 -0.2935
 1727SOL     OW 5570   0.934   1.004   0.736  0.0635 -0.3765 -0.1535
 1727SOL    HW1 5571   0.906   1.069   0.801  0.1082 -0.2591 -0.2511
 1727SOL    HW2 5572   1.012   1.043   0.697  0.1183 -0.5118 -0.1786
 1728SOL     OW 5573   4.192   2.466   2.918 -0.1607  0.3774 -0.1255
 1728SOL    HW1 5574   4.151   2.549   2.891 -1.3955  0.6656  2.3488
 1728SOL    HW2 5575   4.270   2.493   2.967 -0.0584  0.0314 -0.0992
 1729SOL     OW 5576   5.230   1.046   4.092  0.1436 -0.0462  0.1907
 1729SOL    HW1 5577   5.282   1.069   4.169  1.1196 -0.2426 -0.3908
 1729SOL    HW2 5578   5.292   1.006   4.032 -0.5311  0.4128 -0.8482
 1730SOL     OW 5579   1.478   4.803   4.257 -0.6910 -0.3015 -0.5038
 1730SOL    HW1 5580   1.401   4.826   4.308 -1.6506 -0.9092 -1.6214
 1730SOL    HW2 5581   1.488   4.875   4.195  0.5054  0.4653  0.5458
 1731SOL     OW 5582   4.218   0.133   6.110  0.1633 -0.2329 -0.2199
 1731SOL    HW1 5583   4.201   0.215   6.157  3.9549  0.5751  0.0098
 1731SOL    HW2 5584   4.193   0.065   6.171  0.3048  0.7872  1.0176
 1732SOL     OW 5585   0.832   6.636   4.874 -0.4007 -0.0198 -0.1196
 1732SOL    HW1 5586   0.926   6.653   4.868 -0.3157  0.0164  1.0712
 1732SOL    HW2 5587   0.813   6.579   4.800  0.6549 -0.4240 -0.1030
 1733SOL     OW 5588   5.915   5.981   2.167 -0.3581  0.7758 -0.5236
 1733SOL    HW1 5589   5.988   5.920   2.157 -1.1075 -0.2885  0.2537
 1733SOL    HW2 5590   5.945   6.044   2.232 -0.1251  0.3264 -0.1835
 1734SOL     OW 5591   4.139   2.079   3.751  0.4335 -0.2279 -0.2400
 1734SOL    HW1 5592   4.141   2.058   3.845 -0.2535  1.9279  0.3284
 1734SOL    HW2 5593   4.211   2.141   3.739 -1.4782  2.1351 -0.3399
 1735SOL     OW 5594   5.395   5.697   5.164  0.4173  0.3621 -0.0956
 1735SOL    HW1 5595   5.422   5.757   5.094  0.8475  0.4177  0.1167
 1735SOL    HW2 5596   5.403   5.610   5.124  0.6782  0.3931 -0.1104
 1736SOL     OW 5597   1.451   3.006   1.688 -0.0258  0.4171 -0.4940
 1736SOL    HW1 5598   1.376   2.981   1.635 -0.8158 -1.1303  1.2445
 1736SOL    HW2 5599   1.438   3.099   1.707 -2.0962 -0.0484  0.6392
 1737SOL     OW 5600   1.482   3.911   4.590  0.4113  0.0417 -0.1632
 1737SOL    HW1 5601   1.461   3.954   4.673 -0.1023 -0.1300 -0.2032
 1737SOL    HW2 5602   1.398   3.884   4.555  0.6932 -0.5759 -0.3729
 1738SOL     OW 5603   2.819   1.802   0.872 -0.3131 -0.2329  0.1400
 1738SOL    HW1 5604   2.860   1.765   0.794 -1.3871  2.5603 -1.8939
 1738SOL    HW2 5605   2.851   1.892   0.877 -1.1800  0.0298  2.2627
 1739SOL     OW 5606   2.274   6.646   4.261 -0.1448  0.7034 -0.3803
 1739SOL    HW1 5607   2.202   6.679   4.315 -0.1484 -0.2098  0.1966
 1739SOL    HW2 5608   2.244   6.657   4.171 -1.0772  0.1995 -0.1409
 1740SOL     OW 5609   0.030   2.766   1.114  0.1696  0.4270  0.1455
 1740SOL    HW1 5610   0.008   2.782   1.022 -0.5020  2.1475  0.5611
 1740SOL    HW2 5611   0.078   2.845   1.141 -0.1089  0.1823  1.4059
 1741SOL     OW 5612   2.632   0.621   3.310 -0.0204 -0.0172  0.1347
 1741SOL    HW1 5613   2.569   0.570   3.258  0.0987  0.4180 -0.4425
 1741SOL    HW2 5614   2.668   0.557   3.372 -0.6191 -0.4006  0.1054
 1742SOL     OW 5615   3.800   3.966   6.540  0.4249 -0.2320 -0.0787
 1742SOL    HW1 5616   3.791   3.953   6.446  2.4450 -1.8050 -0.1301
 1742SOL    HW2 5617   3.728   4.025   6.563 -0.3532 -0.1062 -2.5151
 1743SOL     OW 5618   2.425   5.755   0.382 -0.8084  1.0198  0.2042
 1743SOL    HW1 5619   2.497   5.804   0.342 -0.5199 -0.6549 -1.4880
 1743SOL    HW2 5620   2.347   5.787   0.337 -0.6488  0.1667 -0.7165
 1744SOL     OW 5621   6.482   0.353   4.356  0.0436  0.2711 -0.6898
 1744SOL    HW1 5622   6.420   0.421   4.329 -1.3533 -1.6756 -2.7337
 1744SOL    HW2 5623   6.532   0.394   4.426 -1.5606  2.9606 -0.9439
 1745SOL     OW 5624   2.436   5.871   6.606  0.4684 -0.3453 -0.4463
 1745SOL    HW1 5625   2.354   5.904   6.643  1.3395  2.0470 -0.4784
 1745SOL    HW2 5626   2.434   5.899   6.514  0.4157 -2.1352 -1.0314
 1746SOL     OW 5627   0.688   6.208   1.509  0.4941  0.5177  0.2393
 1746SOL    HW1 5628   0.731   6.128   1.478 -0.2303 -0.0788  0.7218
 1746SOL    HW2 5629   0.724   6.222   1.597  1.5398  1.4411 -0.3071
 1747SOL     OW 5630   5.691   4.699   2.528  0.1274  0.1667 -0.7440
 1747SOL    HW1 5631   5.769   4.696   2.584 -0.4954  2.0438  0.3153
 1747SOL    HW2 5632   5.628   4.642   2.572  0.9324 -1.5402 -1.7268
 1748SOL     OW 5633   6.630   3.459   0.962 -0.1762  0.3949  0.2326
 1748SOL    HW1 5634   6.593   3.449   1.049 -1.2590  2.2158  0.0358
 1748SOL    HW2 5635   6.689   3.534   0.970 -1.4851  1.6141 -0.9023
 1749SOL     OW 5636   1.562   4.774   0.606 -0.2975 -0.2272  0.1492
 1749SOL    HW1 5637   1.554   4.713   0.680  0.6659 -1.9227 -1.0596
 1749SOL    HW2 5638   1.523   4.726   0.532  1.1398  0.3219 -1.0037
 1750SOL     OW 5639   0.434   2.054   2.836  0.3777  0.4288 -0.0397
 1750SOL    HW1 5640   0.512   2.109   2.829  1.3405 -0.8597  0.1699
 1750SOL    HW2 5641   0.453   1.977   2.781 -1.9461  1.3540 -2.4012
 1751SOL     OW 5642   1.864   4.161   4.406 -0.3055  0.0590  0.2666
 1751SOL    HW1 5643   1.941   4.120   4.445 -1.4341 -0.9644  1.5393
 1751SOL    HW2 5644   1.843   4.233   4.465 -0.0480  0.6583 -0.3579
 1752SOL     OW 5645   0.679   0.742   0.415  0.0145 -0.1914  0.3296
 1752SOL    HW1 5646   0.673   0.724   0.321  0.1039 -1.5811  0.5734
 1752SOL    HW2 5647   0.599   0.705   0.452  0.5901 -0.8406  0.9580
 1753SOL     OW 5648   4.466   1.206   6.344 -0.4425  0.3136  0.0652
 1753SOL    HW1 5649   4.492   1.188   6.434  1.2909  1.0960 -0.2473
 1753SOL    HW2 5650   4.374   1.231   6.351 -0.2382  0.7413  1.6704
 1754SOL     OW 5651   5.783   1.000   3.343 -0.7693  0.0045 -0.4516
 1754SOL    HW1 5652   5.736   1.011   3.426  0.0265 -1.4205  0.2238
 1754SOL    HW2 5653   5.714   0.989   3.277 -1.4027  0.7672  0.0613
 1755SOL     OW 5654   1.301   6.656   4.147 -0.4801  1.0181 -0.3734
 1755SOL    HW1 5655   1.266   6.643   4.059  1.9534 -0.3421 -1.2588
 1755SOL    HW2 5656   1.372   6.720   4.135  0.1175  0.5486  0.5163
 1756SOL     OW 5657   3.297   1.115   5.169  0.3924  0.1828 -0.5665
 1756SOL    HW1 5658   3.286   1.161   5.086 -0.0564  0.0449 -0.5859
 1756SOL    HW2 5659   3.341   1.033   5.146 -1.0714 -0.5473 -0.8909
 1757SOL     OW 5660   2.700   5.325   0.954  0.1368  0.4068  0.1262
 1757SOL    HW1 5661   2.652   5.251   0.917 -0.8530  0.8433  0.5230
 1757SOL    HW2 5662   2.680   5.398   0.897  0.8899  0.4436 -0.0997
 1758SOL     OW 5663   0.300   6.376   5.310 -0.4441 -0.2013 -0.3807
 1758SOL    HW1 5664   0.366   6.368   5.378  0.6317  0.5426 -1.2870
 1758SOL    HW2 5665   0.340   6.435   5.246 -1.5321 -0.6513 -1.5067
 1759SOL     OW 5666   5.069   1.614   4.477  0.0357  0.2070  0.2327
 1759SOL    HW1 5667   5.109   1.572   4.401  0.1349  0.6201  0.0523
 1759SOL    HW2 5668   5.017   1.686   4.440  0.9737  1.1190  0.6143
 1760SOL     OW 5669   1.561   1.603   6.300  1.2062  0.0394 -0.1303
 1760SOL    HW1 5670   1.533   1.566   6.216  1.6118  1.4626 -0.9320
 1760SOL    HW2 5671   1.657   1.599   6.298  1.3029  1.6245 -0.5252
 1761SOL     OW 5672   6.779   3.347   2.609 -0.1557  0.3467  0.2440
 1761SOL    HW1 5673   6.793   3.302   2.692 -0.1142 -2.0498 -0.9911
 1761SOL    HW2 5674   6.867   3.357   2.572 -0.3549 -0.9108 -0.6271
 1762SOL     OW 5675   0.995   0.694   0.169 -0.2580  0.2249 -0.0136
 1762SOL    HW1 5676   0.907   0.683   0.133  0.1056 -1.1755 -0.5531
 1762SOL    HW2 5677   0.982   0.742   0.251 -1.4233  0.7639 -0.4966
 1763SOL     OW 5678   1.849   6.215   3.288 -0.0326  0.0370 -0.3617
 1763SOL    HW1 5679   1.790   6.282   3.253  0.1794 -0.4219 -1.6834
 1763SOL    HW2 5680   1.853   6.149   3.219  0.3334 -0.9904  0.6098
 1764SOL     OW 5681   5.232   3.999   2.270  0.1207 -0.6809  0.1759
 1764SOL    HW1 5682   5.236   4.072   2.331  1.3611  0.6894 -1.4299
 1764SOL    HW2 5683   5.220   4.041   2.184 -0.6710 -2.4711 -0.6355
 1765SOL     OW 5684   0.916   5.101   2.057  0.2058  0.3237 -0.0230
 1765SOL    HW1 5685   0.985   5.112   1.992 -0.3435  1.3364 -0.4597
 1765SOL    HW2 5686   0.954   5.043   2.123  1.0945  0.0292 -0.7785
 1766SOL     OW 5687   5.791   3.866   3.981 -0.5396 -0.1515  0.1225
 1766SOL    HW1 5688   5.702   3.868   4.017 -0.6467  2.0248 -0.1065
 1766SOL    HW2 5689   5.798   3.947   3.930  1.8769  0.2002  0.8778
 1767SOL     OW 5690   3.707   5.547   4.213 -0.3807 -0.1267  0.2567
 1767SOL    HW1 5691   3.738   5.492   4.285 -1.1609 -1.0886 -0.1185
 1767SOL    HW2 5692   3.658   5.488   4.157  0.0196  0.6529 -0.9609
 1768SOL     OW 5693   1.635   0.411   2.668 -0.2772 -0.0296  0.2501
 1768SOL    HW1 5694   1.678   0.434   2.585 -0.2569 -0.2832  0.1877
 1768SOL    HW2 5695   1.644   0.489   2.722 -0.8401  0.3670 -0.2068
 1769SOL     OW 5696   3.531   4.606   2.726 -0.3374  0.5242  0.5446
 1769SOL    HW1 5697   3.576   4.674   2.676  0.2961 -0.2821  0.0093
 1769SOL    HW2 5698   3.507   4.650   2.808 -0.6241  1.6071 -0.0944
 1770SOL     OW 5699   6.451   4.576   4.487 -0.4321 -0.5721 -0.0474
 1770SOL    HW1 5700   6.516   4.543   4.549 -1.0173  0.2224  1.0233
 1770SOL    HW2 5701   6.470   4.670   4.480 -1.8482 -0.2122  0.7751
 1771SOL     OW 5702   5.142   2.562   6.597  0.1646  0.2720  0.3297
 1771SOL    HW1 5703   5.093   2.530   6.673  0.9172 -1.2236  0.2342
 1771SOL    HW2 5704   5.188   2.640   6.628  0.3157 -0.2152  1.3631
 1772SOL     OW 5705   6.723   4.528   3.599  0.3019  0.5205  0.1540
 1772SOL    HW1 5706   6.686   4.450   3.557  1.3080  0.7640 -1.2306
 1772SOL    HW2 5707   6.647   4.572   3.637 -0.2098 -1.5422  1.7403
 1773SOL     OW 5708   5.344   3.825   6.434  0.1847 -0.4105  0.9124
 1773SOL    HW1 5709   5.394   3.776   6.370  1.2924 -0.7698  2.0157
 1773SOL    HW2 5710   5.354   3.776   6.516  1.4064  1.6271  2.0743
 1774SOL     OW 5711   0.431   0.056   6.115  0.1978  0.2912 -0.4450
 1774SOL    HW1 5712   0.379   0.126   6.156 -0.9611 -1.1288  0.6171
 1774SOL    HW2 5713   0.517   0.063   6.157 -0.0808  0.7108  0.0813
 1775SOL     OW 5714   1.459   0.105   1.324  0.4585  0.1560 -0.3594
 1775SOL    HW1 5715   1.422   0.193   1.317  0.5486  0.2319  0.1013
 1775SOL    HW2 5716   1.434   0.076   1.411  2.6065  0.7184  0.5058
 1776SOL     OW 5717   0.048   1.416   6.238  0.0100 -0.3634  0.2742
 1776SOL    HW1 5718   0.062   1.341   6.181  0.7004 -0.6366  0.7896
 1776SOL    HW2 5719  -0.047   1.426   6.242 -0.0972  1.1575 -2.8180
 1777SOL     OW 5720   1.371   0.757   5.024 -0.1552 -0.2073  0.6084
 1777SOL    HW1 5721   1.457   0.801   5.020 -0.1369 -0.3156 -0.6056
 1777SOL    HW2 5722   1.366   0.707   4.943 -1.2221 -0.4960  0.8382
 1778SOL     OW 5723   2.263   0.640   5.872  0.5152  0.2326  0.4200
 1778SOL    HW1 5724   2.173   0.618   5.848  0.8935  0.0857 -0.9769
 1778SOL    HW2 5725   2.311   0.557   5.864  0.9733  0.5200  0.1009
 1779SOL     OW 5726   6.088   6.220   1.209  0.0526  0.3892 -0.0403
 1779SOL    HW1 5727   6.126   6.216   1.121 -0.5233 -0.4340 -0.2627
 1779SOL    HW2 5728   6.133   6.151   1.257  1.0550  1.4604  0.6084
 1780SOL     OW 5729   6.589   1.615   0.460  0.1261 -0.0728 -1.0602
 1780SOL    HW1 5730   6.560   1.679   0.525 -2.6576 -0.3458 -1.8878
 1780SOL    HW2 5731   6.664   1.655   0.418  1.0666  0.7630  1.2662
 1781SOL     OW 5732   5.424   3.067   3.602  0.3301 -0.3606  0.0985
 1781SOL    HW1 5733   5.408   2.975   3.584  0.2766 -0.1080 -1.2262
 1781SOL    HW2 5734   5.507   3.069   3.649  1.0149 -0.9982 -1.0422
 1782SOL     OW 5735   1.648   3.916   3.459  0.2832 -0.2544 -0.2527
 1782SOL    HW1 5736   1.602   3.898   3.377 -2.1097  1.6800  0.5687
 1782SOL    HW2 5737   1.617   3.847   3.519  1.7247 -1.4236 -0.7775
 1783SOL     OW 5738   3.355   2.174   6.575  0.0095  0.1853  0.2919
 1783SOL    HW1 5739   3.385   2.202   6.661  1.3039  0.9614 -0.3778
 1783SOL    HW2 5740   3.398   2.233   6.514  1.0972 -1.8625 -1.0599
 1784SOL     OW 5741   4.086   5.521   4.639 -0.1204 -0.0816 -0.1933
 1784SOL    HW1 5742   4.122   5.610   4.636  0.9848 -0.4342  1.4567
 1784SOL    HW2 5743   4.120   5.484   4.720  0.8028 -2.5921 -1.6035
 1785SOL     OW 5744   5.538   5.741   0.554 -0.3671  0.0308 -0.3796
 1785SOL    HW1 5745   5.542   5.832   0.524 -1.3246  0.1541 -0.1442
 1785SOL    HW2 5746   5.579   5.742   0.641  0.8667 -0.0261 -0.9297
 1786SOL     OW 5747   5.340   6.700   2.458 -0.0513 -0.3806  0.3361
 1786SOL    HW1 5748   5.408   6.659   2.405  0.1199 -1.1544  1.1179
 1786SOL    HW2 5749   5.281   6.741   2.395  1.5933  1.0496 -0.3304
 1787SOL     OW 5750   1.877   5.190   3.373  0.0942  0.1096  0.0164
 1787SOL    HW1 5751   1.845   5.236   3.451 -1.7337  0.1451 -0.7087
 1787SOL    HW2 5752   1.850   5.245   3.299  2.0829  0.2450 -0.6687
 1788SOL     OW 5753   4.514   5.354   4.775  0.5056 -0.2922  0.2624
 1788SOL    HW1 5754   4.505   5.439   4.817 -1.5207 -0.2803 -0.0869
 1788SOL    HW2 5755   4.579   5.307   4.827 -0.0183  0.6555  1.8216
 1789SOL     OW 5756   2.803   4.120   6.445 -0.1723  0.6941  0.4655
 1789SOL    HW1 5757   2.873   4.185   6.444  0.4943 -0.0094  0.7393
 1789SOL    HW2 5758   2.773   4.116   6.354  1.8252 -0.7766 -0.1882
 1790SOL     OW 5759   4.504   4.698   6.235  0.2058 -0.2632  0.0276
 1790SOL    HW1 5760   4.526   4.739   6.152  0.7897 -0.8913 -0.1445
 1790SOL    HW2 5761   4.589   4.683   6.277  0.0239 -1.3287  0.0502
 1791SOL     OW 5762   4.325   1.026   0.700  0.2431 -0.3519 -0.8140
 1791SOL    HW1 5763   4.345   1.119   0.691  1.0609 -0.3062  1.0725
 1791SOL    HW2 5764   4.229   1.022   0.705  0.2153  0.4109 -0.6848
 1792SOL     OW 5765   0.225   0.795   6.542 -0.2273 -0.2909 -0.6885
 1792SOL    HW1 5766   0.138   0.756   6.530  0.4211 -2.3735  0.8910
 1792SOL    HW2 5767   0.221   0.838   6.627 -0.5200  2.1527 -1.8486
 1793SOL     OW 5768   4.658   3.395   3.898 -0.3516  0.4570 -0.3589
 1793SOL    HW1 5769   4.710   3.341   3.959 -0.4653 -0.7631 -1.3027
 1793SOL    HW2 5770   4.700   3.382   3.813 -1.2693  0.7049 -0.8598
 1794SOL     OW 5771   0.126   2.228   5.370  0.4293  0.3476  0.3533
 1794SOL    HW1 5772   0.054   2.249   5.311 -0.0621  2.1303  1.5058
 1794SOL    HW2 5773   0.196   2.289   5.346  0.4659  0.6315  1.1505
 1795SOL     OW 5774   1.140   2.588   5.097 -0.0325 -0.2115 -0.0959
 1795SOL    HW1 5775   1.174   2.674   5.073 -0.6956 -0.3492 -1.5985
 1795SOL    HW2 5776   1.178   2.570   5.183  1.6874  0.7139 -0.6318
 1796SOL     OW 5777   1.883   5.301   1.732 -0.1248  0.0478  0.0498
 1796SOL    HW1 5778   1.888   5.317   1.638 -0.8224 -0.8741 -0.1586
 1796SOL    HW2 5779   1.815   5.235   1.742 -0.6648  0.7538  1.2895
 1797SOL     OW 5780   3.725   0.900   0.842 -0.1734  0.0601 -0.3342
 1797SOL    HW1 5781   3.658   0.917   0.777  0.2091 -0.2404 -0.8116
 1797SOL    HW2 5782   3.757   0.987   0.867 -0.8075  0.2116 -0.0197
 1798SOL     OW 5783   6.436   3.705   1.982  0.0883  0.1430 -0.2761
 1798SOL    HW1 5784   6.508   3.750   2.025 -2.4905  3.9140  0.6035
 1798SOL    HW2 5785   6.457   3.612   1.990  4.8427  0.9957 -0.3103
 1799SOL     OW 5786   3.157   0.548   1.584 -0.1219  0.5671 -0.2326
 1799SOL    HW1 5787   3.130   0.576   1.496 -1.0628 -0.3130 -0.2390
 1799SOL    HW2 5788   3.250   0.526   1.574 -0.4547 -0.4898 -1.2664
 1800SOL     OW 5789   4.661   4.171   4.528 -0.3900  0.0437  0.0208
 1800SOL    HW1 5790   4.719   4.136   4.460  0.7591 -1.0083  1.4712
 1800SOL    HW2 5791   4.593   4.105   4.538 -0.4281  0.0862  0.0415
 1801SOL     OW 5792   2.263   1.652   6.289  0.2535  0.1260  0.3234
 1801SOL    HW1 5793   2.229   1.708   6.359 -1.1343  0.2393 -0.4045
 1801SOL    HW2 5794   2.348   1.622   6.322  0.2116  1.1960  1.4987
 1802SOL     OW 5795   6.635   2.690   5.667  0.2593  0.4573  0.2012
 1802SOL    HW1 5796   6.654   2.611   5.719 -0.6411  0.1948  0.1561
 1802SOL    HW2 5797   6.539   2.698   5.671  0.0192 -0.3100 -2.4673
 1803SOL     OW 5798   3.334   6.111   2.100 -0.3903  0.7199  0.1403
 1803SOL    HW1 5799   3.262   6.094   2.040 -0.6200  0.3053  0.5220
 1803SOL    HW2 5800   3.325   6.043   2.167  0.3745  0.6453  0.1721
 1804SOL     OW 5801   5.662   6.535   3.475  0.3990 -0.4385  0.5611
 1804SOL    HW1 5802   5.750   6.496   3.474 -0.0097 -1.3890 -0.2714
 1804SOL    HW2 5803   5.642   6.545   3.568  1.1811 -0.7060  0.7704
 1805SOL     OW 5804   5.693   5.405   2.530  0.1110  0.0754  0.4124
 1805SOL    HW1 5805   5.641   5.335   2.569  1.1503 -1.7034 -1.2008
 1805SOL    HW2 5806   5.769   5.413   2.588  0.6331 -1.1142 -0.0598
 1806SOL     OW 5807   2.832   6.784   6.385  0.1272 -0.4715  0.3874
 1806SOL    HW1 5808   2.853   6.699   6.345 -1.1757 -0.1052 -1.1769
 1806SOL    HW2 5809   2.881   6.784   6.467  2.5039 -1.4831 -0.9372
 1807SOL     OW 5810   1.716   1.732   3.422 -0.3966 -0.1670  0.6488
 1807SOL    HW1 5811   1.805   1.710   3.450 -0.2886  0.3170  0.6901
 1807SOL    HW2 5812   1.718   1.826   3.405 -0.5109 -0.3981 -0.8002
 1808SOL     OW 5813   3.775   0.341   4.639  0.1101  0.7456  0.0020
 1808SOL    HW1 5814   3.703   0.351   4.702 -0.4392  1.0944 -0.6686
 1808SOL    HW2 5815   3.837   0.283   4.683 -0.5268  0.5341  0.6421
 1809SOL     OW 5816   4.631   5.915   3.903 -0.0245  0.2603  0.3380
 1809SOL    HW1 5817   4.600   6.001   3.932  1.2643  0.4449  1.2416
 1809SOL    HW2 5818   4.586   5.853   3.960 -1.4600  0.2557 -0.7418
 1810SOL     OW 5819   0.027   6.107   2.518 -0.2271  0.0866  0.2377
 1810SOL    HW1 5820   0.082   6.159   2.460  0.5819  0.5595  1.3881
 1810SOL    HW2 5821  -0.003   6.034   2.464 -1.0696  1.5093 -1.2976
 1811SOL     OW 5822   3.471   2.369   1.184 -0.1138  0.4043  0.1433
 1811SOL    HW1 5823   3.553   2.384   1.136 -0.1382 -0.7517 -0.2749
 1811SOL    HW2 5824   3.477   2.429   1.259  0.3976  1.4734 -0.7209
 1812SOL     OW 5825   5.300   0.758   0.752 -0.0141 -0.2016 -0.0038
 1812SOL    HW1 5826   5.278   0.850   0.766 -0.5687 -0.6384  2.4325
 1812SOL    HW2 5827   5.226   0.710   0.790  1.4964 -1.6495  1.2241
 1813SOL     OW 5828   2.764   4.412   4.254 -0.1276  0.0717 -0.4567
 1813SOL    HW1 5829   2.759   4.490   4.309  1.3812  0.1907 -0.4638
 1813SOL    HW2 5830   2.699   4.353   4.291  0.1573  0.5362  0.8391
 1814SOL     OW 5831   6.182   4.721   1.188 -0.0887 -0.0776 -0.2534
 1814SOL    HW1 5832   6.184   4.801   1.241 -1.8804 -0.9930  1.2968
 1814SOL    HW2 5833   6.208   4.651   1.249 -0.2821 -0.9081 -1.1034
 1815SOL     OW 5834   3.153   2.047   6.437  0.1267  0.1232  0.0867
 1815SOL    HW1 5835   3.191   2.065   6.351  1.6425  1.1252  0.9148
 1815SOL    HW2 5836   3.203   2.102   6.497 -1.4620  0.1002  1.5121
 1816SOL     OW 5837   2.089   0.679   4.030  0.4442  0.1531 -0.2660
 1816SOL    HW1 5838   2.174   0.653   4.067  0.9763  0.2302 -1.3691
 1816SOL    HW2 5839   2.109   0.697   3.938 -0.9412 -0.6438 -0.7404
 1817SOL     OW 5840   2.461   4.056   4.177  0.0498  0.1097 -0.4721
 1817SOL    HW1 5841   2.418   3.970   4.172  1.3382 -0.6580  0.6809
 1817SOL    HW2 5842   2.496   4.070   4.090  1.9250 -1.7493 -0.1036
 1818SOL     OW 5843   3.236   0.511   6.062  0.1098  0.0661  0.1923
 1818SOL    HW1 5844   3.170   0.510   5.992  1.9163  0.8271 -1.6098
 1818SOL    HW2 5845   3.248   0.418   6.084 -1.7988 -0.0696  0.8547
 1819SOL     OW 5846   0.965   4.786   2.149 -0.0180 -0.0565  0.0525
 1819SOL    HW1 5847   0.927   4.729   2.216  0.8914 -1.7513 -0.8349
 1819SOL    HW2 5848   0.943   4.745   2.066 -0.1259  1.4025 -0.6813
 1820SOL     OW 5849   1.023   3.085   5.344 -0.2773 -0.0785  0.2906
 1820SOL    HW1 5850   1.107   3.096   5.299 -0.8787 -0.3604 -0.9644
 1820SOL    HW2 5851   0.979   3.015   5.295 -0.6784 -0.9242  1.8000
 1821SOL     OW 5852   4.074   1.201   0.143 -0.2135 -0.6170  0.1152
 1821SOL    HW1 5853   4.038   1.113   0.149  0.8069 -1.0185  0.4686
 1821SOL    HW2 5854   4.141   1.205   0.211 -0.3213  0.4700  0.1828
 1822SOL     OW 5855   2.984   0.527   3.229  0.1481  0.6862 -0.2870
 1822SOL    HW1 5856   3.047   0.596   3.208  0.5889  0.1728 -0.6954
 1822SOL    HW2 5857   2.922   0.568   3.289  0.1877  1.5398 -0.8134
 1823SOL     OW 5858   1.602   6.776   2.882 -0.5161  0.0842  0.0243
 1823SOL    HW1 5859   1.651   6.845   2.926 -0.7249 -0.3333  0.9376
 1823SOL    HW2 5860   1.575   6.717   2.952  1.2925 -1.9738 -0.8569
 1824SOL     OW 5861   3.110   2.160   3.649 -0.2314 -0.7731  0.6981
 1824SOL    HW1 5862   3.171   2.214   3.699 -0.7560 -0.0161  0.5484
 1824SOL    HW2 5863   3.025   2.202   3.664 -0.7248 -1.8371  0.9447
 1825SOL     OW 5864   3.880   1.000   0.506  0.2119  0.1766  0.0686
 1825SOL    HW1 5865   3.837   1.053   0.439  0.4654 -0.0089 -0.2414
 1825SOL    HW2 5866   3.873   0.910   0.473 -2.2137 -0.3213  1.6188
 1826SOL     OW 5867   4.374   3.339   3.847 -0.7720 -0.3761 -0.2830
 1826SOL    HW1 5868   4.464   3.370   3.850 -0.8123 -0.2964  0.2380
 1826SOL    HW2 5869   4.322   3.413   3.880 -0.8609 -1.0011  1.0356
 1827SOL     OW 5870   1.983   3.052   3.424  0.8717  0.0214  0.4655
 1827SOL    HW1 5871   2.054   3.047   3.361 -0.1850 -2.8329 -0.6577
 1827SOL    HW2 5872   1.926   3.122   3.392  2.7708  1.9641  1.0838
 1828SOL     OW 5873   1.252   2.127   5.392  0.2273 -0.2166 -0.0311
 1828SOL    HW1 5874   1.316   2.166   5.451 -1.5242  0.3949  1.5433
 1828SOL    HW2 5875   1.181   2.191   5.386 -1.5138 -1.9716  0.5180
 1829SOL     OW 5876   4.971   2.248   3.669 -0.1902  0.7507 -0.0344
 1829SOL    HW1 5877   5.027   2.245   3.746 -0.0762 -1.2752 -0.1461
 1829SOL    HW2 5878   4.903   2.313   3.690  1.1461  1.9225  0.8012
 1830SOL     OW 5879   4.494   5.775   4.803 -0.6373  0.0576 -0.1861
 1830SOL    HW1 5880   4.461   5.847   4.857 -1.0341 -0.5685  0.4264
 1830SOL    HW2 5881   4.543   5.720   4.865 -0.4459 -0.2651 -0.6197
 1831SOL     OW 5882   3.468   0.189   0.279 -0.1802  0.1085  0.1627
 1831SOL    HW1 5883   3.524   0.112   0.265 -0.1016  0.0168  0.9377
 1831SOL    HW2 5884   3.387   0.168   0.233 -0.0536 -0.3228  0.1321
 1832SOL     OW 5885   4.681   3.573   5.091  0.1811 -0.0927 -0.4446
 1832SOL    HW1 5886   4.706   3.533   5.008  1.3281 -0.2507 -0.0366
 1832SOL    HW2 5887   4.607   3.521   5.121 -0.1233 -0.1532 -1.2741
 1833SOL     OW 5888   4.818   3.248   0.102  0.1708 -0.2298  0.7412
 1833SOL    HW1 5889   4.866   3.167   0.118  1.3428  0.1231 -0.6718
 1833SOL    HW2 5890   4.822   3.259   0.007  0.4495  1.7052  0.9296
 1834SOL     OW 5891   1.105   3.061   3.333 -0.0306  0.2985 -0.6358
 1834SOL    HW1 5892   1.103   3.127   3.402 -0.9631 -0.1742 -0.2059
 1834SOL    HW2 5893   1.043   2.994   3.360  1.3761 -1.1127 -0.7277
 1835SOL     OW 5894   2.135   4.269   0.084 -0.0005  0.1788 -0.2327
 1835SOL    HW1 5895   2.217   4.281   0.132 -1.0213  0.2303  1.5517
 1835SOL    HW2 5896   2.148   4.319   0.003  1.8751 -0.1518 -0.1894
 1836SOL     OW 5897   1.164   0.192   4.299  0.2631 -0.1657  0.1817
 1836SOL    HW1 5898   1.139   0.229   4.383  0.6085 -1.1559  0.7339
 1836SOL    HW2 5899   1.257   0.215   4.289  0.2836 -0.2524  0.1749
 1837SOL     OW 5900   2.680   2.254   0.846  0.7534 -0.7009 -0.2820
 1837SOL    HW1 5901   2.733   2.180   0.876  1.4378 -0.2072 -0.2502
 1837SOL    HW2 5902   2.590   2.231   0.871  1.0901 -1.0381  0.6655
 1838SOL     OW 5903   0.018   6.487   4.869 -0.1641 -0.4548  0.3009
 1838SOL    HW1 5904   0.113   6.482   4.872 -0.1565 -0.9526 -0.4381
 1838SOL    HW2 5905  -0.011   6.436   4.945  0.1628  0.4407  1.0367
 1839SOL     OW 5906   2.722   6.094   5.275 -0.0591 -0.4289 -0.0023
 1839SOL    HW1 5907   2.744   6.097   5.368 -0.2286  0.0475  0.0255
 1839SOL    HW2 5908   2.807   6.093   5.231  0.0964 -3.2496  0.1885
 1840SOL     OW 5909   3.126   5.125   2.642 -0.2642  0.2953  0.1623
 1840SOL    HW1 5910   3.069   5.089   2.574  1.1280  1.3108 -1.6234
 1840SOL    HW2 5911   3.166   5.048   2.683 -2.2718 -0.4007  0.9541
 1841SOL     OW 5912   0.788   1.423   1.252  0.6146  0.5352 -0.0274
 1841SOL    HW1 5913   0.734   1.424   1.173 -0.3129  0.8790  0.5899
 1841SOL    HW2 5914   0.799   1.516   1.274  0.5400  0.4258  0.4662
 1842SOL     OW 5915   3.487   5.584   0.674 -1.0756  0.4590  0.5703
 1842SOL    HW1 5916   3.534   5.503   0.692 -2.8625 -0.5525  0.8291
 1842SOL    HW2 5917   3.498   5.598   0.580 -2.3957 -1.1855  0.1294
 1843SOL     OW 5918   1.269   1.515   3.023  0.5059 -0.1553 -0.1305
 1843SOL    HW1 5919   1.353   1.473   3.040  1.6151  1.8157 -0.4571
 1843SOL    HW2 5920   1.284   1.571   2.947 -1.1850  0.0525 -0.3611
 1844SOL     OW 5921   2.634   3.387   6.392  0.3545  0.3376 -0.2214
 1844SOL    HW1 5922   2.656   3.449   6.322  2.6999  0.8661  0.8823
 1844SOL    HW2 5923   2.704   3.398   6.456 -1.0292 -1.0528  1.6241
 1845SOL     OW 5924   1.339   5.135   6.745  0.3503  0.0665  0.2971
 1845SOL    HW1 5925   1.377   5.048   6.736  0.9291  0.1475  1.6779
 1845SOL    HW2 5926   1.412   5.195   6.735  0.3474  0.2878  1.4507
 1846SOL     OW 5927   0.627   1.117   5.046  0.0253 -0.4974  0.3051
 1846SOL    HW1 5928   0.642   1.071   5.128 -0.8182 -0.1753  0.6453
 1846SOL    HW2 5929   0.592   1.202   5.072 -0.5203 -0.5008 -0.3972
 1847SOL     OW 5930   0.930   2.913   1.542  0.0763 -0.4642  0.5183
 1847SOL    HW1 5931   0.964   2.840   1.491  0.7745  0.4515 -0.3835
 1847SOL    HW2 5932   0.846   2.935   1.502  1.3266  1.2710 -1.3764
 1848SOL     OW 5933   3.049   1.098   4.808  0.0132 -0.7744 -0.2075
 1848SOL    HW1 5934   3.043   1.190   4.833 -1.6894 -0.9320  0.0253
 1848SOL    HW2 5935   3.071   1.052   4.889 -2.0661 -0.8859  0.3313
 1849SOL     OW 5936   1.830   6.146   4.555 -0.3337 -0.0707 -0.1426
 1849SOL    HW1 5937   1.887   6.134   4.479  0.2680 -1.5093  0.4914
 1849SOL    HW2 5938   1.776   6.067   4.558 -1.4751  0.6938  0.0209
 1850SOL     OW 5939   0.920   0.763   3.721  0.3498  0.8432  0.4399
 1850SOL    HW1 5940   0.832   0.777   3.687  0.3149 -2.5326 -1.3513
 1850SOL    HW2 5941   0.977   0.795   3.651  0.4776  0.8823  0.5627
 1851SOL     OW 5942   5.694   0.845   4.032 -0.2975  0.2267 -0.7287
 1851SOL    HW1 5943   5.672   0.868   4.122  2.8294 -1.3643  0.6172
 1851SOL    HW2 5944   5.686   0.749   4.029  0.7471  0.1461 -1.7676
 1852SOL     OW 5945   5.155   3.838   0.940  0.1658 -0.3586 -0.2524
 1852SOL    HW1 5946   5.165   3.891   0.861 -1.9129  0.0462 -0.2973
 1852SOL    HW2 5947   5.093   3.886   0.994  0.4946 -1.3127  1.0131
 1853SOL     OW 5948   1.919   4.491   1.436  0.1270  0.3118  0.0703
 1853SOL    HW1 5949   2.004   4.499   1.394  0.8493  1.0657  1.6019
 1853SOL    HW2 5950   1.922   4.553   1.509 -1.7155  0.3159  0.1951
 1854SOL     OW 5951   3.211   2.360   2.346  0.2521 -0.4421 -0.0088
 1854SOL    HW1 5952   3.173   2.443   2.373 -0.2779 -0.3957 -0.8498
 1854SOL    HW2 5953   3.182   2.297   2.412 -0.5065 -0.2176 -0.1196
 1855SOL     OW 5954   1.214   1.855   4.200  0.3455 -0.8134 -0.1631
 1855SOL    HW1 5955   1.149   1.913   4.241 -0.1485 -1.0822 -0.5515
 1855SOL    HW2 5956   1.177   1.834   4.114  2.0757  1.0093 -1.4452
 1856SOL     OW 5957   6.359   5.905   4.654  0.0575 -0.4058 -0.0429
 1856SOL    HW1 5958   6.448   5.934   4.673  0.6339 -1.5044 -0.9916
 1856SOL    HW2 5959   6.318   5.979   4.609 -0.1206  0.7915  1.9708
 1857SOL     OW 5960   0.431   1.923   3.505 -0.2548  0.3568  0.2003
 1857SOL    HW1 5961   0.479   1.866   3.565  0.4757 -1.1493 -1.7230
 1857SOL    HW2 5962   0.361   1.961   3.558  0.5525 -0.6464  2.0600
 1858SOL     OW 5963   2.394   1.675   1.563 -0.4467 -0.4296  0.3766
 1858SOL    HW1 5964   2.336   1.729   1.617 -1.2744 -0.7412 -0.1905
 1858SOL    HW2 5965   2.471   1.661   1.618 -0.4550  0.8614  0.7449
 1859SOL     OW 5966   1.154   4.640   4.147  0.7493  0.1702  0.3231
 1859SOL    HW1 5967   1.178   4.600   4.064 -2.4940 -0.3289 -0.5218
 1859SOL    HW2 5968   1.207   4.719   4.152  0.9097  0.3018 -2.2979
 1860SOL     OW 5969   5.039   4.246   4.274  0.9094 -0.2900  0.0391
 1860SOL    HW1 5970   4.991   4.290   4.204  1.4733 -0.2116 -0.3080
 1860SOL    HW2 5971   5.128   4.237   4.239  0.3738 -3.5518 -0.7380
 1861SOL     OW 5972   5.813   5.153   0.424  0.5732  0.7156 -0.2659
 1861SOL    HW1 5973   5.764   5.155   0.506 -0.0538 -0.6499 -0.5798
 1861SOL    HW2 5974   5.750   5.178   0.358  0.1462 -1.3035 -0.7065
 1862SOL     OW 5975   2.987   5.263   6.831  0.0232  0.1040 -0.0965
 1862SOL    HW1 5976   3.047   5.335   6.853 -1.0682  1.0514 -0.1589
 1862SOL    HW2 5977   2.931   5.299   6.762 -0.9406 -0.6018  0.3115
 1863SOL     OW 5978   1.588   5.715   4.887 -0.4377  0.2592 -0.5839
 1863SOL    HW1 5979   1.666   5.766   4.866  0.3380 -0.9055 -0.6365
 1863SOL    HW2 5980   1.523   5.742   4.822  0.1530  0.7278 -0.9841
 1864SOL     OW 5981   3.193   3.062   0.262  0.1714 -0.0977 -0.6886
 1864SOL    HW1 5982   3.159   2.995   0.322 -0.0613 -0.9795 -1.7856
 1864SOL    HW2 5983   3.249   3.014   0.202 -0.3540  0.6198 -1.7713
 1865SOL     OW 5984   4.951   0.939   5.177 -0.2012 -0.1591 -0.0154
 1865SOL    HW1 5985   4.892   0.865   5.167 -0.4870  0.2062 -1.1552
 1865SOL    HW2 5986   5.026   0.919   5.122  1.2090 -1.0174  2.0691
 1866SOL     OW 5987   1.580   2.971   3.854 -0.0149  0.1058  0.3659
 1866SOL    HW1 5988   1.620   3.002   3.773 -0.7396  0.3181  0.0829
 1866SOL    HW2 5989   1.499   2.928   3.826 -0.8735  1.2301  1.0624
 1867SOL     OW 5990   6.131   1.573   0.991 -0.6259  0.0927 -0.1454
 1867SOL    HW1 5991   6.037   1.592   0.992 -0.7519 -0.5392  0.7730
 1867SOL    HW2 5992   6.137   1.479   1.005  0.1208 -0.0195 -1.1522
 1868SOL     OW 5993   2.260   1.831   4.092  0.4275  0.0855 -0.2401
 1868SOL    HW1 5994   2.220   1.792   4.171 -0.3107 -0.5531 -0.9116
 1868SOL    HW2 5995   2.303   1.909   4.124 -0.3863  0.1674  0.7217
 1869SOL     OW 5996   1.352   3.572   6.144 -0.2104  0.2328  0.4637
 1869SOL    HW1 5997   1.383   3.602   6.059 -0.5144 -1.1155 -0.1346
 1869SOL    HW2 5998   1.269   3.529   6.127 -0.1418 -0.3134  1.3918
 1870SOL     OW 5999   6.193   5.028   0.824 -0.3157 -0.2909 -0.6950
 1870SOL    HW1 6000   6.287   5.013   0.812  0.1392 -1.8321  3.2244
 1870SOL    HW2 6001   6.153   4.985   0.749  2.0376  0.3849 -2.4884
 1871SOL     OW 6002   2.467   6.472   4.191  0.0016 -0.1968  0.3922
 1871SOL    HW1 6003   2.477   6.418   4.269  2.4861  1.7369  1.5435
 1871SOL    HW2 6004   2.411   6.544   4.219  0.1457  0.0246  0.1159
 1872SOL     OW 6005   6.547   3.254   4.034 -0.0544 -0.3365 -0.0767
 1872SOL    HW1 6006   6.556   3.200   3.955  0.7995  0.6463 -0.6681
 1872SOL    HW2 6007   6.539   3.190   4.105 -0.3533 -1.2403 -0.8907
 1873SOL     OW 6008   2.630   1.531   4.747 -0.0634 -0.0825  0.0698
 1873SOL    HW1 6009   2.657   1.475   4.820 -0.3019 -0.7149 -0.3151
 1873SOL    HW2 6010   2.631   1.620   4.782  1.7569 -0.1635  0.2814
 1874SOL     OW 6011   4.463   1.472   5.592 -0.0788 -0.0937 -0.4555
 1874SOL    HW1 6012   4.398   1.403   5.574  0.1372 -0.6220  0.6572
 1874SOL    HW2 6013   4.435   1.509   5.676  1.5320 -0.9581  0.5263
 1875SOL     OW 6014   2.467   3.004   3.116 -0.4493  0.1461 -0.0776
 1875SOL    HW1 6015   2.532   3.059   3.160 -0.7530  2.0003 -1.7753
 1875SOL    HW2 6016   2.515   2.962   3.045 -0.0073 -2.6627  1.7172
 1876SOL     OW 6017   1.527   2.533   3.634 -0.1956  0.5434 -0.5545
 1876SOL    HW1 6018   1.620   2.551   3.619  0.4282 -0.9635  1.1382
 1876SOL    HW2 6019   1.509   2.568   3.721 -0.7967 -0.5289 -0.2271
 1877SOL     OW 6020   0.252   6.119   4.902  0.5677  0.4224 -0.2816
 1877SOL    HW1 6021   0.245   6.157   4.989 -1.1188  0.1851 -0.2852
 1877SOL    HW2 6022   0.235   6.026   4.915  1.1926  0.2358 -0.7510
 1878SOL     OW 6023   2.064   6.335   1.633 -0.4885 -0.0078  0.2245
 1878SOL    HW1 6024   2.032   6.299   1.550  0.5763 -0.2155 -0.1189
 1878SOL    HW2 6025   2.115   6.264   1.672  0.2223  0.5544  0.3562
 1879SOL     OW 6026   3.956   3.090   0.093 -0.2138  0.8086 -0.1713
 1879SOL    HW1 6027   3.952   3.185   0.102  0.7458  0.7018  2.5749
 1879SOL    HW2 6028   3.866   3.063   0.077 -1.0029  2.0409  1.8118
 1880SOL     OW 6029   2.197   3.160   5.647  0.1279 -0.5622 -0.7387
 1880SOL    HW1 6030   2.178   3.130   5.736  0.3605  1.0078 -0.1398
 1880SOL    HW2 6031   2.123   3.128   5.595 -2.5303  2.3863  0.8775
 1881SOL     OW 6032   3.141   1.685   4.313 -0.6551 -0.3909 -0.4789
 1881SOL    HW1 6033   3.219   1.634   4.289  0.1660  1.0495 -1.0204
 1881SOL    HW2 6034   3.082   1.674   4.239 -0.1664  0.0371 -0.9415
 1882SOL     OW 6035   0.629   3.707   1.115  0.0175 -0.6113  0.4920
 1882SOL    HW1 6036   0.538   3.720   1.140  0.0992 -0.7284  0.8589
 1882SOL    HW2 6037   0.647   3.776   1.051  0.5615  1.4151  2.6849
 1883SOL     OW 6038   3.101   1.330   1.935 -0.1755  0.2239  0.0973
 1883SOL    HW1 6039   3.019   1.303   1.895 -0.4489  0.6453  0.3676
 1883SOL    HW2 6040   3.131   1.403   1.881  0.7704 -0.8560 -0.8807
 1884SOL     OW 6041   0.269   2.594   4.012  0.1356  0.4311  0.1802
 1884SOL    HW1 6042   0.243   2.683   4.033 -0.6054  0.7048 -1.6903
 1884SOL    HW2 6043   0.196   2.540   4.041  1.1918  0.2094  2.6399
 1885SOL     OW 6044   3.976   6.790   5.705 -0.0516  0.0728 -0.0347
 1885SOL    HW1 6045   4.035   6.859   5.675 -1.2439  1.0606 -0.1953
 1885SOL    HW2 6046   3.972   6.803   5.800  1.1468 -0.9652  0.1846
 1886SOL     OW 6047   4.493   5.365   1.336 -0.5370  0.3980 -0.5030
 1886SOL    HW1 6048   4.579   5.331   1.312  0.0236  1.1992  0.3266
 1886SOL    HW2 6049   4.477   5.333   1.425 -0.3306  1.6257  0.0042
 1887SOL     OW 6050   4.948   2.794   2.817  0.0824 -0.1214 -0.3358
 1887SOL    HW1 6051   4.976   2.820   2.729 -0.8086  1.2963 -0.2347
 1887SOL    HW2 6052   4.930   2.700   2.809  1.2311 -0.2939 -1.3196
 1888SOL     OW 6053   4.253   5.574   1.940 -0.6025 -0.8704 -0.3258
 1888SOL    HW1 6054   4.242   5.659   1.982 -1.4454 -0.3722 -1.4858
 1888SOL    HW2 6055   4.163   5.544   1.922 -0.3087 -1.9000 -0.1295
 1889SOL     OW 6056   3.152   4.390   2.655  0.0325 -0.1063  0.9094
 1889SOL    HW1 6057   3.232   4.340   2.669 -0.0204 -0.0535  1.4243
 1889SOL    HW2 6058   3.083   4.339   2.698 -0.2647 -0.2878  0.2418
 1890SOL     OW 6059   6.804   0.347   4.621  0.5602 -0.2304 -0.2979
 1890SOL    HW1 6060   6.882   0.399   4.602 -0.2208  0.3044 -2.3291
 1890SOL    HW2 6061   6.786   0.363   4.713  1.1328  2.0561 -0.5345
 1891SOL     OW 6062   2.875   6.015   6.625 -0.9656 -0.6210 -0.0437
 1891SOL    HW1 6063   2.889   5.927   6.658  2.0139  0.1740  1.1283
 1891SOL    HW2 6064   2.854   6.003   6.533 -0.1880 -2.5300 -0.0189
 1892SOL     OW 6065   4.509   6.145   1.581 -0.7856  0.3609  0.4353
 1892SOL    HW1 6066   4.484   6.195   1.658 -2.8311  1.5508 -0.9212
 1892SOL    HW2 6067   4.584   6.193   1.545 -0.4985  0.3976  1.0617
 1893SOL     OW 6068   1.550   4.109   1.527 -0.7035  0.1151 -0.6397
 1893SOL    HW1 6069   1.621   4.173   1.531  0.5553 -1.2428  0.2324
 1893SOL    HW2 6070   1.470   4.159   1.542  0.4464  1.1357  3.0724
 1894SOL     OW 6071   6.153   4.098   5.979  0.6229 -0.5059 -0.0414
 1894SOL    HW1 6072   6.115   4.149   5.907 -1.0265  0.8894  1.7150
 1894SOL    HW2 6073   6.152   4.008   5.947 -2.1630 -0.2552 -0.9987
 1895SOL     OW 6074   4.587   5.639   5.546 -0.3105 -0.1753  0.2797
 1895SOL    HW1 6075   4.595   5.573   5.477  0.3434  0.7810 -0.5881
 1895SOL    HW2 6076   4.677   5.669   5.560 -0.6360  0.7783  0.4014
 1896SOL     OW 6077   2.225   2.091   2.389  0.3415 -0.1065  0.3481
 1896SOL    HW1 6078   2.152   2.151   2.377  0.3874 -0.2674 -0.9196
 1896SOL    HW2 6079   2.303   2.146   2.379  0.3954 -0.0677  0.9562
 1897SOL     OW 6080   4.051   3.663   0.485  0.1963 -0.4953  0.2022
 1897SOL    HW1 6081   4.101   3.740   0.459  0.8137 -1.1129 -0.5066
 1897SOL    HW2 6082   4.088   3.637   0.569  0.7838 -0.6695 -0.0959
 1898SOL     OW 6083   3.972   6.443   0.662  0.8429 -0.2133  1.1406
 1898SOL    HW1 6084   3.940   6.357   0.688  0.7376 -0.6550 -0.3904
 1898SOL    HW2 6085   3.996   6.433   0.570 -0.1823  1.6683  0.6223
 1899SOL     OW 6086   0.529   3.577   4.012  0.1481  1.0882  0.3318
 1899SOL    HW1 6087   0.526   3.583   3.916 -0.2177 -1.4425  0.1053
 1899SOL    HW2 6088   0.613   3.536   4.030 -0.2539  0.5248  0.9841
 1900SOL     OW 6089   3.162   2.656   1.111 -0.2450 -0.1635 -0.1788
 1900SOL    HW1 6090   3.165   2.564   1.138 -0.9524 -0.9077 -2.3753
 1900SOL    HW2 6091   3.122   2.702   1.185  0.6437 -1.5104  1.1897
 1901SOL     OW 6092   1.262   4.290   5.370  0.1326  0.0223  0.7321
 1901SOL    HW1 6093   1.218   4.372   5.346  1.3211  0.3544 -0.3830
 1901SOL    HW2 6094   1.216   4.261   5.449 -1.3058  0.9648  0.2825
 1902SOL     OW 6095   4.303   3.175   0.757 -0.3214 -0.0308  0.6879
 1902SOL    HW1 6096   4.283   3.228   0.679  1.0957 -1.1262 -0.4826
 1902SOL    HW2 6097   4.398   3.168   0.757 -0.3006 -0.1432  2.5046
 1903SOL     OW 6098   1.156   4.769   2.527  0.0603  0.0800 -0.1033
 1903SOL    HW1 6099   1.113   4.855   2.525  2.3667  1.3018 -0.1289
 1903SOL    HW2 6100   1.201   4.763   2.443  2.0808  0.0564  0.9302
 1904SOL     OW 6101   0.234   0.234   4.058  0.4436 -0.3064 -0.1803
 1904SOL    HW1 6102   0.206   0.159   4.005  0.7198 -1.5255  1.3304
 1904SOL    HW2 6103   0.317   0.207   4.096  0.2995  0.5513  0.7919
 1905SOL     OW 6104   0.961   1.197   5.499  0.1938  0.3189 -0.4182
 1905SOL    HW1 6105   0.986   1.249   5.575  1.6601 -1.1116  0.1221
 1905SOL    HW2 6106   1.010   1.237   5.427  3.8485 -2.0215  0.5122
 1906SOL     OW 6107   6.784   5.903   2.920  0.3576  0.1703  0.6749
 1906SOL    HW1 6108   6.874   5.872   2.934  0.4714  0.0757 -0.2383
 1906SOL    HW2 6109   6.772   5.900   2.826 -0.4433  0.6633  0.7549
 1907SOL     OW 6110   0.674   1.444   4.545  0.0582  0.6912 -0.0586
 1907SOL    HW1 6111   0.697   1.489   4.464  0.2386 -1.7145 -1.4311
 1907SOL    HW2 6112   0.758   1.419   4.583 -0.0299 -1.1211 -0.9408
 1908SOL     OW 6113   2.889   2.443   4.774 -0.2603 -0.6635 -0.5005
 1908SOL    HW1 6114   2.846   2.528   4.779  2.0883  0.5673  0.0696
 1908SOL    HW2 6115   2.888   2.410   4.863  1.8067  0.3920 -0.0341
 1909SOL     OW 6116   2.062   4.021   3.535 -0.0419  0.1987  0.2250
 1909SOL    HW1 6117   2.002   3.948   3.549 -2.2726  1.3504 -2.3198
 1909SOL    HW2 6118   2.052   4.077   3.612 -0.7332 -0.6044  0.7302
 1910SOL     OW 6119   3.131   2.536   2.869 -0.1514 -0.4865  0.2342
 1910SOL    HW1 6120   3.150   2.495   2.784  2.0288  1.7074 -0.4533
 1910SOL    HW2 6121   3.190   2.493   2.930 -0.3407 -0.7219  0.2549
 1911SOL     OW 6122   3.456   6.348   4.743 -0.1074  0.4558  0.0412
 1911SOL    HW1 6123   3.368   6.309   4.745  0.2620 -0.5430 -1.4229
 1911SOL    HW2 6124   3.458   6.396   4.660  1.0000 -0.2702 -0.3822
 1912SOL     OW 6125   6.236   4.590   4.696  0.5791  0.4324 -0.6939
 1912SOL    HW1 6126   6.284   4.638   4.629  1.4264  0.0147 -0.4049
 1912SOL    HW2 6127   6.303   4.540   4.742 -0.2559 -0.9627 -0.9340
 1913SOL     OW 6128   2.793   2.520   6.216  0.0200 -0.0696 -0.3912
 1913SOL    HW1 6129   2.810   2.513   6.122  0.2013  1.5753 -0.5027
 1913SOL    HW2 6130   2.876   2.496   6.257  0.1938  0.0525 -0.6695
 1914SOL     OW 6131   1.651   6.082   2.116  0.5529 -0.6188  0.0970
 1914SOL    HW1 6132   1.710   6.006   2.121  1.4780 -0.0739 -1.6008
 1914SOL    HW2 6133   1.584   6.056   2.054  0.1471 -0.4857  0.4740
 1915SOL     OW 6134   6.036   2.932   4.327 -0.4064  0.6580 -0.1720
 1915SOL    HW1 6135   6.128   2.921   4.300  0.3035 -0.5873  2.4817
 1915SOL    HW2 6136   6.021   3.026   4.322  0.7561  0.8129 -1.3649
 1916SOL     OW 6137   6.477   0.939   1.179 -0.1976 -0.5033  0.3935
 1916SOL    HW1 6138   6.540   1.010   1.191  0.3459 -1.2956  2.7134
 1916SOL    HW2 6139   6.428   0.964   1.101  0.5488  1.9896  0.6322
 1917SOL     OW 6140   1.412   3.283   1.700 -0.1753  0.1905  0.3637
 1917SOL    HW1 6141   1.461   3.340   1.759 -1.7279  0.3036  1.6269
 1917SOL    HW2 6142   1.335   3.335   1.676  0.9328  0.5765 -2.7180
 1918SOL     OW 6143   1.459   2.606   5.171 -0.4668  0.2622 -0.5496
 1918SOL    HW1 6144   1.448   2.635   5.262 -1.8753  0.9729 -0.9139
 1918SOL    HW2 6145   1.511   2.676   5.130 -1.3871  0.8715 -0.7145
 1919SOL     OW 6146   2.932   4.230   2.748 -1.0523  0.0146  0.6129
 1919SOL    HW1 6147   2.968   4.235   2.836  0.4515 -1.2184  0.1087
 1919SOL    HW2 6148   2.899   4.141   2.740 -0.5813 -0.0931 -0.2723
 1920SOL     OW 6149   2.850   1.082   3.812  0.4255  0.6870 -0.0660
 1920SOL    HW1 6150   2.808   1.121   3.889 -2.1809 -0.4865 -0.7694
 1920SOL    HW2 6151   2.801   1.117   3.738  2.1045  0.8440 -1.1515
 1921SOL     OW 6152   6.129   5.536   0.974  0.2724  0.3332  0.0136
 1921SOL    HW1 6153   6.037   5.532   1.001  0.7753 -0.6094  1.7577
 1921SOL    HW2 6154   6.138   5.464   0.912 -0.0940  0.2253  0.0793
 1922SOL     OW 6155   4.350   0.799   0.508 -0.6838  0.6246  0.3120
 1922SOL    HW1 6156   4.271   0.756   0.541 -0.2123  0.1564  0.8593
 1922SOL    HW2 6157   4.375   0.860   0.577  0.0999 -0.0897  0.6788
 1923SOL     OW 6158   1.265   6.372   4.759  0.4808  0.7547  0.6075
 1923SOL    HW1 6159   1.298   6.416   4.681  1.3266  1.2123  1.2179
 1923SOL    HW2 6160   1.231   6.289   4.726  0.6496  1.0199 -0.2757
 1924SOL     OW 6161   6.472   1.199   3.386 -0.4121 -0.3299 -0.2616
 1924SOL    HW1 6162   6.519   1.281   3.375 -1.5376 -0.0184 -4.3773
 1924SOL    HW2 6163   6.541   1.132   3.389  0.4107  0.5046 -0.0006
 1925SOL     OW 6164   0.452   5.634   5.059 -0.7601  0.1162 -0.2773
 1925SOL    HW1 6165   0.547   5.639   5.057 -0.7053  1.0515  2.0922
 1925SOL    HW2 6166   0.431   5.555   5.008  1.3634 -0.8873  0.2893
 1926SOL     OW 6167   4.415   3.324   3.050 -0.4358  0.6133 -0.1134
 1926SOL    HW1 6168   4.334   3.349   3.006 -1.0743  0.6776  1.0435
 1926SOL    HW2 6169   4.459   3.407   3.069 -0.1937  0.5896 -0.5831
 1927SOL     OW 6170   0.991   3.244   2.334 -0.7615  0.1928 -0.0959
 1927SOL    HW1 6171   0.964   3.242   2.426  1.4081 -1.7143  0.5822
 1927SOL    HW2 6172   0.938   3.176   2.293 -0.9013  0.2381  0.0069
 1928SOL     OW 6173   5.351   3.125   1.772  0.4125  0.1974 -0.3554
 1928SOL    HW1 6174   5.416   3.057   1.791 -0.2563  0.1755  2.1785
 1928SOL    HW2 6175   5.396   3.207   1.791 -0.8353  0.1300  4.0378
 1929SOL     OW 6176   4.562   5.433   5.839 -0.2878  0.1690  0.7760
 1929SOL    HW1 6177   4.483   5.487   5.841  0.9310  2.1064  0.1801
 1929SOL    HW2 6178   4.562   5.393   5.752 -0.7147 -0.0193  0.8607
 1930SOL     OW 6179   1.218   5.378   3.986  0.1609  0.2739  0.0640
 1930SOL    HW1 6180   1.174   5.441   4.043 -0.0974  1.1384 -1.0693
 1930SOL    HW2 6181   1.264   5.431   3.921 -1.4929 -0.6550 -2.0023
 1931SOL     OW 6182   2.498   5.993   5.973 -0.1017 -0.0055  0.2226
 1931SOL    HW1 6183   2.530   5.925   5.913 -0.4877 -1.2018  1.3228
 1931SOL    HW2 6184   2.536   6.074   5.940 -1.7192 -0.3074 -2.6853
 1932SOL     OW 6185   4.682   2.907   3.927 -0.1040  0.1336 -0.1559
 1932SOL    HW1 6186   4.771   2.920   3.961  0.4055  0.3273 -1.5027
 1932SOL    HW2 6187   4.628   2.970   3.975  0.6153  0.5214  0.1551
 1933SOL     OW 6188   2.824   3.108   5.317 -0.2671  0.0543 -0.6486
 1933SOL    HW1 6189   2.833   3.079   5.226  1.3074  0.3505 -0.6127
 1933SOL    HW2 6190   2.885   3.181   5.324 -1.0025  0.5871  0.4318
 1934SOL     OW 6191   1.431   4.053   1.153  0.1598  0.1011  0.0018
 1934SOL    HW1 6192   1.336   4.064   1.151  0.2533  1.7735  1.6507
 1934SOL    HW2 6193   1.465   4.138   1.182  1.8974 -1.3811  2.8571
 1935SOL     OW 6194   4.885   1.247   4.431  0.7522  0.3389  0.2864
 1935SOL    HW1 6195   4.848   1.328   4.397 -1.9777 -0.6374  0.6679
 1935SOL    HW2 6196   4.862   1.246   4.524  1.1355 -0.6799  0.3926
 1936SOL     OW 6197   3.657   5.356   5.790  0.1395 -0.9363 -0.4199
 1936SOL    HW1 6198   3.698   5.440   5.770  0.9203 -0.8779  1.2493
 1936SOL    HW2 6199   3.597   5.375   5.862  0.6133 -1.8674  0.2393
 1937SOL     OW 6200   1.269   2.511   5.703 -0.1177 -0.2660 -0.0483
 1937SOL    HW1 6201   1.339   2.459   5.742  0.0130 -0.7608 -0.9055
 1937SOL    HW2 6202   1.191   2.456   5.710 -0.1462 -0.2533 -0.2498
 1938SOL     OW 6203   5.921   0.070   1.183  0.3480  0.2102  0.8151
 1938SOL    HW1 6204   5.948   0.086   1.092 -2.3947 -1.4369 -0.4127
 1938SOL    HW2 6205   5.967   0.137   1.233  2.8792  0.4859 -1.5847
 1939SOL     OW 6206   2.258   6.685   6.230  0.2183 -0.1740 -0.1295
 1939SOL    HW1 6207   2.295   6.746   6.294 -1.1539  0.8792 -0.2842
 1939SOL    HW2 6208   2.178   6.728   6.201  0.6604 -0.7578 -2.3589
 1940SOL     OW 6209   0.547   1.728   1.393  0.4217  0.6454 -0.5375
 1940SOL    HW1 6210   0.571   1.642   1.360 -1.1962 -0.3144  0.6517
 1940SOL    HW2 6211   0.521   1.777   1.315 -0.4080 -0.5734 -1.0680
 1941SOL     OW 6212   3.811   5.365   2.139  0.1664  0.1311 -0.7513
 1941SOL    HW1 6213   3.740   5.426   2.160 -1.5577 -1.6585 -1.0033
 1941SOL    HW2 6214   3.824   5.376   2.044  0.9879  1.1877 -0.5354
 1942SOL     OW 6215   3.846   0.067   3.317  0.0450  0.3443 -0.0855
 1942SOL    HW1 6216   3.905   0.083   3.391 -0.6514  1.4881  0.2643
 1942SOL    HW2 6217   3.783   0.004   3.350 -0.6232  1.3068  0.5270
 1943SOL     OW 6218   5.099   0.208   5.872 -0.3321  0.1169  0.5449
 1943SOL    HW1 6219   5.032   0.268   5.906 -1.3853 -0.1011 -1.0536
 1943SOL    HW2 6220   5.051   0.128   5.850  0.3586  0.1183 -1.0674
 1944SOL     OW 6221   5.712   6.743   2.889 -0.6341  1.0800 -0.0768
 1944SOL    HW1 6222   5.752   6.825   2.916 -0.8483  1.4003 -0.7032
 1944SOL    HW2 6223   5.749   6.677   2.947  1.3759  1.2460 -1.0767
 1945SOL     OW 6224   0.608   3.119   1.805  0.1778  0.3862  0.3427
 1945SOL    HW1 6225   0.515   3.109   1.828  0.2019  0.4984  0.4907
 1945SOL    HW2 6226   0.648   3.037   1.834 -0.0072  0.0174 -0.4124
 1946SOL     OW 6227   6.079   6.506   1.784 -0.5579  0.6239  0.0885
 1946SOL    HW1 6228   6.105   6.525   1.694  0.6975  0.0175  0.2913
 1946SOL    HW2 6229   6.049   6.415   1.781 -0.9514  0.7522  0.1900
 1947SOL     OW 6230   5.350   3.411   2.415  0.2231  0.4711 -0.0253
 1947SOL    HW1 6231   5.375   3.503   2.416  0.1945  0.4778  0.3281
 1947SOL    HW2 6232   5.271   3.408   2.361 -0.8696  0.9590  1.4652
 1948SOL     OW 6233   2.215   4.038   4.884  0.1586  0.1824 -0.4767
 1948SOL    HW1 6234   2.305   4.042   4.915 -0.5205 -0.6968  1.8289
 1948SOL    HW2 6235   2.194   3.945   4.882 -0.7323  0.3807 -0.9184
 1949SOL     OW 6236   6.135   5.324   0.788 -0.2370 -0.0040 -0.6704
 1949SOL    HW1 6237   6.105   5.233   0.792  0.9918 -0.4102  0.4544
 1949SOL    HW2 6238   6.067   5.370   0.740 -1.9577 -1.1084  0.5857
 1950SOL     OW 6239   1.605   3.265   4.590 -0.0129 -0.6551  0.6695
 1950SOL    HW1 6240   1.664   3.253   4.664  1.5701  1.4160 -0.1634
 1950SOL    HW2 6241   1.662   3.289   4.517 -1.8150  1.1281 -0.2632
 1951SOL     OW 6242   2.210   2.618   6.759  0.2634 -0.7296  0.2342
 1951SOL    HW1 6243   2.163   2.680   6.813  0.4240 -1.4856  1.2656
 1951SOL    HW2 6244   2.298   2.656   6.750  0.1253 -0.4209  0.1880
 1952SOL     OW 6245   3.862   3.230   0.576 -0.6987  0.0413 -0.2323
 1952SOL    HW1 6246   3.767   3.225   0.575 -0.8408  1.3048 -2.9195
 1952SOL    HW2 6247   3.891   3.145   0.542 -0.6893 -1.1329  2.4778
 1953SOL     OW 6248   5.617   4.587   1.475 -0.6717 -0.0532  0.1506
 1953SOL    HW1 6249   5.692   4.617   1.425 -0.6525 -2.6170 -1.4889
 1953SOL    HW2 6250   5.645   4.505   1.515 -2.0720 -0.1898  0.9258
 1954SOL     OW 6251   1.318   0.557   6.376 -0.0898  0.3071 -0.2512
 1954SOL    HW1 6252   1.318   0.542   6.281 -2.5311  0.7419 -0.3633
 1954SOL    HW2 6253   1.306   0.470   6.414 -0.1536  0.2664 -0.3661
 1955SOL     OW 6254   3.305   1.311   4.004 -0.2376 -0.3255 -0.1898
 1955SOL    HW1 6255   3.283   1.219   4.016 -0.3431 -0.4739 -1.4174
 1955SOL    HW2 6256   3.237   1.345   3.946  0.3159  0.2902 -0.4876
 1956SOL     OW 6257   1.353   0.562   5.204 -0.4433 -0.7872 -0.7803
 1956SOL    HW1 6258   1.339   0.622   5.131  0.1622  1.2792  0.7194
 1956SOL    HW2 6259   1.426   0.507   5.175 -1.9444 -1.8644 -2.7663
 1957SOL     OW 6260   6.239   1.079   2.092 -0.2110  0.3029  0.6369
 1957SOL    HW1 6261   6.295   1.127   2.031 -0.4781  1.3826  1.2144
 1957SOL    HW2 6262   6.229   1.138   2.167 -0.1232 -0.8795  1.6063
 1958SOL     OW 6263   6.087   4.503   0.244  0.1717  0.0951  0.2886
 1958SOL    HW1 6264   6.086   4.539   0.155 -1.1320 -0.4690  0.0522
 1958SOL    HW2 6265   6.023   4.432   0.242  1.2330 -0.9316  1.2838
 1959SOL     OW 6266   3.587   2.147   0.410  0.7151 -0.3337  0.2645
 1959SOL    HW1 6267   3.669   2.175   0.370  1.0632  0.6906  1.6218
 1959SOL    HW2 6268   3.533   2.226   0.411  0.1663 -0.7089  0.4911
 1960SOL     OW 6269   0.627   4.547   4.148  0.4438  0.1134  0.5220
 1960SOL    HW1 6270   0.574   4.500   4.212  0.6238  0.3456  0.8434
 1960SOL    HW2 6271   0.710   4.563   4.193  0.5513  0.3200  0.2497
 1961SOL     OW 6272   4.487   1.887   1.490  0.2721  0.5656  0.2734
 1961SOL    HW1 6273   4.447   1.835   1.421  0.9623  0.3112  0.0552
 1961SOL    HW2 6274   4.462   1.844   1.572 -1.4336  1.4707  0.2663
 1962SOL     OW 6275   5.933   1.029   0.323  0.0234  0.2557  0.2352
 1962SOL    HW1 6276   5.947   0.991   0.236  2.0391 -0.7686  0.9335
 1962SOL    HW2 6277   5.943   0.955   0.383  0.0506  1.2001  1.4312
 1963SOL     OW 6278   0.410   5.176   4.375 -0.9617  0.4494  0.4926
 1963SOL    HW1 6279   0.468   5.162   4.299  0.5595 -1.6533  1.9387
 1963SOL    HW2 6280   0.323   5.154   4.342 -0.3861 -0.1242 -0.7354
 1964SOL     OW 6281   4.851   0.344   5.889 -0.2311  0.6120 -0.0160
 1964SOL    HW1 6282   4.796   0.405   5.938 -0.4976  0.3673 -0.0045
 1964SOL    HW2 6283   4.820   0.257   5.915 -0.1268  0.4765 -0.3329
 1965SOL     OW 6284   0.132   6.651   5.789  0.3951  0.1610 -0.4995
 1965SOL    HW1 6285   0.213   6.623   5.747  0.1265 -1.1047 -0.2234
 1965SOL    HW2 6286   0.160   6.693   5.870  0.8961  2.2610 -1.7053
 1966SOL     OW 6287   4.650   2.767   2.748  0.3363 -0.0920  0.2084
 1966SOL    HW1 6288   4.649   2.863   2.750  0.4082 -0.0684 -0.8211
 1966SOL    HW2 6289   4.719   2.743   2.810 -1.1541  0.4338  2.2255
 1967SOL     OW 6290   3.561   1.719   0.731 -0.0236  0.0045 -0.5005
 1967SOL    HW1 6291   3.479   1.745   0.689  0.8819  2.3509 -0.9461
 1967SOL    HW2 6292   3.574   1.782   0.802 -0.2113 -2.3364  1.7907
 1968SOL     OW 6293   4.727   0.826   5.764 -0.5961  0.2824 -0.4047
 1968SOL    HW1 6294   4.659   0.793   5.823 -0.1292  1.1806  0.6770
 1968SOL    HW2 6295   4.807   0.824   5.816 -0.4871  2.8525 -0.3029
 1969SOL     OW 6296   1.322   0.484   3.625 -0.4971  1.3836  0.3499
 1969SOL    HW1 6297   1.309   0.569   3.582 -2.7437  1.3803  0.9040
 1969SOL    HW2 6298   1.349   0.426   3.554  0.8193  2.4729 -0.0855
 1970SOL     OW 6299   4.741   6.579   3.628 -0.3218 -0.8161  0.4746
 1970SOL    HW1 6300   4.741   6.622   3.542  0.6269  0.0452  0.8892
 1970SOL    HW2 6301   4.787   6.496   3.613 -1.3329 -1.2885 -0.1251
 1971SOL     OW 6302   1.401   1.106   0.358  0.4806 -0.3496  0.4990
 1971SOL    HW1 6303   1.412   1.022   0.313  1.6166 -0.1122  0.2980
 1971SOL    HW2 6304   1.414   1.086   0.451  0.8265 -0.3856  0.4434
 1972SOL     OW 6305   3.551   5.651   0.417 -0.3245  0.0370  0.1523
 1972SOL    HW1 6306   3.576   5.575   0.364  0.3559 -0.5463  1.2670
 1972SOL    HW2 6307   3.604   5.723   0.383 -0.9439  0.0225 -0.8895
 1973SOL     OW 6308   4.775   2.976   2.200  0.2210  0.0701 -0.5261
 1973SOL    HW1 6309   4.692   3.023   2.207  0.6627  0.7440  0.4636
 1973SOL    HW2 6310   4.779   2.924   2.280  0.7807  0.0866 -0.5408
 1974SOL     OW 6311   2.859   3.103   2.826  0.0743  0.3055  0.0678
 1974SOL    HW1 6312   2.931   3.056   2.783  0.0185  0.5748 -0.3209
 1974SOL    HW2 6313   2.878   3.195   2.811 -0.9159  0.3642 -0.9880
 1975SOL     OW 6314   1.687   1.407   0.040  0.6284 -0.0536 -0.0777
 1975SOL    HW1 6315   1.722   1.395   0.128  1.5285 -0.0941 -0.4323
 1975SOL    HW2 6316   1.646   1.494   0.043 -1.2986 -0.9279  0.9835
 1976SOL     OW 6317   6.452   5.735   3.705  0.2363 -1.0833  0.0975
 1976SOL    HW1 6318   6.479   5.812   3.654  0.2513 -0.5625  0.8725
 1976SOL    HW2 6319   6.502   5.742   3.786  0.0178 -1.7609  0.2950
 1977SOL     OW 6320   0.246   3.033   4.381  0.3480 -0.1046  0.2837
 1977SOL    HW1 6321   0.165   3.083   4.372 -0.1494 -1.1564 -1.5958
 1977SOL    HW2 6322   0.314   3.100   4.389 -0.4120  0.8784 -0.9674
 1978SOL     OW 6323   4.347   3.110   4.936 -0.5104 -0.1589  0.0697
 1978SOL    HW1 6324   4.260   3.088   4.903  0.1353 -0.8486 -1.2293
 1978SOL    HW2 6325   4.394   3.144   4.860  0.0813  1.1036  0.9583
 1979SOL     OW 6326   4.516   6.381   6.493 -0.5010 -0.3025 -0.0381
 1979SOL    HW1 6327   4.588   6.415   6.546 -2.0139  1.3792  1.0650
 1979SOL    HW2 6328   4.537   6.408   6.404  0.2391  0.1177  0.2521
 1980SOL     OW 6329   6.116   4.631   5.332  0.3035  0.1990 -0.1710
 1980SOL    HW1 6330   6.030   4.666   5.310  0.9565  0.5849 -2.3372
 1980SOL    HW2 6331   6.129   4.559   5.270  1.6541  0.3210 -0.0557
 1981SOL     OW 6332   1.480   2.573   1.426  0.2337  0.0602 -0.1093
 1981SOL    HW1 6333   1.527   2.495   1.399  1.6626  0.8078  0.1184
 1981SOL    HW2 6334   1.534   2.646   1.395 -0.4875  0.9436  0.6398
 1982SOL     OW 6335   5.601   0.913   3.133  0.0549 -0.3638  0.1978
 1982SOL    HW1 6336   5.514   0.942   3.159  0.6393  0.5093  1.2869
 1982SOL    HW2 6337   5.590   0.879   3.044 -0.8828  2.2930 -0.7939
 1983SOL     OW 6338   4.885   4.429   1.394 -0.4736 -0.0609  0.2693
 1983SOL    HW1 6339   4.796   4.436   1.429 -0.6514 -0.7804 -0.0284
 1983SOL    HW2 6340   4.909   4.519   1.372 -1.6113 -0.0024 -0.8108
 1984SOL     OW 6341   3.537   3.084   0.296  0.2786  0.0620  0.4442
 1984SOL    HW1 6342   3.470   3.101   0.362 -0.1031  0.6372 -0.0733
 1984SOL    HW2 6343   3.490   3.038   0.226 -0.1974  2.4891 -0.9852
 1985SOL     OW 6344   6.525   6.460   6.165  0.1401  0.0145 -0.5019
 1985SOL    HW1 6345   6.572   6.438   6.084 -0.7327 -0.1779 -0.9722
 1985SOL    HW2 6346   6.435   6.431   6.149 -0.4315  1.4909 -0.0896
 1986SOL     OW 6347   0.144   3.819   2.047 -0.3162 -1.0565  0.0064
 1986SOL    HW1 6348   0.148   3.737   2.095 -1.6929 -0.8610  0.4934
 1986SOL    HW2 6349   0.210   3.875   2.089  0.9845 -2.0456 -0.6555
 1987SOL     OW 6350   0.821   4.214   6.210  0.1640 -0.3456  0.0256
 1987SOL    HW1 6351   0.731   4.243   6.217  0.1477 -0.1362 -0.9941
 1987SOL    HW2 6352   0.865   4.280   6.157  0.8054 -0.6953  0.1000
 1988SOL     OW 6353   4.440   4.072   6.301 -0.3781  0.1021  0.1334
 1988SOL    HW1 6354   4.380   4.124   6.355 -0.3905  0.1529  0.0706
 1988SOL    HW2 6355   4.473   4.134   6.236 -2.6674 -0.6078 -1.8519
 1989SOL     OW 6356   0.024   2.784   1.643 -0.1287  0.2597  0.6214
 1989SOL    HW1 6357   0.057   2.697   1.621  1.9327  0.7194  1.6871
 1989SOL    HW2 6358  -0.071   2.772   1.649  0.0240 -1.7182 -0.0296
 1990SOL     OW 6359   3.961   2.180   3.541  0.0222  1.0105 -0.2273
 1990SOL    HW1 6360   4.014   2.149   3.615  0.2773  1.2759 -0.2965
 1990SOL    HW2 6361   3.871   2.153   3.563  0.4054 -1.0424 -0.9593
 1991SOL     OW 6362   0.651   6.071   1.132  0.6836 -0.3826 -0.1016
 1991SOL    HW1 6363   0.612   5.991   1.097 -0.7331 -0.3055  1.1809
 1991SOL    HW2 6364   0.717   6.040   1.194 -0.4085 -0.6294  0.9937
 1992SOL     OW 6365   2.769   2.779   3.791  0.0956 -0.2225 -0.4610
 1992SOL    HW1 6366   2.720   2.707   3.831 -2.0474  1.2773 -0.2485
 1992SOL    HW2 6367   2.706   2.822   3.733  0.8209  2.3738  0.5396
 1993SOL     OW 6368   3.046   0.694   4.364 -0.2978 -0.3316  0.2274
 1993SOL    HW1 6369   2.983   0.763   4.342  1.3032  1.1421  0.0761
 1993SOL    HW2 6370   3.073   0.659   4.279 -0.1515 -0.2632  0.2461
 1994SOL     OW 6371   1.238   3.408   1.382 -0.2436 -0.5988 -0.2569
 1994SOL    HW1 6372   1.299   3.431   1.452 -2.0865  3.4427  0.3236
 1994SOL    HW2 6373   1.159   3.378   1.427 -0.5068 -0.6043 -0.7178
 1995SOL     OW 6374   0.621   1.039   1.800  0.3110  0.8232  0.4102
 1995SOL    HW1 6375   0.699   1.000   1.839  0.7871  2.4210  1.1624
 1995SOL    HW2 6376   0.600   0.983   1.726 -0.0428 -1.8008  2.3513
 1996SOL     OW 6377   0.807   6.445   4.676  0.1544 -0.1654  0.2142
 1996SOL    HW1 6378   0.886   6.392   4.688  0.5825  0.0404 -1.4939
 1996SOL    HW2 6379   0.778   6.425   4.587 -1.1932  0.4868  0.4804
 1997SOL     OW 6380   2.783   0.791   6.082 -0.5007 -0.4233 -0.1045
 1997SOL    HW1 6381   2.854   0.808   6.144 -1.2205  1.7466  0.1942
 1997SOL    HW2 6382   2.826   0.751   6.007  1.3709  2.3292 -0.6277
 1998SOL     OW 6383   3.947   6.197   4.182  0.0911  0.3492 -0.0461
 1998SOL    HW1 6384   3.989   6.215   4.098 -0.2200 -0.0846 -0.2962
 1998SOL    HW2 6385   3.968   6.105   4.200 -1.8453 -0.2950 -0.8185
 1999SOL     OW 6386   3.081   6.092   2.001  0.2723  0.1926  0.0029
 1999SOL    HW1 6387   3.008   6.051   1.956 -0.3194  0.7700  0.4102
 1999SOL    HW2 6388   3.045   6.175   2.033  1.0436  0.3785  0.3997
 2000SOL     OW 6389   6.206   5.813   3.769  0.4572  0.2546 -0.2005
 2000SOL    HW1 6390   6.184   5.755   3.842 -0.3717 -1.2902 -1.6299
 2000SOL    HW2 6391   6.291   5.780   3.737  0.5895  0.6279 -0.2370
 2001SOL     OW 6392   1.895   5.869   4.978  0.2363  0.6283  0.2109
 2001SOL    HW1 6393   1.827   5.928   4.946  0.2445  0.2373 -0.5488
 2001SOL    HW2 6394   1.951   5.924   5.032  0.3654  1.3665 -0.6550
 2002SOL     OW 6395   0.967   2.018   6.677 -0.0691  0.0104  0.0193
 2002SOL    HW1 6396   0.933   2.035   6.589 -1.0858  0.7592  0.5431
 2002SOL    HW2 6397   1.062   2.024   6.667 -0.2173  1.7648 -0.7192
 2003SOL     OW 6398   6.463   0.580   5.805  0.3896 -0.1830  0.5382
 2003SOL    HW1 6399   6.499   0.536   5.729  1.6559 -0.9487  1.5441
 2003SOL    HW2 6400   6.502   0.667   5.803 -0.4657  0.2023 -0.2828
 2004SOL     OW 6401   2.539   5.966   4.815  0.3273  0.6593  0.1403
 2004SOL    HW1 6402   2.516   5.874   4.824 -0.6946  0.7825 -0.8978
 2004SOL    HW2 6403   2.470   6.014   4.862  1.0648  0.8893  1.0050
 2005SOL     OW 6404   1.408   4.497   5.833  0.0428 -0.3300  0.1971
 2005SOL    HW1 6405   1.329   4.535   5.795 -0.0126  1.3253  1.7963
 2005SOL    HW2 6406   1.466   4.572   5.847  0.7662 -1.1026  1.5773
 2006SOL     OW 6407   6.591   3.539   2.782  0.3710  0.2101 -0.3191
 2006SOL    HW1 6408   6.543   3.617   2.810  0.2874 -0.3934  1.3014
 2006SOL    HW2 6409   6.573   3.532   2.688  1.3104  2.7755 -0.7769
 2007SOL     OW 6410   4.795   5.771   5.657  0.0771 -0.5567 -0.1706
 2007SOL    HW1 6411   4.781   5.742   5.747  2.5034 -1.0421  0.1310
 2007SOL    HW2 6412   4.771   5.863   5.658 -0.7377 -0.7563  0.7361
 2008SOL     OW 6413   4.590   5.259   6.035 -0.1242 -0.3161 -0.0465
 2008SOL    HW1 6414   4.576   5.311   5.956 -0.2993 -1.3806 -0.7394
 2008SOL    HW2 6415   4.502   5.238   6.065 -0.0846 -1.7924 -0.8684
 2009SOL     OW 6416   5.418   4.338   6.822  0.4668  0.6288  0.3028
 2009SOL    HW1 6417   5.502   4.366   6.786  0.7289  2.3332  2.0097
 2009SOL    HW2 6418   5.423   4.243   6.826  1.1759  0.4960 -2.1604
 2010SOL     OW 6419   1.839   6.151   5.795  0.4869 -0.0909 -0.3840
 2010SOL    HW1 6420   1.826   6.211   5.722  0.9598  0.8417  0.2791
 2010SOL    HW2 6421   1.752   6.119   5.816  0.4712 -1.2385 -2.0645
 2011SOL     OW 6422   5.577   3.490   6.471 -0.0837 -0.1107  0.1009
 2011SOL    HW1 6423   5.509   3.512   6.534 -0.8054 -0.7802 -0.4239
 2011SOL    HW2 6424   5.566   3.553   6.400 -0.0817 -0.1510  0.0648
 2012SOL     OW 6425   5.558   5.368   1.076  0.3256  0.0926  0.2643
 2012SOL    HW1 6426   5.515   5.375   1.161 -0.3627  1.8851 -0.1806
 2012SOL    HW2 6427   5.602   5.452   1.065 -0.2282  0.1771 -1.4769
 2013SOL     OW 6428   0.050   1.858   2.591 -0.5225 -0.0408 -0.1461
 2013SOL    HW1 6429   0.084   1.873   2.503  1.4966 -1.7838  0.2733
 2013SOL    HW2 6430   0.069   1.939   2.638 -1.8165  0.9896 -1.3171
 2014SOL     OW 6431   0.771   2.761   3.058 -0.7398  0.1240  0.2409
 2014SOL    HW1 6432   0.839   2.729   3.116  0.4718  0.2497 -1.0519
 2014SOL    HW2 6433   0.693   2.711   3.082 -0.5796  0.9039  2.6343
 2015SOL     OW 6434   3.918   0.825   2.017 -0.2711  0.0809  0.3576
 2015SOL    HW1 6435   4.009   0.794   2.009 -0.0343  0.8912 -0.2394
 2015SOL    HW2 6436   3.886   0.785   2.097  0.8682  0.3868  0.9874
 2016SOL     OW 6437   4.127   4.819   3.596 -0.2307 -0.7241 -0.1872
 2016SOL    HW1 6438   4.148   4.909   3.573 -2.8900  0.5081  1.7373
 2016SOL    HW2 6439   4.076   4.787   3.522 -1.8226  0.4346  0.3540
 2017SOL     OW 6440   2.575   3.133   3.676  0.2789 -0.0245 -0.1810
 2017SOL    HW1 6441   2.571   3.038   3.663  0.2472 -0.0086 -0.2833
 2017SOL    HW2 6442   2.549   3.170   3.592  1.5517  0.0744 -0.5552
 2018SOL     OW 6443   2.137   3.376   0.682  0.3150 -0.2460 -0.0641
 2018SOL    HW1 6444   2.136   3.336   0.768  0.8464 -0.0757  0.0280
 2018SOL    HW2 6445   2.047   3.404   0.667  0.4014  0.5758  0.8494
 2019SOL     OW 6446   1.742   2.764   6.636  0.2343  0.0421  0.1658
 2019SOL    HW1 6447   1.707   2.851   6.619  2.1456  0.6036 -1.3221
 2019SOL    HW2 6448   1.766   2.730   6.549 -1.8368 -2.6353  0.5092
 2020SOL     OW 6449   3.616   6.373   0.455 -0.7766  0.1593  0.0221
 2020SOL    HW1 6450   3.536   6.344   0.412 -0.4177 -2.4175  0.9259
 2020SOL    HW2 6451   3.624   6.317   0.532  2.2340 -0.1371 -0.3717
 2021SOL     OW 6452   3.584   3.235   0.580  0.0802 -0.8940  0.3015
 2021SOL    HW1 6453   3.505   3.185   0.600 -0.2876 -0.1004  0.9076
 2021SOL    HW2 6454   3.569   3.320   0.621  1.4451 -0.8820  0.8420
 2022SOL     OW 6455   6.262   3.517   6.501 -0.2206 -1.1490 -0.7537
 2022SOL    HW1 6456   6.202   3.449   6.530 -1.2313 -0.1170 -0.3450
 2022SOL    HW2 6457   6.319   3.533   6.576 -0.8135 -0.6585 -0.4008
 2023SOL     OW 6458   3.954   5.786   0.481 -0.3374  0.1730 -0.2955
 2023SOL    HW1 6459   4.005   5.747   0.411  0.9421  1.1917  0.0339
 2023SOL    HW2 6460   3.911   5.712   0.524 -0.3778 -0.5425 -1.5400
 2024SOL     OW 6461   1.306   5.027   5.300  0.0345  0.0862 -0.2921
 2024SOL    HW1 6462   1.292   5.076   5.219 -1.5021 -0.8742 -0.6460
 2024SOL    HW2 6463   1.271   5.084   5.369  1.0702  0.7754 -0.3119
 2025SOL     OW 6464   3.966   5.185   0.392  0.0161 -0.1898  0.9504
 2025SOL    HW1 6465   4.043   5.228   0.429  0.3489  1.1410 -1.1242
 2025SOL    HW2 6466   4.001   5.127   0.325 -0.6544 -1.5937  1.7611
 2026SOL     OW 6467   0.281   5.771   4.625 -0.3541  0.0351 -0.2108
 2026SOL    HW1 6468   0.294   5.864   4.607  1.6372 -0.4576 -1.6990
 2026SOL    HW2 6469   0.300   5.762   4.719 -1.7400  1.2816  0.2084
 2027SOL     OW 6470   4.420   0.760   4.604 -0.1866 -0.0332 -0.4778
 2027SOL    HW1 6471   4.491   0.697   4.597 -1.3543 -1.3093 -1.3778
 2027SOL    HW2 6472   4.462   0.845   4.591  1.2569 -0.6929 -0.3004
 2028SOL     OW 6473   1.248   6.189   1.463 -0.0639 -0.2772  0.4790
 2028SOL    HW1 6474   1.260   6.148   1.548  0.7716 -1.7182 -0.2862
 2028SOL    HW2 6475   1.309   6.262   1.462 -0.3150 -0.0531  1.2263
 2029SOL     OW 6476   1.845   0.990   1.447  0.0444 -0.4840 -0.0171
 2029SOL    HW1 6477   1.902   0.931   1.497 -1.0471  0.2413  2.2143
 2029SOL    HW2 6478   1.787   0.933   1.398  0.8796 -1.2275 -0.1656
 2030SOL     OW 6479   2.363   4.225   6.107  0.1152 -0.6217  0.0721
 2030SOL    HW1 6480   2.337   4.235   6.199  1.3374 -2.2590  0.6514
 2030SOL    HW2 6481   2.422   4.150   6.107 -0.0188 -0.7988 -2.1020
 2031SOL     OW 6482   6.523   6.793   1.667 -0.0997  0.5467 -0.0207
 2031SOL    HW1 6483   6.462   6.758   1.732  0.4412  0.5007  0.4721
 2031SOL    HW2 6484   6.485   6.876   1.640 -0.6764  0.2470 -0.1570
 2032SOL     OW 6485   1.680   6.207   1.062  0.2497 -0.2865 -0.1770
 2032SOL    HW1 6486   1.585   6.201   1.058  0.0767  0.1817  2.0250
 2032SOL    HW2 6487   1.706   6.236   0.975 -1.6455 -0.0979 -0.7229
 2033SOL     OW 6488   0.864   4.310   1.960  0.6480  0.1519  0.1543
 2033SOL    HW1 6489   0.959   4.319   1.967  0.6903  0.4756 -0.7476
 2033SOL    HW2 6490   0.847   4.309   1.866 -0.1422 -0.9806  0.2835
 2034SOL     OW 6491   4.734   5.544   0.022 -0.4352  0.2711 -0.2702
 2034SOL    HW1 6492   4.781   5.522  -0.059  0.6967  1.5834 -0.0089
 2034SOL    HW2 6493   4.664   5.603  -0.006 -0.2069  0.5149 -0.3347
 2035SOL     OW 6494   2.423   3.298   1.411 -0.2951 -0.6456  0.3746
 2035SOL    HW1 6495   2.502   3.314   1.360 -0.6758  0.1558  0.0154
 2035SOL    HW2 6496   2.455   3.267   1.496  0.3518 -1.7939 -0.2530
 2036SOL     OW 6497   5.975   5.705   6.151  0.6089 -0.1137 -0.2536
 2036SOL    HW1 6498   6.038   5.751   6.096 -1.5554  0.3035 -2.5695
 2036SOL    HW2 6499   5.916   5.662   6.089 -1.6767 -0.0844  1.7474
 2037SOL     OW 6500   6.165   5.446   1.407  0.5463 -0.7969 -0.1865
 2037SOL    HW1 6501   6.243   5.485   1.367  0.3025 -0.5336 -0.4028
 2037SOL    HW2 6502   6.096   5.456   1.342 -0.2136  0.8727  0.7875
 2038SOL     OW 6503   0.041   4.487   1.153 -0.3109 -0.2488 -0.3233
 2038SOL    HW1 6504   0.069   4.398   1.174  1.1019  0.0007 -0.9891
 2038SOL    HW2 6505  -0.042   4.476   1.107 -0.8110 -1.1207  0.7469
 2039SOL     OW 6506   1.601   6.459   5.947 -0.1283  0.0431 -0.1873
 2039SOL    HW1 6507   1.530   6.396   5.959 -0.2053  0.3239  0.9045
 2039SOL    HW2 6508   1.679   6.414   5.981  0.5493 -0.8173 -2.6514
 2040SOL     OW 6509   0.285   1.543   3.409  0.1681 -0.2468  0.2840
 2040SOL    HW1 6510   0.268   1.488   3.486  0.4297 -0.2181  0.3616
 2040SOL    HW2 6511   0.379   1.533   3.393  0.4263  1.0072  0.9272
 2041SOL     OW 6512   6.441   1.576   6.090  0.1713 -0.5129 -0.2524
 2041SOL    HW1 6513   6.393   1.598   6.010  0.9328 -1.5651 -1.0227
 2041SOL    HW2 6514   6.479   1.659   6.118 -3.2827  0.7356  1.2848
 2042SOL     OW 6515   4.438   4.766   2.861 -1.0609  0.0001  0.3692
 2042SOL    HW1 6516   4.493   4.844   2.853 -0.6651 -0.4209 -1.4787
 2042SOL    HW2 6517   4.350   4.796   2.838 -1.4888  0.4962  2.5181
 2043SOL     OW 6518   5.816   1.558   6.170 -0.3607  0.1889  0.1429
 2043SOL    HW1 6519   5.789   1.557   6.079 -3.4916  1.8584  0.8920
 2043SOL    HW2 6520   5.781   1.477   6.207  2.0934 -1.1707 -0.3276
 2044SOL     OW 6521   4.204   3.370   4.665  0.1905  0.0031 -0.8664
 2044SOL    HW1 6522   4.285   3.418   4.680 -0.0908  0.1160  0.4400
 2044SOL    HW2 6523   4.228   3.299   4.606  1.8101 -1.3838  1.2721
 2045SOL     OW 6524   0.265   4.846   5.672 -0.4405 -0.0110  0.2498
 2045SOL    HW1 6525   0.248   4.929   5.628  0.9120 -0.6423 -1.5766
 2045SOL    HW2 6526   0.361   4.838   5.672 -0.5549 -2.4244 -1.3897
 2046SOL     OW 6527   4.466   4.472   2.258  0.0245 -0.1357  0.3226
 2046SOL    HW1 6528   4.502   4.443   2.174  1.7685  0.3284  0.8773
 2046SOL    HW2 6529   4.460   4.392   2.311 -2.4664 -0.6926 -0.6618
 2047SOL     OW 6530   2.469   0.861   5.781  0.2772  0.3713  0.1517
 2047SOL    HW1 6531   2.425   0.790   5.828 -0.7777 -0.6287 -2.1965
 2047SOL    HW2 6532   2.410   0.936   5.790 -0.5088 -0.1492 -0.5373
 2048SOL     OW 6533   4.386   5.041   1.417  0.5563 -0.5681 -0.6983
 2048SOL    HW1 6534   4.403   5.082   1.502  1.0614 -2.0338 -0.0640
 2048SOL    HW2 6535   4.464   4.988   1.399  1.3039  1.1674 -3.0063
 2049SOL     OW 6536   3.842   1.273   3.659  0.2775 -0.1461  0.0098
 2049SOL    HW1 6537   3.752   1.260   3.689 -0.0058  0.2750 -0.6307
 2049SOL    HW2 6538   3.891   1.293   3.739  0.0622 -1.6136  0.5360
 2050SOL     OW 6539   6.263   1.874   0.476 -0.0625 -0.6657 -0.3263
 2050SOL    HW1 6540   6.351   1.856   0.510  0.1770 -0.9099 -1.0565
 2050SOL    HW2 6541   6.206   1.863   0.551  0.4923 -0.8893  0.0717
 2051SOL     OW 6542   5.710   4.707   0.394 -0.7218 -0.3930  0.4238
 2051SOL    HW1 6543   5.678   4.767   0.461 -0.5131 -1.3716  1.4235
 2051SOL    HW2 6544   5.632   4.686   0.342 -0.4190  2.3985 -1.3340
 2052SOL     OW 6545   3.150   2.287   3.310 -0.6588 -0.4021  0.0290
 2052SOL    HW1 6546   3.072   2.324   3.352 -0.7711  0.3838 -0.8334
 2052SOL    HW2 6547   3.116   2.216   3.256 -0.3752 -2.2537  2.1512
 2053SOL     OW 6548   1.714   2.976   4.128 -0.1125  0.5882 -0.6053
 2053SOL    HW1 6549   1.777   3.047   4.138 -0.6988  1.2309 -1.3535
 2053SOL    HW2 6550   1.691   2.978   4.035  1.1594 -1.6934 -1.0558
 2054SOL     OW 6551   4.437   1.648   6.630 -0.0766 -0.2555  0.0659
 2054SOL    HW1 6552   4.436   1.712   6.701  1.8059  0.0919 -0.1435
 2054SOL    HW2 6553   4.380   1.685   6.562  0.8028  1.1226  0.0396
 2055SOL     OW 6554   0.075   2.993   5.318  0.2529 -0.0646  0.9748
 2055SOL    HW1 6555   0.076   2.899   5.302 -1.3201 -0.3008  2.0858
 2055SOL    HW2 6556   0.168   3.016   5.332  0.7513 -1.2454 -0.2038
 2056SOL     OW 6557   5.228   4.779   1.788  0.1287  0.0801  0.4833
 2056SOL    HW1 6558   5.299   4.737   1.739  0.0318  0.7436 -0.2515
 2056SOL    HW2 6559   5.245   4.756   1.879  0.9137 -0.3190  0.2490
 2057SOL     OW 6560   0.088   3.243   6.505 -0.0941  0.1104  0.1837
 2057SOL    HW1 6561   0.102   3.161   6.458  1.0579 -0.0223  0.7151
 2057SOL    HW2 6562  -0.000   3.270   6.481 -0.3799 -1.1316 -0.2327
 2058SOL     OW 6563   6.414   4.330   2.430 -0.1325  0.9277 -0.3036
 2058SOL    HW1 6564   6.431   4.254   2.375 -1.0826 -0.6925  1.4791
 2058SOL    HW2 6565   6.498   4.350   2.471  0.7778  2.6745 -2.8401
 2059SOL     OW 6566   3.575   1.408   0.413 -0.0565 -0.4532 -0.1157
 2059SOL    HW1 6567   3.560   1.324   0.369  1.0128 -0.2311 -0.9454
 2059SOL    HW2 6568   3.523   1.471   0.364 -1.6766 -0.7585  1.1243
 2060SOL     OW 6569   1.126   4.843   3.586 -0.2134  0.2286  0.0021
 2060SOL    HW1 6570   1.097   4.889   3.507  0.5842  0.9894  0.1517
 2060SOL    HW2 6571   1.213   4.810   3.564 -0.0639  0.2848  0.5033
 2061SOL     OW 6572   5.669   5.287   2.027 -0.2782 -0.1070  0.0198
 2061SOL    HW1 6573   5.736   5.355   2.037 -0.5065  0.5235 -2.2685
 2061SOL    HW2 6574   5.634   5.276   2.115  1.9716  0.4183  1.0554
 2062SOL     OW 6575   5.065   5.255   2.363  0.0586 -0.2994  0.0304
 2062SOL    HW1 6576   5.076   5.342   2.325 -0.8949 -0.2428 -0.1396
 2062SOL    HW2 6577   5.138   5.204   2.326  1.4441  0.7381  1.1921
 2063SOL     OW 6578   2.138   2.694   0.798  0.3905 -0.3207 -0.2123
 2063SOL    HW1 6579   2.148   2.692   0.893  1.1138  0.1642 -0.2701
 2063SOL    HW2 6580   2.158   2.784   0.774 -0.2598 -0.3248 -0.7792
 2064SOL     OW 6581   1.954   1.310   5.472  0.3582 -0.2987 -0.4173
 2064SOL    HW1 6582   1.935   1.257   5.395  0.1141  0.4121 -0.8533
 2064SOL    HW2 6583   2.017   1.258   5.522  1.2740 -0.3438 -1.5787
 2065SOL     OW 6584   3.719   5.892   5.782 -0.3696  0.5360  0.2172
 2065SOL    HW1 6585   3.731   5.937   5.699  1.3246  0.0926  0.1781
 2065SOL    HW2 6586   3.640   5.930   5.819 -0.3680  1.7454 -0.9560
 2066SOL     OW 6587   3.579   1.795   3.852  0.2304  0.1074 -0.4700
 2066SOL    HW1 6588   3.630   1.874   3.833 -0.8712  0.5118 -1.9751
 2066SOL    HW2 6589   3.642   1.723   3.846  1.1234  0.8112  0.3286
 2067SOL     OW 6590   0.292   1.855   1.999 -0.4034  0.3012  0.7926
 2067SOL    HW1 6591   0.384   1.840   1.977 -0.0480 -0.4861  2.6329
 2067SOL    HW2 6592   0.291   1.938   2.046 -0.6427  0.3797  0.6472
 2068SOL     OW 6593   5.260   3.713   4.809  0.2152 -0.5728 -0.5517
 2068SOL    HW1 6594   5.341   3.702   4.758 -0.8283 -0.8149 -2.2364
 2068SOL    HW2 6595   5.203   3.766   4.753 -1.4347 -1.8582 -0.1674
 2069SOL     OW 6596   4.265   4.385   0.682  0.1120 -0.1554  0.4733
 2069SOL    HW1 6597   4.330   4.444   0.644  0.1153 -1.9972 -2.6984
 2069SOL    HW2 6598   4.314   4.332   0.744  0.6761  1.2614  1.2952
 2070SOL     OW 6599   6.328   0.804   0.548 -0.1970 -0.3605  0.3156
 2070SOL    HW1 6600   6.263   0.771   0.610  1.1559 -1.3568  1.2768
 2070SOL    HW2 6601   6.307   0.761   0.466 -1.0982 -0.2127  0.4636
 2071SOL     OW 6602   5.559   1.535   2.121  0.4168 -0.4316 -0.5850
 2071SOL    HW1 6603   5.513   1.452   2.114 -0.5978  0.0595  0.0049
 2071SOL    HW2 6604   5.490   1.601   2.127  1.0086  0.1158  3.4237
 2072SOL     OW 6605   5.576   5.853   6.140 -0.4019 -0.4981 -0.2355
 2072SOL    HW1 6606   5.620   5.794   6.200  0.3506  0.0727 -0.2142
 2072SOL    HW2 6607   5.499   5.883   6.188  0.0236 -0.2957  0.3288
 2073SOL     OW 6608   1.318   6.312   2.384  0.2677 -0.0334 -0.2123
 2073SOL    HW1 6609   1.269   6.323   2.303  1.1793  2.1896 -0.5425
 2073SOL    HW2 6610   1.254   6.329   2.453 -0.2699 -0.9240 -0.4725
 2074SOL     OW 6611   4.159   5.589   2.986 -0.1837 -0.2201  0.4654
 2074SOL    HW1 6612   4.206   5.618   2.909  0.1808 -0.7452  0.4848
 2074SOL    HW2 6613   4.201   5.506   3.010 -1.6852 -1.1785 -0.0549
 2075SOL     OW 6614   4.485   2.376   1.509  0.1583  0.9404 -0.2317
 2075SOL    HW1 6615   4.524   2.349   1.593  0.4322  0.9527 -0.3542
 2075SOL    HW2 6616   4.438   2.298   1.478 -0.8484  1.2527  0.4471
 2076SOL     OW 6617   3.858   6.293   4.569 -0.2375 -0.0052  0.4789
 2076SOL    HW1 6618   3.772   6.289   4.527 -0.4567  0.6097  0.8413
 2076SOL    HW2 6619   3.838   6.318   4.660  0.4264  2.0325  0.1172
 2077SOL     OW 6620   6.063   4.889   2.324 -0.6258 -0.1974 -0.0571
 2077SOL    HW1 6621   6.048   4.867   2.415 -0.5972 -1.1715 -0.2722
 2077SOL    HW2 6622   5.992   4.845   2.276 -1.2039  1.0916 -0.4284
 2078SOL     OW 6623   0.762   3.972   6.719 -0.4718  0.7240  0.1889
 2078SOL    HW1 6624   0.852   3.943   6.700 -0.4092  0.5944  0.6943
 2078SOL    HW2 6625   0.728   3.999   6.633 -0.3614 -0.3471 -0.1996
 2079SOL     OW 6626   3.835   6.709   5.461  0.2029 -0.4976 -0.3138
 2079SOL    HW1 6627   3.902   6.740   5.522  0.1858 -1.9287  0.4723
 2079SOL    HW2 6628   3.759   6.691   5.515  0.0321 -1.3407 -0.8138
 2080SOL     OW 6629   0.599   0.172   0.952  0.3796  0.1165 -0.0789
 2080SOL    HW1 6630   0.674   0.185   0.893  0.2197  1.3951 -0.0254
 2080SOL    HW2 6631   0.531   0.229   0.917  0.2982  0.9551  1.3671
 2081SOL     OW 6632   3.009   2.642   3.758 -0.1224  0.5000  0.1784
 2081SOL    HW1 6633   3.018   2.634   3.663 -1.4007 -1.2931  0.1637
 2081SOL    HW2 6634   2.943   2.710   3.770 -0.4413  0.2686 -0.2373
 2082SOL     OW 6635   2.379   3.297   4.322  0.0478  0.0931  0.0171
 2082SOL    HW1 6636   2.394   3.314   4.229  2.8963  3.4295  0.8750
 2082SOL    HW2 6637   2.291   3.331   4.339 -0.3401 -0.1847 -1.3458
 2083SOL     OW 6638   5.474   1.386   1.132  0.1880 -0.1553 -0.3883
 2083SOL    HW1 6639   5.471   1.317   1.198 -0.3413 -0.6492 -0.9159
 2083SOL    HW2 6640   5.491   1.466   1.182  1.6671 -0.7682  0.1433
 2084SOL     OW 6641   5.616   1.414   0.338  0.4722 -0.4730 -0.5087
 2084SOL    HW1 6642   5.592   1.431   0.247  2.1947  2.8490 -0.4906
 2084SOL    HW2 6643   5.706   1.381   0.334  0.3370 -0.9140 -0.0285
 2085SOL     OW 6644   0.593   0.298   3.493  0.5833 -0.5118  0.3284
 2085SOL    HW1 6645   0.571   0.382   3.535 -0.3356 -2.1421  3.4590
 2085SOL    HW2 6646   0.687   0.288   3.507  0.8947  0.3619 -0.9324
 2086SOL     OW 6647   4.387   4.412   6.495  0.4397 -0.4900  0.2893
 2086SOL    HW1 6648   4.478   4.384   6.489  0.3091 -0.8458 -0.0627
 2086SOL    HW2 6649   4.368   4.411   6.589  0.6155 -1.0073  0.3218
 2087SOL     OW 6650   0.851   0.934   1.947 -0.8748 -0.5669  0.2179
 2087SOL    HW1 6651   0.814   0.958   2.031 -0.5160  0.2655  0.1409
 2087SOL    HW2 6652   0.945   0.947   1.957 -0.7996 -0.7491 -0.2175
 2088SOL     OW 6653   2.834   4.973   4.070 -0.3287  0.3252 -0.3898
 2088SOL    HW1 6654   2.848   4.954   4.163 -0.3159 -1.3164 -0.6841
 2088SOL    HW2 6655   2.751   4.931   4.049 -0.0526  0.1731 -1.2341
 2089SOL     OW 6656   3.550   0.295   0.921 -0.4124 -0.2480 -0.6466
 2089SOL    HW1 6657   3.533   0.389   0.928 -1.2591 -0.4791  0.7345
 2089SOL    HW2 6658   3.464   0.255   0.924  0.0327 -1.1646  0.7359
 2090SOL     OW 6659   1.732   5.565   5.696  0.3970 -0.2223  0.2918
 2090SOL    HW1 6660   1.658   5.625   5.702  0.2307 -0.3542 -0.3984
 2090SOL    HW2 6661   1.790   5.590   5.768  1.2438  1.9735 -1.0599
 2091SOL     OW 6662   2.240   0.984   6.015  0.5677 -0.0235  0.2246
 2091SOL    HW1 6663   2.311   0.921   6.017  0.0581 -0.7176 -1.5589
 2091SOL    HW2 6664   2.259   1.039   5.939 -0.8252 -0.2934 -0.3533
 2092SOL     OW 6665   6.389   0.507   6.051 -0.1156  0.1396  0.2720
 2092SOL    HW1 6666   6.408   0.546   5.965 -2.0548  2.4686  0.7828
 2092SOL    HW2 6667   6.439   0.559   6.113 -1.4964  0.8447  0.8355
 2093SOL     OW 6668   3.944   2.012   1.238  0.1294 -0.1562 -0.4382
 2093SOL    HW1 6669   3.999   1.967   1.174 -0.3386  0.3524 -1.2229
 2093SOL    HW2 6670   3.914   1.943   1.297  1.2314 -0.5062 -0.2652
 2094SOL     OW 6671   5.505   0.110   4.246  0.0682  0.1069 -0.1248
 2094SOL    HW1 6672   5.500   0.037   4.308  0.8449  2.6092  3.1538
 2094SOL    HW2 6673   5.599   0.120   4.230 -0.0647  0.1138 -0.9143
 2095SOL     OW 6674   0.670   6.575   5.085 -0.2389 -0.2906 -0.4120
 2095SOL    HW1 6675   0.715   6.596   5.004 -1.2011 -2.0475 -1.4580
 2095SOL    HW2 6676   0.739   6.570   5.151  0.4551  1.9956 -0.8829
 2096SOL     OW 6677   1.504   5.160   0.775 -0.0868 -0.5577  0.0646
 2096SOL    HW1 6678   1.500   5.077   0.823 -1.4917 -0.0582  0.8862
 2096SOL    HW2 6679   1.468   5.225   0.837  0.3667  0.5424 -0.7964
 2097SOL     OW 6680   2.169   0.162   0.985  0.5169  0.2597 -0.2906
 2097SOL    HW1 6681   2.241   0.106   0.956  0.9104 -1.4169  3.4308
 2097SOL    HW2 6682   2.090   0.109   0.972  0.6578 -0.3518  1.1656
 2098SOL     OW 6683   2.995   0.261   1.986 -0.3674  0.2038  0.8554
 2098SOL    HW1 6684   2.923   0.296   1.934  0.8679  1.0821 -0.3345
 2098SOL    HW2 6685   3.005   0.171   1.954 -1.2939 -0.1233  1.4480
 2099SOL     OW 6686   2.803   1.899   4.484  0.1014  0.4368  0.5223
 2099SOL    HW1 6687   2.751   1.868   4.558  0.2467  1.7880  1.2353
 2099SOL    HW2 6688   2.837   1.820   4.443 -0.8026 -0.3800  1.3028
 2100SOL     OW 6689   4.459   4.349   1.592 -0.1120 -0.1265 -0.9584
 2100SOL    HW1 6690   4.384   4.361   1.650  2.3982 -0.2349  2.6664
 2100SOL    HW2 6691   4.483   4.257   1.604  1.2855  0.2069 -1.0509
 2101SOL     OW 6692   3.370   4.157   3.440  0.0567 -0.0629 -0.5894
 2101SOL    HW1 6693   3.399   4.180   3.528 -0.8289 -3.1956  0.6766
 2101SOL    HW2 6694   3.309   4.226   3.415  0.4929  1.0050  1.1380
 2102SOL     OW 6695   4.158   3.678   6.160 -0.3058 -0.7365 -0.1353
 2102SOL    HW1 6696   4.121   3.595   6.190  0.9154 -1.4214 -0.4665
 2102SOL    HW2 6697   4.178   3.726   6.240  0.6367 -1.5266  0.1312
 2103SOL     OW 6698   2.812   6.064   5.557 -0.7776  0.1281 -0.2060
 2103SOL    HW1 6699   2.787   6.005   5.628  0.5158  0.6180  0.6956
 2103SOL    HW2 6700   2.805   6.152   5.596  0.8643  0.3469 -0.3552
 2104SOL     OW 6701   6.495   3.791   3.410  0.6076 -0.0433 -0.1842
 2104SOL    HW1 6702   6.436   3.818   3.340  0.1584  0.8872  0.5263
 2104SOL    HW2 6703   6.445   3.726   3.460 -1.6374  3.5470  2.8432
 2105SOL     OW 6704   5.953   2.715   5.686  0.6323  0.0678  0.1467
 2105SOL    HW1 6705   5.974   2.672   5.768  1.7887 -2.3644 -1.3222
 2105SOL    HW2 6706   5.926   2.644   5.628 -1.6384  1.8666 -1.1938
 2106SOL     OW 6707   5.807   2.238   0.724 -0.3651  0.0083 -0.4451
 2106SOL    HW1 6708   5.880   2.295   0.747 -1.1066  1.9523 -2.4954
 2106SOL    HW2 6709   5.735   2.267   0.780 -0.5742  0.7559 -1.0730
 2107SOL     OW 6710   5.414   0.336   4.374 -0.0408  0.2143  0.0099
 2107SOL    HW1 6711   5.357   0.284   4.317  0.2284 -2.2800  1.8423
 2107SOL    HW2 6712   5.502   0.324   4.338 -0.0712 -0.0183  0.0134
 2108SOL     OW 6713   5.642   3.293   0.597  0.4816  0.2693 -0.0990
 2108SOL    HW1 6714   5.569   3.311   0.538 -0.2756 -1.6189  0.1911
 2108SOL    HW2 6715   5.674   3.207   0.570  0.7289 -0.2219  1.6277
 2109SOL     OW 6716   4.110   4.856   5.250  0.0387  0.3394 -0.7886
 2109SOL    HW1 6717   4.090   4.793   5.320  1.6077  0.3887 -0.2515
 2109SOL    HW2 6718   4.072   4.817   5.171 -0.2081 -0.6138 -0.2132
 2110SOL     OW 6719   5.872   3.867   3.568  0.4260 -0.1219  0.5284
 2110SOL    HW1 6720   5.803   3.933   3.580 -0.5592 -1.0436  0.1436
 2110SOL    HW2 6721   5.825   3.788   3.540  1.6726 -0.7062 -0.0117
 2111SOL     OW 6722   2.342   4.308   5.595 -0.2635  0.0188 -0.3637
 2111SOL    HW1 6723   2.280   4.306   5.667  0.3677 -1.4837  0.1687
 2111SOL    HW2 6724   2.288   4.300   5.516 -0.7640 -1.2779  0.0903
 2112SOL     OW 6725   2.134   1.446   4.227  0.7813  0.1744  0.4702
 2112SOL    HW1 6726   2.146   1.368   4.171  0.3374  0.2351  0.2921
 2112SOL    HW2 6727   2.053   1.486   4.196  1.0014  0.7069  0.5710
 2113SOL     OW 6728   1.153   1.792   3.943 -0.3046 -0.0267 -0.3243
 2113SOL    HW1 6729   1.223   1.812   3.881  0.1505  0.0471  0.2127
 2113SOL    HW2 6730   1.103   1.721   3.901 -0.9336  1.0728 -1.4789
 2114SOL     OW 6731   0.279   0.807   0.720  0.1649  0.1207 -0.2702
 2114SOL    HW1 6732   0.370   0.828   0.699  0.3666 -0.8397 -0.3860
 2114SOL    HW2 6733   0.239   0.788   0.635  0.2086 -0.7671 -0.1050
 2115SOL     OW 6734   6.523   0.651   6.322  0.0742 -0.1591  0.5294
 2115SOL    HW1 6735   6.514   0.661   6.417  2.4907  0.0345  0.7903
 2115SOL    HW2 6736   6.594   0.588   6.312  0.7128  0.7838 -1.1544
 2116SOL     OW 6737   1.505   1.699   5.940 -0.0687  0.3956  0.3696
 2116SOL    HW1 6738   1.554   1.682   5.859 -1.5648  1.9038 -0.9437
 2116SOL    HW2 6739   1.518   1.793   5.957 -1.8566  0.6835  0.3703
 2117SOL     OW 6740   1.127   4.667   0.825 -0.1687 -0.2663 -0.2572
 2117SOL    HW1 6741   1.183   4.738   0.793 -0.2837 -0.4444 -0.8501
 2117SOL    HW2 6742   1.160   4.589   0.782 -0.5890 -0.4433 -0.2637
 2118SOL     OW 6743   1.572   2.253   4.401 -0.1647 -0.1512  0.2294
 2118SOL    HW1 6744   1.590   2.347   4.404 -1.8838  0.2389 -0.3439
 2118SOL    HW2 6745   1.595   2.227   4.312  0.5021 -0.3339  0.4483
 2119SOL     OW 6746   1.465   1.274   4.756 -0.5206 -0.5992 -0.7261
 2119SOL    HW1 6747   1.541   1.295   4.703 -0.5632  0.0953 -0.5110
 2119SOL    HW2 6748   1.499   1.219   4.826 -0.3418 -0.8888 -1.0354
 2120SOL     OW 6749   5.112   5.016   1.745 -0.5352 -0.1274 -0.3088
 2120SOL    HW1 6750   5.167   4.937   1.747  1.2386  1.0466 -0.9469
 2120SOL    HW2 6751   5.044   4.996   1.681 -0.9894 -1.6652  0.5909
 2121SOL     OW 6752   2.941   0.973   5.658 -0.4463 -0.4905  0.0137
 2121SOL    HW1 6753   2.992   1.030   5.600 -0.3134  0.4086  0.9788
 2121SOL    HW2 6754   2.992   0.969   5.739 -0.5587 -1.8396  0.0385
 2122SOL     OW 6755   3.002   0.223   3.161 -0.2677 -0.0571 -0.0380
 2122SOL    HW1 6756   2.995   0.318   3.176 -0.7107 -0.2279  0.8855
 2122SOL    HW2 6757   3.009   0.185   3.248  3.1159 -0.6781 -0.4642
 2123SOL     OW 6758   1.107   5.337   4.932  0.0156  0.0655 -0.1714
 2123SOL    HW1 6759   1.109   5.265   4.996 -0.2221 -0.3890 -0.6638
 2123SOL    HW2 6760   1.107   5.416   4.985  1.5468 -0.2641  0.3717
 2124SOL     OW 6761   2.093   1.147   5.686 -0.1891 -0.5196  0.6136
 2124SOL    HW1 6762   2.007   1.145   5.729 -0.0925  0.6284  0.8771
 2124SOL    HW2 6763   2.092   1.071   5.628 -1.9188  0.2297 -0.4130
 2125SOL     OW 6764   3.102   0.143   2.266 -0.2208 -0.3177  0.4696
 2125SOL    HW1 6765   3.099   0.087   2.343 -0.6051 -0.8817  0.0527
 2125SOL    HW2 6766   3.156   0.096   2.203  2.4084  1.3631  1.3142
 2126SOL     OW 6767   1.719   4.069   3.691 -0.2236  0.6894 -0.6945
 2126SOL    HW1 6768   1.748   4.012   3.762  1.0214  1.3938 -0.6014
 2126SOL    HW2 6769   1.726   4.014   3.612 -1.2203  0.0328 -0.3399
 2127SOL     OW 6770   1.735   4.549   1.189 -0.1517  0.0335 -0.4981
 2127SOL    HW1 6771   1.789   4.494   1.246 -1.2371  0.0894  0.6397
 2127SOL    HW2 6772   1.656   4.566   1.240  0.1747  2.7862 -0.7405
 2128SOL     OW 6773   4.049   0.022   1.996 -0.7308 -0.3482  0.5292
 2128SOL    HW1 6774   4.060   0.001   2.089 -2.0375  0.0968  0.8076
 2128SOL    HW2 6775   4.000  -0.052   1.961 -1.7434  0.2684  0.5978
 2129SOL     OW 6776   1.492   0.601   5.826  0.1041  0.3872 -0.1836
 2129SOL    HW1 6777   1.418   0.541   5.833  0.8470 -0.3806  1.4030
 2129SOL    HW2 6778   1.456   0.686   5.854 -0.3051  0.1316  0.0871
 2130SOL     OW 6779   2.392   4.852   3.409 -0.1104  0.6656  0.2427
 2130SOL    HW1 6780   2.317   4.912   3.413  0.9263  1.9682  1.6547
 2130SOL    HW2 6781   2.378   4.791   3.481 -1.2436 -0.9711 -1.2905
 2131SOL     OW 6782   2.749   0.277   3.083  0.6228 -0.6596 -0.2202
 2131SOL    HW1 6783   2.842   0.253   3.086  0.6978 -0.3772 -0.2519
 2131SOL    HW2 6784   2.704   0.204   3.126  0.9569 -0.3060  0.7553
 2132SOL     OW 6785   4.693   3.857   4.212 -0.2001  0.1694  0.0929
 2132SOL    HW1 6786   4.713   3.863   4.119 -0.3415  1.4542  0.1303
 2132SOL    HW2 6787   4.741   3.930   4.251  0.3792 -0.7381  1.1215
 2133SOL     OW 6788   5.215   5.960   6.128  0.2077  0.1910  0.1237
 2133SOL    HW1 6789   5.271   5.971   6.205  0.5187 -1.1157  0.1036
 2133SOL    HW2 6790   5.176   5.873   6.138  0.6207 -0.2027 -1.4137
 2134SOL     OW 6791   6.676   6.735   3.293 -0.1414  0.0452 -0.1796
 2134SOL    HW1 6792   6.672   6.827   3.265  0.2246 -0.2368 -1.2298
 2134SOL    HW2 6793   6.625   6.688   3.227  0.4631 -0.6101 -0.1962
 2135SOL     OW 6794   2.524   1.635   3.242 -0.5616 -0.3756  0.2302
 2135SOL    HW1 6795   2.570   1.588   3.172  0.2602  0.0569  0.4720
 2135SOL    HW2 6796   2.550   1.726   3.231 -0.6127 -0.2687  0.9542
 2136SOL     OW 6797   4.710   5.476   5.347 -0.4369 -0.0371  0.3269
 2136SOL    HW1 6798   4.708   5.381   5.335 -1.9365 -0.0477  0.5146
 2136SOL    HW2 6799   4.733   5.510   5.261  0.5982 -0.5760  0.3751
 2137SOL     OW 6800   2.819   0.536   4.778 -0.0074  0.1441  0.2166
 2137SOL    HW1 6801   2.815   0.441   4.789  0.2114  0.0526 -0.4753
 2137SOL    HW2 6802   2.804   0.550   4.684 -1.6921  0.8905  0.5571
 2138SOL     OW 6803   6.613   0.265   5.969  0.2977  0.4598  0.0459
 2138SOL    HW1 6804   6.632   0.313   6.050 -3.1081 -0.9875  1.9406
 2138SOL    HW2 6805   6.518   0.271   5.959  0.1094 -2.7797 -1.5635
 2139SOL     OW 6806   6.379   0.048   1.190  0.0760 -0.2728  0.1227
 2139SOL    HW1 6807   6.286   0.039   1.171 -0.0385 -0.1402  0.6299
 2139SOL    HW2 6808   6.416  -0.038   1.166 -0.3300 -0.6502  0.8216
 2140SOL     OW 6809   3.708   5.933   5.466 -0.3607 -0.2675 -0.7656
 2140SOL    HW1 6810   3.704   5.858   5.406 -1.8133  0.6907 -1.9408
 2140SOL    HW2 6811   3.633   5.987   5.442  0.1926  1.1838  0.5898
 2141SOL     OW 6812   4.242   5.211   0.149  0.0416  1.0157  0.7204
 2141SOL    HW1 6813   4.175   5.274   0.177 -2.8486 -1.7883  0.6334
 2141SOL    HW2 6814   4.304   5.209   0.222  0.1592  3.7457  0.8029
 2142SOL     OW 6815   1.772   4.513   0.159 -0.4972 -0.2514 -0.2733
 2142SOL    HW1 6816   1.700   4.573   0.142  1.3493  1.7086 -1.6157
 2142SOL    HW2 6817   1.841   4.568   0.197  1.7281 -1.1642 -2.6903
 2143SOL     OW 6818   1.442   1.845   4.542  0.5414 -0.0973  0.4392
 2143SOL    HW1 6819   1.508   1.906   4.572  0.5208  0.6592 -0.9783
 2143SOL    HW2 6820   1.458   1.765   4.592  2.6847 -0.0180 -0.0594
 2144SOL     OW 6821   3.365   3.941   5.581  0.6247 -0.6246 -0.2345
 2144SOL    HW1 6822   3.408   3.856   5.571  0.5034 -0.7835  0.5156
 2144SOL    HW2 6823   3.309   3.949   5.503 -2.7367 -3.2497  1.6244
 2145SOL     OW 6824   0.863   4.863   0.235 -0.5932  0.3964 -0.0542
 2145SOL    HW1 6825   0.795   4.859   0.302  1.9872  2.0262  2.9326
 2145SOL    HW2 6826   0.890   4.772   0.222 -1.1274  0.0489  1.1601
 2146SOL     OW 6827   6.192   5.160   3.663  0.3212 -0.1606  0.6602
 2146SOL    HW1 6828   6.229   5.131   3.746 -0.3485  0.0684  1.0502
 2146SOL    HW2 6829   6.178   5.254   3.674  2.9462  0.4999 -0.7778
 2147SOL     OW 6830   3.036   5.823   0.088  0.4559 -0.3343 -0.2708
 2147SOL    HW1 6831   3.104   5.779   0.138  2.7026  0.8053 -2.0728
 2147SOL    HW2 6832   2.988   5.753   0.044 -0.4914 -1.2357  2.0802
 2148SOL     OW 6833   0.694   2.018   3.110  0.9320 -0.4035  0.6221
 2148SOL    HW1 6834   0.620   1.961   3.133 -0.9524  1.0682 -1.3934
 2148SOL    HW2 6835   0.707   2.072   3.188 -1.0699  0.2152  0.5855
 2149SOL     OW 6836   6.084   3.006   4.656 -0.6304  0.1611 -0.0105
 2149SOL    HW1 6837   6.119   3.050   4.733 -2.1112  0.4868  0.5006
 2149SOL    HW2 6838   6.155   3.009   4.592 -0.0267  1.5427  0.6930
 2150SOL     OW 6839   6.386   5.749   0.761 -0.1998 -0.4646 -0.2202
 2150SOL    HW1 6840   6.456   5.781   0.704 -1.1644 -0.0343 -1.1804
 2150SOL    HW2 6841   6.359   5.666   0.722  0.6939 -1.3540  0.9450
 2151SOL     OW 6842   4.805   1.199   5.007 -0.4144 -0.5957 -0.0691
 2151SOL    HW1 6843   4.793   1.285   5.048  1.2217 -1.1141  1.6428
 2151SOL    HW2 6844   4.895   1.201   4.973 -0.9676 -1.0247 -1.6464
 2152SOL     OW 6845   0.072   5.461   5.260 -0.3367 -0.1928  0.6599
 2152SOL    HW1 6846  -0.015   5.425   5.274 -1.8334  1.2816 -3.5951
 2152SOL    HW2 6847   0.059   5.555   5.252  1.3081 -0.0664 -1.6343
 2153SOL     OW 6848   0.152   0.344   2.970  0.3800  0.2729 -0.1813
 2153SOL    HW1 6849   0.098   0.410   2.927  1.7719  0.3179 -1.9956
 2153SOL    HW2 6850   0.214   0.394   3.024  0.5944  0.4052 -0.5422
 2154SOL     OW 6851   1.553   5.369   3.349 -0.6948 -0.0490 -0.2242
 2154SOL    HW1 6852   1.548   5.418   3.432 -0.1857 -1.0844  0.4408
 2154SOL    HW2 6853   1.511   5.285   3.368  1.6193 -1.3054 -0.2032
 2155SOL     OW 6854   5.610   4.704   2.248  0.2816  0.5724 -0.6337
 2155SOL    HW1 6855   5.657   4.705   2.332  1.1652 -1.6343 -1.0460
 2155SOL    HW2 6856   5.547   4.776   2.256  2.1572  2.1859  0.8383
 2156SOL     OW 6857   0.957   1.566   4.236 -0.2735 -0.4008  0.2424
 2156SOL    HW1 6858   1.007   1.506   4.180  0.1846  1.5704 -1.6348
 2156SOL    HW2 6859   0.876   1.520   4.255  0.6056 -2.1162 -0.0015
 2157SOL     OW 6860   2.390   5.517   4.909  0.0099 -0.1107 -0.3269
 2157SOL    HW1 6861   2.424   5.436   4.946 -0.1051 -0.2301 -0.4798
 2157SOL    HW2 6862   2.311   5.490   4.861  0.0925  0.0599 -0.5595
 2158SOL     OW 6863   2.914   5.145   6.453  0.1378  0.3049 -0.3577
 2158SOL    HW1 6864   3.005   5.175   6.448  0.7890 -1.1078  1.7493
 2158SOL    HW2 6865   2.919   5.051   6.433 -0.6737 -0.0211  0.9003
 2159SOL     OW 6866   3.459   2.287   2.441 -0.3717 -0.0070 -0.1762
 2159SOL    HW1 6867   3.494   2.219   2.383  1.0232  0.7661 -0.2915
 2159SOL    HW2 6868   3.378   2.315   2.399 -0.6675 -1.1879 -0.4274
 2160SOL     OW 6869   0.651   2.179   2.603 -0.1366  0.1780  0.3277
 2160SOL    HW1 6870   0.723   2.180   2.666 -0.8473  0.9185  1.1621
 2160SOL    HW2 6871   0.684   2.227   2.528  0.1498  0.8079  0.8406
 2161SOL     OW 6872   1.444   6.551   6.614  0.5275 -0.3696 -0.5095
 2161SOL    HW1 6873   1.393   6.560   6.695 -0.0894 -0.5108 -0.8749
 2161SOL    HW2 6874   1.378   6.531   6.547  0.9479  0.4405 -1.1819
 2162SOL     OW 6875   2.102   0.672   0.835 -0.1034  0.5514  0.0507
 2162SOL    HW1 6876   2.188   0.642   0.865  0.1639  1.4438  0.2081
 2162SOL    HW2 6877   2.046   0.665   0.912 -0.1123  0.1888  0.0104
 2163SOL     OW 6878   4.469   2.523   3.013 -0.3506 -0.2551 -0.3050
 2163SOL    HW1 6879   4.533   2.466   2.970 -0.2433  0.2310 -0.8031
 2163SOL    HW2 6880   4.512   2.554   3.092 -0.3544 -0.7444 -0.1080
 2164SOL     OW 6881   6.357   4.991   4.312  0.4879  0.0806  0.1022
 2164SOL    HW1 6882   6.408   4.928   4.363 -0.1442 -1.2323 -0.8223
 2164SOL    HW2 6883   6.275   4.945   4.293 -0.4608  1.6058  0.3427
 2165SOL     OW 6884   5.378   0.604   1.031 -0.3693 -0.0903  0.2747
 2165SOL    HW1 6885   5.336   0.523   1.001 -0.7976 -0.1855  1.0959
 2165SOL    HW2 6886   5.308   0.653   1.074  0.5226 -0.6945  2.5513
 2166SOL     OW 6887   3.839   4.693   2.151  0.1792  0.4532 -0.1694
 2166SOL    HW1 6888   3.814   4.778   2.115  0.9792 -0.0621 -2.0460
 2166SOL    HW2 6889   3.760   4.640   2.141  0.5399  0.1642 -1.7485
 2167SOL     OW 6890   5.860   6.681   3.822  0.1241  0.5303 -0.5247
 2167SOL    HW1 6891   5.894   6.679   3.911 -0.7095 -1.8146 -0.1946
 2167SOL    HW2 6892   5.801   6.606   3.817 -3.9681  3.4271 -1.4628
 2168SOL     OW 6893   4.463   1.454   1.966  0.2014  0.2355  0.0282
 2168SOL    HW1 6894   4.381   1.446   1.917  0.9252  0.7853 -1.3479
 2168SOL    HW2 6895   4.498   1.538   1.938  0.0167  1.2606  2.5682
 2169SOL     OW 6896   2.865   1.480   6.624 -0.2618  0.1137  0.0233
 2169SOL    HW1 6897   2.845   1.521   6.540  1.2715  2.7194  0.8331
 2169SOL    HW2 6898   2.780   1.473   6.668 -0.7601  1.0953 -0.7373
 2170SOL     OW 6899   1.436   5.870   4.719  0.4128 -0.4871  0.1583
 2170SOL    HW1 6900   1.357   5.853   4.667  0.5794 -0.9428  0.0428
 2170SOL    HW2 6901   1.497   5.908   4.656 -0.3201  1.6121  0.6549
 2171SOL     OW 6902   5.441   3.215   1.007 -0.0974  0.0578  0.3671
 2171SOL    HW1 6903   5.456   3.129   0.968  1.9039  0.2894  0.5102
 2171SOL    HW2 6904   5.364   3.204   1.062  0.0072 -1.6009  0.2291
 2172SOL     OW 6905   5.612   1.014   5.264  0.2300 -0.3662  0.0377
 2172SOL    HW1 6906   5.651   0.996   5.349 -0.6501 -2.2835  0.0884
 2172SOL    HW2 6907   5.680   1.061   5.216  1.0435  0.0189  1.5126
 2173SOL     OW 6908   1.034   1.404   5.645  0.0357  0.1668 -0.2491
 2173SOL    HW1 6909   1.116   1.354   5.651 -0.1936 -0.0772  1.1957
 2173SOL    HW2 6910   1.051   1.483   5.696 -0.2841  0.6269 -0.8450
 2174SOL     OW 6911   1.235   0.049   1.939  0.5457 -0.2674  0.0596
 2174SOL    HW1 6912   1.228   0.005   2.024  0.3963  2.5130  1.6274
 2174SOL    HW2 6913   1.329   0.059   1.925  0.6383 -2.1326 -0.9757
 2175SOL     OW 6914   2.463   0.307   0.817 -0.4575  0.3704  0.0457
 2175SOL    HW1 6915   2.509   0.281   0.897  1.0564  0.9722 -0.5950
 2175SOL    HW2 6916   2.472   0.231   0.759  0.9027  0.9643 -0.5514
 2176SOL     OW 6917   3.344   3.198   1.492 -0.6727  0.6142  0.0528
 2176SOL    HW1 6918   3.303   3.137   1.554  0.0486 -0.2864 -0.3327
 2176SOL    HW2 6919   3.435   3.169   1.487  0.0120  2.4772  0.7900
 2177SOL     OW 6920   0.971   2.690   6.240 -0.2920  0.1857 -0.5322
 2177SOL    HW1 6921   1.027   2.705   6.316 -0.1151 -1.7774 -0.2183
 2177SOL    HW2 6922   0.894   2.745   6.255 -1.2209 -1.6231  2.1380
 2178SOL     OW 6923   1.124   0.982   4.086 -0.6438  0.6111  0.0297
 2178SOL    HW1 6924   1.128   0.888   4.071 -0.2326  0.5226  0.6777
 2178SOL    HW2 6925   1.095   0.991   4.177  0.7711  1.0746  0.4630
 2179SOL     OW 6926   1.700   3.153   3.633  0.0831  0.2770  0.0882
 2179SOL    HW1 6927   1.745   3.237   3.637  0.6461 -0.0678  2.6004
 2179SOL    HW2 6928   1.608   3.175   3.616  0.3234  1.3419  0.1128
 2180SOL     OW 6929   0.265   4.980   4.957 -0.0199  0.0837 -0.5591
 2180SOL    HW1 6930   0.349   5.004   4.996  0.6207 -1.1140 -1.1479
 2180SOL    HW2 6931   0.262   5.027   4.874  0.1541 -0.0046 -0.6165
 2181SOL     OW 6932   4.743   4.678   4.241  0.3880  0.4135 -0.1300
 2181SOL    HW1 6933   4.716   4.698   4.152 -0.4247 -0.2458 -0.0406
 2181SOL    HW2 6934   4.713   4.588   4.256 -0.7234  0.9803  1.2646
 2182SOL     OW 6935   1.592   3.338   5.798 -0.1791  0.0749 -0.0250
 2182SOL    HW1 6936   1.622   3.374   5.882  2.9709 -1.3936 -0.3804
 2182SOL    HW2 6937   1.559   3.413   5.750  0.5266  1.4182  1.5079
 2183SOL     OW 6938   5.838   3.684   2.223  0.7261  0.5178  0.5151
 2183SOL    HW1 6939   5.818   3.640   2.141 -1.7927 -1.9797  2.2566
 2183SOL    HW2 6940   5.914   3.637   2.258  1.7109  1.4914 -0.2297
 2184SOL     OW 6941   6.119   6.644   6.062  0.6271 -0.0953  0.8271
 2184SOL    HW1 6942   6.098   6.663   6.153  2.1451  0.2436  1.1391
 2184SOL    HW2 6943   6.035   6.642   6.017  0.0230  2.3652  1.7235
 2185SOL     OW 6944   3.148   0.518   4.530  0.0652 -0.4834 -0.2799
 2185SOL    HW1 6945   3.102   0.592   4.492 -0.2836  0.5871  2.0529
 2185SOL    HW2 6946   3.125   0.444   4.473 -0.4891  0.9461 -2.0126
 2186SOL     OW 6947   0.157   0.099   2.879  0.3199 -0.4711 -0.3056
 2186SOL    HW1 6948   0.152   0.190   2.908 -0.1233 -1.1595  2.0067
 2186SOL    HW2 6949   0.220   0.099   2.808  1.5758  1.3978  0.7324
 2187SOL     OW 6950   3.783   4.533   3.172  0.0761  0.5290  0.3339
 2187SOL    HW1 6951   3.717   4.534   3.242 -1.0282 -0.0896 -0.6667
 2187SOL    HW2 6952   3.816   4.443   3.171  0.8295  0.7897  0.7061
 2188SOL     OW 6953   5.161   2.910   4.085 -0.4142 -0.4785  0.3496
 2188SOL    HW1 6954   5.209   2.858   4.020 -0.9656 -0.9608  0.3236
 2188SOL    HW2 6955   5.205   2.892   4.168 -1.0291 -1.5403  0.4547
 2189SOL     OW 6956   4.288   5.066   6.757 -0.3703 -0.0006  0.4521
 2189SOL    HW1 6957   4.304   5.085   6.849 -0.2677 -1.7605  0.8178
 2189SOL    HW2 6958   4.375   5.064   6.718 -0.3489 -0.2149  0.5121
 2190SOL     OW 6959   2.005   6.591   3.007 -0.1089 -0.3109 -0.0146
 2190SOL    HW1 6960   2.053   6.672   2.988 -2.0950  0.5353 -1.7496
 2190SOL    HW2 6961   2.070   6.535   3.049  1.3442  2.1575  1.2628
 2191SOL     OW 6962   1.449   3.609   6.391  0.9429  0.1166 -0.5606
 2191SOL    HW1 6963   1.423   3.607   6.299  1.1085 -2.2950 -0.6428
 2191SOL    HW2 6964   1.544   3.604   6.389  0.9040 -1.2783 -0.3150
 2192SOL     OW 6965   2.223   3.443   2.029 -0.4519 -0.3962 -0.3285
 2192SOL    HW1 6966   2.236   3.516   1.968 -3.2895  0.7641  0.2740
 2192SOL    HW2 6967   2.196   3.370   1.973  0.9097 -0.5616 -0.7953
 2193SOL     OW 6968   5.315   2.111   3.431 -0.1168  0.0080  0.6531
 2193SOL    HW1 6969   5.326   2.057   3.353 -1.1423 -1.4572  1.4836
 2193SOL    HW2 6970   5.220   2.114   3.445  0.0650  0.0312  1.9840
 2194SOL     OW 6971   1.930   2.815   5.313 -0.2340  0.1869 -0.1495
 2194SOL    HW1 6972   2.024   2.829   5.322 -0.0047 -1.0737 -0.4280
 2194SOL    HW2 6973   1.921   2.754   5.240 -1.3445  1.0684 -0.7819
 2195SOL     OW 6974   4.403   3.319   0.981  0.5536 -0.1042  0.6170
 2195SOL    HW1 6975   4.351   3.267   0.920 -0.9432 -0.5660  2.2049
 2195SOL    HW2 6976   4.459   3.256   1.026  0.4492 -0.0016  0.8922
 2196SOL     OW 6977   0.351   0.811   1.812  0.2529  0.1392 -0.0566
 2196SOL    HW1 6978   0.355   0.806   1.716 -0.5221  0.8044 -0.1280
 2196SOL    HW2 6979   0.271   0.764   1.836  0.3979  0.0499  0.2638
 2197SOL     OW 6980   2.768   3.295   5.586  0.6794 -0.4579  0.0100
 2197SOL    HW1 6981   2.847   3.296   5.640 -0.1729  1.1646  1.3186
 2197SOL    HW2 6982   2.792   3.346   5.508  0.2528  2.4327  1.6019
 2198SOL     OW 6983   5.719   0.688   3.268 -0.0305  0.2944  0.0904
 2198SOL    HW1 6984   5.804   0.732   3.269  0.7165 -1.1128  1.0022
 2198SOL    HW2 6985   5.662   0.748   3.219  1.2677  1.6292  0.1375
 2199SOL     OW 6986   0.695   3.354   0.447 -0.3853  0.7184  0.0408
 2199SOL    HW1 6987   0.657   3.398   0.524 -0.0676  3.0158 -1.0079
 2199SOL    HW2 6988   0.713   3.426   0.386 -0.3086 -0.9946 -2.0591
 2200SOL     OW 6989   2.560   0.092   1.419  0.3129 -0.3393 -0.2685
 2200SOL    HW1 6990   2.481   0.114   1.369 -0.1037 -0.3415  0.3672
 2200SOL    HW2 6991   2.568  -0.003   1.410  0.7049 -0.2471 -0.9866
 2201SOL     OW 6992   1.133   5.327   4.303  0.1082 -0.4454 -0.2111
 2201SOL    HW1 6993   1.224   5.308   4.276  0.3169 -0.9272  0.7840
 2201SOL    HW2 6994   1.107   5.249   4.353 -1.1919 -0.7301 -1.2676
 2202SOL     OW 6995   2.859   6.299   6.704  0.4701 -0.2469  0.4314
 2202SOL    HW1 6996   2.765   6.311   6.710  0.3968  1.1995 -2.0912
 2202SOL    HW2 6997   2.870   6.208   6.674  0.0584 -1.0864  2.6394
 2203SOL     OW 6998   4.242   6.434   6.181  0.4275 -0.0321 -0.4632
 2203SOL    HW1 6999   4.200   6.356   6.144  0.9653 -1.1821  1.2174
 2203SOL    HW2 7000   4.226   6.428   6.275  0.3538  1.9990 -0.3037
 2204SOL     OW 7001   4.910   6.220   0.067  0.5010 -0.3584 -0.4876
 2204SOL    HW1 7002   4.907   6.135   0.111 -1.3258 -0.6575 -1.0797
 2204SOL    HW2 7003   4.843   6.272   0.111 -0.3098 -0.1619 -1.8693
 2205SOL     OW 7004   4.846   2.805   6.107 -0.5861  0.0795 -0.1737
 2205SOL    HW1 7005   4.786   2.794   6.180 -0.3338  0.9217  0.1702
 2205SOL    HW2 7006   4.882   2.893   6.118  1.0530 -0.5656 -0.0983
 2206SOL     OW 7007   2.955   2.720   1.310 -0.3545  0.4217  0.1329
 2206SOL    HW1 7008   3.004   2.790   1.353 -0.3194  0.6861 -0.3381
 2206SOL    HW2 7009   2.946   2.653   1.378  0.5176  0.4369  0.2743
 2207SOL     OW 7010   5.007   5.370   1.048 -0.1275 -0.4740  0.5413
 2207SOL    HW1 7011   4.979   5.318   0.972 -0.3512  1.8734 -1.0879
 2207SOL    HW2 7012   5.101   5.380   1.036 -0.4662  1.7536 -0.7502
 2208SOL     OW 7013   5.410   4.093   4.148  0.3616 -0.3071 -0.5979
 2208SOL    HW1 7014   5.411   4.103   4.244  0.5309 -0.5081 -0.5775
 2208SOL    HW2 7015   5.336   4.146   4.119  0.6994  0.2724 -0.4152
 2209SOL     OW 7016   6.731   1.379   2.852  1.0845 -0.5214  0.0784
 2209SOL    HW1 7017   6.762   1.453   2.904  2.9832 -0.1832 -1.4311
 2209SOL    HW2 7018   6.640   1.402   2.831  0.7975  0.0876  1.8490
 2210SOL     OW 7019   0.200   4.361   2.849 -0.0570 -0.5886  0.7020
 2210SOL    HW1 7020   0.227   4.346   2.939 -2.2040 -3.3860  0.9957
 2210SOL    HW2 7021   0.107   4.383   2.855 -0.1062 -0.2729 -0.8196
 2211SOL     OW 7022   5.741   0.518   1.435  0.8297 -0.7683 -0.1445
 2211SOL    HW1 7023   5.650   0.546   1.444  1.0810  0.0519 -0.0997
 2211SOL    HW2 7024   5.748   0.488   1.344  1.3381  2.3281 -1.2497
 2212SOL     OW 7025   4.207   0.168   4.712 -0.3073 -0.4101  0.0785
 2212SOL    HW1 7026   4.231   0.113   4.638 -0.6865 -0.7764  0.2271
 2212SOL    HW2 7027   4.284   0.223   4.727 -0.1676 -0.4569 -0.4751
 2213SOL     OW 7028   0.264   5.889   6.240 -0.3294 -0.1291  0.6204
 2213SOL    HW1 7029   0.285   5.808   6.194  0.3302 -0.4037  1.3909
 2213SOL    HW2 7030   0.177   5.874   6.278 -0.7038 -0.0463 -0.1687
 2214SOL     OW 7031   4.674   5.705   2.150  0.6796  0.4568 -0.0214
 2214SOL    HW1 7032   4.667   5.676   2.242  0.0171 -0.1785 -0.2554
 2214SOL    HW2 7033   4.726   5.785   2.154  1.2644  0.0543  0.8334
 2215SOL     OW 7034   4.099   1.405   5.338 -0.2185 -0.2516  0.0878
 2215SOL    HW1 7035   4.068   1.468   5.273  0.3048  1.7939  1.7351
 2215SOL    HW2 7036   4.093   1.320   5.293 -3.7654  0.5263 -1.2147
 2216SOL     OW 7037   2.202   1.760   2.896 -0.4189 -0.5309  0.4156
 2216SOL    HW1 7038   2.185   1.802   2.981  0.0722  0.7371 -0.0967
 2216SOL    HW2 7039   2.224   1.832   2.837 -0.9367 -1.3783 -0.8511
 2217SOL     OW 7040   3.541   5.779   0.135 -0.6348 -0.3707  0.0089
 2217SOL    HW1 7041   3.605   5.773   0.065 -1.6613  1.1369 -1.0996
 2217SOL    HW2 7042   3.587   5.822   0.207  0.0896 -0.9053 -0.1276
 2218SOL     OW 7043   1.835   5.025   4.052 -0.1662 -0.5842 -0.4343
 2218SOL    HW1 7044   1.851   5.027   4.146  0.7156 -0.3905 -0.5831
 2218SOL    HW2 7045   1.784   5.105   4.035  1.9422  0.8208 -0.5034
 2219SOL     OW 7046   1.228   6.237   3.016  0.3251 -0.3331  0.1225
 2219SOL    HW1 7047   1.316   6.239   2.980 -0.2188  0.1955 -1.2228
 2219SOL    HW2 7048   1.175   6.194   2.949 -1.0932  2.3911 -0.6483
 2220SOL     OW 7049   6.056   0.220   6.325 -0.0436 -0.0562 -0.0170
 2220SOL    HW1 7050   6.080   0.208   6.234  1.4571 -0.2563  0.3888
 2220SOL    HW2 7051   5.968   0.258   6.322 -0.0056 -0.0556 -1.5314
 2221SOL     OW 7052   4.444   2.831   0.995 -0.7294 -0.8545  0.3394
 2221SOL    HW1 7053   4.366   2.844   0.942  0.0727  0.8523 -0.5102
 2221SOL    HW2 7054   4.517   2.831   0.933  0.2721  1.5390  1.3440
 2222SOL     OW 7055   3.080   5.299   3.130 -0.9321  0.4713 -0.1202
 2222SOL    HW1 7056   3.170   5.327   3.148 -1.3235  1.1779  0.8339
 2222SOL    HW2 7057   3.036   5.378   3.098 -1.2219  0.1297 -0.5817
 2223SOL     OW 7058   0.722   5.123   5.407 -0.2362  0.1755  0.4223
 2223SOL    HW1 7059   0.668   5.092   5.335 -0.7952  0.6894  0.6112
 2223SOL    HW2 7060   0.661   5.136   5.479  0.1356  0.7468  0.6442
 2224SOL     OW 7061   4.081   3.639   2.271 -0.5451  0.1313  0.7980
 2224SOL    HW1 7062   4.035   3.578   2.212  0.7116  0.6845 -0.8448
 2224SOL    HW2 7063   4.155   3.588   2.304 -0.2227  0.3709  0.4469
 2225SOL     OW 7064   5.846   5.396   3.090 -0.1044 -0.0262  0.6318
 2225SOL    HW1 7065   5.908   5.332   3.056 -0.1021  0.0926  0.4118
 2225SOL    HW2 7066   5.800   5.350   3.160  0.6891  0.0932  1.2532
 2226SOL     OW 7067   0.567   1.382   3.902 -0.7906 -0.0172  0.2028
 2226SOL    HW1 7068   0.486   1.344   3.935  0.4965 -3.1784  0.0922
 2226SOL    HW2 7069   0.576   1.348   3.814  0.1025  1.2541 -0.2261
 2227SOL     OW 7070   6.262   0.221   4.162  0.1776 -0.2034  0.1633
 2227SOL    HW1 7071   6.306   0.137   4.176  1.4342  0.5548  0.8826
 2227SOL    HW2 7072   6.258   0.230   4.067 -0.2433 -1.2009  0.0715
 2228SOL     OW 7073   6.055   2.696   2.633 -0.2016  0.5456 -0.3263
 2228SOL    HW1 7074   6.148   2.697   2.608 -0.0630 -0.8153  0.0898
 2228SOL    HW2 7075   6.009   2.679   2.551  0.0040 -0.0457 -0.3233
 2229SOL     OW 7076   3.123   6.806   2.473 -0.1196 -0.4993  0.0665
 2229SOL    HW1 7077   3.122   6.844   2.561  0.5056 -0.8156  0.2201
 2229SOL    HW2 7078   3.053   6.741   2.474 -0.2485 -0.3600  0.2610
 2230SOL     OW 7079   2.997   0.623   4.953  0.6116 -0.1255 -0.0551
 2230SOL    HW1 7080   2.931   0.578   4.900  1.4484 -0.5713 -0.7478
 2230SOL    HW2 7081   3.080   0.595   4.916  1.1736  1.6306 -0.1923
 2231SOL     OW 7082   6.086   0.491   1.503  0.0919 -0.5410  0.1508
 2231SOL    HW1 7083   6.156   0.498   1.569 -0.0246  1.0444  0.1354
 2231SOL    HW2 7084   6.010   0.463   1.553  0.8831 -3.1870  0.0315
 2232SOL     OW 7085   2.918   2.065   5.495 -0.4472 -0.3364  0.8768
 2232SOL    HW1 7086   2.929   2.016   5.414  0.1674  1.4281 -0.1372
 2232SOL    HW2 7087   2.878   2.148   5.469  0.6143  0.6568  2.2411
 2233SOL     OW 7088   1.382   5.681   5.552  0.3293 -0.7457  0.4480
 2233SOL    HW1 7089   1.308   5.731   5.518  0.9103  0.1853  0.5271
 2233SOL    HW2 7090   1.424   5.645   5.474  1.7035  1.4517  0.0956
 2234SOL     OW 7091   0.378   5.044   1.297  0.0515  0.3219 -1.0094
 2234SOL    HW1 7092   0.384   4.958   1.255 -0.3377 -0.1097 -0.2069
 2234SOL    HW2 7093   0.411   5.105   1.232 -0.5290 -0.3319 -1.9390
 2235SOL     OW 7094   2.089   5.833   3.698 -0.0942 -0.3247 -0.4399
 2235SOL    HW1 7095   2.172   5.880   3.706  0.9766 -2.1911  0.0043
 2235SOL    HW2 7096   2.094   5.791   3.611 -1.0230  0.3399 -0.8272
 2236SOL     OW 7097   4.644   5.047   6.801 -0.6131  0.2157  0.0502
 2236SOL    HW1 7098   4.614   5.134   6.826 -1.7097 -0.3400  0.7254
 2236SOL    HW2 7099   4.650   5.050   6.706  2.1139  1.8880  0.1590
 2237SOL     OW 7100   6.067   2.084   6.667 -0.3371  0.4909  0.1122
 2237SOL    HW1 7101   6.093   1.994   6.687 -0.1561  0.1817 -1.3706
 2237SOL    HW2 7102   6.002   2.106   6.733 -1.5497 -1.2941 -0.4207
 2238SOL     OW 7103   3.884   1.830   0.808 -0.1508  0.1624 -0.4729
 2238SOL    HW1 7104   3.815   1.766   0.824 -0.1307  0.4976  1.1224
 2238SOL    HW2 7105   3.847   1.888   0.740 -2.4082  1.6036  1.7732
 2239SOL     OW 7106   0.973   3.232   6.285  0.6513 -0.2299 -0.2600
 2239SOL    HW1 7107   0.937   3.288   6.354 -0.5716  0.3640 -1.3224
 2239SOL    HW2 7108   1.016   3.293   6.225 -1.3649 -0.2468 -1.8425
 2240SOL     OW 7109   2.013   2.084   6.360 -0.3269 -0.2707 -0.0600
 2240SOL    HW1 7110   2.068   2.031   6.302 -1.9354 -1.5988 -0.4280
 2240SOL    HW2 7111   1.939   2.111   6.306 -1.0136 -0.1128  0.9370
 2241SOL     OW 7112   1.883   5.458   6.569 -0.1603 -0.1688  0.5376
 2241SOL    HW1 7113   1.867   5.410   6.488  1.1609  2.5039 -1.4500
 2241SOL    HW2 7114   1.976   5.443   6.587  0.0281  0.8257  0.4330
 2242SOL     OW 7115   2.184   3.256   1.630  0.3785 -0.5318  0.2630
 2242SOL    HW1 7116   2.144   3.270   1.716 -0.2095 -1.3566  0.1374
 2242SOL    HW2 7117   2.127   3.192   1.588  0.4175  0.1898 -0.9175
 2243SOL     OW 7118   6.019   1.382   1.333 -0.2635  0.5479 -0.0579
 2243SOL    HW1 7119   6.056   1.294   1.335  0.5906  0.9025  1.2431
 2243SOL    HW2 7120   5.956   1.380   1.261  0.8540 -0.6640 -1.0619
 2244SOL     OW 7121   2.152   2.904   4.483 -0.4595  0.2377  0.2056
 2244SOL    HW1 7122   2.118   2.821   4.515 -0.7692  0.7123  1.1585
 2244SOL    HW2 7123   2.086   2.969   4.509  0.4472  0.9688  0.7716
 2245SOL     OW 7124   2.477   1.277   1.616  0.5379 -0.1822  0.5189
 2245SOL    HW1 7125   2.424   1.245   1.544  1.2151 -0.4819  0.1407
 2245SOL    HW2 7126   2.419   1.335   1.665 -0.5778 -1.6012  0.9501
 2246SOL     OW 7127   3.668   4.888   2.082  0.0833 -0.2477 -0.2340
 2246SOL    HW1 7128   3.606   4.874   2.154  0.9582 -1.2136  0.3534
 2246SOL    HW2 7129   3.612   4.914   2.008 -0.7444  1.6903  0.9960
 2247SOL     OW 7130   3.434   1.793   4.526  0.1204  0.4262 -0.3205
 2247SOL    HW1 7131   3.441   1.874   4.576 -0.1331  0.5081 -0.4167
 2247SOL    HW2 7132   3.365   1.810   4.463 -1.4565 -0.5978  1.0475
 2248SOL     OW 7133   1.037   0.592   5.283 -0.3347  0.3420  0.0404
 2248SOL    HW1 7134   0.955   0.590   5.234 -1.2287  0.7720  1.4876
 2248SOL    HW2 7135   1.100   0.632   5.222 -1.0901 -0.2725 -1.1932
 2249SOL     OW 7136   4.149   1.909   0.765 -0.2634  0.7523 -0.3996
 2249SOL    HW1 7137   4.199   1.838   0.806 -0.2259  1.6575  1.1981
 2249SOL    HW2 7138   4.059   1.876   0.762 -0.1950  0.5137  0.0448
 2250SOL     OW 7139   5.254   0.336   3.574 -0.8493 -0.3311  0.5357
 2250SOL    HW1 7140   5.290   0.247   3.576 -0.9390 -0.3817  0.0717
 2250SOL    HW2 7141   5.284   0.372   3.490  0.3450  0.5603  1.3135
 2251SOL     OW 7142   6.548   4.705   3.719  0.4544  0.5967 -0.5066
 2251SOL    HW1 7143   6.488   4.754   3.775 -1.0778 -1.8603  0.1371
 2251SOL    HW2 7144   6.633   4.711   3.763 -0.3506  0.1780  1.1700
 2252SOL     OW 7145   4.855   3.184   6.672  1.0942  0.1667  0.3195
 2252SOL    HW1 7146   4.814   3.262   6.635 -0.3847 -0.2570  1.0096
 2252SOL    HW2 7147   4.893   3.139   6.596  0.2332  0.5462 -0.3548
 2253SOL     OW 7148   3.100   5.391   2.182  0.6953  0.1348 -0.1475
 2253SOL    HW1 7149   3.137   5.409   2.269  0.7268 -0.4565 -0.0316
 2253SOL    HW2 7150   3.066   5.475   2.152 -0.3206  0.1221  0.9179
 2254SOL     OW 7151   6.587   0.635   2.279 -0.3823  0.0400  0.3927
 2254SOL    HW1 7152   6.574   0.652   2.372 -1.3767  0.3847  0.2036
 2254SOL    HW2 7153   6.550   0.548   2.265 -1.4911  0.5453  0.0738
 2255SOL     OW 7154   2.602   1.704   6.230 -0.1767  0.3879  0.3011
 2255SOL    HW1 7155   2.636   1.793   6.237 -0.6074  0.5401  0.4851
 2255SOL    HW2 7156   2.656   1.663   6.162  2.4913 -0.3626  2.6566
 2256SOL     OW 7157   4.026   3.993   2.772  0.2073 -0.3017 -0.1352
 2256SOL    HW1 7158   4.057   4.028   2.856  2.0911 -0.7509 -0.5789
 2256SOL    HW2 7159   4.049   3.900   2.775  0.1548 -0.3561 -1.0787
 2257SOL     OW 7160   1.659   5.245   1.951  0.5222  0.3214 -0.0218
 2257SOL    HW1 7161   1.670   5.210   1.863 -1.4889  0.7051 -0.4716
 2257SOL    HW2 7162   1.684   5.173   2.009 -0.8022 -0.9077 -0.9270
 2258SOL     OW 7163   0.784   3.679   6.549 -0.1359  0.3601  0.0896
 2258SOL    HW1 7164   0.816   3.769   6.545 -0.5523  0.5106  0.0057
 2258SOL    HW2 7165   0.742   3.672   6.635 -0.6327  0.4360 -0.1415
 2259SOL     OW 7166   4.201   4.327   2.761  0.1363 -0.0410  0.2621
 2259SOL    HW1 7167   4.252   4.405   2.742  0.3586 -0.5096 -1.1973
 2259SOL    HW2 7168   4.260   4.272   2.814  0.7250 -0.0703 -0.4081
 2260SOL     OW 7169   6.113   3.641   1.163  0.1501 -0.5726 -0.2952
 2260SOL    HW1 7170   6.104   3.546   1.165  0.7455 -0.6837 -1.7980
 2260SOL    HW2 7171   6.080   3.670   1.248  0.6993 -2.1792  0.5080
 2261SOL     OW 7172   6.346   1.276   1.929  0.3575 -0.3768  0.4300
 2261SOL    HW1 7173   6.366   1.367   1.951 -1.8600  0.2025  0.3189
 2261SOL    HW2 7174   6.413   1.251   1.866  0.4122  1.5506 -0.3525
 2262SOL     OW 7175   4.324   2.169   1.152  0.1955 -0.0473  0.1443
 2262SOL    HW1 7176   4.331   2.153   1.246 -0.6391 -1.8829 -0.0548
 2262SOL    HW2 7177   4.382   2.104   1.112 -1.8846 -1.5412 -0.6672
 2263SOL     OW 7178   6.242   2.874   2.850 -0.0841 -0.1823  0.2716
 2263SOL    HW1 7179   6.208   2.917   2.771 -0.2774  1.2597  1.0946
 2263SOL    HW2 7180   6.239   2.781   2.830 -1.0049  0.1046 -1.0735
 2264SOL     OW 7181   1.549   2.970   1.305 -0.0564 -0.3659 -0.7344
 2264SOL    HW1 7182   1.566   2.990   1.213 -1.7464 -2.4427 -1.5886
 2264SOL    HW2 7183   1.598   2.890   1.323  1.1142  0.5928  0.5285
 2265SOL     OW 7184   6.721   5.980   1.259  0.0010  0.3298  0.2203
 2265SOL    HW1 7185   6.723   6.038   1.182  0.0725  0.2727  0.1785
 2265SOL    HW2 7186   6.812   5.978   1.290 -0.0747  0.5427  0.4502
 2266SOL     OW 7187   1.339   0.385   1.247  0.4793 -0.2595  0.4898
 2266SOL    HW1 7188   1.313   0.381   1.155  1.6347 -0.5496  0.1575
 2266SOL    HW2 7189   1.257   0.398   1.295 -0.1031  0.2332 -0.5990
 2267SOL     OW 7190   3.465   4.583   0.265 -0.1717 -0.6510 -0.1864
 2267SOL    HW1 7191   3.522   4.507   0.273 -0.2308 -0.5954  1.0176
 2267SOL    HW2 7192   3.467   4.606   0.172  1.1122 -1.1453 -0.2951
 2268SOL     OW 7193   2.713   2.083   1.739  0.1127 -0.6496 -0.3972
 2268SOL    HW1 7194   2.774   2.026   1.786 -0.7325 -0.6386  0.7479
 2268SOL    HW2 7195   2.666   2.025   1.680  0.7645 -0.7598 -0.8238
 2269SOL     OW 7196   4.859   0.507   3.179  0.0627 -0.3317  0.6098
 2269SOL    HW1 7197   4.889   0.593   3.151 -0.5411 -0.2910  0.0703
 2269SOL    HW2 7198   4.768   0.502   3.150 -0.5333 -0.3827  2.3719
 2270SOL     OW 7199   1.667   3.540   2.792 -0.0662 -0.5185 -0.2042
 2270SOL    HW1 7200   1.585   3.560   2.748  0.7401 -0.6466 -1.8421
 2270SOL    HW2 7201   1.716   3.623   2.790  0.2964 -0.7308 -0.2546
 2271SOL     OW 7202   2.463   2.717   6.690  0.1254 -0.5522  0.5931
 2271SOL    HW1 7203   2.427   2.739   6.604  1.2374  1.8853  0.6516
 2271SOL    HW2 7204   2.545   2.671   6.670 -0.4105 -1.4596  0.4099
 2272SOL     OW 7205   5.797   0.519   0.686  0.2103 -0.5295  0.1813
 2272SOL    HW1 7206   5.855   0.503   0.760  0.8919  0.3953 -0.1317
 2272SOL    HW2 7207   5.721   0.462   0.701  0.6412 -0.8372  1.2304
 2273SOL     OW 7208   6.088   2.217   3.991  0.7088 -0.0243  0.2055
 2273SOL    HW1 7209   6.025   2.217   3.919 -1.4241  2.6926  1.8558
 2273SOL    HW2 7210   6.058   2.147   4.049  0.9847 -0.6371 -0.3805
 2274SOL     OW 7211   4.095   1.408   2.041 -1.1853  0.1864 -0.0379
 2274SOL    HW1 7212   4.159   1.342   2.015 -1.3356 -0.7503  1.7770
 2274SOL    HW2 7213   4.045   1.426   1.961  0.3494 -0.1582 -1.1226
 2275SOL     OW 7214   6.326   6.034   5.255 -0.6529 -0.5735  0.1446
 2275SOL    HW1 7215   6.405   6.053   5.204 -0.8993 -1.6029 -0.6467
 2275SOL    HW2 7216   6.260   6.013   5.189 -1.5153 -0.0330  0.8154
 2276SOL     OW 7217   0.902   2.564   3.616 -0.1390  0.4095  0.4446
 2276SOL    HW1 7218   0.993   2.537   3.604 -0.6201 -1.4827  0.6987
 2276SOL    HW2 7219   0.908   2.648   3.662  1.4694  0.9998 -0.7632
 2277SOL     OW 7220   5.867   0.138   6.084 -0.3035  0.0759 -0.4288
 2277SOL    HW1 7221   5.920   0.064   6.055  1.8566  1.3064  0.2048
 2277SOL    HW2 7222   5.800   0.147   6.016  0.9905 -0.8257 -1.8928
 2278SOL     OW 7223   3.224   2.400   0.288 -0.3344 -0.1134 -0.2033
 2278SOL    HW1 7224   3.288   2.377   0.356  0.5841  0.0801 -0.9702
 2278SOL    HW2 7225   3.141   2.366   0.320  0.0932 -0.0962  0.9760
 2279SOL     OW 7226   4.443   3.622   0.409 -0.2738  0.0407 -0.0577
 2279SOL    HW1 7227   4.434   3.534   0.445 -0.8593  0.3795  0.6459
 2279SOL    HW2 7228   4.356   3.661   0.418  0.6884  1.8034  2.6275
 2280SOL     OW 7229   3.459   4.337   1.946 -0.1356 -0.7565 -0.5737
 2280SOL    HW1 7230   3.383   4.370   1.995  1.4075  1.4869  0.4799
 2280SOL    HW2 7231   3.463   4.244   1.969 -2.1765 -0.7933 -0.1595
 2281SOL     OW 7232   5.585   3.034   3.821 -0.5759  0.0551  0.2040
 2281SOL    HW1 7233   5.647   3.084   3.874  0.5474  0.9195 -1.8182
 2281SOL    HW2 7234   5.600   2.943   3.846  1.4810  0.2491 -0.1689
 2282SOL     OW 7235   3.446   2.008   1.330  0.1310 -0.1542 -0.0560
 2282SOL    HW1 7236   3.365   2.054   1.351 -0.3661 -1.0443  0.0483
 2282SOL    HW2 7237   3.485   1.987   1.416  0.5233  0.3487 -0.1063
 2283SOL     OW 7238   1.035   4.360   1.113 -0.1352  0.1113 -0.4126
 2283SOL    HW1 7239   1.040   4.314   1.197  0.4056 -0.7595 -0.9013
 2283SOL    HW2 7240   1.040   4.290   1.047 -0.0820  0.8133 -1.1684
 2284SOL     OW 7241   2.543   1.901   4.619 -0.1837  0.0356  0.1638
 2284SOL    HW1 7242   2.484   1.968   4.652 -0.6612 -0.4637  0.3318
 2284SOL    HW2 7243   2.509   1.879   4.533  0.3696  0.4911 -0.1744
 2285SOL     OW 7244   1.579   6.772   0.465 -0.1944  0.3685 -0.3156
 2285SOL    HW1 7245   1.576   6.786   0.560  0.4172  1.0122 -0.3732
 2285SOL    HW2 7246   1.662   6.725   0.451 -0.0878  0.6279 -0.5632
 2286SOL     OW 7247   6.096   1.602   3.635  0.0321  0.2087  0.2767
 2286SOL    HW1 7248   6.052   1.680   3.600 -1.2555  1.2546  3.7774
 2286SOL    HW2 7249   6.176   1.636   3.676  0.6425 -0.6917 -0.1341
 2287SOL     OW 7250   0.999   6.535   4.259 -0.2273  0.3924 -0.2618
 2287SOL    HW1 7251   1.021   6.628   4.254  0.2810  0.3042  0.1994
 2287SOL    HW2 7252   0.967   6.513   4.172  0.2952  0.8450 -0.5755
 2288SOL     OW 7253   5.087   0.171   1.943 -0.1862 -0.1124  0.0364
 2288SOL    HW1 7254   5.133   0.135   1.867  0.0068  0.0167  0.0893
 2288SOL    HW2 7255   5.102   0.266   1.937  1.1147 -0.2144  1.0398
 2289SOL     OW 7256   3.560   4.496   5.809  0.0140 -0.2671  0.1028
 2289SOL    HW1 7257   3.485   4.476   5.753 -0.0564 -0.6649  0.3326
 2289SOL    HW2 7258   3.613   4.557   5.758 -0.4816  0.0419 -0.0463
 2290SOL     OW 7259   0.404   0.465   2.610  0.8182  0.5243 -0.5468
 2290SOL    HW1 7260   0.477   0.452   2.669 -1.3421 -1.4324  1.9556
 2290SOL    HW2 7261   0.391   0.560   2.608  1.5191  0.7001  1.4401
 2291SOL     OW 7262   2.112   4.577   0.768  0.6720  0.0879  0.3298
 2291SOL    HW1 7263   2.102   4.652   0.827  1.0781 -0.1188  0.6753
 2291SOL    HW2 7264   2.024   4.542   0.758  0.0263  2.0825 -1.8514
 2292SOL     OW 7265   6.651   1.544   1.797 -0.3087  0.2797 -0.3565
 2292SOL    HW1 7266   6.689   1.457   1.807 -0.4644 -0.0493 -2.3626
 2292SOL    HW2 7267   6.557   1.528   1.783 -1.0120  0.9980  2.6308
 2293SOL     OW 7268   0.364   2.708   4.332 -0.1563  0.4707 -0.2483
 2293SOL    HW1 7269   0.416   2.635   4.299 -0.1471 -0.1946  1.1445
 2293SOL    HW2 7270   0.357   2.691   4.426 -0.5531  2.0184  0.0300
 2294SOL     OW 7271   0.253   0.291   2.032 -0.2632  0.2017  0.0319
 2294SOL    HW1 7272   0.326   0.337   1.991 -0.1717 -0.0212 -0.0609
 2294SOL    HW2 7273   0.292   0.211   2.068 -0.3668  0.3366  0.4454
 2295SOL     OW 7274   0.426   0.949   0.402  0.5082 -0.2359  0.4559
 2295SOL    HW1 7275   0.508   0.899   0.406  0.4070 -0.5502 -0.9538
 2295SOL    HW2 7276   0.449   1.036   0.435  2.0663  0.4833 -2.2108
 2296SOL     OW 7277   1.591   5.035   4.438  0.2324  0.1935 -0.1457
 2296SOL    HW1 7278   1.645   5.101   4.482  0.4937  0.1479 -0.3972
 2296SOL    HW2 7279   1.644   4.955   4.442  0.2420  0.1791 -0.5066
 2297SOL     OW 7280   4.535   6.553   2.895 -0.0580 -0.2164  0.1279
 2297SOL    HW1 7281   4.593   6.628   2.907 -0.3688  0.0370  0.0696
 2297SOL    HW2 7282   4.447   6.587   2.915 -0.3299 -0.3018 -0.8712
 2298SOL     OW 7283   2.973   1.359   3.421 -0.7830 -0.0934  0.1398
 2298SOL    HW1 7284   2.887   1.389   3.449 -2.2407 -3.2886 -0.3943
 2298SOL    HW2 7285   2.961   1.338   3.328  0.7571 -0.0229 -0.0938
 2299SOL     OW 7286   0.905   2.622   2.571 -0.6538  0.0700  0.0062
 2299SOL    HW1 7287   0.912   2.611   2.666 -1.1584  0.6913  0.1251
 2299SOL    HW2 7288   0.990   2.592   2.537 -0.8009 -1.0183  0.5585
 2300SOL     OW 7289   4.740   6.684   4.188 -0.1204 -0.1421 -0.0514
 2300SOL    HW1 7290   4.661   6.652   4.229  1.7896 -2.3511  2.1951
 2300SOL    HW2 7291   4.740   6.779   4.205 -1.1436 -0.4708  1.9845
 2301SOL     OW 7292   1.522   0.938   6.723 -0.0243 -0.5506  0.0645
 2301SOL    HW1 7293   1.545   0.903   6.637 -2.5898 -3.1340  0.2826
 2301SOL    HW2 7294   1.595   0.911   6.779  2.1037  1.8858 -1.3005
 2302SOL     OW 7295   6.562   2.917   5.529 -0.3218 -0.2645  0.6264
 2302SOL    HW1 7296   6.585   2.842   5.583 -1.3935 -0.3849  0.9370
 2302SOL    HW2 7297   6.643   2.969   5.523  0.4933 -1.5477  0.2080
 2303SOL     OW 7298   0.190   0.713   2.187 -0.5994  0.3159  0.4647
 2303SOL    HW1 7299   0.249   0.786   2.209 -0.3749  0.1021  0.5758
 2303SOL    HW2 7300   0.193   0.656   2.263  0.4440 -0.5905 -0.2343
 2304SOL     OW 7301   1.025   2.498   1.862 -0.3291  0.2085 -0.5007
 2304SOL    HW1 7302   0.963   2.427   1.875 -1.6491  1.3391 -0.4852
 2304SOL    HW2 7303   1.012   2.526   1.772  0.7441 -0.0625 -0.7578
 2305SOL     OW 7304   4.453   5.591   4.324 -0.2235  0.6703 -0.3697
 2305SOL    HW1 7305   4.410   5.522   4.376  0.1160  1.8521  1.5787
 2305SOL    HW2 7306   4.504   5.641   4.388  0.9150  1.7000 -2.0138
 2306SOL     OW 7307   3.283   1.756   1.740  0.1583 -0.1743 -0.5190
 2306SOL    HW1 7308   3.378   1.756   1.736  0.2142 -0.3524  0.4923
 2306SOL    HW2 7309   3.255   1.748   1.649  1.1093 -1.5021 -0.7326
 2307SOL     OW 7310   2.250   1.281   2.751 -0.1185 -0.2925 -0.2490
 2307SOL    HW1 7311   2.327   1.252   2.800  0.9097  1.7603 -0.5344
 2307SOL    HW2 7312   2.250   1.226   2.673  0.4676 -0.9978  0.2267
 2308SOL     OW 7313   1.421   5.168   4.667  0.6500  0.6162 -0.3596
 2308SOL    HW1 7314   1.408   5.147   4.574 -0.4342  0.8822 -0.2754
 2308SOL    HW2 7315   1.420   5.263   4.671  0.3740  0.6025 -0.0329
 2309SOL     OW 7316   1.980   1.008   4.410 -0.2576  0.2664 -0.3040
 2309SOL    HW1 7317   2.010   0.942   4.348  2.2934  0.9693  0.0588
 2309SOL    HW2 7318   1.896   1.038   4.375  0.2414 -0.6331 -2.4113
 2310SOL     OW 7319   2.374   3.983   5.461 -0.2140  0.4580 -0.0802
 2310SOL    HW1 7320   2.300   3.924   5.447  1.5444 -2.4534  1.6476
 2310SOL    HW2 7321   2.387   3.984   5.556  1.6141  1.2231 -0.2882
 2311SOL     OW 7322   0.380   5.375   4.922  0.0111 -0.0186  0.0594
 2311SOL    HW1 7323   0.427   5.377   4.838  0.0987 -1.0562  0.0750
 2311SOL    HW2 7324   0.409   5.294   4.964 -1.0959 -0.2205  0.4679
 2312SOL     OW 7325   3.567   1.720   5.018 -0.1673  0.3146  0.1185
 2312SOL    HW1 7326   3.493   1.778   5.034 -0.2612  0.0594  0.6607
 2312SOL    HW2 7327   3.551   1.645   5.076 -0.0288 -0.2307 -0.5367
 2313SOL     OW 7328   4.907   2.505   4.598  0.4479  0.3592  0.2937
 2313SOL    HW1 7329   4.960   2.527   4.674 -0.5841  0.3619  1.0249
 2313SOL    HW2 7330   4.880   2.589   4.562  0.4794  0.3511  0.2516
 2314SOL     OW 7331   0.564   1.044   2.574 -0.3886 -0.3830 -0.5926
 2314SOL    HW1 7332   0.511   1.057   2.652 -0.5147  1.0265 -0.8878
 2314SOL    HW2 7333   0.627   1.116   2.575 -0.1843 -0.5302 -1.6127
 2315SOL     OW 7334   2.598   0.128   4.175 -0.3408 -0.2679 -0.3188
 2315SOL    HW1 7335   2.607   0.203   4.117 -0.5705 -0.0307 -0.0478
 2315SOL    HW2 7336   2.670   0.137   4.238 -0.9358  0.2438  0.2934
 2316SOL     OW 7337   4.887   1.414   5.794 -0.7066 -0.5341  0.8007
 2316SOL    HW1 7338   4.859   1.330   5.759  0.3061 -0.8429  0.6907
 2316SOL    HW2 7339   4.960   1.440   5.738 -0.5007  0.0386  1.3198
 2317SOL     OW 7340   6.689   6.204   1.732  0.7154 -0.2145 -0.2161
 2317SOL    HW1 7341   6.715   6.215   1.640  1.2111  2.5312  0.1774
 2317SOL    HW2 7342   6.665   6.111   1.739  3.1064 -1.1275 -2.4777
 2318SOL     OW 7343   4.881   5.320   2.543 -0.0424  0.6816  0.2992
 2318SOL    HW1 7344   4.892   5.411   2.515  1.4682  0.4777  0.1562
 2318SOL    HW2 7345   4.934   5.269   2.482 -1.2374 -0.3683  0.0811
 2319SOL     OW 7346   6.604   0.046   5.474  0.0744  0.3431 -0.2425
 2319SOL    HW1 7347   6.654   0.102   5.533 -0.4634  0.8904 -0.2997
 2319SOL    HW2 7348   6.556  -0.013   5.532  0.4175  0.1297 -0.1729
 2320SOL     OW 7349   1.860   6.437   6.197  0.0185  0.4236  0.0519
 2320SOL    HW1 7350   1.954   6.435   6.212  0.4116 -1.0938 -2.2232
 2320SOL    HW2 7351   1.848   6.501   6.127 -0.8292  1.4661  1.0949
 2321SOL     OW 7352   2.195   3.700   3.872 -0.3368 -0.6727 -0.2299
 2321SOL    HW1 7353   2.237   3.621   3.908  1.6478 -0.0470 -1.0014
 2321SOL    HW2 7354   2.121   3.667   3.822  0.2780 -2.0362 -0.2871
 2322SOL     OW 7355   4.151   1.469   1.077  0.2866 -0.7149 -0.2080
 2322SOL    HW1 7356   4.199   1.392   1.107 -0.1851 -0.6705  0.6844
 2322SOL    HW2 7357   4.219   1.529   1.046  0.6078 -1.8270 -1.7619
 2323SOL     OW 7358   6.196   2.416   0.989 -0.0802 -0.2375  0.0462
 2323SOL    HW1 7359   6.191   2.344   1.051 -0.7200 -0.4247 -0.2152
 2323SOL    HW2 7360   6.115   2.411   0.939  0.2950  0.0778 -0.6189
 2324SOL     OW 7361   5.713   1.050   0.963  0.5645 -0.3451  0.7555
 2324SOL    HW1 7362   5.634   1.022   0.916  0.9860 -0.9428  0.3796
 2324SOL    HW2 7363   5.693   1.032   1.055 -0.0153  0.2028  0.7410
 2325SOL     OW 7364   6.582   3.488   6.065  0.5101  0.7420 -0.0629
 2325SOL    HW1 7365   6.619   3.458   6.148 -1.1669 -0.3099  0.3474
 2325SOL    HW2 7366   6.648   3.465   6.000  1.1679  0.1700  0.7828
 2326SOL     OW 7367   2.491   0.381   4.953 -0.5624  0.3331 -0.8065
 2326SOL    HW1 7368   2.495   0.307   5.012 -1.0643 -1.1571 -2.5350
 2326SOL    HW2 7369   2.476   0.457   5.009  1.7680 -0.5709  1.1952
 2327SOL     OW 7370   0.777   5.561   2.512  0.2162  0.1033  0.2997
 2327SOL    HW1 7371   0.816   5.508   2.442  0.9553 -0.4085  1.0903
 2327SOL    HW2 7372   0.683   5.543   2.505  0.3105 -0.1507 -0.3843
 2328SOL     OW 7373   3.915   3.087   1.606  0.1814  0.3331 -0.2698
 2328SOL    HW1 7374   3.876   3.137   1.678 -0.1653 -0.2338 -0.0623
 2328SOL    HW2 7375   4.004   3.068   1.636  0.1232  0.3231 -0.0998
 2329SOL     OW 7376   4.747   1.741   6.584  0.3324 -0.0577 -0.5952
 2329SOL    HW1 7377   4.741   1.703   6.672  2.2317  1.5742  0.2971
 2329SOL    HW2 7378   4.656   1.740   6.552 -0.3115 -1.2530  1.0972
 2330SOL     OW 7379   4.551   3.264   6.559  0.1059 -0.2182 -0.6390
 2330SOL    HW1 7380   4.618   3.332   6.555 -0.1388  0.0922  0.1094
 2330SOL    HW2 7381   4.585   3.192   6.508  0.7664  0.1408 -0.7113
 2331SOL     OW 7382   5.133   3.614   6.193 -0.3587  0.9389 -0.1069
 2331SOL    HW1 7383   5.186   3.537   6.215 -1.0855  0.6904  0.8487
 2331SOL    HW2 7384   5.054   3.578   6.153 -0.3788  1.2294 -0.3283
 2332SOL     OW 7385   0.787   3.873   4.781 -0.1212 -0.7566 -0.2069
 2332SOL    HW1 7386   0.710   3.822   4.757 -0.1192 -1.1741  0.6623
 2332SOL    HW2 7387   0.814   3.915   4.699 -0.3109 -1.8822 -0.8631
 2333SOL     OW 7388   0.999   1.872   5.503  0.1896 -0.0929  0.2862
 2333SOL    HW1 7389   0.947   1.801   5.542  0.1570 -0.0199  0.3745
 2333SOL    HW2 7390   1.081   1.829   5.477  0.3713 -0.0608  0.7926
 2334SOL     OW 7391   3.947   0.229   4.808 -0.1422  0.5184 -0.9912
 2334SOL    HW1 7392   3.906   0.169   4.870 -1.1255  1.4545 -0.7146
 2334SOL    HW2 7393   4.039   0.202   4.806 -0.3318 -0.2512 -0.0008
 2335SOL     OW 7394   1.510   5.404   4.230 -0.3265 -0.1355 -0.3499
 2335SOL    HW1 7395   1.558   5.368   4.156  0.0486  2.1555 -1.2808
 2335SOL    HW2 7396   1.445   5.337   4.251  0.3450 -1.3477 -1.9524
 2336SOL     OW 7397   5.848   3.869   6.750  0.2205 -0.0029  0.2769
 2336SOL    HW1 7398   5.925   3.921   6.726  0.1378 -0.2450 -0.5165
 2336SOL    HW2 7399   5.793   3.869   6.672 -0.4427 -0.0951  0.7397
 2337SOL     OW 7400   6.390   4.597   3.279  0.0946 -0.1913 -0.5160
 2337SOL    HW1 7401   6.462   4.546   3.243  0.3418 -0.0385 -0.2449
 2337SOL    HW2 7402   6.432   4.657   3.341 -0.2825 -0.2041 -0.2464
 2338SOL     OW 7403   0.145   5.826   1.175 -0.2843  0.0417 -0.2413
 2338SOL    HW1 7404   0.201   5.748   1.182 -0.3484  0.0123 -0.0532
 2338SOL    HW2 7405   0.202   5.893   1.138  0.2879  0.4236  1.2693
 2339SOL     OW 7406   5.214   1.467   3.544 -0.2418 -0.3682  0.3799
 2339SOL    HW1 7407   5.278   1.512   3.599  2.3439  0.8448 -3.1935
 2339SOL    HW2 7408   5.165   1.538   3.502 -1.2140 -1.1857  0.0965
 2340SOL     OW 7409   2.952   0.995   0.524  0.3383 -0.3710 -0.2539
 2340SOL    HW1 7410   2.923   1.058   0.590  1.8077 -2.2007  2.3677
 2340SOL    HW2 7411   2.874   0.976   0.473 -1.0891  0.6685  1.4182
 2341SOL     OW 7412   2.899   5.917   5.783  0.3844  0.6842 -0.6364
 2341SOL    HW1 7413   2.866   5.999   5.821 -2.4215 -0.0111 -1.3771
 2341SOL    HW2 7414   2.936   5.870   5.858 -1.4995  1.0189  0.5793
 2342SOL     OW 7415   1.642   2.026   4.558  0.0027 -0.2104 -0.0112
 2342SOL    HW1 7416   1.607   2.092   4.499 -0.0495 -0.9354 -0.8116
 2342SOL    HW2 7417   1.648   2.070   4.643 -0.5137  0.6597 -0.4146
 2343SOL     OW 7418   5.208   2.942   0.192 -0.8922  0.4358  0.2583
 2343SOL    HW1 7419   5.293   2.982   0.212 -0.8332  0.1767  0.5384
 2343SOL    HW2 7420   5.212   2.855   0.233 -0.5697 -0.3397 -1.3226
 2344SOL     OW 7421   5.441   2.759   4.853 -0.4053 -0.1377  0.1780
 2344SOL    HW1 7422   5.525   2.804   4.848 -0.3471 -0.0540  1.5847
 2344SOL    HW2 7423   5.460   2.670   4.823  0.4592 -0.4408  1.5183
 2345SOL     OW 7424   2.065   1.001   0.199  0.7683 -0.5702  0.3006
 2345SOL    HW1 7425   2.008   1.030   0.128  1.1518  0.4307  0.3827
 2345SOL    HW2 7426   2.022   0.924   0.235 -0.7655  0.3952  0.6274
 2346SOL     OW 7427   3.349   5.037   3.172 -0.1978  0.0359 -0.1285
 2346SOL    HW1 7428   3.311   4.949   3.177 -0.9184  0.2868 -0.9904
 2346SOL    HW2 7429   3.298   5.089   3.234  1.5491 -0.5713  1.9625
 2347SOL     OW 7430   4.617   1.844   5.974 -0.0946 -0.2252 -0.6039
 2347SOL    HW1 7431   4.640   1.770   5.918  2.2355  1.2621 -1.7932
 2347SOL    HW2 7432   4.677   1.839   6.048  1.7294  1.6194 -1.8361
 2348SOL     OW 7433   0.292   4.517   0.444  0.0884 -0.4919 -0.1767
 2348SOL    HW1 7434   0.271   4.492   0.535 -0.1149  1.9146  0.5129
 2348SOL    HW2 7435   0.226   4.471   0.392 -0.5602 -0.9788  1.0083
 2349SOL     OW 7436   4.560   3.580   5.478 -0.1372 -0.2147 -0.3060
 2349SOL    HW1 7437   4.552   3.577   5.573  0.8812 -1.1024 -0.2305
 2349SOL    HW2 7438   4.590   3.493   5.453  0.2028  0.1887 -1.3803
 2350SOL     OW 7439   4.879   6.366   5.878 -0.2282 -0.7518 -0.3536
 2350SOL    HW1 7440   4.951   6.426   5.856  0.3827 -1.3681 -0.0330
 2350SOL    HW2 7441   4.808   6.393   5.819  0.7995 -1.2135 -1.8492
 2351SOL     OW 7442   0.735   1.858   6.182  0.2137 -0.3741  0.0942
 2351SOL    HW1 7443   0.827   1.834   6.196 -0.1641 -1.9951  0.0288
 2351SOL    HW2 7444   0.693   1.776   6.156 -1.0031  0.6000 -1.1772
 2352SOL     OW 7445   3.384   6.000   0.446 -0.4715 -0.5092  0.0103
 2352SOL    HW1 7446   3.350   6.055   0.375  1.3748  1.4497  0.5172
 2352SOL    HW2 7447   3.330   6.022   0.521 -0.3652 -0.1034 -0.0288
 2353SOL     OW 7448   4.162   6.770   2.779 -0.1245 -0.1145  0.3062
 2353SOL    HW1 7449   4.139   6.701   2.841  0.2025  0.1084  0.6815
 2353SOL    HW2 7450   4.080   6.816   2.763 -0.3831 -0.6999 -0.0913
 2354SOL     OW 7451   3.451   0.805   4.305 -0.5239  0.2179  0.8685
 2354SOL    HW1 7452   3.467   0.767   4.218  0.2877 -2.4133  2.0546
 2354SOL    HW2 7453   3.442   0.899   4.289 -1.3588 -0.2700 -2.1529
 2355SOL     OW 7454   4.612   0.165   4.708 -0.2053  0.0439  0.2820
 2355SOL    HW1 7455   4.645   0.112   4.780  0.3406 -0.7859 -0.5456
 2355SOL    HW2 7456   4.651   0.125   4.630  1.5462  2.5979 -0.2895
 2356SOL     OW 7457   1.349   4.513   6.155 -0.2870  0.4586 -0.2762
 2356SOL    HW1 7458   1.381   4.600   6.129 -0.9992  0.4533 -1.2338
 2356SOL    HW2 7459   1.281   4.493   6.091 -0.5270 -0.5657  0.2838
 2357SOL     OW 7460   3.501   6.495   2.323 -0.0408  0.6828  0.1787
 2357SOL    HW1 7461   3.449   6.437   2.267 -0.8768  1.7486 -0.1709
 2357SOL    HW2 7462   3.465   6.582   2.308 -0.6002  0.9744  2.7046
 2358SOL     OW 7463   0.535   6.058   6.815  0.4861  0.2629 -0.1177
 2358SOL    HW1 7464   0.544   5.979   6.762 -0.1393 -0.7010  1.1814
 2358SOL    HW2 7465   0.523   6.128   6.751  0.5583 -0.7502 -1.2724
 2359SOL     OW 7466   3.881   1.040   4.579  0.4321 -0.1189  0.2276
 2359SOL    HW1 7467   3.803   1.053   4.527  1.6148  1.5041 -1.2498
 2359SOL    HW2 7468   3.930   1.122   4.571  1.7027 -0.6153  2.1313
 2360SOL     OW 7469   2.899   0.690   5.840 -0.6326 -0.2207 -0.2520
 2360SOL    HW1 7470   2.822   0.709   5.786 -0.4364 -0.2940 -0.5591
 2360SOL    HW2 7471   2.971   0.733   5.795 -0.3261 -0.9760 -0.5028
 2361SOL     OW 7472   5.881   2.019   4.292 -0.3477 -0.1956 -0.2603
 2361SOL    HW1 7473   5.832   2.069   4.227 -0.0070  0.2613 -0.1685
 2361SOL    HW2 7474   5.818   2.005   4.363 -0.6377 -0.4587 -0.5663
 2362SOL     OW 7475   5.784   0.764   4.510 -0.0856  0.3880  0.2429
 2362SOL    HW1 7476   5.738   0.727   4.585 -0.7433 -1.8215 -1.1200
 2362SOL    HW2 7477   5.877   0.760   4.534 -0.3600  1.2775  1.5381
 2363SOL     OW 7478   3.451   4.970   4.730 -0.6044 -1.2603 -0.1114
 2363SOL    HW1 7479   3.535   5.015   4.734  0.1114 -2.2784 -2.2941
 2363SOL    HW2 7480   3.387   5.040   4.713  0.1080 -0.7420 -0.6965
 2364SOL     OW 7481   0.708   6.227   5.657  0.0140  0.4711 -0.0369
 2364SOL    HW1 7482   0.703   6.226   5.752 -0.5873 -0.5655 -0.0583
 2364SOL    HW2 7483   0.731   6.137   5.634  1.0760  0.9231 -0.8434
 2365SOL     OW 7484   5.307   2.084   0.572  0.5502  0.1602  0.0200
 2365SOL    HW1 7485   5.265   2.164   0.540  1.2199  0.7721  0.6358
 2365SOL    HW2 7486   5.238   2.038   0.620  0.1849  0.4198 -0.2547
 2366SOL     OW 7487   1.966   2.547   2.198 -0.1573  0.0810 -0.6398
 2366SOL    HW1 7488   1.949   2.579   2.287  2.7403  2.1940 -0.7029
 2366SOL    HW2 7489   2.012   2.464   2.212 -0.0227  0.2295 -0.1603
 2367SOL     OW 7490   1.143   6.432   0.439  0.0854  0.0916  0.0142
 2367SOL    HW1 7491   1.204   6.381   0.385 -0.3341  2.3147 -2.7915
 2367SOL    HW2 7492   1.199   6.488   0.493  0.5465  0.3654 -0.7374
 2368SOL     OW 7493   3.917   3.543   6.443 -0.2136 -0.1559  0.8904
 2368SOL    HW1 7494   3.887   3.617   6.391  0.8217  0.3082  0.9179
 2368SOL    HW2 7495   3.948   3.479   6.379  1.8681  0.7678  0.8958
 2369SOL     OW 7496   5.970   1.284   2.526  0.2344  0.2361  0.3244
 2369SOL    HW1 7497   5.901   1.327   2.576  0.2480 -1.0505  1.4836
 2369SOL    HW2 7498   5.932   1.200   2.500  1.2616 -0.3878  0.7753
 2370SOL     OW 7499   2.091   2.838   2.965  0.2664 -0.0289 -0.1479
 2370SOL    HW1 7500   2.155   2.768   2.979 -0.6980 -1.0044 -0.4300
 2370SOL    HW2 7501   2.087   2.847   2.870 -0.1733 -0.1255 -0.1377
 2371SOL     OW 7502   1.983   5.320   0.586  0.1499  0.0605 -0.1803
 2371SOL    HW1 7503   2.042   5.337   0.512  0.6000 -1.8793 -0.3211
 2371SOL    HW2 7504   1.898   5.352   0.557  0.1964 -1.1796 -1.8048
 2372SOL     OW 7505   6.355   2.618   6.744  0.5360 -0.0175  0.6080
 2372SOL    HW1 7506   6.363   2.561   6.667  2.8094 -0.1464  0.8606
 2372SOL    HW2 7507   6.271   2.663   6.733 -0.5398 -2.1630 -0.4469
 2373SOL     OW 7508   2.121   1.912   3.608  0.2067  0.6154 -0.1101
 2373SOL    HW1 7509   2.154   2.000   3.594  3.1483 -0.3136  0.2032
 2373SOL    HW2 7510   2.026   1.922   3.613  0.4039  3.6478 -0.6046
 2374SOL     OW 7511   2.959   0.281   1.533  0.0178  0.5283 -0.1622
 2374SOL    HW1 7512   3.025   0.349   1.546  0.4657  0.2052 -0.6697
 2374SOL    HW2 7513   2.876   0.328   1.528  0.2310  0.9585  0.3166
 2375SOL     OW 7514   4.537   0.269   1.488 -0.1504 -0.1921 -0.5556
 2375SOL    HW1 7515   4.458   0.276   1.542  0.8683  2.1294  0.7561
 2375SOL    HW2 7516   4.525   0.188   1.439 -2.4460 -0.9079  1.0355
 2376SOL     OW 7517   3.966   4.314   3.748 -0.3754 -0.5273 -0.6229
 2376SOL    HW1 7518   3.967   4.229   3.704 -0.6194 -1.0105  0.2779
 2376SOL    HW2 7519   3.874   4.330   3.768 -0.7728  1.4100 -3.4739
 2377SOL     OW 7520   4.662   3.178   5.021  0.0749  0.0539 -0.0357
 2377SOL    HW1 7521   4.697   3.217   5.101  0.7752  0.0021 -0.3066
 2377SOL    HW2 7522   4.593   3.119   5.051 -1.3343  1.8312  0.3458
 2378SOL     OW 7523   3.939   0.934   1.193  0.0316 -0.5183 -0.5044
 2378SOL    HW1 7524   3.929   0.998   1.123  1.1680  0.5779  0.2793
 2378SOL    HW2 7525   3.862   0.947   1.249 -0.2832 -0.5920 -0.9154
 2379SOL     OW 7526   5.215   6.148   2.896 -0.5371 -0.4836 -0.2015
 2379SOL    HW1 7527   5.140   6.095   2.923  0.0881 -0.6658  1.2873
 2379SOL    HW2 7528   5.291   6.101   2.931  0.1144  0.7191  0.0543
 2380SOL     OW 7529   6.801   1.695   0.295  0.1030 -0.2438  0.5803
 2380SOL    HW1 7530   6.816   1.603   0.275  0.7840  0.2289 -1.2933
 2380SOL    HW2 7531   6.879   1.722   0.345  0.5442 -0.3712 -0.0261
 2381SOL     OW 7532   0.683   3.781   1.544  0.0668  0.0884 -0.2152
 2381SOL    HW1 7533   0.745   3.711   1.524 -0.6479 -1.1858  1.7198
 2381SOL    HW2 7534   0.650   3.759   1.632 -2.5230  1.1283 -0.8485
 2382SOL     OW 7535   5.319   5.584   1.591  0.0573 -0.3612 -0.4020
 2382SOL    HW1 7536   5.331   5.581   1.686 -0.3737  2.3547 -0.1635
 2382SOL    HW2 7537   5.407   5.602   1.557  0.0817 -0.5567 -0.4414
 2383SOL     OW 7538   3.891   3.539   1.840  0.3119 -0.2522 -0.3604
 2383SOL    HW1 7539   3.876   3.538   1.934 -1.4229 -0.8846 -0.6257
 2383SOL    HW2 7540   3.979   3.501   1.830  0.5983 -0.0140  0.9893
 2384SOL     OW 7541   3.770   0.931   3.665  0.6807 -0.2651  0.0737
 2384SOL    HW1 7542   3.727   1.008   3.701  0.8571  0.0217 -0.3307
 2384SOL    HW2 7543   3.772   0.945   3.571  2.0217 -0.0857  0.1065
 2385SOL     OW 7544   0.602   6.073   4.414 -0.3203 -0.3172  0.2699
 2385SOL    HW1 7545   0.593   6.150   4.357 -1.0434 -0.6431 -0.0691
 2385SOL    HW2 7546   0.546   6.007   4.374  1.4250 -1.5463 -0.2923
 2386SOL     OW 7547   5.588   1.043   5.854 -0.0301 -0.1290  0.4231
 2386SOL    HW1 7548   5.642   0.968   5.882  3.1053  1.5323 -0.6353
 2386SOL    HW2 7549   5.622   1.117   5.906 -0.0769  1.3122 -1.4897
 2387SOL     OW 7550   6.702   0.367   2.978 -0.9705 -0.3128  0.0072
 2387SOL    HW1 7551   6.623   0.335   2.934  0.2610 -0.4417 -2.2667
 2387SOL    HW2 7552   6.742   0.288   3.015 -1.6124 -0.3185  0.7181
 2388SOL     OW 7553   6.492   5.832   5.126  0.2617  0.4011  0.0146
 2388SOL    HW1 7554   6.577   5.788   5.123 -0.3533 -0.7663 -2.1464
 2388SOL    HW2 7555   6.428   5.762   5.114 -1.1239  1.1399  2.3985
 2389SOL     OW 7556   2.764   1.528   5.774  0.0410 -0.3699  0.5883
 2389SOL    HW1 7557   2.672   1.554   5.773  0.2585  0.6527 -1.8985
 2389SOL    HW2 7558   2.762   1.432   5.769 -0.9117 -0.3357 -0.0446
 2390SOL     OW 7559   3.249   5.158   4.034 -0.1804  0.1016 -0.3573
 2390SOL    HW1 7560   3.242   5.084   4.095  1.0612 -0.2210 -0.5795
 2390SOL    HW2 7561   3.158   5.185   4.019 -0.6129 -0.9274  0.2732
 2391SOL     OW 7562   0.771   1.867   1.194  0.6146  0.2964  0.4344
 2391SOL    HW1 7563   0.791   1.818   1.274  0.9796 -0.8295 -0.3255
 2391SOL    HW2 7564   0.810   1.816   1.123 -0.0554  1.0539 -0.5203
 2392SOL     OW 7565   0.310   5.470   2.585  0.0781  0.0168 -0.4016
 2392SOL    HW1 7566   0.229   5.518   2.572 -0.5397 -0.1481  2.2047
 2392SOL    HW2 7567   0.371   5.534   2.621 -0.5019 -0.7957  2.3194
 2393SOL     OW 7568   0.500   5.792   5.490  0.4583  0.0631  0.2564
 2393SOL    HW1 7569   0.575   5.851   5.494 -1.0027  2.0309  0.5789
 2393SOL    HW2 7570   0.456   5.804   5.574 -1.4670  0.7716 -0.7894
 2394SOL     OW 7571   0.342   3.506   1.659 -0.6407 -0.0477 -0.4358
 2394SOL    HW1 7572   0.297   3.482   1.740  0.6118  0.2674  0.3835
 2394SOL    HW2 7573   0.280   3.485   1.589 -0.8846 -2.5984  0.4343
 2395SOL     OW 7574   0.369   6.451   5.710  0.1544 -0.2515 -0.2160
 2395SOL    HW1 7575   0.459   6.426   5.732  0.6762 -0.3010 -2.2356
 2395SOL    HW2 7576   0.318   6.430   5.788  1.8432 -0.4973  0.8542
 2396SOL     OW 7577   4.436   3.065   5.202  0.7009 -0.0027 -0.1288
 2396SOL    HW1 7578   4.368   3.027   5.257  0.6342  0.0340 -0.1855
 2396SOL    HW2 7579   4.399   3.065   5.114  0.0250  1.7227  0.1174
 2397SOL     OW 7580   2.001   5.873   1.000  0.6787  0.0646  0.1207
 2397SOL    HW1 7581   2.020   5.908   0.913  1.0505  1.0622  0.5968
 2397SOL    HW2 7582   2.050   5.791   1.003  1.6384  0.6187 -0.1670
 2398SOL     OW 7583   6.803   3.202   2.842  0.3336  0.2920  0.3902
 2398SOL    HW1 7584   6.737   3.134   2.830 -1.5793  2.1262 -0.2243
 2398SOL    HW2 7585   6.793   3.230   2.933 -1.0920  1.8176 -0.1936
 2399SOL     OW 7586   0.238   6.791   1.028 -0.4279  0.2191  0.4664
 2399SOL    HW1 7587   0.231   6.764   0.937  0.1369  2.7069 -0.3843
 2399SOL    HW2 7588   0.226   6.886   1.027 -0.3241  0.3470  2.9817
 2400SOL     OW 7589   0.842   1.241   2.030  0.0048  0.1471 -0.0840
 2400SOL    HW1 7590   0.809   1.275   1.947  0.8735  2.7170  0.5210
 2400SOL    HW2 7591   0.903   1.308   2.060  0.1695 -0.9997  2.3457
 2401SOL     OW 7592   4.199   2.708   6.809 -0.4656  0.3691  0.2038
 2401SOL    HW1 7593   4.136   2.727   6.879 -0.2751 -0.0627  0.5005
 2401SOL    HW2 7594   4.145   2.672   6.739 -0.7504  1.4476 -0.1483
 2402SOL     OW 7595   5.006   2.338   3.390 -0.4447 -0.0926 -0.2906
 2402SOL    HW1 7596   5.085   2.386   3.418 -0.8792  0.6291 -0.2806
 2402SOL    HW2 7597   4.981   2.287   3.467  0.6753 -1.2645 -0.6490
 2403SOL     OW 7598   1.389   5.069   1.157  0.0323 -0.0198 -0.0842
 2403SOL    HW1 7599   1.313   5.040   1.106  0.5363 -0.5934 -0.5238
 2403SOL    HW2 7600   1.416   4.991   1.206  0.6197  0.0576 -0.2838
 2404SOL     OW 7601   5.055   3.397   6.002 -0.3134  0.0520 -0.4360
 2404SOL    HW1 7602   5.097   3.322   6.046 -1.0250 -0.5626 -0.7823
 2404SOL    HW2 7603   5.058   3.375   5.909  1.9751  1.7442 -0.8787
 2405SOL     OW 7604   4.721   1.321   3.647  0.5870  0.5854  0.1533
 2405SOL    HW1 7605   4.802   1.326   3.595  0.6405 -0.3071  0.1410
 2405SOL    HW2 7606   4.737   1.378   3.722  0.7992  1.2953 -0.4136
 2406SOL     OW 7607   4.180   4.448   1.645  0.4393  0.1152 -0.1313
 2406SOL    HW1 7608   4.203   4.522   1.702  4.0880 -0.2625 -0.8496
 2406SOL    HW2 7609   4.200   4.478   1.557  0.5903 -1.2353 -0.5793
 2407SOL     OW 7610   3.532   0.286   5.945 -0.0201  0.5544  0.6481
 2407SOL    HW1 7611   3.539   0.197   5.979  2.3616  0.5240  0.2373
 2407SOL    HW2 7612   3.603   0.334   5.989 -1.2962  2.2889  0.9164
 2408SOL     OW 7613   0.379   6.592   5.080 -0.4417  0.4316 -0.4545
 2408SOL    HW1 7614   0.470   6.580   5.104 -0.2776  2.3210 -0.0209
 2408SOL    HW2 7615   0.358   6.681   5.105 -3.2700 -0.7782  2.1559
 2409SOL     OW 7616   5.004   4.500   6.498 -0.0301 -0.1255 -0.3392
 2409SOL    HW1 7617   4.946   4.439   6.453 -0.3116 -0.8921  1.0122
 2409SOL    HW2 7618   5.085   4.451   6.512  0.0203  0.0612  0.0538
 2410SOL     OW 7619   4.400   1.744   1.708  0.3132  0.7624 -0.3907
 2410SOL    HW1 7620   4.487   1.711   1.731  0.0545 -0.1283 -0.6557
 2410SOL    HW2 7621   4.341   1.673   1.731 -0.3680  1.4041 -0.1145
 2411SOL     OW 7622   4.245   3.053   4.149 -0.0003  0.0535  0.0766
 2411SOL    HW1 7623   4.263   3.124   4.210 -0.3819  1.4634 -1.3794
 2411SOL    HW2 7624   4.165   3.080   4.104  0.7738 -0.4624 -1.7020
 2412SOL     OW 7625   4.963   0.165   0.926  0.1174 -0.1659 -0.2117
 2412SOL    HW1 7626   4.876   0.139   0.895 -0.3260  1.5892 -0.5412
 2412SOL    HW2 7627   4.963   0.260   0.920  1.1234  0.0694  2.3013
 2413SOL     OW 7628   4.054   2.439   0.577  0.1396  0.3861  0.3109
 2413SOL    HW1 7629   4.062   2.406   0.487 -1.7445 -0.0269  0.2541
 2413SOL    HW2 7630   4.134   2.491   0.591  0.5601  0.2979 -1.5234
 2414SOL     OW 7631   6.076   1.850   1.921 -0.5560  0.0359 -0.2088
 2414SOL    HW1 7632   6.074   1.944   1.941 -0.7786  0.1983 -0.9392
 2414SOL    HW2 7633   6.041   1.808   1.999  1.2793  0.4164  0.8696
 2415SOL     OW 7634   5.515   3.859   4.080  0.3985 -0.1445  0.1912
 2415SOL    HW1 7635   5.473   3.939   4.111 -0.3539 -0.7895  0.9061
 2415SOL    HW2 7636   5.499   3.858   3.986 -1.8453 -0.7175  0.5368
 2416SOL     OW 7637   1.539   4.903   0.883 -0.6926 -0.3032 -1.5099
 2416SOL    HW1 7638   1.527   4.829   0.942 -1.2934  0.3511 -0.7804
 2416SOL    HW2 7639   1.628   4.934   0.901 -1.5625  1.1967  0.6650
 2417SOL     OW 7640   2.066   4.991   3.229  0.6335 -0.9235 -0.2571
 2417SOL    HW1 7641   2.000   5.057   3.209  1.3195  0.0782  0.6740
 2417SOL    HW2 7642   2.072   4.939   3.149  1.9496  1.7504 -2.0518
 2418SOL     OW 7643   5.713   4.055   5.425  0.4083 -0.4260 -0.5371
 2418SOL    HW1 7644   5.710   4.013   5.339  1.7714 -0.8879 -0.3908
 2418SOL    HW2 7645   5.785   4.010   5.471 -0.6677 -0.6010  1.0706
 2419SOL     OW 7646   3.093   2.647   6.788 -0.2273 -0.1375  0.4306
 2419SOL    HW1 7647   3.131   2.711   6.728 -1.6371  1.9640  1.6359
 2419SOL    HW2 7648   3.003   2.636   6.757 -0.2502 -0.8877  0.7460
 2420SOL     OW 7649   0.659   0.065   5.203 -0.7059 -0.0730  0.1300
 2420SOL    HW1 7650   0.653   0.016   5.121  1.1440  0.5476 -0.4306
 2420SOL    HW2 7651   0.745   0.043   5.238 -0.7436  1.0501  0.9884
 2421SOL     OW 7652   0.916   1.829   5.004 -0.0358  1.0550 -0.1147
 2421SOL    HW1 7653   0.915   1.869   5.091 -1.5409 -1.0329  0.9016
 2421SOL    HW2 7654   0.824   1.814   4.983  0.3693  0.1834 -1.4344
 2422SOL     OW 7655   4.126   0.336   0.150 -0.6478  0.1799 -1.1026
 2422SOL    HW1 7656   4.188   0.268   0.126  0.9365  1.5114 -0.9327
 2422SOL    HW2 7657   4.101   0.315   0.240  0.3581  0.1937 -0.8125
 2423SOL     OW 7658   4.660   5.578   2.393  0.1428 -0.1374  0.4145
 2423SOL    HW1 7659   4.660   5.641   2.466 -0.8840 -0.9470  1.1351
 2423SOL    HW2 7660   4.753   5.559   2.378  0.4140  0.7465  0.8788
 2424SOL     OW 7661   4.707   6.579   0.535  0.5998  0.0484  0.1309
 2424SOL    HW1 7662   4.622   6.602   0.496  0.0778 -1.2995  0.4084
 2424SOL    HW2 7663   4.717   6.638   0.609 -0.8448 -0.7642  1.0203
 2425SOL     OW 7664   2.250   6.781   4.645 -0.1129 -0.1843  0.2859
 2425SOL    HW1 7665   2.333   6.735   4.656 -0.4794 -1.0852 -0.5595
 2425SOL    HW2 7666   2.193   6.717   4.602 -0.4227  1.2533 -1.6031
 2426SOL     OW 7667   4.358   6.751   5.529 -0.4577  0.0279 -0.8434
 2426SOL    HW1 7668   4.429   6.768   5.469 -1.2095  0.5534 -1.6042
 2426SOL    HW2 7669   4.354   6.656   5.535  1.7139 -0.0380  0.9507
 2427SOL     OW 7670   4.491   5.586   1.474  0.0497 -0.2396  0.5152
 2427SOL    HW1 7671   4.483   5.519   1.406 -0.8158  0.9700 -0.6143
 2427SOL    HW2 7672   4.421   5.566   1.536  0.0941 -0.6517  0.4366
 2428SOL     OW 7673   6.580   0.493   5.574 -0.2723 -0.1198 -0.3831
 2428SOL    HW1 7674   6.546   0.563   5.519 -0.1396  0.6286  0.4695
 2428SOL    HW2 7675   6.670   0.480   5.544 -0.3692 -0.0903 -0.6901
 2429SOL     OW 7676   4.606   5.733   1.245  0.0093 -0.5595  0.2539
 2429SOL    HW1 7677   4.587   5.825   1.266  2.1272  0.4801 -1.9215
 2429SOL    HW2 7678   4.614   5.690   1.330  1.2278  1.8071  1.4233
 2430SOL     OW 7679   2.625   0.899   2.772  0.5425 -0.2156  0.0408
 2430SOL    HW1 7680   2.573   0.880   2.850  0.6948  0.7867  0.4000
 2430SOL    HW2 7681   2.707   0.852   2.787  0.6533  0.1407  0.5848
 2431SOL     OW 7682   4.087   3.247   6.493  0.2703 -0.2796 -0.3181
 2431SOL    HW1 7683   4.091   3.303   6.416 -0.6724 -0.2185 -0.3386
 2431SOL    HW2 7684   4.118   3.301   6.565 -1.8354  0.7506 -0.0956
 2432SOL     OW 7685   0.538   3.124   4.680 -0.2718 -0.0129 -0.2995
 2432SOL    HW1 7686   0.457   3.147   4.634 -1.8855 -0.5136  2.1183
 2432SOL    HW2 7687   0.516   3.130   4.773  2.0883 -1.4904  0.4492
 2433SOL     OW 7688   6.037   4.108   6.222 -0.5873  0.5989  0.1070
 2433SOL    HW1 7689   5.951   4.077   6.193  0.3208 -1.6812 -0.3265
 2433SOL    HW2 7690   6.084   4.126   6.141 -0.1638  0.3961  0.3084
 2434SOL     OW 7691   5.752   5.151   3.184  0.0715 -0.3104 -0.0822
 2434SOL    HW1 7692   5.774   5.097   3.261 -1.0381 -0.4371  0.1540
 2434SOL    HW2 7693   5.659   5.135   3.169 -0.3853  1.7693  0.1846
 2435SOL     OW 7694   3.429   5.681   4.182  0.4692 -0.0398  0.0855
 2435SOL    HW1 7695   3.450   5.678   4.275  0.9671  4.0326  0.3191
 2435SOL    HW2 7696   3.512   5.661   4.138  0.6209 -0.4659  0.5612
 2436SOL     OW 7697   5.538   5.176   5.148  0.4524  0.8174 -0.4649
 2436SOL    HW1 7698   5.505   5.223   5.071 -1.7570  0.5541  0.2788
 2436SOL    HW2 7699   5.476   5.105   5.162  1.2040  0.4397  1.1832
 2437SOL     OW 7700   3.605   2.341   4.710  0.3664 -0.6114  0.3548
 2437SOL    HW1 7701   3.629   2.291   4.632  1.5568 -0.4577  0.5974
 2437SOL    HW2 7702   3.593   2.276   4.778  1.1072 -0.6373  0.4704
 2438SOL     OW 7703   5.432   5.759   3.251 -0.0617 -0.2054 -0.6175
 2438SOL    HW1 7704   5.474   5.834   3.293 -1.6922 -0.2503  1.2039
 2438SOL    HW2 7705   5.352   5.744   3.301 -0.5809 -2.1916 -1.9096
 2439SOL     OW 7706   0.104   6.623   3.992 -0.7076 -0.2556 -0.1793
 2439SOL    HW1 7707   0.012   6.601   3.976 -0.4809 -0.5896 -1.0816
 2439SOL    HW2 7708   0.146   6.540   4.012  0.0384 -0.6628 -3.0449
 2440SOL     OW 7709   5.716   0.628   0.231  0.5528  0.4888  0.2065
 2440SOL    HW1 7710   5.761   0.634   0.316  1.0103 -1.7400  0.1995
 2440SOL    HW2 7711   5.786   0.607   0.169 -0.1339 -0.5336 -0.2407
 2441SOL     OW 7712   1.549   0.348   5.181 -0.2436  0.0823 -0.8988
 2441SOL    HW1 7713   1.592   0.303   5.254  1.8279  0.7279 -1.6696
 2441SOL    HW2 7714   1.489   0.283   5.145 -3.2590  0.4350  2.8098
 2442SOL     OW 7715   3.035   1.286   1.562  0.1167  0.6625 -0.1240
 2442SOL    HW1 7716   2.988   1.285   1.645 -0.5955 -0.7904 -0.4946
 2442SOL    HW2 7717   3.082   1.202   1.561 -0.0496  0.5697 -1.2570
 2443SOL     OW 7718   0.414   0.816   3.384  0.0672  0.1708  0.1098
 2443SOL    HW1 7719   0.349   0.754   3.416  0.0264  0.3434  0.3646
 2443SOL    HW2 7720   0.363   0.894   3.362 -0.2806 -0.7165 -2.6624
 2444SOL     OW 7721   3.484   3.537   5.311 -0.3853 -0.2960  0.3687
 2444SOL    HW1 7722   3.552   3.558   5.248  1.0743  1.2230  2.3251
 2444SOL    HW2 7723   3.492   3.443   5.326  1.9066 -0.0237  1.1696
 2445SOL     OW 7724   4.138   5.129   5.902  1.0701  0.5729 -0.2322
 2445SOL    HW1 7725   4.061   5.184   5.917  0.5648 -0.3615  0.7468
 2445SOL    HW2 7726   4.201   5.157   5.969  1.0234  0.3370 -0.0889
 2446SOL     OW 7727   0.709   3.009   1.394 -0.5413  0.1366 -0.0141
 2446SOL    HW1 7728   0.702   3.103   1.408 -1.1407  0.3605 -1.7012
 2446SOL    HW2 7729   0.623   2.975   1.417 -0.2314 -0.0649  0.9007
 2447SOL     OW 7730   4.669   5.647   0.322 -0.3091  0.0868 -0.0552
 2447SOL    HW1 7731   4.723   5.710   0.274  0.2945 -1.4277 -1.4661
 2447SOL    HW2 7732   4.633   5.590   0.254 -1.7979 -0.3714  1.0798
 2448SOL     OW 7733   6.501   4.364   0.634  0.1513 -0.1596 -0.0209
 2448SOL    HW1 7734   6.419   4.357   0.584  0.4503 -0.4688 -0.4714
 2448SOL    HW2 7735   6.482   4.319   0.716 -0.2765  0.1669  0.0675
 2449SOL     OW 7736   4.977   3.507   3.818 -0.3900  0.0845 -0.2312
 2449SOL    HW1 7737   4.901   3.457   3.787 -2.2353  1.0957  2.3180
 2449SOL    HW2 7738   5.052   3.449   3.803 -1.8438 -1.5815 -1.4646
 2450SOL     OW 7739   0.700   3.484   0.992  0.1072 -0.5052 -0.3591
 2450SOL    HW1 7740   0.683   3.570   1.031 -0.3208  0.9553 -3.3825
 2450SOL    HW2 7741   0.623   3.432   1.013  0.6193 -0.4020  2.0012
 2451SOL     OW 7742   2.997   1.847   6.524 -0.3443 -0.3239  0.0793
 2451SOL    HW1 7743   3.005   1.778   6.458  0.4387 -0.8238  0.6738
 2451SOL    HW2 7744   3.040   1.923   6.484  1.2934 -0.9972  0.4967
 2452SOL     OW 7745   5.998   1.191   6.253 -0.1481  1.0580 -0.5421
 2452SOL    HW1 7746   6.045   1.259   6.205 -0.1787 -0.2608 -2.5800
 2452SOL    HW2 7747   6.061   1.158   6.317  0.3764  1.9537 -0.5821
 2453SOL     OW 7748   3.243   4.293   3.916 -0.3811  0.1437  0.0025
 2453SOL    HW1 7749   3.189   4.296   3.837  1.9566 -2.0042 -1.8471
 2453SOL    HW2 7750   3.189   4.247   3.980 -1.3225 -0.6316 -1.2891
 2454SOL     OW 7751   5.540   1.515   4.992  0.0895 -0.4754  0.2817
 2454SOL    HW1 7752   5.502   1.502   4.905 -2.5270  0.0342  1.2308
 2454SOL    HW2 7753   5.563   1.608   4.994 -1.7706  0.0262  0.7361
 2455SOL     OW 7754   2.320   5.947   0.659 -0.5558 -0.0476 -0.4588
 2455SOL    HW1 7755   2.344   5.904   0.576 -1.3435  2.8466 -2.3245
 2455SOL    HW2 7756   2.384   6.017   0.669 -0.8396  0.0109  1.1207
 2456SOL     OW 7757   2.512   2.731   2.575  0.5978  0.1298 -0.1543
 2456SOL    HW1 7758   2.540   2.664   2.513  0.0537  2.1034 -2.7588
 2456SOL    HW2 7759   2.422   2.751   2.549  0.2555  0.8971  1.4783
 2457SOL     OW 7760   5.458   1.017   0.860  0.3363  0.2953  0.0940
 2457SOL    HW1 7761   5.370   1.031   0.824 -0.5714 -1.8234  1.3239
 2457SOL    HW2 7762   5.485   0.933   0.825  2.6876  1.6521 -1.6501
 2458SOL     OW 7763   5.311   2.728   0.298 -0.5322 -0.2660  0.1198
 2458SOL    HW1 7764   5.347   2.740   0.386  0.9157  0.0698 -0.4806
 2458SOL    HW2 7765   5.374   2.671   0.254  0.0471  1.4564 -1.4101
 2459SOL     OW 7766   0.719   0.027   4.280 -0.0834  0.4933 -0.5284
 2459SOL    HW1 7767   0.709   0.100   4.340  0.3518 -0.5652  0.8961
 2459SOL    HW2 7768   0.797   0.048   4.229  0.4156  0.7397  0.3124
 2460SOL     OW 7769   4.299   0.370   0.543 -0.3017 -0.0633 -0.0028
 2460SOL    HW1 7770   4.304   0.376   0.638 -0.3488  1.4137 -0.0793
 2460SOL    HW2 7771   4.337   0.284   0.522  1.2613  0.2949  1.2181
 2461SOL     OW 7772   6.063   3.443   0.029  0.3917 -0.4666 -0.4125
 2461SOL    HW1 7773   5.989   3.503   0.038  0.0289 -1.0595  0.7103
 2461SOL    HW2 7774   6.124   3.470   0.097  1.2084 -0.0354 -1.2783
 2462SOL     OW 7775   1.149   6.212   4.209  0.8391  0.1656 -0.5687
 2462SOL    HW1 7776   1.118   6.302   4.211 -0.1473 -0.1743 -0.0759
 2462SOL    HW2 7777   1.088   6.167   4.151  3.0537  0.4009 -3.2692
 2463SOL     OW 7778   2.222   5.404   6.173 -0.9670  0.7274  0.0602
 2463SOL    HW1 7779   2.216   5.439   6.262  0.2616  0.6450  0.2060
 2463SOL    HW2 7780   2.258   5.476   6.121 -3.9905  1.6174 -0.9527
 2464SOL     OW 7781   0.029   2.210   1.493  0.0746 -0.1672 -0.3531
 2464SOL    HW1 7782   0.047   2.183   1.403  1.3326 -1.2056  0.1858
 2464SOL    HW2 7783   0.092   2.162   1.546 -0.7728  0.2699  1.1176
 2465SOL     OW 7784   2.971   6.298   4.569  0.5202  0.4165  0.1511
 2465SOL    HW1 7785   2.931   6.233   4.512  1.3841  0.2218 -0.2588
 2465SOL    HW2 7786   3.048   6.328   4.520  1.0171  0.5830  1.0191
 2466SOL     OW 7787   4.939   6.659   6.212 -0.0040 -0.2673 -0.2420
 2466SOL    HW1 7788   5.009   6.608   6.253  1.7154  1.4008 -0.9205
 2466SOL    HW2 7789   4.880   6.594   6.174  2.4051 -1.7965 -1.5836
 2467SOL     OW 7790   5.021   6.507   6.619  0.0581  0.4459  0.4446
 2467SOL    HW1 7791   5.114   6.508   6.641  0.2169 -0.1231 -0.1676
 2467SOL    HW2 7792   5.000   6.599   6.604  0.9475  0.4581 -1.0314
 2468SOL     OW 7793   6.088   4.775   5.867  0.1136 -0.6360  0.0624
 2468SOL    HW1 7794   6.149   4.786   5.939 -1.5139 -0.3262  1.4741
 2468SOL    HW2 7795   6.112   4.692   5.827  2.3490  0.1534 -0.3939
 2469SOL     OW 7796   4.359   1.780   3.864  0.0885 -0.0719 -0.4721
 2469SOL    HW1 7797   4.338   1.780   3.770 -1.0282  0.1517 -0.2378
 2469SOL    HW2 7798   4.279   1.813   3.906  0.3523 -0.7831  0.6085
 2470SOL     OW 7799   5.205   2.195   4.549 -0.0754 -0.1707 -0.1061
 2470SOL    HW1 7800   5.270   2.265   4.555  0.2405 -0.2666 -1.9741
 2470SOL    HW2 7801   5.232   2.132   4.616  3.1701 -1.2948 -2.2417
 2471SOL     OW 7802   3.589   1.739   5.775  0.3897 -0.3629  0.5689
 2471SOL    HW1 7803   3.519   1.729   5.840 -0.1514  0.2819  0.1058
 2471SOL    HW2 7804   3.567   1.820   5.730 -0.9094 -2.1724 -2.3791
 2472SOL     OW 7805   2.645   4.896   3.873 -0.6815 -0.3944  0.0692
 2472SOL    HW1 7806   2.562   4.943   3.867 -1.3856 -1.4975  0.7807
 2472SOL    HW2 7807   2.635   4.841   3.951 -0.0299 -1.9620 -0.9198
 2473SOL     OW 7808   6.645   2.524   4.752  0.1178  0.1301 -0.5435
 2473SOL    HW1 7809   6.724   2.505   4.802  1.3415 -0.2094 -2.4870
 2473SOL    HW2 7810   6.658   2.614   4.722 -0.9708  0.6101  0.3481
 2474SOL     OW 7811   4.951   6.072   0.992  0.2444 -0.5123 -0.1689
 2474SOL    HW1 7812   5.022   6.120   1.034 -0.3113 -1.0514  1.4692
 2474SOL    HW2 7813   4.988   5.985   0.974 -0.3130 -1.2429  1.8967
 2475SOL     OW 7814   5.909   0.728   6.610  0.3029 -0.6767 -0.4766
 2475SOL    HW1 7815   5.897   0.821   6.629 -1.9606 -1.1640  0.9637
 2475SOL    HW2 7816   5.889   0.719   6.517 -0.6079  0.1496 -0.3819
 2476SOL     OW 7817   4.825   2.714   0.373 -0.0905  0.2706 -0.6275
 2476SOL    HW1 7818   4.900   2.700   0.315  0.9541  1.7866  0.2924
 2476SOL    HW2 7819   4.863   2.748   0.454 -1.8407  1.8805 -0.4302
 2477SOL     OW 7820   3.180   6.377   3.261  0.2226  0.1893 -0.7075
 2477SOL    HW1 7821   3.237   6.426   3.321 -0.2602  1.1090 -0.9748
 2477SOL    HW2 7822   3.199   6.415   3.175  1.2260 -1.4085 -1.2345
 2478SOL     OW 7823   1.137   2.594   1.076 -0.0998  0.4758 -0.4232
 2478SOL    HW1 7824   1.230   2.598   1.100 -0.2042  0.7738 -0.0704
 2478SOL    HW2 7825   1.102   2.521   1.126 -0.2788  0.9889  0.2012
 2479SOL     OW 7826   5.602   4.000   0.389  0.0097 -0.3792 -0.4016
 2479SOL    HW1 7827   5.623   4.011   0.296  1.3607  2.2812  0.1146
 2479SOL    HW2 7828   5.565   4.084   0.415 -2.8583 -1.9282  0.9529
 2480SOL     OW 7829   3.275   0.574   1.318 -0.0111  0.3155 -0.1267
 2480SOL    HW1 7830   3.204   0.600   1.259 -0.0028  0.9325  0.1334
 2480SOL    HW2 7831   3.299   0.654   1.364  1.3871  0.2865 -0.7594
 2481SOL     OW 7832   2.247   4.861   5.393  0.7806  0.0513 -0.1652
 2481SOL    HW1 7833   2.222   4.808   5.317  0.0420 -1.0843  0.8172
 2481SOL    HW2 7834   2.268   4.797   5.460 -2.0206  0.8989  1.6993
 2482SOL     OW 7835   0.198   4.678   1.272 -0.0306  0.1538 -0.2165
 2482SOL    HW1 7836   0.151   4.689   1.355  2.2237 -0.8717  1.2971
 2482SOL    HW2 7837   0.151   4.607   1.227  0.3186 -1.2049  1.4725
 2483SOL     OW 7838   0.813   1.272   4.203 -0.1836  0.2545 -0.3054
 2483SOL    HW1 7839   0.812   1.186   4.161  0.3890 -1.4259  2.7727
 2483SOL    HW2 7840   0.723   1.285   4.232  0.1761 -0.5220  1.2946
 2484SOL     OW 7841   2.977   6.065   0.806  0.8552  0.4357 -0.7261
 2484SOL    HW1 7842   2.965   6.076   0.712 -0.6330  0.7898 -0.5047
 2484SOL    HW2 7843   3.068   6.093   0.821  1.8452 -1.6092 -2.3414
 2485SOL     OW 7844   5.123   4.320   1.084  0.0793 -0.0414  0.1251
 2485SOL    HW1 7845   5.070   4.252   1.042 -1.3567 -0.1037  1.9112
 2485SOL    HW2 7846   5.063   4.393   1.095  1.3870  1.2790 -1.0380
 2486SOL     OW 7847   0.674   4.604   3.255 -0.8259  0.1508  0.5758
 2486SOL    HW1 7848   0.750   4.654   3.225 -0.6017 -0.6362 -0.1761
 2486SOL    HW2 7849   0.696   4.580   3.345 -0.7250  0.9774  0.7811
 2487SOL     OW 7850   4.948   3.853   5.538  0.0159 -0.0850  0.2166
 2487SOL    HW1 7851   4.919   3.803   5.614  0.4929 -2.3866 -1.0311
 2487SOL    HW2 7852   4.900   3.815   5.464  0.6994  1.0615 -0.8706
 2488SOL     OW 7853   6.632   0.106   4.717 -0.3229  0.0226  0.0983
 2488SOL    HW1 7854   6.694   0.127   4.647  0.8809 -0.3217  1.0411
 2488SOL    HW2 7855   6.686   0.092   4.795 -1.5814 -0.2871  0.9530
 2489SOL     OW 7856   3.235   6.026   6.594  0.1919  0.6635 -0.1848
 2489SOL    HW1 7857   3.284   5.996   6.670  1.0825  0.3795 -0.8601
 2489SOL    HW2 7858   3.150   6.052   6.630 -0.0082 -1.0305  0.6733
 2490SOL     OW 7859   3.589   0.023   4.269  0.3558 -0.0860  0.2974
 2490SOL    HW1 7860   3.571   0.115   4.251  2.6122  0.1344 -1.2076
 2490SOL    HW2 7861   3.650   0.024   4.343 -1.1473 -0.5331  1.6073
 2491SOL     OW 7862   3.047   6.576   4.020 -0.0372  0.2255  0.3735
 2491SOL    HW1 7863   2.973   6.580   4.081 -0.7052 -0.0770 -0.4075
 2491SOL    HW2 7864   3.124   6.581   4.077 -0.6487  0.7735  1.1806
 2492SOL     OW 7865   4.519   1.156   3.710  0.5401 -0.3204  0.2656
 2492SOL    HW1 7866   4.589   1.213   3.678  0.0105  0.5228  0.5634
 2492SOL    HW2 7867   4.493   1.105   3.633  0.8158  0.0599 -0.0886
 2493SOL     OW 7868   0.958   5.881   0.621  0.0421 -0.3610 -0.3471
 2493SOL    HW1 7869   0.957   5.938   0.544 -1.7548 -1.2837 -1.0583
 2493SOL    HW2 7870   0.958   5.792   0.585 -1.6929 -0.8222  0.6586
 2494SOL     OW 7871   6.698   4.142   2.901  0.2941  0.0877 -0.3024
 2494SOL    HW1 7872   6.770   4.114   2.958 -0.0017 -2.5135 -1.0874
 2494SOL    HW2 7873   6.684   4.234   2.924  2.1363 -0.0473  1.6983
 2495SOL     OW 7874   1.917   1.923   1.460 -0.1820 -0.5823  0.2312
 2495SOL    HW1 7875   1.935   1.981   1.534 -0.6357  0.8003 -0.7115
 2495SOL    HW2 7876   1.997   1.872   1.449  1.6875  2.4159 -1.1836
 2496SOL     OW 7877   1.805   3.581   3.710 -0.1183 -0.1387  0.4356
 2496SOL    HW1 7878   1.834   3.492   3.691 -0.8765  0.1312 -2.6211
 2496SOL    HW2 7879   1.837   3.599   3.798  1.1182 -2.9746  0.6693
 2497SOL     OW 7880   3.557   2.794   6.785 -0.1223 -0.4091  0.1029
 2497SOL    HW1 7881   3.526   2.808   6.696  1.4322  0.8403 -0.2947
 2497SOL    HW2 7882   3.611   2.714   6.779 -1.5618 -1.4452  0.3816
 2498SOL     OW 7883   0.652   1.000   6.034 -0.1829 -0.1150 -0.0592
 2498SOL    HW1 7884   0.711   1.012   6.108 -1.0660  1.5863  0.4274
 2498SOL    HW2 7885   0.696   1.046   5.961  0.2380 -0.9737 -0.3572
 2499SOL     OW 7886   4.288   1.959   4.729  0.1207 -0.0422  0.0815
 2499SOL    HW1 7887   4.297   2.052   4.746 -0.5563  0.2161 -0.9500
 2499SOL    HW2 7888   4.287   1.919   4.817 -3.4939  1.2835  0.8201
 2500SOL     OW 7889   6.799   3.708   2.366  0.4415 -0.1991  0.2805
 2500SOL    HW1 7890   6.868   3.663   2.317  2.8831  2.5579  0.9273
 2500SOL    HW2 7891   6.827   3.703   2.457  0.0094  1.3055  0.5153
 2501SOL     OW 7892   1.646   6.144   4.197  0.5491  0.3625  0.6179
 2501SOL    HW1 7893   1.623   6.051   4.193 -0.1446  0.4875  1.2769
 2501SOL    HW2 7894   1.564   6.190   4.175  0.1755  0.8249  2.7215
 2502SOL     OW 7895   0.260   6.060   0.021 -0.0822  0.1421  0.5839
 2502SOL    HW1 7896   0.355   6.063   0.012  0.1374  0.5568  2.5974
 2502SOL    HW2 7897   0.245   6.012   0.102 -1.5730  0.7056  0.6709
 2503SOL     OW 7898   5.201   3.957   1.672  0.7940 -0.3654  0.4924
 2503SOL    HW1 7899   5.222   3.909   1.592  2.8937 -0.5828  1.1181
 2503SOL    HW2 7900   5.271   4.022   1.679  2.0481 -1.8679  3.3475
 2504SOL     OW 7901   5.764   3.916   2.849  0.1647 -0.0689 -0.0531
 2504SOL    HW1 7902   5.704   3.841   2.857  1.7556 -1.3547  0.4738
 2504SOL    HW2 7903   5.744   3.971   2.924 -1.5113  0.4295 -0.8274
 2505SOL     OW 7904   5.406   2.391   4.741  0.1548 -0.5263 -0.4118
 2505SOL    HW1 7905   5.446   2.317   4.788  0.7026  1.3633  2.3543
 2505SOL    HW2 7906   5.477   2.423   4.684  1.2385  0.1523  1.2415
 2506SOL     OW 7907   2.084   3.515   5.945 -0.0039  0.0691 -0.1785
 2506SOL    HW1 7908   2.001   3.482   5.909 -0.3636  0.6714  0.0933
 2506SOL    HW2 7909   2.059   3.590   5.998  0.1993 -2.1663  3.4038
 2507SOL     OW 7910   4.063   4.523   2.085  0.0786  0.4303  0.3877
 2507SOL    HW1 7911   4.102   4.487   2.164 -1.1218  0.1425  0.8706
 2507SOL    HW2 7912   4.004   4.592   2.116 -0.8061 -0.0399 -0.1905
 2508SOL     OW 7913   0.385   4.122   0.465  0.0603  0.4179 -0.1444
 2508SOL    HW1 7914   0.460   4.177   0.487  1.1480 -1.4747  1.1699
 2508SOL    HW2 7915   0.313   4.184   0.451  1.2627  2.1752  1.0653
 2509SOL     OW 7916   4.827   1.440   5.113  0.1201 -0.2884 -0.1659
 2509SOL    HW1 7917   4.767   1.504   5.151 -0.9662 -1.6949  0.5887
 2509SOL    HW2 7918   4.914   1.474   5.132 -0.4171  0.1415  1.7255
 2510SOL     OW 7919   4.129   5.033   2.549  0.2476  0.1361 -0.5815
 2510SOL    HW1 7920   4.191   5.100   2.518 -1.9432  2.6297  0.0983
 2510SOL    HW2 7921   4.065   5.026   2.479 -0.6231  0.2380  0.1892
 2511SOL     OW 7922   3.884   3.015   6.166  0.5579  0.4481  0.2612
 2511SOL    HW1 7923   3.977   3.013   6.143  0.4451  0.7001 -0.2456
 2511SOL    HW2 7924   3.839   3.000   6.083  0.1494 -0.1775  0.5855
 2512SOL     OW 7925   0.603   5.730   0.812 -0.3667 -0.4201  0.0369
 2512SOL    HW1 7926   0.541   5.755   0.744  0.2548  0.2524 -0.2869
 2512SOL    HW2 7927   0.612   5.635   0.802 -1.4175 -0.5471  0.1609
 2513SOL     OW 7928   4.215   1.678   2.067 -0.0825  0.1037  0.5918
 2513SOL    HW1 7929   4.143   1.714   2.015 -1.1803 -1.3136  1.0732
 2513SOL    HW2 7930   4.202   1.583   2.064  0.8158 -0.0945  2.0491
 2514SOL     OW 7931   5.266   1.103   3.602  0.5979 -0.8810  0.0206
 2514SOL    HW1 7932   5.232   1.065   3.683  0.0489  1.0457  0.7352
 2514SOL    HW2 7933   5.342   1.155   3.630 -0.6133  1.2108 -0.3817
 2515SOL     OW 7934   5.747   4.642   1.219 -0.4983  0.7779  0.4156
 2515SOL    HW1 7935   5.764   4.548   1.225  0.6590  0.9292 -0.1239
 2515SOL    HW2 7936   5.699   4.653   1.137  0.1357  0.7351  0.0272
 2516SOL     OW 7937   4.322   1.891   2.490 -0.5482 -0.0446  0.4596
 2516SOL    HW1 7938   4.356   1.961   2.546  2.1334 -0.5307 -0.3895
 2516SOL    HW2 7939   4.313   1.816   2.549 -0.7892  0.2811  0.8452
 2517SOL     OW 7940   4.792   6.810   4.557 -0.0290 -0.6541  0.2481
 2517SOL    HW1 7941   4.851   6.773   4.491  0.1277 -0.2033  0.1306
 2517SOL    HW2 7942   4.850   6.848   4.623 -0.1778 -1.4833  0.8793
 2518SOL     OW 7943   4.151   5.795   5.042 -0.4155  0.0865 -0.2441
 2518SOL    HW1 7944   4.117   5.762   4.959 -0.6191 -1.0227  0.2657
 2518SOL    HW2 7945   4.210   5.866   5.017 -0.8082  0.0541 -1.3059
 2519SOL     OW 7946   6.498   6.143   6.363  0.3948  0.0978  0.4224
 2519SOL    HW1 7947   6.579   6.122   6.317 -0.9123 -1.0259 -1.5601
 2519SOL    HW2 7948   6.525   6.165   6.452  2.9079  0.4690 -0.3524
 2520SOL     OW 7949   4.515   5.801   1.887 -0.1220  1.1754  0.1567
 2520SOL    HW1 7950   4.519   5.724   1.944 -1.0641 -0.3603 -1.7227
 2520SOL    HW2 7951   4.606   5.816   1.861  0.0499  0.5417  0.3801
 2521SOL     OW 7952   0.326   1.957   5.416  0.6732  0.5320  0.2948
 2521SOL    HW1 7953   0.346   2.050   5.422  0.0491  0.7290 -0.5044
 2521SOL    HW2 7954   0.410   1.915   5.397  1.2141  0.7637  2.0125
 2522SOL     OW 7955   3.190   2.901   3.590 -0.6429 -0.5547  0.4479
 2522SOL    HW1 7956   3.183   2.821   3.642  0.3092 -1.3095 -0.5430
 2522SOL    HW2 7957   3.160   2.875   3.502  2.3878 -0.6761 -0.6763
 2523SOL     OW 7958   6.422   3.478   1.166  0.2011 -0.4096 -0.1097
 2523SOL    HW1 7959   6.412   3.462   1.260 -1.7698 -2.0100 -0.5064
 2523SOL    HW2 7960   6.394   3.569   1.154 -2.3553 -1.0000  0.5816
 2524SOL     OW 7961   1.204   3.687   4.679 -0.0995  0.1078 -0.0581
 2524SOL    HW1 7962   1.137   3.743   4.719 -2.4288 -2.6432  0.2278
 2524SOL    HW2 7963   1.268   3.672   4.749 -1.1685 -0.1486  0.9030
 2525SOL     OW 7964   0.441   2.015   4.138  1.0344  0.4519 -0.3227
 2525SOL    HW1 7965   0.498   1.941   4.157  1.7655  0.9852 -0.3947
 2525SOL    HW2 7966   0.497   2.076   4.089  0.7526  1.5310  0.6753
 2526SOL     OW 7967   0.728   6.154   4.709  0.3993  0.2155 -0.2333
 2526SOL    HW1 7968   0.805   6.121   4.756  2.6396  3.1571 -1.5194
 2526SOL    HW2 7969   0.760   6.174   4.621 -2.2780  0.1253 -1.3247
 2527SOL     OW 7970   5.573   5.862   6.678 -0.3922 -0.0727 -0.0708
 2527SOL    HW1 7971   5.533   5.943   6.709  0.1903  0.6510 -1.1396
 2527SOL    HW2 7972   5.501   5.798   6.675 -0.6118  0.0266  1.9787
 2528SOL     OW 7973   4.901   3.374   1.483  0.4583  0.2960 -0.0878
 2528SOL    HW1 7974   4.984   3.340   1.517  0.6962  0.7742 -0.1797
 2528SOL    HW2 7975   4.893   3.461   1.522  0.8336  0.9338 -1.3902
 2529SOL     OW 7976   0.102   1.200   6.089  0.7611 -0.5032  0.0865
 2529SOL    HW1 7977   0.058   1.119   6.115  0.2229 -0.0741  0.5384
 2529SOL    HW2 7978   0.179   1.171   6.041 -1.3665 -1.3276 -3.1779
 2530SOL     OW 7979   2.810   3.621   5.558 -0.1741  0.7020  0.1522
 2530SOL    HW1 7980   2.897   3.580   5.552 -0.9278 -0.9587 -0.0556
 2530SOL    HW2 7981   2.800   3.639   5.652 -0.6653 -1.6820  0.6367
 2531SOL     OW 7982   2.557   1.738   0.969 -0.0128  0.0112 -0.0140
 2531SOL    HW1 7983   2.635   1.765   0.921 -0.3830  1.0094 -0.0582
 2531SOL    HW2 7984   2.563   1.783   1.053  0.6041 -1.6760  0.8982
 2532SOL     OW 7985   5.829   6.622   0.561  0.4864 -0.3771 -0.3387
 2532SOL    HW1 7986   5.831   6.707   0.518  0.3251 -1.1118 -1.8738
 2532SOL    HW2 7987   5.807   6.560   0.491  2.5575 -1.9413  0.2991
 2533SOL     OW 7988   5.557   3.259   4.354 -0.0697 -0.3787 -0.3507
 2533SOL    HW1 7989   5.630   3.248   4.415  0.4960  1.0317 -0.7391
 2533SOL    HW2 7990   5.544   3.172   4.316  1.7437 -0.5565 -0.6382
 2534SOL     OW 7991   4.468   1.642   4.586  0.2597  0.5573  0.2724
 2534SOL    HW1 7992   4.449   1.671   4.497 -0.8670  0.4189  0.4613
 2534SOL    HW2 7993   4.392   1.590   4.612  0.8507  0.0760  1.0930
 2535SOL     OW 7994   1.127   0.210   3.458 -0.0830  0.4037 -0.6978
 2535SOL    HW1 7995   1.134   0.185   3.366  0.7577 -0.2131 -0.4804
 2535SOL    HW2 7996   1.210   0.255   3.476 -0.0665  0.1464 -0.1301
 2536SOL     OW 7997   0.480   6.376   0.065  0.0699  0.1521  0.4145
 2536SOL    HW1 7998   0.523   6.441   0.121  0.8001  1.1184 -1.1814
 2536SOL    HW2 7999   0.446   6.310   0.126 -0.7289  2.0195  2.1138
 2537SOL     OW 8000   3.724   2.052   5.453  0.0420 -0.2038  0.4054
 2537SOL    HW1 8001   3.798   2.107   5.430 -0.7410  0.4911 -0.5303
 2537SOL    HW2 8002   3.746   1.966   5.417  1.4930 -0.7069  2.2991
 2538SOL     OW 8003   3.701   0.289   5.493 -0.3936  0.0083 -0.2478
 2538SOL    HW1 8004   3.747   0.367   5.526 -0.5391  0.3712 -0.8988
 2538SOL    HW2 8005   3.678   0.240   5.573 -0.6097  0.8035  0.1875
 2539SOL     OW 8006   6.067   0.226   1.365  0.0741 -0.2644 -0.6113
 2539SOL    HW1 8007   6.098   0.315   1.353 -0.2973 -0.0468  0.0170
 2539SOL    HW2 8008   6.033   0.223   1.454  0.8578 -1.2680 -0.3194
 2540SOL     OW 8009   4.132   4.885   1.419  0.1374 -0.4370 -0.3807
 2540SOL    HW1 8010   4.063   4.947   1.397  1.5654  1.3856  0.1141
 2540SOL    HW2 8011   4.213   4.926   1.390  1.1046 -2.3023 -0.4905
 2541SOL     OW 8012   0.873   2.505   5.550  0.0097 -0.0672  0.2506
 2541SOL    HW1 8013   0.940   2.441   5.573  0.0744 -1.5289 -3.4671
 2541SOL    HW2 8014   0.910   2.555   5.478 -1.8354  1.0158 -0.0099
 2542SOL     OW 8015   2.242   5.671   2.144 -0.1120  0.0647 -0.1275
 2542SOL    HW1 8016   2.221   5.688   2.236 -0.1298 -1.0675  0.0987
 2542SOL    HW2 8017   2.178   5.604   2.117 -0.2771  0.5734 -1.0462
 2543SOL     OW 8018   2.776   3.033   6.135  0.0547 -0.1016 -0.1061
 2543SOL    HW1 8019   2.745   2.982   6.060 -0.0814 -1.8144  1.0567
 2543SOL    HW2 8020   2.862   2.997   6.156 -0.7917 -1.1710  1.8411
 2544SOL     OW 8021   6.717   5.401   1.273  0.3952 -0.0024  0.1028
 2544SOL    HW1 8022   6.712   5.310   1.302 -0.4686 -0.3674 -1.1198
 2544SOL    HW2 8023   6.703   5.453   1.352 -2.7415 -0.9422  0.2662
 2545SOL     OW 8024   6.835   0.442   2.223  0.2454 -0.0038 -0.5506
 2545SOL    HW1 8025   6.752   0.399   2.242  0.7526 -0.5196  0.5969
 2545SOL    HW2 8026   6.822   0.532   2.252  0.5982 -0.4815  1.2819
 2546SOL     OW 8027   0.553   0.950   4.768  0.1776 -0.2555  0.0348
 2546SOL    HW1 8028   0.598   1.032   4.745  2.7505 -1.6666 -0.4087
 2546SOL    HW2 8029   0.470   0.978   4.806  1.4653  2.6034  1.0374
 2547SOL     OW 8030   1.894   4.074   2.077 -0.1048  0.2919  0.2136
 2547SOL    HW1 8031   1.931   4.034   2.156  0.7376  0.0835 -0.2724
 2547SOL    HW2 8032   1.881   4.166   2.100  2.0783  0.7057 -0.0229
 2548SOL     OW 8033   4.382   3.495   5.120 -0.1283 -0.2659  0.2519
 2548SOL    HW1 8034   4.356   3.406   5.143 -1.0390 -0.3567 -1.0174
 2548SOL    HW2 8035   4.305   3.533   5.078 -0.3271  1.7013  2.1879
 2549SOL     OW 8036   5.966   6.628   1.994 -0.0684  0.1912 -0.1438
 2549SOL    HW1 8037   6.005   6.571   1.926  0.6067  1.1387 -0.5699
 2549SOL    HW2 8038   5.875   6.636   1.968  0.2749  0.8907 -1.2045
 2550SOL     OW 8039   4.585   0.504   3.072 -0.2340  0.5934 -0.3156
 2550SOL    HW1 8040   4.570   0.421   3.118 -1.7691  0.6184 -0.7129
 2550SOL    HW2 8041   4.558   0.486   2.982  0.1066  1.3333 -0.5665
 2551SOL     OW 8042   6.152   6.508   1.068 -0.4344 -0.8574 -0.1204
 2551SOL    HW1 8043   6.125   6.416   1.061 -1.9329 -0.5601  1.2145
 2551SOL    HW2 8044   6.077   6.558   1.038 -1.1108 -0.0273  2.6136
 2552SOL     OW 8045   6.104   0.062   2.002 -0.0467  0.6598 -0.2070
 2552SOL    HW1 8046   6.028   0.041   2.056  1.1659  0.1989  1.4079
 2552SOL    HW2 8047   6.132  -0.023   1.967  1.6156  0.2368  1.8980
 2553SOL     OW 8048   4.410   4.407   5.216 -0.3474 -0.0937  0.1842
 2553SOL    HW1 8049   4.379   4.452   5.295 -0.1579  0.7998 -0.2359
 2553SOL    HW2 8050   4.460   4.332   5.249  0.7369  0.9315  0.9562
 2554SOL     OW 8051   4.037   2.632   6.579  0.3703  0.5457  0.6428
 2554SOL    HW1 8052   4.006   2.706   6.527  0.0303  0.3059  0.5024
 2554SOL    HW2 8053   4.095   2.583   6.519 -0.2172  0.1320  0.4050
 2555SOL     OW 8054   6.021   0.003   3.687 -0.1142 -0.5809  0.0969
 2555SOL    HW1 8055   6.098  -0.000   3.743 -1.0413  0.3232  1.5083
 2555SOL    HW2 8056   5.956  -0.050   3.733 -0.6988 -0.3797 -0.4805
 2556SOL     OW 8057   0.652   5.803   6.523  0.6078 -0.2857  0.0214
 2556SOL    HW1 8058   0.671   5.711   6.507  0.0776 -0.0242 -2.5008
 2556SOL    HW2 8059   0.725   5.850   6.482 -0.6764  0.4418 -1.5613
 2557SOL     OW 8060   0.233   0.826   5.941  0.0872  0.0926 -0.0266
 2557SOL    HW1 8061   0.171   0.829   5.869  0.7455 -1.2797 -0.6796
 2557SOL    HW2 8062   0.260   0.735   5.947  1.5738  0.5283  0.6388
 2558SOL     OW 8063   2.850   2.737   5.016 -0.3109  0.2874  0.3507
 2558SOL    HW1 8064   2.867   2.829   5.037  0.2986  0.3135 -0.2110
 2558SOL    HW2 8065   2.819   2.737   4.926  0.3873 -0.1115  0.0977
 2559SOL     OW 8066   6.208   3.551   4.985  0.1184  0.4430  0.4980
 2559SOL    HW1 8067   6.272   3.494   5.026  1.4313  0.6416 -1.1696
 2559SOL    HW2 8068   6.233   3.639   5.013  0.0272  0.4443  0.5740
 2560SOL     OW 8069   1.196   4.628   5.727  0.7079  0.1900  0.1097
 2560SOL    HW1 8070   1.153   4.684   5.791  0.5232 -0.3860  0.4895
 2560SOL    HW2 8071   1.206   4.684   5.650 -0.7055  0.3359  0.0069
 2561SOL     OW 8072   0.442   1.227   0.426 -0.4963 -0.1006 -0.6189
 2561SOL    HW1 8073   0.366   1.280   0.449 -0.3222  0.4786 -1.3587
 2561SOL    HW2 8074   0.515   1.290   0.425  0.3730 -0.9451  1.9624
 2562SOL     OW 8075   0.533   6.060   1.704  0.5632  0.5878  0.1051
 2562SOL    HW1 8076   0.583   6.120   1.760  1.2954  0.9246 -0.8746
 2562SOL    HW2 8077   0.502   6.115   1.631 -0.0909  0.0934  0.0005
 2563SOL     OW 8078   3.607   0.604   3.089  0.1367  0.0092 -0.0113
 2563SOL    HW1 8079   3.580   0.514   3.067 -1.1900  0.4543 -0.2751
 2563SOL    HW2 8080   3.526   0.649   3.110  0.5525  1.6632 -1.6871
 2564SOL     OW 8081   0.138   0.909   0.400  0.1556  0.1309  0.2816
 2564SOL    HW1 8082   0.143   0.813   0.401  0.4877  0.0773 -1.7465
 2564SOL    HW2 8083   0.224   0.938   0.430  0.2907 -0.2093  0.2313
 2565SOL     OW 8084   3.205   4.366   3.317  0.1123 -0.1736 -0.3265
 2565SOL    HW1 8085   3.127   4.411   3.349  0.2805 -0.9583  1.2676
 2565SOL    HW2 8086   3.209   4.389   3.224 -0.9088  1.4620 -0.0143
 2566SOL     OW 8087   3.114   1.912   5.943 -0.5140 -0.0136  0.3695
 2566SOL    HW1 8088   3.091   1.986   5.887 -0.4581 -0.1342  0.1845
 2566SOL    HW2 8089   3.209   1.917   5.952 -0.6469  0.7201  1.4691
 2567SOL     OW 8090   4.560   3.536   3.032 -0.6003  0.3483 -0.3092
 2567SOL    HW1 8091   4.583   3.626   3.052  1.9745  0.2032 -2.0440
 2567SOL    HW2 8092   4.536   3.538   2.939  0.3838 -0.8395 -0.6184
 2568SOL     OW 8093   0.821   3.588   1.955  0.4559 -0.1787  0.2391
 2568SOL    HW1 8094   0.806   3.591   2.049  1.8171 -0.2668  0.4800
 2568SOL    HW2 8095   0.864   3.671   1.935  0.5947 -0.3591 -0.2265
 2569SOL     OW 8096   3.510   0.787   3.589 -0.0789 -0.0303 -0.0315
 2569SOL    HW1 8097   3.469   0.860   3.543 -0.0939  0.5693  0.9142
 2569SOL    HW2 8098   3.590   0.824   3.628 -0.7268 -0.1755  1.5151
 2570SOL     OW 8099   5.132   0.679   3.917 -0.4838  0.9526  0.0753
 2570SOL    HW1 8100   5.095   0.595   3.943 -1.4174  1.1783 -0.4686
 2570SOL    HW2 8101   5.153   0.667   3.824  2.5779  0.2253  0.7681
 2571SOL     OW 8102   1.888   3.945   6.736 -0.2376  0.2598 -0.4692
 2571SOL    HW1 8103   1.881   4.025   6.683 -0.0749  0.5578 -0.0495
 2571SOL    HW2 8104   1.893   3.874   6.672  0.3830  0.6470 -0.8591
 2572SOL     OW 8105   1.981   4.476   5.325  0.2486 -0.2090  0.3310
 2572SOL    HW1 8106   1.972   4.495   5.419 -1.0047 -0.1763  0.2237
 2572SOL    HW2 8107   1.927   4.399   5.311  0.2173 -0.0557 -0.4104
 2573SOL     OW 8108   0.443   2.788   1.687 -0.6773 -0.2069  0.0133
 2573SOL    HW1 8109   0.471   2.833   1.766 -1.0730 -0.2068  0.1497
 2573SOL    HW2 8110   0.509   2.720   1.674 -0.0411  0.4375 -0.2279
 2574SOL     OW 8111   5.492   6.166   4.721  0.6343  0.2373 -0.1450
 2574SOL    HW1 8112   5.553   6.096   4.697  1.5947 -0.1472  3.0071
 2574SOL    HW2 8113   5.472   6.209   4.638  3.4196 -1.0527 -1.6290
 2575SOL     OW 8114   4.125   1.278   4.937 -0.3105  0.1297  0.5445
 2575SOL    HW1 8115   4.199   1.339   4.944  0.4703 -0.7052 -0.2202
 2575SOL    HW2 8116   4.154   1.212   4.874 -1.0000 -1.2327  1.6008
 2576SOL     OW 8117   6.814   2.576   6.134  0.1839  0.1329  0.0275
 2576SOL    HW1 8118   6.735   2.582   6.079  0.9692  0.5284 -1.1071
 2576SOL    HW2 8119   6.875   2.638   6.093  1.5565 -1.1582  0.0575
 2577SOL     OW 8120   4.816   4.347   5.113 -0.6249  0.3885 -0.2786
 2577SOL    HW1 8121   4.819   4.433   5.155 -0.6604 -0.2454  1.0579
 2577SOL    HW2 8122   4.891   4.346   5.055 -0.3302  1.1347  0.0793
 2578SOL     OW 8123   2.308   6.497   3.529 -0.3670 -0.0352 -0.1007
 2578SOL    HW1 8124   2.398   6.511   3.560 -0.6100  1.1920  0.1149
 2578SOL    HW2 8125   2.313   6.419   3.474  0.8307  0.0183 -0.0881
 2579SOL     OW 8126   2.987   6.756   1.485  0.5252 -0.9102  0.6046
 2579SOL    HW1 8127   2.896   6.768   1.459  0.3209 -0.6417  1.4037
 2579SOL    HW2 8128   3.023   6.696   1.420  0.1551  0.0314 -0.5002
 2580SOL     OW 8129   3.534   1.509   5.169 -0.5057 -0.4575  0.1552
 2580SOL    HW1 8130   3.616   1.470   5.199 -0.8933 -1.2769  0.1838
 2580SOL    HW2 8131   3.466   1.451   5.203 -1.0149 -0.6908 -1.2195
 2581SOL     OW 8132   5.011   3.622   1.768 -0.2342  0.4513 -0.0420
 2581SOL    HW1 8133   4.933   3.573   1.792  0.9021 -2.4835 -1.7624
 2581SOL    HW2 8134   5.063   3.626   1.848  0.0984 -2.2238 -0.0630
 2582SOL     OW 8135   3.132   2.139   6.784 -0.1774  0.5278 -0.4880
 2582SOL    HW1 8136   3.201   2.078   6.758  0.6247  1.4016 -0.4956
 2582SOL    HW2 8137   3.174   2.225   6.780 -0.6500  0.9089  1.5193
 2583SOL     OW 8138   6.726   1.186   4.966 -0.6392 -0.3466 -0.2614
 2583SOL    HW1 8139   6.701   1.278   4.955  1.2090  0.2912  0.6056
 2583SOL    HW2 8140   6.642   1.141   4.980 -1.4531  1.4750  1.1579
 2584SOL     OW 8141   1.420   5.476   3.608 -0.2799  0.4421  0.2255
 2584SOL    HW1 8142   1.336   5.477   3.654  0.2640 -0.3025  1.2952
 2584SOL    HW2 8143   1.454   5.566   3.617 -0.5007  0.4821  0.6792
 2585SOL     OW 8144   5.647   6.487   5.913 -0.3453  0.0815  0.1189
 2585SOL    HW1 8145   5.695   6.434   5.977 -0.7180  1.1653  1.3422
 2585SOL    HW2 8146   5.562   6.505   5.955 -1.9315 -1.8676 -2.0208
 2586SOL     OW 8147   1.933   6.405   5.289 -0.0851  0.5934 -0.1556
 2586SOL    HW1 8148   2.003   6.396   5.353 -1.3625  1.3831  1.4256
 2586SOL    HW2 8149   1.950   6.489   5.246  0.1849  0.5712 -0.0912
 2587SOL     OW 8150   0.831   3.982   5.712  0.0557  0.4813  0.7742
 2587SOL    HW1 8151   0.887   4.036   5.768 -1.3236  1.5121  1.2334
 2587SOL    HW2 8152   0.808   3.907   5.766  0.7538  0.1842  0.6739
 2588SOL     OW 8153   0.782   5.044   2.825 -0.2150 -0.0926 -1.1288
 2588SOL    HW1 8154   0.775   4.950   2.842 -1.1024  0.0181 -0.8339
 2588SOL    HW2 8155   0.819   5.081   2.906  0.9914 -0.2831 -1.5650
 2589SOL     OW 8156   2.745   3.540   4.373  0.5261 -0.4855 -0.0718
 2589SOL    HW1 8157   2.686   3.465   4.382  1.6691 -1.4738 -0.5998
 2589SOL    HW2 8158   2.720   3.599   4.445 -1.7848 -0.3604 -0.8835
 2590SOL     OW 8159   1.908   3.134   0.221 -0.5590  0.0408 -0.4170
 2590SOL    HW1 8160   1.859   3.144   0.139 -0.2067 -2.6975 -1.0711
 2590SOL    HW2 8161   1.865   3.061   0.266  1.0816 -0.4670  0.3949
 2591SOL     OW 8162   5.279   0.651   2.706  0.3968 -0.0095 -0.0762
 2591SOL    HW1 8163   5.304   0.742   2.689 -0.1049  0.1971  0.2817
 2591SOL    HW2 8164   5.361   0.609   2.734  0.6976  0.2498 -0.5582
 2592SOL     OW 8165   1.750   6.029   2.759 -0.0803  0.2602 -0.3530
 2592SOL    HW1 8166   1.753   6.084   2.681  0.7089  0.2522 -0.3368
 2592SOL    HW2 8167   1.778   5.943   2.729 -1.5069 -0.2000 -0.4182
 2593SOL     OW 8168   4.783   5.046   6.070  0.6360  0.0868 -0.2416
 2593SOL    HW1 8169   4.840   5.069   5.996 -2.6162 -0.7134 -3.2577
 2593SOL    HW2 8170   4.711   5.109   6.066 -0.1396 -0.5935  1.6981
 2594SOL     OW 8171   0.987   2.687   5.383  0.0849  0.1101  0.6439
 2594SOL    HW1 8172   1.058   2.633   5.350  0.2319  0.1085  0.9612
 2594SOL    HW2 8173   1.023   2.729   5.461  0.5497  1.9868 -0.5150
 2595SOL     OW 8174   2.302   2.477   4.704 -0.4467  0.4900  0.0015
 2595SOL    HW1 8175   2.333   2.468   4.614 -1.2418  0.3341 -0.2613
 2595SOL    HW2 8176   2.287   2.571   4.715 -1.1511  0.4258 -0.3138
 2596SOL     OW 8177   1.655   3.523   0.234 -0.3763  0.2096 -0.4969
 2596SOL    HW1 8178   1.750   3.536   0.225 -0.1587  0.3996  1.6133
 2596SOL    HW2 8179   1.620   3.611   0.246 -1.3204  0.5492 -4.3203
 2597SOL     OW 8180   2.893   1.287   2.214  0.0287  0.0302 -0.2940
 2597SOL    HW1 8181   2.949   1.363   2.231  0.5305 -0.3647 -0.1709
 2597SOL    HW2 8182   2.916   1.224   2.282  0.0660 -0.4798 -0.7673
 2598SOL     OW 8183   2.341   4.232   2.688 -0.0570 -0.1037 -0.3677
 2598SOL    HW1 8184   2.328   4.273   2.603 -0.7484 -0.5474 -0.4796
 2598SOL    HW2 8185   2.253   4.216   2.721  0.1881  0.6172  0.7140
 2599SOL     OW 8186   0.140   1.195   3.058 -0.0567 -0.0694  0.1984
 2599SOL    HW1 8187   0.152   1.227   2.968 -1.1633 -0.0399  0.0454
 2599SOL    HW2 8188   0.118   1.273   3.109  0.7075 -0.0645  0.5409
 2600SOL     OW 8189   1.596   0.470   3.308  0.3821 -0.0990 -0.1426
 2600SOL    HW1 8190   1.596   0.535   3.379  3.2269 -1.1077  0.9433
 2600SOL    HW2 8191   1.631   0.518   3.233  1.9422 -0.1408  0.5079
 2601SOL     OW 8192   0.521   5.109   2.148  0.1854  0.4921 -0.2926
 2601SOL    HW1 8193   0.532   5.018   2.174  0.8723  1.1462  1.8479
 2601SOL    HW2 8194   0.440   5.137   2.191  0.5041  1.1593 -0.1081
 2602SOL     OW 8195   6.051   5.139   1.418 -0.6794 -0.1135 -0.0560
 2602SOL    HW1 8196   5.984   5.147   1.351  0.0750 -2.5292 -1.2502
 2602SOL    HW2 8197   6.083   5.228   1.432 -0.6227  0.4623 -3.2043
 2603SOL     OW 8198   2.962   2.974   0.970 -0.3517 -0.0959  0.0610
 2603SOL    HW1 8199   2.962   3.061   0.929  0.9716 -0.6972 -1.3355
 2603SOL    HW2 8200   2.978   2.990   1.063 -2.3416  1.2696  0.2163
 2604SOL     OW 8201   0.176   4.712   0.792 -1.0023 -0.6322 -0.6766
 2604SOL    HW1 8202   0.160   4.634   0.739  1.1854  0.2059 -2.7535
 2604SOL    HW2 8203   0.269   4.731   0.779 -1.1427  1.5031  0.9403
 2605SOL     OW 8204   0.664   6.441   3.346  0.3150 -0.0979  0.1093
 2605SOL    HW1 8205   0.668   6.532   3.316 -0.1667  0.3159  1.2174
 2605SOL    HW2 8206   0.752   6.406   3.329  0.5044  0.5762 -0.3360
 2606SOL     OW 8207   5.147   2.494   4.759  0.1650 -0.3106 -0.4863
 2606SOL    HW1 8208   5.099   2.414   4.781 -0.7758  0.7754  1.7994
 2606SOL    HW2 8209   5.239   2.470   4.767 -0.0684 -1.4117 -0.8892
 2607SOL     OW 8210   4.448   5.068   5.027 -0.1851  0.2543 -0.2881
 2607SOL    HW1 8211   4.366   5.111   5.052 -0.0853  1.0802 -1.2741
 2607SOL    HW2 8212   4.481   5.029   5.108 -1.5762 -0.1548  0.1203
 2608SOL     OW 8213   6.216   5.643   4.015  0.5089  0.2678 -0.2561
 2608SOL    HW1 8214   6.122   5.640   4.036  0.2306 -0.3720 -1.5241
 2608SOL    HW2 8215   6.256   5.580   4.075 -0.4128 -2.3109 -2.1520
 2609SOL     OW 8216   2.932   6.732   1.047 -0.4449  0.6749 -0.1843
 2609SOL    HW1 8217   2.905   6.799   1.111 -1.3306  0.7120 -0.5851
 2609SOL    HW2 8218   2.892   6.651   1.079 -1.0389  0.7282 -0.7811
 2610SOL     OW 8219   6.632   5.829   5.532 -0.8331 -0.3803 -0.0972
 2610SOL    HW1 8220   6.565   5.867   5.589  0.1155  0.6790  0.3464
 2610SOL    HW2 8221   6.701   5.802   5.591 -0.4919 -0.6853 -0.6253
 2611SOL     OW 8222   1.688   4.470   6.495  0.3542  0.0700 -0.3207
 2611SOL    HW1 8223   1.651   4.510   6.574  1.3489 -0.2179  0.3212
 2611SOL    HW2 8224   1.634   4.503   6.424 -0.4459  0.5030  0.4580
 2612SOL     OW 8225   2.855   5.852   2.653 -0.1046 -0.2316 -0.2652
 2612SOL    HW1 8226   2.933   5.816   2.695 -1.5625 -2.0913  0.9712
 2612SOL    HW2 8227   2.785   5.838   2.716 -1.5483  1.0065 -1.5164
 2613SOL     OW 8228   3.725   0.245   3.553  0.2798  0.6212  0.0508
 2613SOL    HW1 8229   3.698   0.153   3.547  0.6493  0.5877 -1.3074
 2613SOL    HW2 8230   3.788   0.246   3.625  0.4835 -0.2390 -0.1017
 2614SOL     OW 8231   1.228   2.981   1.106 -0.3106 -0.4545  0.5940
 2614SOL    HW1 8232   1.262   2.899   1.143  1.3835  0.4385  1.0984
 2614SOL    HW2 8233   1.161   3.009   1.168  0.3618 -0.5419  1.3731
 2615SOL     OW 8234   1.533   0.169   0.720  0.3669  0.1974  0.3885
 2615SOL    HW1 8235   1.532   0.263   0.738  1.1400 -0.1011  2.1260
 2615SOL    HW2 8236   1.529   0.128   0.806 -1.1554 -1.4038 -0.3799
 2616SOL     OW 8237   5.804   5.261   5.176  0.7362  0.2366 -1.1131
 2616SOL    HW1 8238   5.786   5.351   5.150  0.4980  0.4205 -0.3538
 2616SOL    HW2 8239   5.720   5.216   5.166  0.4088  0.5166  0.1084
 2617SOL     OW 8240   2.161   2.783   3.262 -0.0061 -0.0253 -0.0873
 2617SOL    HW1 8241   2.204   2.834   3.194 -1.2522 -0.2242 -1.0599
 2617SOL    HW2 8242   2.068   2.783   3.237 -0.2724 -1.3475  0.8054
 2618SOL     OW 8243   6.129   4.260   2.204  0.2890  0.7895  0.5993
 2618SOL    HW1 8244   6.180   4.334   2.171 -0.7142  1.1115 -0.3031
 2618SOL    HW2 8245   6.070   4.298   2.269  1.0551  0.4494  1.5082
 2619SOL     OW 8246   6.148   2.641   1.731  0.2744  0.0663 -0.1263
 2619SOL    HW1 8247   6.098   2.686   1.799  0.8111 -0.6851  0.7817
 2619SOL    HW2 8248   6.087   2.578   1.694  0.2421 -0.1452  0.2810
 2620SOL     OW 8249   6.500   4.808   0.305 -0.5953  0.4025  0.3637
 2620SOL    HW1 8250   6.491   4.731   0.361 -1.4410  1.4721  1.7729
 2620SOL    HW2 8251   6.594   4.828   0.306 -0.4633 -0.2113  0.5402
 2621SOL     OW 8252   3.541   6.816   5.481  0.1881  0.4160  0.0893
 2621SOL    HW1 8253   3.512   6.726   5.496  0.1953  0.4449  0.2724
 2621SOL    HW2 8254   3.547   6.854   5.568  0.6912  0.4398  0.0447
 2622SOL     OW 8255   4.295   2.575   6.471 -0.0316 -0.0475 -0.3586
 2622SOL    HW1 8256   4.363   2.641   6.485  0.4527 -0.8115  1.0671
 2622SOL    HW2 8257   4.318   2.503   6.530 -0.1880 -1.7995 -2.3175
 2623SOL     OW 8258   3.610   4.542   2.222 -0.1218 -0.1702  0.3805
 2623SOL    HW1 8259   3.580   4.464   2.268 -1.3976  1.0554  1.7415
 2623SOL    HW2 8260   3.575   4.533   2.134 -4.6144  1.0034  1.7433
 2624SOL     OW 8261   6.154   2.383   5.165 -0.4470  0.1408 -0.1535
 2624SOL    HW1 8262   6.148   2.459   5.108  1.1539  0.5535  0.1916
 2624SOL    HW2 8263   6.150   2.419   5.254  1.5895  0.0027  0.0375
 2625SOL     OW 8264   6.632   5.041   2.667  0.0435 -0.6452  0.4565
 2625SOL    HW1 8265   6.600   4.950   2.672  0.6162 -0.7938  2.4444
 2625SOL    HW2 8266   6.680   5.045   2.585  0.4319 -2.3099  0.5582
 2626SOL     OW 8267   6.406   4.087   0.826 -0.0983  0.1717  0.4430
 2626SOL    HW1 8268   6.353   4.057   0.900  0.8729 -0.6672  0.8245
 2626SOL    HW2 8269   6.382   4.028   0.754 -1.0420  0.9864  0.0821
 2627SOL     OW 8270   4.216   5.201   1.752 -0.0946  0.2931 -0.2200
 2627SOL    HW1 8271   4.129   5.233   1.727  0.4019  1.8965 -0.0352
 2627SOL    HW2 8272   4.276   5.247   1.692  0.8336  1.4423  1.5218
 2628SOL     OW 8273   3.125   4.022   3.247 -0.4120  0.7144 -0.2291
 2628SOL    HW1 8274   3.107   4.070   3.328 -0.6258 -0.0801  0.2019
 2628SOL    HW2 8275   3.208   3.977   3.263 -1.4423 -1.0766  0.3292
 2629SOL     OW 8276   2.387   3.854   2.777  0.1987 -0.1008  0.2236
 2629SOL    HW1 8277   2.446   3.864   2.703  0.8242  3.1379  1.0131
 2629SOL    HW2 8278   2.312   3.805   2.742 -0.0851  2.3276 -2.9347
 2630SOL     OW 8279   2.735   5.648   6.444 -0.3369 -0.3491  0.0841
 2630SOL    HW1 8280   2.731   5.617   6.354 -0.2816  0.4693 -0.2100
 2630SOL    HW2 8281   2.645   5.645   6.475 -0.2174 -1.6177  0.3568
 2631SOL     OW 8282   6.086   4.381   1.577 -0.3250 -0.4075 -0.4294
 2631SOL    HW1 8283   6.061   4.378   1.485  0.5124 -1.1872 -0.6406
 2631SOL    HW2 8284   6.109   4.291   1.599  0.0014 -0.1325  0.3977
 2632SOL     OW 8285   4.304   6.019   4.970 -0.0064 -0.7287 -0.3845
 2632SOL    HW1 8286   4.295   6.036   4.877  0.3405  2.3173  0.0366
 2632SOL    HW2 8287   4.395   6.042   4.990 -0.2319 -0.7733  0.8008
 2633SOL     OW 8288   6.704   1.264   2.598  0.5462 -0.7957  0.4589
 2633SOL    HW1 8289   6.727   1.311   2.679  0.1741  0.3368 -0.0672
 2633SOL    HW2 8290   6.713   1.172   2.621 -0.3476 -0.5418  2.0623
 2634SOL     OW 8291   4.868   4.016   3.986  0.0761 -0.5380 -0.3371
 2634SOL    HW1 8292   4.864   4.000   3.891  0.7676  0.2739 -0.5231
 2634SOL    HW2 8293   4.947   3.970   4.015  0.5558  0.2105 -0.3962
 2635SOL     OW 8294   3.566   3.128   3.222 -0.1900 -0.2899  0.3499
 2635SOL    HW1 8295   3.572   3.153   3.314 -0.4194 -0.1618  0.3312
 2635SOL    HW2 8296   3.627   3.187   3.177 -0.9469  0.4509  0.2673
 2636SOL     OW 8297   4.658   5.249   2.706  0.1931  0.1871  0.9471
 2636SOL    HW1 8298   4.709   5.261   2.626 -1.1722  0.2213  0.0307
 2636SOL    HW2 8299   4.683   5.323   2.762  0.8919  0.3786  0.4002
 2637SOL     OW 8300   4.524   0.999   6.150 -0.8445 -0.1330  0.3466
 2637SOL    HW1 8301   4.540   1.078   6.202  0.5638 -0.2144  0.0833
 2637SOL    HW2 8302   4.433   0.976   6.169 -0.4311 -0.0957  2.6890
 2638SOL     OW 8303   3.920   5.655   5.082  0.6606  0.2486  0.5215
 2638SOL    HW1 8304   3.967   5.575   5.104  0.8275  0.5290  1.2167
 2638SOL    HW2 8305   3.985   5.725   5.095 -0.1985  0.7425  2.4494
 2639SOL     OW 8306   0.181   2.191   3.966 -0.2671 -0.9424 -0.1501
 2639SOL    HW1 8307   0.223   2.228   4.044 -3.0452 -3.3675  2.7492
 2639SOL    HW2 8308   0.097   2.236   3.960 -0.4798 -1.4399 -1.2339
 2640SOL     OW 8309   0.852   6.532   5.997  0.0039  0.4638 -0.0697
 2640SOL    HW1 8310   0.827   6.609   6.048 -0.5999  1.4713 -1.8337
 2640SOL    HW2 8311   0.948   6.532   5.998  0.0106  0.2706  1.2979
 2641SOL     OW 8312   3.005   6.181   6.325 -1.0609 -0.0984 -0.9247
 2641SOL    HW1 8313   3.025   6.255   6.382 -3.6356  0.5437 -0.6989
 2641SOL    HW2 8314   2.913   6.162   6.342 -0.1378 -4.5683  0.2911
 2642SOL     OW 8315   0.676   2.648   6.498 -0.3601 -0.3892  0.6170
 2642SOL    HW1 8316   0.760   2.684   6.526 -0.8422  0.7480  0.6639
 2642SOL    HW2 8317   0.637   2.612   6.577 -0.7615  0.8397  0.9920
 2643SOL     OW 8318   1.875   1.662   4.823 -0.0287  0.2187  0.3532
 2643SOL    HW1 8319   1.864   1.742   4.770 -0.0724 -0.9294 -1.4552
 2643SOL    HW2 8320   1.802   1.665   4.885 -0.6905  1.0478 -0.4185
 2644SOL     OW 8321   5.841   3.100   4.766 -0.6789  0.1962 -0.0694
 2644SOL    HW1 8322   5.824   3.173   4.706 -0.9844 -1.4705 -2.1394
 2644SOL    HW2 8323   5.914   3.052   4.726 -2.6834 -2.5642 -0.7834
 2645SOL     OW 8324   4.484   4.264   2.001  0.1011 -0.2744 -0.1935
 2645SOL    HW1 8325   4.528   4.334   1.953 -0.4017 -0.1126 -0.4266
 2645SOL    HW2 8326   4.391   4.279   1.985 -0.1265  0.2146  1.4239
 2646SOL     OW 8327   0.762   1.052   4.392  0.2220 -0.1499 -0.7930
 2646SOL    HW1 8328   0.669   1.040   4.412  0.6474  1.2195  2.7899
 2646SOL    HW2 8329   0.788   0.971   4.347 -2.6428 -0.5669 -1.8775
 2647SOL     OW 8330   5.661   0.997   1.242 -0.1128 -0.0624  0.3016
 2647SOL    HW1 8331   5.577   1.029   1.275 -0.1937 -0.5217  0.5379
 2647SOL    HW2 8332   5.701   0.952   1.316  0.0262 -0.4698 -0.0198
 2648SOL     OW 8333   0.170   3.602   6.000 -0.2158 -0.1797  0.2378
 2648SOL    HW1 8334   0.246   3.551   5.973 -0.1693 -0.4493  0.8660
 2648SOL    HW2 8335   0.157   3.580   6.092 -0.9836 -0.0500  0.1714
 2649SOL     OW 8336   3.015   6.374   1.457 -0.2918 -0.0555  0.3708
 2649SOL    HW1 8337   3.049   6.452   1.413 -0.4907 -0.1489  0.0530
 2649SOL    HW2 8338   3.093   6.331   1.493 -0.2957  1.0235  1.7657
 2650SOL     OW 8339   0.336   4.216   1.447 -0.1353 -0.1026  0.3877
 2650SOL    HW1 8340   0.295   4.292   1.489 -0.3575 -0.4935  0.8782
 2650SOL    HW2 8341   0.416   4.201   1.497  0.5001  0.4988 -0.4066
 2651SOL     OW 8342   3.763   1.639   1.000 -0.5733 -0.2102 -0.0591
 2651SOL    HW1 8343   3.821   1.699   1.047 -0.0996 -0.2494 -0.5907
 2651SOL    HW2 8344   3.707   1.602   1.069 -0.6327  0.5649  0.3232
 2652SOL     OW 8345   3.742   6.577   0.577 -0.4884  0.4440 -0.0744
 2652SOL    HW1 8346   3.808   6.526   0.623  2.0833  2.7854 -0.8990
 2652SOL    HW2 8347   3.693   6.512   0.526 -0.6359 -1.6719  2.5483
 2653SOL     OW 8348   5.867   3.454   1.683 -0.5426  0.1240 -0.0890
 2653SOL    HW1 8349   5.784   3.467   1.729 -0.8071  0.5750 -0.6889
 2653SOL    HW2 8350   5.878   3.532   1.630 -0.7585 -0.8317 -1.6014
 2654SOL     OW 8351   0.392   5.948   2.994  0.2047 -0.1943 -0.0806
 2654SOL    HW1 8352   0.481   5.937   2.961  0.3436 -1.6151  0.6757
 2654SOL    HW2 8353   0.403   5.949   3.090 -0.5638 -0.1368  0.0082
 2655SOL     OW 8354   1.747   6.175   0.256 -0.3832  0.9839 -0.0416
 2655SOL    HW1 8355   1.831   6.152   0.217  0.3831  0.4176  1.8202
 2655SOL    HW2 8356   1.682   6.140   0.196  0.6903  1.4876 -1.5569
 2656SOL     OW 8357   2.775   6.507   5.979 -1.0405 -0.1928  0.2667
 2656SOL    HW1 8358   2.741   6.526   6.067 -2.3986  0.0386 -0.2914
 2656SOL    HW2 8359   2.783   6.593   5.938 -2.2626 -0.4166 -0.4856
 2657SOL     OW 8360   6.376   1.660   5.317  0.4642 -0.1263 -0.5472
 2657SOL    HW1 8361   6.459   1.707   5.310  0.9680 -1.0146 -0.7380
 2657SOL    HW2 8362   6.378   1.597   5.245 -0.7664  0.4113 -1.0789
 2658SOL     OW 8363   5.067   5.844   1.359 -0.6480 -0.3308  0.1218
 2658SOL    HW1 8364   5.057   5.780   1.289  2.0771  2.0509 -2.7581
 2658SOL    HW2 8365   5.004   5.913   1.338 -2.3843 -1.1249  2.2518
 2659SOL     OW 8366   4.506   1.956   4.001 -0.0014 -0.1565 -0.0288
 2659SOL    HW1 8367   4.480   1.882   3.946  0.6885  0.5262 -1.3466
 2659SOL    HW2 8368   4.429   2.012   4.005  0.4371  0.7058 -1.9492
 2660SOL     OW 8369   3.700   2.141   4.533  0.2069 -0.0522 -0.4074
 2660SOL    HW1 8370   3.609   2.125   4.509  0.7312 -1.5586 -1.5628
 2660SOL    HW2 8371   3.742   2.166   4.450  0.6944  1.4882  0.2703
 2661SOL     OW 8372   3.896   1.722   1.657 -0.0659 -0.0610 -0.0778
 2661SOL    HW1 8373   3.833   1.788   1.630  0.6663  1.5087  1.8221
 2661SOL    HW2 8374   3.978   1.746   1.615  0.4199  0.8338  1.2976
 2662SOL     OW 8375   0.173   1.635   5.353  0.2552  0.4230 -0.1078
 2662SOL    HW1 8376   0.257   1.637   5.306 -0.5362  0.8308 -1.5538
 2662SOL    HW2 8377   0.125   1.562   5.313 -0.1586  0.2992  0.5946
 2663SOL     OW 8378   5.814   2.542   3.579  0.0658 -0.1780  0.0328
 2663SOL    HW1 8379   5.893   2.535   3.526  0.2933  1.2812  0.1355
 2663SOL    HW2 8380   5.841   2.590   3.657 -0.6674 -0.6792  0.6095
 2664SOL     OW 8381   1.356   2.664   4.483 -0.0195  0.0772  0.4600
 2664SOL    HW1 8382   1.374   2.726   4.554  1.4599 -0.4328  0.5637
 2664SOL    HW2 8383   1.368   2.714   4.403  1.3875 -0.1028  0.5401
 2665SOL     OW 8384   1.535   0.470   0.740 -0.0167 -0.1962 -0.1260
 2665SOL    HW1 8385   1.478   0.542   0.767 -0.1602  0.1933 -1.4148
 2665SOL    HW2 8386   1.624   0.504   0.754 -0.0549  0.6634 -1.6634
 2666SOL     OW 8387   3.010   1.441   6.211  0.1833  0.5277  0.4196
 2666SOL    HW1 8388   3.029   1.527   6.248  0.4683  1.3998 -1.5863
 2666SOL    HW2 8389   3.030   1.450   6.118 -1.1802 -1.2991 -0.1216
 2667SOL     OW 8390   0.759   2.638   2.202 -0.2866 -0.1638  0.6361
 2667SOL    HW1 8391   0.823   2.581   2.244  1.2137  0.1941 -1.0649
 2667SOL    HW2 8392   0.677   2.618   2.247  0.9431 -0.7818  2.7511
 2668SOL     OW 8393   4.361   5.325   4.191 -0.4677  0.2615  0.3586
 2668SOL    HW1 8394   4.355   5.420   4.184  0.6264  0.3339  0.3619
 2668SOL    HW2 8395   4.308   5.304   4.268 -2.8892  0.5809 -1.1147
 2669SOL     OW 8396   1.456   3.080   2.869 -0.4207 -0.2869  0.5892
 2669SOL    HW1 8397   1.525   3.143   2.845 -0.2859 -1.4009 -2.2884
 2669SOL    HW2 8398   1.381   3.105   2.816 -0.9986 -1.4101  0.8440
 2670SOL     OW 8399   2.634   0.308   3.957 -0.3968 -0.9689  0.3614
 2670SOL    HW1 8400   2.680   0.307   3.872 -0.5805 -1.1682  0.2645
 2670SOL    HW2 8401   2.576   0.384   3.951  1.7919  0.9289  1.4869
 2671SOL     OW 8402   2.278   1.880   1.774  0.0381  0.3296 -0.0928
 2671SOL    HW1 8403   2.185   1.899   1.766 -0.4413 -1.5273  0.5049
 2671SOL    HW2 8404   2.318   1.963   1.801 -1.3535  1.2647 -0.8072
 2672SOL     OW 8405   2.660   4.455   4.579  0.1269  0.7554  0.0251
 2672SOL    HW1 8406   2.642   4.484   4.669  0.2998 -0.5331  0.4924
 2672SOL    HW2 8407   2.753   4.433   4.580 -0.0886 -0.1750 -0.2041
 2673SOL     OW 8408   4.937   0.093   1.186  0.0745 -0.2526 -0.0152
 2673SOL    HW1 8409   4.947   0.081   1.091  0.3322  2.8783 -0.4972
 2673SOL    HW2 8410   4.858   0.146   1.194  1.0409  1.0693  1.3186
 2674SOL     OW 8411   1.711   6.721   6.309 -0.2037 -0.6669 -0.1646
 2674SOL    HW1 8412   1.632   6.761   6.345  0.1122  0.0970 -0.2927
 2674SOL    HW2 8413   1.690   6.704   6.217  0.0861  0.4167 -0.4477
 2675SOL     OW 8414   0.263   3.459   6.602  0.0461 -0.0487 -0.5283
 2675SOL    HW1 8415   0.228   3.386   6.551 -0.5653  0.4603 -0.8374
 2675SOL    HW2 8416   0.302   3.417   6.680 -2.7504 -0.5377  0.7194
 2676SOL     OW 8417   2.163   4.393   1.869  0.6343  0.4729  0.2475
 2676SOL    HW1 8418   2.089   4.338   1.842  0.3662  0.6673  0.5788
 2676SOL    HW2 8419   2.183   4.446   1.792  0.3907  0.4603  0.1752
 2677SOL     OW 8420   1.536   2.728   5.814  0.2768  0.6950  0.0690
 2677SOL    HW1 8421   1.554   2.646   5.768  0.4666  1.1382 -0.6815
 2677SOL    HW2 8422   1.617   2.779   5.805 -0.4002  1.6572 -1.0355
 2678SOL     OW 8423   0.145   1.857   3.073 -0.3379  0.7333 -0.1888
 2678SOL    HW1 8424   0.117   1.947   3.083  1.7455  1.3843  0.4096
 2678SOL    HW2 8425   0.223   1.862   3.017 -0.1837 -0.6975 -0.1573
 2679SOL     OW 8426   5.958   1.274   4.424  0.2088 -0.0352 -0.1908
 2679SOL    HW1 8427   6.034   1.240   4.376 -0.3001 -1.2467 -0.1771
 2679SOL    HW2 8428   5.930   1.350   4.374  1.5340  0.5565 -0.0955
 2680SOL     OW 8429   0.851   5.346   2.899  0.0715  0.5144  0.0171
 2680SOL    HW1 8430   0.887   5.402   2.830  2.6368 -0.7728  0.1835
 2680SOL    HW2 8431   0.925   5.332   2.959 -0.8418 -1.9007  0.6874
 2681SOL     OW 8432   1.403   5.495   3.147 -0.1951 -0.3813 -0.3651
 2681SOL    HW1 8433   1.400   5.409   3.107 -1.7707 -0.9692  0.9341
 2681SOL    HW2 8434   1.424   5.478   3.239 -0.1709  0.6527 -0.1659
 2682SOL     OW 8435   0.952   1.248   3.007 -0.1315  0.2301  0.3699
 2682SOL    HW1 8436   1.028   1.194   3.028 -1.0725 -0.9615  0.7990
 2682SOL    HW2 8437   0.915   1.272   3.092 -0.7414  0.0612  0.1569
 2683SOL     OW 8438   3.912   0.755   0.390  0.2132  0.3235  0.2439
 2683SOL    HW1 8439   3.951   0.693   0.328  0.9275 -0.3597  1.3447
 2683SOL    HW2 8440   3.954   0.735   0.473 -1.7910  0.2109  1.2884
 2684SOL     OW 8441   6.333   3.161   6.583 -0.2049 -0.0544 -0.5634
 2684SOL    HW1 8442   6.407   3.120   6.538  0.0165 -0.9488  0.5443
 2684SOL    HW2 8443   6.268   3.175   6.515  0.0886 -1.4304 -1.1645
 2685SOL     OW 8444   5.371   3.309   0.482  0.4202  0.5001 -0.0413
 2685SOL    HW1 8445   5.351   3.312   0.576 -0.6764  0.9543 -0.2816
 2685SOL    HW2 8446   5.350   3.396   0.450 -0.2383  0.0411 -0.9123
 2686SOL     OW 8447   3.481   1.174   0.330 -0.2091 -0.5899  0.5965
 2686SOL    HW1 8448   3.568   1.136   0.320 -0.2786 -0.5239 -0.3629
 2686SOL    HW2 8449   3.422   1.111   0.288 -0.6615 -0.7308  1.4076
 2687SOL     OW 8450   2.842   6.419   3.229  0.3360 -0.1234 -0.1506
 2687SOL    HW1 8451   2.856   6.485   3.161 -0.1030 -0.9157 -1.0393
 2687SOL    HW2 8452   2.820   6.339   3.180 -1.9847 -0.2393  0.9389
 2688SOL     OW 8453   1.354   4.986   6.224 -0.0456 -0.0247  0.4600
 2688SOL    HW1 8454   1.318   4.962   6.310  1.3135  0.8867  1.3193
 2688SOL    HW2 8455   1.384   4.903   6.187 -1.6985 -0.5958  0.3302
 2689SOL     OW 8456   6.591   1.725   5.095 -0.1035  0.2666 -0.2230
 2689SOL    HW1 8457   6.637   1.800   5.057  1.9301 -1.8634 -2.3292
 2689SOL    HW2 8458   6.502   1.732   5.063  0.3446  1.1848 -1.3489
 2690SOL     OW 8459   6.067   3.659   5.358 -0.4261 -0.0808  0.1814
 2690SOL    HW1 8460   6.066   3.651   5.453  1.4310 -0.1132  0.2281
 2690SOL    HW2 8461   6.043   3.571   5.326 -0.4941 -0.2192  0.6130
 2691SOL     OW 8462   6.137   1.206   4.223 -0.9344  0.1533  0.2659
 2691SOL    HW1 8463   6.129   1.139   4.156 -2.5125  0.8394 -0.2826
 2691SOL    HW2 8464   6.107   1.286   4.181 -0.3383  0.9403  1.2916
 2692SOL     OW 8465   5.190   5.744   0.317  0.0112 -0.3002  0.3699
 2692SOL    HW1 8466   5.193   5.666   0.262  1.2082 -0.0866  0.1006
 2692SOL    HW2 8467   5.240   5.721   0.395 -0.7857 -0.2457  0.9093
 2693SOL     OW 8468   3.107   6.160   6.015  0.1106  0.8947  0.2353
 2693SOL    HW1 8469   3.199   6.181   6.035 -0.2747  1.6924  1.2882
 2693SOL    HW2 8470   3.077   6.109   6.090 -0.2755  0.5485 -0.1535
 2694SOL     OW 8471   6.461   0.628   5.382  0.4985 -0.5094  0.2444
 2694SOL    HW1 8472   6.386   0.569   5.372  0.3437 -0.3140  0.2356
 2694SOL    HW2 8473   6.422   0.715   5.386  0.5875 -0.5281  1.9918
 2695SOL     OW 8474   5.891   0.970   0.768  0.0710  0.0980 -0.1555
 2695SOL    HW1 8475   5.827   0.935   0.705  1.2327 -0.0470 -1.2926
 2695SOL    HW2 8476   5.841   0.979   0.849 -1.9935  2.0059 -1.4984
 2696SOL     OW 8477   3.644   3.319   1.784 -0.1014 -0.5636 -0.0615
 2696SOL    HW1 8478   3.723   3.286   1.827 -0.8364 -1.6085  0.5114
 2696SOL    HW2 8479   3.669   3.331   1.693  1.2377  0.8654  0.4509
 2697SOL     OW 8480   4.469   4.738   1.363  0.1744 -0.0009  0.2508
 2697SOL    HW1 8481   4.445   4.739   1.270 -0.9259 -0.1631  0.5209
 2697SOL    HW2 8482   4.554   4.782   1.366  0.0240  0.3928 -0.7805
 2698SOL     OW 8483   1.370   2.741   1.142 -0.0648 -0.8089 -0.0665
 2698SOL    HW1 8484   1.406   2.786   1.219 -0.1505 -1.4754  0.3717
 2698SOL    HW2 8485   1.447   2.702   1.100  0.0983  0.2571 -0.8101
 2699SOL     OW 8486   0.569   0.815   2.014  0.1798 -0.1496  0.3147
 2699SOL    HW1 8487   0.527   0.896   2.043 -0.3429 -0.4175  0.3156
 2699SOL    HW2 8488   0.513   0.782   1.944 -0.0925 -0.9506  0.8899
 2700SOL     OW 8489   4.603   6.271   3.485 -0.0130  0.1828 -0.4264
 2700SOL    HW1 8490   4.668   6.258   3.555  0.4299  2.6894 -0.2442
 2700SOL    HW2 8491   4.646   6.239   3.406  0.0408 -1.3747  0.2005
 2701SOL     OW 8492   4.259   0.689   2.603 -0.1963  0.1978 -0.1402
 2701SOL    HW1 8493   4.317   0.656   2.534  1.7170  1.7988  0.5718
 2701SOL    HW2 8494   4.257   0.618   2.667  2.5421  0.6903  0.6438
 2702SOL     OW 8495   1.146   1.620   0.874  0.1787 -0.0716  0.5954
 2702SOL    HW1 8496   1.107   1.650   0.792 -0.5816 -0.1904  0.9137
 2702SOL    HW2 8497   1.124   1.688   0.938 -0.2691 -0.5682  0.9756
 2703SOL     OW 8498   5.685   6.633   5.300 -0.1805  0.3386 -0.0582
 2703SOL    HW1 8499   5.742   6.694   5.254  0.0781 -0.6451 -1.1012
 2703SOL    HW2 8500   5.685   6.554   5.245 -0.2876 -0.7030  1.3802
 2704SOL     OW 8501   1.847   5.322   5.800  0.2868 -0.5221 -0.6765
 2704SOL    HW1 8502   1.936   5.348   5.777  0.6922 -0.2965  0.9882
 2704SOL    HW2 8503   1.795   5.343   5.723  1.4495  0.5862 -1.1937
 2705SOL     OW 8504   2.131   3.032   3.692  0.2986 -0.1287 -0.1317
 2705SOL    HW1 8505   2.172   2.948   3.715  1.1585  0.4446  0.5209
 2705SOL    HW2 8506   2.098   3.019   3.604  0.3042 -1.1951  0.0013
 2706SOL     OW 8507   1.759   0.776   2.043 -0.3522 -0.1994 -0.4746
 2706SOL    HW1 8508   1.736   0.814   2.128 -0.0932  0.2455 -0.6001
 2706SOL    HW2 8509   1.770   0.852   1.985 -1.1931 -0.5203 -1.0755
 2707SOL     OW 8510   0.030   2.576   6.444  0.1158 -0.3202 -0.1368
 2707SOL    HW1 8511   0.024   2.603   6.353 -0.8752 -1.9233 -0.5877
 2707SOL    HW2 8512   0.097   2.508   6.445  1.4940  0.9959  0.7018
 2708SOL     OW 8513   3.113   2.991   1.943  0.0635  0.1998 -0.7207
 2708SOL    HW1 8514   3.057   2.918   1.969 -0.6282  0.5724 -1.1510
 2708SOL    HW2 8515   3.186   2.988   2.006 -0.0555 -0.7296 -0.6093
 2709SOL     OW 8516   4.023   3.517   5.838 -0.1988 -0.2628  0.3887
 2709SOL    HW1 8517   4.077   3.496   5.762  0.3837  1.6490  0.2391
 2709SOL    HW2 8518   3.964   3.586   5.809 -0.9925 -0.5317  1.2804
 2710SOL     OW 8519   3.749   2.503   1.385  0.4891 -0.1147 -0.3674
 2710SOL    HW1 8520   3.804   2.502   1.463 -0.9592 -1.9596  0.7288
 2710SOL    HW2 8521   3.760   2.416   1.347  0.8697  0.6241 -2.0256
 2711SOL     OW 8522   3.157   1.401   5.162  0.4174 -0.7517 -0.2844
 2711SOL    HW1 8523   3.192   1.378   5.076  0.8266  1.8181 -0.8936
 2711SOL    HW2 8524   3.066   1.373   5.159  0.2224 -0.0561 -1.8685
 2712SOL     OW 8525   0.513   5.138   5.028  0.0031  0.3607  0.6420
 2712SOL    HW1 8526   0.608   5.150   5.030  0.0018  0.6017 -0.1505
 2712SOL    HW2 8527   0.486   5.142   5.119  0.9265 -1.1929  1.0192
 2713SOL     OW 8528   0.908   2.599   2.848  0.0677  0.4685 -0.4940
 2713SOL    HW1 8529   0.820   2.570   2.824  0.0834 -0.4565  0.4761
 2713SOL    HW2 8530   0.894   2.669   2.911  0.0346  0.8423 -0.9114
 2714SOL     OW 8531   4.846   1.889   2.989  0.1861 -0.3777  0.0475
 2714SOL    HW1 8532   4.834   1.952   2.918 -1.1683  1.8555  2.1399
 2714SOL    HW2 8533   4.885   1.939   3.060 -1.0579 -1.8594  1.8631
 2715SOL     OW 8534   5.462   4.846   5.686 -0.4738 -0.3546 -0.3401
 2715SOL    HW1 8535   5.452   4.837   5.781 -0.8973  2.1527 -0.0660
 2715SOL    HW2 8536   5.555   4.861   5.674 -0.3242 -1.2781 -0.4147
 2716SOL     OW 8537   2.190   5.346   1.817  0.4946  0.0397  0.2060
 2716SOL    HW1 8538   2.109   5.369   1.772 -0.2676 -1.3993  0.7822
 2716SOL    HW2 8539   2.175   5.373   1.908  0.1104 -1.4002  0.5990
 2717SOL     OW 8540   0.563   0.891   0.133  0.1727  0.6899 -0.8170
 2717SOL    HW1 8541   0.558   0.931   0.046 -0.7630  1.7094 -0.3240
 2717SOL    HW2 8542   0.484   0.922   0.178 -0.4360 -1.4662 -0.2717
 2718SOL     OW 8543   1.332   4.410   4.242 -0.3101  0.0892 -0.0769
 2718SOL    HW1 8544   1.338   4.380   4.333 -0.4966  1.6525  0.4783
 2718SOL    HW2 8545   1.240   4.431   4.229 -0.2180  0.2545 -0.5037
 2719SOL     OW 8546   4.482   6.245   0.204  0.3464  0.6134 -0.4629
 2719SOL    HW1 8547   4.413   6.268   0.142 -0.1074 -0.7676 -0.5207
 2719SOL    HW2 8548   4.455   6.284   0.287  1.1483  2.7992 -1.1685
 2720SOL     OW 8549   1.981   2.496   3.177  0.5026  0.3200 -0.1868
 2720SOL    HW1 8550   1.995   2.519   3.085 -0.5611  0.1667 -0.3940
 2720SOL    HW2 8551   1.951   2.577   3.218  0.7350  0.3253 -0.0245
 2721SOL     OW 8552   2.483   0.755   1.879  0.0542  0.0231 -1.0052
 2721SOL    HW1 8553   2.488   0.692   1.951 -2.1093  1.0858  0.1829
 2721SOL    HW2 8554   2.504   0.839   1.920 -2.4397  0.8305 -1.2675
 2722SOL     OW 8555   1.868   3.475   0.638 -0.2791  0.1247  0.2729
 2722SOL    HW1 8556   1.788   3.448   0.682 -0.3098  0.5540  0.4805
 2722SOL    HW2 8557   1.841   3.496   0.549 -0.4647  0.6400  0.4496
 2723SOL     OW 8558   6.272   0.985   2.747 -0.0438 -0.0064 -0.0663
 2723SOL    HW1 8559   6.297   0.915   2.807  2.0796  0.1984 -0.6355
 2723SOL    HW2 8560   6.349   0.997   2.691 -1.5950  0.4993 -2.1853
 2724SOL     OW 8561   5.513   4.911   1.075 -0.2010 -0.4342 -0.3545
 2724SOL    HW1 8562   5.553   4.948   1.154 -0.9088 -0.0225 -0.1765
 2724SOL    HW2 8563   5.498   4.819   1.098 -0.1313 -0.3889 -0.1175
 2725SOL     OW 8564   0.755   2.942   5.596  0.8337  0.1332 -0.1290
 2725SOL    HW1 8565   0.676   2.905   5.636 -0.0175  0.8131 -1.1064
 2725SOL    HW2 8566   0.792   2.870   5.545 -0.9329  0.5778 -2.2049
 2726SOL     OW 8567   5.757   5.534   5.165 -0.1470  0.4321  0.2689
 2726SOL    HW1 8568   5.713   5.518   5.081  3.9067 -0.3752 -1.9649
 2726SOL    HW2 8569   5.737   5.625   5.185  0.4850  1.3850 -2.8338
 2727SOL     OW 8570   6.574   3.455   3.179  0.4656  0.5452  0.1730
 2727SOL    HW1 8571   6.629   3.390   3.135  1.6605  0.9776  0.9732
 2727SOL    HW2 8572   6.528   3.405   3.247  1.0071  0.4437  0.4680
 2728SOL     OW 8573   0.994   6.100   5.802 -0.2483  0.3924 -0.7529
 2728SOL    HW1 8574   0.952   6.015   5.817 -0.3286  0.6267  0.3859
 2728SOL    HW2 8575   0.942   6.162   5.853  1.9557  0.5735  1.4660
 2729SOL     OW 8576   0.444   4.283   2.413 -0.3130  0.7033  0.6952
 2729SOL    HW1 8577   0.388   4.232   2.471 -2.5223  0.8120 -1.1814
 2729SOL    HW2 8578   0.431   4.374   2.440  1.8351  0.5642  2.5363
 2730SOL     OW 8579   2.493   5.613   2.566 -0.5189  0.0900 -0.5717
 2730SOL    HW1 8580   2.438   5.668   2.621 -1.5648 -0.7018 -0.7799
 2730SOL    HW2 8581   2.576   5.659   2.560 -0.7776  0.7611  0.6957
 2731SOL     OW 8582   0.387   3.824   1.692 -0.0613 -0.4638  0.1341
 2731SOL    HW1 8583   0.341   3.747   1.657 -0.7826 -1.4020  2.8797
 2731SOL    HW2 8584   0.451   3.787   1.752  0.6616  1.0674  0.3283
 2732SOL     OW 8585   5.285   5.187   2.761  0.6292 -0.1248  0.3105
 2732SOL    HW1 8586   5.194   5.215   2.770  0.1100 -1.0063 -1.6924
 2732SOL    HW2 8587   5.282   5.113   2.701  2.5325 -1.1402  1.3728
 2733SOL     OW 8588   0.728   6.004   5.406 -0.0215  0.1875  0.5463
 2733SOL    HW1 8589   0.747   5.980   5.497  0.1675  0.4756  0.5845
 2733SOL    HW2 8590   0.812   5.999   5.361 -0.0338  0.4807  0.4869
 2734SOL     OW 8591   4.151   2.244   2.463  0.3654  0.2505 -0.9201
 2734SOL    HW1 8592   4.081   2.305   2.485  0.1252 -0.2206 -0.3114
 2734SOL    HW2 8593   4.136   2.169   2.522  0.1157 -0.7881 -2.2586
 2735SOL     OW 8594   4.318   1.776   3.581  0.0479 -0.1196  0.0513
 2735SOL    HW1 8595   4.361   1.768   3.496 -1.0503 -0.5212 -0.4743
 2735SOL    HW2 8596   4.274   1.692   3.594 -3.1921  1.2727 -0.8888
 2736SOL     OW 8597   5.098   6.185   5.805  0.3993  0.0577  0.2346
 2736SOL    HW1 8598   5.054   6.270   5.805 -1.6868 -0.9561  0.4591
 2736SOL    HW2 8599   5.046   6.131   5.865  0.5613 -1.8938 -1.2835
 2737SOL     OW 8600   1.315   1.976   6.410 -0.3902  0.7948 -0.1939
 2737SOL    HW1 8601   1.403   1.949   6.437  0.3778  0.1924 -2.9914
 2737SOL    HW2 8602   1.329   2.026   6.329 -2.6616 -0.2488 -1.3288
 2738SOL     OW 8603   6.500   6.382   3.987  0.5169  0.4980  0.7316
 2738SOL    HW1 8604   6.520   6.325   3.913 -1.7920  0.6130 -0.0647
 2738SOL    HW2 8605   6.580   6.382   4.040  1.2656 -1.8363 -0.2779
 2739SOL     OW 8606   1.098   6.362   5.012 -0.0454  0.1612  0.1271
 2739SOL    HW1 8607   1.010   6.324   5.011 -0.4169  0.9606 -1.2766
 2739SOL    HW2 8608   1.124   6.363   4.920  0.4184  2.1810  0.2291
 2740SOL     OW 8609   3.952   2.179   5.433 -0.4418 -0.3956  0.0358
 2740SOL    HW1 8610   3.990   2.166   5.520  0.0144  0.1297 -0.0822
 2740SOL    HW2 8611   4.007   2.245   5.392 -1.3342  0.1908 -0.2381
 2741SOL     OW 8612   0.715   4.919   1.258 -0.2782 -0.1814 -0.4270
 2741SOL    HW1 8613   0.799   4.890   1.224  0.9173  2.1210  0.3322
 2741SOL    HW2 8614   0.659   4.925   1.181  0.2129 -1.8108 -0.9360
 2742SOL     OW 8615   6.465   5.544   6.390 -0.4948  0.0396  0.5260
 2742SOL    HW1 8616   6.522   5.565   6.464  0.9078  1.6921 -0.9433
 2742SOL    HW2 8617   6.461   5.449   6.389  3.6029 -0.3079 -0.2118
 2743SOL     OW 8618   2.292   2.183   0.128  0.3378 -0.4522  0.2942
 2743SOL    HW1 8619   2.360   2.128   0.088  0.0428  0.6140 -1.7855
 2743SOL    HW2 8620   2.213   2.129   0.127 -0.0690  0.1056 -2.1981
 2744SOL     OW 8621   2.113   5.049   5.209  0.4127 -0.4774  0.0778
 2744SOL    HW1 8622   2.035   5.011   5.248  1.3137  0.1980  2.7489
 2744SOL    HW2 8623   2.186   5.007   5.256  1.5699  0.8210 -0.4952
 2745SOL     OW 8624   3.839   3.704   5.424 -0.2318 -0.0712 -0.0087
 2745SOL    HW1 8625   3.818   3.798   5.422 -0.8164 -0.2044 -0.3509
 2745SOL    HW2 8626   3.907   3.696   5.491  1.7382  0.9667 -1.7656
 2746SOL     OW 8627   5.972   3.058   1.931 -0.0736  0.2646 -0.2059
 2746SOL    HW1 8628   5.972   3.126   1.998 -0.1358  0.1255 -0.0647
 2746SOL    HW2 8629   5.880   3.047   1.909 -0.0033  0.7628 -0.7754
 2747SOL     OW 8630   6.309   5.913   6.719 -0.9125  0.7393  0.1377
 2747SOL    HW1 8631   6.390   5.873   6.686  0.2825  1.6137  1.8109
 2747SOL    HW2 8632   6.288   5.982   6.656  0.2330  1.1347  0.1582
 2748SOL     OW 8633   5.049   5.367   3.757  0.5422  0.5058 -0.2915
 2748SOL    HW1 8634   5.057   5.408   3.671  0.6272  0.5707 -0.2521
 2748SOL    HW2 8635   5.093   5.427   3.817  0.3591  0.5314 -0.1799
 2749SOL     OW 8636   5.061   0.963   3.731 -0.1266 -0.3748  0.5141
 2749SOL    HW1 8637   5.043   0.924   3.645 -0.8882 -1.3068  1.0696
 2749SOL    HW2 8638   5.109   0.895   3.779  1.5569  0.6621  0.3785
 2750SOL     OW 8639   0.947   3.023   1.160 -0.0349 -0.3280  0.0388
 2750SOL    HW1 8640   0.860   3.060   1.172 -0.5428 -1.6008  0.3896
 2750SOL    HW2 8641   0.956   2.959   1.231  0.5663 -1.3477 -0.9305
 2751SOL     OW 8642   3.913   2.513   0.096 -0.2136 -0.4155 -0.1352
 2751SOL    HW1 8643   3.871   2.484   0.177 -0.6690  1.2217  0.2514
 2751SOL    HW2 8644   3.936   2.604   0.112 -0.9287  0.1639 -2.0717
 2752SOL     OW 8645   1.680   5.125   1.707 -0.1557 -0.1255  0.0348
 2752SOL    HW1 8646   1.736   5.047   1.703  0.3655  0.2729 -2.9922
 2752SOL    HW2 8647   1.599   5.098   1.665 -1.7950 -0.2239  2.9774
 2753SOL     OW 8648   5.851   5.490   1.762  0.3694  0.0656 -0.8153
 2753SOL    HW1 8649   5.935   5.527   1.737  1.0953 -2.0952 -1.8388
 2753SOL    HW2 8650   5.871   5.401   1.792 -1.5566 -0.6822 -1.5530
 2754SOL     OW 8651   0.865   6.146   4.451 -0.1419 -0.1120 -0.3722
 2754SOL    HW1 8652   0.851   6.240   4.444  0.9166  0.0123 -1.0765
 2754SOL    HW2 8653   0.778   6.108   4.440 -0.7072  0.7971  0.7155
 2755SOL     OW 8654   4.380   4.005   4.137  0.0619 -0.2532 -0.1561
 2755SOL    HW1 8655   4.371   4.061   4.213  1.6919 -0.9430  0.6011
 2755SOL    HW2 8656   4.464   4.030   4.098  0.4015 -1.5454 -0.3084
 2756SOL     OW 8657   5.197   6.224   6.766 -0.2874 -0.3871  0.2697
 2756SOL    HW1 8658   5.224   6.295   6.825  0.0164 -0.4943  0.2577
 2756SOL    HW2 8659   5.108   6.202   6.795 -0.0005 -0.6973  0.9334
 2757SOL     OW 8660   0.044   6.616   0.256 -0.3198  0.6696 -0.2670
 2757SOL    HW1 8661   0.120   6.559   0.268  0.0093  1.4622  1.8372
 2757SOL    HW2 8662  -0.029   6.568   0.294 -0.2725  1.1125  0.4084
 2758SOL     OW 8663   1.963   5.015   1.865  0.2439  0.5512 -0.7993
 2758SOL    HW1 8664   2.001   5.053   1.945  0.2270 -1.1857  0.0863
 2758SOL    HW2 8665   2.025   5.037   1.796  1.5313  0.0318  0.1493
 2759SOL     OW 8666   4.937   2.664   3.796 -0.2773 -0.2088 -0.6594
 2759SOL    HW1 8667   4.997   2.739   3.802 -1.7321  0.9314  0.4780
 2759SOL    HW2 8668   4.956   2.612   3.874 -0.3812 -0.1535 -0.5974
 2760SOL     OW 8669   3.821   5.483   6.668 -0.5872 -0.1845  0.0551
 2760SOL    HW1 8670   3.777   5.438   6.596 -0.7449 -2.5406  1.5346
 2760SOL    HW2 8671   3.907   5.442   6.673 -1.1289 -1.1978  2.1401
 2761SOL     OW 8672   1.206   6.753   1.689 -0.7051 -0.3032 -0.6088
 2761SOL    HW1 8673   1.235   6.794   1.771 -0.0446 -0.8445 -0.5675
 2761SOL    HW2 8674   1.135   6.695   1.716  0.2063 -1.2875 -0.2367
 2762SOL     OW 8675   0.689   0.304   1.774  0.4842  0.0524 -0.2894
 2762SOL    HW1 8676   0.636   0.234   1.738 -2.0615  2.4149 -1.4646
 2762SOL    HW2 8677   0.730   0.345   1.698  1.7922  0.0091  0.3573
 2763SOL     OW 8678   6.450   5.191   0.581 -0.3343 -0.4845  0.0036
 2763SOL    HW1 8679   6.422   5.282   0.572 -0.0692 -0.1703  1.9301
 2763SOL    HW2 8680   6.530   5.184   0.528  0.4027  0.7861  0.9086
 2764SOL     OW 8681   2.515   0.395   4.432 -0.1668 -0.3857 -0.1146
 2764SOL    HW1 8682   2.449   0.453   4.396 -0.9218 -0.8768  0.4287
 2764SOL    HW2 8683   2.593   0.411   4.380 -0.5881  0.5290 -0.4828
 2765SOL     OW 8684   6.387   5.128   2.539 -0.0982 -0.1257  0.3927
 2765SOL    HW1 8685   6.439   5.090   2.610 -1.1731 -0.1512  1.1863
 2765SOL    HW2 8686   6.307   5.159   2.582 -1.4492 -1.5132 -1.0207
 2766SOL     OW 8687   4.914   6.420   0.449  0.5091  0.0831  0.3338
 2766SOL    HW1 8688   4.866   6.353   0.400  1.0807  0.9793 -1.5401
 2766SOL    HW2 8689   4.846   6.472   0.492  0.0044 -0.8205  0.6480
 2767SOL     OW 8690   6.041   2.573   0.225  0.9291 -0.3152  0.0393
 2767SOL    HW1 8691   6.011   2.638   0.162  3.2663 -0.3199 -1.1944
 2767SOL    HW2 8692   6.045   2.491   0.176  0.8747 -0.7542  0.7528
 2768SOL     OW 8693   0.289   2.431   5.246 -0.2491 -0.1957  0.1133
 2768SOL    HW1 8694   0.312   2.488   5.319  0.9378  0.3632 -0.6628
 2768SOL    HW2 8695   0.369   2.382   5.227 -0.9577 -1.4100  0.1082
 2769SOL     OW 8696   4.993   3.817   0.257  0.0324 -0.4228  0.2378
 2769SOL    HW1 8697   4.977   3.772   0.340  0.5994 -0.8967  0.0913
 2769SOL    HW2 8698   5.026   3.903   0.283 -1.2609  0.0176  0.5214
 2770SOL     OW 8699   4.840   0.793   0.288  0.0951 -0.5426  0.1518
 2770SOL    HW1 8700   4.777   0.862   0.265  1.3270  0.8467  0.7615
 2770SOL    HW2 8701   4.910   0.803   0.223  0.5500 -0.8454  0.5949
 2771SOL     OW 8702   3.494   0.693   6.082 -0.5107  0.2313 -0.0050
 2771SOL    HW1 8703   3.548   0.714   6.006 -0.7865  0.8959 -0.0293
 2771SOL    HW2 8704   3.413   0.658   6.045 -0.8775  1.1002 -0.0520
 2772SOL     OW 8705   5.480   1.747   1.351 -0.2025  0.2097  0.1806
 2772SOL    HW1 8706   5.490   1.814   1.283  1.0486  0.6863  0.8022
 2772SOL    HW2 8707   5.569   1.715   1.367 -0.6642 -0.9417  0.5696
 2773SOL     OW 8708   5.745   2.187   3.285 -0.6644 -0.2092 -0.0411
 2773SOL    HW1 8709   5.779   2.247   3.218  1.4049  0.6677  1.6833
 2773SOL    HW2 8710   5.777   2.101   3.258  0.5424  0.2016  0.0142
 2774SOL     OW 8711   6.638   5.937   4.713  0.1591  0.6428 -0.6716
 2774SOL    HW1 8712   6.674   5.856   4.751  0.6224  0.3773 -1.6601
 2774SOL    HW2 8713   6.715   5.990   4.692 -0.1468  1.4532  0.1699
 2775SOL     OW 8714   0.024   4.148   6.711  0.2821  0.1771  0.1179
 2775SOL    HW1 8715   0.030   4.105   6.625 -0.3793 -1.4345  0.8254
 2775SOL    HW2 8716   0.110   4.133   6.750  0.4259  0.4950 -0.0721
 2776SOL     OW 8717   4.582   5.891   6.179  0.0403 -0.1291 -0.0806
 2776SOL    HW1 8718   4.551   5.853   6.097 -1.0179 -0.7910  0.6018
 2776SOL    HW2 8719   4.583   5.986   6.163  0.9097 -0.2983 -1.1893
 2777SOL     OW 8720   3.969   3.614   6.736 -0.1098  0.4168  0.6620
 2777SOL    HW1 8721   3.885   3.644   6.770 -0.1387  0.4481  0.5636
 2777SOL    HW2 8722   3.952   3.598   6.643 -0.4896 -1.3122  0.9858
 2778SOL     OW 8723   4.666   5.117   1.256  0.1351  0.4929  0.2856
 2778SOL    HW1 8724   4.677   5.154   1.343  0.6246  1.3547 -0.1283
 2778SOL    HW2 8725   4.664   5.023   1.270  2.4864  0.5062  1.0078
 2779SOL     OW 8726   6.141   4.143   5.528 -0.5547 -0.3443  0.0466
 2779SOL    HW1 8727   6.110   4.189   5.607 -1.1588  0.3956 -0.6053
 2779SOL    HW2 8728   6.061   4.113   5.486 -0.3116  0.2517 -0.8654
 2780SOL     OW 8729   0.434   1.905   3.048  0.5349  0.6208  0.4022
 2780SOL    HW1 8730   0.430   1.952   3.131  2.9071 -0.3288  1.1217
 2780SOL    HW2 8731   0.420   1.973   2.982 -1.2880  1.4047  1.5270
 2781SOL     OW 8732   4.893   2.642   5.541  0.3486 -0.4090 -0.1148
 2781SOL    HW1 8733   4.872   2.719   5.594  0.4327 -0.5818  0.1714
 2781SOL    HW2 8734   4.988   2.642   5.535  0.3310 -0.2851 -0.4264
 2782SOL     OW 8735   5.653   0.805   5.056  0.2064 -0.8406  0.9574
 2782SOL    HW1 8736   5.723   0.816   5.120  0.5501  1.6529  0.2912
 2782SOL    HW2 8737   5.575   0.840   5.100  0.4379  0.8590  0.1297
 2783SOL     OW 8738   1.625   5.285   2.907 -0.4477 -0.4787  0.1849
 2783SOL    HW1 8739   1.533   5.312   2.902 -0.5799 -1.1716 -2.1167
 2783SOL    HW2 8740   1.670   5.343   2.846  0.4039 -1.1326  0.1831
 2784SOL     OW 8741   5.880   4.602   2.688 -0.1842 -0.1856 -0.1832
 2784SOL    HW1 8742   5.862   4.596   2.782  0.7349  0.2097  0.0261
 2784SOL    HW2 8743   5.841   4.522   2.651 -1.0540 -0.0602  0.4430
 2785SOL     OW 8744   1.940   4.986   4.542 -0.4396 -0.0952 -0.2845
 2785SOL    HW1 8745   1.923   4.892   4.533  0.8718 -0.4543  0.6771
 2785SOL    HW2 8746   1.997   4.992   4.618 -0.0169  1.4361 -0.7017
 2786SOL     OW 8747   3.880   3.083   6.562 -0.1893 -0.0202  0.0056
 2786SOL    HW1 8748   3.859   3.104   6.653  1.9819  1.2194  0.2938
 2786SOL    HW2 8749   3.955   3.138   6.542  0.2526 -1.2944 -2.1112
 2787SOL     OW 8750   2.185   4.847   2.421  0.3607  0.0143  0.4076
 2787SOL    HW1 8751   2.235   4.879   2.497  0.8090 -0.9777  0.5456
 2787SOL    HW2 8752   2.172   4.754   2.438  0.9248 -0.3444 -0.9797
 2788SOL     OW 8753   2.828   0.447   1.085 -0.4991 -0.5388 -0.5186
 2788SOL    HW1 8754   2.756   0.506   1.068 -0.6763 -0.0704  1.5704
 2788SOL    HW2 8755   2.854   0.414   0.999 -0.6777  2.2195 -1.7121
 2789SOL     OW 8756   5.229   4.539   1.331  0.2827  0.4848 -0.1885
 2789SOL    HW1 8757   5.217   4.475   1.261 -0.1449 -0.2140  0.5210
 2789SOL    HW2 8758   5.305   4.591   1.303 -0.6454  1.0540 -1.7955
 2790SOL     OW 8759   2.891   2.996   1.429 -0.2301 -0.4057  0.4906
 2790SOL    HW1 8760   2.880   2.927   1.495 -1.9371  0.0146  0.6954
 2790SOL    HW2 8761   2.874   3.077   1.477 -0.6805 -0.0309 -0.2924
 2791SOL     OW 8762   1.088   6.640   4.843 -0.2169  0.0348  0.1824
 2791SOL    HW1 8763   1.161   6.595   4.886  1.2941  0.6792 -1.5478
 2791SOL    HW2 8764   1.083   6.599   4.756  0.7193  2.5985 -1.1850
 2792SOL     OW 8765   4.462   1.170   5.633 -0.1061 -0.2435 -0.0317
 2792SOL    HW1 8766   4.383   1.194   5.584  0.7609  1.3351 -0.7416
 2792SOL    HW2 8767   4.459   1.224   5.712 -0.3966 -1.1845  0.6229
 2793SOL     OW 8768   3.122   3.931   3.538  0.3633  0.2414  0.3899
 2793SOL    HW1 8769   3.178   3.910   3.463  0.6358  1.7007  0.1510
 2793SOL    HW2 8770   3.184   3.956   3.608  0.1215 -1.2434  1.1831
 2794SOL     OW 8771   2.655   1.395   2.170  0.1747  0.2534  0.0626
 2794SOL    HW1 8772   2.680   1.482   2.138  1.8652 -0.1913  0.0496
 2794SOL    HW2 8773   2.736   1.344   2.166 -0.6614 -1.1798  0.5676
 2795SOL     OW 8774   1.968   3.071   5.829  0.2397 -0.2293 -0.3064
 2795SOL    HW1 8775   1.977   3.070   5.734  2.2683 -1.1356 -0.1444
 2795SOL    HW2 8776   1.931   3.157   5.849 -0.4369 -0.1115 -1.9000
 2796SOL     OW 8777   0.673   1.150   4.627  0.2927  0.3796 -0.0132
 2796SOL    HW1 8778   0.637   1.235   4.602  1.5221  0.7125 -0.7747
 2796SOL    HW2 8779   0.738   1.131   4.559  0.9727 -0.5334  0.8621
 2797SOL     OW 8780   1.701   5.054   6.139  0.1780  0.1129 -0.5805
 2797SOL    HW1 8781   1.669   5.139   6.107  3.8424  1.3465 -1.5279
 2797SOL    HW2 8782   1.753   5.020   6.067  0.6508 -1.8601  0.6296
 2798SOL     OW 8783   3.666   0.230   2.321  0.1593 -0.0613  0.5361
 2798SOL    HW1 8784   3.599   0.270   2.376 -2.0450 -1.8812 -0.6474
 2798SOL    HW2 8785   3.671   0.287   2.244  0.2600  0.2829  0.7954
 2799SOL     OW 8786   4.367   2.995   2.458 -1.0701 -0.2117  0.3905
 2799SOL    HW1 8787   4.438   3.052   2.488 -0.8370  0.6807 -1.6724
 2799SOL    HW2 8788   4.287   3.040   2.483 -0.9237 -0.5611  1.5422
 2800SOL     OW 8789   1.510   1.641   0.029  0.3792 -0.1760 -0.1298
 2800SOL    HW1 8790   1.500   1.726  -0.013 -2.3062  0.4180  1.4961
 2800SOL    HW2 8791   1.480   1.578  -0.037  0.1725  0.3478 -0.5433
 2801SOL     OW 8792   3.625   6.004   3.345  0.2154  0.7524  0.1461
 2801SOL    HW1 8793   3.689   6.069   3.374  1.5944 -0.3075 -0.4478
 2801SOL    HW2 8794   3.545   6.055   3.332  1.1732  2.2912 -0.0477
 2802SOL     OW 8795   4.879   5.347   1.427 -0.4594 -0.7219  0.0388
 2802SOL    HW1 8796   4.961   5.373   1.386 -0.7410 -1.7907 -1.2843
 2802SOL    HW2 8797   4.848   5.425   1.472  1.3910 -0.3642  0.7812
 2803SOL     OW 8798   2.728   5.759   1.992 -0.2506  0.5804 -0.8586
 2803SOL    HW1 8799   2.701   5.685   1.938 -0.0724 -0.1184 -0.0232
 2803SOL    HW2 8800   2.665   5.761   2.064  2.0198 -1.3730  1.3829
 2804SOL     OW 8801   2.900   2.834   2.635 -0.1878 -0.2974  0.3054
 2804SOL    HW1 8802   2.976   2.844   2.577 -0.3931  0.3116  0.1322
 2804SOL    HW2 8803   2.930   2.777   2.705  0.7603  0.7645  0.8030
 2805SOL     OW 8804   5.282   6.149   0.329 -1.1563 -0.0353 -0.0077
 2805SOL    HW1 8805   5.287   6.221   0.267 -0.3667  0.2747  0.3931
 2805SOL    HW2 8806   5.271   6.071   0.276  0.3954  0.1215 -0.6162
 2806SOL     OW 8807   3.712   6.315   4.147 -0.8870 -0.7901  0.5380
 2806SOL    HW1 8808   3.789   6.260   4.160 -0.0234  0.2520 -0.0276
 2806SOL    HW2 8809   3.744   6.405   4.161 -1.7454 -0.2637 -0.7282
 2807SOL     OW 8810   0.987   0.305   2.808  0.0995 -0.0824 -0.1287
 2807SOL    HW1 8811   1.006   0.249   2.884 -0.5032 -1.2835 -0.8306
 2807SOL    HW2 8812   0.893   0.324   2.816  0.0220 -0.2588 -0.5932
 2808SOL     OW 8813   3.639   0.848   6.263  0.1858 -0.1091 -0.0525
 2808SOL    HW1 8814   3.602   0.771   6.220  0.2545  1.0292 -2.2872
 2808SOL    HW2 8815   3.575   0.918   6.246  0.4058  0.4818  1.4200
 2809SOL     OW 8816   5.931   0.188   3.403  0.3991 -0.0561 -0.1032
 2809SOL    HW1 8817   6.004   0.196   3.342  1.7918 -2.3569  1.1001
 2809SOL    HW2 8818   5.954   0.243   3.477  1.2112 -1.1613  0.4911
 2810SOL     OW 8819   4.377   4.612   4.148  0.4169  0.0961 -0.0284
 2810SOL    HW1 8820   4.344   4.579   4.232  0.3254  1.2433  0.4003
 2810SOL    HW2 8821   4.367   4.538   4.088 -2.1507  0.0793  0.2833
 2811SOL     OW 8822   2.575   2.977   1.154 -0.1763  0.2977  0.0759
 2811SOL    HW1 8823   2.661   3.017   1.145  0.1233 -0.3451  0.0732
 2811SOL    HW2 8824   2.592   2.891   1.191 -0.8327  0.2264  0.2302
 2812SOL     OW 8825   6.792   2.559   5.442  0.4918  0.0809 -0.4455
 2812SOL    HW1 8826   6.722   2.585   5.502 -1.6111 -1.7265 -1.9058
 2812SOL    HW2 8827   6.835   2.486   5.486 -1.5329 -1.7441 -1.2613
 2813SOL     OW 8828   2.278   2.934   1.394  0.0900 -0.1525 -0.1711
 2813SOL    HW1 8829   2.277   3.015   1.343  0.9729 -0.0094  0.0270
 2813SOL    HW2 8830   2.209   2.946   1.459  1.3511  1.1760  0.9639
 2814SOL     OW 8831   2.072   1.560   4.979 -0.0887 -0.4264 -0.3594
 2814SOL    HW1 8832   2.152   1.612   4.977  0.4996 -1.3252 -1.4670
 2814SOL    HW2 8833   2.011   1.607   4.921  0.4007 -0.8747 -1.2641
 2815SOL     OW 8834   1.034   4.220   2.224 -0.2026  0.1024  0.0356
 2815SOL    HW1 8835   1.099   4.232   2.293 -0.5127  0.2950  0.2960
 2815SOL    HW2 8836   1.069   4.269   2.149  0.7466 -1.1300 -0.3599
 2816SOL     OW 8837   5.951   6.404   5.842 -0.2850 -0.0243  0.0103
 2816SOL    HW1 8838   5.921   6.483   5.886  0.2877  0.9227 -1.2282
 2816SOL    HW2 8839   5.917   6.412   5.753  2.1655  0.2924 -0.9709
 2817SOL     OW 8840   4.199   4.838   0.795  0.2032 -0.2647  0.0434
 2817SOL    HW1 8841   4.279   4.883   0.769 -0.0090 -1.3038 -2.7095
 2817SOL    HW2 8842   4.137   4.907   0.815  0.4929  0.6782 -2.1030
 2818SOL     OW 8843   4.816   0.067   5.401  0.3435  0.3895 -0.3018
 2818SOL    HW1 8844   4.792   0.140   5.343 -0.5033 -0.1100 -0.5951
 2818SOL    HW2 8845   4.881   0.104   5.461  1.4276  0.8644 -1.7116
 2819SOL     OW 8846   0.962   5.954   4.830 -0.1139 -0.7325  0.2273
 2819SOL    HW1 8847   0.936   5.921   4.744  0.8324 -1.9343  0.3883
 2819SOL    HW2 8848   0.891   5.928   4.889 -0.1383 -1.0555  0.0547
 2820SOL     OW 8849   2.262   1.254   4.395  0.1067  0.1345  0.5485
 2820SOL    HW1 8850   2.240   1.343   4.365  1.5422  0.2550 -0.2462
 2820SOL    HW2 8851   2.190   1.230   4.453 -0.9828  1.3024 -0.2545
 2821SOL     OW 8852   0.240   6.200   0.608  0.5068  0.0010 -0.0507
 2821SOL    HW1 8853   0.296   6.127   0.632  1.6736 -0.0800 -2.6945
 2821SOL    HW2 8854   0.153   6.162   0.599  0.8459 -0.7866 -0.0930
 2822SOL     OW 8855   3.011   4.426   6.101 -0.1429  0.1638  0.2409
 2822SOL    HW1 8856   2.954   4.501   6.118 -1.5350 -0.9465  0.6438
 2822SOL    HW2 8857   2.969   4.380   6.028  0.5024 -0.4087  0.2242
 2823SOL     OW 8858   4.128   3.780   2.574  0.7524  0.2164 -0.0983
 2823SOL    HW1 8859   4.069   3.759   2.501  0.7946  0.0825 -0.0945
 2823SOL    HW2 8860   4.078   3.757   2.652  0.7203  0.3265 -0.0868
 2824SOL     OW 8861   1.763   3.915   4.537  0.2472 -0.0857 -0.3165
 2824SOL    HW1 8862   1.777   4.009   4.520 -0.3312 -0.3657 -2.6645
 2824SOL    HW2 8863   1.668   3.906   4.540  0.3007 -0.6390 -0.2949
 2825SOL     OW 8864   5.785   1.770   2.620  0.0093 -0.0703  0.0149
 2825SOL    HW1 8865   5.783   1.781   2.715  0.3359 -2.4681  0.3671
 2825SOL    HW2 8866   5.852   1.703   2.605  0.3276  0.6284 -1.9604
 2826SOL     OW 8867   4.119   6.007   3.199 -0.1213  0.3048 -0.1069
 2826SOL    HW1 8868   4.079   6.019   3.285 -1.7825 -1.3664 -0.5475
 2826SOL    HW2 8869   4.211   5.991   3.217 -0.4011  0.1533  1.3533
 2827SOL     OW 8870   3.035   4.364   4.203  0.2427  0.0270 -0.1670
 2827SOL    HW1 8871   3.088   4.439   4.229 -2.2821  1.5447  1.0352
 2827SOL    HW2 8872   2.946   4.387   4.231 -0.6940 -3.3387  0.0085
 2828SOL     OW 8873   2.854   2.547   2.395 -0.1471 -0.0648 -0.1642
 2828SOL    HW1 8874   2.771   2.577   2.433  1.1343  0.2990  2.6053
 2828SOL    HW2 8875   2.841   2.453   2.380 -1.0454 -0.0140  0.2383
 2829SOL     OW 8876   5.540   1.784   4.998  0.3735  0.6447 -0.0781
 2829SOL    HW1 8877   5.457   1.830   5.009 -0.6398 -0.9704 -0.5319
 2829SOL    HW2 8878   5.591   1.808   5.075  0.0135  2.6739 -0.4102
 2830SOL     OW 8879   2.475   3.479   1.665 -0.3180  0.3163 -0.0982
 2830SOL    HW1 8880   2.548   3.445   1.613  1.0555  0.6322  1.5582
 2830SOL    HW2 8881   2.439   3.402   1.709  0.3606  0.4434  0.6952
 2831SOL     OW 8882   5.913   6.101   5.470  0.2846 -0.0837 -0.0095
 2831SOL    HW1 8883   6.006   6.126   5.466  0.0479  0.9376  0.6354
 2831SOL    HW2 8884   5.888   6.115   5.561 -0.2488 -1.3391  0.0550
 2832SOL     OW 8885   3.160   1.597   0.718 -0.2268  0.3394 -0.3201
 2832SOL    HW1 8886   3.067   1.578   0.708  0.2099 -2.2152 -0.3457
 2832SOL    HW2 8887   3.203   1.513   0.701  1.9549  0.9567  1.6026
 2833SOL     OW 8888   4.796   5.013   2.694 -0.4904  0.0937  0.6245
 2833SOL    HW1 8889   4.758   4.966   2.768  2.2309 -1.8275  0.9897
 2833SOL    HW2 8890   4.759   5.101   2.698 -0.7956 -0.0866  3.9977
 2834SOL     OW 8891   2.043   3.737   1.784  0.0334 -0.0335 -0.2525
 2834SOL    HW1 8892   2.008   3.672   1.845 -0.5329 -0.7208 -1.2629
 2834SOL    HW2 8893   1.993   3.722   1.703  1.1707  0.4318 -1.0644
 2835SOL     OW 8894   0.968   0.122   1.552 -0.0473  0.1895 -0.0377
 2835SOL    HW1 8895   1.024   0.053   1.515  1.2055  0.6676  0.9121
 2835SOL    HW2 8896   1.028   0.183   1.593 -1.2600  0.8437  0.8456
 2836SOL     OW 8897   1.269   3.785   5.201 -0.3443  0.1465  0.5058
 2836SOL    HW1 8898   1.209   3.847   5.242 -2.1262  0.2732 -2.0100
 2836SOL    HW2 8899   1.215   3.708   5.184  0.2750  0.0931 -1.4333
 2837SOL     OW 8900   0.532   2.952   4.250  0.1973 -0.2916  0.1319
 2837SOL    HW1 8901   0.445   2.919   4.273 -0.1335 -0.9821 -1.9847
 2837SOL    HW2 8902   0.575   2.879   4.206  1.9137  0.0154  1.2127
 2838SOL     OW 8903   1.139   4.350   1.968  0.3001 -0.4254 -0.1135
 2838SOL    HW1 8904   1.190   4.306   1.901  0.9676 -0.2440  0.2627
 2838SOL    HW2 8905   1.204   4.399   2.019 -0.4826  1.6202 -0.9812
 2839SOL     OW 8906   4.260   3.465   2.408 -0.0263  0.1199 -0.0717
 2839SOL    HW1 8907   4.271   3.395   2.473 -0.7048 -0.4773 -0.5800
 2839SOL    HW2 8908   4.322   3.533   2.435 -0.0951 -0.2300  1.0460
 2840SOL     OW 8909   4.368   2.126   1.428 -0.1062 -0.2169  0.4413
 2840SOL    HW1 8910   4.417   2.047   1.445  1.3743  0.7445  0.7953
 2840SOL    HW2 8911   4.287   2.116   1.478 -0.5312 -2.0257 -0.5217
 2841SOL     OW 8912   3.208   0.487   4.862 -0.2453  0.5694 -0.3563
 2841SOL    HW1 8913   3.200   0.432   4.940 -0.2133  0.6460 -0.2991
 2841SOL    HW2 8914   3.300   0.514   4.861 -0.2129  0.4566 -0.4963
 2842SOL     OW 8915   0.347   0.428   2.301  0.7711  0.0451 -0.2246
 2842SOL    HW1 8916   0.377   0.483   2.373 -0.4846  0.3247  0.1046
 2842SOL    HW2 8917   0.383   0.470   2.222 -0.1883  1.3747  0.0164
 2843SOL     OW 8918   4.844   4.258   3.819  0.3167  0.4130  0.0820
 2843SOL    HW1 8919   4.786   4.322   3.776 -0.8473 -0.9524 -0.4574
 2843SOL    HW2 8920   4.928   4.269   3.776 -0.3173  0.4487 -1.1802
 2844SOL     OW 8921   2.356   1.399   2.072  0.0513  0.2720  0.6414
 2844SOL    HW1 8922   2.443   1.397   2.111 -0.6248 -1.0221  2.1995
 2844SOL    HW2 8923   2.317   1.480   2.106 -0.5511 -0.8634  2.8476
 2845SOL     OW 8924   6.262   2.215   3.152  0.2203 -0.3754  0.0400
 2845SOL    HW1 8925   6.335   2.154   3.135  1.1691  0.7731 -0.1289
 2845SOL    HW2 8926   6.214   2.218   3.070  0.2595 -0.7571 -0.0015
 2846SOL     OW 8927   0.999   5.089   0.110 -0.3811 -0.1467  0.1171
 2846SOL    HW1 8928   0.991   5.159   0.174 -0.2425 -1.9327  2.2070
 2846SOL    HW2 8929   0.960   5.012   0.153 -0.6296 -1.3562 -2.1010
 2847SOL     OW 8930   1.586   3.466   3.913 -0.0903 -0.2227 -0.4507
 2847SOL    HW1 8931   1.547   3.398   3.857  0.5434  0.1247 -1.3358
 2847SOL    HW2 8932   1.615   3.418   3.991 -0.1692 -0.8738 -0.8106
 2848SOL     OW 8933   6.798   1.727   5.988 -0.5832 -0.0645  0.9702
 2848SOL    HW1 8934   6.805   1.818   5.959 -0.7904 -0.7243 -1.2776
 2848SOL    HW2 8935   6.860   1.720   6.060  1.0262  1.3156 -0.2181
 2849SOL     OW 8936   6.648   2.312   4.955  0.0349 -0.0143 -0.7269
 2849SOL    HW1 8937   6.622   2.379   5.017  0.0206  1.1082 -1.9030
 2849SOL    HW2 8938   6.728   2.345   4.916 -0.3759 -0.3081 -1.8644
 2850SOL     OW 8939   2.906   1.186   0.712 -0.1590  0.0280 -0.2332
 2850SOL    HW1 8940   2.972   1.182   0.781 -0.5304 -1.7522  0.0758
 2850SOL    HW2 8941   2.914   1.274   0.676  1.5468  0.2556  0.6037
 2851SOL     OW 8942   3.506   6.382   1.057 -0.4563  0.4731 -0.1943
 2851SOL    HW1 8943   3.495   6.457   0.999  0.7257  1.1277  0.4145
 2851SOL    HW2 8944   3.581   6.334   1.022 -0.5867  0.1217 -0.0036
 2852SOL     OW 8945   6.726   5.073   3.580 -0.1990  0.0861 -0.0098
 2852SOL    HW1 8946   6.806   5.112   3.544  1.4626  0.4988  3.6659
 2852SOL    HW2 8947   6.681   5.145   3.623 -0.5703 -0.8150  1.1760
 2853SOL     OW 8948   6.048   2.301   1.559  0.0817  0.1072 -0.5695
 2853SOL    HW1 8949   6.063   2.207   1.557 -1.4072 -0.2201  0.9984
 2853SOL    HW2 8950   6.134   2.340   1.542  1.2606 -1.5597  1.2084
 2854SOL     OW 8951   2.840   3.043   4.945  0.1351 -0.5519 -0.0293
 2854SOL    HW1 8952   2.773   3.107   4.969 -0.0611 -0.4082 -0.8924
 2854SOL    HW2 8953   2.833   3.037   4.849  0.9757 -0.9517 -0.0752
 2855SOL     OW 8954   0.192   5.744   2.906 -0.5070 -0.4910 -0.1415
 2855SOL    HW1 8955   0.236   5.754   2.822 -1.6318  0.3868 -0.6433
 2855SOL    HW2 8956   0.250   5.789   2.969  0.1365 -0.8063 -0.5004
 2856SOL     OW 8957   6.548   2.094   4.773  0.1016 -0.0672  0.4153
 2856SOL    HW1 8958   6.510   2.031   4.712  1.1727 -0.0046 -0.3428
 2856SOL    HW2 8959   6.610   2.145   4.721  0.0471  0.9043  1.2543
 2857SOL     OW 8960   3.729   1.055   1.687  0.1154  0.1400 -0.4074
 2857SOL    HW1 8961   3.634   1.058   1.700  0.2724  1.9814  0.7272
 2857SOL    HW2 8962   3.757   0.974   1.730 -0.6046  1.2917  2.5301
 2858SOL     OW 8963   2.286   5.814   6.102  0.2381 -0.1858 -0.6200
 2858SOL    HW1 8964   2.213   5.766   6.061 -0.2955 -0.5615  0.7169
 2858SOL    HW2 8965   2.330   5.858   6.029 -1.2310 -0.0837 -1.4745
 2859SOL     OW 8966   3.381   5.905   2.268  0.3192 -0.0678  0.0799
 2859SOL    HW1 8967   3.460   5.883   2.219  1.1861  1.3776  0.7618
 2859SOL    HW2 8968   3.396   5.869   2.355  0.0763 -0.0873  0.1139
 2860SOL     OW 8969   5.125   6.636   4.536  0.1248 -0.0139 -0.0031
 2860SOL    HW1 8970   5.113   6.675   4.623 -1.4368  0.1407 -0.2628
 2860SOL    HW2 8971   5.039   6.602   4.513  0.9447 -1.7060 -0.7301
 2861SOL     OW 8972   4.623   1.141   0.729 -0.9754  1.1919  0.3471
 2861SOL    HW1 8973   4.558   1.208   0.705  0.2008  1.6342 -1.8569
 2861SOL    HW2 8974   4.570   1.067   0.759 -2.4010  2.3526  0.8505
 2862SOL     OW 8975   0.030   2.344   3.502  0.1837 -0.0644 -0.3277
 2862SOL    HW1 8976  -0.030   2.287   3.549  0.5339  0.1378  0.3776
 2862SOL    HW2 8977  -0.027   2.408   3.458 -0.1215  0.1206  0.3281
 2863SOL     OW 8978   2.236   5.955   1.694 -0.4102  0.6248  0.0196
 2863SOL    HW1 8979   2.240   5.910   1.778  0.1606 -0.7361 -0.6959
 2863SOL    HW2 8980   2.145   5.949   1.667 -0.3688  0.0008  0.0024
 2864SOL     OW 8981   1.731   6.495   0.529  0.1952  0.1718 -0.1348
 2864SOL    HW1 8982   1.793   6.544   0.475  0.5230  0.3735  0.4166
 2864SOL    HW2 8983   1.737   6.536   0.615 -0.8725  0.3380 -0.1266
 2865SOL     OW 8984   4.681   3.736   0.559  0.7246  0.2419 -0.5842
 2865SOL    HW1 8985   4.626   3.710   0.485  0.2234  0.0518 -0.1551
 2865SOL    HW2 8986   4.715   3.654   0.595  0.7971  0.3169 -0.4787
 2866SOL     OW 8987   4.649   3.779   1.164  0.5095  0.5966  0.4392
 2866SOL    HW1 8988   4.574   3.796   1.221 -0.6902 -1.9307 -0.2581
 2866SOL    HW2 8989   4.701   3.714   1.211  0.2173 -0.5041 -0.6956
 2867SOL     OW 8990   2.304   2.364   5.620 -0.5410  0.1339  0.3862
 2867SOL    HW1 8991   2.352   2.353   5.702 -1.9481  0.1533  1.2486
 2867SOL    HW2 8992   2.328   2.452   5.591  1.0184 -0.3708  0.0372
 2868SOL     OW 8993   1.310   2.879   3.316 -0.2185 -0.2573  0.1223
 2868SOL    HW1 8994   1.288   2.797   3.273 -2.3587 -0.3786  1.2834
 2868SOL    HW2 8995   1.233   2.935   3.303  0.5780  1.0174  0.6274
 2869SOL     OW 8996   2.571   3.734   2.062 -0.2434 -0.0470 -0.0176
 2869SOL    HW1 8997   2.493   3.783   2.086 -1.9301 -1.5618 -2.0315
 2869SOL    HW2 8998   2.637   3.801   2.043 -1.3099  1.2878  0.8545
 2870SOL     OW 8999   5.856   1.432   1.565 -0.2111 -0.2321  0.1678
 2870SOL    HW1 9000   5.876   1.351   1.611 -2.4726 -1.5398 -0.9435
 2870SOL    HW2 9001   5.912   1.430   1.487 -1.3287 -1.5978 -0.6604
 2871SOL     OW 9002   0.916   1.611   6.014 -0.9042  0.2904 -0.3243
 2871SOL    HW1 9003   0.908   1.517   6.032 -0.0537  0.5162  1.4689
 2871SOL    HW2 9004   0.986   1.617   5.949  0.5680 -0.2457  1.1248
 2872SOL     OW 9005   0.625   3.780   4.244  0.1455 -0.3155 -0.0035
 2872SOL    HW1 9006   0.538   3.743   4.255 -0.7339  1.0470 -1.8072
 2872SOL    HW2 9007   0.674   3.713   4.197 -0.0923 -0.8706  0.5317
 2873SOL     OW 9008   0.282   6.324   5.951  0.5096 -0.0875 -0.2438
 2873SOL    HW1 9009   0.241   6.302   6.034 -0.0210  3.5036  0.5835
 2873SOL    HW2 9010   0.368   6.280   5.954 -1.0179 -3.3607  0.2772
 2874SOL     OW 9011   5.340   0.133   4.586 -0.0235  0.3837  0.0888
 2874SOL    HW1 9012   5.384   0.074   4.524 -3.6050 -0.7940 -1.6213
 2874SOL    HW2 9013   5.344   0.219   4.544  0.8678  0.3732  0.1286
 2875SOL     OW 9014   2.188   4.959   1.140  0.1341 -0.5403 -0.2513
 2875SOL    HW1 9015   2.281   4.979   1.151 -0.4232  1.2247  1.8283
 2875SOL    HW2 9016   2.158   4.936   1.227 -1.8419  1.1239 -0.4174
 2876SOL     OW 9017   4.014   1.324   0.679  0.4177  0.0343 -0.7182
 2876SOL    HW1 9018   4.098   1.371   0.681  0.4127  0.0369 -0.3420
 2876SOL    HW2 9019   3.970   1.354   0.759  0.8826 -1.4663  0.1419
 2877SOL     OW 9020   4.931   0.749   3.108 -0.0712 -0.7512  0.2552
 2877SOL    HW1 9021   4.902   0.825   3.158 -0.5867 -1.0700  0.4567
 2877SOL    HW2 9022   4.973   0.785   3.030  1.7351 -0.2088  1.4107
 2878SOL     OW 9023   0.738   5.286   2.096  0.4856 -0.1885  0.3831
 2878SOL    HW1 9024   0.815   5.231   2.082  0.4918  0.4891 -2.9167
 2878SOL    HW2 9025   0.666   5.224   2.111  1.1225 -0.9463  0.3355
 2879SOL     OW 9026   6.772   1.743   3.220  0.2279 -0.6135 -0.1173
 2879SOL    HW1 9027   6.814   1.717   3.302  1.1203  0.7209 -0.1106
 2879SOL    HW2 9028   6.838   1.798   3.176 -0.8965  0.1710 -0.8894
 2880SOL     OW 9029   0.510   3.884   6.809  0.5317  0.4389 -0.6904
 2880SOL    HW1 9030   0.595   3.907   6.771 -0.1075  1.4618 -1.5628
 2880SOL    HW2 9031   0.499   3.791   6.789  1.4840  0.2540 -0.4473
 2881SOL     OW 9032   1.852   5.437   3.940 -0.3395 -0.3769 -0.2841
 2881SOL    HW1 9033   1.922   5.416   3.878 -0.8306 -0.3428 -0.8624
 2881SOL    HW2 9034   1.895   5.485   4.010 -0.0914  1.5105 -1.6507
 2882SOL     OW 9035   4.521   6.023   2.585  0.3578  0.3554 -0.0754
 2882SOL    HW1 9036   4.517   6.050   2.493  0.1077 -1.6544 -0.6926
 2882SOL    HW2 9037   4.562   6.098   2.630  1.4355  0.9811 -1.9815
 2883SOL     OW 9038   3.003   4.304   6.379  0.3043 -0.0290  0.3980
 2883SOL    HW1 9039   3.008   4.275   6.288 -1.9611 -0.9551  0.4865
 2883SOL    HW2 9040   2.967   4.393   6.374 -0.5881 -0.3813  0.3929
 2884SOL     OW 9041   5.942   1.775   2.167  0.5063 -0.0843  0.3042
 2884SOL    HW1 9042   5.962   1.850   2.223  1.3545 -1.2658  1.6627
 2884SOL    HW2 9043   5.863   1.737   2.206 -0.4802  0.5952 -0.9389
 2885SOL     OW 9044   1.832   2.083   0.977 -0.2858  0.5080 -0.0343
 2885SOL    HW1 9045   1.898   2.062   1.044 -0.1885  0.0862 -0.2617
 2885SOL    HW2 9046   1.857   2.030   0.902 -4.4131 -4.8751  1.7642
 2886SOL     OW 9047   4.349   1.688   4.352 -0.2281  0.1628 -0.0182
 2886SOL    HW1 9048   4.264   1.649   4.332  0.1488  0.3832 -2.2729
 2886SOL    HW2 9049   4.405   1.666   4.277  1.1618  1.5873  0.5283
 2887SOL     OW 9050   2.187   4.952   2.170 -0.0349 -0.0179  0.0212
 2887SOL    HW1 9051   2.159   4.932   2.260 -1.3810 -1.7100 -0.7105
 2887SOL    HW2 9052   2.120   5.013   2.138 -0.2736 -0.4084 -0.2303
 2888SOL     OW 9053   3.722   4.378   6.811 -0.6969  0.1254  0.4832
 2888SOL    HW1 9054   3.652   4.439   6.789  1.3671  3.2300  1.6934
 2888SOL    HW2 9055   3.759   4.351   6.727  0.3462  3.2757 -0.2050
 2889SOL     OW 9056   4.654   4.030   6.634  0.1357 -0.4677  0.2830
 2889SOL    HW1 9057   4.565   4.063   6.619  0.0502  0.2008  2.0034
 2889SOL    HW2 9058   4.641   3.951   6.686  0.5638  0.1044  1.2809
 2890SOL     OW 9059   5.745   3.666   5.700 -0.1787 -0.0601  0.4105
 2890SOL    HW1 9060   5.671   3.725   5.682 -1.2202 -1.7657 -1.2039
 2890SOL    HW2 9061   5.739   3.598   5.633  2.9153 -0.2574  0.1942
 2891SOL     OW 9062   4.616   3.102   1.091 -0.1989 -0.1760 -0.0765
 2891SOL    HW1 9063   4.690   3.162   1.100 -0.5868  0.2619  0.2847
 2891SOL    HW2 9064   4.627   3.063   1.004  0.3781 -0.0205 -0.0806
 2892SOL     OW 9065   6.631   4.060   0.273  0.0995  0.2237  0.0191
 2892SOL    HW1 9066   6.709   4.060   0.219 -1.0432 -0.7325 -1.7082
 2892SOL    HW2 9067   6.643   4.134   0.332  2.9100 -0.7040  0.7673
 2893SOL     OW 9068   3.067   0.089   4.334 -0.2678  0.2286  0.2964
 2893SOL    HW1 9069   3.128   0.033   4.381 -0.9790  0.1069  1.1067
 2893SOL    HW2 9070   3.103   0.177   4.342  1.3617 -0.1716 -1.7986
 2894SOL     OW 9071   4.296   5.952   6.544  0.0101  0.2447 -0.5754
 2894SOL    HW1 9072   4.323   5.872   6.500  1.2122 -1.3558  2.7741
 2894SOL    HW2 9073   4.376   6.004   6.551  0.8577 -1.2732  2.9343
 2895SOL     OW 9074   5.487   0.006   6.583 -0.0866 -0.4567  0.1945
 2895SOL    HW1 9075   5.418   0.073   6.576  0.5758  0.1143 -1.4849
 2895SOL    HW2 9076   5.467  -0.041   6.664 -1.9600  0.2342  0.1883
 2896SOL     OW 9077   3.096   4.574   5.009  0.1966  0.2656  0.2167
 2896SOL    HW1 9078   3.157   4.647   5.002  0.2900  0.0849 -1.1247
 2896SOL    HW2 9079   3.151   4.496   5.006  0.0503  0.1200  1.0669
 2897SOL     OW 9080   2.382   3.526   2.483  0.1699 -0.0951  0.2309
 2897SOL    HW1 9081   2.315   3.565   2.427 -2.0082 -1.4300  1.7104
 2897SOL    HW2 9082   2.457   3.514   2.426 -0.4483  2.3852 -1.2958
 2898SOL     OW 9083   5.602   2.865   0.284  0.3178 -0.0565 -0.0968
 2898SOL    HW1 9084   5.526   2.923   0.284  0.3604  0.0005 -0.4148
 2898SOL    HW2 9085   5.621   2.850   0.191 -0.1726 -1.1956 -0.0358
 2899SOL     OW 9086   6.734   4.582   5.734  0.2033  0.1938  0.2059
 2899SOL    HW1 9087   6.694   4.599   5.648  1.8253 -1.6171 -1.0138
 2899SOL    HW2 9088   6.827   4.568   5.714  0.6561 -0.1043  2.3007
 2900SOL     OW 9089   0.610   5.080   3.383  0.2778 -0.4155  0.3451
 2900SOL    HW1 9090   0.571   5.164   3.359  0.3664 -0.6627 -0.7302
 2900SOL    HW2 9091   0.569   5.056   3.465 -0.6473  0.1022  0.0417
 2901SOL     OW 9092   4.086   4.993   4.419  0.0586 -0.5064 -0.3106
 2901SOL    HW1 9093   4.156   4.951   4.368  0.2106  0.9188 -1.3371
 2901SOL    HW2 9094   4.018   5.013   4.354  0.5314  1.9515 -0.1251
 2902SOL     OW 9095   1.970   4.989   5.657 -0.0443  0.2370  0.3121
 2902SOL    HW1 9096   1.945   5.064   5.603  2.5452 -0.0897 -1.5241
 2902SOL    HW2 9097   1.961   4.913   5.600  0.6101 -0.4243  1.0469
 2903SOL     OW 9098   5.013   0.107   2.409 -0.6567  0.7823  0.4943
 2903SOL    HW1 9099   4.987   0.050   2.482 -0.2280  0.4893  0.4240
 2903SOL    HW2 9100   4.931   0.145   2.377 -0.9301  0.3274  0.6495
 2904SOL     OW 9101   4.996   0.900   3.483  0.4627  0.4364 -0.6255
 2904SOL    HW1 9102   4.938   0.825   3.468  0.5496  0.0144  0.9205
 2904SOL    HW2 9103   4.988   0.953   3.404 -0.1403 -0.8461 -1.4714
 2905SOL     OW 9104   5.542   4.531   4.712  0.3635 -0.6168  0.1286
 2905SOL    HW1 9105   5.604   4.553   4.782  1.0100 -0.0302 -0.6033
 2905SOL    HW2 9106   5.535   4.611   4.660 -0.9368 -0.7114  0.1318
 2906SOL     OW 9107   2.109   0.426   3.730 -1.2835 -0.4081  0.3596
 2906SOL    HW1 9108   2.195   0.447   3.693 -2.3845  1.1583 -1.5140
 2906SOL    HW2 9109   2.129   0.391   3.817  1.2528 -0.4562 -0.1442
 2907SOL     OW 9110   4.061   4.150   2.568  0.2727  0.4593  0.0230
 2907SOL    HW1 9111   4.097   4.224   2.617 -4.6900  2.3198  1.5280
 2907SOL    HW2 9112   4.040   4.085   2.636 -1.6482  0.7310 -0.2405
 2908SOL     OW 9113   0.940   4.977   6.692 -0.0793  0.5062  0.1187
 2908SOL    HW1 9114   0.957   5.029   6.771  1.1671 -0.7605  0.7296
 2908SOL    HW2 9115   0.999   4.902   6.700 -1.6410 -0.8941 -0.8395
 2909SOL     OW 9116   1.269   0.276   0.189 -0.2788  0.6691  0.7756
 2909SOL    HW1 9117   1.289   0.206   0.127 -0.7248  0.1577  1.1904
 2909SOL    HW2 9118   1.242   0.350   0.135  1.6134  1.0194  0.2627
 2910SOL     OW 9119   2.633   0.415   2.477  0.5925 -0.0014 -0.7609
 2910SOL    HW1 9120   2.595   0.334   2.511  1.3873  0.7282  2.1716
 2910SOL    HW2 9121   2.560   0.461   2.436 -0.7126 -0.5931  0.8086
 2911SOL     OW 9122   5.042   5.937   2.982  0.1175  0.1157  0.0344
 2911SOL    HW1 9123   5.119   5.928   3.038  0.4779  0.6904 -0.3588
 2911SOL    HW2 9124   4.979   5.986   3.034 -0.3935 -1.2281  0.7458
 2912SOL     OW 9125   0.366   5.947   3.838  0.2430 -0.3008 -0.2451
 2912SOL    HW1 9126   0.423   5.964   3.913 -0.7925 -1.5046  0.8801
 2912SOL    HW2 9127   0.386   5.856   3.813 -1.6872 -1.0258  0.6849
 2913SOL     OW 9128   1.058   4.384   4.458  0.1194  0.1252  0.7372
 2913SOL    HW1 9129   0.996   4.343   4.518 -0.1959 -0.3565  0.0961
 2913SOL    HW2 9130   1.133   4.324   4.456 -0.6428 -0.8206 -0.7555
 2914SOL     OW 9131   6.336   2.805   6.502  0.4168 -0.4229  0.2986
 2914SOL    HW1 9132   6.308   2.815   6.411  2.0244  2.3948 -0.0106
 2914SOL    HW2 9133   6.258   2.826   6.554 -0.3797 -1.5717 -0.3780
 2915SOL     OW 9134   5.165   1.096   0.269  0.4047  0.1297  0.6604
 2915SOL    HW1 9135   5.130   1.171   0.220  0.0200 -0.0881  0.5950
 2915SOL    HW2 9136   5.114   1.095   0.350 -0.0501 -0.4425  0.3828
 2916SOL     OW 9137   0.955   3.162   4.168 -0.6813  1.0944  0.3356
 2916SOL    HW1 9138   1.037   3.159   4.217 -0.3613  1.1612 -0.1833
 2916SOL    HW2 9139   0.893   3.114   4.223 -0.1523  0.5501  0.4761
 2917SOL     OW 9140   0.038   0.459   3.602  0.3081 -0.0764 -0.1530
 2917SOL    HW1 9141  -0.046   0.465   3.646  0.0283 -0.1278 -0.6716
 2917SOL    HW2 9142   0.043   0.370   3.569  0.8066 -0.2359  0.3453
 2918SOL     OW 9143   1.922   0.023   1.017 -0.1250 -0.0066  0.2575
 2918SOL    HW1 9144   1.834   0.054   1.039  0.8304  2.2089  1.2676
 2918SOL    HW2 9145   1.951  -0.024   1.095 -0.0580  0.0543  0.2687
 2919SOL     OW 9146   4.462   1.472   2.271 -0.3588 -0.5296  0.2756
 2919SOL    HW1 9147   4.480   1.453   2.179 -0.6395 -2.4721  0.5836
 2919SOL    HW2 9148   4.428   1.562   2.270 -2.0434 -1.0901 -1.7691
 2920SOL     OW 9149   2.907   6.244   4.122 -0.0675  0.7140  0.2870
 2920SOL    HW1 9150   2.854   6.224   4.046 -3.2618  0.2895  2.4615
 2920SOL    HW2 9151   2.997   6.239   4.090 -1.1698 -1.2639 -2.9814
 2921SOL     OW 9152   5.748   1.688   5.707 -0.1050 -0.1392  0.0492
 2921SOL    HW1 9153   5.679   1.665   5.770  0.3154 -0.0462  0.5548
 2921SOL    HW2 9154   5.732   1.780   5.687  1.3439  0.6361  2.1249
 2922SOL     OW 9155   0.696   4.508   4.460  0.0906  0.1416  0.3265
 2922SOL    HW1 9156   0.629   4.444   4.439 -1.4287  0.9994  2.1828
 2922SOL    HW2 9157   0.759   4.460   4.514  0.6486 -0.5180 -0.8972
 2923SOL     OW 9158   1.219   2.884   4.274  0.0284 -0.1625  0.0791
 2923SOL    HW1 9159   1.162   2.813   4.246  0.1168  0.2219 -1.1300
 2923SOL    HW2 9160   1.166   2.935   4.335 -0.4013 -0.6675  0.1320
 2924SOL     OW 9161   2.245   2.788   4.009 -0.0258 -0.0617 -0.0934
 2924SOL    HW1 9162   2.327   2.790   4.057  0.5917 -1.1526 -1.0584
 2924SOL    HW2 9163   2.208   2.702   4.028 -0.9591  0.4093  0.3162
 2925SOL     OW 9164   1.400   5.494   0.645  0.5350  0.1658 -0.3374
 2925SOL    HW1 9165   1.362   5.406   0.637  0.8247 -0.3052  2.3848
 2925SOL    HW2 9166   1.489   5.484   0.611  0.1404 -0.2572 -1.2632
 2926SOL     OW 9167   4.993   6.392   1.585  0.1391 -0.4751  0.4226
 2926SOL    HW1 9168   4.915   6.375   1.532 -0.3631  1.6667  0.3703
 2926SOL    HW2 9169   5.046   6.313   1.577 -0.5814 -0.7801 -2.0819
 2927SOL     OW 9170   4.006   3.707   3.913 -0.7147  0.7531 -0.1317
 2927SOL    HW1 9171   3.915   3.685   3.935 -1.9361  3.4644 -1.9897
 2927SOL    HW2 9172   4.015   3.800   3.936  1.6957  0.5279  0.1491
 2928SOL     OW 9173   6.376   1.801   1.970 -0.0579  0.2954  0.0489
 2928SOL    HW1 9174   6.299   1.804   1.912  0.3875  0.8577 -0.5290
 2928SOL    HW2 9175   6.446   1.839   1.917  0.5009  0.2464  0.7532
 2929SOL     OW 9176   3.214   6.203   4.712 -0.0287  0.5255  0.5675
 2929SOL    HW1 9177   3.253   6.157   4.638 -1.4391 -0.6092  0.4693
 2929SOL    HW2 9178   3.123   6.219   4.684 -0.1205  1.5636  1.4130
 2930SOL     OW 9179   1.651   4.334   3.140  0.0851  0.5143  0.0488
 2930SOL    HW1 9180   1.689   4.359   3.225 -4.4740  1.7045  2.0415
 2930SOL    HW2 9181   1.639   4.240   3.147  0.9393  0.3992  0.1162
 2931SOL     OW 9182   1.296   6.215   3.280  0.2071  0.0814  0.3570
 2931SOL    HW1 9183   1.265   6.231   3.191  1.4922 -1.2124 -0.3673
 2931SOL    HW2 9184   1.325   6.301   3.310 -0.5149  0.5943 -0.3533
 2932SOL     OW 9185   2.877   1.419   1.133 -0.0748 -0.5682 -0.9098
 2932SOL    HW1 9186   2.936   1.442   1.061  1.1405  0.3290  0.3292
 2932SOL    HW2 9187   2.920   1.346   1.177 -1.1224 -1.5288 -1.4399
 2933SOL     OW 9188   1.382   0.464   5.489  0.2388 -0.2853  0.2475
 2933SOL    HW1 9189   1.390   0.370   5.500  0.3770 -0.3380 -0.2630
 2933SOL    HW2 9190   1.376   0.477   5.394  0.9970  0.2817  0.2642
 2934SOL     OW 9191   1.186   4.592   1.071  0.1838  0.2492  0.1358
 2934SOL    HW1 9192   1.166   4.629   0.985  0.5660 -0.3414 -0.2084
 2934SOL    HW2 9193   1.126   4.519   1.081 -0.2780  0.6819  0.6377
 2935SOL     OW 9194   6.354   0.655   4.134  0.4063 -0.0476  0.5178
 2935SOL    HW1 9195   6.377   0.585   4.072 -0.6789  0.8285 -0.9499
 2935SOL    HW2 9196   6.267   0.631   4.165  0.5051  0.0628  0.8759
 2936SOL     OW 9197   0.336   4.397   5.879  0.8804  0.2057 -0.2741
 2936SOL    HW1 9198   0.338   4.380   5.973  0.8255 -0.5897 -0.4135
 2936SOL    HW2 9199   0.384   4.324   5.840  2.3858  1.3903 -0.7457
 2937SOL     OW 9200   1.140   2.171   2.551 -0.6577  0.0898  0.0707
 2937SOL    HW1 9201   1.128   2.150   2.644 -1.2178 -1.0506 -0.2394
 2937SOL    HW2 9202   1.076   2.116   2.506  0.5795 -0.4413 -1.0950
 2938SOL     OW 9203   2.670   0.856   3.942  0.6154  0.0012 -1.1979
 2938SOL    HW1 9204   2.598   0.794   3.952  0.3511  0.4010 -0.5594
 2938SOL    HW2 9205   2.734   0.810   3.888  0.6273 -1.0117 -0.3558
 2939SOL     OW 9206   0.148   0.668   3.796  0.2357  0.1922  0.4681
 2939SOL    HW1 9207   0.083   0.599   3.812  1.6566 -1.3208  0.0238
 2939SOL    HW2 9208   0.097   0.742   3.762 -1.4076 -0.4219  1.4584
 2940SOL     OW 9209   6.811   3.146   3.823  0.1995 -0.4604 -0.4035
 2940SOL    HW1 9210   6.824   3.231   3.782 -0.1658  0.0968  0.6050
 2940SOL    HW2 9211   6.716   3.135   3.828  0.2175 -0.2763  0.7403
 2941SOL     OW 9212   5.704   2.166   2.419 -0.0618  0.3202  0.1736
 2941SOL    HW1 9213   5.639   2.236   2.406 -1.3181 -0.9421 -0.6500
 2941SOL    HW2 9214   5.742   2.184   2.504 -0.8538  1.6229  0.2806
 2942SOL     OW 9215   5.618   4.083   0.141  0.1901 -0.2807 -0.5972
 2942SOL    HW1 9216   5.548   4.090   0.076  0.8497  1.5330 -1.1451
 2942SOL    HW2 9217   5.688   4.035   0.096  0.4745  0.5848 -1.0887
 2943SOL     OW 9218   5.954   5.658   4.087 -0.0253  0.1645 -0.3368
 2943SOL    HW1 9219   5.919   5.669   4.175  2.2852 -1.1629  0.8468
 2943SOL    HW2 9220   5.876   5.652   4.031 -1.6509 -1.0882  1.8854
 2944SOL     OW 9221   6.147   4.237   4.226  0.2454 -0.3882 -0.4116
 2944SOL    HW1 9222   6.189   4.212   4.308 -0.1011  0.5731  0.0856
 2944SOL    HW2 9223   6.117   4.155   4.187 -0.9078 -0.7597  1.1651
 2945SOL     OW 9224   6.477   1.242   5.302 -0.4004 -0.4546 -0.2380
 2945SOL    HW1 9225   6.417   1.243   5.376  0.9476 -0.9860  0.8956
 2945SOL    HW2 9226   6.483   1.150   5.277  0.2636 -0.4557 -0.0771
 2946SOL     OW 9227   4.410   5.347   2.859 -0.5762  0.0679  0.4986
 2946SOL    HW1 9228   4.399   5.346   2.954 -0.2611  0.4611  0.5418
 2946SOL    HW2 9229   4.330   5.305   2.826 -0.0724 -1.3131  0.9749
 2947SOL     OW 9230   1.071   0.746   4.870  0.0158  0.5078 -0.5902
 2947SOL    HW1 9231   1.077   0.797   4.951 -0.4240  0.8180 -0.7516
 2947SOL    HW2 9232   0.988   0.773   4.831 -0.1352 -0.1921 -0.7698
 2948SOL     OW 9233   2.358   1.582   4.325 -0.4595  0.0234 -0.3409
 2948SOL    HW1 9234   2.286   1.534   4.287  0.2077 -0.4163 -1.0749
 2948SOL    HW2 9235   2.371   1.542   4.411 -1.6512  0.6977  0.1769
 2949SOL     OW 9236   6.527   1.345   0.439 -0.1097  0.7348  0.9314
 2949SOL    HW1 9237   6.579   1.306   0.368 -1.4388  1.0341 -0.2564
 2949SOL    HW2 9238   6.524   1.438   0.417  1.4194  1.2512  2.7003
 2950SOL     OW 9239   0.920   1.320   6.056  0.2202 -0.2299  0.0357
 2950SOL    HW1 9240   0.864   1.306   6.133 -0.0024 -0.3875 -0.1530
 2950SOL    HW2 9241   0.867   1.289   5.983  0.8190 -1.0299 -0.0768
 2951SOL     OW 9242   4.867   1.529   1.435 -0.3411  0.1290  0.1811
 2951SOL    HW1 9243   4.834   1.510   1.347 -0.3123 -1.8095  0.5412
 2951SOL    HW2 9244   4.836   1.617   1.454 -0.7907  0.3805 -1.5612
 2952SOL     OW 9245   0.627   0.307   2.226 -0.2914  0.3310 -0.0691
 2952SOL    HW1 9246   0.652   0.231   2.174  2.0966  0.4123  0.8275
 2952SOL    HW2 9247   0.617   0.378   2.163  1.1241  0.0916 -0.5930
 2953SOL     OW 9248   5.571   4.978   0.795  0.3655  0.3051 -0.3474
 2953SOL    HW1 9249   5.532   5.065   0.799 -2.3667 -0.8228 -0.7023
 2953SOL    HW2 9250   5.573   4.949   0.887 -2.2209 -0.6064 -0.4860
 2954SOL     OW 9251   1.151   5.591   3.050  0.1435 -0.5343  0.3900
 2954SOL    HW1 9252   1.224   5.582   3.112 -0.2815  1.8921  1.3499
 2954SOL    HW2 9253   1.194   5.614   2.967  0.5788 -1.5095  0.3279
 2955SOL     OW 9254   6.381   3.121   0.581  0.3508  0.1377  0.3373
 2955SOL    HW1 9255   6.290   3.105   0.558  0.0770  0.0234  1.4626
 2955SOL    HW2 9256   6.390   3.088   0.670  1.3262  0.7714  0.4892
 2956SOL     OW 9257   5.832   4.029   1.813  0.1528 -0.3638 -0.5533
 2956SOL    HW1 9258   5.803   3.949   1.856  1.0642 -0.4017  0.0071
 2956SOL    HW2 9259   5.923   4.040   1.840 -0.3484  1.6083  0.5280
 2957SOL     OW 9260   2.215   5.486   3.197 -0.0950 -0.1588 -0.3480
 2957SOL    HW1 9261   2.131   5.485   3.152 -0.1197 -0.2296 -0.3003
 2957SOL    HW2 9262   2.238   5.394   3.209  0.4677 -0.1450 -1.2427
 2958SOL     OW 9263   3.162   3.238   4.112  0.3164  0.4006 -0.1167
 2958SOL    HW1 9264   3.231   3.281   4.063  0.3116 -0.1147 -0.5895
 2958SOL    HW2 9265   3.081   3.282   4.085  0.3730  0.4809 -0.1537
 2959SOL     OW 9266   3.729   1.554   3.792  0.2630 -0.2252  0.7666
 2959SOL    HW1 9267   3.823   1.551   3.810  0.2788 -0.4531  0.6480
 2959SOL    HW2 9268   3.690   1.499   3.860  0.2069 -0.0730  0.8591
 2960SOL     OW 9269   4.586   0.560   4.369  0.6421 -0.1239 -0.3204
 2960SOL    HW1 9270   4.650   0.626   4.395 -0.5586  0.4786  1.2383
 2960SOL    HW2 9271   4.561   0.585   4.279 -0.3205  2.0304  0.4761
 2961SOL     OW 9272   5.993   5.297   4.915 -0.5114 -0.3952 -0.0359
 2961SOL    HW1 9273   5.966   5.315   5.005 -0.3143  1.2528 -0.2779
 2961SOL    HW2 9274   6.054   5.224   4.922 -1.4761 -1.1263  1.0158
 2962SOL     OW 9275   2.697   0.804   4.721 -0.1527  0.0614  0.1376
 2962SOL    HW1 9276   2.689   0.738   4.651 -1.9506  0.8559 -0.4557
 2962SOL    HW2 9277   2.790   0.826   4.722  0.3336 -1.7922 -0.2875
 2963SOL     OW 9278   6.427   2.656   4.953 -0.0287 -0.3562  0.5145
 2963SOL    HW1 9279   6.422   2.745   4.920  0.4357 -0.9019 -1.0972
 2963SOL    HW2 9280   6.516   2.627   4.932 -0.3101 -1.3498  0.6076
 2964SOL     OW 9281   2.351   6.460   4.790  0.5819 -0.0434  0.0560
 2964SOL    HW1 9282   2.437   6.470   4.750  0.3724 -0.9506 -0.6644
 2964SOL    HW2 9283   2.363   6.488   4.880  1.4714  0.4630 -0.2094
 2965SOL     OW 9284   5.474   0.790   1.972  0.1786 -0.3560  0.7116
 2965SOL    HW1 9285   5.534   0.720   1.998  0.8650  0.4073  1.2182
 2965SOL    HW2 9286   5.515   0.870   2.003 -1.4058  0.1510  1.6438
 2966SOL     OW 9287   5.504   2.151   4.943 -0.0373  0.2413 -0.0852
 2966SOL    HW1 9288   5.438   2.101   4.993 -1.3718  0.4961 -1.5382
 2966SOL    HW2 9289   5.506   2.237   4.986  1.7177 -0.7017  1.9502
 2967SOL     OW 9290   3.718   1.364   3.437 -0.0910 -0.7164 -0.0385
 2967SOL    HW1 9291   3.745   1.347   3.527  1.5869  0.4538 -0.2774
 2967SOL    HW2 9292   3.705   1.458   3.433 -0.1354 -0.7526 -1.0147
 2968SOL     OW 9293   0.607   0.838   3.624 -0.0161 -0.4474  0.1689
 2968SOL    HW1 9294   0.523   0.858   3.583  0.8588  1.2084 -0.9774
 2968SOL    HW2 9295   0.588   0.835   3.718 -1.2433  0.5881 -0.0124
 2969SOL     OW 9296   1.194   1.295   6.041 -0.3101 -0.3880  0.1239
 2969SOL    HW1 9297   1.099   1.298   6.053 -0.3098 -0.1037  0.0652
 2969SOL    HW2 9298   1.223   1.383   6.064  0.1728 -1.0010  2.0699
 2970SOL     OW 9299   2.804   0.880   2.365 -0.2463 -0.9052 -0.5097
 2970SOL    HW1 9300   2.826   0.972   2.374  0.5484 -1.1445  0.1603
 2970SOL    HW2 9301   2.846   0.838   2.441 -0.4635 -1.8337 -0.8899
 2971SOL     OW 9302   3.131   5.907   3.707 -0.0712  0.0897  0.0824
 2971SOL    HW1 9303   3.136   6.001   3.725  1.3748 -0.1686  1.1994
 2971SOL    HW2 9304   3.074   5.873   3.777  0.8403 -0.0961  0.7499
 2972SOL     OW 9305   0.862   4.134   3.376  0.5129 -0.4392  0.5836
 2972SOL    HW1 9306   0.900   4.072   3.438  0.6541 -0.3210  0.6163
 2972SOL    HW2 9307   0.934   4.195   3.356  0.9233 -1.3570 -0.8624
 2973SOL     OW 9308   5.373   6.553   2.703  0.1664  0.1430 -0.1774
 2973SOL    HW1 9309   5.364   6.600   2.620 -0.6927  1.6926  0.7554
 2973SOL    HW2 9310   5.317   6.476   2.693  0.1421  0.2616 -1.0567
 2974SOL     OW 9311   0.242   1.526   0.350  0.6446  0.3745  0.0972
 2974SOL    HW1 9312   0.164   1.471   0.348 -0.5264  1.9508  0.2037
 2974SOL    HW2 9313   0.268   1.528   0.442 -0.6035  1.6603  0.4692
 2975SOL     OW 9314   5.864   5.182   1.189 -0.1776 -0.1124  0.1446
 2975SOL    HW1 9315   5.904   5.161   1.105 -0.5344 -0.7352  0.1217
 2975SOL    HW2 9316   5.873   5.277   1.197 -1.9052  0.2436 -1.5209
 2976SOL     OW 9317   4.682   1.405   2.392  0.0552 -0.2424  0.0753
 2976SOL    HW1 9318   4.739   1.407   2.315  0.1046  2.0800  0.0923
 2976SOL    HW2 9319   4.596   1.431   2.359 -1.0310 -3.3231  0.1282
 2977SOL     OW 9320   4.837   5.321   3.319  0.2215  0.1093 -0.3132
 2977SOL    HW1 9321   4.926   5.356   3.312  0.6612 -1.0171 -0.5431
 2977SOL    HW2 9322   4.805   5.319   3.228  0.7924 -1.5374 -0.5052
 2978SOL     OW 9323   4.409   6.745   5.104  0.3151 -0.3885 -0.4888
 2978SOL    HW1 9324   4.411   6.726   5.010 -2.4230 -3.1818 -0.1341
 2978SOL    HW2 9325   4.428   6.661   5.145 -2.4355 -0.2044  1.3913
 2979SOL     OW 9326   5.152   1.126   6.373  0.0950 -0.7049 -0.1459
 2979SOL    HW1 9327   5.131   1.219   6.369  2.0811 -0.2344 -0.7405
 2979SOL    HW2 9328   5.240   1.120   6.336  0.5886 -2.6200  1.1873
 2980SOL     OW 9329   4.802   0.938   6.217  0.9263  0.4147 -0.0142
 2980SOL    HW1 9330   4.710   0.952   6.193  1.3123  0.5070 -1.5766
 2980SOL    HW2 9331   4.849   1.010   6.174  2.0421 -1.2282 -1.7223
 2981SOL     OW 9332   2.933   4.229   5.157  0.7975 -0.1948  0.4875
 2981SOL    HW1 9333   2.935   4.135   5.175 -0.0508  0.0300  1.9635
 2981SOL    HW2 9334   2.991   4.267   5.222  1.5074  0.2849 -0.4054
 2982SOL     OW 9335   6.378   2.738   1.642  0.0133  0.1701 -0.6406
 2982SOL    HW1 9336   6.296   2.695   1.667 -0.2344  0.8009 -0.3166
 2982SOL    HW2 9337   6.400   2.701   1.557 -0.7114  0.1212 -0.8184
 2983SOL     OW 9338   3.967   4.015   4.730  0.4224  0.1880 -0.1697
 2983SOL    HW1 9339   3.949   3.971   4.647 -0.0686  0.4212 -0.1885
 2983SOL    HW2 9340   3.893   3.992   4.787  0.5325  0.3864  0.0574
 2984SOL     OW 9341   3.406   0.127   4.913  1.0294  0.0535  0.2049
 2984SOL    HW1 9342   3.337   0.101   4.974  0.0641 -0.4998 -1.0673
 2984SOL    HW2 9343   3.466   0.180   4.965 -0.0295  0.0224  1.5022
 2985SOL     OW 9344   6.082   5.511   2.337 -0.4683  0.4277 -0.8755
 2985SOL    HW1 9345   6.121   5.436   2.292  1.1320  0.1247  0.9339
 2985SOL    HW2 9346   6.106   5.500   2.429 -0.9972  2.6631 -0.4114
 2986SOL     OW 9347   1.131   2.319   4.739  0.0928 -0.1535  0.1585
 2986SOL    HW1 9348   1.170   2.234   4.719  2.3038  0.9261 -0.3525
 2986SOL    HW2 9349   1.108   2.356   4.654  0.8345  0.4976  0.2283
 2987SOL     OW 9350   1.667   5.744   1.521  0.3129 -0.3719  0.1628
 2987SOL    HW1 9351   1.691   5.725   1.612 -1.5389 -2.0688  0.3831
 2987SOL    HW2 9352   1.732   5.808   1.491  1.8815 -0.9145  2.1881
 2988SOL     OW 9353   4.709   6.760   2.942 -0.0652  0.0010 -0.2399
 2988SOL    HW1 9354   4.767   6.709   2.998  1.6269  0.9863 -1.0166
 2988SOL    HW2 9355   4.767   6.821   2.896 -1.6214  0.4918 -1.6665
 2989SOL     OW 9356   4.879   6.126   1.916 -0.3542 -0.0792 -0.3009
 2989SOL    HW1 9357   4.793   6.165   1.898 -0.0589  1.1980  0.9148
 2989SOL    HW2 9358   4.932   6.148   1.840  0.0792  2.8174  0.7050
 2990SOL     OW 9359   6.662   3.813   2.074 -0.1423 -0.7681 -0.3997
 2990SOL    HW1 9360   6.741   3.811   2.129 -0.4888  2.0681  0.3979
 2990SOL    HW2 9361   6.691   3.855   1.993 -0.3893 -1.7029 -0.9797
 2991SOL     OW 9362   0.980   4.549   1.437 -0.1203  0.0130  0.0135
 2991SOL    HW1 9363   0.936   4.574   1.356  1.5373 -0.5947 -1.1246
 2991SOL    HW2 9364   0.978   4.453   1.437  2.4270 -0.1188 -0.8596
 2992SOL     OW 9365   0.924   6.146   4.089  0.1190  0.1327 -0.4699
 2992SOL    HW1 9366   0.857   6.214   4.078  1.8862  1.8839 -0.9496
 2992SOL    HW2 9367   0.885   6.068   4.049 -1.4695  1.1854 -1.0948
 2993SOL     OW 9368   2.475   2.353   2.669 -0.6520 -0.1742 -0.1698
 2993SOL    HW1 9369   2.477   2.338   2.574 -1.2999  0.1253 -0.2336
 2993SOL    HW2 9370   2.399   2.410   2.683 -0.5891 -0.2541  0.5379
 2994SOL     OW 9371   6.198   0.102   5.494  0.4743 -0.2747  0.1604
 2994SOL    HW1 9372   6.257   0.168   5.531  0.4021  0.0985 -0.3790
 2994SOL    HW2 9373   6.111   0.142   5.501  0.0767 -1.3452  2.1623
 2995SOL     OW 9374   0.682   6.118   1.948 -0.6121  0.9609  0.0421
 2995SOL    HW1 9375   0.772   6.139   1.925 -0.6725  0.2691 -0.8535
 2995SOL    HW2 9376   0.633   6.199   1.931 -0.0435  1.6251  1.3741
 2996SOL     OW 9377   4.235   4.130   4.758 -0.3324 -0.5830 -0.5579
 2996SOL    HW1 9378   4.288   4.075   4.702 -0.6411 -0.1689 -1.2670
 2996SOL    HW2 9379   4.149   4.087   4.761 -0.0641 -1.0869  0.3393
 2997SOL     OW 9380   1.208   5.661   2.797 -0.5214  0.5608 -0.1418
 2997SOL    HW1 9381   1.251   5.745   2.787 -0.7154  0.6404 -0.3275
 2997SOL    HW2 9382   1.127   5.669   2.745  0.4000 -0.4125 -1.8154
 2998SOL     OW 9383   4.359   1.611   3.199 -0.2496  0.2165 -0.3613
 2998SOL    HW1 9384   4.442   1.571   3.226 -1.0892 -0.7970  0.8449
 2998SOL    HW2 9385   4.328   1.555   3.128 -0.5283 -0.2192  0.0904
 2999SOL     OW 9386   2.829   1.793   5.095  0.0570  0.1822 -0.2710
 2999SOL    HW1 9387   2.825   1.724   5.029 -0.9676  0.4167 -0.4733
 2999SOL    HW2 9388   2.849   1.747   5.176 -0.6954 -0.3852 -0.3892
 3000SOL     OW 9389   5.373   2.628   0.820 -1.2113  0.1978 -0.1958
 3000SOL    HW1 9390   5.429   2.635   0.896 -0.9362 -1.0033 -0.2803
 3000SOL    HW2 9391   5.303   2.568   0.846 -1.0972 -0.2508 -0.8967
 3001SOL     OW 9392   0.407   3.363   1.991 -0.3801 -0.4275  0.5027
 3001SOL    HW1 9393   0.386   3.306   1.916 -0.7366  0.4814 -0.1126
 3001SOL    HW2 9394   0.323   3.404   2.013 -0.2605 -0.6418  1.3662
 3002SOL     OW 9395   2.021   2.549   6.045 -0.2877 -0.0255  0.2007
 3002SOL    HW1 9396   2.059   2.462   6.054 -0.5733 -0.0393  1.6272
 3002SOL    HW2 9397   2.090   2.602   6.005 -0.3388 -1.0315 -1.2876
 3003SOL     OW 9398   5.808   5.675   2.517  0.3936  0.0404  0.6828
 3003SOL    HW1 9399   5.771   5.731   2.449  0.5017 -0.1796  0.4366
 3003SOL    HW2 9400   5.757   5.594   2.512  0.4906 -0.0277  0.7701
 3004SOL     OW 9401   2.937   3.942   1.695  0.4335 -0.0565 -0.9849
 3004SOL    HW1 9402   2.906   4.033   1.699 -2.4278 -0.9543 -0.4417
 3004SOL    HW2 9403   2.949   3.925   1.602 -0.9010  0.3441 -1.2564
 3005SOL     OW 9404   1.730   0.147   2.708 -0.4531  0.5975  0.1097
 3005SOL    HW1 9405   1.678   0.228   2.715 -1.3727  0.0359 -0.0242
 3005SOL    HW2 9406   1.669   0.078   2.735 -0.1479 -0.2192 -1.2011
 3006SOL     OW 9407   3.600   5.477   2.344 -0.6105 -0.2149  0.6329
 3006SOL    HW1 9408   3.610   5.551   2.404  1.2403 -0.2171  0.3975
 3006SOL    HW2 9409   3.609   5.400   2.400 -1.2820 -0.2437  0.6993
 3007SOL     OW 9410   0.169   4.211   4.351 -0.3868 -0.1845  0.0848
 3007SOL    HW1 9411   0.099   4.277   4.353 -0.7524 -0.5831  0.5750
 3007SOL    HW2 9412   0.221   4.235   4.274 -0.1440  1.0622  0.6049
 3008SOL     OW 9413   0.499   4.940   2.890 -0.2495 -0.6686  0.5809
 3008SOL    HW1 9414   0.498   4.906   2.979  1.3590 -0.3720  0.7388
 3008SOL    HW2 9415   0.507   5.034   2.900  0.0786 -0.6445  0.1194
 3009SOL     OW 9416   1.503   3.541   4.564  0.5486 -0.5963  0.4836
 3009SOL    HW1 9417   1.540   3.456   4.585  2.5417  0.5832  2.1367
 3009SOL    HW2 9418   1.461   3.570   4.645 -1.0103 -0.4026 -0.3549
 3010SOL     OW 9419   1.115   5.326   0.806 -0.3262 -0.4078  0.0484
 3010SOL    HW1 9420   1.168   5.305   0.729  0.8008 -0.0952  0.7292
 3010SOL    HW2 9421   1.025   5.305   0.779 -0.2469  1.5288 -2.0586
 3011SOL     OW 9422   5.639   1.805   6.241  0.0749 -0.1018 -0.4562
 3011SOL    HW1 9423   5.700   1.847   6.302 -0.6426 -1.2681  1.1266
 3011SOL    HW2 9424   5.693   1.743   6.192  0.1173 -1.7267  1.4950
 3012SOL     OW 9425   3.287   6.363   2.208  0.4941 -0.2229 -0.5633
 3012SOL    HW1 9426   3.302   6.269   2.200 -0.6735 -0.6218  1.2590
 3012SOL    HW2 9427   3.194   6.374   2.185  0.7449  0.5768 -1.2498
 3013SOL     OW 9428   4.060   4.886   5.755  0.0202 -0.4180 -0.2994
 3013SOL    HW1 9429   4.085   4.961   5.809  0.2265 -0.5381 -0.2248
 3013SOL    HW2 9430   4.029   4.821   5.818  1.9419 -1.2397 -0.1236
 3014SOL     OW 9431   6.014   0.761   3.552 -0.2499  0.3846 -0.4912
 3014SOL    HW1 9432   5.988   0.720   3.470 -1.9080 -0.9394  0.6251
 3014SOL    HW2 9433   6.004   0.855   3.537  1.2664  0.3059 -2.3341
 3015SOL     OW 9434   2.948   5.450   5.495 -0.2851 -0.0534  0.1937
 3015SOL    HW1 9435   2.893   5.450   5.574 -0.5962 -2.0255  0.0255
 3015SOL    HW2 9436   3.035   5.474   5.527 -0.8867  1.6278  0.7021
 3016SOL     OW 9437   1.040   2.281   5.363 -0.7628  0.1533  0.2165
 3016SOL    HW1 9438   1.003   2.237   5.439 -0.3975  0.8541  0.8164
 3016SOL    HW2 9439   0.975   2.268   5.293 -0.8348 -0.9894  0.4720
 3017SOL     OW 9440   3.321   5.731   1.870  0.5564 -0.3407 -0.6303
 3017SOL    HW1 9441   3.290   5.709   1.958 -1.0746 -1.9476 -1.5397
 3017SOL    HW2 9442   3.258   5.795   1.838  0.6904 -0.3554 -0.9271
 3018SOL     OW 9443   5.776   2.781   4.296  0.4859 -0.3042  0.2573
 3018SOL    HW1 9444   5.828   2.704   4.270  2.0800  0.6465  0.5151
 3018SOL    HW2 9445   5.838   2.853   4.296 -0.5752  0.6651  1.8244
 3019SOL     OW 9446   5.066   3.862   4.093  0.0220 -0.1349 -0.2251
 3019SOL    HW1 9447   5.068   3.767   4.096  2.7232 -0.1701 -0.1260
 3019SOL    HW2 9448   5.124   3.890   4.164  0.4185  1.5066 -1.1215
 3020SOL     OW 9449   1.580   0.773   2.926 -0.5892  0.4811  0.3550
 3020SOL    HW1 9450   1.637   0.800   2.853 -2.3436  0.7386 -0.9964
 3020SOL    HW2 9451   1.491   0.783   2.891 -1.4544 -0.7325  2.0923
 3021SOL     OW 9452   4.445   5.404   2.465  0.0166  0.2773  0.1218
 3021SOL    HW1 9453   4.516   5.453   2.424  0.9646 -0.4097  0.8884
 3021SOL    HW2 9454   4.433   5.447   2.550  1.0126 -0.9108  0.8970
 3022SOL     OW 9455   0.401   2.075   3.264  0.1497 -0.0343  0.1884
 3022SOL    HW1 9456   0.398   2.009   3.333  1.3141  0.4188  0.6972
 3022SOL    HW2 9457   0.320   2.124   3.273 -0.1964 -0.6667  0.5371
 3023SOL     OW 9458   0.224   4.107   3.805  0.4784  0.0322  0.1698
 3023SOL    HW1 9459   0.315   4.083   3.786  0.3344 -0.1288 -0.3448
 3023SOL    HW2 9460   0.177   4.024   3.803  0.4218  0.0374  1.0700
 3024SOL     OW 9461   3.906   3.056   2.108  0.3602  0.0716 -0.3802
 3024SOL    HW1 9462   3.839   2.988   2.109  0.3244  0.0899 -1.1552
 3024SOL    HW2 9463   3.904   3.093   2.196  0.8258 -1.3611  0.2640
 3025SOL     OW 9464   2.362   0.312   4.712  0.6330 -0.5468  0.1440
 3025SOL    HW1 9465   2.401   0.376   4.652 -1.7137  1.0503  0.2038
 3025SOL    HW2 9466   2.406   0.326   4.795 -1.1688  2.5178  0.7152
 3026SOL     OW 9467   3.172   5.457   0.335 -0.3654  0.0810  0.2687
 3026SOL    HW1 9468   3.250   5.402   0.341 -1.0664 -0.8235  1.8463
 3026SOL    HW2 9469   3.204   5.545   0.356  0.6722  0.2611 -1.7833
 3027SOL     OW 9470   0.268   0.612   4.167 -0.0972  0.0679 -0.2418
 3027SOL    HW1 9471   0.231   0.552   4.101  0.9610 -0.9410  0.0340
 3027SOL    HW2 9472   0.207   0.608   4.240  0.8835 -2.2158  0.5423
 3028SOL     OW 9473   4.162   0.353   4.463 -0.1321 -0.4189 -0.3610
 3028SOL    HW1 9474   4.165   0.443   4.494 -1.6547  0.1448 -1.7345
 3028SOL    HW2 9475   4.254   0.326   4.458  0.2936  0.6559  1.1105
 3029SOL     OW 9476   0.305   3.155   1.757  0.2987 -0.6705 -0.6297
 3029SOL    HW1 9477   0.253   3.235   1.752  0.3971 -0.5110  0.6016
 3029SOL    HW2 9478   0.310   3.124   1.666 -0.3062  0.3465 -1.0290
 3030SOL     OW 9479   2.117   5.419   5.731 -0.0491 -0.8025  0.1034
 3030SOL    HW1 9480   2.203   5.378   5.735  0.5029  0.1528 -1.3473
 3030SOL    HW2 9481   2.128   5.493   5.672 -2.2658 -1.6511 -1.5192
 3031SOL     OW 9482   1.979   2.925   2.276 -0.2753 -0.7519  0.2357
 3031SOL    HW1 9483   1.971   3.020   2.285 -0.8508 -0.8268  0.5851
 3031SOL    HW2 9484   1.893   2.892   2.304 -0.2403 -1.3421 -0.3417
 3032SOL     OW 9485   1.807   3.197   6.029  0.3954  0.1305 -0.6452
 3032SOL    HW1 9486   1.894   3.211   6.066  0.0375  1.6413 -0.3461
 3032SOL    HW2 9487   1.757   3.275   6.051 -0.6957 -0.1764 -1.8482
 3033SOL     OW 9488   2.166   0.024   4.893  0.1972  0.5510  0.2959
 3033SOL    HW1 9489   2.220   0.025   4.814  2.3429 -0.9722  1.6574
 3033SOL    HW2 9490   2.099  -0.042   4.874  0.7180  0.1618 -0.2357
 3034SOL     OW 9491   1.371   1.447   5.430  0.0610  0.0477 -0.2977
 3034SOL    HW1 9492   1.363   1.352   5.426  1.7580 -0.2466  1.6885
 3034SOL    HW2 9493   1.390   1.474   5.340  0.5191 -1.5896 -0.7148
 3035SOL     OW 9494   0.092   5.942   5.910  0.2830  0.0698 -0.0477
 3035SOL    HW1 9495   0.062   5.930   6.001 -0.5716  0.5286 -0.2620
 3035SOL    HW2 9496   0.082   6.035   5.893 -1.5485 -0.2987 -1.2785
 3036SOL     OW 9497   5.364   2.200   2.169  0.0306 -0.3974 -0.3349
 3036SOL    HW1 9498   5.401   2.220   2.255 -0.5380  1.8640 -0.5446
 3036SOL    HW2 9499   5.433   2.221   2.107 -0.2537 -0.0139 -0.5252
 3037SOL     OW 9500   2.162   5.115   1.704  0.1093 -0.2907  0.3263
 3037SOL    HW1 9501   2.136   5.150   1.618  2.7655 -0.8166 -0.7981
 3037SOL    HW2 9502   2.188   5.192   1.754  0.7231 -0.1648 -0.1763
 3038SOL     OW 9503   0.375   2.519   0.820 -0.2835 -0.7439  0.7833
 3038SOL    HW1 9504   0.417   2.469   0.890 -0.3956 -0.5622  0.9768
 3038SOL    HW2 9505   0.283   2.495   0.826 -0.3206 -0.5905  0.8090
 3039SOL     OW 9506   1.859   5.634   2.247  0.0359 -1.0580  0.4510
 3039SOL    HW1 9507   1.879   5.585   2.327 -0.4055 -0.8622  0.6904
 3039SOL    HW2 9508   1.764   5.626   2.237 -0.1424  0.2215  0.8312
 3040SOL     OW 9509   6.761   2.549   0.667  0.0474  0.1474 -0.1256
 3040SOL    HW1 9510   6.728   2.627   0.710  0.1289  0.1468 -0.0615
 3040SOL    HW2 9511   6.683   2.502   0.639  0.0063  0.5249 -0.6573
 3041SOL     OW 9512   2.892   2.051   0.862 -0.2304 -0.1429  0.6680
 3041SOL    HW1 9513   2.955   2.047   0.935  0.4606  1.3357  0.1887
 3041SOL    HW2 9514   2.931   2.112   0.800 -0.2285 -2.2785 -1.5478
 3042SOL     OW 9515   3.555   5.729   1.086 -0.3434  0.5349 -0.6197
 3042SOL    HW1 9516   3.648   5.707   1.088 -0.6012 -0.6004  0.8126
 3042SOL    HW2 9517   3.514   5.654   1.042 -0.6369  0.7991 -0.7994
 3043SOL     OW 9518   4.264   6.458   3.548 -0.4899  0.1720  0.5821
 3043SOL    HW1 9519   4.310   6.390   3.499 -0.7140  1.2838 -1.2786
 3043SOL    HW2 9520   4.205   6.498   3.483 -1.5985  1.0199  2.0501
 3044SOL     OW 9521   5.217   4.671   0.414 -0.1218  0.2472 -0.5085
 3044SOL    HW1 9522   5.247   4.635   0.498 -0.7169  0.1813 -0.3166
 3044SOL    HW2 9523   5.240   4.764   0.419  0.4863  0.1044 -0.5725
 3045SOL     OW 9524   4.834   5.695   4.749  0.0732 -0.1299 -0.6087
 3045SOL    HW1 9525   4.762   5.756   4.765 -0.1688 -0.5348 -0.1202
 3045SOL    HW2 9526   4.866   5.674   4.837  0.8249  0.0864 -0.8230
 3046SOL     OW 9527   5.962   5.257   3.339 -0.0799 -0.3390 -0.2448
 3046SOL    HW1 9528   5.914   5.317   3.397 -0.5420  0.7272 -1.6853
 3046SOL    HW2 9529   5.897   5.194   3.310 -0.0195 -0.4280 -0.1860
 3047SOL     OW 9530   4.549   2.012   1.810 -0.1693 -0.2763  0.9086
 3047SOL    HW1 9531   4.529   2.103   1.790 -0.4350 -0.6974 -0.9383
 3047SOL    HW2 9532   4.466   1.966   1.797 -0.4252 -0.6174  3.3105
 3048SOL     OW 9533   1.154   5.533   0.300  0.5259  0.0710 -0.1196
 3048SOL    HW1 9534   1.113   5.593   0.238  0.3300  2.3375  2.0350
 3048SOL    HW2 9535   1.226   5.493   0.252 -1.4196 -0.6401 -2.6614
 3049SOL     OW 9536   2.653   1.177   6.068 -0.0312  0.2384 -0.1207
 3049SOL    HW1 9537   2.570   1.224   6.062  0.1384  0.3953 -2.0466
 3049SOL    HW2 9538   2.631   1.094   6.110 -1.0381  0.5607  0.0095
 3050SOL     OW 9539   6.452   2.559   0.964 -0.5534  0.6364  0.4420
 3050SOL    HW1 9540   6.519   2.496   0.990  0.3805  1.9977  1.4928
 3050SOL    HW2 9541   6.369   2.511   0.974  0.1795 -0.7220  0.2028
 3051SOL     OW 9542   3.407   6.694   6.771 -0.2835  0.2646  0.5670
 3051SOL    HW1 9543   3.463   6.625   6.808  0.6673  0.3793 -0.6088
 3051SOL    HW2 9544   3.468   6.762   6.743 -0.7172 -0.5586 -2.8074
 3052SOL     OW 9545   2.457   2.440   1.186 -0.3303 -0.1921  0.0997
 3052SOL    HW1 9546   2.548   2.419   1.169 -0.1022  0.6478  0.2169
 3052SOL    HW2 9547   2.407   2.379   1.132  0.3091 -0.1911 -0.5028
 3053SOL     OW 9548   0.312   3.994   2.897 -1.0608 -0.1507 -0.0209
 3053SOL    HW1 9549   0.373   3.921   2.892 -1.3151 -0.2928 -1.8540
 3053SOL    HW2 9550   0.319   4.026   2.987  1.4425 -0.3810 -0.0710
 3054SOL     OW 9551   6.456   3.381   3.688  0.4661 -0.0367  0.2873
 3054SOL    HW1 9552   6.403   3.426   3.753  0.7996  0.4110  0.2487
 3054SOL    HW2 9553   6.547   3.395   3.716  0.5886 -0.3163  0.0387
 3055SOL     OW 9554   0.996   6.044   2.969  0.4861  0.0712 -0.2994
 3055SOL    HW1 9555   1.044   6.014   2.892  0.7882  0.9317 -0.4520
 3055SOL    HW2 9556   1.060   6.046   3.039 -0.0202 -1.7798  0.2843
 3056SOL     OW 9557   0.955   3.374   0.103  0.5776  0.2882 -0.3399
 3056SOL    HW1 9558   1.014   3.405   0.172 -0.1828  0.0382  0.4510
 3056SOL    HW2 9559   1.000   3.299   0.065  0.6788 -0.0562  0.4275
 3057SOL     OW 9560   1.304   6.718   3.172 -0.2065  0.6368 -0.2016
 3057SOL    HW1 9561   1.371   6.779   3.204  1.8441 -2.0774  1.0890
 3057SOL    HW2 9562   1.314   6.720   3.076  2.2699 -0.1359 -0.0443
 3058SOL     OW 9563   4.016   2.435   1.149  0.1479 -0.2353 -0.0372
 3058SOL    HW1 9564   3.943   2.459   1.092  0.0074 -0.2713  0.1274
 3058SOL    HW2 9565   4.060   2.364   1.102  0.6153  0.3913 -0.5610
 3059SOL     OW 9566   1.104   5.249   5.236  0.2084  0.4164  0.3106
 3059SOL    HW1 9567   1.168   5.218   5.171  0.4021  3.4784 -1.1128
 3059SOL    HW2 9568   1.153   5.311   5.290 -0.7194  0.0812  1.5767
 3060SOL     OW 9569   1.471   0.910   3.530 -0.6113  0.2890 -0.0710
 3060SOL    HW1 9570   1.496   0.892   3.621  1.5089 -1.7554 -0.9470
 3060SOL    HW2 9571   1.378   0.886   3.525 -0.8560  0.7824  1.6222
 3061SOL     OW 9572   0.664   5.454   3.145 -0.6481 -0.3936 -0.6617
 3061SOL    HW1 9573   0.732   5.516   3.120 -0.4532 -0.8684 -1.3091
 3061SOL    HW2 9574   0.588   5.481   3.093 -0.4295 -0.9787 -1.2932
 3062SOL     OW 9575   4.487   3.223   5.578 -0.2987 -0.2831 -0.1227
 3062SOL    HW1 9576   4.565   3.245   5.627  1.5725 -2.5187 -1.8612
 3062SOL    HW2 9577   4.446   3.152   5.628 -0.8239  0.3794  0.4006
 3063SOL     OW 9578   6.335   4.705   6.022  0.1339 -0.0215 -0.4343
 3063SOL    HW1 9579   6.360   4.772   6.086 -0.0979  0.8201 -1.2045
 3063SOL    HW2 9580   6.283   4.642   6.072 -1.0405  1.2292 -0.0363
 3064SOL     OW 9581   6.148   5.526   0.136 -0.0448  0.0492  0.3147
 3064SOL    HW1 9582   6.156   5.621   0.144 -1.2917  0.4176 -1.9095
 3064SOL    HW2 9583   6.195   5.505   0.055  2.5448 -1.6893  2.1250
 3065SOL     OW 9584   4.503   5.334   0.080 -0.3666 -0.1700  0.2585
 3065SOL    HW1 9585   4.417   5.311   0.116  0.5440  0.6900  3.3353
 3065SOL    HW2 9586   4.509   5.429   0.093  1.0862 -0.2398  0.2433
 3066SOL     OW 9587   6.585   2.807   3.721 -0.3646 -0.1137  0.1047
 3066SOL    HW1 9588   6.587   2.902   3.709 -1.8449 -0.0730 -0.0456
 3066SOL    HW2 9589   6.599   2.771   3.634  1.3453 -0.0854  0.3320
 3067SOL     OW 9590   0.809   4.269   4.100  0.2479 -0.6962 -0.3764
 3067SOL    HW1 9591   0.837   4.344   4.152 -2.0000 -0.1366  0.1588
 3067SOL    HW2 9592   0.808   4.301   4.010 -1.5088  0.2608 -0.0664
 3068SOL     OW 9593   1.646   6.682   3.163 -0.4274  0.0383  0.0943
 3068SOL    HW1 9594   1.577   6.739   3.198  0.2807  1.4681 -0.7661
 3068SOL    HW2 9595   1.728   6.723   3.189  0.1545  1.1555 -2.9852
 3069SOL     OW 9596   6.245   5.032   1.777  0.3811  0.1153 -0.6561
 3069SOL    HW1 9597   6.218   5.108   1.829  0.2016 -0.0116 -0.5617
 3069SOL    HW2 9598   6.227   4.957   1.834  2.3618  0.0999  0.0426
 3070SOL     OW 9599   5.678   6.383   3.068 -0.1372  0.0334 -0.2067
 3070SOL    HW1 9600   5.695   6.294   3.100 -0.2720 -0.3512 -1.1799
 3070SOL    HW2 9601   5.734   6.439   3.122 -1.3849 -0.4227  1.6935
 3071SOL     OW 9602   2.905   4.088   3.088 -0.1504  0.1251 -0.0413
 3071SOL    HW1 9603   2.913   4.169   3.039  0.5413  0.4084  0.5176
 3071SOL    HW2 9604   2.995   4.068   3.116 -0.2229 -1.0924 -0.5826
 3072SOL     OW 9605   5.830   6.337   0.911 -0.3075 -0.0943  0.3760
 3072SOL    HW1 9606   5.792   6.330   0.823 -1.7014 -0.3498  0.9817
 3072SOL    HW2 9607   5.899   6.402   0.901 -0.3706 -0.1921 -0.9372
 3073SOL     OW 9608   5.784   5.402   5.536  0.4035 -0.1545 -0.2823
 3073SOL    HW1 9609   5.796   5.496   5.550  2.1867 -0.2535 -0.9420
 3073SOL    HW2 9610   5.856   5.360   5.584  0.4652 -1.0893 -1.1510
 3074SOL     OW 9611   2.392   2.985   4.661  0.9564  0.0617  0.8229
 3074SOL    HW1 9612   2.332   3.055   4.687  0.4361  0.2907 -0.8802
 3074SOL    HW2 9613   2.449   3.025   4.595  0.7308 -1.0746 -0.0875
 3075SOL     OW 9614   4.210   0.093   4.150 -0.3564 -0.2007  0.0219
 3075SOL    HW1 9615   4.246   0.148   4.081 -2.4315  0.0729 -0.8962
 3075SOL    HW2 9616   4.271   0.105   4.224  1.4064  0.1960 -1.4166
 3076SOL     OW 9617   5.021   3.359   0.940  0.3061  1.0467  0.7843
 3076SOL    HW1 9618   5.082   3.433   0.950  2.1816 -0.1788 -0.7663
 3076SOL    HW2 9619   5.077   3.281   0.944 -1.0123 -0.1184 -1.4415
 3077SOL     OW 9620   2.449   3.423   2.710 -0.3710 -0.0148 -0.7132
 3077SOL    HW1 9621   2.417   3.460   2.627  1.0260 -0.4673 -1.4985
 3077SOL    HW2 9622   2.454   3.328   2.693 -2.1417 -0.4017  0.6499
 3078SOL     OW 9623   5.541   2.660   6.462  0.4227  0.0896 -0.1386
 3078SOL    HW1 9624   5.525   2.722   6.391 -1.0949  0.8346  0.8264
 3078SOL    HW2 9625   5.516   2.575   6.425 -0.2703  0.4574 -0.5238
 3079SOL     OW 9626   5.934   3.205   5.059  0.8305 -0.1327 -0.1975
 3079SOL    HW1 9627   5.950   3.132   5.000 -0.2731 -1.3502  0.9335
 3079SOL    HW2 9628   5.873   3.170   5.124 -0.4591  2.0570 -0.1178
 3080SOL     OW 9629   5.030   5.986   2.688  0.0716 -0.3931 -0.0319
 3080SOL    HW1 9630   5.112   5.957   2.648  0.3678 -2.2081  1.7425
 3080SOL    HW2 9631   5.036   5.958   2.779 -3.7180 -3.3782 -0.4439
 3081SOL     OW 9632   5.247   5.868   5.318  0.4808 -0.2854 -0.2995
 3081SOL    HW1 9633   5.308   5.813   5.270  0.8439 -0.1740  0.0254
 3081SOL    HW2 9634   5.289   5.883   5.402  1.9436  3.1560 -1.4703
 3082SOL     OW 9635   2.834   1.553   5.319  0.1696 -0.3920  0.5481
 3082SOL    HW1 9636   2.818   1.462   5.344 -0.3374 -0.5951 -0.4757
 3082SOL    HW2 9637   2.748   1.593   5.319  0.2839 -0.1461  0.1021
 3083SOL     OW 9638   4.648   2.116   1.513  0.5813  0.1587  0.5092
 3083SOL    HW1 9639   4.682   2.087   1.597  0.6286 -1.6089 -0.0791
 3083SOL    HW2 9640   4.604   2.039   1.477  1.8221  0.3952 -1.7142
 3084SOL     OW 9641   4.480   0.807   5.041 -0.0885  0.8443 -0.3238
 3084SOL    HW1 9642   4.568   0.824   5.007  0.9532 -2.3256  0.3843
 3084SOL    HW2 9643   4.490   0.725   5.091 -3.2772  0.8473  0.5098
 3085SOL     OW 9644   0.057   6.787   6.421  1.0699 -0.1339  0.0598
 3085SOL    HW1 9645   0.010   6.704   6.414  1.0398 -0.1395  0.3106
 3085SOL    HW2 9646   0.144   6.762   6.451  0.3864  0.0898  2.4554
 3086SOL     OW 9647   5.442   1.916   2.937 -0.8313  0.0402 -0.0773
 3086SOL    HW1 9648   5.410   1.903   2.848 -0.6491  0.0994 -0.1517
 3086SOL    HW2 9649   5.503   1.990   2.930  0.4154 -0.9569 -0.1989
 3087SOL     OW 9650   5.116   2.947   5.260 -0.0856  0.4362  0.0482
 3087SOL    HW1 9651   5.175   2.950   5.184  0.0657 -1.0514  0.0781
 3087SOL    HW2 9652   5.113   2.854   5.285 -0.5928  0.8145  1.5096
 3088SOL     OW 9653   6.029   1.355   4.916 -0.4785  0.0617 -0.8460
 3088SOL    HW1 9654   5.982   1.290   4.864  0.2020 -1.3651  0.2438
 3088SOL    HW2 9655   5.967   1.427   4.927 -1.8840 -1.1202 -0.6955
 3089SOL     OW 9656   2.001   4.685   4.472  0.4941  0.2935  0.4742
 3089SOL    HW1 9657   2.081   4.687   4.418  0.0919 -0.3291 -0.1634
 3089SOL    HW2 9658   2.028   4.644   4.554  1.2308  1.7011  0.9618
 3090SOL     OW 9659   2.190   4.180   3.327 -0.2155 -0.4675  0.2296
 3090SOL    HW1 9660   2.281   4.190   3.353  0.3921 -2.4695 -0.9136
 3090SOL    HW2 9661   2.144   4.154   3.407  0.3458 -0.1411  0.6621
 3091SOL     OW 9662   2.077   5.239   2.841  0.2645  0.4249 -0.1571
 3091SOL    HW1 9663   2.016   5.292   2.892  0.3523 -1.5664  2.1875
 3091SOL    HW2 9664   2.155   5.293   2.832 -0.2560  1.3343  0.6692
 3092SOL     OW 9665   3.993   1.697   3.417  0.1611  0.7677 -0.5864
 3092SOL    HW1 9666   4.018   1.615   3.374 -0.5392  0.8174 -1.1032
 3092SOL    HW2 9667   3.907   1.679   3.455  0.1618  1.1526 -0.3976
 3093SOL     OW 9668   1.632   3.268   2.793  0.4843  0.1029  0.1724
 3093SOL    HW1 9669   1.725   3.290   2.793  0.3575  0.6632  1.1804
 3093SOL    HW2 9670   1.587   3.352   2.795 -0.0611 -0.1552 -0.6258
 3094SOL     OW 9671   0.967   1.513   4.934 -0.1819 -0.3276 -0.2528
 3094SOL    HW1 9672   0.904   1.513   4.861  1.2029 -0.8257 -1.4937
 3094SOL    HW2 9673   0.951   1.431   4.980  1.3399 -1.8355 -2.2324
 3095SOL     OW 9674   0.208   2.830   2.713  0.0189  0.2822  0.7038
 3095SOL    HW1 9675   0.211   2.864   2.802  1.2217 -0.7270  1.0899
 3095SOL    HW2 9676   0.216   2.735   2.723 -1.2164  0.0249 -0.4258
 3096SOL     OW 9677   0.750   3.075   3.114  0.0495  0.3142  0.0935
 3096SOL    HW1 9678   0.745   3.006   3.048 -1.0054  0.4547  0.0160
 3096SOL    HW2 9679   0.833   3.120   3.095 -0.4997  0.7142 -1.5060
 3097SOL     OW 9680   5.288   0.500   4.974 -0.0770 -0.0850 -0.2646
 3097SOL    HW1 9681   5.260   0.558   5.045  2.7691  1.8744 -0.5937
 3097SOL    HW2 9682   5.344   0.436   5.017  2.3881  1.6362 -0.7034
 3098SOL     OW 9683   0.310   5.666   0.872 -0.1816  0.4336  0.3496
 3098SOL    HW1 9684   0.336   5.625   0.954 -0.7536 -0.0590  0.2890
 3098SOL    HW2 9685   0.341   5.756   0.880  0.0710  0.2988  0.9627
 3099SOL     OW 9686   0.524   5.198   6.304 -0.2855  0.5639 -0.1840
 3099SOL    HW1 9687   0.527   5.288   6.271  1.0600  0.0948 -1.4875
 3099SOL    HW2 9688   0.545   5.205   6.397  0.8158  1.5198 -0.4858
 3100SOL     OW 9689   1.294   5.158   5.082 -0.8553 -0.4675 -0.3016
 3100SOL    HW1 9690   1.377   5.206   5.088 -1.2184  0.0987  0.4729
 3100SOL    HW2 9691   1.295   5.118   4.995 -0.6245  1.1163 -1.0616
 3101SOL     OW 9692   4.868   1.358   1.654  0.9938  0.0507 -0.5605
 3101SOL    HW1 9693   4.859   1.416   1.578  4.3611 -0.7663 -1.7508
 3101SOL    HW2 9694   4.843   1.272   1.621 -0.4023  0.1569  0.1566
 3102SOL     OW 9695   5.685   3.627   3.195  0.3688 -0.3932  0.6932
 3102SOL    HW1 9696   5.643   3.706   3.229  0.3514  0.1198 -0.4927
 3102SOL    HW2 9697   5.778   3.649   3.190  0.1916  0.0983 -1.0281
 3103SOL     OW 9698   4.799   6.272   2.341 -0.8630  0.0024  0.4435
 3103SOL    HW1 9699   4.828   6.236   2.424  1.3469  0.9050  0.1387
 3103SOL    HW2 9700   4.779   6.364   2.360  0.4996  0.4493 -0.1397
 3104SOL     OW 9701   3.678   5.332   6.507 -0.3174 -0.1665  0.4429
 3104SOL    HW1 9702   3.602   5.282   6.536 -0.8146  0.4352  0.1892
 3104SOL    HW2 9703   3.705   5.290   6.425 -1.1622  0.4091 -0.1377
 3105SOL     OW 9704   2.507   1.788   0.126 -0.7303  0.4334 -0.0061
 3105SOL    HW1 9705   2.602   1.783   0.129 -0.5961  2.2479  0.1235
 3105SOL    HW2 9706   2.477   1.749   0.208 -0.2187 -1.5130 -0.6903
 3106SOL     OW 9707   3.020   2.584   0.840 -0.1353  0.6270 -0.8722
 3106SOL    HW1 9708   3.082   2.656   0.854  0.1761  0.1683  0.2420
 3106SOL    HW2 9709   3.029   2.530   0.918 -4.1147  2.1000  0.8415
 3107SOL     OW 9710   5.478   6.089   6.772 -0.0527 -0.0232  0.4645
 3107SOL    HW1 9711   5.520   6.124   6.851  0.4606 -1.9122  1.0630
 3107SOL    HW2 9712   5.384   6.097   6.790  0.0575 -0.3249  1.2311
 3108SOL     OW 9713   4.079   0.216   0.789  0.5150  0.5518  0.0524
 3108SOL    HW1 9714   4.121   0.230   0.874  0.4709  0.2612  0.1268
 3108SOL    HW2 9715   4.016   0.145   0.806 -0.2895  1.2484  0.0363
 3109SOL     OW 9716   2.086   4.204   2.764  0.3287  0.1100  0.0419
 3109SOL    HW1 9717   2.011   4.187   2.822 -0.6823  0.7064 -1.0408
 3109SOL    HW2 9718   2.051   4.189   2.676  0.7274  2.9234 -0.6677
 3110SOL     OW 9719   2.215   2.481   2.402 -0.3000  0.1742 -0.2753
 3110SOL    HW1 9720   2.176   2.405   2.357 -1.6734  0.3486  0.5731
 3110SOL    HW2 9721   2.224   2.547   2.334 -0.3781 -0.2788 -0.7329
 3111SOL     OW 9722   2.249   6.282   3.362 -0.4180 -0.2951  0.0456
 3111SOL    HW1 9723   2.226   6.195   3.394 -1.1829  0.0968  0.6158
 3111SOL    HW2 9724   2.260   6.271   3.268  0.3159 -1.1644  0.2283
 3112SOL     OW 9725   0.698   1.546   3.554  0.2862  0.0119  0.5509
 3112SOL    HW1 9726   0.643   1.479   3.514  1.7568 -1.2126  0.4800
 3112SOL    HW2 9727   0.754   1.577   3.483  0.7257  0.1389  0.9447
 3113SOL     OW 9728   1.630   6.019   5.950  0.2052 -0.3394  0.1119
 3113SOL    HW1 9729   1.596   5.948   5.895 -1.0754  1.0858 -1.0240
 3113SOL    HW2 9730   1.591   6.003   6.036 -2.2554  0.3583 -0.7681
 3114SOL     OW 9731   5.353   6.370   0.193 -1.2607  0.2386 -0.4356
 3114SOL    HW1 9732   5.427   6.422   0.223  0.1482 -1.0301 -1.5716
 3114SOL    HW2 9733   5.343   6.393   0.101 -0.8362 -1.1692 -0.8706
 3115SOL     OW 9734   5.375   0.189   5.849 -0.2045 -0.2739 -0.2986
 3115SOL    HW1 9735   5.374   0.232   5.764  0.3350 -0.2138 -0.2791
 3115SOL    HW2 9736   5.283   0.188   5.877 -0.2847  0.4519 -0.5100
 3116SOL     OW 9737   4.308   2.429   5.589  0.0859  0.3306  0.0999
 3116SOL    HW1 9738   4.356   2.511   5.603  1.8170 -0.6247  0.0529
 3116SOL    HW2 9739   4.282   2.402   5.677  1.5274 -0.2103  0.3816
 3117SOL     OW 9740   5.522   2.485   4.074  0.1062 -0.3268 -0.3183
 3117SOL    HW1 9741   5.577   2.509   4.000 -0.5435 -0.3265 -0.8146
 3117SOL    HW2 9742   5.507   2.391   4.064  1.8213 -0.8081  1.0602
 3118SOL     OW 9743   5.858   6.431   5.587  0.4584 -0.2092 -0.3238
 3118SOL    HW1 9744   5.783   6.383   5.552 -0.5817  2.3121 -1.8393
 3118SOL    HW2 9745   5.911   6.452   5.511  0.1667  2.0890  0.0142
 3119SOL     OW 9746   3.263   4.455   6.761 -0.1305 -0.1345  0.0848
 3119SOL    HW1 9747   3.240   4.386   6.823 -0.6118  1.3588  1.6811
 3119SOL    HW2 9748   3.180   4.480   6.720  0.3008 -1.6677 -1.8534
 3120SOL     OW 9749   6.524   6.557   3.130 -0.0506  0.5694  0.2750
 3120SOL    HW1 9750   6.441   6.509   3.127  0.2992 -0.0043 -1.1655
 3120SOL    HW2 9751   6.586   6.495   3.167  0.3739 -0.1095 -1.4727
 3121SOL     OW 9752   1.654   2.116   6.718  0.2425  0.3852  0.0836
 3121SOL    HW1 9753   1.725   2.059   6.688  0.8107  1.3005 -0.3425
 3121SOL    HW2 9754   1.612   2.147   6.637  1.3222  2.2930  0.2096
 3122SOL     OW 9755   1.670   4.538   4.738  0.2459 -0.0594 -0.3310
 3122SOL    HW1 9756   1.764   4.528   4.755  0.0687  0.5267  1.1224
 3122SOL    HW2 9757   1.658   4.632   4.723 -0.0749 -0.1759 -0.8481
 3123SOL     OW 9758   4.187   5.475   6.193  0.1029 -0.3434  0.1130
 3123SOL    HW1 9759   4.170   5.562   6.157 -0.2757 -0.5698 -0.2601
 3123SOL    HW2 9760   4.121   5.418   6.153  1.7899 -1.2891 -1.4888
 3124SOL     OW 9761   5.969   5.157   2.987  0.4230 -0.1328 -0.5889
 3124SOL    HW1 9762   5.894   5.108   3.021 -1.0096  0.8022 -2.2417
 3124SOL    HW2 9763   6.007   5.100   2.920 -1.1829  0.8355 -2.4391
 3125SOL     OW 9764   3.279   1.315   3.590 -0.1535  0.1165 -0.1441
 3125SOL    HW1 9765   3.347   1.325   3.657 -0.1252 -0.5945 -0.0601
 3125SOL    HW2 9766   3.197   1.317   3.639 -0.1355 -0.3306 -0.0866
 3126SOL     OW 9767   1.421   3.628   4.833 -0.7022 -0.2811 -0.0007
 3126SOL    HW1 9768   1.404   3.553   4.890  0.1537 -0.3440  0.1895
 3126SOL    HW2 9769   1.451   3.697   4.893  1.8549 -0.8654 -0.4975
 3127SOL     OW 9770   3.712   2.809   0.569  0.4877  0.1592  0.6420
 3127SOL    HW1 9771   3.682   2.746   0.634 -0.0519 -0.7091 -0.4054
 3127SOL    HW2 9772   3.793   2.770   0.534 -0.2338 -0.3450 -0.5171
 3128SOL     OW 9773   0.238   6.827   5.204 -0.3177  0.3382  0.4203
 3128SOL    HW1 9774   0.240   6.909   5.253 -1.0438  0.2271  0.6485
 3128SOL    HW2 9775   0.198   6.851   5.120  2.1558  0.8184 -0.7127
 3129SOL     OW 9776   5.327   2.160   5.261  0.2060 -0.3468  0.2081
 3129SOL    HW1 9777   5.384   2.103   5.311  2.3484 -0.5079 -2.2520
 3129SOL    HW2 9778   5.287   2.104   5.195 -0.4810  0.3264  0.0294
 3130SOL     OW 9779   2.737   5.853   3.282  0.4566  0.2801  0.0609
 3130SOL    HW1 9780   2.721   5.784   3.346  1.0382  0.2633  0.1886
 3130SOL    HW2 9781   2.797   5.813   3.219  0.5144  0.5570 -0.0590
 3131SOL     OW 9782   4.712   5.990   3.337 -0.4743 -0.2364  0.3905
 3131SOL    HW1 9783   4.805   5.968   3.329 -0.2382  0.4186  1.2373
 3131SOL    HW2 9784   4.694   6.040   3.257  0.1665  0.5292  0.7141
 3132SOL     OW 9785   5.412   4.930   6.309 -0.3264 -0.5080  0.0008
 3132SOL    HW1 9786   5.433   4.847   6.265 -0.9453  0.5431 -2.3915
 3132SOL    HW2 9787   5.495   4.958   6.348  0.0101 -1.9704  0.4024
 3133SOL     OW 9788   6.046   2.804   1.912 -0.4987 -0.3801  0.2924
 3133SOL    HW1 9789   6.041   2.800   2.007  0.0482 -0.3332  0.3220
 3133SOL    HW2 9790   6.028   2.896   1.891 -0.1211 -0.2858  0.3803
 3134SOL     OW 9791   6.436   2.081   4.271 -0.2614  0.1304  0.0509
 3134SOL    HW1 9792   6.441   2.037   4.356 -1.4191 -2.4521 -1.0879
 3134SOL    HW2 9793   6.430   2.009   4.208 -0.8948  1.9699 -2.1040
 3135SOL     OW 9794   4.297   4.677   2.230  0.2555  0.0748  0.1640
 3135SOL    HW1 9795   4.252   4.671   2.314 -2.1416 -0.7499 -1.1005
 3135SOL    HW2 9796   4.365   4.610   2.235  1.3910  1.2589  2.0736
 3136SOL     OW 9797   2.699   2.133   3.679  0.1809  0.1175  0.1633
 3136SOL    HW1 9798   2.642   2.090   3.742 -0.6678  1.5017  0.3866
 3136SOL    HW2 9799   2.772   2.072   3.667  0.1272 -0.4145  2.1073
 3137SOL     OW 9800   6.648   0.016   3.658  0.1058  0.0012  0.1991
 3137SOL    HW1 9801   6.573   0.074   3.671 -0.4738 -0.3024 -1.4600
 3137SOL    HW2 9802   6.610  -0.063   3.620  0.9770 -1.2065  1.7351
 3138SOL     OW 9803   1.194   6.226   1.017  0.4561 -0.1359  0.3083
 3138SOL    HW1 9804   1.132   6.209   0.946  0.9219  0.5036 -0.2581
 3138SOL    HW2 9805   1.280   6.221   0.976  0.7374  0.1226  0.8549
 3139SOL     OW 9806   6.529   1.486   3.377  0.0876 -0.1992 -0.4010
 3139SOL    HW1 9807   6.583   1.541   3.434 -1.0486  0.3944  0.1325
 3139SOL    HW2 9808   6.439   1.506   3.403 -0.3667 -2.0821 -0.4021
 3140SOL     OW 9809   5.331   3.446   6.291  0.5539 -0.4597 -0.5207
 3140SOL    HW1 9810   5.310   3.370   6.236 -1.5330 -0.3002 -0.0152
 3140SOL    HW2 9811   5.321   3.414   6.381  0.6378  0.1455 -0.2918
 3141SOL     OW 9812   4.534   5.034   5.652  0.4195  0.3187 -0.6950
 3141SOL    HW1 9813   4.554   5.126   5.632  0.4805  1.0271  2.1300
 3141SOL    HW2 9814   4.439   5.028   5.642  0.2751  1.0144  0.1077
 3142SOL     OW 9815   0.593   4.615   3.862  0.4180 -0.0224 -0.5323
 3142SOL    HW1 9816   0.685   4.631   3.841 -0.0186  1.3266 -1.6075
 3142SOL    HW2 9817   0.590   4.610   3.957  1.3235  1.9604 -0.3627
 3143SOL     OW 9818   4.540   4.305   3.821 -0.0783 -0.1974  0.1842
 3143SOL    HW1 9819   4.450   4.296   3.788  0.2900  0.1969 -1.0077
 3143SOL    HW2 9820   4.531   4.346   3.907 -1.1005 -1.3069  0.6174
 3144SOL     OW 9821   6.801   2.504   1.497 -0.1380  0.5006  0.3460
 3144SOL    HW1 9822   6.881   2.542   1.462 -0.3726  1.3580  0.7302
 3144SOL    HW2 9823   6.811   2.410   1.481  0.6286  0.6684 -0.2355
 3145SOL     OW 9824   0.695   0.655   0.160 -0.1379  0.0747  0.0337
 3145SOL    HW1 9825   0.687   0.608   0.078  0.3852 -1.0164  0.5988
 3145SOL    HW2 9826   0.656   0.741   0.142 -1.1915 -0.5878 -0.9831
 3146SOL     OW 9827   0.899   1.982   0.854  0.0702  0.3736 -0.3294
 3146SOL    HW1 9828   0.890   2.018   0.765 -2.7193  2.6192  0.6857
 3146SOL    HW2 9829   0.970   2.034   0.893 -0.4502  1.2125 -0.4741
 3147SOL     OW 9830   6.573   1.905   1.817  0.1907 -0.1706 -0.4319
 3147SOL    HW1 9831   6.646   1.844   1.832  1.1147  1.1619  0.7689
 3147SOL    HW2 9832   6.615   1.986   1.789 -0.8198  0.6079  0.2290
 3148SOL     OW 9833   2.219   2.681   1.482  0.3694  0.3663  0.0302
 3148SOL    HW1 9834   2.278   2.606   1.478 -0.2315 -0.1060 -0.2341
 3148SOL    HW2 9835   2.275   2.757   1.473  0.8416 -0.1013 -1.1534
 3149SOL     OW 9836   1.004   5.517   3.762 -0.2221  0.1435  0.6056
 3149SOL    HW1 9837   1.094   5.540   3.784  0.2560  0.5098 -1.5392
 3149SOL    HW2 9838   0.954   5.598   3.775  0.5361  1.1342 -1.9854
 3150SOL     OW 9839   1.535   2.494   6.168 -0.6769 -0.0132 -0.1248
 3150SOL    HW1 9840   1.478   2.499   6.245 -0.0237 -0.0444  0.3810
 3150SOL    HW2 9841   1.521   2.576   6.122 -0.5048  0.3570  0.4610
 3151SOL     OW 9842   6.228   5.926   6.241 -0.6902  0.1882 -0.3487
 3151SOL    HW1 9843   6.191   5.853   6.292  2.0593 -1.6865 -0.7680
 3151SOL    HW2 9844   6.292   5.965   6.300  0.7700 -0.4283 -1.4619
 3152SOL     OW 9845   2.250   6.182   4.710 -0.1568 -0.2749 -0.3067
 3152SOL    HW1 9846   2.327   6.213   4.663 -0.0290 -0.5504 -0.2830
 3152SOL    HW2 9847   2.274   6.190   4.803  0.4895 -1.9078 -0.2929
 3153SOL     OW 9848   2.470   2.310   5.816 -0.1714  0.7690 -0.5497
 3153SOL    HW1 9849   2.551   2.288   5.862 -0.3614 -0.3197 -0.7030
 3153SOL    HW2 9850   2.401   2.268   5.868 -0.5080  0.5939 -1.1203
 3154SOL     OW 9851   0.500   6.028   6.252 -0.0171  0.0904  0.4179
 3154SOL    HW1 9852   0.415   6.014   6.211  0.6793 -1.1808 -0.6662
 3154SOL    HW2 9853   0.527   5.941   6.282  1.0574  0.4086  0.4197
 3155SOL     OW 9854   1.577   1.820   1.480  0.6348  0.2814 -0.0097
 3155SOL    HW1 9855   1.602   1.866   1.401  2.3193 -1.0410 -0.3112
 3155SOL    HW2 9856   1.570   1.728   1.453  1.6074 -0.2464  1.4173
 3156SOL     OW 9857   6.683   1.114   2.952 -0.2338  0.1416 -0.5340
 3156SOL    HW1 9858   6.694   1.203   2.918 -0.4477  1.3097  2.2304
 3156SOL    HW2 9859   6.768   1.091   2.989 -0.4370 -0.4286 -0.4047
 3157SOL     OW 9860   0.067   1.496   5.074  0.0204 -0.1492 -0.0226
 3157SOL    HW1 9861   0.060   1.591   5.085 -0.5694 -0.3581  1.7376
 3157SOL    HW2 9862  -0.023   1.464   5.079  0.3850 -0.9979  2.0273
 3158SOL     OW 9863   3.501   4.702   3.665 -0.9737  0.0596 -0.0184
 3158SOL    HW1 9864   3.413   4.698   3.704 -2.0700  0.9249 -2.2307
 3158SOL    HW2 9865   3.541   4.779   3.704 -1.1220 -0.3966  1.0861
 3159SOL     OW 9866   5.888   6.385   3.518 -0.3065  0.3807 -0.1038
 3159SOL    HW1 9867   5.958   6.431   3.565 -1.0703 -0.9483  2.5368
 3159SOL    HW2 9868   5.912   6.292   3.524 -1.0108  0.0942 -1.4374
 3160SOL     OW 9869   1.281   2.622   3.227  0.0835 -0.2243  0.7982
 3160SOL    HW1 9870   1.332   2.543   3.207  0.3369 -0.0041  0.5702
 3160SOL    HW2 9871   1.271   2.620   3.322  2.9747  1.1881  1.2532
 3161SOL     OW 9872   0.401   3.258   4.406  0.1703 -0.6552 -0.4816
 3161SOL    HW1 9873   0.390   3.302   4.490  2.5779 -1.6069  0.4146
 3161SOL    HW2 9874   0.391   3.327   4.341 -0.8692  0.2651  0.6026
 3162SOL     OW 9875   6.688   1.985   0.619 -0.1830 -0.1105  0.1149
 3162SOL    HW1 9876   6.633   2.004   0.544  0.8363  1.3099 -0.3244
 3162SOL    HW2 9877   6.723   2.070   0.645 -0.0599 -0.6437  1.8567
 3163SOL     OW 9878   3.409   3.757   4.517  0.4708 -0.1308  0.3858
 3163SOL    HW1 9879   3.447   3.747   4.430  1.8129  1.0116  0.8029
 3163SOL    HW2 9880   3.474   3.722   4.577 -0.0908 -0.1746  0.9852
 3164SOL     OW 9881   0.939   3.125   2.816  0.0096  0.4530 -0.2509
 3164SOL    HW1 9882   0.997   3.124   2.893 -0.7582 -1.0936  0.3407
 3164SOL    HW2 9883   0.995   3.099   2.743  0.3266  0.1109  0.1106
 3165SOL     OW 9884   4.391   2.138   2.612 -0.2196 -0.1273  0.9733
 3165SOL    HW1 9885   4.300   2.166   2.620 -0.3821  0.2126 -1.2499
 3165SOL    HW2 9886   4.428   2.198   2.547  0.5890 -2.4001 -0.7902
 3166SOL     OW 9887   4.115   6.484   1.931  0.0953 -0.3143  0.4035
 3166SOL    HW1 9888   4.110   6.568   1.886 -1.7584 -1.0711 -0.9477
 3166SOL    HW2 9889   4.115   6.419   1.861  1.4836 -1.4753  1.4226
 3167SOL     OW 9890   6.287   5.173   0.038  0.4399  0.2217 -0.1350
 3167SOL    HW1 9891   6.380   5.148   0.036  0.0185 -2.0108  2.2578
 3167SOL    HW2 9892   6.248   5.125  -0.036  0.6854 -1.6797  0.8951
 3168SOL     OW 9893   5.912   2.235   3.769  0.7187  0.0447 -0.0560
 3168SOL    HW1 9894   5.987   2.259   3.715 -0.1404 -0.3170 -1.4719
 3168SOL    HW2 9895   5.854   2.188   3.709  0.1272 -1.2036  1.4124
 3169SOL     OW 9896   0.723   0.366   5.528  0.1167  0.7054  0.5684
 3169SOL    HW1 9897   0.766   0.293   5.572 -0.1514  0.3724  0.2792
 3169SOL    HW2 9898   0.787   0.396   5.463 -0.7182 -0.8900 -1.0493
 3170SOL     OW 9899   2.644   2.714   1.190 -0.3489 -0.1280  0.1134
 3170SOL    HW1 9900   2.661   2.667   1.272  1.6377  1.4011  0.6738
 3170SOL    HW2 9901   2.716   2.690   1.133 -1.0062 -0.1547 -0.7240
 3171SOL     OW 9902   0.011   5.224   5.919  0.1951  0.3544 -0.0699
 3171SOL    HW1 9903  -0.075   5.262   5.899 -0.4212 -0.3438  1.1359
 3171SOL    HW2 9904   0.064   5.299   5.946  0.0531  0.8217 -1.0246
 3172SOL     OW 9905   0.049   2.853   0.823  0.1632  0.3564  0.2742
 3172SOL    HW1 9906   0.105   2.929   0.841  1.1452 -0.9630  3.3850
 3172SOL    HW2 9907   0.088   2.813   0.745 -0.5814  3.1149 -1.6627
 3173SOL     OW 9908   5.544   2.766   3.849 -0.2342  0.0823  0.1892
 3173SOL    HW1 9909   5.504   2.757   3.763 -0.6388 -0.8172  0.4659
 3173SOL    HW2 9910   5.599   2.688   3.859 -1.2813 -0.5496  1.3072
 3174SOL     OW 9911   5.788   5.788   2.756  0.3153 -0.3637  0.1049
 3174SOL    HW1 9912   5.799   5.751   2.668 -1.2945  0.2024 -0.3578
 3174SOL    HW2 9913   5.798   5.713   2.814  0.5742 -0.8932 -0.6032
 3175SOL     OW 9914   4.985   0.117   6.277  0.5062  0.2986  0.3723
 3175SOL    HW1 9915   4.905   0.165   6.256 -0.3089 -1.4892 -0.8017
 3175SOL    HW2 9916   4.962   0.025   6.268  2.2144 -0.3345  1.8569
 3176SOL     OW 9917   3.037   2.127   1.560  0.8462 -0.4285  0.0666
 3176SOL    HW1 9918   2.998   2.148   1.475  0.7580  1.4417  0.5370
 3176SOL    HW2 9919   3.131   2.137   1.545  0.7324  2.2160  0.7160
 3177SOL     OW 9920   4.463   2.803   6.444 -0.2007 -0.5809  0.3384
 3177SOL    HW1 9921   4.402   2.843   6.382 -0.3166 -1.6859 -0.2769
 3177SOL    HW2 9922   4.451   2.853   6.525  1.4248  2.2455 -1.0458
 3178SOL     OW 9923   1.542   0.777   4.041 -0.5011 -0.3592  0.2074
 3178SOL    HW1 9924   1.464   0.774   4.096 -0.9049  0.5224 -0.2986
 3178SOL    HW2 9925   1.614   0.757   4.101 -0.8946  0.9043  1.1577
 3179SOL     OW 9926   5.342   0.826   0.150 -0.1607  0.1614  0.1715
 3179SOL    HW1 9927   5.308   0.909   0.181 -2.9444  0.0491 -2.1112
 3179SOL    HW2 9928   5.379   0.784   0.227 -0.0515  2.8352  1.6797
 3180SOL     OW 9929   0.199   4.757   4.796 -0.0569 -0.1974  0.0035
 3180SOL    HW1 9930   0.218   4.814   4.871 -0.5963 -3.0763  2.5444
 3180SOL    HW2 9931   0.285   4.739   4.758  0.2890  0.9638  0.2099
 3181SOL     OW 9932   4.969   4.416   0.715  0.5119 -0.0526  0.7692
 3181SOL    HW1 9933   4.983   4.511   0.709  0.1518 -0.0784 -0.8550
 3181SOL    HW2 9934   4.888   4.407   0.766  0.1930  0.5557  0.3824
 3182SOL     OW 9935   1.016   1.937   5.245  0.3394 -0.0293 -0.1459
 3182SOL    HW1 9936   1.079   1.864   5.241  2.2004  1.5256 -0.5936
 3182SOL    HW2 9937   0.980   1.932   5.334  1.4237 -0.6956  0.2825
 3183SOL     OW 9938   2.053   1.109   3.546  0.5345 -0.2945  0.6994
 3183SOL    HW1 9939   2.121   1.119   3.480 -0.4558 -0.8036 -0.4384
 3183SOL    HW2 9940   2.090   1.150   3.624  1.5857  0.6986 -0.2653
 3184SOL     OW 9941   2.657   3.047   2.411 -0.4273 -0.0147 -0.3404
 3184SOL    HW1 9942   2.600   3.124   2.408  0.3805  0.5830 -0.6329
 3184SOL    HW2 9943   2.745   3.082   2.427 -0.1730 -0.9395  0.3986
 3185SOL     OW 9944   0.197   3.804   0.490  0.6608  0.4886 -0.0784
 3185SOL    HW1 9945   0.169   3.888   0.453  0.4212  0.8438  0.8718
 3185SOL    HW2 9946   0.252   3.828   0.565 -0.2052 -0.1807  0.8037
 3186SOL     OW 9947   2.435   0.248   0.132  0.2343 -0.3962 -0.2881
 3186SOL    HW1 9948   2.420   0.309   0.203  1.3925 -0.6403  0.1966
 3186SOL    HW2 9949   2.502   0.188   0.165 -0.6051 -1.7183 -0.8787
 3187SOL     OW 9950   6.001   1.556   1.755 -0.3204 -0.0753 -0.0858
 3187SOL    HW1 9951   5.924   1.519   1.713 -1.2364  1.5050  0.1267
 3187SOL    HW2 9952   6.039   1.613   1.688 -1.2657  1.7393  0.8410
 3188SOL     OW 9953   2.024   3.742   0.665 -0.1248  0.1580 -0.8967
 3188SOL    HW1 9954   2.095   3.699   0.712 -0.3005  0.7147 -0.1004
 3188SOL    HW2 9955   1.951   3.680   0.668 -0.0252  0.0499 -0.7349
 3189SOL     OW 9956   0.132   2.125   1.247  0.1568 -0.1431 -0.3423
 3189SOL    HW1 9957   0.220   2.162   1.254  0.0043  0.2007 -0.2544
 3189SOL    HW2 9958   0.104   2.144   1.158 -0.5728  1.4135  0.1954
 3190SOL     OW 9959   4.100   3.276   2.235  0.2813  0.5371  0.0233
 3190SOL    HW1 9960   4.176   3.275   2.293 -0.4810  0.7370  1.0564
 3190SOL    HW2 9961   4.036   3.218   2.277  0.8965 -2.0677 -2.3440
 3191SOL     OW 9962   2.685   1.034   0.886  0.0405  0.1082  0.7560
 3191SOL    HW1 9963   2.766   1.078   0.862  1.0238 -2.4651 -1.0796
 3191SOL    HW2 9964   2.645   1.010   0.803 -0.2047 -2.7549  1.5998
 3192SOL     OW 9965   2.726   0.460   2.901 -0.9264 -0.0221 -0.3186
 3192SOL    HW1 9966   2.818   0.461   2.876 -0.6541  0.3776  0.6522
 3192SOL    HW2 9967   2.719   0.390   2.967 -1.9313 -2.1120 -2.4844
 3193SOL     OW 9968   1.869   6.745   4.766  0.7588 -0.1891  0.3148
 3193SOL    HW1 9969   1.795   6.805   4.771 -0.9356 -2.2328  2.8203
 3193SOL    HW2 9970   1.855   6.694   4.686  1.4006  1.6358 -1.0155
 3194SOL     OW 9971   2.578   4.555   5.412 -0.0915 -0.1557  0.4154
 3194SOL    HW1 9972   2.564   4.583   5.502  1.1302  0.4173  0.4489
 3194SOL    HW2 9973   2.561   4.461   5.413  2.0080 -0.5817  1.7435
 3195SOL     OW 9974   4.802   3.860   0.032 -0.4858 -0.0778 -0.0933
 3195SOL    HW1 9975   4.841   3.836  -0.051 -0.6758 -1.9986  0.3312
 3195SOL    HW2 9976   4.874   3.859   0.095 -0.9942 -3.0863  0.5835
 3196SOL     OW 9977   4.252   5.556   4.071  0.3428 -0.1760  0.0872
 3196SOL    HW1 9978   4.181   5.492   4.063  0.8752 -0.9686  1.3555
 3196SOL    HW2 9979   4.283   5.568   3.981 -2.4206  1.4570 -0.7946
 3197SOL     OW 9980   5.531   2.869   6.287  0.4040 -0.3543  0.4753
 3197SOL    HW1 9981   5.437   2.856   6.295  0.2490 -1.3641 -2.1369
 3197SOL    HW2 9982   5.541   2.947   6.233  0.9111 -1.8620 -1.7681
 3198SOL     OW 9983   2.566   5.071   4.501  0.2184 -0.3916  0.1469
 3198SOL    HW1 9984   2.613   5.084   4.418  0.1563  0.1847  0.2029
 3198SOL    HW2 9985   2.570   4.976   4.515  0.7602 -0.4294 -0.2049
 3199SOL     OW 9986   2.326   6.095   4.973  0.4107  0.0039  0.4631
 3199SOL    HW1 9987   2.255   6.064   5.029  0.4973 -1.3391 -0.1393
 3199SOL    HW2 9988   2.384   6.142   5.033 -0.3658  0.0769  1.1815
 3200SOL     OW 9989   3.286   1.473   5.564  0.1643 -0.5773  0.3911
 3200SOL    HW1 9990   3.208   1.435   5.524 -0.4735  0.3637  0.6967
 3200SOL    HW2 9991   3.330   1.399   5.606 -0.7598 -1.0694  0.5237
 3201SOL     OW 9992   3.196   1.840   0.871  0.3634 -0.1578  0.3132
 3201SOL    HW1 9993   3.145   1.773   0.825 -1.3451  1.2479  0.0473
 3201SOL    HW2 9994   3.269   1.792   0.911  1.7634 -1.5498 -3.4659
 3202SOL     OW 9995   6.500   6.674   6.662  0.7206  0.3261 -1.1923
 3202SOL    HW1 9996   6.532   6.596   6.707  1.0963  1.3324  0.3565
 3202SOL    HW2 9997   6.487   6.646   6.571 -0.0436 -1.7841 -0.4926
 3203SOL     OW 9998   5.106   3.210   1.837 -0.4469  0.0703 -0.0510
 3203SOL    HW1 9999   5.191   3.172   1.860 -0.9134 -0.7926  0.2784
 3203SOL    HW210000   5.111   3.226   1.743 -0.0448 -0.3042 -0.0930
 3204SOL     OW10001   4.099   6.119   5.667  0.4152  0.7081 -0.1219
 3204SOL    HW110002   4.115   6.179   5.594  0.1817  0.6009 -0.2598
 3204SOL    HW210003   4.172   6.057   5.664 -0.0663  0.1759 -0.7940
 3205SOL     OW10004   6.668   0.964   3.934  0.1561 -0.9976  0.5415
 3205SOL    HW110005   6.733   0.910   3.979  1.7779  0.2723 -0.1758
 3205SOL    HW210006   6.597   0.973   3.997  1.4466 -0.9983  2.0701
 3206SOL     OW10007   5.998   1.600   2.608 -0.2793  0.2772  0.1506
 3206SOL    HW110008   5.961   1.514   2.626 -0.6242  0.3547 -0.1672
 3206SOL    HW210009   6.078   1.604   2.660 -0.0398 -0.3960 -0.1640
 3207SOL     OW10010   0.283   0.474   1.193  0.0510  0.4431 -0.6777
 3207SOL    HW110011   0.246   0.445   1.277  2.2496  0.3163  0.3208
 3207SOL    HW210012   0.266   0.568   1.191 -1.1376  0.2391 -0.7046
 3208SOL     OW10013   0.218   6.161   3.092 -0.1410  0.7224  0.0490
 3208SOL    HW110014   0.239   6.089   3.032 -1.6749  1.2988 -1.2595
 3208SOL    HW210015   0.283   6.228   3.073 -0.9461  1.1270 -1.4448
 3209SOL     OW10016   3.698   1.179   2.592  0.0118  0.3586 -0.4447
 3209SOL    HW110017   3.655   1.169   2.677  1.1761 -0.0732  0.1094
 3209SOL    HW210018   3.744   1.263   2.598  1.0749 -0.2245 -0.1848
 3210SOL     OW10019   6.343   6.119   1.326 -0.1655  0.1089 -0.0621
 3210SOL    HW110020   6.423   6.166   1.302 -1.8278  1.9589 -2.4778
 3210SOL    HW210021   6.288   6.185   1.367 -0.8188 -0.9451  0.8265
 3211SOL     OW10022   2.170   6.036   3.447  0.3236 -0.0369  0.1690
 3211SOL    HW110023   2.203   5.965   3.391 -0.9721 -2.5957  2.4107
 3211SOL    HW210024   2.077   6.014   3.460 -0.5644  3.0105 -0.2600
 3212SOL     OW10025   1.842   0.542   3.904 -0.6724  0.1997  0.6623
 3212SOL    HW110026   1.934   0.569   3.902  0.6516 -3.6988 -1.4634
 3212SOL    HW210027   1.835   0.485   3.980 -1.1159 -0.0883  0.4154
 3213SOL     OW10028   0.479   4.328   4.620 -0.1194  0.0805  0.2153
 3213SOL    HW110029   0.502   4.244   4.579  0.9014 -0.2492  1.4104
 3213SOL    HW210030   0.472   4.389   4.546  4.5910  0.2138 -0.4242
 3214SOL     OW10031   2.035   2.043   3.322 -0.3507 -0.5747  0.0827
 3214SOL    HW110032   2.051   2.125   3.276  0.4076  0.4799  2.0755
 3214SOL    HW210033   2.084   2.052   3.404 -2.3019 -1.9341  1.5018
 3215SOL     OW10034   3.908   5.877   4.497 -0.2838 -0.4248 -0.3749
 3215SOL    HW110035   3.970   5.916   4.435 -0.8074  1.7587  0.3864
 3215SOL    HW210036   3.828   5.928   4.486 -0.9148 -1.0855  0.9157
 3216SOL     OW10037   2.402   3.980   6.334 -0.4569 -0.4024 -0.2926
 3216SOL    HW110038   2.312   3.999   6.359 -0.3174 -0.7637  0.5079
 3216SOL    HW210039   2.429   3.908   6.392  1.2866  1.5766  1.5520
 3217SOL     OW10040   3.053   3.456   1.644  0.0580  0.5247  1.5080
 3217SOL    HW110041   3.137   3.501   1.637  0.2977 -0.1165 -0.3795
 3217SOL    HW210042   3.067   3.387   1.708  1.3859 -0.3786  0.3015
 3218SOL     OW10043   0.075   4.674   2.990  0.2109  0.8448 -0.2035
 3218SOL    HW110044   0.034   4.736   3.050 -2.5429 -0.6995 -0.3006
 3218SOL    HW210045   0.165   4.665   3.022 -0.0390  2.9912  1.2670
 3219SOL     OW10046   1.109   0.801   1.709 -0.4103  0.1467 -0.1942
 3219SOL    HW110047   1.167   0.808   1.633  0.0798 -2.3790 -0.1320
 3219SOL    HW210048   1.021   0.815   1.673 -0.0491  0.8584 -0.8462
 3220SOL     OW10049   5.696   0.484   3.419 -0.5699 -0.2997  0.4990
 3220SOL    HW110050   5.700   0.555   3.355  1.7294 -0.9767 -0.2079
 3220SOL    HW210051   5.787   0.469   3.445 -1.0842 -2.2915  1.4054
 3221SOL     OW10052   6.775   6.146   3.074 -0.3210  0.1254  0.3394
 3221SOL    HW110053   6.762   6.062   3.030 -1.1260  0.7078 -0.5786
 3221SOL    HW210054   6.870   6.156   3.078 -0.2189 -0.1768 -0.8295
 3222SOL     OW10055   5.510   2.726   6.745  0.0287  1.0345  0.1739
 3222SOL    HW110056   5.525   2.708   6.652  0.7286  2.5353 -0.0394
 3222SOL    HW210057   5.415   2.733   6.753 -0.2638 -1.7258  0.1461
 3223SOL     OW10058   5.856   5.762   1.892  0.2432 -0.6302 -0.2827
 3223SOL    HW110059   5.868   5.687   1.834 -0.0742 -1.0066  0.1365
 3223SOL    HW210060   5.940   5.772   1.937  0.5062 -0.3102 -0.8266
 3224SOL     OW10061   2.920   0.148   5.740  0.7539 -0.1587  0.2005
 3224SOL    HW110062   2.907   0.197   5.659  0.1089 -0.5420  0.0649
 3224SOL    HW210063   2.897   0.210   5.809  2.5745  0.6021  0.1809
 3225SOL     OW10064   2.763   2.644   3.318 -0.0138  0.2087  0.0555
 3225SOL    HW110065   2.817   2.687   3.252 -0.6656  0.4800 -0.3117
 3225SOL    HW210066   2.684   2.616   3.270 -1.1649  1.6926  0.9790
 3226SOL     OW10067   2.254   6.380   5.166 -0.2382  0.0773 -0.9041
 3226SOL    HW110068   2.341   6.343   5.178 -1.0654 -1.1776  2.2209
 3226SOL    HW210069   2.201   6.308   5.134 -0.9240 -0.3551  1.0664
 3227SOL     OW10070   0.743   1.704   2.982  0.3173  0.1410 -0.1638
 3227SOL    HW110071   0.802   1.773   2.951  0.1025  1.3067  1.8574
 3227SOL    HW210072   0.664   1.751   3.009  0.0128 -0.9295  0.8721
 3228SOL     OW10073   0.936   0.786   5.805  0.0699 -1.2765 -0.2679
 3228SOL    HW110074   0.976   0.853   5.860  0.6655 -2.4282  0.7728
 3228SOL    HW210075   0.918   0.830   5.722 -1.8441  0.8253  1.1566
 3229SOL     OW10076   0.916   3.547   4.353  0.4485  0.2017 -0.0710
 3229SOL    HW110077   0.848   3.483   4.373  1.2476 -0.4712  0.5193
 3229SOL    HW210078   0.886   3.589   4.272  0.4788 -1.7267 -1.1421
 3230SOL     OW10079   2.112   3.351   5.032 -0.0747 -0.3713  0.1368
 3230SOL    HW110080   2.174   3.282   5.058 -1.2015 -1.4809 -0.0554
 3230SOL    HW210081   2.036   3.304   4.998  0.0067  0.9762 -2.1476
 3231SOL     OW10082   4.209   2.716   5.683  0.6731  0.4574 -0.1524
 3231SOL    HW110083   4.121   2.697   5.650  0.3353  1.4264  0.1454
 3231SOL    HW210084   4.230   2.642   5.739  0.7884 -0.6625 -1.6142
 3232SOL     OW10085   3.455   5.705   3.011  0.0269  0.1307 -0.2012
 3232SOL    HW110086   3.516   5.725   2.940 -0.2109  1.1809 -0.1217
 3232SOL    HW210087   3.511   5.699   3.089  0.3733 -1.6504 -0.5449
 3233SOL     OW10088   6.801   5.082   1.071  0.2660 -0.5075 -0.2925
 3233SOL    HW110089   6.717   5.111   1.036  0.2193  0.3539  0.4867
 3233SOL    HW210090   6.843   5.036   0.998 -0.0911  0.6651 -1.2698
 3234SOL     OW10091   2.188   4.286   5.364  0.5440  0.4177  0.0226
 3234SOL    HW110092   2.154   4.376   5.364 -1.1787 -0.1327  2.4078
 3234SOL    HW210093   2.117   4.234   5.327  0.0989 -0.3264  1.8036
 3235SOL     OW10094   3.249   5.636   3.830 -0.1073 -0.5945 -0.3014
 3235SOL    HW110095   3.221   5.545   3.836 -2.4372  0.1192  0.9812
 3235SOL    HW210096   3.219   5.665   3.743 -0.8023 -0.6386 -0.0821
 3236SOL     OW10097   1.191   2.960   4.873  0.4809  0.1876  0.3059
 3236SOL    HW110098   1.195   2.932   4.964  0.0404 -0.2111  0.2096
 3236SOL    HW210099   1.276   3.001   4.856  0.5000  0.4202  0.9413
 3237SOL     OW10100   6.253   4.754   1.858  0.2001  0.2234 -0.0442
 3237SOL    HW110101   6.236   4.660   1.844  1.5396 -0.0586  0.0960
 3237SOL    HW210102   6.201   4.777   1.935 -0.1830 -0.3846 -0.1116
 3238SOL     OW10103   6.248   6.476   2.279 -0.2254  0.0946 -0.1088
 3238SOL    HW110104   6.188   6.408   2.308 -0.8687  0.8250  0.3131
 3238SOL    HW210105   6.242   6.544   2.347 -0.6497  1.1837 -1.2103
 3239SOL     OW10106   2.676   4.080   2.526 -0.1822  0.0038  0.0421
 3239SOL    HW110107   2.739   4.072   2.597 -2.1823 -0.6028  1.8414
 3239SOL    HW210108   2.634   3.994   2.522  0.2545 -0.1884 -2.3312
 3240SOL     OW10109   0.044   2.207   0.659 -0.2142  0.9311  0.0862
 3240SOL    HW110110   0.030   2.273   0.727 -0.5006  1.9900 -0.9692
 3240SOL    HW210111   0.136   2.183   0.669 -0.3102  0.8910  0.9971
 3241SOL     OW10112   6.383   5.546   5.718  0.5818  0.3863 -0.1716
 3241SOL    HW110113   6.435   5.492   5.658 -0.7925 -0.7973 -0.3677
 3241SOL    HW210114   6.307   5.572   5.666 -0.1204  0.2151  0.7432
 3242SOL     OW10115   0.646   6.658   4.490  0.7082  0.1059  0.3457
 3242SOL    HW110116   0.678   6.662   4.400  0.1940 -1.0820  0.0966
 3242SOL    HW210117   0.562   6.703   4.488  0.1770 -0.8731 -0.0223
 3243SOL     OW10118   4.235   5.011   0.504 -0.1868 -0.0387  0.1697
 3243SOL    HW110119   4.182   4.973   0.434  0.9896 -1.8922  0.2235
 3243SOL    HW210120   4.305   5.058   0.458  0.8033 -1.5651  0.0167
 3244SOL     OW10121   3.624   2.702   0.831 -0.0336  0.0958  0.3253
 3244SOL    HW110122   3.697   2.696   0.893 -1.3897 -0.3667  1.9327
 3244SOL    HW210123   3.600   2.611   0.814  0.2277  0.2205 -0.8226
 3245SOL     OW10124   6.369   5.632   1.983 -0.0998 -0.3727  0.0847
 3245SOL    HW110125   6.294   5.651   1.927 -0.3079  0.1211  0.5256
 3245SOL    HW210126   6.382   5.711   2.034  1.3844 -0.0569 -0.7304
 3246SOL     OW10127   5.442   4.050   6.741  0.3793  0.2013  0.2588
 3246SOL    HW110128   5.501   4.059   6.667 -1.3265  0.9455 -1.0895
 3246SOL    HW210129   5.407   3.961   6.734 -0.4277  0.5513 -0.3861
 3247SOL     OW10130   3.198   3.645   5.294 -0.1960  0.3777  0.5679
 3247SOL    HW110131   3.274   3.588   5.307 -0.5422  0.2753  2.5121
 3247SOL    HW210132   3.151   3.606   5.221  0.9323 -0.3267  0.1942
 3248SOL     OW10133   6.741   1.815   6.752 -0.2502  0.0035  0.9894
 3248SOL    HW110134   6.681   1.867   6.698 -0.0857 -0.5178  0.2919
 3248SOL    HW210135   6.765   1.873   6.824  0.4706  1.1424 -0.1361
 3249SOL     OW10136   2.017   6.175   1.422 -0.1401  0.5925  0.3246
 3249SOL    HW110137   2.072   6.172   1.344  0.1540  3.3361  0.3226
 3249SOL    HW210138   1.927   6.173   1.389 -0.0414 -0.8114  0.1144
 3250SOL     OW10139   3.545   1.881   3.540  0.5688 -0.2787  0.3764
 3250SOL    HW110140   3.604   1.941   3.493  0.6603 -1.3263 -0.9122
 3250SOL    HW210141   3.458   1.916   3.524  0.6590 -0.1949  0.0471
 3251SOL     OW10142   2.651   0.952   1.699 -0.7540  0.3778 -0.1363
 3251SOL    HW110143   2.674   1.044   1.686  0.0764  0.3236  0.7905
 3251SOL    HW210144   2.562   0.953   1.733 -0.6939  0.8538  0.0067
 3252SOL     OW10145   2.968   4.609   5.392 -0.0723  0.0065 -0.5798
 3252SOL    HW110146   2.938   4.689   5.349 -1.1212 -0.7796 -1.3852
 3252SOL    HW210147   3.048   4.585   5.345  0.0730  0.4106 -0.5415
 3253SOL     OW10148   2.612   1.624   2.003  0.9716  0.0683  0.3087
 3253SOL    HW110149   2.654   1.607   1.918  1.1107 -1.2647  0.6174
 3253SOL    HW210150   2.519   1.624   1.983  1.0361  1.6638 -0.1451
 3254SOL     OW10151   1.522   2.594   0.177 -0.0730 -0.4820  0.1479
 3254SOL    HW110152   1.482   2.509   0.159  0.6986 -0.9671  0.6338
 3254SOL    HW210153   1.562   2.583   0.263  1.5602 -0.2043 -0.5428
 3255SOL     OW10154   6.160   5.731   5.951  0.0626  0.0631  0.3076
 3255SOL    HW110155   6.135   5.783   5.874  0.9510 -2.0689 -1.5358
 3255SOL    HW210156   6.245   5.766   5.977  0.6295 -0.3571 -0.8843
 3256SOL     OW10157   1.674   2.392   2.286  0.0026  0.6212 -0.1401
 3256SOL    HW110158   1.705   2.377   2.375 -0.0701  0.0410 -0.2068
 3256SOL    HW210159   1.580   2.411   2.296  0.3722  2.4810  0.0709
 3257SOL     OW10160   6.770   0.578   3.925 -0.5934  0.6828  0.3108
 3257SOL    HW110161   6.783   0.667   3.957  1.1091 -0.0711  1.9164
 3257SOL    HW210162   6.793   0.522   4.000 -0.5249 -1.1230 -0.9990
 3258SOL     OW10163   6.643   4.107   1.590 -0.0270 -0.3106 -0.4652
 3258SOL    HW110164   6.572   4.171   1.587  0.0776 -0.2006 -0.5859
 3258SOL    HW210165   6.624   4.054   1.668 -0.3776 -0.4392 -0.6354
 3259SOL     OW10166   5.394   1.980   1.797  0.3757  0.5887  0.7141
 3259SOL    HW110167   5.397   2.037   1.721  2.1655 -2.2507 -1.5564
 3259SOL    HW210168   5.486   1.969   1.823  0.2639 -2.0597  0.3032
 3260SOL     OW10169   0.055   6.458   5.377 -0.5659  0.5518 -0.0063
 3260SOL    HW110170   0.061   6.546   5.342 -0.1154 -0.6258 -3.1778
 3260SOL    HW210171   0.138   6.416   5.353 -2.0657 -1.6880 -1.7025
 3261SOL     OW10172   4.868   0.182   2.175  0.2741 -0.2658 -0.8455
 3261SOL    HW110173   4.935   0.144   2.118  1.8982  1.6250 -0.3162
 3261SOL    HW210174   4.794   0.200   2.116  0.1903 -2.3463 -1.4464
 3262SOL     OW10175   3.994   5.509   1.819  0.6032  0.2685 -0.2023
 3262SOL    HW110176   3.962   5.420   1.809 -0.0818  0.4679  0.1080
 3262SOL    HW210177   3.926   5.553   1.870  1.2306  0.7974  0.2029
 3263SOL     OW10178   0.273   3.508   5.007  0.9271  0.0582  0.0856
 3263SOL    HW110179   0.207   3.537   4.943  1.6650  0.3538 -0.5581
 3263SOL    HW210180   0.250   3.556   5.087 -0.7129 -1.1912  0.4192
 3264SOL     OW10181   2.584   4.047   6.113 -0.0441  1.2841  0.2110
 3264SOL    HW110182   2.649   4.105   6.154  1.7197 -0.2277 -0.3371
 3264SOL    HW210183   2.532   4.015   6.187  1.4091  0.6406  0.9962
 3265SOL     OW10184   1.561   3.288   0.329  0.1952  0.1387 -0.3601
 3265SOL    HW110185   1.652   3.258   0.329 -0.1861 -1.1288  0.9955
 3265SOL    HW210186   1.567   3.382   0.315  1.9796  0.6777  2.9508
 3266SOL     OW10187   6.076   0.548   4.175  0.0141  0.1832 -1.2675
 3266SOL    HW110188   6.062   0.528   4.268 -0.3142 -1.4195 -1.6213
 3266SOL    HW210189   6.007   0.500   4.130  0.8227  0.0529 -2.4161
 3267SOL     OW10190   5.954   4.377   2.368 -0.2462  0.3993  0.0960
 3267SOL    HW110191   5.877   4.402   2.419  0.8073 -1.0088  2.5708
 3267SOL    HW210192   6.028   4.403   2.423  0.9490 -1.7951 -0.3664
 3268SOL     OW10193   4.572   1.217   2.529  0.1714  0.0514  0.3718
 3268SOL    HW110194   4.559   1.249   2.618  0.1824 -1.4365  0.9384
 3268SOL    HW210195   4.616   1.289   2.483  0.6091  0.6504  1.6965
 3269SOL     OW10196   2.236   5.405   5.396  0.9356 -0.3793 -0.4242
 3269SOL    HW110197   2.143   5.386   5.388  0.6031  0.1714  1.5452
 3269SOL    HW210198   2.254   5.469   5.327 -0.1464 -0.4957 -0.8294
 3270SOL     OW10199   4.457   0.294   2.653 -0.0644 -0.2416  0.8584
 3270SOL    HW110200   4.424   0.229   2.715  0.0888 -1.0992  0.0598
 3270SOL    HW210201   4.528   0.249   2.607 -1.0162 -0.0635 -0.8434
 3271SOL     OW10202   3.670   0.780   4.489  0.3311  0.2175 -0.4007
 3271SOL    HW110203   3.602   0.730   4.444 -0.7423  1.5244 -0.3051
 3271SOL    HW210204   3.692   0.727   4.566  0.3251 -0.8071 -1.0853
 3272SOL     OW10205   5.403   2.704   0.553  0.2653  0.1348  0.0468
 3272SOL    HW110206   5.391   2.654   0.634 -0.9294 -0.8473 -0.7137
 3272SOL    HW210207   5.399   2.796   0.582  0.2290 -0.1987  1.1488
 3273SOL     OW10208   1.297   3.830   6.518  0.6798 -0.3648  0.1742
 3273SOL    HW110209   1.342   3.759   6.471  0.4571 -0.2392 -0.2298
 3273SOL    HW210210   1.248   3.785   6.587 -1.6177 -0.9307 -1.7007
 3274SOL     OW10211   2.448   6.436   2.816 -0.3722 -0.1712 -0.1452
 3274SOL    HW110212   2.418   6.448   2.726  1.0195  0.8046 -0.5059
 3274SOL    HW210213   2.542   6.454   2.813 -0.0536 -1.4129  1.2646
 3275SOL     OW10214   2.243   6.645   3.966  0.4412  0.5702  0.0480
 3275SOL    HW110215   2.315   6.708   3.956  0.5669  0.5249  0.6355
 3275SOL    HW210216   2.266   6.573   3.907 -0.2355  1.5291 -1.4456
 3276SOL     OW10217   0.353   1.098   0.951 -0.3086  0.1867 -0.3988
 3276SOL    HW110218   0.338   1.077   1.043 -0.2061 -2.2981 -0.8597
 3276SOL    HW210219   0.269   1.130   0.920 -1.0647 -1.2639  0.0403
 3277SOL     OW10220   2.159   0.687   3.050  0.1666  0.0986  0.4568
 3277SOL    HW110221   2.212   0.755   3.091  1.2952  0.4358 -1.4522
 3277SOL    HW210222   2.075   0.729   3.034  0.6621  0.8852 -0.1739
 3278SOL     OW10223   1.364   4.052   6.198  0.1684  0.7685  0.2332
 3278SOL    HW110224   1.359   3.959   6.178  0.0840  0.8995 -0.3577
 3278SOL    HW210225   1.296   4.066   6.265  1.7772 -0.0479  2.1305
 3279SOL     OW10226   1.568   4.231   4.371 -0.2208  0.6339  0.2751
 3279SOL    HW110227   1.663   4.223   4.372 -0.1897  1.0406  0.7094
 3279SOL    HW210228   1.536   4.141   4.369  0.1736  0.4998 -0.2532
 3280SOL     OW10229   4.609   4.637   4.535  0.5833 -0.3183  0.3770
 3280SOL    HW110230   4.647   4.591   4.460  0.1643 -0.2093  0.0942
 3280SOL    HW210231   4.674   4.704   4.557  1.6662 -1.6553  1.4271
 3281SOL     OW10232   4.284   6.026   3.984 -0.1557  0.0509 -0.0037
 3281SOL    HW110233   4.282   5.941   4.029  2.2871 -0.1584 -0.1844
 3281SOL    HW210234   4.284   6.004   3.891 -3.5950  0.4452 -0.2192
 3282SOL     OW10235   1.141   0.534   1.795 -0.0004 -0.2020 -0.4541
 3282SOL    HW110236   1.159   0.619   1.755 -0.2242 -0.1951 -0.5426
 3282SOL    HW210237   1.053   0.543   1.833 -0.0717 -0.4306 -0.5613
 3283SOL     OW10238   4.236   4.394   1.932 -0.8680  0.2791 -0.2814
 3283SOL    HW110239   4.185   4.441   1.997 -2.3789  0.9215 -1.8680
 3283SOL    HW210240   4.259   4.459   1.867 -1.6447 -0.8190 -1.7176
 3284SOL     OW10241   4.147   1.192   6.353  0.4527  0.5523  0.3706
 3284SOL    HW110242   4.079   1.243   6.310 -1.1439 -1.4845  0.3040
 3284SOL    HW210243   4.199   1.155   6.282  1.5626  1.9446  0.4172
 3285SOL     OW10244   6.649   5.361   5.752 -0.0633  0.2739  0.2479
 3285SOL    HW110245   6.569   5.394   5.711 -0.0804 -1.1932 -0.9902
 3285SOL    HW210246   6.718   5.377   5.687  0.4032  0.3597  0.7609
 3286SOL     OW10247   4.674   5.125   1.599 -0.4064  0.0629  0.0646
 3286SOL    HW110248   4.595   5.107   1.649 -0.4031  1.4777  0.6374
 3286SOL    HW210249   4.734   5.164   1.663 -0.2695  1.5624 -0.9234
 3287SOL     OW10250   1.831   1.834   4.596 -0.1996  0.0521 -0.2834
 3287SOL    HW110251   1.915   1.852   4.554 -0.5319 -0.9773 -1.4230
 3287SOL    HW210252   1.773   1.904   4.565 -0.0752  0.0946 -0.4206
 3288SOL     OW10253   2.722   3.985   4.325  0.2799  0.2482  0.0865
 3288SOL    HW110254   2.653   4.047   4.347 -1.1574 -1.2980  0.1796
 3288SOL    HW210255   2.750   4.010   4.237 -1.9068 -0.3142 -0.8361
 3289SOL     OW10256   1.761   3.750   0.835 -0.7705 -0.7278  0.2044
 3289SOL    HW110257   1.848   3.786   0.817 -0.9569 -0.8934 -1.1341
 3289SOL    HW210258   1.702   3.802   0.780 -1.6183 -0.1824  1.5841
 3290SOL     OW10259   0.482   0.972   4.467 -0.1649  0.3130  0.1976
 3290SOL    HW110260   0.465   0.969   4.561 -1.5250 -1.7061 -0.0493
 3290SOL    HW210261   0.403   1.010   4.429  0.3906  1.1501 -0.1388
 3291SOL     OW10262   5.356   4.365   4.580  0.1590 -0.5941  0.2259
 3291SOL    HW110263   5.336   4.440   4.525 -1.1205 -1.2048 -0.1875
 3291SOL    HW210264   5.452   4.358   4.578  0.2106  0.2291 -0.7810
 3292SOL     OW10265   4.567   6.058   3.077 -0.2293 -0.4052 -0.8647
 3292SOL    HW110266   4.626   6.025   3.009  0.0898 -1.5390 -0.0687
 3292SOL    HW210267   4.526   6.135   3.038  1.3234  0.0547 -1.6643
 3293SOL     OW10268   2.094   3.877   4.307 -0.0494 -0.0088  0.1150
 3293SOL    HW110269   2.011   3.830   4.300 -0.9672  1.7386 -2.3594
 3293SOL    HW210270   2.157   3.821   4.263 -0.1949 -0.7382  0.8144
 3294SOL     OW10271   2.929   3.319   1.421 -0.0273 -0.2117 -0.1206
 3294SOL    HW110272   2.969   3.361   1.498 -0.2742  2.3936 -1.3081
 3294SOL    HW210273   3.002   3.310   1.359 -0.5155  1.3474 -0.9875
 3295SOL     OW10274   3.238   2.381   3.785 -0.2180  0.0959 -0.5532
 3295SOL    HW110275   3.234   2.467   3.743  0.9916  0.9666  0.9924
 3295SOL    HW210276   3.317   2.384   3.838 -0.8204 -1.5165  0.5195
 3296SOL     OW10277   4.623   6.254   4.006 -0.1788  0.1642  0.3458
 3296SOL    HW110278   4.545   6.292   3.966  0.5688  0.3142 -1.0287
 3296SOL    HW210279   4.696   6.296   3.961  0.7454 -3.2528 -1.7080
 3297SOL     OW10280   3.073   0.969   6.144  0.5970 -0.5122  0.8760
 3297SOL    HW110281   3.013   1.044   6.142  0.3148 -0.7091  1.6720
 3297SOL    HW210282   3.097   0.959   6.236 -1.0339 -2.6810  1.1575
 3298SOL     OW10283   0.984   0.713   4.005 -0.1721 -0.1792 -0.1295
 3298SOL    HW110284   0.970   0.729   3.912  0.0769  0.4777 -0.0618
 3298SOL    HW210285   1.045   0.640   4.008  0.4686  0.3329 -0.4985
 3299SOL     OW10286   5.250   2.797   6.671 -0.8699 -0.3679 -0.6487
 3299SOL    HW110287   5.166   2.823   6.710 -0.0084  0.5401  0.7148
 3299SOL    HW210288   5.293   2.881   6.650  0.3593 -0.7603  0.1963
 3300SOL     OW10289   1.962   6.084   4.326  0.0552  0.5496 -0.5116
 3300SOL    HW110290   1.952   6.083   4.231  1.7143 -0.2129 -0.7096
 3300SOL    HW210291   2.034   6.023   4.344 -0.4499  0.4143  1.2633
 3301SOL     OW10292   0.607   0.195   2.694 -0.2044  0.0243 -0.1629
 3301SOL    HW110293   0.631   0.287   2.692 -4.6244  1.4203 -0.4565
 3301SOL    HW210294   0.632   0.166   2.782  2.1560  1.1248 -0.3994
 3302SOL     OW10295   0.645   4.907   1.791 -0.4517 -0.0181  0.2493
 3302SOL    HW110296   0.692   4.901   1.875 -0.1378  2.1389  0.2890
 3302SOL    HW210297   0.553   4.894   1.814 -0.1255 -2.4968  0.4306
 3303SOL     OW10298   4.336   6.029   5.873 -0.2662  0.6628 -0.4699
 3303SOL    HW110299   4.333   6.125   5.881 -0.2491  0.7049 -0.9798
 3303SOL    HW210300   4.316   5.998   5.962 -0.9366  1.1315 -0.4494
 3304SOL     OW10301   4.122   2.464   3.924 -0.3574 -0.2305 -0.3543
 3304SOL    HW110302   4.183   2.515   3.977 -0.8131 -0.6592  0.6136
 3304SOL    HW210303   4.172   2.440   3.846  1.0169 -1.3158  0.8134
 3305SOL     OW10304   1.152   4.947   2.256 -0.4233 -0.2214  0.1172
 3305SOL    HW110305   1.103   4.973   2.333  0.0127 -0.2020  0.3878
 3305SOL    HW210306   1.094   4.885   2.210 -0.7840 -0.0360  0.3209
 3306SOL     OW10307   3.600   1.781   1.936  0.3953  0.2586 -0.3236
 3306SOL    HW110308   3.675   1.835   1.963 -1.2528  1.9313  1.2094
 3306SOL    HW210309   3.571   1.738   2.017 -0.6140  0.0523 -0.7788
 3307SOL     OW10310   2.459   2.364   3.973  0.8096 -0.3424 -0.0358
 3307SOL    HW110311   2.426   2.375   4.063  1.5644 -2.9642  0.6576
 3307SOL    HW210312   2.381   2.348   3.921  0.4493  0.2216  0.3049
 3308SOL     OW10313   4.362   5.515   1.158  0.1664  0.0971 -0.1318
 3308SOL    HW110314   4.425   5.480   1.221 -0.2830  0.5656  0.6017
 3308SOL    HW210315   4.305   5.572   1.210 -1.7235 -1.3605 -0.5004
 3309SOL     OW10316   2.974   6.110   3.399 -0.4258  0.3403  0.0492
 3309SOL    HW110317   2.971   6.127   3.305 -0.1191  1.6079  0.2577
 3309SOL    HW210318   2.910   6.040   3.412 -0.8207  0.4803 -1.0269
 3310SOL     OW10319   6.222   6.283   1.517 -0.6137 -0.3022 -0.0033
 3310SOL    HW110320   6.181   6.232   1.586 -1.1533 -0.5148 -0.4738
 3310SOL    HW210321   6.178   6.368   1.521  0.1032  0.0515  0.6093
 3311SOL     OW10322   4.239   4.237   5.923 -0.2077 -0.6259 -0.0634
 3311SOL    HW110323   4.184   4.162   5.947 -0.9928  0.3833  1.4449
 3311SOL    HW210324   4.329   4.207   5.939 -0.4829 -1.3973  0.0742
 3312SOL     OW10325   3.851   0.415   5.114 -0.4945  0.7261  0.3201
 3312SOL    HW110326   3.944   0.394   5.123 -0.6788  0.2901  1.2113
 3312SOL    HW210327   3.827   0.458   5.196 -1.1528  0.5945  0.2053
 3313SOL     OW10328   4.470   5.787   5.936 -0.0686 -0.0176  0.1205
 3313SOL    HW110329   4.449   5.865   5.885 -1.3584 -0.8858 -0.7244
 3313SOL    HW210330   4.412   5.720   5.902  0.9187 -1.3267  0.9294
 3314SOL     OW10331   4.643   2.519   5.455  0.3965  0.3311 -0.2311
 3314SOL    HW110332   4.716   2.548   5.510  1.6991 -1.1375 -1.0863
 3314SOL    HW210333   4.667   2.547   5.367 -0.1937  0.0597 -0.4829
 3315SOL     OW10334   1.607   2.059   6.169 -0.0509 -0.0569  0.1123
 3315SOL    HW110335   1.637   1.973   6.138 -1.6070 -0.1173 -1.3575
 3315SOL    HW210336   1.688   2.107   6.187  0.8749 -1.2969 -0.5323
 3316SOL     OW10337   5.926   0.663   4.904  0.1352  0.3556  0.2655
 3316SOL    HW110338   5.886   0.699   4.984 -0.4053  0.7911 -0.1861
 3316SOL    HW210339   5.912   0.569   4.911  1.6013  0.1891  1.4871
 3317SOL     OW10340   5.203   6.557   3.143 -0.6079 -0.2378 -0.2149
 3317SOL    HW110341   5.192   6.588   3.053  0.8398  0.6245 -0.1308
 3317SOL    HW210342   5.296   6.569   3.161 -0.4632 -2.3447  0.7157
 3318SOL     OW10343   0.121   3.586   5.316  0.0734  0.0187 -0.4449
 3318SOL    HW110344   0.141   3.498   5.286  1.6873  0.5224 -0.9382
 3318SOL    HW210345   0.099   3.634   5.236 -0.3349  0.1894 -0.2336
 3319SOL     OW10346   5.944   1.147   3.215  0.1122  0.7095 -1.5082
 3319SOL    HW110347   5.899   1.180   3.137  0.1195 -0.5799 -2.0807
 3319SOL    HW210348   5.890   1.074   3.245  0.2764  0.9978 -0.4811
 3320SOL     OW10349   1.734   5.981   6.309 -0.1397 -0.0698 -0.2075
 3320SOL    HW110350   1.810   6.022   6.270 -1.0394  1.1394 -0.7558
 3320SOL    HW210351   1.673   5.968   6.236 -1.3038  0.9565  0.5318
 3321SOL     OW10352   4.630   1.392   6.074  0.4088  0.2382  0.1887
 3321SOL    HW110353   4.620   1.480   6.109  0.4477  0.0747  0.6175
 3321SOL    HW210354   4.682   1.346   6.139  0.3008 -0.1322  0.0172
 3322SOL     OW10355   3.866   5.180   3.404  0.3269  0.1280 -0.0683
 3322SOL    HW110356   3.825   5.117   3.344 -0.1014  1.2769 -1.0221
 3322SOL    HW210357   3.809   5.181   3.481 -1.2360  1.3263 -1.1704
 3323SOL     OW10358   3.405   2.384   3.437 -0.0896  0.1155 -0.0184
 3323SOL    HW110359   3.338   2.316   3.430 -1.0721  1.1501 -1.0376
 3323SOL    HW210360   3.373   2.442   3.506 -1.1386  1.5147 -1.6084
 3324SOL     OW10361   6.389   1.228   5.614 -0.2067 -0.0238 -0.1471
 3324SOL    HW110362   6.409   1.136   5.594 -0.3368  0.0394 -0.5921
 3324SOL    HW210363   6.380   1.231   5.709  1.0353 -0.2233 -0.0088
 3325SOL     OW10364   5.334   0.555   4.523 -0.2814  0.6138  0.0001
 3325SOL    HW110365   5.311   0.633   4.471  0.2156  0.8149  0.0773
 3325SOL    HW210366   5.365   0.492   4.458 -1.3040  0.2354 -0.1396
 3326SOL     OW10367   2.380   1.398   1.230  0.4189  0.6256  0.6656
 3326SOL    HW110368   2.348   1.324   1.283  0.1857  0.0266 -0.2933
 3326SOL    HW210369   2.467   1.371   1.202  0.4170  0.8042  0.4867
 3327SOL     OW10370   2.481   3.392   6.628 -0.4741  0.0473 -0.2648
 3327SOL    HW110371   2.537   3.394   6.550 -1.6488 -0.1704 -1.1499
 3327SOL    HW210372   2.424   3.468   6.619 -1.2848 -0.5292 -0.1505
 3328SOL     OW10373   4.988   5.434   1.693  0.2145  0.3660 -0.1324
 3328SOL    HW110374   4.932   5.511   1.683  0.9136  0.6334 -2.9601
 3328SOL    HW210375   4.995   5.398   1.605  0.5328 -2.5432  0.9772
 3329SOL     OW10376   0.348   2.690   1.173 -1.1095  0.5461 -0.2321
 3329SOL    HW110377   0.386   2.693   1.086 -0.9961 -0.5284 -0.2260
 3329SOL    HW210378   0.313   2.779   1.187 -0.0822  1.0645 -0.8822
 3330SOL     OW10379   1.547   6.320   6.505  0.2015  0.2935 -0.3211
 3330SOL    HW110380   1.617   6.384   6.495  0.8514 -0.1937  0.8691
 3330SOL    HW210381   1.490   6.357   6.573  0.3259 -0.1521  0.0330
 3331SOL     OW10382   5.403   1.448   6.668  0.3090  0.1629 -0.2078
 3331SOL    HW110383   5.414   1.542   6.656  0.2412  0.1233 -0.6101
 3331SOL    HW210384   5.440   1.409   6.589 -1.5606 -0.0269 -1.0364
 3332SOL     OW10385   1.033   3.291   1.008  0.0620  0.5080 -0.0608
 3332SOL    HW110386   1.114   3.313   1.054  1.4037 -1.6128 -1.2514
 3332SOL    HW210387   1.061   3.233   0.937 -2.4995 -0.1119 -0.6463
 3333SOL     OW10388   1.427   3.989   2.892  0.4663  0.2364  0.5782
 3333SOL    HW110389   1.500   3.992   2.830 -0.0410 -1.3288 -0.1274
 3333SOL    HW210390   1.401   4.081   2.901  1.4969  0.6593 -0.3709
 3334SOL     OW10391   4.702   5.966   4.547 -0.4282  0.2362 -0.1468
 3334SOL    HW110392   4.696   6.055   4.511 -1.0910  0.6040  0.8476
 3334SOL    HW210393   4.710   5.978   4.641  0.1865 -0.7565 -0.0518
 3335SOL     OW10394   0.942   5.973   0.323  0.1152 -0.0838  0.1147
 3335SOL    HW110395   0.904   5.976   0.235 -1.3233 -0.6274  0.6781
 3335SOL    HW210396   0.969   6.063   0.340 -0.1816  0.1587 -0.6436
 3336SOL     OW10397   2.818   0.069   1.245 -0.2232 -0.1411 -0.1140
 3336SOL    HW110398   2.759   0.024   1.305 -0.0266 -1.6093 -0.9832
 3336SOL    HW210399   2.792   0.161   1.250 -0.9929 -0.4134  1.2957
 3337SOL     OW10400   4.059   6.384   4.355  0.4303  0.2838 -0.4320
 3337SOL    HW110401   4.024   6.331   4.283 -1.3784  2.8513 -1.5951
 3337SOL    HW210402   3.999   6.366   4.428  0.8373 -0.5130 -0.2834
 3338SOL     OW10403   6.123   1.839   0.704  0.1384 -0.3894 -0.0499
 3338SOL    HW110404   6.047   1.863   0.757 -0.6522 -2.0109 -0.4224
 3338SOL    HW210405   6.127   1.744   0.708  1.2076 -0.4311 -1.3436
 3339SOL     OW10406   5.394   6.060   5.929  0.3202 -0.3465 -0.2171
 3339SOL    HW110407   5.331   6.019   5.989  1.2289  0.8727  1.6582
 3339SOL    HW210408   5.348   6.138   5.896  0.0101 -0.7357 -0.7211
 3340SOL     OW10409   5.845   3.559   1.975 -0.2237 -0.3753  0.2727
 3340SOL    HW110410   5.914   3.493   1.969 -1.4086 -1.6346 -0.1933
 3340SOL    HW210411   5.767   3.514   1.942 -0.7300  1.7995 -1.7282
 3341SOL     OW10412   2.487   0.650   3.876  0.1900 -0.0296 -0.4367
 3341SOL    HW110413   2.406   0.609   3.909  0.2110  1.8186  2.2451
 3341SOL    HW210414   2.537   0.578   3.840 -1.8242 -1.5531 -0.3846
 3342SOL     OW10415   6.081   1.968   3.063 -0.5128  0.1183  0.2696
 3342SOL    HW110416   6.066   2.059   3.038 -0.7904  0.4581  1.5895
 3342SOL    HW210417   5.997   1.925   3.049 -0.1703 -0.1258 -1.0974
 3343SOL     OW10418   1.211   0.058   0.024 -0.4897 -0.5296  0.0889
 3343SOL    HW110419   1.141   0.084   0.085 -0.4970 -1.6460  0.5766
 3343SOL    HW210420   1.220  -0.036   0.036 -0.0194 -0.6641 -1.1711
 3344SOL     OW10421   3.930   2.402   2.523  0.0600  0.0335 -0.2676
 3344SOL    HW110422   3.916   2.495   2.504 -2.2109 -0.1011  0.4841
 3344SOL    HW210423   3.931   2.398   2.619 -2.1059 -0.9473 -0.2292
 3345SOL     OW10424   2.885   6.256   4.859 -0.1051 -0.4461 -0.7123
 3345SOL    HW110425   2.923   6.252   4.771 -0.9529  1.7194 -1.2133
 3345SOL    HW210426   2.961   6.259   4.917  0.4834  0.3400 -1.5013
 3346SOL     OW10427   6.708   1.006   2.688  0.0128 -0.4660 -0.0531
 3346SOL    HW110428   6.690   0.912   2.682  0.6254 -0.7703  2.2388
 3346SOL    HW210429   6.737   1.020   2.778 -1.1706  2.1244  0.0113
 3347SOL     OW10430   2.844   5.716   5.596 -0.0531  0.4868 -0.0732
 3347SOL    HW110431   2.897   5.714   5.516  1.8918 -1.0961  1.1764
 3347SOL    HW210432   2.886   5.782   5.651  0.4324 -0.4951  0.7670
 3348SOL     OW10433   4.879   2.070   6.158  0.0378 -0.3968 -0.0390
 3348SOL    HW110434   4.795   2.084   6.115  0.0692 -1.4880 -0.4611
 3348SOL    HW210435   4.900   1.978   6.144 -0.2327 -1.0040  2.8005
 3349SOL     OW10436   4.495   2.641   3.307  0.5516  0.5304  0.1525
 3349SOL    HW110437   4.577   2.600   3.333  0.0599  0.8971  2.5897
 3349SOL    HW210438   4.512   2.735   3.313 -0.1843  0.6176  1.3929
 3350SOL     OW10439   2.316   5.906   2.973 -0.3497 -0.5927  0.8504
 3350SOL    HW110440   2.322   5.862   2.888 -1.5002  1.2173 -0.2459
 3350SOL    HW210441   2.396   5.880   3.019  0.8239 -0.8298 -1.1994
 3351SOL     OW10442   6.651   1.660   4.134  0.3565 -0.6094 -0.2544
 3351SOL    HW110443   6.734   1.629   4.169 -0.4844 -0.8435  1.6652
 3351SOL    HW210444   6.592   1.584   4.141 -0.6408  0.2156  0.7250
 3352SOL     OW10445   0.615   4.234   2.682  0.0600 -0.3545 -0.7734
 3352SOL    HW110446   0.521   4.254   2.687 -0.2311 -1.6862 -0.5073
 3352SOL    HW210447   0.621   4.164   2.616  0.6737 -1.3230  0.2789
 3353SOL     OW10448   5.556   0.586   6.834  0.1779 -0.3232 -0.3841
 3353SOL    HW110449   5.606   0.573   6.914 -2.4950 -0.7853  1.3408
 3353SOL    HW210450   5.571   0.677   6.810  0.5931 -0.0245  0.9574
 3354SOL     OW10451   5.958   3.814   6.379 -0.2666  0.4319 -0.1298
 3354SOL    HW110452   5.888   3.859   6.425  0.3164 -0.4340  1.6973
 3354SOL    HW210453   5.922   3.795   6.292 -0.9278  3.2868 -0.5864
 3355SOL     OW10454   5.629   4.970   0.025  0.3106  0.2960 -0.4937
 3355SOL    HW110455   5.547   5.008  -0.008  0.3733  1.6900  0.8767
 3355SOL    HW210456   5.666   4.925  -0.051 -0.0068  2.5663 -2.0957
 3356SOL     OW10457   0.892   2.898   1.861 -0.2123  0.6228 -0.0228
 3356SOL    HW110458   0.812   2.849   1.846 -1.7270  2.3768  1.7744
 3356SOL    HW210459   0.912   2.938   1.776 -2.5979  1.9985 -0.0155
 3357SOL     OW10460   4.763   4.478   2.167 -0.5793  0.2425  0.1250
 3357SOL    HW110461   4.789   4.453   2.256 -1.2598 -0.9068  0.0254
 3357SOL    HW210462   4.746   4.572   2.172 -2.0965 -0.0546  1.6032
 3358SOL     OW10463   1.525   4.756   2.630  0.4727 -0.2739 -0.2610
 3358SOL    HW110464   1.504   4.699   2.556 -2.2516  1.4304 -0.9480
 3358SOL    HW210465   1.614   4.785   2.614  0.8378 -1.9376 -1.4708
 3359SOL     OW10466   5.674   5.268   0.646  0.6050  0.2393 -0.4526
 3359SOL    HW110467   5.748   5.252   0.705 -0.7905  1.3686  1.7416
 3359SOL    HW210468   5.597   5.260   0.701 -0.6770  4.2218 -1.2898
 3360SOL     OW10469   2.907   3.917   3.707 -0.3993 -0.5762 -0.2932
 3360SOL    HW110470   2.982   3.921   3.648  0.8161  1.1037  1.2423
 3360SOL    HW210471   2.845   3.980   3.671 -0.0162 -0.1657 -0.2461
 3361SOL     OW10472   2.048   6.455   0.795  0.6206  0.1221  0.0497
 3361SOL    HW110473   2.051   6.375   0.743  0.2714  0.4513 -0.4845
 3361SOL    HW210474   2.063   6.426   0.885  0.6041 -0.5274 -0.1540
 3362SOL     OW10475   0.678   1.123   5.346 -0.1281  0.3335  0.5804
 3362SOL    HW110476   0.627   1.163   5.417  0.1393  1.4983  0.1463
 3362SOL    HW210477   0.769   1.135   5.373 -0.0104  1.1921 -0.1441
 3363SOL     OW10478   4.804   1.812   3.424  0.0914 -0.4597 -0.3997
 3363SOL    HW110479   4.766   1.830   3.338 -0.6569 -0.7695 -0.1457
 3363SOL    HW210480   4.834   1.898   3.456  1.4995 -0.5295 -1.4772
 3364SOL     OW10481   0.385   3.388   4.646 -0.0371  0.0592 -0.1942
 3364SOL    HW110482   0.329   3.465   4.646  0.2798  0.4007  2.8183
 3364SOL    HW210483   0.457   3.410   4.705  1.5873 -1.5423 -1.4617
 3365SOL     OW10484   0.909   1.625   5.592  0.1433  0.2372  0.7727
 3365SOL    HW110485   0.815   1.608   5.589  0.5290 -2.0968 -1.5408
 3365SOL    HW210486   0.949   1.540   5.575  2.5372  1.9052 -3.6252
 3366SOL     OW10487   0.854   2.140   6.465 -0.2408  0.3668  0.0673
 3366SOL    HW110488   0.869   2.137   6.371 -2.1697  1.3640 -0.3288
 3366SOL    HW210489   0.767   2.102   6.476  0.0162  0.1291  1.4779
 3367SOL     OW10490   2.775   4.784   0.642 -0.0658  0.1429  0.8763
 3367SOL    HW110491   2.866   4.786   0.613 -0.3332 -1.6126 -0.3062
 3367SOL    HW210492   2.776   4.732   0.722 -0.1222 -0.8947  0.2323
 3368SOL     OW10493   1.604   1.006   4.476 -0.0475  0.1259 -0.2202
 3368SOL    HW110494   1.513   0.994   4.446  0.4661 -3.0009 -0.7683
 3368SOL    HW210495   1.646   1.052   4.403 -0.4313 -1.3691 -1.4282
 3369SOL     OW10496   0.914   0.814   3.277  0.1059  0.2104  0.4090
 3369SOL    HW110497   0.945   0.844   3.362 -1.0761  0.2371  0.8554
 3369SOL    HW210498   0.971   0.741   3.255  1.3099  1.0727  0.5660
 3370SOL     OW10499   4.954   3.627   4.930 -0.6002 -0.2670 -0.1154
 3370SOL    HW110500   4.961   3.532   4.942  0.6987 -0.1929 -0.1164
 3370SOL    HW210501   4.965   3.663   5.018  2.1156 -0.0194 -0.4610
 3371SOL     OW10502   5.626   5.062   1.274 -0.2320 -0.4410  0.2365
 3371SOL    HW110503   5.710   5.092   1.240 -1.5522  0.2021 -2.7927
 3371SOL    HW210504   5.575   5.143   1.284 -1.4000 -1.0287 -0.7892
 3372SOL     OW10505   3.956   6.062   3.770 -0.1773 -0.2012  0.0047
 3372SOL    HW110506   4.003   6.119   3.830  1.2088 -0.2925 -0.9480
 3372SOL    HW210507   3.968   6.102   3.684  0.8082 -1.8600 -0.6916
 3373SOL     OW10508   4.626   1.018   5.391 -0.3121  0.0553  0.4750
 3373SOL    HW110509   4.572   1.005   5.468 -1.1196  0.7897  0.0550
 3373SOL    HW210510   4.576   1.079   5.337  0.0303 -0.7580 -0.8218
 3374SOL     OW10511   3.282   2.117   2.943 -0.3341  0.2439 -0.3346
 3374SOL    HW110512   3.340   2.085   3.011 -1.1457 -1.2778 -0.3150
 3374SOL    HW210513   3.243   2.197   2.979 -0.4276 -0.3049  0.8046
 3375SOL     OW10514   2.813   0.720   2.864  0.0370 -0.1328 -0.2249
 3375SOL    HW110515   2.786   0.629   2.879  2.2862 -0.7604  0.4460
 3375SOL    HW210516   2.891   0.712   2.808  0.0167  1.4099 -0.4975
 3376SOL     OW10517   4.732   2.804   3.645 -0.2766  0.0195 -0.0367
 3376SOL    HW110518   4.781   2.841   3.718 -0.8508  1.6851 -0.4605
 3376SOL    HW210519   4.775   2.721   3.627  1.5188  0.7951  0.4944
 3377SOL     OW10520   6.449   0.615   1.139  0.0512  0.5634 -0.0928
 3377SOL    HW110521   6.470   0.658   1.222  0.6974 -0.3869  0.2493
 3377SOL    HW210522   6.465   0.523   1.155  0.7463  0.4257 -1.4633
 3378SOL     OW10523   6.146   3.568   4.462  0.3732  0.5191  0.2383
 3378SOL    HW110524   6.056   3.596   4.479  0.1376 -0.3991  0.5871
 3378SOL    HW210525   6.189   3.573   4.547 -0.0069 -1.2832  0.5729
 3379SOL     OW10526   6.175   1.444   6.143 -0.3417  0.0503  0.8565
 3379SOL    HW110527   6.147   1.424   6.053 -1.0432 -0.1171  1.1062
 3379SOL    HW210528   6.266   1.472   6.134 -0.3166 -0.2434  0.1260
 3380SOL     OW10529   6.621   4.010   3.547  0.0805  0.4602 -0.5192
 3380SOL    HW110530   6.647   3.956   3.621 -1.6243 -0.7316 -0.7593
 3380SOL    HW210531   6.544   3.967   3.510 -0.4702  2.2611 -1.6164
 3381SOL     OW10532   3.241   2.704   0.182  0.0272  0.4199 -0.3739
 3381SOL    HW110533   3.170   2.692   0.118  0.8017  1.1217 -1.3861
 3381SOL    HW210534   3.257   2.616   0.217 -0.9599  0.1653 -0.5349
 3382SOL     OW10535   0.809   5.390   0.465  0.1470 -0.1816  0.6316
 3382SOL    HW110536   0.714   5.392   0.468 -0.0328 -2.0772 -1.5004
 3382SOL    HW210537   0.834   5.328   0.533 -0.2362 -0.7683  0.2404
 3383SOL     OW10538   1.158   4.531   0.116  0.1597 -0.3342 -0.2151
 3383SOL    HW110539   1.087   4.539   0.053 -0.5977  1.4390  0.7871
 3383SOL    HW210540   1.144   4.445   0.156 -0.9513 -0.3465 -0.5927
 3384SOL     OW10541   4.112   1.372   2.767  0.6110 -0.3344  0.3998
 3384SOL    HW110542   4.044   1.435   2.792 -0.1097 -1.0341  0.2424
 3384SOL    HW210543   4.151   1.409   2.688 -0.7157 -0.7027 -0.4768
 3385SOL     OW10544   4.692   6.774   5.969 -0.1806  0.5288  0.0561
 3385SOL    HW110545   4.635   6.761   5.892  1.0098  0.4561 -0.8414
 3385SOL    HW210546   4.632   6.799   6.039 -1.1569  2.2141 -1.2902
 3386SOL     OW10547   1.376   3.879   2.177  0.4467 -0.2197 -0.4521
 3386SOL    HW110548   1.308   3.913   2.120 -0.3239 -1.2745 -0.2053
 3386SOL    HW210549   1.405   3.798   2.134  0.7178 -0.3866  0.0324
 3387SOL     OW10550   5.134   3.977   1.339 -0.8879 -0.2153  0.2038
 3387SOL    HW110551   5.228   3.977   1.323 -0.7739 -2.1215  0.5882
 3387SOL    HW210552   5.114   4.067   1.366  0.4843  0.6848 -1.5378
 3388SOL     OW10553   0.247   3.885   5.758 -0.3819 -0.2724 -0.0440
 3388SOL    HW110554   0.188   3.933   5.700 -0.3065  2.3473  1.8757
 3388SOL    HW210555   0.201   3.880   5.841  0.9180 -0.7365  0.6839
 3389SOL     OW10556   3.544   3.251   2.794  0.7388 -0.0536  0.2234
 3389SOL    HW110557   3.498   3.278   2.715 -0.2960  1.0345  1.1595
 3389SOL    HW210558   3.480   3.260   2.864  1.4182 -1.6483  1.1191
 3390SOL     OW10559   3.178   5.925   1.039 -0.6019  0.0186 -0.8545
 3390SOL    HW110560   3.237   5.883   1.102 -1.9322 -1.3081 -0.4190
 3390SOL    HW210561   3.146   5.852   0.985 -0.6983  0.9219 -2.0682
 3391SOL     OW10562   2.037   0.741   2.357  0.0600 -0.0822  0.4281
 3391SOL    HW110563   1.942   0.728   2.353  0.0514  0.2319 -0.8452
 3391SOL    HW210564   2.056   0.800   2.284  1.1126  0.6917  1.2875
 3392SOL     OW10565   1.021   1.091   3.690 -0.3548 -0.1312 -0.5129
 3392SOL    HW110566   1.051   1.166   3.742 -0.7036 -1.0726  1.1118
 3392SOL    HW210567   1.066   1.016   3.729  0.4631 -0.7449 -2.5001
 3393SOL     OW10568   3.495   0.598   1.838  0.6637 -0.2384  0.3768
 3393SOL    HW110569   3.429   0.560   1.896 -0.9497  0.1396 -1.1127
 3393SOL    HW210570   3.499   0.691   1.862  0.9983 -0.3531  0.7702
 3394SOL     OW10571   0.890   6.240   3.471  0.0021  0.8007  0.3994
 3394SOL    HW110572   0.876   6.242   3.376  0.0773  1.3383  0.4005
 3394SOL    HW210573   0.953   6.309   3.488 -0.8904  1.5022  0.9843
 3395SOL     OW10574   0.760   6.084   2.407  0.1998  0.2600  0.2086
 3395SOL    HW110575   0.710   6.156   2.367  0.1174 -0.3828 -0.9072
 3395SOL    HW210576   0.798   6.038   2.332  0.4948 -0.6789  0.9264
 3396SOL     OW10577   0.303   2.566   6.659  0.1772 -0.3113 -0.0816
 3396SOL    HW110578   0.363   2.626   6.703  0.9351 -0.5570 -0.7431
 3396SOL    HW210579   0.280   2.502   6.725  0.0060  0.2414  0.4026
 3397SOL     OW10580   0.730   4.126   5.484  0.4175  0.1865  0.0997
 3397SOL    HW110581   0.653   4.161   5.528  1.1898  1.3103  0.5970
 3397SOL    HW210582   0.752   4.046   5.533  2.3623  2.3512  3.1251
 3398SOL     OW10583   1.814   0.091   6.572  0.7259 -0.5183  0.3972
 3398SOL    HW110584   1.724   0.061   6.586  0.5929 -0.4622 -0.3116
 3398SOL    HW210585   1.856   0.019   6.526  0.9604 -0.4183  0.4538
 3399SOL     OW10586   3.294   0.012   5.985 -0.1825 -0.7045  0.3313
 3399SOL    HW110587   3.198   0.014   5.979 -0.2603  0.5902  1.5427
 3399SOL    HW210588   3.317   0.094   6.029  1.3288 -1.9842  2.0831
 3400SOL     OW10589   2.559   0.539   4.693 -0.2792 -0.2492 -0.0721
 3400SOL    HW110590   2.609   0.490   4.758 -0.0296  0.3729  0.2167
 3400SOL    HW210591   2.612   0.536   4.614  0.3026  0.5238  0.2701
 3401SOL     OW10592   0.377   4.865   3.313  0.6624  0.0648  0.6104
 3401SOL    HW110593   0.444   4.858   3.245  1.2602  1.0573  1.0803
 3401SOL    HW210594   0.376   4.778   3.355  1.0741 -0.2057  0.0702
 3402SOL     OW10595   4.018   1.852   3.677  0.7055 -0.1591 -0.1260
 3402SOL    HW110596   4.015   1.818   3.588  1.1818 -0.1584 -0.1446
 3402SOL    HW210597   4.080   1.925   3.673  2.5197 -1.5698  0.6649
 3403SOL     OW10598   2.488   4.857   0.086  0.1757  0.4421 -0.3483
 3403SOL    HW110599   2.564   4.862   0.144 -0.6611  3.2423  0.6827
 3403SOL    HW210600   2.413   4.855   0.145 -0.6351 -0.6154 -1.3606
 3404SOL     OW10601   0.207   6.459   1.275 -0.3460 -0.0001 -0.2720
 3404SOL    HW110602   0.128   6.508   1.301  0.1173  0.8699 -0.4479
 3404SOL    HW210603   0.189   6.369   1.301 -1.6987  0.0387 -0.9518
 3405SOL     OW10604   3.589   5.059   1.188 -0.3725 -0.4763  0.1096
 3405SOL    HW110605   3.568   5.040   1.280 -1.9260 -0.9510 -0.3288
 3405SOL    HW210606   3.672   5.106   1.193 -0.8409  0.2575  1.8261
 3406SOL     OW10607   6.239   3.535   0.208 -0.3920  0.3273 -0.4318
 3406SOL    HW110608   6.172   3.532   0.277  0.2750  1.0618  0.2697
 3406SOL    HW210609   6.289   3.614   0.227  0.3349  0.0797 -1.2704
 3407SOL     OW10610   1.622   0.244   0.228  0.5222  0.1538 -0.4384
 3407SOL    HW110611   1.555   0.257   0.160 -0.1183 -1.8123 -0.2487
 3407SOL    HW210612   1.686   0.187   0.187 -0.4751 -2.0558  0.9132
 3408SOL     OW10613   4.522   0.395   6.257  0.8640  0.0025  0.0453
 3408SOL    HW110614   4.583   0.362   6.191 -0.7947 -2.2605 -0.4653
 3408SOL    HW210615   4.543   0.488   6.264  3.1799 -0.3197 -1.3460
 3409SOL     OW10616   0.332   0.072   2.195  0.1202  0.3485  0.1437
 3409SOL    HW110617   0.319  -0.023   2.198  0.6848  0.2860  1.2837
 3409SOL    HW210618   0.368   0.094   2.281  0.3675  1.5442 -0.2418
 3410SOL     OW10619   3.767   4.634   6.381 -0.5732  0.3852 -0.6225
 3410SOL    HW110620   3.800   4.703   6.323 -0.6542  2.0603  1.2126
 3410SOL    HW210621   3.846   4.597   6.420 -0.5888  0.9395 -0.0283
 3411SOL     OW10622   3.717   0.384   3.876 -0.0311  0.1516  0.5377
 3411SOL    HW110623   3.770   0.359   3.952  0.6982  0.8840  0.2787
 3411SOL    HW210624   3.644   0.322   3.877  0.4740 -0.4546  1.2850
 3412SOL     OW10625   5.914   3.273   1.015 -0.5597  0.2019 -0.3849
 3412SOL    HW110626   5.968   3.341   0.976 -2.0157  1.5415 -0.1706
 3412SOL    HW210627   5.901   3.302   1.106 -1.7387  0.0010 -0.4771
 3413SOL     OW10628   3.865   3.278   4.460 -0.5855 -0.3375  0.2618
 3413SOL    HW110629   3.938   3.281   4.399 -1.7639  0.7031 -1.1800
 3413SOL    HW210630   3.863   3.188   4.492  1.3239 -0.3719  0.3695
 3414SOL     OW10631   4.608   3.063   1.459 -0.0029 -0.1245 -0.5562
 3414SOL    HW110632   4.659   3.080   1.538 -2.1950 -0.4231  1.0171
 3414SOL    HW210633   4.673   3.043   1.392  1.9137 -0.7680  1.3859
 3415SOL     OW10634   3.378   0.075   1.335  0.2613  0.1833  0.1572
 3415SOL    HW110635   3.453   0.117   1.376 -0.7075  1.8945  0.2661
 3415SOL    HW210636   3.332   0.147   1.290 -2.1808 -0.4859  1.4163
 3416SOL     OW10637   1.148   0.283   4.579  0.2700  0.2792 -0.1129
 3416SOL    HW110638   1.171   0.206   4.630 -0.2209 -0.9676 -1.6794
 3416SOL    HW210639   1.057   0.301   4.602  0.4110  0.4644  0.3172
 3417SOL     OW10640   3.892   5.006   2.040 -0.1939  0.1214 -0.2893
 3417SOL    HW110641   3.962   4.940   2.042 -0.5194 -0.2904 -1.4575
 3417SOL    HW210642   3.813   4.958   2.064  0.0507  0.8159  2.0911
 3418SOL     OW10643   0.143   6.002   3.322 -0.1539 -0.0672 -0.1470
 3418SOL    HW110644   0.174   6.075   3.269 -0.0133 -0.1582 -0.1907
 3418SOL    HW210645   0.223   5.959   3.353 -0.2335 -0.4219 -0.4228
 3419SOL     OW10646   1.732   0.498   5.926 -0.0863  0.7240 -0.5056
 3419SOL    HW110647   1.649   0.545   5.929 -0.5169  0.0034 -0.6873
 3419SOL    HW210648   1.707   0.408   5.902  0.5863  0.1258  0.9145
 3420SOL     OW10649   2.712   6.439   5.025 -0.3910 -0.6268  0.0119
 3420SOL    HW110650   2.753   6.365   4.981 -0.0807 -0.3275 -0.2119
 3420SOL    HW210651   2.767   6.514   5.002  1.1003 -0.7673  2.6663
 3421SOL     OW10652   1.140   0.810   5.446  0.0896 -0.3132 -0.1960
 3421SOL    HW110653   1.080   0.880   5.473 -0.0824 -0.3288 -0.5359
 3421SOL    HW210654   1.085   0.732   5.440  0.5555 -0.8377  1.6745
 3422SOL     OW10655   4.631   6.480   6.254 -0.1438  0.2126  0.3970
 3422SOL    HW110656   4.693   6.413   6.226 -0.1109  1.3700 -2.6148
 3422SOL    HW210657   4.566   6.484   6.184 -0.0891  3.3347  0.3805
 3423SOL     OW10658   0.253   0.161   4.413  0.4853 -0.1281 -0.4940
 3423SOL    HW110659   0.186   0.212   4.367  0.6499  0.8470  0.3004
 3423SOL    HW210660   0.326   0.223   4.425  0.4508 -0.3401  1.0456
 3424SOL     OW10661   1.911   1.199   3.303 -0.3948  0.1962 -0.4312
 3424SOL    HW110662   1.915   1.134   3.373  0.2683  0.5811 -0.0944
 3424SOL    HW210663   2.003   1.209   3.275 -0.5996  0.3596 -1.0649
 3425SOL     OW10664   5.167   5.585   3.911 -0.0245 -0.4627 -0.4758
 3425SOL    HW110665   5.125   5.666   3.940 -0.7535 -0.5263 -1.2756
 3425SOL    HW210666   5.222   5.558   3.984 -1.0184 -0.1073  0.4319
 3426SOL     OW10667   0.982   1.038   0.069  0.8606  0.4692 -0.1711
 3426SOL    HW110668   0.988   1.004   0.159  0.0826  1.1772  0.1566
 3426SOL    HW210669   1.059   1.002   0.025  1.4961  0.4749  0.9020
 3427SOL     OW10670   5.394   1.752   3.496  0.2872  0.2838 -0.2827
 3427SOL    HW110671   5.300   1.767   3.495  0.2071 -0.0109  0.8336
 3427SOL    HW210672   5.412   1.724   3.586  1.0380 -2.1023 -1.0991
 3428SOL     OW10673   1.505   3.782   3.232 -0.0070  0.1255  0.4458
 3428SOL    HW110674   1.545   3.724   3.167 -0.4604 -1.3716  1.4486
 3428SOL    HW210675   1.414   3.752   3.238  0.3692 -0.7401  2.7710
 3429SOL     OW10676   5.379   2.434   1.165 -0.5692  0.1034  0.1996
 3429SOL    HW110677   5.341   2.480   1.090  0.2375  1.0333  0.3350
 3429SOL    HW210678   5.471   2.425   1.142 -0.8665 -2.3408 -0.2418
 3430SOL     OW10679   3.666   1.456   2.391  0.0355  0.0668  0.2402
 3430SOL    HW110680   3.658   1.418   2.304  1.0744 -0.9643  0.5681
 3430SOL    HW210681   3.646   1.549   2.379  1.6123  0.2381 -1.3829
 3431SOL     OW10682   5.019   2.795   2.517 -0.5324 -0.1016 -0.1218
 3431SOL    HW110683   5.036   2.727   2.452  0.3806 -0.1355  0.1318
 3431SOL    HW210684   5.100   2.847   2.518 -0.5463 -0.0892  0.9607
 3432SOL     OW10685   6.779   0.587   6.652  0.0238  0.1750  0.2287
 3432SOL    HW110686   6.727   0.508   6.666  1.0221 -0.6058 -0.3024
 3432SOL    HW210687   6.715   0.658   6.647 -0.7664 -0.2094  3.2292
 3433SOL     OW10688   5.775   5.152   6.648 -0.1440  0.1015 -0.4057
 3433SOL    HW110689   5.746   5.243   6.642 -1.3992 -0.2976 -0.8130
 3433SOL    HW210690   5.839   5.151   6.719 -1.3912  0.9899  0.7670
 3434SOL     OW10691   3.244   3.377   6.268  0.4011 -0.4460 -0.0054
 3434SOL    HW110692   3.234   3.451   6.209  1.1011 -0.6613 -0.4015
 3434SOL    HW210693   3.210   3.302   6.218  0.3992 -0.5196  0.1060
 3435SOL     OW10694   1.494   2.825   4.223 -0.6642 -0.3836 -0.3862
 3435SOL    HW110695   1.558   2.893   4.204  1.3816 -1.8516  0.8384
 3435SOL    HW210696   1.409   2.869   4.217  0.4796  1.8301 -1.2715
 3436SOL     OW10697   3.616   3.511   5.064 -0.3002  0.3150  0.3904
 3436SOL    HW110698   3.609   3.605   5.045 -0.4127  0.5682  1.5655
 3436SOL    HW210699   3.692   3.504   5.122 -0.5797 -0.2550  0.6936
 3437SOL     OW10700   5.958   2.663   0.663 -0.1288 -0.4487 -0.3950
 3437SOL    HW110701   5.930   2.679   0.573  1.9235  0.6545 -0.8954
 3437SOL    HW210702   5.929   2.574   0.682 -1.6655 -0.2577 -1.6987
 3438SOL     OW10703   4.894   1.435   5.420 -0.2293  1.0162  0.0379
 3438SOL    HW110704   4.985   1.444   5.449  0.0428 -2.2279  0.6393
 3438SOL    HW210705   4.890   1.346   5.384 -3.0496  1.2667 -0.4843
 3439SOL     OW10706   4.695   5.043   4.603 -0.1164 -0.3029  0.2015
 3439SOL    HW110707   4.651   5.009   4.681  1.7625 -0.9236  1.0569
 3439SOL    HW210708   4.731   4.965   4.560  0.6510  0.2195 -0.1270
 3440SOL     OW10709   2.055   3.319   2.322 -0.1885 -0.9166 -0.2632
 3440SOL    HW110710   2.031   3.397   2.271  2.7561  1.2766  1.3909
 3440SOL    HW210711   1.972   3.274   2.336 -2.1583  2.1658 -0.9409
 3441SOL     OW10712   0.266   0.975   2.413  0.9896 -0.0233 -0.5254
 3441SOL    HW110713   0.356   0.952   2.391  1.5766 -0.9488  2.3924
 3441SOL    HW210714   0.271   1.014   2.501 -1.4898 -0.7168  0.0189
 3442SOL     OW10715   6.700   4.005   2.651  0.3636 -0.9512 -0.2257
 3442SOL    HW110716   6.729   3.915   2.671  1.0666 -0.5181  0.8344
 3442SOL    HW210717   6.683   4.043   2.737  0.5110  0.0797 -0.6468
 3443SOL     OW10718   1.653   2.254   2.549 -0.1479  0.0498  0.0334
 3443SOL    HW110719   1.632   2.329   2.605 -0.9839 -0.9239  1.0819
 3443SOL    HW210720   1.575   2.199   2.553  0.7686 -1.2889 -0.0108
 3444SOL     OW10721   5.111   4.949   2.823 -0.8985  0.5115 -0.1759
 3444SOL    HW110722   5.083   5.028   2.778 -0.2666  0.2328 -1.0886
 3444SOL    HW210723   5.031   4.914   2.862 -1.1214  1.7719  0.5387
 3445SOL     OW10724   3.753   6.570   2.265 -0.0304 -0.1508  0.0760
 3445SOL    HW110725   3.689   6.502   2.287  0.2865 -0.2238  0.7686
 3445SOL    HW210726   3.700   6.648   2.248 -0.4025 -0.5876 -0.8180
 3446SOL     OW10727   3.365   4.863   6.792  0.1994 -0.8001 -0.1842
 3446SOL    HW110728   3.269   4.868   6.795  0.0425 -2.0962 -1.9672
 3446SOL    HW210729   3.387   4.871   6.699  1.7510 -1.6602  0.0751
 3447SOL     OW10730   6.288   1.421   5.410 -0.0971 -0.2044  0.1980
 3447SOL    HW110731   6.313   1.511   5.391 -3.0731  0.7575  0.2416
 3447SOL    HW210732   6.318   1.407   5.500  0.1163  0.8834  0.3158
 3448SOL     OW10733   5.803   0.912   4.779 -0.1769 -0.0724  0.2445
 3448SOL    HW110734   5.760   0.938   4.860  1.1257  0.9846  0.6359
 3448SOL    HW210735   5.844   0.828   4.799 -0.6438 -0.2704  0.3794
 3449SOL     OW10736   6.345   1.540   2.048 -0.0318 -0.9069  0.0485
 3449SOL    HW110737   6.394   1.622   2.050  0.6317 -1.3035  0.4271
 3449SOL    HW210738   6.255   1.566   2.032  0.2555 -0.1410 -0.3322
 3450SOL     OW10739   4.752   4.160   1.831  0.6775 -0.4926  0.0813
 3450SOL    HW110740   4.746   4.239   1.885 -0.9385 -1.2103  1.0173
 3450SOL    HW210741   4.665   4.150   1.794  0.5286 -2.3992  0.8233
 3451SOL     OW10742   1.427   3.080   3.154 -0.2090  0.1563 -0.0383
 3451SOL    HW110743   1.423   3.084   3.059 -1.9861  2.1005  0.0486
 3451SOL    HW210744   1.392   2.994   3.176 -3.1800  0.9833 -1.0832
 3452SOL     OW10745   0.974   1.825   2.105  0.2310 -0.1860  0.1149
 3452SOL    HW110746   1.018   1.787   2.181 -1.6027 -0.2953  1.1687
 3452SOL    HW210747   0.977   1.756   2.039  0.1950 -0.7898  0.7344
 3453SOL     OW10748   1.828   1.388   3.771  0.1153  0.1426  0.2761
 3453SOL    HW110749   1.866   1.383   3.859  0.6605  1.9730  0.2046
 3453SOL    HW210750   1.890   1.444   3.722 -0.9866  0.4645 -0.8035
 3454SOL     OW10751   0.317   1.540   6.530  0.2181 -0.2203 -0.1061
 3454SOL    HW110752   0.283   1.622   6.494 -0.4201 -0.3186  0.2513
 3454SOL    HW210753   0.311   1.478   6.457 -1.0514 -0.4142  0.1261
 3455SOL     OW10754   6.742   3.475   4.050  0.4586 -0.4950 -0.5561
 3455SOL    HW110755   6.696   3.391   4.049  0.6290 -0.6109  0.4444
 3455SOL    HW210756   6.684   3.534   4.097  0.9180 -0.4002 -0.1021
 3456SOL     OW10757   4.957   4.562   5.290  0.1262  0.2573 -0.2161
 3456SOL    HW110758   5.018   4.493   5.315  0.3128 -0.6695 -2.9793
 3456SOL    HW210759   5.007   4.643   5.302  1.0727 -0.3174 -0.1487
 3457SOL     OW10760   0.977   6.223   0.493 -0.1469 -0.6019  0.1668
 3457SOL    HW110761   0.897   6.262   0.528 -0.3907 -0.6569 -0.3122
 3457SOL    HW210762   1.030   6.297   0.465 -1.0952 -0.5939 -1.8011
 3458SOL     OW10763   5.782   0.983   5.487 -0.0348 -0.9152  0.0086
 3458SOL    HW110764   5.865   1.031   5.485 -0.1553 -0.6401  1.0390
 3458SOL    HW210765   5.795   0.916   5.554  0.2474 -2.5910 -1.6082
 3459SOL     OW10766   5.613   3.320   5.978 -0.2148 -0.0563  0.2654
 3459SOL    HW110767   5.691   3.350   6.026 -0.3157  1.9535 -0.7098
 3459SOL    HW210768   5.575   3.401   5.943 -0.4979 -1.3380 -2.6546
 3460SOL     OW10769   6.820   4.350   3.317 -0.1565 -0.2397  0.2469
 3460SOL    HW110770   6.779   4.310   3.394  0.6581 -1.8636 -0.1217
 3460SOL    HW210771   6.825   4.443   3.339 -1.5630 -0.3938  1.4017
 3461SOL     OW10772   2.148   3.400   4.474 -0.3676 -0.3112 -0.3956
 3461SOL    HW110773   2.141   3.395   4.569 -1.2070  1.2406 -0.3347
 3461SOL    HW210774   2.058   3.392   4.443 -0.0591 -1.2534 -1.1092
 3462SOL     OW10775   4.238   2.004   5.948 -0.2507 -0.3920  0.2321
 3462SOL    HW110776   4.332   2.010   5.931 -0.2313 -0.2820  0.3730
 3462SOL    HW210777   4.222   2.072   6.015 -0.5950  0.2478 -0.4877
 3463SOL     OW10778   1.461   3.906   0.124  0.1126 -0.2334 -0.5768
 3463SOL    HW110779   1.556   3.900   0.113  0.2093  0.6565 -0.3111
 3463SOL    HW210780   1.439   3.837   0.187  0.6393 -0.1953 -0.3486
 3464SOL     OW10781   0.036   0.175   3.538 -0.0767  0.8118  0.1093
 3464SOL    HW110782  -0.044   0.126   3.518  0.2836  0.4229 -0.4228
 3464SOL    HW210783   0.076   0.127   3.611  0.2649  0.3029 -0.3969
 3465SOL     OW10784   6.196   5.841   4.852  0.7779 -0.6195 -0.0060
 3465SOL    HW110785   6.244   5.869   4.774 -3.1919  0.2315 -2.4196
 3465SOL    HW210786   6.242   5.762   4.881  1.6416 -1.9091 -4.1705
 3466SOL     OW10787   5.508   0.322   6.315 -0.6234  0.2478  0.1431
 3466SOL    HW110788   5.458   0.294   6.238 -0.2335  2.3371 -0.9679
 3466SOL    HW210789   5.593   0.279   6.304 -1.4440 -1.6603  0.9299
 3467SOL     OW10790   5.579   1.286   4.486  0.2266 -0.3511 -0.0938
 3467SOL    HW110791   5.611   1.196   4.493 -0.5391 -0.8092 -1.8035
 3467SOL    HW210792   5.632   1.325   4.417  0.3825  0.4392  0.4645
 3468SOL     OW10793   3.669   5.330   5.266 -0.2308  0.6240 -0.3158
 3468SOL    HW110794   3.693   5.237   5.263  0.8477  0.8619  0.5124
 3468SOL    HW210795   3.605   5.336   5.338 -0.3803  0.5048 -0.4394
 3469SOL     OW10796   2.347   0.056   1.642  0.0779 -0.6330  0.0965
 3469SOL    HW110797   2.436   0.084   1.666 -0.3946 -0.3036  1.5438
 3469SOL    HW210798   2.320  -0.003   1.712 -0.7282 -1.0063 -0.5101
 3470SOL     OW10799   4.937   3.924   3.516  0.2627  0.0009  0.1838
 3470SOL    HW110800   4.992   4.001   3.531  0.4219 -0.1480  0.3782
 3470SOL    HW210801   4.898   3.906   3.602  1.1110 -0.8127  0.4129
 3471SOL     OW10802   2.593   6.083   6.645  0.0663  0.3675  0.1929
 3471SOL    HW110803   2.685   6.059   6.634 -0.2723  0.0559 -2.6910
 3471SOL    HW210804   2.547   5.999   6.650 -0.3077  0.4470 -1.4441
 3472SOL     OW10805   3.908   1.383   0.929 -0.3343  0.3931  0.5998
 3472SOL    HW110806   3.847   1.456   0.922  0.2442  0.8467  0.2905
 3472SOL    HW210807   3.973   1.412   0.992 -0.2883  0.0069  0.7328
 3473SOL     OW10808   1.630   2.501   4.686 -0.1360 -0.6600  0.0538
 3473SOL    HW110809   1.540   2.517   4.715 -0.5938  0.4451 -1.7934
 3473SOL    HW210810   1.622   2.434   4.619  0.5411 -1.1694  0.4731
 3474SOL     OW10811   3.930   2.701   2.553 -0.5808  0.0550  0.6291
 3474SOL    HW110812   3.880   2.783   2.548 -1.8666 -0.6768  1.0336
 3474SOL    HW210813   4.022   2.728   2.551 -0.9296  1.6729  2.9741
 3475SOL     OW10814   6.826   5.921   1.867 -0.5366  0.1026  0.0547
 3475SOL    HW110815   6.837   5.827   1.853  1.4761  0.4842 -1.3755
 3475SOL    HW210816   6.741   5.940   1.827 -0.5195 -0.9496 -0.5333
 3476SOL     OW10817   1.301   0.801   1.498 -0.3982  0.1314  0.4891
 3476SOL    HW110818   1.258   0.833   1.419  0.6077  0.1289 -0.0810
 3476SOL    HW210819   1.355   0.728   1.468  0.2661  0.3505  1.1055
 3477SOL     OW10820   1.531   5.243   5.420  0.3018 -0.2054  0.0169
 3477SOL    HW110821   1.509   5.203   5.505 -3.1491 -1.4701 -1.2890
 3477SOL    HW210822   1.460   5.305   5.404  2.1751  1.8230 -0.9666
 3478SOL     OW10823   6.289   0.856   5.421  0.4563  0.2663 -0.1530
 3478SOL    HW110824   6.198   0.830   5.433  0.4033 -0.0207 -1.1040
 3478SOL    HW210825   6.313   0.898   5.503  0.3098 -2.1181  1.2073
 3479SOL     OW10826   2.234   0.482   5.161  0.5129 -0.0220 -0.3517
 3479SOL    HW110827   2.212   0.480   5.067  0.1764  0.3449 -0.2849
 3479SOL    HW210828   2.179   0.552   5.196 -0.3415 -1.0184  0.3659
 3480SOL     OW10829   0.643   3.592   0.312  0.5442  0.1320 -0.3811
 3480SOL    HW110830   0.554   3.590   0.346  1.0867  0.2468  1.1000
 3480SOL    HW210831   0.632   3.589   0.217 -1.0014 -1.0448 -0.2106
 3481SOL     OW10832   4.613   1.098   3.965 -0.1906 -0.7203  0.3382
 3481SOL    HW110833   4.586   1.099   3.873 -0.5847  2.4927  0.3792
 3481SOL    HW210834   4.709   1.091   3.962 -0.2326 -1.0718 -0.2856
 3482SOL     OW10835   3.068   0.732   0.605 -0.5077 -0.8379 -0.4807
 3482SOL    HW110836   3.140   0.708   0.546  2.0589  0.8467  1.7340
 3482SOL    HW210837   3.044   0.821   0.579  0.5870 -0.1130  0.8343
 3483SOL     OW10838   4.484   6.616   4.350 -0.0656 -0.1063  0.4615
 3483SOL    HW110839   4.430   6.538   4.365  0.5520 -0.3478  1.4969
 3483SOL    HW210840   4.425   6.677   4.306 -0.7050 -0.9610  0.0811
 3484SOL     OW10841   2.099   4.412   3.189  0.3377 -0.1497 -0.8692
 3484SOL    HW110842   2.120   4.480   3.253 -2.5394  0.0094  0.0580
 3484SOL    HW210843   2.116   4.330   3.234 -1.1551 -0.0315 -0.0256
 3485SOL     OW10844   1.191   4.077   0.488 -0.4493 -0.2272  0.5353
 3485SOL    HW110845   1.258   4.015   0.517  0.7590  0.1657 -1.2775
 3485SOL    HW210846   1.134   4.025   0.432 -2.6719 -0.9394  3.2379
 3486SOL     OW10847   5.426   5.991   2.950 -0.3469 -0.4990 -0.0389
 3486SOL    HW110848   5.503   6.033   2.911  0.2521 -2.4048 -1.0862
 3486SOL    HW210849   5.425   5.903   2.911 -0.8836 -1.8702  2.8018
 3487SOL     OW10850   5.330   0.348   0.973  0.5383 -0.4174  0.0050
 3487SOL    HW110851   5.312   0.279   1.037  1.2274 -0.0697  0.5796
 3487SOL    HW210852   5.425   0.350   0.966  0.4860 -0.1241 -0.6806
 3488SOL     OW10853   6.129   6.528   4.352 -0.6102  0.4261  0.1869
 3488SOL    HW110854   6.072   6.450   4.353  0.3179 -0.2723  1.1699
 3488SOL    HW210855   6.190   6.512   4.280  0.2644 -0.3078  1.0536
 3489SOL     OW10856   5.515   5.670   5.728  0.0361 -0.3881 -0.1552
 3489SOL    HW110857   5.478   5.750   5.690 -2.4601 -2.3736 -2.3674
 3489SOL    HW210858   5.609   5.678   5.714 -0.3535  1.1595 -2.5908
 3490SOL     OW10859   0.093   3.528   0.228 -0.3204  0.5932  0.2270
 3490SOL    HW110860   0.056   3.533   0.316  0.4245  1.3482  0.5063
 3490SOL    HW210861   0.163   3.464   0.236  0.5645  1.5713  0.5000
 3491SOL     OW10862   2.413   5.201   4.160 -0.7078  0.1326  0.2347
 3491SOL    HW110863   2.382   5.271   4.101  0.9575 -0.2291 -1.1597
 3491SOL    HW210864   2.508   5.201   4.149 -0.4139 -0.5330  2.3361
 3492SOL     OW10865   0.625   5.679   2.943  0.1575  0.8496 -0.2075
 3492SOL    HW110866   0.630   5.747   2.875  0.1921 -0.3682 -1.4749
 3492SOL    HW210867   0.715   5.670   2.974  0.5432 -0.0193 -1.5017
 3493SOL     OW10868   4.401   5.104   3.778 -0.1982  0.1527  0.0169
 3493SOL    HW110869   4.489   5.138   3.792 -0.0827  0.3805 -1.1593
 3493SOL    HW210870   4.389   5.107   3.683 -1.0576 -0.9267  0.0778
 3494SOL     OW10871   1.414   6.236   4.071 -0.5009 -0.6362  0.8520
 3494SOL    HW110872   1.348   6.227   4.140 -1.6393  0.3198 -0.0717
 3494SOL    HW210873   1.367   6.216   3.990 -0.4219  2.6331 -0.1411
 3495SOL     OW10874   0.372   6.065   5.788 -0.9066  0.2038  0.3958
 3495SOL    HW110875   0.319   6.112   5.724  0.9832  0.9729 -0.6966
 3495SOL    HW210876   0.401   6.132   5.850 -0.4403 -0.0105  0.4175
 3496SOL     OW10877   2.055   3.198   3.855  0.0361 -0.2634 -0.2289
 3496SOL    HW110878   2.126   3.197   3.920 -1.8857 -1.4577  1.9930
 3496SOL    HW210879   2.081   3.132   3.791  2.1556  1.1956 -1.0044
 3497SOL     OW10880   5.882   3.114   0.739 -0.6866  0.6708 -0.5881
 3497SOL    HW110881   5.952   3.129   0.676  0.6303 -2.9187 -0.2643
 3497SOL    HW210882   5.891   3.184   0.803  1.8497  1.0342 -1.2399
 3498SOL     OW10883   1.043   2.338   5.748 -0.3465 -0.3247 -0.4305
 3498SOL    HW110884   1.038   2.266   5.685 -0.5978 -1.2361  0.6048
 3498SOL    HW210885   1.053   2.295   5.833  0.1430  0.8852  0.1468
 3499SOL     OW10886   0.434   4.505   1.441  0.4717  0.4650  0.1816
 3499SOL    HW110887   0.484   4.543   1.369  2.3203 -3.2183 -0.7234
 3499SOL    HW210888   0.357   4.467   1.399  1.2775 -1.2064  0.1190
 3500SOL     OW10889   4.985   1.044   3.224  0.2568  0.1122  0.2685
 3500SOL    HW110890   4.953   1.134   3.228 -1.2939 -0.2621 -1.7978
 3500SOL    HW210891   5.070   1.050   3.181 -0.8187  0.5020 -1.9933
 3501SOL     OW10892   2.753   6.442   1.886  0.0885  0.2435  0.0638
 3501SOL    HW110893   2.689   6.513   1.874 -0.5626 -0.3953 -0.3167
 3501SOL    HW210894   2.827   6.466   1.830  0.3586  1.1811  0.7970
 3502SOL     OW10895   2.115   2.980   6.045 -0.0984 -0.2450  0.4040
 3502SOL    HW110896   2.078   2.911   6.101  2.2958 -1.3930  0.6865
 3502SOL    HW210897   2.049   2.993   5.977 -1.3958 -1.5430  1.3501
 3503SOL     OW10898   4.622   2.513   4.673 -0.1242  0.0628 -0.4078
 3503SOL    HW110899   4.656   2.599   4.650  2.0144 -0.0966  1.7512
 3503SOL    HW210900   4.561   2.530   4.746 -2.6898  0.0372 -2.4031
 3504SOL     OW10901   3.125   1.776   3.748  0.1783 -0.2343 -0.5428
 3504SOL    HW110902   3.184   1.701   3.744  0.3115 -0.1114 -0.9757
 3504SOL    HW210903   3.130   1.806   3.839  0.9264 -0.1210 -0.6149
 3505SOL     OW10904   5.518   6.752   2.053  0.1967 -0.7097 -0.2044
 3505SOL    HW110905   5.533   6.762   2.148 -0.1150  0.4433 -0.2623
 3505SOL    HW210906   5.429   6.718   2.047  0.2799 -0.9549 -0.0824
 3506SOL     OW10907   3.813   5.536   0.281  0.7775 -0.1946 -0.0153
 3506SOL    HW110908   3.819   5.599   0.208  0.6088  0.0866  0.2103
 3506SOL    HW210909   3.727   5.495   0.269 -0.1836  1.3354  1.1993
 3507SOL     OW10910   3.805   3.957   5.484 -0.4358  0.0104 -0.4517
 3507SOL    HW110911   3.815   3.982   5.576 -1.7506 -2.2964  0.4248
 3507SOL    HW210912   3.723   3.998   5.456 -0.1572  0.5179 -0.5355
 3508SOL     OW10913   2.353   0.506   3.538  0.4450  0.2031  0.4444
 3508SOL    HW110914   2.376   0.598   3.544  0.3350  0.3389 -1.0464
 3508SOL    HW210915   2.292   0.500   3.465 -1.0394 -0.7905  1.6951
 3509SOL     OW10916   3.549   4.105   3.238 -0.0478 -0.0716 -0.5862
 3509SOL    HW110917   3.480   4.118   3.302  1.1641 -1.1588  1.0247
 3509SOL    HW210918   3.630   4.120   3.286  0.9984 -2.8926 -1.2500
 3510SOL     OW10919   5.023   5.272   2.778 -0.8307 -0.2216  0.4855
 3510SOL    HW110920   5.032   5.367   2.788 -1.1125 -0.1563  0.1622
 3510SOL    HW210921   4.961   5.262   2.705  0.7205 -0.6580 -0.8427
 3511SOL     OW10922   3.081   5.054   0.829 -0.4324  0.3990  0.0238
 3511SOL    HW110923   3.112   5.128   0.881 -2.3928  0.0928  1.7666
 3511SOL    HW210924   3.014   5.091   0.772 -1.7232 -0.0497  1.2019
 3512SOL     OW10925   5.298   6.563   3.608 -0.3414 -0.5952 -0.7784
 3512SOL    HW110926   5.390   6.558   3.633 -0.8305 -1.8752  0.9639
 3512SOL    HW210927   5.268   6.472   3.607 -1.8057 -0.1445 -0.4137
 3513SOL     OW10928   5.416   0.811   2.433 -0.2056 -0.1506  0.2389
 3513SOL    HW110929   5.505   0.798   2.399 -0.1489  0.1767  0.2578
 3513SOL    HW210930   5.360   0.790   2.359 -0.1201 -0.5492  0.2846
 3514SOL     OW10931   4.300   5.965   6.137  0.2487 -0.3061 -0.2708
 3514SOL    HW110932   4.379   6.004   6.176 -0.7076  0.0784  1.3971
 3514SOL    HW210933   4.233   6.032   6.149 -0.7702 -1.3697  0.1011
 3515SOL     OW10934   6.419   2.368   4.797  0.6509  0.0969 -0.0504
 3515SOL    HW110935   6.495   2.423   4.778  0.4456  0.2520 -0.4284
 3515SOL    HW210936   6.344   2.424   4.780  0.4427 -0.1848 -0.0706
 3516SOL     OW10937   6.757   1.585   3.793 -0.2176  0.3757  0.0266
 3516SOL    HW110938   6.708   1.510   3.825 -0.1942 -0.2301 -1.2912
 3516SOL    HW210939   6.737   1.655   3.855 -1.1559 -0.4012  0.6308
 3517SOL     OW10940   1.291   4.010   5.799  0.1844  0.5023 -0.0765
 3517SOL    HW110941   1.275   4.104   5.805  1.0989  0.6169  0.8211
 3517SOL    HW210942   1.330   3.998   5.713  1.1688  1.1206  0.2731
 3518SOL     OW10943   3.913   3.010   0.796 -0.2422  0.4785  0.4383
 3518SOL    HW110944   3.968   3.070   0.847 -0.7661  0.8797  0.5482
 3518SOL    HW210945   3.824   3.031   0.824 -0.3850 -1.1489  1.3195
 3519SOL     OW10946   5.439   1.056   2.556 -0.0636  0.4814 -0.1063
 3519SOL    HW110947   5.532   1.073   2.572  0.1363  0.2519 -0.9871
 3519SOL    HW210948   5.437   0.972   2.509 -0.6880  0.6620 -0.4216
 3520SOL     OW10949   5.705   1.553   1.369  0.4007 -0.1797 -0.1790
 3520SOL    HW110950   5.745   1.548   1.456  0.5151  2.5827 -0.0027
 3520SOL    HW210951   5.746   1.482   1.320 -0.6436 -2.7529  2.3235
 3521SOL     OW10952   5.121   4.520   2.570  0.1721 -0.1649  0.6515
 3521SOL    HW110953   5.120   4.502   2.476  1.3419 -2.2383  0.9752
 3521SOL    HW210954   5.103   4.614   2.577  0.7748  0.1779 -1.6772
 3522SOL     OW10955   0.847   5.870   4.020  0.4076 -0.5953  0.2825
 3522SOL    HW110956   0.785   5.807   4.057  0.4435 -1.2657 -0.7551
 3522SOL    HW210957   0.812   5.889   3.933  1.3869 -0.5867 -0.1150
 3523SOL     OW10958   4.569   5.728   4.532 -0.5477  0.4688  0.2463
 3523SOL    HW110959   4.609   5.815   4.530 -2.0127  1.1660 -0.4242
 3523SOL    HW210960   4.549   5.712   4.624 -1.1001  1.2555  0.2689
 3524SOL     OW10961   2.116   5.335   6.617 -0.7042 -0.3185  0.2749
 3524SOL    HW110962   2.203   5.331   6.576 -1.4130 -1.6791 -1.1994
 3524SOL    HW210963   2.074   5.254   6.590 -1.7459 -0.6122  2.6266
 3525SOL     OW10964   4.400   1.571   0.197  0.0675  0.3889  0.2074
 3525SOL    HW110965   4.346   1.589   0.120  2.3558  0.5931 -1.4551
 3525SOL    HW210966   4.392   1.650   0.251 -0.7618  0.6657 -0.3005
 3526SOL     OW10967   1.033   3.910   4.325  0.1891 -0.5251 -0.4448
 3526SOL    HW110968   1.097   3.850   4.362  0.1971  0.0526  0.4851
 3526SOL    HW210969   0.949   3.881   4.360  0.3863  1.1297  1.5710
 3527SOL     OW10970   0.748   1.090   3.007  0.0162 -0.1255  0.6549
 3527SOL    HW110971   0.813   1.155   2.983 -0.1372  0.1641  1.0125
 3527SOL    HW210972   0.699   1.130   3.079 -1.5579  0.2995 -0.6032
 3528SOL     OW10973   2.383   0.902   3.745  0.0342 -0.1493 -0.2907
 3528SOL    HW110974   2.430   0.865   3.669  0.8713 -0.5718  0.4131
 3528SOL    HW210975   2.423   0.860   3.820 -1.1268 -0.0918  0.3770
 3529SOL     OW10976   5.284   0.710   5.422  0.3113  0.1509 -0.0496
 3529SOL    HW110977   5.326   0.794   5.441 -1.7583  1.5253 -1.2021
 3529SOL    HW210978   5.242   0.686   5.504 -1.0575  1.4838 -0.3242
 3530SOL     OW10979   6.737   2.089   0.943  0.2164  0.1709 -0.1321
 3530SOL    HW110980   6.684   2.068   0.866  0.8552  2.4195 -1.2825
 3530SOL    HW210981   6.684   2.061   1.018 -2.2535  1.4844 -1.2652
 3531SOL     OW10982   3.704   5.423   2.768  0.4384 -0.0608 -0.1092
 3531SOL    HW110983   3.780   5.470   2.733 -0.2164  1.1506  0.0709
 3531SOL    HW210984   3.735   5.385   2.850  1.4832 -1.4736 -1.0881
 3532SOL     OW10985   5.017   5.542   2.838 -0.0416 -0.6030 -0.2012
 3532SOL    HW110986   5.048   5.582   2.919 -0.4498  0.4986 -0.5816
 3532SOL    HW210987   5.086   5.562   2.774  0.1175 -1.1775 -0.2165
 3533SOL     OW10988   1.252   6.249   3.769 -0.2437  0.2309 -0.0409
 3533SOL    HW110989   1.251   6.153   3.769 -0.0303  0.2091 -1.2646
 3533SOL    HW210990   1.336   6.271   3.728 -0.9495  0.9191 -1.1621
 3534SOL     OW10991   0.052   3.476   3.198 -0.5753 -0.6785 -0.7631
 3534SOL    HW110992  -0.036   3.453   3.229 -0.3245 -2.6303 -1.3510
 3534SOL    HW210993   0.049   3.460   3.103  0.1052  0.3572 -0.9828
 3535SOL     OW10994   5.855   4.872   5.531  0.2720 -0.4064  0.0150
 3535SOL    HW110995   5.784   4.918   5.577 -0.1783 -0.5812 -0.4968
 3535SOL    HW210996   5.871   4.794   5.585  0.0683 -0.3729  0.1284
 3536SOL     OW10997   0.722   0.116   2.016  0.1263 -0.8220 -0.3962
 3536SOL    HW110998   0.728   0.059   1.939  0.3683 -1.1966 -0.1055
 3536SOL    HW210999   0.757   0.200   1.986  0.2215 -0.9664 -0.6977
 3537SOL     OW11000   3.556   6.724   2.605 -0.3131  0.3744 -0.3618
 3537SOL    HW111001   3.507   6.777   2.542 -0.3147 -0.5539 -1.1760
 3537SOL    HW211002   3.644   6.716   2.567  0.2568  1.3520  0.6865
 3538SOL     OW11003   5.758   1.322   1.223  0.4551 -0.7243 -0.1427
 3538SOL    HW111004   5.734   1.323   1.130 -1.6678  1.5158  0.3361
 3538SOL    HW211005   5.757   1.229   1.247 -0.2528 -1.2506 -2.0261
 3539SOL     OW11006   6.549   0.305   0.883 -0.5254 -0.2320  0.3177
 3539SOL    HW111007   6.574   0.217   0.856  2.1648  0.2957  0.8387
 3539SOL    HW211008   6.537   0.299   0.978  2.6975  0.4793  0.8796
 3540SOL     OW11009   5.878   1.011   6.682 -0.1669  0.0539  0.4525
 3540SOL    HW111010   5.898   1.105   6.686  2.1369 -0.2961 -0.9758
 3540SOL    HW211011   5.787   1.007   6.654  0.2843  1.9042 -1.5307
 3541SOL     OW11012   4.996   4.027   2.814  0.0706 -0.1659 -0.4246
 3541SOL    HW111013   4.987   4.091   2.885  0.8808  0.0860 -0.5336
 3541SOL    HW211014   5.089   4.026   2.795 -0.2314  0.4326 -2.0873
 3542SOL     OW11015   6.108   4.753   6.409 -0.0791  0.2790 -0.3985
 3542SOL    HW111016   6.036   4.715   6.358  0.2186  0.6575 -1.1138
 3542SOL    HW211017   6.066   4.789   6.487 -0.6550  0.3773 -0.7478
 3543SOL     OW11018   2.060   4.214   1.241  0.2152 -0.4078  0.2504
 3543SOL    HW111019   1.987   4.178   1.191  0.7665 -0.8436 -0.2545
 3543SOL    HW211020   2.126   4.145   1.240  0.7792  0.1188  0.3907
 3544SOL     OW11021   0.744   1.916   2.475  0.4116 -0.2607  0.1146
 3544SOL    HW111022   0.688   1.984   2.437  2.2227  0.7621 -0.8942
 3544SOL    HW211023   0.719   1.836   2.430  0.1603  0.2989 -0.7680
 3545SOL     OW11024   0.341   4.181   2.672  0.5837  0.4481  0.4335
 3545SOL    HW111025   0.281   4.237   2.721 -0.3437  0.2258 -0.4379
 3545SOL    HW211026   0.356   4.106   2.729  0.3877  0.7104  0.8350
 3546SOL     OW11027   1.227   1.771   1.422 -0.1032 -0.4288  0.4995
 3546SOL    HW111028   1.186   1.825   1.489  0.3465  0.3756  0.1471
 3546SOL    HW211029   1.297   1.725   1.468  0.4378  0.3935  0.5276
 3547SOL     OW11030   5.891   5.362   3.931 -0.4260 -0.4054  0.1589
 3547SOL    HW111031   5.855   5.441   3.972 -1.0854 -0.5011 -0.2127
 3547SOL    HW211032   5.953   5.395   3.866 -0.1029 -0.2204  0.5616
 3548SOL     OW11033   3.002   4.839   2.295 -0.0733 -0.1265  0.3199
 3548SOL    HW111034   2.990   4.934   2.300 -1.1436 -0.2049 -0.3288
 3548SOL    HW211035   2.925   4.808   2.246  1.4357 -1.0892 -1.5587
 3549SOL     OW11036   0.704   0.104   3.984  0.1063 -0.2128 -0.3290
 3549SOL    HW111037   0.668   0.021   3.953 -0.9274  0.6686 -1.6106
 3549SOL    HW211038   0.787   0.080   4.024 -1.5709 -2.2882  2.2909
 3550SOL     OW11039   4.806   2.427   2.339  0.2767  0.0117  0.0660
 3550SOL    HW111040   4.767   2.346   2.372 -1.9576  1.1507  0.3947
 3550SOL    HW211041   4.737   2.493   2.347  2.6514  2.5429  1.9513
 3551SOL     OW11042   1.176   1.532   0.121 -0.0627 -0.1719 -0.4035
 3551SOL    HW111043   1.183   1.436   0.121  2.0796 -0.0528  0.1610
 3551SOL    HW211044   1.084   1.549   0.101  0.0182 -2.2982 -3.2209
 3552SOL     OW11045   1.718   1.034   5.597 -0.0780  0.2772 -0.1399
 3552SOL    HW111046   1.709   0.939   5.603 -0.2447  0.3259  0.4558
 3552SOL    HW211047   1.757   1.049   5.511  2.5979 -0.5132  0.8371
 3553SOL     OW11048   0.453   4.379   3.874 -0.0111 -0.0929 -0.1889
 3553SOL    HW111049   0.532   4.434   3.875 -0.3462  0.4663  2.6401
 3553SOL    HW211050   0.486   4.290   3.862  1.0510  0.1477  0.7666
 3554SOL     OW11051   0.634   1.801   4.961  0.2342 -0.2217 -0.1005
 3554SOL    HW111052   0.625   1.802   4.866  1.4100  1.7912 -0.2616
 3554SOL    HW211053   0.547   1.823   4.993  0.0070 -0.1330 -0.7531
 3555SOL     OW11054   6.470   5.388   0.318  0.2798  0.3408 -0.1572
 3555SOL    HW111055   6.511   5.302   0.320  0.0039  0.2077 -0.0733
 3555SOL    HW211056   6.537   5.448   0.350 -0.0961 -0.0924  1.5755
 3556SOL     OW11057   4.359   0.801   5.418 -0.6583  0.0634  0.3700
 3556SOL    HW111058   4.264   0.794   5.429 -0.7658 -0.3783 -0.6951
 3556SOL    HW211059   4.371   0.834   5.329  0.1867 -1.0743  0.0296
 3557SOL     OW11060   0.608   0.723   5.936  0.2535  0.4434  0.6933
 3557SOL    HW111061   0.613   0.811   5.974  0.4214 -0.1605  2.0994
 3557SOL    HW211062   0.621   0.738   5.842  0.4753  1.8976  0.9224
 3558SOL     OW11063   0.650   1.402   1.766  0.2586  0.0933  0.3748
 3558SOL    HW111064   0.655   1.347   1.688  1.0250 -0.1928  0.6133
 3558SOL    HW211065   0.591   1.473   1.741  0.2455 -0.1626 -0.3613
 3559SOL     OW11066   5.101   6.496   3.857 -0.3812 -0.0819  0.2063
 3559SOL    HW111067   5.177   6.548   3.832 -0.0855 -0.4859  0.2545
 3559SOL    HW211068   5.090   6.433   3.786 -0.7800  0.0868  0.1153
 3560SOL     OW11069   3.892   3.453   2.137 -0.0670 -0.0310  0.3718
 3560SOL    HW111070   3.944   3.374   2.157 -0.4101 -0.1909  0.6489
 3560SOL    HW211071   3.809   3.438   2.182  0.2331  0.9522  1.3003
 3561SOL     OW11072   1.870   0.088   0.135  0.2327  0.1940  0.1199
 3561SOL    HW111073   1.920   0.016   0.174 -0.0860 -0.5657 -0.8221
 3561SOL    HW211074   1.802   0.044   0.084  0.2805  1.1520 -0.8082
 3562SOL     OW11075   5.608   4.060   2.345  0.3866 -0.1891 -0.0710
 3562SOL    HW111076   5.596   3.990   2.280 -0.3972  0.2859 -0.4556
 3562SOL    HW211077   5.697   4.092   2.329  0.8249 -1.2082  0.2313
 3563SOL     OW11078   6.708   2.466   5.809 -1.0900 -0.1572 -0.1439
 3563SOL    HW111079   6.784   2.442   5.863 -1.8912 -0.9445  0.6695
 3563SOL    HW211080   6.659   2.384   5.800 -1.8458  0.3459 -0.6627
 3564SOL     OW11081   1.732   6.586   1.794  0.7972  0.4119  0.6608
 3564SOL    HW111082   1.692   6.656   1.742 -0.3973  0.9767  2.2633
 3564SOL    HW211083   1.697   6.506   1.756  2.5459  0.5921 -1.5028
 3565SOL     OW11084   2.421   5.156   4.709 -0.0824  0.5298 -0.4457
 3565SOL    HW111085   2.455   5.134   4.622  0.6599  1.9086 -0.5334
 3565SOL    HW211086   2.337   5.111   4.714  0.6270 -0.9578 -1.2014
 3566SOL     OW11087   5.906   6.712   3.116 -0.9284 -0.5099 -0.0827
 3566SOL    HW111088   5.943   6.653   3.182  0.3791 -0.0446 -0.3725
 3566SOL    HW211089   5.850   6.771   3.167  0.4590  0.1663  0.7182
 3567SOL     OW11090   4.630   3.842   5.163 -0.8774 -0.5883  0.0251
 3567SOL    HW111091   4.545   3.829   5.206 -1.6796 -1.3840 -1.6910
 3567SOL    HW211092   4.665   3.754   5.153 -0.5521 -0.3835 -0.6497
 3568SOL     OW11093   3.742   5.316   3.032  0.2261 -0.0329  0.0736
 3568SOL    HW111094   3.827   5.284   3.062  0.5137  0.1559 -0.5176
 3568SOL    HW211095   3.681   5.245   3.051  0.2837  0.3056  1.6262
 3569SOL     OW11096   5.636   4.229   4.566  0.4229  0.1055  0.0089
 3569SOL    HW111097   5.605   4.247   4.655 -0.3482 -3.9310  0.7690
 3569SOL    HW211098   5.713   4.285   4.556  0.8197  0.4052  3.4000
 3570SOL     OW11099   4.470   1.377   6.698  0.1691  0.8069 -0.2060
 3570SOL    HW111100   4.383   1.362   6.735 -0.1965  1.0202 -0.9691
 3570SOL    HW211101   4.461   1.456   6.645  0.4684  0.0842 -1.3843
 3571SOL     OW11102   6.374   3.397   1.520 -0.0308  0.0232 -0.5682
 3571SOL    HW111103   6.467   3.392   1.500 -0.2550  1.7851 -2.3935
 3571SOL    HW211104   6.340   3.310   1.502  1.3401 -0.8529  0.8117
 3572SOL     OW11105   6.718   1.863   4.776  0.0076 -0.0891 -0.4957
 3572SOL    HW111106   6.734   1.945   4.730 -2.1544 -0.0756 -1.3280
 3572SOL    HW211107   6.700   1.890   4.867  0.2928  0.2473 -0.5343
 3573SOL     OW11108   2.267   6.043   5.795  0.3511 -0.2860 -0.2641
 3573SOL    HW111109   2.308   6.055   5.709  0.8751 -0.3525 -0.0324
 3573SOL    HW211110   2.341   6.037   5.856 -0.0210  0.9840  0.3617
 3574SOL     OW11111   2.199   4.924   1.433 -0.2498 -0.6847 -0.4650
 3574SOL    HW111112   2.240   5.011   1.434 -2.0652  0.2381  2.0171
 3574SOL    HW211113   2.271   4.864   1.453  0.4488  0.5873  1.0431
 3575SOL     OW11114   0.551   1.550   1.114 -0.2850  0.0288 -0.8862
 3575SOL    HW111115   0.600   1.620   1.070  2.1567 -1.6769 -1.0956
 3575SOL    HW211116   0.470   1.542   1.064  0.3527  1.2682 -2.1869
 3576SOL     OW11117   4.317   0.172   3.562  0.4612 -0.2853  0.1786
 3576SOL    HW111118   4.380   0.101   3.565  2.1282  1.1575  1.2505
 3576SOL    HW211119   4.358   0.243   3.612 -1.6155  1.0389  0.1305
 3577SOL     OW11120   3.182   0.534   3.548 -0.2860  0.2064 -0.2596
 3577SOL    HW111121   3.159   0.460   3.492  0.2044  0.4174 -0.7573
 3577SOL    HW211122   3.269   0.560   3.518 -0.0375  0.3614  0.5737
 3578SOL     OW11123   6.374   0.528   3.338  0.2886 -0.0186 -0.4421
 3578SOL    HW111124   6.387   0.531   3.243 -1.1804 -1.4148 -0.7303
 3578SOL    HW211125   6.330   0.610   3.359 -0.4013 -0.1950 -1.1607
 3579SOL     OW11126   6.305   1.633   2.581 -0.1469 -0.1628  0.1925
 3579SOL    HW111127   6.375   1.572   2.559 -0.6541 -1.1890  1.3578
 3579SOL    HW211128   6.242   1.626   2.509  0.7636  0.5311 -0.6981
 3580SOL     OW11129   2.388   3.868   2.303 -0.2939  0.4152  0.2984
 3580SOL    HW111130   2.356   3.788   2.262  1.2494  0.2401 -0.6705
 3580SOL    HW211131   2.310   3.921   2.317 -1.1014 -0.3106 -1.1654
 3581SOL     OW11132   1.207   3.452   2.387  0.2858  0.0243  0.0117
 3581SOL    HW111133   1.194   3.544   2.413  3.4492  0.4851  0.4526
 3581SOL    HW211134   1.123   3.410   2.404 -1.2159  2.7828 -0.0085
 3582SOL     OW11135   4.753   1.861   3.894  0.0359  0.4556 -0.4558
 3582SOL    HW111136   4.745   1.795   3.826  0.5584  0.2274 -0.2951
 3582SOL    HW211137   4.665   1.898   3.901 -0.9110 -1.8233  1.0551
 3583SOL     OW11138   1.981   4.236   1.731 -0.2202 -0.0016  0.0827
 3583SOL    HW111139   1.986   4.204   1.641  0.5126 -1.0950  0.5002
 3583SOL    HW211140   1.888   4.250   1.747 -0.2643  1.8871 -1.4032
 3584SOL     OW11141   5.364   0.366   6.533 -0.0016 -0.3776 -0.6884
 3584SOL    HW111142   5.291   0.323   6.488  0.0828  0.6274 -1.8405
 3584SOL    HW211143   5.442   0.330   6.491  0.1548 -0.9225  0.0547
 3585SOL     OW11144   6.236   3.053   1.997 -0.1931 -0.1648 -0.7717
 3585SOL    HW111145   6.249   3.056   1.902  0.0912  0.3233 -0.7219
 3585SOL    HW211146   6.155   3.003   2.008  2.0174 -4.1368 -1.0171
 3586SOL     OW11147   3.555   1.591   1.198 -0.4405  0.1279  0.3265
 3586SOL    HW111148   3.541   1.624   1.287  1.4590  0.8082  0.4224
 3586SOL    HW211149   3.497   1.644   1.143  0.6722  1.9267  0.8081
 3587SOL     OW11150   1.655   1.184   6.081 -0.2712 -0.4043 -0.0301
 3587SOL    HW111151   1.680   1.168   6.173 -0.4880  1.0589  0.3053
 3587SOL    HW211152   1.683   1.105   6.035  1.4780 -0.4466  0.9987
 3588SOL     OW11153   2.909   1.546   2.438  0.2799  0.2116  0.1256
 3588SOL    HW111154   2.988   1.591   2.411 -0.8799  1.5188 -1.2418
 3588SOL    HW211155   2.935   1.496   2.515  2.4180  0.5826 -0.3021
 3589SOL     OW11156   1.517   6.504   5.668  0.1594  0.3529  0.4039
 3589SOL    HW111157   1.578   6.560   5.620 -0.0226 -0.3334 -0.6455
 3589SOL    HW211158   1.567   6.473   5.744  0.3318  1.7321  0.8784
 3590SOL     OW11159   3.954   4.500   5.422 -0.0154 -0.7595  0.1975
 3590SOL    HW111160   3.888   4.436   5.450 -0.8644  0.2711  0.5914
 3590SOL    HW211161   3.946   4.503   5.326 -2.1904  1.0460  0.3714
 3591SOL     OW11162   3.670   2.049   4.219 -0.4372 -0.6036 -0.0911
 3591SOL    HW111163   3.576   2.060   4.201 -0.9441 -1.0752  2.0210
 3591SOL    HW211164   3.697   2.133   4.256  0.2505 -0.1135 -1.6403
 3592SOL     OW11165   4.697   3.597   6.821  0.1593 -0.1008 -0.5833
 3592SOL    HW111166   4.635   3.568   6.888  0.3913  1.4094  0.3355
 3592SOL    HW211167   4.764   3.645   6.869 -0.6130  2.6479 -2.0026
 3593SOL     OW11168   5.362   4.876   6.602 -0.1506  0.5304 -0.1233
 3593SOL    HW111169   5.287   4.818   6.617  1.3007 -1.1362  1.1635
 3593SOL    HW211170   5.355   4.901   6.510 -1.2832 -1.0580 -0.5093
 3594SOL     OW11171   3.883   1.135   2.205 -0.0214 -0.1299 -0.4913
 3594SOL    HW111172   3.824   1.201   2.170 -0.8771 -1.0181 -0.7749
 3594SOL    HW211173   3.825   1.074   2.252  0.6854 -0.9094 -0.6072
 3595SOL     OW11174   1.549   4.103   3.959  0.0063  0.8639 -0.5485
 3595SOL    HW111175   1.558   4.077   3.868 -0.1086  0.2239 -0.3872
 3595SOL    HW211176   1.474   4.053   3.991 -0.3076  1.5152 -0.2558
 3596SOL     OW11177   0.124   3.710   1.391 -0.0315 -0.2638  0.2945
 3596SOL    HW111178   0.128   3.664   1.475  2.4879  0.6995  0.7917
 3596SOL    HW211179   0.141   3.802   1.413 -1.1726  0.3256 -1.1016
 3597SOL     OW11180   1.540   5.806   6.615  0.0248  0.6495  0.4013
 3597SOL    HW111181   1.569   5.890   6.578  1.3495 -0.0358 -0.1806
 3597SOL    HW211182   1.575   5.806   6.704  0.9908  0.2549  0.0326
 3598SOL     OW11183   1.780   3.233   1.854  0.2137  0.1953  0.2928
 3598SOL    HW111184   1.729   3.311   1.834  2.2513  1.6355  0.4722
 3598SOL    HW211185   1.725   3.184   1.916 -0.8601  1.7661  0.6393
 3599SOL     OW11186   1.765   1.105   4.253 -0.4073 -0.0455  0.6381
 3599SOL    HW111187   1.733   1.102   4.163 -0.2492  0.2946  0.5710
 3599SOL    HW211188   1.774   1.198   4.273  3.2828 -0.0442 -0.3296
 3600SOL     OW11189   0.022   2.952   4.583  0.1680 -0.3355 -0.3432
 3600SOL    HW111190   0.097   2.998   4.623 -1.0049  1.9700 -0.6263
 3600SOL    HW211191   0.060   2.903   4.511  1.4285  0.9074 -0.5767
 3601SOL     OW11192   1.722   5.384   0.859 -0.0364  0.2448 -0.0093
 3601SOL    HW111193   1.630   5.363   0.851 -0.0017 -0.1789  0.7198
 3601SOL    HW211194   1.746   5.359   0.948  0.7817  0.3499 -0.1896
 3602SOL     OW11195   5.821   1.564   6.822 -0.0785 -0.0126 -0.5303
 3602SOL    HW111196   5.837   1.571   6.728 -1.0408 -0.9416 -0.7839
 3602SOL    HW211197   5.908   1.557   6.861  0.5270  3.1405 -1.0534
 3603SOL     OW11198   4.904   6.578   4.353 -0.0768  0.4772 -0.2143
 3603SOL    HW111199   4.943   6.506   4.304 -2.0609 -0.8098 -0.0429
 3603SOL    HW211200   4.859   6.631   4.287  0.8677  1.2465 -0.2634
 3604SOL     OW11201   6.332   3.944   5.147  0.1471 -0.0771  0.6221
 3604SOL    HW111202   6.276   3.867   5.141 -0.8974  0.7453 -0.7180
 3604SOL    HW211203   6.330   3.968   5.239 -0.6118 -0.8441  0.8171
 3605SOL     OW11204   1.160   6.309   5.778  0.3179 -0.1912  0.2097
 3605SOL    HW111205   1.111   6.227   5.768  1.5457 -0.9687  0.2626
 3605SOL    HW211206   1.205   6.320   5.694  0.7202  0.0344  0.4508
 3606SOL     OW11207   0.372   6.792   4.805  0.5290 -0.5239 -0.0073
 3606SOL    HW111208   0.415   6.802   4.720  1.9395 -1.7418  0.5211
 3606SOL    HW211209   0.332   6.705   4.801  0.0175 -0.3048  0.3212
 3607SOL     OW11210   3.438   3.456   6.639 -0.4758 -0.3642  0.3635
 3607SOL    HW111211   3.524   3.419   6.619 -0.3502 -0.2859  0.7464
 3607SOL    HW211212   3.376   3.386   6.619 -0.2583 -0.6907  0.8375
 3608SOL     OW11213   6.834   2.944   6.720  0.2180  0.5412  0.1867
 3608SOL    HW111214   6.742   2.951   6.695 -0.1497  3.0105  1.9101
 3608SOL    HW211215   6.852   2.850   6.719 -2.3515 -0.0104 -0.0468
 3609SOL     OW11216   1.407   5.454   4.648  0.5953  0.3073 -0.4042
 3609SOL    HW111217   1.331   5.486   4.696  0.5074 -0.7104  0.1737
 3609SOL    HW211218   1.387   5.473   4.556  0.5450  1.8353 -0.1063
 3610SOL     OW11219   6.370   0.929   5.665  0.4364 -0.3925  0.2012
 3610SOL    HW111220   6.288   0.930   5.714  0.3020  0.2372 -0.0261
 3610SOL    HW211221   6.430   0.876   5.718  0.2363  0.1282  0.9490
 3611SOL     OW11222   4.759   5.129   0.577  0.5156 -0.3925  0.8382
 3611SOL    HW111223   4.749   5.214   0.619 -0.9198 -0.8387  1.4527
 3611SOL    HW211224   4.712   5.138   0.494  2.0854  0.0183 -0.0528
 3612SOL     OW11225   3.757   1.936   0.556  0.4821 -0.2406  0.5295
 3612SOL    HW111226   3.691   1.867   0.565  0.3922 -0.1551  0.5284
 3612SOL    HW211227   3.707   2.015   0.539  0.5928 -0.1969  0.4057
 3613SOL     OW11228   0.761   0.521   4.866 -0.0260  0.1467  0.6926
 3613SOL    HW111229   0.717   0.436   4.872 -0.4168  0.0152 -2.2314
 3613SOL    HW211230   0.691   0.584   4.852  0.1960  1.1741  3.5367
 3614SOL     OW11231   0.847   0.060   6.429  0.3213  0.2811 -0.1964
 3614SOL    HW111232   0.779  -0.008   6.426  2.2955 -1.8988  0.8799
 3614SOL    HW211233   0.863   0.081   6.337  0.0480 -1.1745 -0.6159
 3615SOL     OW11234   5.220   4.400   3.694 -0.0229  0.0427 -0.6290
 3615SOL    HW111235   5.148   4.403   3.630  1.3195  1.9221 -2.2007
 3615SOL    HW211236   5.232   4.307   3.712 -3.4130 -0.3355  0.4470
 3616SOL     OW11237   6.676   2.459   5.197  0.6318 -0.2107 -0.0939
 3616SOL    HW111238   6.703   2.504   5.277 -0.1268 -0.2985  0.2203
 3616SOL    HW211239   6.679   2.526   5.129 -2.2177  0.8792  0.6860
 3617SOL     OW11240   0.834   6.792   1.757  0.3553 -0.1135  0.3029
 3617SOL    HW111241   0.918   6.833   1.739 -0.4018  1.3723 -0.0412
 3617SOL    HW211242   0.852   6.698   1.754  2.0001  0.1685  0.3249
 3618SOL     OW11243   4.988   2.333   6.007 -0.0642 -0.0616 -0.3185
 3618SOL    HW111244   5.074   2.328   5.964  0.8700  0.1153  1.4594
 3618SOL    HW211245   4.986   2.259   6.067 -0.6783  0.5822  0.4839
 3619SOL     OW11246   4.725   5.438   1.023 -0.2468  0.0451  0.2443
 3619SOL    HW111247   4.813   5.422   1.058 -0.0466  0.0163 -0.2751
 3619SOL    HW211248   4.721   5.533   1.010 -0.0934 -0.0175 -0.2633
 3620SOL     OW11249   5.875   5.457   1.256 -0.3076  0.0362 -0.1401
 3620SOL    HW111250   5.793   5.479   1.212 -2.4926 -3.8959  1.5276
 3620SOL    HW211251   5.869   5.500   1.341 -0.1208  0.5960 -0.4054
 3621SOL     OW11252   3.221   0.724   4.731  0.0299  0.6257  0.2043
 3621SOL    HW111253   3.265   0.745   4.649 -0.6148  1.1809 -0.0032
 3621SOL    HW211254   3.200   0.631   4.724  0.7420  0.4616  0.1163
 3622SOL     OW11255   5.639   0.527   4.314 -0.6899 -0.1511  0.4071
 3622SOL    HW111256   5.677   0.609   4.346  1.5530 -0.5378 -1.1257
 3622SOL    HW211257   5.707   0.462   4.328 -1.2960 -1.1664 -1.1957
 3623SOL     OW11258   4.936   2.388   5.267  0.3991 -0.0228 -0.1273
 3623SOL    HW111259   5.021   2.369   5.228 -1.1170 -3.3916 -2.2923
 3623SOL    HW211260   4.933   2.333   5.346  0.7127  1.2008  0.7636
 3624SOL     OW11261   3.457   1.336   0.798 -0.3998  0.0231  0.7447
 3624SOL    HW111262   3.547   1.307   0.789 -0.6632 -0.3132 -1.2831
 3624SOL    HW211263   3.447   1.406   0.733 -1.3204  0.8345  1.7011
 3625SOL     OW11264   2.438   3.371   4.064  0.1816 -0.0024 -0.4921
 3625SOL    HW111265   2.480   3.293   4.029  2.1689  0.1370  1.3515
 3625SOL    HW211266   2.402   3.416   3.987 -3.4447 -3.9049 -1.4270
 3626SOL     OW11267   0.840   2.830   3.669 -0.0994 -0.4662  0.1647
 3626SOL    HW111268   0.854   2.901   3.606  0.1452 -1.0305 -0.4328
 3626SOL    HW211269   0.776   2.772   3.626 -0.2681 -0.6266  0.6276
 3627SOL     OW11270   4.955   0.133   4.768  0.0709  0.2361  0.0683
 3627SOL    HW111271   5.040   0.090   4.760  0.4100  0.5555  1.6286
 3627SOL    HW211272   4.902   0.073   4.820 -0.5792  0.1733 -0.6473
 3628SOL     OW11273   0.771   2.445   4.671  0.2089  1.1145 -0.5894
 3628SOL    HW111274   0.812   2.419   4.588 -0.4248  2.2765 -1.2965
 3628SOL    HW211275   0.838   2.496   4.715  2.1443 -2.9022  1.6331
 3629SOL     OW11276   5.160   4.500   4.706 -0.0278  0.1333  0.0668
 3629SOL    HW111277   5.132   4.507   4.615 -1.1358 -1.1633  0.2827
 3629SOL    HW211278   5.237   4.443   4.704 -0.5031 -0.5165  0.0080
 3630SOL     OW11279   5.108   1.915   1.451 -0.3570  0.0505  0.4609
 3630SOL    HW111280   5.166   1.852   1.493  0.1497 -0.7459 -1.3207
 3630SOL    HW211281   5.159   1.996   1.447 -0.2351 -0.0020  0.9137
 3631SOL     OW11282   2.628   0.565   5.144 -0.7968 -0.2834 -0.1090
 3631SOL    HW111283   2.621   0.614   5.062 -0.0192 -1.2579 -0.7765
 3631SOL    HW211284   2.719   0.577   5.172 -0.2666 -2.1982 -0.8611
 3632SOL     OW11285   4.158   5.607   2.573  0.0360  0.1073  0.2610
 3632SOL    HW111286   4.195   5.581   2.488  0.3192 -0.0863  0.4412
 3632SOL    HW211287   4.200   5.691   2.592  1.4143 -0.7388  1.0919
 3633SOL     OW11288   4.006   4.312   4.273  0.1951 -0.1089  0.1713
 3633SOL    HW111289   4.077   4.374   4.292  0.0890  0.3552 -0.8918
 3633SOL    HW211290   4.029   4.234   4.323  0.8847  0.4171  0.7065
 3634SOL     OW11291   6.283   2.999   3.071  0.2246 -0.5485 -0.2043
 3634SOL    HW111292   6.258   2.950   2.992  0.2256  0.0705 -0.5889
 3634SOL    HW211293   6.369   2.963   3.094 -0.2597 -1.5076  0.1605
 3635SOL     OW11294   3.934   1.807   2.242 -0.1012  0.2714  0.2742
 3635SOL    HW111295   3.966   1.717   2.245 -0.6585  0.0856  2.7305
 3635SOL    HW211296   3.983   1.853   2.310 -0.0470  1.7812 -0.7174
 3636SOL     OW11297   6.401   6.358   3.393 -0.5320 -0.4647 -0.7001
 3636SOL    HW111298   6.429   6.404   3.472 -1.9844  1.3519 -1.1708
 3636SOL    HW211299   6.480   6.351   3.340  0.0875 -0.1099  0.1590
 3637SOL     OW11300   0.519   5.285   6.555  0.6338  0.5610 -0.0351
 3637SOL    HW111301   0.479   5.274   6.641 -1.0991  1.1318 -0.7235
 3637SOL    HW211302   0.568   5.367   6.561  1.1382  0.2157  0.6162
 3638SOL     OW11303   1.568   4.003   6.558  0.3627 -0.1496  0.0959
 3638SOL    HW111304   1.529   4.055   6.488 -1.7515 -0.9152  0.6238
 3638SOL    HW211305   1.576   3.915   6.522  1.7913  0.0065 -0.0354
 3639SOL     OW11306   1.609   5.307   5.985 -0.1514  0.5171  0.2374
 3639SOL    HW111307   1.546   5.379   5.972  0.7802  1.6330  1.5744
 3639SOL    HW211308   1.680   5.327   5.924 -0.9697 -0.6478 -1.1465
 3640SOL     OW11309   1.175   0.002   3.649 -0.1307  0.0901 -1.2853
 3640SOL    HW111310   1.156   0.065   3.580 -1.1439  1.1849 -0.0498
 3640SOL    HW211311   1.139  -0.081   3.617 -0.9398  0.6686 -1.9027
 3641SOL     OW11312   0.233   0.857   6.829 -0.1936  0.1405 -0.2889
 3641SOL    HW111313   0.276   0.927   6.879 -2.4496 -0.1236  2.2729
 3641SOL    HW211314   0.290   0.781   6.841  0.1792  0.5206  0.4623
 3642SOL     OW11315   4.138   2.286   6.588  0.3617  0.2136 -0.5033
 3642SOL    HW111316   4.114   2.309   6.498 -1.5196  0.3408 -0.0230
 3642SOL    HW211317   4.227   2.319   6.599  0.6967  0.0062 -2.3783
 3643SOL     OW11318   0.051   0.098   0.188 -0.1325  0.3896  0.3831
 3643SOL    HW111319   0.036   0.147   0.107 -1.2810  1.5789  1.2686
 3643SOL    HW211320   0.010   0.013   0.172  0.0748  0.4324 -0.4455
 3644SOL     OW11321   1.705   1.591   3.167 -0.6438  0.5511 -0.9633
 3644SOL    HW111322   1.715   1.580   3.261 -0.6789  1.5065 -0.8349
 3644SOL    HW211323   1.794   1.598   3.134 -0.6326  0.2465 -1.0027
 3645SOL     OW11324   2.245   0.332   6.781  0.1809  0.2889 -0.7209
 3645SOL    HW111325   2.308   0.285   6.836  1.4165  0.2017 -2.1278
 3645SOL    HW211326   2.222   0.269   6.712 -3.9127 -0.8351  1.3424
 3646SOL     OW11327   0.637   2.099   6.010 -0.4532 -0.3269 -0.1114
 3646SOL    HW111328   0.551   2.132   6.037 -0.0539  2.3207 -1.7101
 3646SOL    HW211329   0.649   2.019   6.060 -3.6700 -0.5730  0.4755
 3647SOL     OW11330   1.074   3.053   4.430 -0.0965  0.1216 -0.1038
 3647SOL    HW111331   0.990   3.013   4.451 -0.5217  1.5515  1.0837
 3647SOL    HW211332   1.112   3.075   4.515  0.8894  0.6580 -0.6679
 3648SOL     OW11333   1.166   0.709   2.157 -0.5309 -0.7874 -0.2974
 3648SOL    HW111334   1.122   0.651   2.219 -1.9588  0.9146  0.3790
 3648SOL    HW211335   1.206   0.650   2.093 -2.4925 -2.4881 -0.0526
 3649SOL     OW11336   2.363   1.117   5.822  0.2116  0.1017  0.7748
 3649SOL    HW111337   2.393   1.204   5.847 -1.1943  0.5081  1.1777
 3649SOL    HW211338   2.316   1.131   5.739 -2.1059  0.2167  2.0097
 3650SOL     OW11339   3.073   4.959   6.269  0.0759 -0.2348  0.2405
 3650SOL    HW111340   3.077   4.908   6.350  0.3213 -1.2687 -0.3966
 3650SOL    HW211341   3.149   5.017   6.273 -1.0828  1.2990  1.7217
 3651SOL     OW11342   3.657   6.010   3.819 -0.1016  0.0204  0.0526
 3651SOL    HW111343   3.743   6.053   3.816 -0.3051  0.4198 -0.1456
 3651SOL    HW211344   3.638   5.988   3.728 -1.5466  2.6488 -0.3767
 3652SOL     OW11345   2.700   6.770   5.376 -0.0213 -0.0409  0.2649
 3652SOL    HW111346   2.770   6.834   5.374  0.7730 -0.9041 -1.3597
 3652SOL    HW211347   2.744   6.686   5.392 -0.9627 -0.3001  1.7014
 3653SOL     OW11348   0.752   2.537   0.253 -0.2690  0.6051  0.1976
 3653SOL    HW111349   0.802   2.485   0.315 -1.9044  1.4198  2.3026
 3653SOL    HW211350   0.784   2.627   0.265  0.6854  0.5446 -1.5271
 3654SOL     OW11351   4.910   2.297   5.561 -0.1660 -0.4628  0.2505
 3654SOL    HW111352   4.861   2.330   5.636 -0.9760 -1.9194  0.4054
 3654SOL    HW211353   4.862   2.220   5.533  0.1671  0.0112 -1.7565
 3655SOL     OW11354   4.682   4.489   0.283  0.2208 -0.0117 -1.1720
 3655SOL    HW111355   4.746   4.427   0.319 -0.4646  0.4318  0.9740
 3655SOL    HW211356   4.637   4.440   0.215  1.6352 -0.9082 -1.5198
 3656SOL     OW11357   3.252   4.697   4.590  0.2186 -0.2857 -0.2096
 3656SOL    HW111358   3.322   4.733   4.535  0.1643  0.1037 -0.0245
 3656SOL    HW211359   3.257   4.602   4.575  0.1356 -0.1796 -0.9743
 3657SOL     OW11360   5.539   0.536   2.831 -0.4480 -0.1383  0.0871
 3657SOL    HW111361   5.598   0.550   2.757  1.9565 -1.3882  1.6260
 3657SOL    HW211362   5.538   0.441   2.843 -0.8157  0.0356  1.6239
 3658SOL     OW11363   0.819   5.978   5.072  0.3846 -0.3258 -0.4834
 3658SOL    HW111364   0.870   6.058   5.075 -0.6296  0.3211  1.8135
 3658SOL    HW211365   0.732   6.003   5.104 -0.3395 -2.0897 -0.9165
 3659SOL     OW11366   3.203   1.130   2.531 -0.1135  0.4800  0.2107
 3659SOL    HW111367   3.166   1.083   2.605 -3.6141  0.0145 -1.6061
 3659SOL    HW211368   3.254   1.200   2.570 -1.4798  0.0418  3.0656
 3660SOL     OW11369   6.790   4.997   6.812 -0.6975 -0.1079 -0.3559
 3660SOL    HW111370   6.877   5.012   6.774 -0.5931  0.4240  0.0865
 3660SOL    HW211371   6.807   4.970   6.902 -1.0201  1.9795  0.3922
 3661SOL     OW11372   1.947   0.238   6.748 -0.0965 -0.3572 -0.7238
 3661SOL    HW111373   1.934   0.186   6.827  0.0890  1.6846  0.7261
 3661SOL    HW211374   1.897   0.193   6.681 -1.4339 -1.3937  0.8950
 3662SOL     OW11375   5.201   6.009   5.090 -0.3223 -0.9420 -0.1941
 3662SOL    HW111376   5.124   5.957   5.068 -0.7985 -1.7280  2.9461
 3662SOL    HW211377   5.232   5.974   5.173  1.1127  1.8500  0.5965
 3663SOL     OW11378   1.099   4.249   3.298  0.3395 -0.4008 -0.1457
 3663SOL    HW111379   1.122   4.300   3.376 -2.1056  0.6504 -0.0211
 3663SOL    HW211380   1.168   4.269   3.235  1.3893  0.1513  1.1313
 3664SOL     OW11381   1.452   2.307   5.737  0.4431 -0.0824 -0.1396
 3664SOL    HW111382   1.470   2.218   5.767 -0.0487  0.1113  0.7932
 3664SOL    HW211383   1.528   2.357   5.765  0.4285 -0.0922 -0.0807
 3665SOL     OW11384   3.468   2.800   2.968  0.6911  0.2245 -0.1835
 3665SOL    HW111385   3.464   2.802   2.873  1.3561 -1.3366 -0.2697
 3665SOL    HW211386   3.388   2.846   2.996  0.1635  0.1431 -1.4860
 3666SOL     OW11387   0.043   4.618   2.459  0.3662  0.5563 -0.4099
 3666SOL    HW111388   0.022   4.639   2.550  0.4920  0.7633 -0.4293
 3666SOL    HW211389  -0.040   4.588   2.422  0.1222  1.2644 -0.4545
 3667SOL     OW11390   0.849   4.310   4.596 -0.1461 -0.0288  0.3380
 3667SOL    HW111391   0.883   4.316   4.685 -0.3343  0.2164  0.3957
 3667SOL    HW211392   0.853   4.217   4.575  0.5455 -0.0030  0.3438
 3668SOL     OW11393   3.928   1.117   0.976  0.5686 -0.1786  0.0089
 3668SOL    HW111394   3.907   1.210   0.981  1.3548  0.0006  0.1384
 3668SOL    HW211395   4.008   1.113   0.924  0.5645 -0.7857  0.0343
 3669SOL     OW11396   0.501   6.313   5.503  0.6440 -0.4955 -0.0752
 3669SOL    HW111397   0.501   6.401   5.541  2.0694  0.7663 -2.7236
 3669SOL    HW211398   0.571   6.267   5.550  0.2036 -0.0927  1.0116
 3670SOL     OW11399   0.527   4.233   2.167 -0.3854  0.9481 -0.2460
 3670SOL    HW111400   0.613   4.201   2.195 -0.7234 -0.1429 -0.4061
 3670SOL    HW211401   0.479   4.247   2.248 -0.7890 -0.5837 -0.1814
 3671SOL     OW11402   6.056   2.429   4.856 -0.6411  0.0675  0.8604
 3671SOL    HW111403   6.099   2.499   4.904 -1.3054  2.0527 -1.2719
 3671SOL    HW211404   6.083   2.442   4.765 -0.4118 -2.7647  0.4281
 3672SOL     OW11405   6.239   3.194   4.816  0.3939 -0.5821  0.0094
 3672SOL    HW111406   6.221   3.288   4.811 -1.1468 -0.9123 -1.7442
 3672SOL    HW211407   6.279   3.182   4.902  1.5921  1.8150 -0.1377
 3673SOL     OW11408   0.667   2.526   5.235  0.4991  0.5760  0.6753
 3673SOL    HW111409   0.761   2.539   5.247  0.6328  1.0341 -0.7142
 3673SOL    HW211410   0.627   2.605   5.271  0.7967  1.3102 -0.5429
 3674SOL     OW11411   6.317   4.552   0.804  0.4075 -0.0961 -0.8330
 3674SOL    HW111412   6.393   4.596   0.841  1.2617 -2.3665  0.3432
 3674SOL    HW211413   6.306   4.592   0.717  2.3495  0.9503 -0.6576
 3675SOL     OW11414   5.783   4.346   1.004  0.3721 -0.0514 -0.6825
 3675SOL    HW111415   5.712   4.402   0.974  1.4754  0.1469 -3.1304
 3675SOL    HW211416   5.860   4.374   0.954  0.9205 -3.8705 -2.3484
 3676SOL     OW11417   6.402   3.286   6.811 -1.0254 -0.5944  0.0929
 3676SOL    HW111418   6.380   3.222   6.743 -0.2174 -0.7062 -0.0796
 3676SOL    HW211419   6.361   3.368   6.781 -1.5604 -0.8907  0.0093
 3677SOL     OW11420   3.216   4.608   6.518 -0.1987  0.0471 -0.4219
 3677SOL    HW111421   3.235   4.527   6.471  0.4445  0.7451 -1.4136
 3677SOL    HW211422   3.291   4.621   6.576 -0.8047 -0.6037  0.5425
 3678SOL     OW11423   1.840   3.614   3.349 -0.1266  0.0455 -0.3847
 3678SOL    HW111424   1.786   3.560   3.407 -0.1068 -0.7469 -1.0955
 3678SOL    HW211425   1.828   3.704   3.382  0.6829 -0.4804  1.4961
 3679SOL     OW11426   2.859   0.466   2.598  0.2893 -0.7664 -0.5206
 3679SOL    HW111427   2.835   0.435   2.685  0.8766 -0.1025 -0.1197
 3679SOL    HW211428   2.777   0.462   2.548  0.1666 -2.1154 -0.2395
 3680SOL     OW11429   0.120   0.446   0.734 -0.2444 -0.0791  0.6086
 3680SOL    HW111430   0.211   0.450   0.761 -0.5813 -1.2695  2.0199
 3680SOL    HW211431   0.109   0.357   0.700 -0.7830  0.1915  0.0497
 3681SOL     OW11432   1.975   1.581   1.052 -0.4591 -0.3491 -0.3160
 3681SOL    HW111433   2.007   1.493   1.034 -1.3771 -0.5091 -1.3161
 3681SOL    HW211434   1.899   1.569   1.109  1.6022  0.0790  2.7356
 3682SOL     OW11435   2.555   6.358   5.348  0.3698  0.1408 -0.4402
 3682SOL    HW111436   2.604   6.280   5.320  1.4181  1.1138 -1.4087
 3682SOL    HW211437   2.618   6.429   5.340  0.5995  0.6679  3.8504
 3683SOL     OW11438   1.613   4.868   5.494  0.1821  0.1481  0.6627
 3683SOL    HW111439   1.587   4.830   5.410  0.6448  0.0043  0.5801
 3683SOL    HW211440   1.657   4.797   5.540  0.6758  0.4602  0.6811
 3684SOL     OW11441   5.534   2.920   1.859  0.0948  0.0119  0.2381
 3684SOL    HW111442   5.614   2.929   1.911 -0.1111 -0.6070  0.6723
 3684SOL    HW211443   5.476   2.866   1.913 -0.4261  0.0290 -0.2925
 3685SOL     OW11444   1.636   2.551   2.511  0.1368  0.1371  0.4112
 3685SOL    HW111445   1.593   2.632   2.484 -0.6418 -0.0079  1.1733
 3685SOL    HW211446   1.610   2.539   2.603 -0.6381 -1.5189  0.0164
 3686SOL     OW11447   5.512   0.781   4.827 -0.3257  0.5179  0.6101
 3686SOL    HW111448   5.501   0.686   4.817  0.5122  0.5002 -0.3095
 3686SOL    HW211449   5.554   0.792   4.912 -0.5165  0.0774  0.7652
 3687SOL     OW11450   5.190   3.570   0.985 -0.4786 -0.8826 -0.6491
 3687SOL    HW111451   5.245   3.586   1.062 -0.9607  0.8522 -0.6146
 3687SOL    HW211452   5.156   3.657   0.962 -0.5867 -1.4176 -2.6466
 3688SOL     OW11453   5.754   2.127   1.175 -0.3228 -0.1285 -0.6330
 3688SOL    HW111454   5.779   2.170   1.257  0.4787 -1.4782 -0.1355
 3688SOL    HW211455   5.729   2.199   1.117  0.5164  0.9732  0.3112
 3689SOL     OW11456   2.214   6.538   1.928  0.8058 -0.4206 -0.2683
 3689SOL    HW111457   2.220   6.471   1.860  1.7211 -0.9308  0.2881
 3689SOL    HW211458   2.160   6.498   1.996  2.2361 -1.0561  0.5424
 3690SOL     OW11459   0.897   2.847   5.198  0.4420  0.1393 -0.5331
 3690SOL    HW111460   0.808   2.859   5.231  0.5509  1.3870 -0.6534
 3690SOL    HW211461   0.937   2.785   5.259  0.1704  1.2726  0.8508
 3691SOL     OW11462   2.013   0.219   4.019  0.4916 -0.6827  0.6942
 3691SOL    HW111463   2.078   0.199   4.087  2.1912  1.5633 -0.1132
 3691SOL    HW211464   2.033   0.158   3.948  1.2642 -0.5206  0.7565
 3692SOL     OW11465   4.527   1.317   3.032  0.4188  0.4596 -0.5844
 3692SOL    HW111466   4.548   1.388   3.094 -0.3635  0.0812  0.1426
 3692SOL    HW211467   4.542   1.237   3.083  0.1297  0.1333 -1.0181
 3693SOL     OW11468   6.394   0.906   4.053  0.1145 -0.2433  0.3250
 3693SOL    HW111469   6.395   0.810   4.058 -0.1437 -0.2062  1.3056
 3693SOL    HW211470   6.307   0.927   4.020 -0.0453 -0.3265  0.6929
 3694SOL     OW11471   0.181   0.655   3.459  0.8075  0.0461 -0.4825
 3694SOL    HW111472   0.232   0.587   3.415  1.4147  0.2237 -0.0706
 3694SOL    HW211473   0.127   0.608   3.522  1.0996 -0.0705 -0.3171
 3695SOL     OW11474   0.201   6.151   1.680 -0.5790  0.6362  0.0800
 3695SOL    HW111475   0.111   6.182   1.680 -0.6920  0.3003 -0.2106
 3695SOL    HW211476   0.250   6.222   1.722 -0.8920  1.0659 -0.2757
 3696SOL     OW11477   3.864   6.347   4.852 -0.1260 -0.4622  0.0779
 3696SOL    HW111478   3.890   6.370   4.941  1.1310  0.3321 -0.4740
 3696SOL    HW211479   3.801   6.415   4.828 -1.8086 -1.6286  0.9245
 3697SOL     OW11480   3.286   1.349   1.271  0.3439  0.0814  0.0437
 3697SOL    HW111481   3.245   1.263   1.265 -0.2979  0.4796 -1.9127
 3697SOL    HW211482   3.350   1.351   1.200  1.1023  0.8582  0.7178
 3698SOL     OW11483   3.312   0.174   0.802 -0.0356  0.2575 -0.4993
 3698SOL    HW111484   3.257   0.214   0.870 -0.2066  1.0364 -1.0775
 3698SOL    HW211485   3.284   0.083   0.798  0.6929 -0.0839  1.1945
 3699SOL     OW11486   5.208   6.824   4.759 -0.0826 -0.4979 -0.1214
 3699SOL    HW111487   5.260   6.882   4.703 -0.4785 -1.0205 -1.0485
 3699SOL    HW211488   5.271   6.789   4.822  0.3991 -0.0157 -0.3235
 3700SOL     OW11489   1.919   4.087   2.589 -0.2185 -0.0163  0.4492
 3700SOL    HW111490   1.903   4.038   2.669 -0.9071 -3.3327 -1.4913
 3700SOL    HW211491   1.840   4.072   2.536  0.2707  1.9105 -0.9263
 3701SOL     OW11492   5.681   6.491   0.126 -0.5858  0.3067  0.5315
 3701SOL    HW111493   5.770   6.521   0.106 -0.2020 -2.2906 -2.2162
 3701SOL    HW211494   5.625   6.561   0.092  0.3534  0.8122 -0.0433
 3702SOL     OW11495   2.073   1.479   2.720  0.2043 -0.2001 -0.2649
 3702SOL    HW111496   2.138   1.409   2.731  0.2223 -0.2344 -0.5853
 3702SOL    HW211497   2.124   1.558   2.706  0.1841 -0.1112  0.1483
 3703SOL     OW11498   2.013   2.043   1.184  0.1848 -0.2981  0.1990
 3703SOL    HW111499   2.036   2.077   1.270  1.0567  1.4535 -0.6706
 3703SOL    HW211500   2.088   2.065   1.128 -0.7261 -0.5960 -1.2005
 3704SOL     OW11501   4.340   2.250   3.738  0.7582  0.0979 -0.3338
 3704SOL    HW111502   4.328   2.330   3.688  1.8867 -0.1278 -0.9955
 3704SOL    HW211503   4.434   2.236   3.738  0.4732 -2.7068 -2.6395
 3705SOL     OW11504   1.008   3.678   1.670 -0.0190 -0.4886 -0.0560
 3705SOL    HW111505   1.018   3.767   1.638  0.3061  0.2538  1.9487
 3705SOL    HW211506   0.949   3.636   1.607  0.3338  0.9370 -1.3792
 3706SOL     OW11507   3.184   1.854   5.398  0.1088 -0.0486  0.5033
 3706SOL    HW111508   3.171   1.760   5.381 -0.2827  0.1736 -0.4505
 3706SOL    HW211509   3.127   1.898   5.336  0.3334  0.8363  0.9108
 3707SOL     OW11510   0.206   1.118   1.206 -0.4868 -0.1090  0.1074
 3707SOL    HW111511   0.268   1.125   1.278 -0.8837 -2.3555  0.7153
 3707SOL    HW211512   0.158   1.201   1.208 -1.8377 -0.8427  3.6880
 3708SOL     OW11513   0.909   3.724   1.259  0.4358 -0.5646 -0.7126
 3708SOL    HW111514   0.853   3.725   1.182  0.9992 -0.9388 -1.1371
 3708SOL    HW211515   0.903   3.812   1.295 -1.4245 -0.9337 -0.0031
 3709SOL     OW11516   2.271   2.734   4.736  0.2450  0.3834  0.3696
 3709SOL    HW111517   2.275   2.782   4.819 -0.2818  0.0908  0.5622
 3709SOL    HW211518   2.301   2.798   4.671  0.4916  0.6680  0.7558
 3710SOL     OW11519   4.987   4.903   0.366  0.2218  0.2290 -0.5269
 3710SOL    HW111520   4.915   4.842   0.354 -0.4316  0.8029  0.3674
 3710SOL    HW211521   4.987   4.955   0.286  1.6627 -1.7705 -1.9258
 3711SOL     OW11522   5.956   1.869   3.909  0.0352 -0.2243 -0.4442
 3711SOL    HW111523   5.925   1.825   3.830 -1.7200  0.8014 -0.3742
 3711SOL    HW211524   6.034   1.917   3.881  0.6780 -1.5658 -1.0268
 3712SOL     OW11525   1.594   0.273   5.797 -0.1520  0.0774  0.0949
 3712SOL    HW111526   1.511   0.260   5.751  0.7707  1.4822 -2.1398
 3712SOL    HW211527   1.655   0.214   5.753  0.3447  0.0846  0.7735
 3713SOL     OW11528   2.034   0.058   1.926 -0.1217 -0.0952  0.4766
 3713SOL    HW111529   2.007  -0.033   1.919  1.0622 -0.5743  1.6288
 3713SOL    HW211530   1.970   0.098   1.984  0.0019 -0.4986  0.9000
 3714SOL     OW11531   4.472   6.273   2.930 -0.5140  0.8109 -0.0737
 3714SOL    HW111532   4.483   6.368   2.932  0.4448  0.7125  1.0320
 3714SOL    HW211533   4.515   6.245   2.850  1.2514  1.1363  0.7049
 3715SOL     OW11534   4.169   1.846   4.499 -0.4328 -0.2533  0.4847
 3715SOL    HW111535   4.195   1.884   4.583  2.2671  0.4725 -0.5657
 3715SOL    HW211536   4.248   1.803   4.467 -2.0288 -2.5405 -0.6771
 3716SOL     OW11537   6.083   6.665   1.289 -0.3029  0.7126  0.3247
 3716SOL    HW111538   6.016   6.725   1.257 -1.7904 -0.9225  0.2511
 3716SOL    HW211539   6.122   6.628   1.210 -0.5084  0.3835  0.3767
 3717SOL     OW11540   1.568   5.282   1.171  0.2979  0.3429 -0.3684
 3717SOL    HW111541   1.662   5.267   1.173  0.3858 -0.3062  5.0876
 3717SOL    HW211542   1.530   5.194   1.178 -0.5359  0.7677  0.6647
 3718SOL     OW11543   1.150   2.397   3.613 -0.4166 -0.0114  0.2053
 3718SOL    HW111544   1.222   2.387   3.675 -0.8637 -1.3294  0.5288
 3718SOL    HW211545   1.133   2.309   3.580 -0.7470  0.5432 -1.1647
 3719SOL     OW11546   1.907   4.528   1.903  0.2402 -0.3706  0.2845
 3719SOL    HW111547   1.996   4.500   1.880  0.7220  0.5709  0.9192
 3719SOL    HW211548   1.920   4.608   1.954 -1.0151  0.2277 -0.2926
 3720SOL     OW11549   4.155   3.407   0.387  0.8984 -0.0756 -0.1093
 3720SOL    HW111550   4.244   3.401   0.423  0.2530  0.1689  1.6316
 3720SOL    HW211551   4.111   3.472   0.442  0.0705  1.0085 -1.9415
 3721SOL     OW11552   4.711   5.833   2.538  0.2181  0.1016  0.3805
 3721SOL    HW111553   4.724   5.896   2.468 -1.7732  0.0853 -0.0645
 3721SOL    HW211554   4.639   5.869   2.590 -0.2582 -1.2815  0.7292
 3722SOL     OW11555   4.073   3.733   1.666  0.2541 -0.0292 -0.1718
 3722SOL    HW111556   4.006   3.669   1.692  1.6240 -1.0542  0.9781
 3722SOL    HW211557   4.133   3.683   1.610  0.2520  0.7968 -0.9239
 3723SOL     OW11558   2.061   0.104   1.583  0.1790 -0.0231 -0.0170
 3723SOL    HW111559   2.066   0.044   1.657 -0.2880 -0.2815 -0.1911
 3723SOL    HW211560   2.107   0.059   1.512 -1.1768 -0.7086 -0.4931
 3724SOL     OW11561   3.300   2.190   5.985 -0.5022 -0.5050  0.4182
 3724SOL    HW111562   3.213   2.202   5.947 -0.1038 -0.5696 -0.5386
 3724SOL    HW211563   3.356   2.251   5.938  0.2076 -1.3281  0.1608
 3725SOL     OW11564   0.841   1.975   1.888 -0.2027 -0.1665  0.3044
 3725SOL    HW111565   0.916   2.012   1.841 -0.1615 -0.6456 -0.0164
 3725SOL    HW211566   0.881   1.918   1.954 -0.2832 -0.6630 -0.0683
 3726SOL     OW11567   4.694   1.607   5.487  0.0713  0.3353 -0.1842
 3726SOL    HW111568   4.622   1.564   5.533 -0.1411 -0.0699 -0.8837
 3726SOL    HW211569   4.748   1.535   5.454  0.1499  0.6150 -0.6806
 3727SOL     OW11570   0.322   0.011   6.724  0.3273 -0.0523 -0.5045
 3727SOL    HW111571   0.299   0.011   6.632 -0.1695 -0.3388 -0.3840
 3727SOL    HW211572   0.264  -0.055   6.763  2.3709 -1.9430 -0.4573
 3728SOL     OW11573   2.743   5.844   0.280  0.0158  0.4124 -0.0324
 3728SOL    HW111574   2.793   5.767   0.253  1.1666  1.3739 -0.7431
 3728SOL    HW211575   2.745   5.841   0.376 -3.0909 -2.3846  0.1319
 3729SOL     OW11576   3.051   0.044   1.809 -0.1814 -0.3631  0.0469
 3729SOL    HW111577   3.015   0.053   1.721  0.6710  0.2672 -0.2445
 3729SOL    HW211578   3.146   0.046   1.797 -0.0451  1.3083  1.1259
 3730SOL     OW11579   5.638   6.209   0.116  0.0193 -0.2129  0.2012
 3730SOL    HW111580   5.624   6.304   0.115 -0.0760 -0.2239  0.3686
 3730SOL    HW211581   5.729   6.198   0.088 -0.1023 -0.0989 -0.2348
 3731SOL     OW11582   3.519   4.182   5.597  0.3916  0.2724  0.1240
 3731SOL    HW111583   3.546   4.142   5.514 -1.0386  0.8271 -0.6400
 3731SOL    HW211584   3.460   4.118   5.637 -1.2363  1.1878 -0.7051
 3732SOL     OW11585   4.932   4.177   0.921  0.2900  0.1088 -0.1707
 3732SOL    HW111586   4.990   4.124   0.867 -1.1716  0.0052 -1.7385
 3732SOL    HW211587   4.866   4.115   0.953  0.3539  0.4226  0.5838
 3733SOL     OW11588   3.618   6.807   0.267  0.1633 -0.4183 -0.5596
 3733SOL    HW111589   3.585   6.739   0.209 -0.1082 -1.4264  0.7227
 3733SOL    HW211590   3.590   6.779   0.355 -0.0690  1.4171 -0.0092
 3734SOL     OW11591   2.390   2.065   4.178  0.0733  0.1547 -0.1190
 3734SOL    HW111592   2.321   2.121   4.214  0.8228  0.2945  1.1495
 3734SOL    HW211593   2.463   2.073   4.239  0.4436 -1.6940 -0.2374
 3735SOL     OW11594   1.531   0.677   1.872  0.2907  0.2179  0.4658
 3735SOL    HW111595   1.470   0.684   1.946 -0.1320 -2.2996  0.4659
 3735SOL    HW211596   1.616   0.661   1.913  0.3838  0.6174  0.4280
 3736SOL     OW11597   4.030   2.276   4.100 -0.4136  0.0908  0.5908
 3736SOL    HW111598   4.054   2.345   4.163  1.2336 -0.5308  0.6896
 3736SOL    HW211599   4.021   2.322   4.017  0.8487  0.4145  0.6187
 3737SOL     OW11600   0.144   4.957   2.935 -0.2434  0.7296  0.3821
 3737SOL    HW111601   0.141   4.946   2.840 -1.0733 -1.5879  0.6167
 3737SOL    HW211602   0.235   4.980   2.953  0.2874 -0.2677 -0.8700
 3738SOL     OW11603   4.487   3.136   4.007 -0.5338  0.3776  0.3095
 3738SOL    HW111604   4.407   3.084   4.020 -0.5153 -0.9712 -3.5366
 3738SOL    HW211605   4.460   3.207   3.949  0.5090  1.7475  1.4376
 3739SOL     OW11606   1.975   2.974   6.609 -0.1744  0.0507  0.7572
 3739SOL    HW111607   1.889   2.962   6.569 -0.6679 -0.9502  2.0491
 3739SOL    HW211608   1.985   3.070   6.614 -0.2051  0.2207 -1.4007
 3740SOL     OW11609   1.624   4.861   3.899  0.5619  0.0425  0.5027
 3740SOL    HW111610   1.666   4.875   3.984  0.6600  0.3657  0.4014
 3740SOL    HW211611   1.684   4.900   3.836  0.9203 -0.9785  0.1983
 3741SOL     OW11612   4.075   6.066   2.436  0.2766 -0.3718 -0.2120
 3741SOL    HW111613   4.144   6.028   2.382  1.2132 -0.7311  1.1908
 3741SOL    HW211614   4.111   6.150   2.465 -0.4526  0.0889 -0.6156
 3742SOL     OW11615   6.650   4.035   4.729 -0.1760 -0.6951  0.1006
 3742SOL    HW111616   6.712   4.033   4.656  0.5299 -1.8546  0.7034
 3742SOL    HW211617   6.645   4.127   4.754 -0.5912 -0.2448 -1.5286
 3743SOL     OW11618   5.885   6.390   1.223 -0.6005  0.4678  0.2852
 3743SOL    HW111619   5.868   6.455   1.291 -0.6242 -0.1775  0.8975
 3743SOL    HW211620   5.964   6.344   1.251  0.4184  1.3491 -0.9948
 3744SOL     OW11621   1.581   0.422   1.125 -0.1308  0.0192 -0.1382
 3744SOL    HW111622   1.586   0.516   1.106  1.1315  0.3761  1.7354
 3744SOL    HW211623   1.510   0.414   1.189 -0.5077 -0.3733 -0.5976
 3745SOL     OW11624   2.853   1.414   3.834  0.1834 -0.4262 -0.4519
 3745SOL    HW111625   2.884   1.492   3.788 -1.5173  0.6352  0.0993
 3745SOL    HW211626   2.914   1.403   3.906  0.7134  0.1312 -0.8014
 3746SOL     OW11627   2.058   4.315   4.942 -0.0026  0.6165  0.5484
 3746SOL    HW111628   1.989   4.322   5.008  0.4179 -1.7224  1.3221
 3746SOL    HW211629   2.101   4.232   4.962  0.5868  0.1732 -2.2534
 3747SOL     OW11630   1.007   3.857   6.007 -0.5557  0.2296  0.0130
 3747SOL    HW111631   0.997   3.818   6.094  0.0728  0.2883  0.1168
 3747SOL    HW211632   0.955   3.802   5.949  1.6095 -1.7846 -0.1405
 3748SOL     OW11633   2.343   2.646   0.536 -0.7345  0.1648 -0.1867
 3748SOL    HW111634   2.260   2.602   0.515 -1.4653  1.3532  0.0738
 3748SOL    HW211635   2.351   2.635   0.631 -0.5006 -0.1030 -0.2378
 3749SOL     OW11636   2.293   0.221   4.221 -0.1376 -0.0059  0.2063
 3749SOL    HW111637   2.262   0.221   4.311 -0.2257 -0.6546  0.1801
 3749SOL    HW211638   2.386   0.199   4.227  0.3109  1.7895  0.2735
 3750SOL     OW11639   5.514   6.244   1.766  0.2174  0.0305 -0.1067
 3750SOL    HW111640   5.445   6.297   1.725 -0.7273 -2.0920 -1.4617
 3750SOL    HW211641   5.545   6.188   1.695  0.2680 -2.0926  1.5173
 3751SOL     OW11642   1.211   4.265   2.445  0.1584  0.5844  0.6671
 3751SOL    HW111643   1.122   4.256   2.479  0.0634  2.1030  0.8692
 3751SOL    HW211644   1.266   4.263   2.522  0.2372  0.4010  0.6055
 3752SOL     OW11645   0.443   0.128   3.012 -0.6440  0.7273 -0.3802
 3752SOL    HW111646   0.352   0.144   2.989 -0.7281 -0.4655 -0.9684
 3752SOL    HW211647   0.448   0.033   3.027  0.4311  0.8163 -0.0556
 3753SOL     OW11648   3.690   5.092   5.921  0.4214  0.3678 -0.2570
 3753SOL    HW111649   3.759   5.132   5.976  0.5101  1.1063 -0.8909
 3753SOL    HW211650   3.666   5.161   5.860  0.2154 -0.4031 -1.0582
 3754SOL     OW11651   6.354   6.808   4.175 -0.0198  0.1202 -0.5898
 3754SOL    HW111652   6.438   6.816   4.221 -0.2184 -1.2397  0.0564
 3754SOL    HW211653   6.373   6.746   4.104 -0.7676 -1.2729  0.3770
 3755SOL     OW11654   6.023   1.795   5.233 -0.0469 -0.0917 -0.2145
 3755SOL    HW111655   6.030   1.703   5.207 -2.9871 -0.2593 -0.7242
 3755SOL    HW211656   5.996   1.791   5.325  0.3828  0.2944 -0.0670
 3756SOL     OW11657   3.507   5.020   1.901 -0.1498  0.4602 -0.5001
 3756SOL    HW111658   3.489   5.104   1.943 -0.4247 -1.1266  2.9193
 3756SOL    HW211659   3.423   4.974   1.902  0.3138 -0.4304 -0.8950
 3757SOL     OW11660   3.600   2.542   2.169  0.8637 -0.4608 -0.0875
 3757SOL    HW111661   3.654   2.612   2.134 -1.8781  1.7709 -0.1773
 3757SOL    HW211662   3.595   2.560   2.263 -0.8832  0.3249 -0.2860
 3758SOL     OW11663   1.392   3.248   2.497 -0.0147  0.8220  0.5645
 3758SOL    HW111664   1.436   3.333   2.503 -1.0961  1.3784  0.9290
 3758SOL    HW211665   1.333   3.257   2.422 -1.1629  0.9057  1.4473
 3759SOL     OW11666   2.013   4.107   5.239  0.4183 -0.1712  0.0096
 3759SOL    HW111667   2.013   4.012   5.246 -1.1641 -0.0872  1.6875
 3759SOL    HW211668   1.938   4.127   5.183  0.0838  0.1190  0.5503
 3760SOL     OW11669   2.707   1.526   5.031  0.2487  0.6169  0.2497
 3760SOL    HW111670   2.650   1.529   5.108  0.8909 -0.4373  0.7897
 3760SOL    HW211671   2.714   1.433   5.009  0.6446  0.8466 -0.6551
 3761SOL     OW11672   2.130   1.302   5.239  0.2807  0.3504 -0.4180
 3761SOL    HW111673   2.071   1.228   5.223 -0.4306  0.9333 -0.5618
 3761SOL    HW211674   2.180   1.276   5.316  0.6222 -0.6237 -0.9417
 3762SOL     OW11675   2.893   2.637   5.256 -0.0287 -0.0724 -0.2606
 3762SOL    HW111676   2.872   2.689   5.178  0.3940 -1.6554 -1.4808
 3762SOL    HW211677   2.980   2.666   5.282 -0.3893  0.8430 -0.0433
 3763SOL     OW11678   0.793   6.398   0.177 -0.0732 -0.3523  0.2187
 3763SOL    HW111679   0.859   6.462   0.202 -0.1464 -0.2676  0.1955
 3763SOL    HW211680   0.710   6.446   0.180  0.2727  0.9122 -4.3999
 3764SOL     OW11681   3.129   2.099   4.160 -0.5991  0.3176  0.6391
 3764SOL    HW111682   3.081   2.118   4.240  0.2840  3.3229  0.5819
 3764SOL    HW211683   3.122   2.179   4.108  3.1798  0.4514  0.0444
 3765SOL     OW11684   1.943   6.209   4.786 -0.3463 -0.3187 -0.3620
 3765SOL    HW111685   1.889   6.193   4.709  0.5877 -1.9466 -0.7352
 3765SOL    HW211686   2.029   6.175   4.762  0.7160  1.6359  0.4254
 3766SOL     OW11687   2.741   0.420   5.649  0.3134  0.5899  0.0310
 3766SOL    HW111688   2.804   0.408   5.577 -0.0224  1.9491 -0.5245
 3766SOL    HW211689   2.721   0.514   5.647 -0.6112  0.4292  1.1505
 3767SOL     OW11690   2.031   5.438   0.133 -0.4141  0.1981  0.3210
 3767SOL    HW111691   2.030   5.374   0.204 -0.6171 -0.6672 -0.4547
 3767SOL    HW211692   2.123   5.443   0.106 -0.4812 -0.1567  0.0297
 3768SOL     OW11693   1.484   5.756   0.533  0.1486 -0.4223 -0.5823
 3768SOL    HW111694   1.536   5.695   0.480  0.4848  0.4131 -1.2525
 3768SOL    HW211695   1.456   5.823   0.470  0.3611  0.4744  0.2574
 3769SOL     OW11696   3.065   4.673   1.741  0.2176 -0.0255 -0.0024
 3769SOL    HW111697   3.078   4.767   1.751 -0.1140  0.0572 -0.3227
 3769SOL    HW211698   2.995   4.651   1.802 -0.8076  0.2250 -1.0510
 3770SOL     OW11699   5.926   0.410   4.943 -0.2440 -0.5309  0.4950
 3770SOL    HW111700   6.018   0.429   4.964  0.4194  0.0722 -2.4014
 3770SOL    HW211701   5.931   0.346   4.871 -2.1036 -0.6422  0.4258
 3771SOL     OW11702   3.447   2.403   3.960  0.0431 -0.2234  0.5902
 3771SOL    HW111703   3.466   2.309   3.951 -1.2134 -0.5684  1.3211
 3771SOL    HW211704   3.449   2.419   4.055  0.1150  0.4689  0.4791
 3772SOL     OW11705   3.467   2.214   0.732 -0.2903 -0.5512 -0.1044
 3772SOL    HW111706   3.411   2.205   0.809 -1.3663  0.5213 -0.7241
 3772SOL    HW211707   3.414   2.179   0.660 -0.4560  1.0560 -0.8069
 3773SOL     OW11708   3.761   0.515   5.656 -0.0218 -0.4846 -0.0574
 3773SOL    HW111709   3.828   0.489   5.719 -0.9779 -2.1348  0.3635
 3773SOL    HW211710   3.678   0.506   5.704 -0.8138 -2.1805 -1.5920
 3774SOL     OW11711   0.952   2.023   4.739 -0.3525  0.1543  0.1671
 3774SOL    HW111712   0.927   1.931   4.748  1.2509 -0.3822 -0.4664
 3774SOL    HW211713   1.047   2.021   4.728 -0.0365  2.0474  2.0534
 3775SOL     OW11714   5.572   5.394   3.324  0.4844 -0.2162 -0.6081
 3775SOL    HW111715   5.592   5.471   3.377  1.3391  0.9913 -2.5854
 3775SOL    HW211716   5.538   5.429   3.242 -1.9020 -2.0685 -0.5027
 3776SOL     OW11717   4.775   2.219   3.994 -0.0572  0.3418  0.2062
 3776SOL    HW111718   4.741   2.153   4.055 -1.4823  1.0074  0.1694
 3776SOL    HW211719   4.785   2.298   4.047  0.8564  0.3211  0.0711
 3777SOL     OW11720   0.546   6.010   4.863  0.5019  0.4166  0.5315
 3777SOL    HW111721   0.603   6.068   4.812 -1.5311  0.9672 -1.2564
 3777SOL    HW211722   0.542   6.049   4.949  0.7890  1.8095 -0.0661
 3778SOL     OW11723   5.659   1.021   2.131  0.4414 -0.2283  0.1329
 3778SOL    HW111724   5.640   0.999   2.222 -0.3459  0.8817  0.2507
 3778SOL    HW211725   5.754   1.025   2.126  0.5365 -1.3950  0.6202
 3779SOL     OW11726   5.808   3.555   0.854 -0.2728  0.2432  0.2484
 3779SOL    HW111727   5.887   3.510   0.885 -0.0773  0.3150 -0.1384
 3779SOL    HW211728   5.747   3.485   0.833 -0.3852  0.1920  0.7335
 3780SOL     OW11729   3.381   0.483   6.723 -0.4167  0.0782  0.1895
 3780SOL    HW111730   3.458   0.428   6.711  0.1224  0.8379  0.1018
 3780SOL    HW211731   3.307   0.422   6.723  0.3277 -0.9004  2.4372
 3781SOL     OW11732   0.989   3.538   5.785 -0.1930 -0.6426 -0.6880
 3781SOL    HW111733   1.016   3.494   5.866  0.0822 -0.8252 -0.8808
 3781SOL    HW211734   1.070   3.571   5.746 -0.5218  1.5598  0.3126
 3782SOL     OW11735   3.773   2.254   2.923 -0.4463  0.2458 -0.4654
 3782SOL    HW111736   3.750   2.171   2.882  0.9844 -0.7676  0.6642
 3782SOL    HW211737   3.785   2.232   3.015  2.8660  1.0272 -0.5999
 3783SOL     OW11738   3.860   2.227   6.100  0.3771 -0.3126 -0.3888
 3783SOL    HW111739   3.821   2.161   6.159  0.6989  0.2202  0.4412
 3783SOL    HW211740   3.791   2.246   6.037 -0.1235 -0.6087  0.0597
 3784SOL     OW11741   3.346   4.150   4.298 -0.8518 -0.1649  0.1298
 3784SOL    HW111742   3.308   4.109   4.376 -1.6802  2.7762  1.4034
 3784SOL    HW211743   3.275   4.149   4.234 -0.8606 -0.7069  0.1454
 3785SOL     OW11744   1.557   1.429   4.228 -0.2535  0.5627 -0.0094
 3785SOL    HW111745   1.582   1.507   4.277 -3.1282  0.9267  1.0779
 3785SOL    HW211746   1.525   1.368   4.294 -0.8477 -0.3721 -1.1177
 3786SOL     OW11747   3.822   0.609   1.179  0.2097  0.0260 -0.2076
 3786SOL    HW111748   3.784   0.697   1.180 -0.1964 -0.1482  0.0490
 3786SOL    HW211749   3.902   0.617   1.232  0.1855  0.2450 -0.2029
 3787SOL     OW11750   6.175   5.823   2.662 -0.3421  0.1993  0.1047
 3787SOL    HW111751   6.230   5.834   2.739 -0.8679  0.4310  0.4568
 3787SOL    HW211752   6.125   5.743   2.679 -1.2569  0.8378  0.5165
 3788SOL     OW11753   4.256   5.067   3.260 -0.1922 -0.5854 -0.3788
 3788SOL    HW111754   4.206   5.032   3.334  1.0755 -1.7503 -0.0230
 3788SOL    HW211755   4.222   5.020   3.184 -0.3794 -0.5776 -0.3004
 3789SOL     OW11756   2.732   2.833   5.943  0.4126 -0.3323  1.1714
 3789SOL    HW111757   2.684   2.896   5.888  0.0629 -1.2038  0.4437
 3789SOL    HW211758   2.710   2.748   5.905  4.2906 -0.7176 -0.7086
 3790SOL     OW11759   4.708   2.612   2.071 -0.8431 -0.4482 -0.2931
 3790SOL    HW111760   4.735   2.695   2.032 -1.9539 -0.2117 -0.6107
 3790SOL    HW211761   4.780   2.552   2.054  0.1006  0.5242  0.1841
 3791SOL     OW11762   3.134   2.263   4.762 -0.0925 -0.2877 -0.5419
 3791SOL    HW111763   3.074   2.337   4.774  1.9383  1.3867 -0.1044
 3791SOL    HW211764   3.157   2.265   4.669  0.6834  0.2279 -0.3417
 3792SOL     OW11765   2.876   1.770   1.844 -0.8204  0.1579 -0.3407
 3792SOL    HW111766   2.919   1.824   1.777  0.8264  0.4961  0.9423
 3792SOL    HW211767   2.917   1.684   1.834 -1.3014 -0.0623 -0.4188
 3793SOL     OW11768   0.053   5.754   0.425 -0.2289 -0.1252  0.0825
 3793SOL    HW111769   0.120   5.789   0.366 -0.2733  0.4616  0.3722
 3793SOL    HW211770   0.103   5.710   0.494 -0.1818 -1.0535 -0.5210
 3794SOL     OW11771   6.546   4.635   1.192 -0.0658 -1.1526 -0.3968
 3794SOL    HW111772   6.536   4.712   1.247  0.6371 -0.3279 -1.3852
 3794SOL    HW211773   6.494   4.567   1.236 -2.4413  0.4287 -0.5983
 3795SOL     OW11774   1.411   2.876   0.209 -0.5467  0.6138  0.4887
 3795SOL    HW111775   1.457   2.905   0.287  0.1800  1.6898 -0.3258
 3795SOL    HW211776   1.391   2.784   0.226  0.6220  0.5224  1.4545
 3796SOL     OW11777   2.700   2.411   1.079  0.0820  0.2361  0.2259
 3796SOL    HW111778   2.772   2.474   1.073  0.7585 -0.5788 -0.5092
 3796SOL    HW211779   2.677   2.393   0.988 -0.4617 -0.1861  0.4438
 3797SOL     OW11780   3.702   3.284   4.938  0.0814  0.3977  0.1745
 3797SOL    HW111781   3.652   3.354   4.982 -0.8633  0.0032 -0.2444
 3797SOL    HW211782   3.758   3.330   4.876  0.0347  0.8395  0.4537
 3798SOL     OW11783   1.810   3.787   2.176 -0.1202  0.6585 -0.2363
 3798SOL    HW111784   1.738   3.772   2.237 -0.4755  0.9462 -0.5845
 3798SOL    HW211785   1.771   3.780   2.089  0.0428  1.8988 -0.4203
 3799SOL     OW11786   6.380   4.855   1.589 -0.0501  0.7192 -0.4648
 3799SOL    HW111787   6.295   4.841   1.548 -0.3009 -0.8721  0.5078
 3799SOL    HW211788   6.361   4.900   1.671 -0.2252 -1.3673  0.7061
 3800SOL     OW11789   6.070   0.162   6.603 -0.5963  0.7465 -0.0748
 3800SOL    HW111790   6.093   0.189   6.514 -0.7921 -1.5439 -0.8697
 3800SOL    HW211791   5.979   0.132   6.597 -0.4531  0.0968  0.7872
 3801SOL     OW11792   6.177   6.587   0.168  0.3977 -0.1713 -0.2843
 3801SOL    HW111793   6.178   6.678   0.139 -0.9462 -0.2934 -0.7712
 3801SOL    HW211794   6.204   6.591   0.260 -1.5657  0.9643  0.2834
 3802SOL     OW11795   6.640   0.169   1.993  0.4916  0.3296 -0.3988
 3802SOL    HW111796   6.568   0.229   2.010 -0.3081 -0.5406 -0.6420
 3802SOL    HW211797   6.600   0.082   1.995  0.9971 -0.0584 -3.0917
 3803SOL     OW11798   4.700   0.309   1.266  0.2045  0.2967  0.2064
 3803SOL    HW111799   4.613   0.348   1.257 -0.7568 -1.5723  0.7459
 3803SOL    HW211800   4.710   0.296   1.361  1.5449  1.4606  0.2447
 3804SOL     OW11801   4.231   5.412   6.468 -0.5970  0.2664  0.3077
 3804SOL    HW111802   4.156   5.387   6.522  0.6478 -0.9750  1.5703
 3804SOL    HW211803   4.193   5.436   6.384 -2.5333  1.2992  1.4029
 3805SOL     OW11804   4.276   0.810   6.580 -0.0641 -0.4825  0.4116
 3805SOL    HW111805   4.294   0.724   6.541  0.1514 -0.3953  0.3153
 3805SOL    HW211806   4.217   0.853   6.518 -1.4203 -1.1521  1.2123
 3806SOL     OW11807   6.141   1.919   0.226  0.1547  0.1007  0.1182
 3806SOL    HW111808   6.185   1.882   0.302 -0.0659  0.4132  0.4036
 3806SOL    HW211809   6.048   1.902   0.241 -0.0125  1.3083  0.5702
 3807SOL     OW11810   4.165   3.946   5.137  0.6578  0.2381 -0.6383
 3807SOL    HW111811   4.132   3.976   5.221  2.2758 -1.2051  0.5902
 3807SOL    HW211812   4.186   4.027   5.089  0.7545  1.0821  0.7858
 3808SOL     OW11813   0.063   5.565   2.495 -0.5407  0.8931  0.4574
 3808SOL    HW111814  -0.025   5.528   2.507 -0.0863 -0.7987 -1.0223
 3808SOL    HW211815   0.075   5.567   2.400  1.9438 -1.3319  0.6106
 3809SOL     OW11816   2.630   5.453   3.099  0.6426  0.1559  0.1379
 3809SOL    HW111817   2.645   5.470   3.192 -0.9151  1.6293  0.1795
 3809SOL    HW211818   2.567   5.381   3.098 -1.1140  1.6118  0.3613
 3810SOL     OW11819   5.329   1.689   2.245 -0.2112  0.5209  0.3288
 3810SOL    HW111820   5.258   1.704   2.307  0.8727  0.1528  1.7137
 3810SOL    HW211821   5.288   1.695   2.159 -1.4132  3.0036  0.9844
 3811SOL     OW11822   1.435   2.114   3.718 -0.1877 -0.2320  0.9053
 3811SOL    HW111823   1.472   2.088   3.634  0.7540  2.8948  0.2028
 3811SOL    HW211824   1.340   2.111   3.705 -0.0744 -1.2681  0.2633
 3812SOL     OW11825   1.591   2.570   6.467 -0.3021 -0.0463  0.0438
 3812SOL    HW111826   1.502   2.557   6.436 -0.0071  0.0223 -0.8573
 3812SOL    HW211827   1.623   2.646   6.417 -0.0180  0.4493  0.9518
 3813SOL     OW11828   6.364   4.596   6.430  0.0544 -0.4743  0.1843
 3813SOL    HW111829   6.296   4.657   6.402 -0.9607 -1.5186  0.3129
 3813SOL    HW211830   6.322   4.541   6.496  1.1236 -0.9286  0.5193
 3814SOL     OW11831   5.521   5.186   4.708 -0.0246 -0.1127 -0.2971
 3814SOL    HW111832   5.443   5.137   4.732 -0.6176  0.2452 -1.4024
 3814SOL    HW211833   5.517   5.192   4.612  0.4360  1.3833 -0.2562
 3815SOL     OW11834   3.765   3.089   4.167  0.0066  1.0444 -0.1532
 3815SOL    HW111835   3.711   3.025   4.120 -0.6285 -0.0101  1.8887
 3815SOL    HW211836   3.704   3.136   4.224  0.7908  2.0238 -0.0878
 3816SOL     OW11837   1.763   3.270   5.051  0.5984  0.5519 -0.6184
 3816SOL    HW111838   1.699   3.277   5.123  0.7198 -0.0776 -0.4365
 3816SOL    HW211839   1.751   3.350   5.000 -0.1537  0.5660 -0.4337
 3817SOL     OW11840   3.510   1.082   1.087  0.3432 -0.3164 -0.6617
 3817SOL    HW111841   3.482   1.174   1.096  1.6775  0.0251  0.3565
 3817SOL    HW211842   3.446   1.043   1.028 -1.0127  0.9479 -0.0927
 3818SOL     OW11843   4.098   3.155   5.591  0.4282  0.1470 -0.7014
 3818SOL    HW111844   4.022   3.115   5.634 -0.0766  2.2481  0.4853
 3818SOL    HW211845   4.091   3.127   5.500 -0.6417 -1.3033 -0.2255
 3819SOL     OW11846   3.898   4.216   0.319 -0.2582 -0.8242  0.1098
 3819SOL    HW111847   3.904   4.160   0.241 -1.3503 -0.2761 -0.3927
 3819SOL    HW211848   3.971   4.189   0.374  1.5364 -0.1128 -1.8062
 3820SOL     OW11849   2.196   3.331   0.401  0.3045  0.1369  0.7031
 3820SOL    HW111850   2.192   3.345   0.495 -2.2718  1.2300  0.5007
 3820SOL    HW211851   2.212   3.417   0.364 -0.0423 -0.0511  0.0900
 3821SOL     OW11852   4.382   0.459   4.984  0.0284  0.1901  0.6620
 3821SOL    HW111853   4.476   0.451   4.997  0.2704 -0.2891 -1.0901
 3821SOL    HW211854   4.371   0.463   4.889 -1.7859 -0.9126  0.7715
 3822SOL     OW11855   2.482   5.974   2.743  0.3086 -0.0159  0.1387
 3822SOL    HW111856   2.515   5.958   2.655  0.5934  2.3139 -0.2610
 3822SOL    HW211857   2.541   6.042   2.778 -1.6439  1.3720  0.9039
 3823SOL     OW11858   6.304   6.729   3.479 -0.6677 -0.2689 -0.5553
 3823SOL    HW111859   6.336   6.744   3.390  1.1817  0.7933  0.2250
 3823SOL    HW211860   6.236   6.795   3.492 -0.8235 -0.3174 -1.1173
 3824SOL     OW11861   0.141   3.284   0.460  0.1920 -0.0494 -0.5310
 3824SOL    HW111862   0.117   3.192   0.473 -0.7459  0.3109  0.4357
 3824SOL    HW211863   0.060   3.326   0.431 -0.1855  0.9989  1.7891
 3825SOL     OW11864   3.087   1.073   3.010  0.4804 -0.0307 -0.1082
 3825SOL    HW111865   3.180   1.058   3.023  0.5670 -0.4419 -1.1510
 3825SOL    HW211866   3.044   1.024   3.080  1.0881  1.4580  1.3762
 3826SOL     OW11867   2.501   3.657   3.128  0.2537 -0.2028  0.4720
 3826SOL    HW111868   2.488   3.645   3.034 -1.4824 -1.8992  0.8586
 3826SOL    HW211869   2.592   3.633   3.143  0.2300 -1.0690 -0.6274
 3827SOL     OW11870   5.600   1.322   3.461  0.6070  0.1016 -0.4532
 3827SOL    HW111871   5.604   1.376   3.540  1.9076 -0.6428  0.0222
 3827SOL    HW211872   5.638   1.238   3.487 -0.5682 -0.7704 -1.4071
 3828SOL     OW11873   0.380   3.428   5.904 -0.4478  0.0829 -0.5754
 3828SOL    HW111874   0.395   3.494   5.837 -0.0402 -1.0086 -1.6041
 3828SOL    HW211875   0.455   3.436   5.963 -2.1399  2.9108  1.4531
 3829SOL     OW11876   3.979   6.537   5.296  0.2857  0.2565  0.1825
 3829SOL    HW111877   4.014   6.589   5.224  0.7563  0.4221  0.5194
 3829SOL    HW211878   3.936   6.600   5.353  1.1544  0.3393  0.7661
 3830SOL     OW11879   2.007   2.709   5.643 -0.7524 -0.5268  0.2979
 3830SOL    HW111880   2.079   2.721   5.704 -1.5740 -0.3270  1.2618
 3830SOL    HW211881   2.049   2.691   5.559  0.4832 -4.2907  1.5140
 3831SOL     OW11882   2.962   1.232   1.303 -0.1143  0.5166  0.6092
 3831SOL    HW111883   3.016   1.153   1.294 -2.8809 -1.6536  1.6394
 3831SOL    HW211884   2.986   1.267   1.389  0.3953  0.2380  0.5885
 3832SOL     OW11885   4.581   2.612   6.040 -0.0809 -0.4210  0.2888
 3832SOL    HW111886   4.611   2.559   6.115  1.2830  0.4568  0.4001
 3832SOL    HW211887   4.631   2.579   5.966  1.0052  0.8425  0.4104
 3833SOL     OW11888   1.212   4.658   2.779  0.3647 -0.4589  0.6654
 3833SOL    HW111889   1.285   4.713   2.810  0.1294  0.2637 -0.0217
 3833SOL    HW211890   1.193   4.691   2.691 -0.2980 -1.1468  0.5401
 3834SOL     OW11891   4.347   1.843   3.047  0.2373  0.5571  0.0394
 3834SOL    HW111892   4.432   1.849   3.002 -0.2763 -0.0166 -1.0593
 3834SOL    HW211893   4.355   1.764   3.101  0.4754  0.6191  0.0979
 3835SOL     OW11894   6.489   2.067   0.409 -0.0006 -0.3612 -0.8287
 3835SOL    HW111895   6.427   2.141   0.407 -1.6876 -1.5376  1.6163
 3835SOL    HW211896   6.454   2.005   0.346 -0.3169 -0.3030 -0.7141
 3836SOL     OW11897   2.160   5.628   0.466  0.3285  0.0030 -0.2023
 3836SOL    HW111898   2.245   5.611   0.426 -0.6260  0.5111 -2.6090
 3836SOL    HW211899   2.128   5.707   0.423 -2.3882 -1.5113 -1.2421
 3837SOL     OW11900   4.094   0.244   3.405  0.2005  0.1725  0.4249
 3837SOL    HW111901   4.177   0.213   3.442  1.0276  0.5275 -1.0497
 3837SOL    HW211902   4.043   0.272   3.481  1.0701 -0.8833  1.4397
 3838SOL     OW11903   1.866   1.921   2.586  0.0872  0.1260  0.3902
 3838SOL    HW111904   1.926   1.847   2.575 -0.8493 -0.4905 -0.9053
 3838SOL    HW211905   1.804   1.913   2.513  0.2524  2.4837 -0.1100
 3839SOL     OW11906   3.289   6.568   3.432 -0.0507 -0.1795 -0.6743
 3839SOL    HW111907   3.302   6.661   3.416 -0.0379  0.3569  2.0281
 3839SOL    HW211908   3.377   6.533   3.446 -0.1683 -0.3212 -0.2918
 3840SOL     OW11909   3.507   2.913   1.972  0.5056 -0.0719  0.0388
 3840SOL    HW111910   3.474   2.862   1.898  0.8913  0.6559 -0.6547
 3840SOL    HW211911   3.573   2.857   2.012  1.1428 -0.0285 -0.8963
 3841SOL     OW11912   0.495   0.167   2.432  0.0188  0.1288 -0.1909
 3841SOL    HW111913   0.523   0.216   2.355  0.1770 -0.9991 -0.8719
 3841SOL    HW211914   0.479   0.234   2.499  1.9711  0.9834 -0.5103
 3842SOL     OW11915   4.593   2.915   1.794 -0.9277 -0.1961  0.0251
 3842SOL    HW111916   4.596   2.856   1.718 -0.2249  0.6601 -0.6337
 3842SOL    HW211917   4.543   2.867   1.860  0.6275 -2.0084 -0.0527
 3843SOL     OW11918   4.281   1.957   0.149  0.3215 -0.2184  0.2821
 3843SOL    HW111919   4.241   1.992   0.069 -0.1468  0.4816  0.8148
 3843SOL    HW211920   4.352   1.901   0.118 -0.0472 -0.1924 -0.6336
 3844SOL     OW11921   5.349   1.492   4.525  0.5109  0.6124 -0.7094
 3844SOL    HW111922   5.432   1.445   4.536  0.1570 -0.0555 -0.8221
 3844SOL    HW211923   5.337   1.540   4.606  0.8846  0.5036 -0.5903
 3845SOL     OW11924   3.281   2.284   0.959  0.1360  0.0389  0.5833
 3845SOL    HW111925   3.202   2.325   0.996  0.8413  0.8708  1.2342
 3845SOL    HW211926   3.345   2.289   1.030  1.0580  0.2281 -0.2428
 3846SOL     OW11927   2.289   6.018   3.700 -0.0410  0.0029  0.1801
 3846SOL    HW111928   2.379   6.050   3.704  0.5663 -1.2455 -1.7680
 3846SOL    HW211929   2.273   6.005   3.606 -2.0356 -0.3914  0.5377
 3847SOL     OW11930   1.174   5.788   4.611  0.1182  0.4674 -0.6563
 3847SOL    HW111931   1.165   5.714   4.671  0.6707  1.1307  0.2757
 3847SOL    HW211932   1.084   5.812   4.590 -0.0884  0.1609 -0.1588
 3848SOL     OW11933   5.490   0.199   2.380  0.0963 -0.3434  0.8276
 3848SOL    HW111934   5.570   0.151   2.362 -0.0898 -0.2682 -0.2566
 3848SOL    HW211935   5.443   0.200   2.297 -1.7210 -1.6406  1.7518
 3849SOL     OW11936   2.829   3.601   2.905  0.0554  0.7092  0.9149
 3849SOL    HW111937   2.746   3.639   2.874  0.2146  0.2366 -0.1190
 3849SOL    HW211938   2.887   3.677   2.914 -0.0432  0.8859  0.1884
 3850SOL     OW11939   6.808   4.460   4.431  0.0655 -0.5392  0.3404
 3850SOL    HW111940   6.898   4.459   4.463 -0.3094  1.2361  1.6004
 3850SOL    HW211941   6.796   4.550   4.398 -1.8268 -0.1079  2.0610
 3851SOL     OW11942   2.891   6.369   5.357  0.6375  0.0294  0.1178
 3851SOL    HW111943   2.877   6.344   5.448 -1.3362 -0.8617 -0.3707
 3851SOL    HW211944   2.919   6.288   5.314  0.9914  0.3091 -0.1845
 3852SOL     OW11945   5.875   4.764   1.413  0.1164 -0.3727  0.1102
 3852SOL    HW111946   5.801   4.818   1.439  0.2941 -0.4236  0.7411
 3852SOL    HW211947   5.853   4.733   1.325  0.1147  0.9092 -0.3620
 3853SOL     OW11948   6.259   6.399   3.788 -0.0500  0.2170 -0.2718
 3853SOL    HW111949   6.230   6.441   3.706  0.6555 -1.4311 -1.4118
 3853SOL    HW211950   6.354   6.399   3.782 -0.0016 -0.1770  0.4247
 3854SOL     OW11951   0.244   2.324   0.347  0.3672 -0.2074  0.3785
 3854SOL    HW111952   0.283   2.397   0.396 -0.1265  0.1269  0.2887
 3854SOL    HW211953   0.152   2.324   0.374  0.4810 -1.1477  0.7880
 3855SOL     OW11954   4.585   6.726   3.874 -0.3776 -0.6037  0.2904
 3855SOL    HW111955   4.522   6.795   3.895  0.4760  0.4729 -0.4867
 3855SOL    HW211956   4.554   6.688   3.792 -0.0100 -0.0242 -0.1306
 3856SOL     OW11957   1.495   3.092   6.113 -0.1765 -0.4627 -0.0779
 3856SOL    HW111958   1.544   3.168   6.144  1.0931 -1.7519  1.2440
 3856SOL    HW211959   1.547   3.016   6.143 -0.5024 -1.8609 -2.7252
 3857SOL     OW11960   6.305   5.571   4.963 -0.2663 -0.4208 -0.0050
 3857SOL    HW111961   6.220   5.599   4.998 -1.5001  0.6578 -3.4925
 3857SOL    HW211962   6.360   5.560   5.041 -3.4353 -0.8280  2.3923
 3858SOL     OW11963   4.212   3.420   5.642  0.1020  0.1582 -0.0488
 3858SOL    HW111964   4.168   3.335   5.641  2.0362 -0.9020  0.4068
 3858SOL    HW211965   4.237   3.435   5.551  0.1653  0.0218 -0.0540
 3859SOL     OW11966   4.923   2.716   4.266  0.4048 -0.1728 -0.4982
 3859SOL    HW111967   5.006   2.688   4.305 -0.0869  0.4103  1.0508
 3859SOL    HW211968   4.870   2.743   4.341 -1.2881 -0.7742 -1.4406
 3860SOL     OW11969   1.030   3.498   3.726 -0.5803  0.1072 -0.3126
 3860SOL    HW111970   0.992   3.569   3.778 -1.1446 -0.8586  0.6394
 3860SOL    HW211971   1.062   3.435   3.791  0.0765 -0.4323 -1.1335
 3861SOL     OW11972   6.489   3.846   6.057  0.1799  0.2507  0.5275
 3861SOL    HW111973   6.418   3.791   6.090 -0.2385  0.1842 -0.4515
 3861SOL    HW211974   6.517   3.803   5.976  0.2722  1.1310  0.0773
 3862SOL     OW11975   5.163   0.238   5.368  0.1453 -0.2808  0.3490
 3862SOL    HW111976   5.163   0.202   5.457 -1.3839 -0.5654  0.2636
 3862SOL    HW211977   5.081   0.287   5.362  1.4634  2.0298 -0.0459
 3863SOL     OW11978   0.249   6.166   5.530 -0.1105  0.1454  0.2448
 3863SOL    HW111979   0.187   6.239   5.544 -0.5059  0.1076 -1.1737
 3863SOL    HW211980   0.328   6.208   5.496  0.2963  0.0787  1.0795
 3864SOL     OW11981   0.893   2.200   1.560  0.2037  0.8133 -0.0897
 3864SOL    HW111982   0.898   2.112   1.524 -1.2650  0.6716  0.0193
 3864SOL    HW211983   0.982   2.218   1.590  0.5049 -0.6648 -0.0293
 3865SOL     OW11984   4.890   2.778   1.596  0.1601 -0.5337 -0.9367
 3865SOL    HW111985   4.854   2.866   1.585 -1.8007 -0.8219  1.9133
 3865SOL    HW211986   4.815   2.725   1.624  2.1336 -1.9046  2.3726
 3866SOL     OW11987   1.911   4.544   6.667  0.3867  0.5700  0.6285
 3866SOL    HW111988   1.833   4.489   6.668  0.1896  0.7705 -1.0163
 3866SOL    HW211989   1.878   4.633   6.653  0.9343  0.4449 -2.0099
 3867SOL     OW11990   1.355   4.000   3.352 -0.4995  0.7665 -0.2604
 3867SOL    HW111991   1.402   3.930   3.307 -0.1074 -0.3242  1.7219
 3867SOL    HW211992   1.266   3.967   3.361  0.0746 -0.3802  2.2268
 3868SOL     OW11993   4.764   1.498   3.847  0.0351 -0.7936  0.3491
 3868SOL    HW111994   4.799   1.580   3.810 -0.4214 -1.0803 -0.7690
 3868SOL    HW211995   4.809   1.489   3.931 -1.2791  1.5928  1.4340
 3869SOL     OW11996   2.623   1.960   5.024 -0.0242  0.0737  0.6256
 3869SOL    HW111997   2.693   1.897   5.037 -0.7695 -0.7460  0.7269
 3869SOL    HW211998   2.560   1.941   5.094 -1.8658 -1.3067 -1.2962
 3870SOL     OW11999   4.233   1.254   0.369  0.1330  0.1521 -0.0611
 3870SOL    HW112000   4.311   1.304   0.391  0.3238  0.9744 -2.4009
 3870SOL    HW212001   4.178   1.262   0.447  1.4872  1.3258  0.8375
 3871SOL     OW12002   6.765   3.209   1.689 -0.2336 -0.9080 -0.1585
 3871SOL    HW112003   6.841   3.179   1.639 -2.7601 -3.8771 -2.6261
 3871SOL    HW212004   6.724   3.275   1.633  0.1517  0.2816  0.9121
 3872SOL     OW12005   0.378   6.730   4.439  0.7057 -0.4803  0.3898
 3872SOL    HW112006   0.383   6.724   4.344 -0.2232  0.1089  0.2945
 3872SOL    HW212007   0.334   6.813   4.456  3.2659  0.7969  1.4075
 3873SOL     OW12008   4.733   3.655   2.110 -0.5626 -0.0010  0.0381
 3873SOL    HW112009   4.692   3.623   2.191 -2.1663 -0.1194 -0.7941
 3873SOL    HW212010   4.775   3.737   2.136 -1.0133 -0.0598  1.0078
 3874SOL     OW12011   3.664   1.629   6.236  0.4317 -0.5131  0.3020
 3874SOL    HW112012   3.600   1.579   6.186 -1.1376  0.1281  1.5690
 3874SOL    HW212013   3.675   1.710   6.186 -0.4393 -0.2619  0.4879
 3875SOL     OW12014   1.243   0.040   2.704 -0.4235  0.2146 -1.0764
 3875SOL    HW112015   1.148   0.052   2.711 -0.6659 -0.1209 -3.2175
 3875SOL    HW212016   1.259   0.023   2.611  1.4825 -1.9358 -0.4558
 3876SOL     OW12017   6.057   5.565   2.635  0.4279  0.2284  0.4195
 3876SOL    HW112018   6.064   5.486   2.688  0.3093  1.7162  2.7913
 3876SOL    HW212019   5.966   5.594   2.644  0.7120  1.1722  0.4326
 3877SOL     OW12020   3.802   0.613   2.852  0.2856 -0.5107 -0.3012
 3877SOL    HW112021   3.803   0.708   2.854  2.6150 -0.4713  2.5125
 3877SOL    HW212022   3.740   0.588   2.920 -2.0315 -1.1485 -2.4907
 3878SOL     OW12023   0.305   0.815   3.972  0.6806 -0.0281  0.0076
 3878SOL    HW112024   0.279   0.789   4.061  0.2714  1.8041  0.4532
 3878SOL    HW212025   0.270   0.746   3.916 -0.7935 -0.1951  1.0820
 3879SOL     OW12026   3.924   6.072   5.369  0.4169 -0.1260 -0.1178
 3879SOL    HW112027   3.966   6.078   5.454 -2.6424 -0.3752  1.5710
 3879SOL    HW212028   3.896   5.981   5.362 -2.8219  0.6929  0.5604
 3880SOL     OW12029   1.408   6.219   5.931  0.1310  0.2870  0.1214
 3880SOL    HW112030   1.492   6.182   5.904  0.0399 -0.7063  1.0943
 3880SOL    HW212031   1.352   6.142   5.944 -1.5037  0.9831 -2.2255
 3881SOL     OW12032   3.177   5.306   6.569 -0.0387  0.4959  0.1656
 3881SOL    HW112033   3.255   5.332   6.521 -0.6193 -0.4687 -1.3599
 3881SOL    HW212034   3.209   5.286   6.657  1.8857 -1.9990 -0.9613
 3882SOL     OW12035   3.262   6.726   0.760 -0.1613  0.7569 -0.0277
 3882SOL    HW112036   3.222   6.656   0.811  1.8468 -1.2990 -1.0895
 3882SOL    HW212037   3.276   6.687   0.673  0.4133  2.7157 -0.8742
 3883SOL     OW12038   2.646   3.148   3.239 -0.0211  0.3434  0.3607
 3883SOL    HW112039   2.700   3.210   3.190 -0.2608 -0.9169 -1.5907
 3883SOL    HW212040   2.706   3.109   3.302  0.4588  1.5326  0.6811
 3884SOL     OW12041   4.485   3.659   2.459 -0.1563  0.1591  0.2542
 3884SOL    HW112042   4.494   3.704   2.375 -0.6865 -0.1167  0.0415
 3884SOL    HW212043   4.570   3.670   2.502  0.1237  0.2900 -0.3226
 3885SOL     OW12044   1.089   3.981   3.263  0.0619  0.3849  0.1123
 3885SOL    HW112045   1.034   3.966   3.186  1.9616 -0.7299 -1.1258
 3885SOL    HW212046   1.082   4.075   3.280  0.0509  0.7634 -1.8062
 3886SOL     OW12047   2.848   3.527   3.690  0.1651  0.0166 -0.6265
 3886SOL    HW112048   2.866   3.454   3.749  0.3525  1.0889  0.7023
 3886SOL    HW212049   2.829   3.486   3.606  0.7443 -1.5279 -0.0413
 3887SOL     OW12050   1.581   1.846   6.483  0.7363 -0.0428  0.1816
 3887SOL    HW112051   1.600   1.777   6.419 -0.6209 -0.0164 -0.2794
 3887SOL    HW212052   1.662   1.898   6.487  1.5959 -1.3440  0.1543
 3888SOL     OW12053   3.972   0.400   3.147 -0.4928  0.1791 -0.7913
 3888SOL    HW112054   3.886   0.395   3.188 -0.7409  0.9461 -1.1929
 3888SOL    HW212055   4.010   0.313   3.159 -1.6375 -0.4119 -1.2847
 3889SOL     OW12056   4.430   5.312   1.590 -0.3963  0.1442 -0.1369
 3889SOL    HW112057   4.499   5.284   1.650  0.3728 -0.7397 -1.3867
 3889SOL    HW212058   4.406   5.400   1.620  0.5473  0.0551  0.9430
 3890SOL     OW12059   6.069   3.682   5.621  0.3301  0.3562  0.3181
 3890SOL    HW112060   6.144   3.630   5.651  0.3375 -0.8549 -1.5969
 3890SOL    HW212061   5.992   3.633   5.651  0.3429 -0.4857 -0.9118
 3891SOL     OW12062   5.109   2.087   4.256 -0.4056 -0.3051  0.0782
 3891SOL    HW112063   5.051   2.011   4.251  0.1131 -0.6481 -0.8325
 3891SOL    HW212064   5.094   2.123   4.344 -0.3238 -1.7229  0.6924
 3892SOL     OW12065   3.948   4.975   0.739  0.0233  0.6148 -0.2180
 3892SOL    HW112066   3.967   5.013   0.824 -0.3912  0.3007  0.0219
 3892SOL    HW212067   3.871   5.023   0.708 -1.9484 -1.4626  1.1039
 3893SOL     OW12068   5.827   6.081   1.625  0.0937  0.0900  0.0175
 3893SOL    HW112069   5.756   6.116   1.573  2.5518  2.1012 -2.2907
 3893SOL    HW212070   5.857   6.003   1.577  1.4176  1.1000 -0.8728
 3894SOL     OW12071   0.166   3.404   1.458  0.3017  0.2013  0.1643
 3894SOL    HW112072   0.105   3.362   1.398  0.6392  2.9401 -2.2943
 3894SOL    HW212073   0.253   3.379   1.425  0.5171  0.2168  0.6990
 3895SOL     OW12074   6.564   0.750   6.672 -0.2649  0.3129  0.0871
 3895SOL    HW112075   6.494   0.777   6.613  0.8120  0.7785 -1.0183
 3895SOL    HW212076   6.600   0.832   6.706  0.9290  0.1801 -0.7984
 3896SOL     OW12077   0.005   6.736   5.360  0.3879 -0.0011  0.4836
 3896SOL    HW112078   0.085   6.764   5.406  1.0236  0.3843 -0.8028
 3896SOL    HW212079  -0.063   6.795   5.392  0.5562 -0.4553  1.7432
 3897SOL     OW12080   1.734   4.705   3.143 -0.3869  0.2684 -0.1810
 3897SOL    HW112081   1.814   4.686   3.093  0.6375 -1.9461  2.0502
 3897SOL    HW212082   1.663   4.699   3.079  1.0514  0.3573 -1.8677
 3898SOL     OW12083   4.432   3.299   2.198  0.0293  0.1363 -0.1037
 3898SOL    HW112084   4.427   3.372   2.259 -0.7587  0.1669 -0.1936
 3898SOL    HW212085   4.431   3.341   2.111 -0.0699  0.0322 -0.1521
 3899SOL     OW12086   5.773   1.901   6.490 -0.1520 -0.5541 -0.3772
 3899SOL    HW112087   5.767   1.819   6.539  0.0467 -0.5776 -0.3948
 3899SOL    HW212088   5.819   1.961   6.549  0.0336 -0.5649 -0.5119
 3900SOL     OW12089   0.628   4.083   4.247  0.6219 -0.0411 -0.2143
 3900SOL    HW112090   0.645   3.989   4.249  0.4982 -0.0777 -0.8947
 3900SOL    HW212091   0.697   4.119   4.192 -0.0630  0.1065 -0.9835
 3901SOL     OW12092   1.963   0.326   4.677  0.2725  0.2034  0.3678
 3901SOL    HW112093   1.994   0.360   4.593 -0.4849 -1.4255 -0.6210
 3901SOL    HW212094   1.871   0.351   4.681 -0.0446 -0.8705  0.0652
 3902SOL     OW12095   0.314   0.654   3.104  0.4971 -0.0840  0.2448
 3902SOL    HW112096   0.404   0.638   3.075  2.2378  3.4295  2.9934
 3902SOL    HW212097   0.309   0.613   3.190 -0.3807  0.1367  0.3082
 3903SOL     OW12098   4.990   4.425   1.770  0.8039 -0.3271  0.4753
 3903SOL    HW112099   5.006   4.330   1.771  0.8323 -0.3356 -0.2293
 3903SOL    HW212100   5.057   4.460   1.711  0.2488  0.0299  0.0509
 3904SOL     OW12101   6.440   6.571   6.409 -0.0192 -0.0259 -0.1903
 3904SOL    HW112102   6.453   6.503   6.475  2.1664  1.2346  0.7857
 3904SOL    HW212103   6.492   6.542   6.335  2.9367  1.5698  1.0880
 3905SOL     OW12104   0.913   4.231   5.296 -0.0281  0.2788  0.2102
 3905SOL    HW112105   0.862   4.185   5.362  1.0253  0.0595  0.9045
 3905SOL    HW212106   0.872   4.208   5.213 -0.3562 -0.8012  0.6537
 3906SOL     OW12107   3.316   2.040   4.680 -0.3272 -0.0504 -0.7471
 3906SOL    HW112108   3.303   2.130   4.708  1.4002 -0.2497  0.9891
 3906SOL    HW212109   3.242   1.992   4.717  0.6844  0.0983  1.6386
 3907SOL     OW12110   0.001   3.182   4.328  0.7714 -0.1783  0.3050
 3907SOL    HW112111  -0.092   3.159   4.320  0.4487  0.8893  0.8553
 3907SOL    HW212112   0.039   3.157   4.243  0.0464 -0.8725  0.1749
 3908SOL     OW12113   5.535   5.768   1.502  0.3381 -0.1078 -0.1406
 3908SOL    HW112114   5.618   5.810   1.479  1.3945 -1.6504  0.6389
 3908SOL    HW212115   5.556   5.714   1.578 -1.1570 -1.2862 -0.5142
 3909SOL     OW12116   2.680   1.084   0.230 -0.6589  0.0876  0.0130
 3909SOL    HW112117   2.773   1.106   0.233 -0.8503  1.2153 -1.4696
 3909SOL    HW212118   2.679   0.990   0.213  0.1641 -0.5422  2.8392
 3910SOL     OW12119   0.500   1.409   3.155  0.1663 -0.1929  0.3085
 3910SOL    HW112120   0.583   1.393   3.111 -0.4059 -0.5219 -0.6852
 3910SOL    HW212121   0.463   1.486   3.112 -1.0410 -1.3302 -0.7905
 3911SOL     OW12122   4.808   1.230   6.416  0.0558  0.2629 -0.1237
 3911SOL    HW112123   4.724   1.224   6.460  0.1932  0.7112  0.2026
 3911SOL    HW212124   4.866   1.174   6.467  0.4877  1.6104  0.9276
 3912SOL     OW12125   0.268   3.134   3.148 -0.0020  0.0911  0.2209
 3912SOL    HW112126   0.322   3.190   3.092  0.6279 -0.0503  0.6775
 3912SOL    HW212127   0.292   3.160   3.237 -1.3175  0.6278  0.4409
 3913SOL     OW12128   2.012   0.217   5.085 -0.2069 -0.0497 -0.1300
 3913SOL    HW112129   2.046   0.290   5.033 -0.8232  0.5072  0.2355
 3913SOL    HW212130   2.039   0.139   5.036  1.6496  0.3482  0.1735
 3914SOL     OW12131   4.785   1.128   1.547  0.0995 -0.1512  0.4847
 3914SOL    HW112132   4.755   1.043   1.516 -0.8262  1.0657 -2.2414
 3914SOL    HW212133   4.704   1.178   1.561  0.6613  1.1072 -0.6011
 3915SOL     OW12134   6.615   1.001   4.421  0.3355 -0.1127  0.4796
 3915SOL    HW112135   6.573   0.971   4.502  0.4100 -2.9568 -0.4296
 3915SOL    HW212136   6.621   0.922   4.367  1.5919  1.4164 -1.7408
 3916SOL     OW12137   5.864   3.155   6.297 -0.1380  0.4681 -0.0976
 3916SOL    HW112138   5.869   3.247   6.273 -0.9486  0.7443  0.7437
 3916SOL    HW212139   5.786   3.148   6.351  0.4952 -0.5219  0.7323
 3917SOL     OW12140   3.131   5.490   0.029 -0.0842  0.2456  0.4202
 3917SOL    HW112141   3.105   5.511   0.119 -0.1531  1.3889  0.1487
 3917SOL    HW212142   3.225   5.472   0.035 -0.0584  0.4570  0.7044
 3918SOL     OW12143   3.007   4.800   6.492  0.1402 -0.0284 -0.0740
 3918SOL    HW112144   3.057   4.719   6.491  0.5729  0.2416 -0.7867
 3918SOL    HW212145   2.962   4.800   6.577 -0.6982 -1.5054 -0.4905
 3919SOL     OW12146   1.883   5.137   4.296 -0.3055 -0.3530 -0.5766
 3919SOL    HW112147   1.830   5.204   4.340 -0.1954  0.3977 -1.5542
 3919SOL    HW212148   1.889   5.066   4.360  1.8404  1.6419  1.6409
 3920SOL     OW12149   5.653   0.899   4.297  0.5597 -0.6385 -0.2866
 3920SOL    HW112150   5.703   0.845   4.359  0.0322 -0.4844  0.2911
 3920SOL    HW212151   5.701   0.981   4.293 -0.5720  0.2007  1.6935
 3921SOL     OW12152   0.581   3.319   5.180 -1.2908 -0.5832 -0.1126
 3921SOL    HW112153   0.586   3.404   5.223 -2.1366 -1.0139  0.8755
 3921SOL    HW212154   0.660   3.315   5.126 -0.3421  0.1058  1.1641
 3922SOL     OW12155   4.359   1.659   2.634  0.1050  0.1161  0.1708
 3922SOL    HW112156   4.452   1.643   2.617 -0.3725 -1.4540 -1.2649
 3922SOL    HW212157   4.313   1.606   2.569 -1.8496 -0.8763  2.1940
 3923SOL     OW12158   1.349   4.838   6.459 -0.2596  0.5628 -0.1563
 3923SOL    HW112159   1.270   4.828   6.512 -0.3153  1.0196 -0.1471
 3923SOL    HW212160   1.396   4.756   6.471 -1.2656 -0.1752 -1.0536
 3924SOL     OW12161   5.880   6.336   4.882 -0.0843 -0.5925  0.0933
 3924SOL    HW112162   5.925   6.318   4.800  1.5551  0.2502  0.7721
 3924SOL    HW212163   5.939   6.303   4.950  0.0503  1.4785  1.0613
 3925SOL     OW12164   6.678   0.338   6.510  0.2135  0.1219  0.0261
 3925SOL    HW112165   6.611   0.277   6.541 -0.1971  1.5507  2.1887
 3925SOL    HW212166   6.760   0.292   6.525 -0.1828 -1.1539 -1.4770
 3926SOL     OW12167   0.463   5.844   1.070 -0.3163 -0.4393  0.5009
 3926SOL    HW112168   0.494   5.828   1.159  0.8176  2.3344  0.7025
 3926SOL    HW212169   0.505   5.777   1.017 -0.3830 -1.6471  1.9158
 3927SOL     OW12170   5.361   1.965   3.206 -0.3001 -0.3435 -0.2530
 3927SOL    HW112171   5.321   1.878   3.215 -2.2348  0.2950 -1.9996
 3927SOL    HW212172   5.408   1.962   3.122  0.2790  0.0865  0.0437
 3928SOL     OW12173   5.272   2.937   2.504  0.1361 -0.7852 -0.5653
 3928SOL    HW112174   5.337   2.961   2.570 -0.3559  0.4246 -0.4854
 3928SOL    HW212175   5.292   2.993   2.429  0.2493 -1.6448 -1.1939
 3929SOL     OW12176   3.207   2.765   6.230 -0.1251  0.4931 -0.7795
 3929SOL    HW112177   3.296   2.773   6.262 -0.3292 -0.7404  0.1681
 3929SOL    HW212178   3.191   2.670   6.226 -1.6922  0.6918 -0.0239
 3930SOL     OW12179   6.817   5.640   0.168 -0.2378 -0.5945 -0.0401
 3930SOL    HW112180   6.807   5.545   0.175  0.9333 -0.6671  1.1465
 3930SOL    HW212181   6.848   5.667   0.255  1.0088  0.6565 -0.8268
 3931SOL     OW12182   4.933   0.037   3.444  0.0803  0.0381 -0.2951
 3931SOL    HW112183   4.977  -0.048   3.434  0.4319  0.3749 -1.9686
 3931SOL    HW212184   4.997   0.101   3.415 -0.0017  0.9660  1.4323
 3932SOL     OW12185   3.164   6.221   3.972 -0.4323 -0.1499 -0.0209
 3932SOL    HW112186   3.253   6.187   3.985 -0.9110 -0.7824  2.0007
 3932SOL    HW212187   3.162   6.248   3.880  1.3298 -1.6558 -0.5720
 3933SOL     OW12188   5.506   6.252   2.577 -0.1239 -0.8215  0.4892
 3933SOL    HW112189   5.451   6.317   2.533 -0.6481 -1.6871 -0.1663
 3933SOL    HW212190   5.526   6.291   2.662 -3.1385 -1.1464  1.4443
 3934SOL     OW12191   4.163   0.441   1.927  0.3563 -0.1963  0.4243
 3934SOL    HW112192   4.229   0.423   1.994  0.4746  0.5453  0.5086
 3934SOL    HW212193   4.142   0.533   1.938 -2.1325 -0.8143  1.6975
 3935SOL     OW12194   4.198   0.164   6.440  0.1249  0.6601 -0.2790
 3935SOL    HW112195   4.285   0.181   6.477 -0.4502  0.9240  0.9967
 3935SOL    HW212196   4.195   0.069   6.430 -0.3084  0.3772  2.0101
 3936SOL     OW12197   2.318   0.214   3.895  0.6286  0.3078 -0.2989
 3936SOL    HW112198   2.293   0.181   3.809  0.0046 -0.2285  0.0737
 3936SOL    HW212199   2.380   0.149   3.928 -0.1947 -0.2354  0.2174
 3937SOL     OW12200   5.280   1.382   2.298  0.2101 -0.2922 -0.3516
 3937SOL    HW112201   5.346   1.451   2.299 -0.4133  0.3560  2.1978
 3937SOL    HW212202   5.270   1.360   2.205  1.4037  2.0714 -1.1146
 3938SOL     OW12203   5.302   3.324   4.248  0.0960 -0.1348 -0.2016
 3938SOL    HW112204   5.224   3.339   4.302  0.0128  0.7432 -0.5558
 3938SOL    HW212205   5.371   3.306   4.312 -0.5691 -1.8708  0.0868
 3939SOL     OW12206   4.610   6.226   5.749 -0.0897  0.1530  0.3138
 3939SOL    HW112207   4.601   6.320   5.766 -0.6933  0.1553  0.0037
 3939SOL    HW212208   4.557   6.210   5.671  0.6399 -0.3115 -0.0965
 3940SOL     OW12209   4.302   3.597   2.711 -0.1212 -0.0456 -0.1356
 3940SOL    HW112210   4.312   3.669   2.774  0.2247  0.6216 -0.9317
 3940SOL    HW212211   4.243   3.633   2.645  0.3173 -0.3814 -0.7099
 3941SOL     OW12212   5.282   0.352   3.282 -0.6760 -0.1472  0.2560
 3941SOL    HW112213   5.293   0.418   3.214 -1.4238  1.5601  1.7095
 3941SOL    HW212214   5.188   0.335   3.285 -0.3547 -2.7228 -1.3223
 3942SOL     OW12215   4.351   1.324   3.383  0.1045  0.2450 -0.1726
 3942SOL    HW112216   4.336   1.278   3.301  1.7216  0.7485 -0.7728
 3942SOL    HW212217   4.314   1.266   3.450  0.7179 -1.2093 -1.0503
 3943SOL     OW12218   6.742   2.192   5.203 -0.0860  0.5364  0.1151
 3943SOL    HW112219   6.693   2.274   5.200  0.3480  0.8364  0.8811
 3943SOL    HW212220   6.691   2.137   5.262  0.4842  0.8501  0.9157
 3944SOL     OW12221   5.367   1.148   4.318 -0.2511  0.4688  0.4167
 3944SOL    HW112222   5.278   1.160   4.351 -0.2134  1.1244  0.3076
 3944SOL    HW212223   5.423   1.170   4.392 -0.1738  1.3917  0.1027
 3945SOL     OW12224   2.661   3.395   1.266 -0.6573 -0.7483 -0.2515
 3945SOL    HW112225   2.742   3.369   1.309  0.3069  2.3571  0.0578
 3945SOL    HW212226   2.688   3.422   1.178 -0.9863  1.9562  0.4091
 3946SOL     OW12227   1.335   5.893   0.807 -0.2362 -0.0735 -0.1391
 3946SOL    HW112228   1.285   5.934   0.736 -0.0236  0.9763  0.2987
 3946SOL    HW212229   1.286   5.915   0.887  0.6058  0.4978  0.2391
 3947SOL     OW12230   1.626   1.357   0.835 -0.6630  0.3081 -0.4801
 3947SOL    HW112231   1.581   1.441   0.842 -0.3223  0.4977 -0.5392
 3947SOL    HW212232   1.687   1.368   0.763 -1.1198 -0.2306 -0.9639
 3948SOL     OW12233   0.054   0.193   6.544  0.0571 -0.1334 -0.1270
 3948SOL    HW112234   0.079   0.124   6.483  0.5201  0.7326 -0.9619
 3948SOL    HW212235   0.137   0.236   6.566 -0.3098  0.7493 -0.3899
 3949SOL     OW12236   4.086   3.922   0.131  0.1795  0.0954 -0.2132
 3949SOL    HW112237   4.129   3.849   0.087 -1.6154 -0.6123 -0.9173
 3949SOL    HW212238   4.055   3.885   0.214 -0.6503  0.0459 -0.5304
 3950SOL     OW12239   6.685   1.242   4.520  0.0956 -0.2763  0.0433
 3950SOL    HW112240   6.659   1.155   4.488 -1.3810  0.1047  0.1109
 3950SOL    HW212241   6.772   1.229   4.557 -0.1226 -1.7447  0.1085
 3951SOL     OW12242   2.618   6.827   4.919  0.1944 -0.0937  0.1938
 3951SOL    HW112243   2.569   6.747   4.938  2.3679 -1.4339  0.4959
 3951SOL    HW212244   2.705   6.811   4.954  0.8949  2.1763 -0.3386
 3952SOL     OW12245   1.934   5.056   0.451  0.0751 -0.3141 -0.3487
 3952SOL    HW112246   1.940   5.073   0.545  2.4673 -0.3154 -0.4408
 3952SOL    HW212247   1.841   5.068   0.430 -0.4682 -0.1014  1.9540
 3953SOL     OW12248   3.914   0.762   4.335 -1.0048 -0.0504  0.1968
 3953SOL    HW112249   3.857   0.798   4.403 -0.6418 -2.2513  1.7704
 3953SOL    HW212250   3.928   0.671   4.361 -0.4632 -0.8634 -2.6244
 3954SOL     OW12251   6.422   3.292   2.857  0.1132 -0.2181  0.1706
 3954SOL    HW112252   6.439   3.383   2.834 -0.1068 -0.1845  0.1346
 3954SOL    HW212253   6.449   3.285   2.949 -1.3443  0.2993  0.6658
 3955SOL     OW12254   2.317   0.162   6.020  0.3869 -0.6124 -0.2697
 3955SOL    HW112255   2.304   0.190   6.111 -0.7024 -1.4162 -0.1603
 3955SOL    HW212256   2.233   0.123   5.994  1.5044 -2.8990 -0.7159
 3956SOL     OW12257   5.917   4.300   0.186  0.6838 -0.3447 -0.1848
 3956SOL    HW112258   5.965   4.223   0.152  0.4472 -0.7200  0.3292
 3956SOL    HW212259   5.865   4.266   0.258  1.1785  0.4514  0.5692
 3957SOL     OW12260   0.697   3.378   4.467  0.0645  0.2297  0.0205
 3957SOL    HW112261   0.611   3.338   4.474  0.1141  0.0999 -0.0977
 3957SOL    HW212262   0.738   3.334   4.392  0.7038 -0.5783  0.8348
 3958SOL     OW12263   2.117   3.700   5.741 -0.5732 -0.3344  1.1018
 3958SOL    HW112264   2.120   3.610   5.771  0.2332 -0.7636 -0.1912
 3958SOL    HW212265   2.166   3.749   5.807 -0.4149 -0.9485  1.4478
 3959SOL     OW12266   0.068   1.558   2.484  0.0160  0.2090  0.2066
 3959SOL    HW112267   0.160   1.557   2.458  0.1363 -2.0788  0.4794
 3959SOL    HW212268   0.071   1.558   2.580 -0.1684 -1.8664  0.2576
 3960SOL     OW12269   4.515   3.507   1.732  0.0359  0.2642  0.0661
 3960SOL    HW112270   4.434   3.468   1.698 -0.7073  0.2373  1.8063
 3960SOL    HW212271   4.489   3.594   1.761  0.8009  0.5251 -0.0228
 3961SOL     OW12272   0.858   1.138   1.225 -0.1049 -0.0826  0.4084
 3961SOL    HW112273   0.932   1.134   1.165  0.5869 -1.1915  1.2928
 3961SOL    HW212274   0.848   1.231   1.244 -0.7003  0.3718 -1.8068
 3962SOL     OW12275   1.588   5.671   3.059  0.3249  0.7469  0.3511
 3962SOL    HW112276   1.529   5.606   3.097  2.4072 -1.9142 -0.6507
 3962SOL    HW212277   1.563   5.674   2.966  0.3108  1.3220  0.3708
 3963SOL     OW12278   0.146   3.473   6.237  0.2175  0.7612 -0.0143
 3963SOL    HW112279   0.062   3.492   6.278 -0.2491 -1.9652  0.5112
 3963SOL    HW212280   0.206   3.458   6.310  1.0213  2.0242 -0.3839
 3964SOL     OW12281   4.311   2.559   6.198  0.4362 -0.5823 -0.2689
 3964SOL    HW112282   4.299   2.565   6.293  1.8516 -2.1614  0.0553
 3964SOL    HW212283   4.249   2.491   6.170 -0.0522 -0.0469 -0.5021
 3965SOL     OW12284   0.536   5.154   5.630 -0.4022  0.5853  0.1475
 3965SOL    HW112285   0.454   5.179   5.674 -0.6860  0.4940 -0.3203
 3965SOL    HW212286   0.586   5.109   5.698 -1.6766 -1.3595 -0.0912
 3966SOL     OW12287   3.428   6.820   3.335 -0.3153  0.2724 -0.0124
 3966SOL    HW112288   3.499   6.802   3.396 -0.9476  0.7666  0.8801
 3966SOL    HW212289   3.472   6.826   3.249  0.3699 -1.9679  0.1227
 3967SOL     OW12290   1.786   5.905   5.543 -0.1152 -0.4284  0.0888
 3967SOL    HW112291   1.815   5.989   5.509  0.3097 -0.4152  0.4749
 3967SOL    HW212292   1.786   5.847   5.466  2.6458 -0.8885  0.3330
 3968SOL     OW12293   4.245   5.776   4.230  0.1311  0.7690 -0.6226
 3968SOL    HW112294   4.230   5.724   4.151 -0.1205  1.4895 -1.0568
 3968SOL    HW212295   4.288   5.715   4.291  0.5225  0.2633 -1.3850
 3969SOL     OW12296   1.212   6.703   2.200  0.0081 -0.3855 -0.7482
 3969SOL    HW112297   1.255   6.686   2.284 -1.2103 -0.9691 -0.2211
 3969SOL    HW212298   1.280   6.686   2.135  1.2185  0.8703  0.1227
 3970SOL     OW12299   3.786   1.963   3.787  0.3179 -0.6120  0.1641
 3970SOL    HW112300   3.856   1.911   3.749  0.1521 -0.1479 -0.8070
 3970SOL    HW212301   3.826   2.006   3.863  1.0059 -0.5684 -0.2205
 3971SOL     OW12302   2.087   3.773   4.632 -0.0917  0.1650  0.5823
 3971SOL    HW112303   2.154   3.751   4.567  0.4252  1.3548  0.6868
 3971SOL    HW212304   2.123   3.743   4.715 -0.2835 -0.3950  0.4672
 3972SOL     OW12305   1.594   1.359   0.317  0.1377 -0.4844 -0.0759
 3972SOL    HW112306   1.542   1.278   0.316 -1.5224  0.4612  1.6099
 3972SOL    HW212307   1.530   1.427   0.336  2.1987  0.5490  4.2849
 3973SOL     OW12308   0.224   3.951   1.486 -0.3884 -0.4730 -0.3447
 3973SOL    HW112309   0.287   3.929   1.556  0.7515  0.4321 -1.0400
 3973SOL    HW212310   0.253   4.037   1.455 -0.8158 -0.9033 -2.0005
 3974SOL     OW12311   2.310   4.741   3.121  0.0747  0.5130 -0.4983
 3974SOL    HW112312   2.313   4.674   3.190 -2.1881 -0.0395 -0.8406
 3974SOL    HW212313   2.381   4.801   3.142 -0.1849  0.0448  1.9829
 3975SOL     OW12314   6.304   2.026   5.679 -0.2790  0.3600  0.4058
 3975SOL    HW112315   6.317   1.943   5.632  2.0295  0.8103  0.1019
 3975SOL    HW212316   6.303   2.092   5.610 -2.4071  0.6158  0.6220
 3976SOL     OW12317   3.428   5.741   5.585  0.7815 -0.9784 -0.0534
 3976SOL    HW112318   3.355   5.797   5.612  1.4489  0.3972 -0.9852
 3976SOL    HW212319   3.482   5.733   5.663 -0.3336 -2.0421  0.6611
 3977SOL     OW12320   4.129   0.347   5.065 -0.3033 -0.0947 -0.4571
 3977SOL    HW112321   4.201   0.406   5.043 -0.0543  0.1021  0.8296
 3977SOL    HW212322   4.136   0.275   5.002  1.6884 -0.6373  0.3130
 3978SOL     OW12323   2.997   3.723   3.256 -0.2158  0.1058 -0.2591
 3978SOL    HW112324   3.078   3.711   3.206 -1.6793 -1.2720 -2.5306
 3978SOL    HW212325   2.985   3.818   3.261  1.4974  0.3253  0.0992
 3979SOL     OW12326   5.262   4.205   2.455 -0.0548  0.0595  0.5833
 3979SOL    HW112327   5.344   4.239   2.491 -1.1373  4.3622 -0.4937
 3979SOL    HW212328   5.194   4.262   2.491 -2.1465 -0.9983 -1.4276
 3980SOL     OW12329   3.562   2.944   2.251 -0.2287 -0.1942 -0.4619
 3980SOL    HW112330   3.516   3.014   2.205 -1.9571 -1.2983 -0.4855
 3980SOL    HW212331   3.637   2.924   2.195  0.7096  2.0447 -0.1340
 3981SOL     OW12332   0.976   0.928   0.349 -0.0101  0.0962 -0.7710
 3981SOL    HW112333   1.022   1.012   0.355 -0.1234  0.1291 -0.3356
 3981SOL    HW212334   0.888   0.945   0.383  0.2371 -0.3942  0.1725
 3982SOL     OW12335   5.674   1.248   5.012  0.2351  0.1442  0.2324
 3982SOL    HW112336   5.610   1.215   4.949  1.1619 -2.0005  0.3284
 3982SOL    HW212337   5.694   1.337   4.982 -2.9433  1.0373  0.3813
 3983SOL     OW12338   3.047   1.312   5.524 -0.2317 -0.2299  0.4496
 3983SOL    HW112339   2.957   1.291   5.500  0.4084 -3.1218  0.1480
 3983SOL    HW212340   3.100   1.250   5.473  1.8206  0.2860  1.8296
 3984SOL     OW12341   0.061   3.541   5.700  0.2315  0.2058 -0.5055
 3984SOL    HW112342   0.121   3.579   5.765 -0.4713  0.6432 -0.1006
 3984SOL    HW212343   0.046   3.612   5.638  1.0656 -0.2753 -1.2823
 3985SOL     OW12344   2.655   4.701   5.175  0.2638 -0.0465 -0.3856
 3985SOL    HW112345   2.629   4.664   5.260  0.6042  0.8768  0.1420
 3985SOL    HW212346   2.736   4.656   5.153  0.5783  0.2480  0.1574
 3986SOL     OW12347   4.002   0.265   4.287  0.1563  0.2894  0.0888
 3986SOL    HW112348   4.043   0.184   4.254  0.0212  0.1409  0.2807
 3986SOL    HW212349   4.061   0.294   4.357 -0.1964 -0.0665  0.5414
 3987SOL     OW12350   6.676   1.558   0.880  0.4535  0.1887  0.3061
 3987SOL    HW112351   6.596   1.526   0.838  0.5771  0.8450 -0.4594
 3987SOL    HW212352   6.648   1.640   0.922  0.3092 -0.5031  1.6138
 3988SOL     OW12353   2.254   1.639   2.179  0.2623 -0.3466  0.2460
 3988SOL    HW112354   2.198   1.715   2.193 -1.0196 -1.0265 -0.9927
 3988SOL    HW212355   2.316   1.641   2.253  0.2864  1.8846  0.2184
 3989SOL     OW12356   6.409   5.413   1.621  0.6334  0.0031 -0.0529
 3989SOL    HW112357   6.387   5.322   1.597 -2.4424  0.0966  1.8291
 3989SOL    HW212358   6.444   5.451   1.541  0.4167 -2.3991 -1.3813
 3990SOL     OW12359   5.278   3.238   3.064  0.0029 -0.4809 -0.2363
 3990SOL    HW112360   5.279   3.155   3.017 -0.1241  0.1605 -1.3905
 3990SOL    HW212361   5.356   3.235   3.120 -0.7714 -1.9799  0.8465
 3991SOL     OW12362   4.141   5.317   2.813 -0.9529  0.1396 -0.7993
 3991SOL    HW112363   4.122   5.229   2.780  0.0269 -0.1783 -0.5607
 3991SOL    HW212364   4.080   5.374   2.766 -1.1135 -0.5765 -1.4807
 3992SOL     OW12365   5.846   2.368   3.084  0.2426 -0.1307 -0.0115
 3992SOL    HW112366   5.791   2.385   3.007  0.7198 -0.0656 -0.3390
 3992SOL    HW212367   5.857   2.453   3.126  0.6417 -0.0276 -0.3176
 3993SOL     OW12368   2.156   4.243   2.136 -0.3563 -0.6723 -0.0887
 3993SOL    HW112369   2.066   4.277   2.142  0.0308  0.4878 -0.5393
 3993SOL    HW212370   2.169   4.224   2.043  0.8228  2.0417 -0.5720
 3994SOL     OW12371   1.297   6.546   5.812  0.4758 -0.8932  0.5081
 3994SOL    HW112372   1.238   6.494   5.756 -1.4035 -0.3001  1.8377
 3994SOL    HW212373   1.372   6.565   5.756 -0.9989 -0.9117 -1.6188
 3995SOL     OW12374   3.465   2.533   1.393  0.2778  0.1529 -0.5484
 3995SOL    HW112375   3.420   2.569   1.469 -0.4524  1.3230 -1.5167
 3995SOL    HW212376   3.555   2.519   1.424 -0.0928  0.2591  0.6299
 3996SOL     OW12377   4.023   1.618   0.198 -0.1145  0.8418 -0.5196
 3996SOL    HW112378   4.101   1.665   0.168  0.0707  0.9098  0.0669
 3996SOL    HW212379   4.017   1.639   0.291  0.4207 -0.9160 -0.0632
 3997SOL     OW12380   0.096   2.415   2.498 -0.2424  0.0007  0.2116
 3997SOL    HW112381   0.185   2.419   2.462 -0.3139 -0.9106 -0.0978
 3997SOL    HW212382   0.073   2.322   2.494 -1.2257  0.2338  0.2600
 3998SOL     OW12383   1.782   5.858   2.090 -0.5618 -0.7534 -0.2221
 3998SOL    HW112384   1.817   5.782   2.137 -1.8571 -0.1832  1.7866
 3998SOL    HW212385   1.846   5.874   2.020  1.3074 -1.8640  1.1329
 3999SOL     OW12386   5.340   3.102   2.257 -0.1165 -0.1366 -0.2488
 3999SOL    HW112387   5.417   3.138   2.212 -0.0744 -0.6448 -0.5966
 3999SOL    HW212388   5.273   3.169   2.246  0.2419  0.2624 -0.0432
 4000SOL     OW12389   0.972   1.156   6.447  0.4784  0.8992  0.2905
 4000SOL    HW112390   1.023   1.126   6.522  0.2431  1.4898  0.6971
 4000SOL    HW212391   0.979   1.251   6.450  0.1956  0.9394 -0.2471
 4001SOL     OW12392   0.753   5.711   5.027  0.0080  0.0878  0.1636
 4001SOL    HW112393   0.782   5.800   5.048 -0.3106  0.3943 -0.6407
 4001SOL    HW212394   0.747   5.710   4.931 -0.2122 -0.7310  0.1788
 4002SOL     OW12395   5.100   0.505   4.633  0.1608 -0.2234  0.1664
 4002SOL    HW112396   5.053   0.480   4.554  0.0521 -1.1052  0.4998
 4002SOL    HW212397   5.191   0.515   4.605 -0.1598  1.2899 -0.4370
 4003SOL     OW12398   6.769   3.531   6.640  0.1392  0.7229  1.0400
 4003SOL    HW112399   6.790   3.612   6.686  2.5859 -0.7775  2.7960
 4003SOL    HW212400   6.761   3.465   6.709 -0.7605 -0.7596 -0.3942
 4004SOL     OW12401   3.164   2.867   6.650 -0.2742  0.1121  0.2422
 4004SOL    HW112402   3.109   2.910   6.584 -0.8116 -0.6850  0.1524
 4004SOL    HW212403   3.218   2.937   6.686  0.3533  0.5032 -1.3471
 4005SOL     OW12404   6.762   5.700   4.171  0.3405  0.1237 -0.2399
 4005SOL    HW112405   6.772   5.718   4.078  0.7923  1.3228  0.0211
 4005SOL    HW212406   6.825   5.758   4.213 -0.6576  0.4306  0.8842
 4006SOL     OW12407   6.821   4.912   3.813 -0.8603 -0.1063  0.3526
 4006SOL    HW112408   6.870   4.854   3.756  0.2720  0.6903  0.4716
 4006SOL    HW212409   6.766   4.964   3.754 -1.0880 -0.5535  0.1640
 4007SOL     OW12410   6.655   1.484   4.982 -0.1361  0.2623  1.0060
 4007SOL    HW112411   6.608   1.539   5.044 -0.3912  1.2880 -0.0597
 4007SOL    HW212412   6.622   1.510   4.896  1.5999  0.2676  0.2873
 4008SOL     OW12413   2.551   5.606   0.196 -0.5367 -0.0813 -0.3359
 4008SOL    HW112414   2.506   5.636   0.275 -0.6364 -1.0570 -0.0126
 4008SOL    HW212415   2.488   5.622   0.125  0.2388  2.5413 -0.5431
 4009SOL     OW12416   0.613   2.091   4.870 -0.5571 -0.3417 -0.2517
 4009SOL    HW112417   0.708   2.100   4.867 -0.3592 -1.9470  0.2078
 4009SOL    HW212418   0.598   1.997   4.860 -1.9082 -0.5735  2.8335
 4010SOL     OW12419   3.652   1.378   2.121 -0.7858  0.0809 -0.7273
 4010SOL    HW112420   3.707   1.439   2.071 -0.1382 -1.6452 -2.2580
 4010SOL    HW212421   3.577   1.361   2.064 -0.4482 -1.2869 -0.8123
 4011SOL     OW12422   6.564   4.778   3.446 -0.6492  0.3052  0.2245
 4011SOL    HW112423   6.560   4.871   3.427  3.2307  0.5993  0.0230
 4011SOL    HW212424   6.579   4.772   3.540 -0.0782 -0.0531  0.1169
 4012SOL     OW12425   3.723   2.824   1.751 -0.1499 -0.2190  0.0864
 4012SOL    HW112426   3.800   2.777   1.719  0.1599  0.7735 -0.6842
 4012SOL    HW212427   3.732   2.824   1.846  1.8851  1.5672 -0.0269
 4013SOL     OW12428   1.598   5.615   2.161 -0.2443 -0.1046  0.0608
 4013SOL    HW112429   1.547   5.695   2.151 -0.0862  0.1136  0.8790
 4013SOL    HW212430   1.566   5.557   2.092  0.4954  1.0883 -1.3385
 4014SOL     OW12431   6.556   6.299   1.392  0.3565  0.2532 -0.0329
 4014SOL    HW112432   6.571   6.381   1.346  1.3111  0.9463  1.4446
 4014SOL    HW212433   6.500   6.322   1.466 -0.5355 -0.6954 -0.3831
 4015SOL     OW12434   1.190   0.483   2.887  0.7627 -0.3385  0.6640
 4015SOL    HW112435   1.247   0.415   2.851  0.7573  0.5430 -1.1151
 4015SOL    HW212436   1.102   0.448   2.877  0.8576 -0.8516  1.5335
 4016SOL     OW12437   3.810   1.571   0.625  0.1611  0.2473  0.2543
 4016SOL    HW112438   3.770   1.486   0.605  0.9474 -0.3716  1.2427
 4016SOL    HW212439   3.739   1.622   0.665  0.1317 -0.5860  1.3182
 4017SOL     OW12440   4.942   2.808   0.611 -0.2155 -0.2210  0.3803
 4017SOL    HW112441   5.024   2.844   0.576  1.3861 -0.6318  3.4067
 4017SOL    HW212442   4.908   2.877   0.667 -0.0833 -1.2743  1.8130
 4018SOL     OW12443   1.706   4.976   1.331  0.3582 -0.2362  0.1242
 4018SOL    HW112444   1.797   4.956   1.352  0.5417 -1.4250 -1.5868
 4018SOL    HW212445   1.672   4.896   1.291 -0.9966  0.6507 -0.5887
 4019SOL     OW12446   5.314   3.113   1.421  0.1417  0.3188 -0.0883
 4019SOL    HW112447   5.321   3.187   1.360  0.2740  1.1700  0.9187
 4019SOL    HW212448   5.404   3.098   1.451 -0.0099  0.3399  0.3860
 4020SOL     OW12449   6.452   6.239   2.969  0.1918  0.1686  0.3226
 4020SOL    HW112450   6.371   6.280   2.939 -0.4483 -1.4344 -0.2030
 4020SOL    HW212451   6.521   6.292   2.929 -0.6176  0.1631 -1.1639
 4021SOL     OW12452   3.374   4.254   0.104 -0.3876 -0.0017  0.0889
 4021SOL    HW112453   3.424   4.268   0.024 -0.4758  0.2167  0.0713
 4021SOL    HW212454   3.439   4.259   0.175 -0.2040 -0.8244 -0.0081
 4022SOL     OW12455   3.221   6.193   0.250 -0.5307  0.1021 -0.1173
 4022SOL    HW112456   3.217   6.289   0.251  0.8720  0.2041 -0.9717
 4022SOL    HW212457   3.162   6.167   0.179 -1.3159  0.2881  0.4534
 4023SOL     OW12458   1.543   4.220   6.347  0.2332  0.1530  0.0006
 4023SOL    HW112459   1.492   4.174   6.281  1.2179 -0.8906 -0.0621
 4023SOL    HW212460   1.583   4.294   6.300 -0.3578  0.3605 -0.1845
 4024SOL     OW12461   2.413   5.069   3.859 -0.2046  0.8972 -0.3565
 4024SOL    HW112462   2.466   5.134   3.813 -2.4353  2.3157 -1.1180
 4024SOL    HW212463   2.343   5.120   3.899 -0.2826 -0.7198  1.7493
 4025SOL     OW12464   5.115   1.886   1.816 -0.0412 -0.0490  0.0284
 4025SOL    HW112465   5.196   1.924   1.850 -0.3982  1.9029 -1.1466
 4025SOL    HW212466   5.141   1.840   1.737 -0.2993  2.7821 -1.8624
 4026SOL     OW12467   2.109   6.102   1.143  0.2165 -0.0947  0.6013
 4026SOL    HW112468   2.052   6.028   1.120  1.0582 -0.6859  0.3772
 4026SOL    HW212469   2.177   6.102   1.076 -0.8879  2.1713 -0.6390
 4027SOL     OW12470   5.134   2.649   1.799  0.6378 -0.4763  0.0850
 4027SOL    HW112471   5.081   2.644   1.879 -0.1453  0.3343 -0.3639
 4027SOL    HW212472   5.199   2.579   1.809 -0.4813 -1.4714  0.6722
 4028SOL     OW12473   4.965   5.863   5.325  0.3790 -0.2075 -0.2824
 4028SOL    HW112474   4.937   5.907   5.405  0.1705  0.4365 -0.7001
 4028SOL    HW212475   5.059   5.881   5.320  0.5806 -1.0510  0.3055
 4029SOL     OW12476   1.930   1.900   5.316  0.5330 -0.1285  0.3027
 4029SOL    HW112477   1.945   1.814   5.354  0.8286  0.0107  0.4996
 4029SOL    HW212478   1.895   1.952   5.388  0.3635 -0.0796  0.1858
 4030SOL     OW12479   3.806   2.468   1.661  0.4259 -0.3972  0.4048
 4030SOL    HW112480   3.784   2.450   1.752 -4.5050 -1.9387 -0.7958
 4030SOL    HW212481   3.823   2.382   1.623  1.2050  0.0997 -0.4166
 4031SOL     OW12482   3.088   3.064   2.640 -0.7910  0.5604 -0.1747
 4031SOL    HW112483   3.162   3.054   2.699 -0.3586  2.3706 -0.3640
 4031SOL    HW212484   3.099   2.994   2.575  0.0134  0.0118  0.5334
 4032SOL     OW12485   3.767   1.854   5.142  0.3061  0.4415  0.3789
 4032SOL    HW112486   3.781   1.786   5.208 -0.0895 -0.3070 -0.2944
 4032SOL    HW212487   3.700   1.818   5.084  1.2085  0.7592 -0.8963
 4033SOL     OW12488   2.127   1.777   1.382 -1.2007 -0.1826  0.1474
 4033SOL    HW112489   2.152   1.684   1.385  2.7328  0.6337 -1.6588
 4033SOL    HW212490   2.135   1.801   1.290  0.8967  2.5862  0.9293
 4034SOL     OW12491   4.286   0.576   5.226  0.4903  0.1181  0.1205
 4034SOL    HW112492   4.376   0.583   5.255  1.3912 -3.8515 -1.0300
 4034SOL    HW212493   4.292   0.535   5.139 -2.3952 -0.1513 -0.0527
 4035SOL     OW12494   3.317   3.874   2.084  0.1645 -0.0720 -0.2342
 4035SOL    HW112495   3.268   3.830   2.014  1.2297  0.0442 -1.0749
 4035SOL    HW212496   3.374   3.807   2.120  0.9216  0.2922 -0.7126
 4036SOL     OW12497   1.336   2.818   3.752 -0.4029 -0.6645 -0.0187
 4036SOL    HW112498   1.290   2.798   3.833 -0.3402 -0.0996  0.1639
 4036SOL    HW212499   1.273   2.868   3.700 -0.0142  0.1059  0.2283
 4037SOL     OW12500   6.268   1.858   2.232 -0.1197 -0.5442 -0.0093
 4037SOL    HW112501   6.221   1.782   2.267 -0.8256  0.0164  0.2984
 4037SOL    HW212502   6.326   1.822   2.165  0.1091 -1.4454  0.6523
 4038SOL     OW12503   4.277   6.827   2.484  0.0857 -0.3998  0.3946
 4038SOL    HW112504   4.341   6.893   2.457  0.1874 -0.5598  0.2499
 4038SOL    HW212505   4.316   6.744   2.460  0.3452 -0.5725  1.3561
 4039SOL     OW12506   4.991   0.476   4.259  0.0724  0.5859  0.1498
 4039SOL    HW112507   4.933   0.532   4.207  1.0765  0.1846 -1.4653
 4039SOL    HW212508   5.072   0.472   4.209  0.3505 -1.5511  0.6839
 4040SOL     OW12509   0.653   3.532   5.484 -0.5978  0.5443 -0.4647
 4040SOL    HW112510   0.559   3.539   5.472 -0.5421  1.9479 -0.2404
 4040SOL    HW212511   0.663   3.489   5.569 -1.0145 -0.5879 -0.9708
 4041SOL     OW12512   5.864   5.724   6.495 -0.2146 -0.4288  0.0879
 4041SOL    HW112513   5.950   5.760   6.474 -1.0314  1.4908 -0.2035
 4041SOL    HW212514   5.866   5.709   6.589 -0.1076  1.3113  0.4018
 4042SOL     OW12515   6.147   6.624   4.984  0.3337 -0.1358 -0.1299
 4042SOL    HW112516   6.065   6.672   4.989  0.2763 -0.2346 -0.1323
 4042SOL    HW212517   6.214   6.687   5.011  0.0610 -0.5851  1.7443
 4043SOL     OW12518   5.681   4.094   4.887 -0.1945 -0.6899 -0.2015
 4043SOL    HW112519   5.633   4.175   4.907 -0.1766 -0.2869 -1.7006
 4043SOL    HW212520   5.650   4.032   4.953 -0.8210  0.2996  0.4740
 4044SOL     OW12521   3.184   5.754   2.467  0.2672  0.5640 -0.1047
 4044SOL    HW112522   3.123   5.829   2.468  0.5625  0.8047 -0.0044
 4044SOL    HW212523   3.267   5.790   2.499  0.3962  0.1767  0.0013
 4045SOL     OW12524   1.567   2.865   2.212 -0.1263 -0.3947  0.5268
 4045SOL    HW112525   1.535   2.784   2.173 -1.5348  1.2489 -2.0087
 4045SOL    HW212526   1.488   2.906   2.249  0.3268  0.4026  0.6212
 4046SOL     OW12527   2.958   5.052   3.171 -0.1173  0.1014  0.9280
 4046SOL    HW112528   3.008   5.134   3.168 -1.8911  1.3248  2.4682
 4046SOL    HW212529   2.921   5.049   3.259  0.2609 -2.6533  1.0861
 4047SOL     OW12530   0.990   0.898   4.543  0.2801 -0.0327 -0.0756
 4047SOL    HW112531   1.057   0.848   4.589  0.6765  1.4674  1.0708
 4047SOL    HW212532   1.038   0.956   4.485 -0.0504  0.3939  0.0671
 4048SOL     OW12533   0.924   6.796   2.714  0.2577 -0.4601  0.1209
 4048SOL    HW112534   0.864   6.815   2.786  0.4725 -1.0603  0.4682
 4048SOL    HW212535   0.961   6.710   2.736  1.0788 -0.1964 -0.1932
 4049SOL     OW12536   3.335   1.732   6.204 -0.7878 -0.1764 -0.2017
 4049SOL    HW112537   3.390   1.806   6.177 -0.8882  0.1425  0.4604
 4049SOL    HW212538   3.346   1.668   6.134  1.1103 -0.4834  0.3306
 4050SOL     OW12539   4.215   4.468   5.450  0.3713 -0.0457  0.3516
 4050SOL    HW112540   4.124   4.446   5.428  0.1248  0.7333  0.5801
 4050SOL    HW212541   4.214   4.485   5.544  0.6598  0.4332  0.2712
 4051SOL     OW12542   4.724   2.687   1.080 -0.1075  0.5882  0.2099
 4051SOL    HW112543   4.643   2.696   1.031 -0.6925  1.2414  1.2573
 4051SOL    HW212544   4.699   2.702   1.171  1.2278  1.0797  0.5268
 4052SOL     OW12545   5.032   3.903   1.866  0.2405  0.1442 -0.2995
 4052SOL    HW112546   5.076   3.863   1.941  0.6712  0.4975 -0.3568
 4052SOL    HW212547   5.102   3.913   1.801  0.9097  3.7187  0.7514
 4053SOL     OW12548   5.777   0.151   4.191  0.3066  0.1140 -0.4962
 4053SOL    HW112549   5.794   0.164   4.097  3.5442  0.6403  0.0437
 4053SOL    HW212550   5.855   0.105   4.223  0.2032  1.6706  2.2785
 4054SOL     OW12551   3.529   6.539   2.796  0.0554  0.5265  0.3086
 4054SOL    HW112552   3.539   6.618   2.743 -1.4513  0.4185 -0.1790
 4054SOL    HW212553   3.441   6.507   2.776  0.3089 -0.8002  1.1523
 4055SOL     OW12554   4.237   5.510   2.319  0.1621  0.7141 -0.1467
 4055SOL    HW112555   4.182   5.435   2.295 -2.3264  1.3370  2.8992
 4055SOL    HW212556   4.316   5.470   2.355 -0.1494 -0.3887 -0.6297
 4056SOL     OW12557   4.482   5.831   2.769  0.3161  0.1661 -0.6600
 4056SOL    HW112558   4.478   5.898   2.701 -1.5407  0.9656  0.1607
 4056SOL    HW212559   4.553   5.859   2.826 -0.3341  1.3853 -0.4168
 4057SOL     OW12560   4.047   6.519   2.340  0.4536  0.0404 -0.6882
 4057SOL    HW112561   4.048   6.445   2.280 -0.3019 -0.3864 -0.1863
 4057SOL    HW212562   3.962   6.562   2.324 -0.5505 -1.0813  1.2433
 4058SOL     OW12563   1.757   3.830   3.112 -0.2964 -0.0368 -0.4600
 4058SOL    HW112564   1.817   3.860   3.180  1.9234  0.0975 -2.3676
 4058SOL    HW212565   1.723   3.746   3.145 -0.5219  0.7786  1.4728
 4059SOL     OW12566   1.113   0.483   0.812 -0.1250 -0.0248  0.1966
 4059SOL    HW112567   1.113   0.578   0.816  0.3414 -0.0180  0.1517
 4059SOL    HW212568   1.194   0.457   0.856 -0.2494 -0.4003  0.2119
 4060SOL     OW12569   6.724   1.384   5.279  0.3622  0.4223  0.0363
 4060SOL    HW112570   6.728   1.404   5.372 -0.3965  0.5181  0.0598
 4060SOL    HW212571   6.644   1.333   5.269  2.3104 -2.8921  0.0138
 4061SOL     OW12572   1.364   3.730   3.712  0.2322  0.5463 -0.1793
 4061SOL    HW112573   1.395   3.710   3.801  0.8646  2.3988  0.0593
 4061SOL    HW212574   1.440   3.713   3.656  0.0097 -0.0558 -0.3100
 4062SOL     OW12575   3.038   1.677   3.164  0.0043 -0.8011  0.0383
 4062SOL    HW112576   3.088   1.747   3.208  1.0126 -0.9061 -0.8926
 4062SOL    HW212577   3.101   1.637   3.104 -1.3293 -0.6539 -1.5132
 4063SOL     OW12578   5.580   6.434   1.020 -0.1799 -0.0723  0.1798
 4063SOL    HW112579   5.574   6.529   1.012  0.3726  0.0292  0.8765
 4063SOL    HW212580   5.664   6.412   0.980 -0.5901 -0.3493 -0.5561
 4064SOL     OW12581   0.092   4.269   0.413 -0.5663 -0.3107  0.6724
 4064SOL    HW112582   0.084   4.210   0.488 -1.3066 -0.6894  0.3122
 4064SOL    HW212583   0.002   4.281   0.383 -0.2571 -0.3698 -0.3083
 4065SOL     OW12584   2.566   5.987   0.150  0.2601  0.5156 -0.0742
 4065SOL    HW112585   2.610   5.924   0.206  2.3556  1.2002 -0.8587
 4065SOL    HW212586   2.589   5.962   0.061 -0.6360  1.1391 -0.5047
 4066SOL     OW12587   6.607   3.716   6.499  0.0199 -0.0049  0.4625
 4066SOL    HW112588   6.635   3.640   6.551 -0.3117 -0.8856 -0.5835
 4066SOL    HW212589   6.678   3.779   6.508 -0.1086 -0.0573  2.0885
 4067SOL     OW12590   4.177   4.895   1.696 -0.1077  0.0139 -0.0512
 4067SOL    HW112591   4.161   4.891   1.601  0.2690 -1.3842 -0.0747
 4067SOL    HW212592   4.103   4.945   1.730 -0.7164 -0.2045 -0.9962
 4068SOL     OW12593   5.918   1.620   4.937 -0.6334 -0.0117  0.0794
 4068SOL    HW112594   5.978   1.641   5.008 -1.7852 -1.0326  1.4119
 4068SOL    HW212595   5.916   1.699   4.883  0.8003  0.5391  0.7786
 4069SOL     OW12596   1.597   3.896   0.644 -0.7780 -0.1121  0.0509
 4069SOL    HW112597   1.532   3.952   0.687 -0.8814 -0.2252  0.0457
 4069SOL    HW212598   1.552   3.812   0.635 -0.2249 -0.5367  1.0964
 4070SOL     OW12599   0.231   5.044   1.937  0.1163 -0.2960 -0.1700
 4070SOL    HW112600   0.238   4.952   1.963  1.3967 -0.1187  0.1936
 4070SOL    HW212601   0.138   5.056   1.918 -0.2644 -1.3860  0.8341
 4071SOL     OW12602   4.475   0.871   2.011  0.4731  0.0630  0.3621
 4071SOL    HW112603   4.570   0.878   2.010  0.6072 -1.3753 -0.2688
 4071SOL    HW212604   4.447   0.924   1.936  0.7327  0.8583  0.8179
 4072SOL     OW12605   2.172   4.705   6.026  0.1302  0.6061 -0.2786
 4072SOL    HW112606   2.241   4.718   6.091  0.8753  0.4380 -1.0088
 4072SOL    HW212607   2.215   4.657   5.955 -0.9832 -0.3246 -0.3474
 4073SOL     OW12608   1.242   5.015   4.841 -0.5069  0.8412  0.2238
 4073SOL    HW112609   1.278   5.067   4.769  0.3282 -0.7079 -0.5316
 4073SOL    HW212610   1.148   5.024   4.832 -0.4441  0.1537 -1.5016
 4074SOL     OW12611   6.800   0.153   3.117  0.0888  0.4113 -0.3823
 4074SOL    HW112612   6.857   0.210   3.169 -0.1639 -1.0850  1.6624
 4074SOL    HW212613   6.860   0.103   3.062  0.5070  0.8987 -0.3751
 4075SOL     OW12614   6.318   6.767   3.193  0.8013 -0.2970 -0.2330
 4075SOL    HW112615   6.309   6.692   3.135 -2.0749  0.0432 -0.3648
 4075SOL    HW212616   6.396   6.814   3.160  0.8392 -1.5562 -2.0739
 4076SOL     OW12617   4.600   6.047   0.051 -0.2494 -0.3354  0.3462
 4076SOL    HW112618   4.562   6.125   0.091  0.7153 -0.4341  1.5013
 4076SOL    HW212619   4.524   5.998   0.018 -0.7972  1.5865 -1.4310
 4077SOL     OW12620   5.910   6.619   0.986 -0.3184 -0.1182 -0.1994
 4077SOL    HW112621   5.949   6.704   0.966 -1.4028  0.6297  0.7260
 4077SOL    HW212622   5.825   6.621   0.941  0.2798 -1.3746 -1.4787
 4078SOL     OW12623   4.214   1.000   5.680  0.1285  0.4784 -0.1106
 4078SOL    HW112624   4.182   0.965   5.597  1.3854  1.9602 -1.2725
 4078SOL    HW212625   4.306   1.021   5.664  0.0926  1.8992  1.2957
 4079SOL     OW12626   3.988   3.732   5.647  0.1324  0.9877  0.1660
 4079SOL    HW112627   4.025   3.814   5.679  1.0102  0.6003  0.1775
 4079SOL    HW212628   4.064   3.679   5.622 -0.1398 -1.1507  3.2776
 4080SOL     OW12629   6.502   5.513   5.156 -0.3853  0.3038  0.4608
 4080SOL    HW112630   6.552   5.515   5.238 -0.5965 -1.6481  0.6896
 4080SOL    HW212631   6.568   5.511   5.087 -0.0451 -2.3051  0.7591
 4081SOL     OW12632   5.295   1.084   2.311 -0.0778 -0.6504 -0.0089
 4081SOL    HW112633   5.215   1.049   2.350 -0.6989  0.3506 -0.3291
 4081SOL    HW212634   5.304   1.037   2.228  0.3126 -1.5826  0.5546
 4082SOL     OW12635   1.063   2.849   2.074  0.0283  0.0165 -0.1358
 4082SOL    HW112636   0.983   2.842   2.020 -0.1888 -0.4693  0.2441
 4082SOL    HW212637   1.128   2.886   2.014 -0.4952  0.4825 -0.4360
 4083SOL     OW12638   1.408   0.656   3.116  0.1915  0.5414  0.0509
 4083SOL    HW112639   1.422   0.740   3.159  0.8265 -0.9616  3.0254
 4083SOL    HW212640   1.471   0.656   3.044  0.9690  2.1528  0.6742
 4084SOL     OW12641   4.662   3.738   6.440  0.1475  0.3631 -0.0673
 4084SOL    HW112642   4.685   3.802   6.374  0.3996  1.3003  0.8995
 4084SOL    HW212643   4.617   3.788   6.508  1.2569 -0.2683  1.1937
 4085SOL     OW12644   0.466   5.232   1.128 -0.2864 -0.0002  0.4159
 4085SOL    HW112645   0.373   5.241   1.106 -0.7036 -0.4176  1.8612
 4085SOL    HW212646   0.504   5.185   1.054 -1.0693  0.7945 -0.5196
 4086SOL     OW12647   2.506   6.721   6.672  0.1088  0.3941 -0.0013
 4086SOL    HW112648   2.546   6.792   6.722 -0.2663  0.1197  0.7125
 4086SOL    HW212649   2.459   6.669   6.738  1.5627 -1.3501 -0.2843
 4087SOL     OW12650   5.061   1.536   6.019  0.2104 -0.2621  0.0466
 4087SOL    HW112651   5.129   1.469   6.029  0.2447 -0.7889 -2.9361
 4087SOL    HW212652   4.979   1.487   6.024  0.2026 -0.3487 -0.7713
 4088SOL     OW12653   5.851   2.055   1.474 -0.0613 -0.0900  0.1231
 4088SOL    HW112654   5.826   2.139   1.437  0.1938 -0.9039 -2.0163
 4088SOL    HW212655   5.906   2.014   1.407  0.5941 -1.5766  1.4953
 4089SOL     OW12656   6.346   0.730   1.817  0.5064 -0.2063 -0.4432
 4089SOL    HW112657   6.344   0.738   1.721 -0.7961 -0.4936 -0.4662
 4089SOL    HW212658   6.424   0.777   1.844  1.4637 -0.9794 -1.7350
 4090SOL     OW12659   4.807   3.454   5.956 -0.4527 -0.2821 -0.3273
 4090SOL    HW112660   4.897   3.433   5.983 -0.9203 -0.9158  0.7810
 4090SOL    HW212661   4.756   3.450   6.037 -1.3431  0.9117 -0.7994
 4091SOL     OW12662   5.154   1.155   5.198  0.5139  0.8342  0.0238
 4091SOL    HW112663   5.200   1.157   5.282  0.8386 -0.8978 -0.0706
 4091SOL    HW212664   5.072   1.109   5.216  0.9101 -0.2048 -0.7281
 4092SOL     OW12665   0.672   2.250   0.211  0.8257 -0.5663 -0.0369
 4092SOL    HW112666   0.648   2.163   0.243  0.4689 -0.6061 -0.4169
 4092SOL    HW212667   0.731   2.233   0.138  0.5689 -0.4939 -0.2624
 4093SOL     OW12668   0.188   1.811   6.488 -0.3145 -0.4893 -0.0656
 4093SOL    HW112669   0.208   1.857   6.570  0.2214  0.6614 -0.8133
 4093SOL    HW212670   0.141   1.876   6.435 -2.4683 -1.8520  0.0760
 4094SOL     OW12671   1.175   4.769   0.480 -0.1802 -0.0607 -0.8779
 4094SOL    HW112672   1.256   4.718   0.483  0.1306  0.4397 -0.3889
 4094SOL    HW212673   1.107   4.707   0.456 -0.2418 -1.2972  2.0206
 4095SOL     OW12674   6.245   1.001   3.541  0.1018 -0.0124 -0.2151
 4095SOL    HW112675   6.270   1.090   3.566  0.5285 -0.1440 -0.1545
 4095SOL    HW212676   6.152   1.007   3.521  0.4741  0.8008 -1.8309
 4096SOL     OW12677   0.517   2.773   2.612 -0.0949  0.0575 -0.0978
 4096SOL    HW112678   0.459   2.805   2.681 -0.1357 -1.4067  0.5970
 4096SOL    HW212679   0.603   2.807   2.635  0.0954 -1.2749  1.3114
 4097SOL     OW12680   5.791   2.304   1.379 -0.0317 -0.5118  1.0731
 4097SOL    HW112681   5.865   2.343   1.425  0.3534 -1.5102  1.3283
 4097SOL    HW212682   5.724   2.373   1.379  0.8953  0.4220  0.7942
 4098SOL     OW12683   2.458   4.507   2.802 -0.1216 -0.3912  0.1602
 4098SOL    HW112684   2.391   4.574   2.808  0.2093  0.1169 -1.2576
 4098SOL    HW212685   2.415   4.427   2.831 -1.7887 -0.3443 -1.9647
 4099SOL     OW12686   4.235   5.875   2.623 -0.7142 -0.0772 -0.2015
 4099SOL    HW112687   4.237   5.960   2.578 -2.0577  0.8797  1.4162
 4099SOL    HW212688   4.315   5.875   2.676 -1.0354  0.5095  0.3028
 4100SOL     OW12689   4.603   0.631   1.204 -0.5175 -0.0200 -0.1499
 4100SOL    HW112690   4.663   0.640   1.278  1.9047 -2.1126 -1.7068
 4100SOL    HW212691   4.563   0.544   1.216 -1.8965  0.5799 -0.1406
 4101SOL     OW12692   5.483   4.438   3.625  0.0666  0.4346 -0.1354
 4101SOL    HW112693   5.397   4.403   3.648  0.0417  0.6647  0.1304
 4101SOL    HW212694   5.472   4.473   3.537  0.6555 -2.1759 -1.3396
 4102SOL     OW12695   4.943   0.938   1.731 -0.5942  0.6895  0.4957
 4102SOL    HW112696   5.028   0.934   1.775  0.2956 -1.1580 -1.2296
 4102SOL    HW212697   4.943   1.022   1.686  0.2970  0.7270  0.5436
 4103SOL     OW12698   4.585   3.156   0.733  0.5659 -0.2243 -0.1163
 4103SOL    HW112699   4.664   3.137   0.683  0.1094 -1.2852 -0.4603
 4103SOL    HW212700   4.597   3.246   0.764  0.9059  0.4312 -2.0435
 4104SOL     OW12701   3.268   2.515   6.555  0.1659  0.2917 -0.3699
 4104SOL    HW112702   3.228   2.462   6.624 -0.7827  2.4774  0.8799
 4104SOL    HW212703   3.362   2.509   6.573  0.2819 -2.3759 -1.4239
 4105SOL     OW12704   0.746   6.394   6.714  0.4133 -0.0219 -0.0564
 4105SOL    HW112705   0.811   6.352   6.771 -1.3289 -2.4445  0.2943
 4105SOL    HW212706   0.671   6.410   6.771 -0.3467  0.0628 -1.0566
 4106SOL     OW12707   6.427   4.021   2.948 -0.2865  0.3721  0.0020
 4106SOL    HW112708   6.382   4.080   2.888  0.8927  0.2343 -1.0724
 4106SOL    HW212709   6.520   4.035   2.930  0.0653 -0.5151  0.9971
 4107SOL     OW12710   4.928   2.477   6.770  0.7598 -0.2016  0.5524
 4107SOL    HW112711   4.846   2.446   6.809 -0.4285  0.3649 -1.3549
 4107SOL    HW212712   4.997   2.428   6.815 -0.7503 -2.3073  0.7004
 4108SOL     OW12713   2.605   1.225   1.848 -0.1625  0.1407  0.6455
 4108SOL    HW112714   2.556   1.242   1.767  1.1966 -1.5971 -0.6166
 4108SOL    HW212715   2.540   1.188   1.907 -0.8157 -0.1890 -0.2513
 4109SOL     OW12716   0.190   2.895   2.994 -0.2941  0.1426 -0.0062
 4109SOL    HW112717   0.256   2.849   3.045 -0.4114 -1.4900 -1.2352
 4109SOL    HW212718   0.194   2.986   3.024  1.2283 -0.2991  1.2108
 4110SOL     OW12719   4.010   1.443   1.779  0.6809 -0.0214  0.0884
 4110SOL    HW112720   3.989   1.360   1.736  0.7708 -0.7240  1.3826
 4110SOL    HW212721   3.930   1.495   1.769  1.2254  0.4905 -2.3520
 4111SOL     OW12722   1.848   1.979   6.543  0.0114  0.1664  0.0649
 4111SOL    HW112723   1.915   1.922   6.581  1.6989  1.1600 -1.2362
 4111SOL    HW212724   1.882   2.000   6.456 -1.2744  1.9460 -0.0617
 4112SOL     OW12725   3.164   0.280   5.472 -0.1467  0.6578 -0.3780
 4112SOL    HW112726   3.175   0.185   5.481  1.7637  0.7592 -1.0742
 4112SOL    HW212727   3.231   0.305   5.408 -1.0279  2.3985 -0.6656
 4113SOL     OW12728   1.114   4.349   5.091 -0.6867 -0.4470 -0.5249
 4113SOL    HW112729   1.162   4.431   5.085 -1.7056  0.2313  0.3592
 4113SOL    HW212730   1.082   4.346   5.181 -2.1384 -0.9594 -1.0366
 4114SOL     OW12731   3.268   4.760   4.986  0.3396 -0.2084 -0.0723
 4114SOL    HW112732   3.311   4.812   4.918  2.4371 -1.5438  0.1460
 4114SOL    HW212733   3.336   4.744   5.051 -1.2727 -0.0571  1.7367
 4115SOL     OW12734   4.437   0.652   0.045 -0.1336  0.5622 -0.0670
 4115SOL    HW112735   4.508   0.621  -0.011  0.0871  2.2887 -0.8180
 4115SOL    HW212736   4.439   0.595   0.122  0.5689 -0.8631 -1.1168
 4116SOL     OW12737   0.191   1.232   5.797  0.5692 -0.1558 -0.0893
 4116SOL    HW112738   0.138   1.154   5.811  1.1509 -1.3896 -3.5743
 4116SOL    HW212739   0.132   1.293   5.752  1.3076 -0.5217 -1.6317
 4117SOL     OW12740   2.428   3.287   4.842  0.1969 -0.7625  0.8329
 4117SOL    HW112741   2.345   3.248   4.814 -0.5890  1.6310 -0.3647
 4117SOL    HW212742   2.472   3.313   4.762 -0.5807  3.1963  1.4911
 4118SOL     OW12743   2.140   4.676   5.199 -0.3975  0.3653 -0.4060
 4118SOL    HW112744   2.217   4.628   5.169 -0.2856  1.1707 -1.4741
 4118SOL    HW212745   2.077   4.608   5.222  0.9899 -0.3411  1.5899
 4119SOL     OW12746   2.424   5.718   1.215  0.4688 -0.1255 -0.4000
 4119SOL    HW112747   2.520   5.720   1.213  0.4778  0.7181  0.2372
 4119SOL    HW212748   2.398   5.695   1.126  1.2702 -0.8885 -0.4462
 4120SOL     OW12749   0.829   0.857   4.751 -0.0140 -0.0846 -0.0142
 4120SOL    HW112750   0.739   0.878   4.725  0.5429 -0.6065 -2.6514
 4120SOL    HW212751   0.881   0.868   4.671  1.6776 -3.3396  0.4396
 4121SOL     OW12752   1.245   0.854   3.718  0.0219  0.1071  0.5433
 4121SOL    HW112753   1.323   0.902   3.747  0.6694 -1.2996  1.2267
 4121SOL    HW212754   1.246   0.773   3.769 -1.1111 -0.5836 -0.4719
 4122SOL     OW12755   4.505   0.581   1.587  0.3485  0.2395 -0.2435
 4122SOL    HW112756   4.565   0.511   1.561 -0.0054 -0.0889 -0.1878
 4122SOL    HW212757   4.537   0.608   1.673  0.7035  0.3969 -0.4225
 4123SOL     OW12758   0.181   3.336   5.227  0.3838  0.3377 -0.1773
 4123SOL    HW112759   0.133   3.258   5.198 -1.4676  1.2507  0.2494
 4123SOL    HW212760   0.266   3.329   5.185  1.1756 -3.0534  1.6071
 4124SOL     OW12761   2.468   6.711   2.508 -0.0206 -0.5452 -0.1737
 4124SOL    HW112762   2.533   6.663   2.458  0.2730  0.1798 -0.4998
 4124SOL    HW212763   2.401   6.736   2.443  0.8136  1.1948 -0.4247
 4125SOL     OW12764   4.762   2.581   3.185  0.2820 -0.2715  0.5086
 4125SOL    HW112765   4.813   2.657   3.156  3.2962 -1.7107  1.6654
 4125SOL    HW212766   4.782   2.513   3.122 -2.7323 -0.1344 -0.7634
 4126SOL     OW12767   0.023   6.131   4.668  0.7107  0.3529  0.5169
 4126SOL    HW112768   0.020   6.227   4.666  0.4057  0.3619  1.1446
 4126SOL    HW212769   0.050   6.110   4.757 -2.0743 -0.1895  1.3134
 4127SOL     OW12770   6.563   1.804   0.956 -0.6043 -0.0879 -0.0730
 4127SOL    HW112771   6.493   1.774   1.015 -0.6952  0.2097 -0.0295
 4127SOL    HW212772   6.621   1.855   1.012 -0.3820 -0.2845 -0.1223
 4128SOL     OW12773   1.877   5.900   2.449 -0.2207  0.2575  0.5486
 4128SOL    HW112774   1.807   5.951   2.409 -0.4746  0.6569  1.4753
 4128SOL    HW212775   1.868   5.812   2.412 -1.2827  0.2733  0.7528
 4129SOL     OW12776   0.122   1.460   1.857  0.1790  0.0866  0.3120
 4129SOL    HW112777   0.109   1.550   1.828 -0.1040  0.5537  1.7964
 4129SOL    HW212778   0.115   1.464   1.952  0.7047 -1.4223  0.4462
 4130SOL     OW12779   6.681   6.282   2.226 -0.3498  0.2598 -0.1670
 4130SOL    HW112780   6.675   6.192   2.194  2.0361 -0.4935  1.2355
 4130SOL    HW212781   6.738   6.326   2.164 -0.9454  0.6380 -0.4602
 4131SOL     OW12782   4.799   4.707   2.463 -0.0450  0.5908 -0.2648
 4131SOL    HW112783   4.833   4.618   2.468 -0.5130  0.3311 -1.3820
 4131SOL    HW212784   4.790   4.724   2.369 -2.1646  0.9544 -0.0490
 4132SOL     OW12785   4.436   6.242   5.514 -0.3768 -0.2509  0.2977
 4132SOL    HW112786   4.377   6.174   5.481 -0.3198 -0.6696  1.0247
 4132SOL    HW212787   4.510   6.241   5.453  0.6008 -2.2805  1.3847
 4133SOL     OW12788   0.127   4.291   5.673 -0.4082 -0.2183  0.0487
 4133SOL    HW112789   0.182   4.363   5.701 -1.1363  0.7057 -0.8296
 4133SOL    HW212790   0.098   4.250   5.755 -0.9401  1.2218  0.6149
 4134SOL     OW12791   4.166   0.856   5.967  0.1978  0.1573 -0.1372
 4134SOL    HW112792   4.072   0.847   5.954  0.4211 -3.4857 -0.2426
 4134SOL    HW212793   4.202   0.862   5.878  0.1035  0.8253 -0.1284
 4135SOL     OW12794   3.794   3.728   4.326  0.0596  0.0153  0.3610
 4135SOL    HW112795   3.720   3.785   4.347 -0.3672 -0.8001  1.1499
 4135SOL    HW212796   3.758   3.666   4.263  0.5417  0.6466 -0.5495
 4136SOL     OW12797   2.466   0.761   2.941  0.3952  0.5099  0.2990
 4136SOL    HW112798   2.476   0.703   2.865 -0.9505 -0.3033  0.7068
 4136SOL    HW212799   2.477   0.703   3.017  0.6977  1.1133  0.7234
 4137SOL     OW12800   3.569   1.243   4.596  0.2249  0.4857  0.2032
 4137SOL    HW112801   3.632   1.303   4.637  0.6342 -0.0551  0.3726
 4137SOL    HW212802   3.485   1.266   4.636  0.3857  0.9225  0.2938
 4138SOL     OW12803   5.070   1.777   2.279  0.0185  0.0436  0.3834
 4138SOL    HW112804   5.029   1.709   2.333 -0.9425 -0.5520 -1.0279
 4138SOL    HW212805   5.021   1.775   2.197  3.2758 -1.1785 -1.7329
 4139SOL     OW12806   0.390   0.960   6.152  0.1045 -0.3720 -0.2565
 4139SOL    HW112807   0.476   0.985   6.117 -0.0059  1.5902  0.7222
 4139SOL    HW212808   0.335   0.948   6.075  0.8956 -0.1991 -0.8616
 4140SOL     OW12809   3.236   0.457   5.683  0.0964 -0.1997  0.3320
 4140SOL    HW112810   3.189   0.396   5.627 -1.1414 -0.7731  1.9188
 4140SOL    HW212811   3.205   0.438   5.771  0.4021  2.0422  1.0050
 4141SOL     OW12812   4.363   0.664   2.147 -0.2585 -0.3762 -0.2949
 4141SOL    HW112813   4.409   0.748   2.136 -0.6371 -0.1502 -0.1573
 4141SOL    HW212814   4.420   0.601   2.103  0.3485 -0.1551  0.1554
 4142SOL     OW12815   4.989   4.409   4.888 -0.0541 -0.2749 -0.3468
 4142SOL    HW112816   4.948   4.332   4.847  0.6069 -0.8864  0.1161
 4142SOL    HW212817   5.058   4.434   4.827  0.5664 -0.8457  0.1011
 4143SOL     OW12818   3.942   0.825   5.729  0.1993  0.2216  0.1668
 4143SOL    HW112819   3.876   0.833   5.660  0.8953  1.5648 -0.3896
 4143SOL    HW212820   4.015   0.779   5.687 -0.0759 -0.5955  0.5626
 4144SOL     OW12821   2.662   6.547   2.384  0.1472  0.0492 -0.3931
 4144SOL    HW112822   2.642   6.480   2.449  1.2826  1.0461  1.0591
 4144SOL    HW212823   2.672   6.500   2.301  0.2919 -1.4790  0.4751
 4145SOL     OW12824   5.819   3.034   1.205 -0.1277  0.4388  0.0665
 4145SOL    HW112825   5.905   3.046   1.246  1.2913 -3.4773 -1.3495
 4145SOL    HW212826   5.813   3.105   1.141  1.8578  1.0124  0.4389
 4146SOL     OW12827   0.266   5.182   5.746 -0.4891  0.1901 -0.1061
 4146SOL    HW112828   0.171   5.173   5.741 -0.3036 -2.0338 -1.2644
 4146SOL    HW212829   0.287   5.170   5.839 -1.4115  2.4483  0.4481
 4147SOL     OW12830   3.000   4.946   4.963  0.0330  0.2070 -0.1547
 4147SOL    HW112831   2.965   5.035   4.960 -0.7643 -0.0469  1.0327
 4147SOL    HW212832   3.085   4.953   4.919 -0.5676  1.2717 -1.2315
 4148SOL     OW12833   1.106   4.643   3.196 -0.2542  0.0910  0.0791
 4148SOL    HW112834   1.089   4.585   3.121 -1.2413 -0.1982  0.5154
 4148SOL    HW212835   1.192   4.681   3.177 -0.5517  0.1443 -1.2877
 4149SOL     OW12836   3.690   5.567   3.136  0.2982 -0.0784  0.1190
 4149SOL    HW112837   3.692   5.480   3.096 -5.5317 -0.2246 -0.6955
 4149SOL    HW212838   3.746   5.621   3.080  1.5715 -2.6064 -1.2224
 4150SOL     OW12839   6.020   1.683   1.355 -0.6054 -0.3312  0.5186
 4150SOL    HW112840   6.018   1.595   1.317  1.2452 -0.4176  0.5438
 4150SOL    HW212841   5.960   1.734   1.300 -1.6878 -1.5885  0.4895
 4151SOL     OW12842   3.263   2.332   1.782  0.1070  0.0492  0.0077
 4151SOL    HW112843   3.317   2.367   1.853 -1.5423 -0.8701  1.8155
 4151SOL    HW212844   3.310   2.254   1.753 -0.5259 -1.2576  2.1763
 4152SOL     OW12845   4.006   3.342   0.167  0.1840  0.0231  0.8635
 4152SOL    HW112846   3.930   3.366   0.221 -0.1646 -2.4920  1.6623
 4152SOL    HW212847   4.081   3.375   0.215 -0.3340  2.4436  0.1261
 4153SOL     OW12848   1.241   2.969   4.012 -0.0574 -0.0476 -0.3763
 4153SOL    HW112849   1.278   3.057   4.023 -1.3051  0.3230  1.2151
 4153SOL    HW212850   1.247   2.930   4.099 -0.1265 -1.3086 -0.9201
 4154SOL     OW12851   2.806   5.409   6.674  0.1128 -0.5688  0.0155
 4154SOL    HW112852   2.735   5.386   6.613 -0.1439 -0.1849  0.1643
 4154SOL    HW212853   2.872   5.450   6.619  0.1257 -0.7378 -0.0939
 4155SOL     OW12854   5.289   3.718   2.351 -0.0096  0.1156  0.0021
 4155SOL    HW112855   5.346   3.737   2.426  1.0406  2.8464 -1.3393
 4155SOL    HW212856   5.252   3.803   2.328  1.1485 -0.2144 -3.6846
 4156SOL     OW12857   1.678   3.769   2.411  0.2508  0.4999 -0.1425
 4156SOL    HW112858   1.756   3.763   2.465  0.6557  3.3505 -0.2710
 4156SOL    HW212859   1.607   3.737   2.467  1.5260 -3.3276 -0.4350
 4157SOL     OW12860   3.547   0.275   4.169 -0.7385  0.2176 -0.2142
 4157SOL    HW112861   3.577   0.360   4.202  0.2097 -1.1129  2.6463
 4157SOL    HW212862   3.507   0.296   4.085  0.9560  3.2476 -0.4324
 4158SOL     OW12863   3.270   4.632   2.580 -0.0886  0.1071  0.1870
 4158SOL    HW112864   3.232   4.545   2.589  0.9718 -0.5669 -1.3359
 4158SOL    HW212865   3.363   4.621   2.599  0.1148  0.8410 -0.3103
 4159SOL     OW12866   6.696   0.995   0.389 -0.3165 -0.2830 -0.7359
 4159SOL    HW112867   6.770   0.939   0.364 -0.6000 -0.5506 -0.9896
 4159SOL    HW212868   6.700   0.999   0.484 -0.8640 -1.5337 -0.6462
 4160SOL     OW12869   5.922   1.710   4.582  0.1063  0.3709 -0.1064
 4160SOL    HW112870   5.889   1.636   4.531  0.9156 -0.7908  0.9864
 4160SOL    HW212871   5.849   1.772   4.586 -1.3195 -1.2865  0.6727
 4161SOL     OW12872   1.812   1.208   2.691  0.6880  0.5779  0.4640
 4161SOL    HW112873   1.816   1.136   2.755 -1.2173  1.5344  1.7711
 4161SOL    HW212874   1.828   1.286   2.743  0.1261  1.3004 -0.4264
 4162SOL     OW12875   0.239   1.697   0.633 -0.3351 -0.5637  0.0176
 4162SOL    HW112876   0.215   1.743   0.713  1.0411  0.3375 -0.0450
 4162SOL    HW212877   0.196   1.746   0.563  0.6583  0.3120 -0.0004
 4163SOL     OW12878   5.007   2.698   4.979 -0.0592  0.4506 -0.0161
 4163SOL    HW112879   4.958   2.780   4.976  1.1242  1.1756 -3.3516
 4163SOL    HW212880   5.098   2.724   4.994  0.1045 -0.4181  0.6041
 4164SOL     OW12881   4.743   3.630   2.566  0.3467  0.0296 -0.0572
 4164SOL    HW112882   4.727   3.685   2.643 -0.3012 -0.0857 -0.0982
 4164SOL    HW212883   4.828   3.659   2.533  1.3259 -0.9064  1.5296
 4165SOL     OW12884   5.609   6.195   3.574 -0.2396  0.4732  0.2553
 4165SOL    HW112885   5.619   6.272   3.518 -0.9647  1.5420  1.5627
 4165SOL    HW212886   5.654   6.217   3.655 -0.6957 -0.3781  0.7576
 4166SOL     OW12887   5.941   6.020   5.834  0.2662 -0.1335 -0.0870
 4166SOL    HW112888   5.846   6.017   5.827  0.2958 -2.4947 -0.1064
 4166SOL    HW212889   5.958   6.019   5.929  0.3189  3.8589  0.1296
 4167SOL     OW12890   5.922   3.626   6.560 -0.1317  0.1536 -0.1150
 4167SOL    HW112891   5.951   3.696   6.501  3.6694 -0.2258  1.0072
 4167SOL    HW212892   5.906   3.670   6.644 -0.4131  0.0439 -0.1121
 4168SOL     OW12893   0.869   5.270   5.986 -0.1126  0.1740 -0.0321
 4168SOL    HW112894   0.782   5.309   5.984  0.4229  1.5231  0.9165
 4168SOL    HW212895   0.877   5.233   6.074  0.9296  1.7953  0.6182
 4169SOL     OW12896   1.444   2.788   2.516 -0.2797  0.4241 -0.1424
 4169SOL    HW112897   1.386   2.747   2.580  0.5062 -0.4059  0.0605
 4169SOL    HW212898   1.390   2.854   2.473 -1.1575  0.1662  0.5426
 4170SOL     OW12899   3.807   0.540   3.652 -0.3521 -0.2012 -0.1094
 4170SOL    HW112900   3.716   0.544   3.622 -0.2264  1.0755 -0.3657
 4170SOL    HW212901   3.804   0.483   3.729 -1.4889  0.3227  0.2596
 4171SOL     OW12902   2.298   0.194   2.841  0.2889  0.2199 -0.2511
 4171SOL    HW112903   2.286   0.275   2.890  1.0381 -0.5317  1.2162
 4171SOL    HW212904   2.288   0.220   2.749  1.1091  2.0933  0.1489
 4172SOL     OW12905   6.353   6.740   1.842 -0.5015 -0.6074 -0.9845
 4172SOL    HW112906   6.296   6.677   1.888  0.3801 -0.7609 -0.0732
 4172SOL    HW212907   6.354   6.817   1.899 -0.9439 -0.0549 -1.7132
 4173SOL     OW12908   0.975   5.294   3.578 -0.5350  0.3047 -0.0848
 4173SOL    HW112909   0.930   5.319   3.497 -1.9999  1.4579  1.0093
 4173SOL    HW212910   0.963   5.370   3.636 -0.5076 -0.9031  1.5879
 4174SOL     OW12911   5.284   5.980   3.607  0.5463 -0.0087 -0.7301
 4174SOL    HW112912   5.279   5.885   3.617 -1.1860  0.0118 -1.0735
 4174SOL    HW212913   5.261   6.014   3.693  0.6673  0.1041 -0.7426
 4175SOL     OW12914   2.433   5.246   4.964 -0.6759  0.3182  0.1310
 4175SOL    HW112915   2.343   5.220   4.985 -0.9484  0.9618 -0.1911
 4175SOL    HW212916   2.446   5.214   4.875 -0.8767  0.9105 -0.1213
 4176SOL     OW12917   1.214   3.309   4.744 -0.4857 -0.2377  0.2639
 4176SOL    HW112918   1.261   3.229   4.719  1.5273  0.8402  0.3536
 4176SOL    HW212919   1.231   3.370   4.672 -1.1508  0.4154  0.6541
 4177SOL     OW12920   2.886   5.431   1.317  0.3629 -0.0159  0.0632
 4177SOL    HW112921   2.953   5.481   1.270  0.2774 -0.3859 -0.4522
 4177SOL    HW212922   2.807   5.485   1.309  1.0089  1.4396  2.3844
 4178SOL     OW12923   3.075   5.516   4.085  0.2561  0.0012  0.1767
 4178SOL    HW112924   3.053   5.499   3.993 -0.8795  0.2001  0.3941
 4178SOL    HW212925   3.153   5.464   4.101 -0.7195 -1.6722 -0.3203
 4179SOL     OW12926   4.765   5.729   5.175 -0.3816 -0.3888 -0.4292
 4179SOL    HW112927   4.827   5.777   5.229  0.1776 -1.4625 -0.0861
 4179SOL    HW212928   4.680   5.769   5.193  0.1421  0.8455 -0.6089
 4180SOL     OW12929   0.887   6.739   5.779 -0.2185  0.1869  0.3199
 4180SOL    HW112930   0.906   6.665   5.723  0.5980  1.0821 -0.6265
 4180SOL    HW212931   0.964   6.749   5.834 -0.4073  0.2246  0.5825
 4181SOL     OW12932   5.028   1.253   3.535  0.4668  0.5989 -0.1138
 4181SOL    HW112933   5.082   1.327   3.564  1.4108  0.0908 -0.5437
 4181SOL    HW212934   5.083   1.176   3.547 -0.2597  0.0285 -0.3191
 4182SOL     OW12935   4.538   6.718   6.674 -0.0585 -0.1020  0.4312
 4182SOL    HW112936   4.484   6.704   6.597 -1.8380 -1.5385  1.8632
 4182SOL    HW212937   4.560   6.812   6.671 -1.0213  0.1084 -1.2008
 4183SOL     OW12938   1.786   4.298   0.451  0.3521  0.3066 -0.2667
 4183SOL    HW112939   1.809   4.383   0.490 -0.1839  1.5357 -2.4664
 4183SOL    HW212940   1.868   4.265   0.415  0.4432  0.1613  0.0667
 4184SOL     OW12941   6.267   2.959   4.101 -0.3449 -0.2920  0.1405
 4184SOL    HW112942   6.272   2.928   4.010 -1.4632 -1.1228  0.3472
 4184SOL    HW212943   6.347   3.011   4.112  1.8698 -3.3352 -0.1489
 4185SOL     OW12944   4.930   0.382   3.851 -0.2917  0.4624 -0.4231
 4185SOL    HW112945   4.947   0.383   3.757  1.4442  1.9107 -0.1452
 4185SOL    HW212946   4.989   0.315   3.886 -0.1536  0.6782 -0.2405
 4186SOL     OW12947   0.510   1.507   4.768 -0.7663  0.2450  0.8295
 4186SOL    HW112948   0.505   1.601   4.750  0.2751  0.5015  1.8234
 4186SOL    HW212949   0.554   1.470   4.691 -1.3447  0.5235  0.3505
 4187SOL     OW12950   0.236   5.327   2.054  0.0082  0.1954  0.2190
 4187SOL    HW112951   0.329   5.346   2.041 -0.2952  1.7304  0.0421
 4187SOL    HW212952   0.221   5.244   2.008  1.0299  0.5764 -0.8495
 4188SOL     OW12953   2.484   6.782   4.411 -0.1057  0.3481 -0.7433
 4188SOL    HW112954   2.424   6.739   4.351  1.1431 -0.8526 -1.1654
 4188SOL    HW212955   2.486   6.726   4.488  0.3460  0.4797 -0.6571
 4189SOL     OW12956   5.863   4.131   3.824  1.0836 -0.1310 -0.1333
 4189SOL    HW112957   5.828   4.175   3.902 -0.2063 -2.5503  0.7349
 4189SOL    HW212958   5.820   4.175   3.751 -0.4680 -0.1580  0.7211
 4190SOL     OW12959   5.951   5.243   2.205  0.3945  0.1258  0.4391
 4190SOL    HW112960   6.014   5.214   2.271  2.2348  0.6702 -0.9884
 4190SOL    HW212961   5.909   5.162   2.175  1.1561 -0.3814  0.7037
 4191SOL     OW12962   2.902   4.234   5.913 -0.1222  0.1000 -0.0197
 4191SOL    HW112963   2.949   4.189   5.843  2.9515  0.8020  1.4409
 4191SOL    HW212964   2.849   4.300   5.868 -1.7659 -2.2983 -1.8935
 4192SOL     OW12965   4.907   6.449   2.757  0.3334  0.3413 -0.1494
 4192SOL    HW112966   4.974   6.516   2.744 -1.0898  1.9796  0.6905
 4192SOL    HW212967   4.831   6.481   2.709 -0.2928 -0.8393  0.0236
 4193SOL     OW12968   6.111   5.522   5.563 -0.1771  0.5069  0.4990
 4193SOL    HW112969   6.141   5.432   5.562 -0.5458  0.3636  1.4749
 4193SOL    HW212970   6.066   5.532   5.647 -2.3719  0.8694 -0.6504
 4194SOL     OW12971   2.972   6.036   1.533 -0.5909  0.0432  0.0125
 4194SOL    HW112972   3.014   6.114   1.496 -0.0457 -0.5940 -0.7591
 4194SOL    HW212973   3.041   5.995   1.586 -1.5114  1.2225  2.2523
 4195SOL     OW12974   2.855   2.620   5.546  1.0125  0.1268  0.4328
 4195SOL    HW112975   2.867   2.613   5.452  1.6961  1.4084  0.4031
 4195SOL    HW212976   2.865   2.714   5.565 -0.5989  0.1157  1.5793
 4196SOL     OW12977   2.406   2.953   3.377 -0.3935 -0.1094 -0.0471
 4196SOL    HW112978   2.390   2.859   3.369  2.4165 -0.8165  1.4690
 4196SOL    HW212979   2.408   2.985   3.287 -0.0408 -1.7739 -0.6612
 4197SOL     OW12980   2.035   5.299   2.303 -0.4905 -0.6787 -0.0789
 4197SOL    HW112981   2.109   5.328   2.356 -1.4549 -0.1463  1.0431
 4197SOL    HW212982   1.993   5.230   2.355 -0.2727 -1.6166 -1.1158
 4198SOL     OW12983   5.116   6.768   4.036  0.3818 -0.1626 -0.3553
 4198SOL    HW112984   5.034   6.731   4.002  0.2306 -0.6374  0.4908
 4198SOL    HW212985   5.141   6.708   4.106 -1.1368  2.5440  2.7574
 4199SOL     OW12986   3.749   3.614   2.756 -0.0099  0.0687  0.5601
 4199SOL    HW112987   3.660   3.642   2.735 -0.7812 -1.9993  0.8327
 4199SOL    HW212988   3.786   3.587   2.671  0.6379  1.5474  0.3389
 4200SOL     OW12989   5.489   4.012   1.888  0.0946  0.6584 -0.6743
 4200SOL    HW112990   5.458   4.086   1.940  0.5852  0.1012  0.4384
 4200SOL    HW212991   5.576   3.992   1.923  0.0671 -0.2921 -1.1086
 4201SOL     OW12992   3.772   2.620   3.637 -0.0305  0.5937 -0.3194
 4201SOL    HW112993   3.730   2.546   3.593  2.4199 -0.1787 -1.5460
 4201SOL    HW212994   3.741   2.697   3.588 -1.9447  0.3710  0.4424
 4202SOL     OW12995   1.059   3.960   4.063 -0.3935  0.3388 -0.2345
 4202SOL    HW112996   0.966   3.980   4.053 -0.9472 -1.8179  0.2293
 4202SOL    HW212997   1.069   3.933   4.154  0.7753  0.8774 -0.1804
 4203SOL     OW12998   3.585   2.737   1.286 -0.2909 -0.5006  0.0209
 4203SOL    HW112999   3.538   2.675   1.341  0.4513  0.0494  1.3057
 4203SOL    HW213000   3.677   2.711   1.292 -0.1191 -0.0369 -0.4481
 4204SOL     OW13001   1.235   3.221   2.230 -0.5864 -0.6130  0.4888
 4204SOL    HW113002   1.147   3.256   2.244  0.4778  1.8763  1.8148
 4204SOL    HW213003   1.241   3.206   2.136 -1.8057  1.1507  0.0782
 4205SOL     OW13004   5.803   3.769   0.436 -0.2479  0.1566 -0.2567
 4205SOL    HW113005   5.765   3.681   0.428 -2.0718  0.6434  1.9306
 4205SOL    HW213006   5.727   3.827   0.439  0.8558  1.6215  0.1701
 4206SOL     OW13007   5.874   4.144   0.716 -0.1660 -0.1897 -0.0835
 4206SOL    HW113008   5.788   4.181   0.700 -0.6197 -1.2919 -0.3000
 4206SOL    HW213009   5.861   4.049   0.709  1.2852 -0.3324 -1.2380
 4207SOL     OW13010   1.407   0.150   5.639 -0.0838  0.1241  0.6181
 4207SOL    HW113011   1.443   0.101   5.565 -0.7644 -0.4184  0.6420
 4207SOL    HW213012   1.313   0.150   5.625 -0.1697  0.6050  1.1311
 4208SOL     OW13013   2.013   1.666   0.758  0.1457  0.5603  0.3446
 4208SOL    HW113014   2.084   1.611   0.724 -1.8437 -2.0576  0.0708
 4208SOL    HW213015   1.975   1.615   0.829 -2.5102  1.0237 -0.6257
 4209SOL     OW13016   5.064   1.746   0.410 -0.5455 -0.2183 -0.4430
 4209SOL    HW113017   5.037   1.777   0.323 -0.7767  1.3086  0.1448
 4209SOL    HW213018   5.160   1.738   0.403 -0.5260  0.2048 -0.7520
 4210SOL     OW13019   5.813   0.401   3.100  0.1734 -0.6976 -0.0207
 4210SOL    HW113020   5.759   0.479   3.111  0.9660 -0.0853 -0.3805
 4210SOL    HW213021   5.898   0.426   3.137  0.8722 -0.8810 -1.4280
 4211SOL     OW13022   2.272   0.563   0.619 -0.4024 -0.3067 -0.6214
 4211SOL    HW113023   2.190   0.605   0.594  0.1262  1.0491 -0.1845
 4211SOL    HW213024   2.254   0.526   0.706 -1.1587 -1.8871 -1.4083
 4212SOL     OW13025   1.161   3.643   6.653 -0.0755 -0.1016  0.3072
 4212SOL    HW113026   1.242   3.593   6.639 -0.3349 -0.2681 -0.6875
 4212SOL    HW213027   1.092   3.576   6.659  0.1171 -0.1752  3.8780
 4213SOL     OW13028   1.747   1.184   3.580  0.0613  0.7403 -0.1414
 4213SOL    HW113029   1.762   1.244   3.653 -0.6936  2.9689 -1.7100
 4213SOL    HW213030   1.826   1.191   3.527  0.5047 -0.6877  0.2844
 4214SOL     OW13031   3.937   5.496   6.306  0.4052  0.0816 -1.0611
 4214SOL    HW113032   3.927   5.568   6.244 -0.9504  1.3591  0.5639
 4214SOL    HW213033   3.967   5.537   6.387 -1.1123 -1.0203  0.1254
 4215SOL     OW13034   1.763   4.060   4.150 -0.0871  0.1087  0.3062
 4215SOL    HW113035   1.716   4.124   4.095 -0.2611 -0.0962  0.2112
 4215SOL    HW213036   1.799   4.112   4.221 -2.0473  0.0301  1.4325
 4216SOL     OW13037   3.587   1.524   6.630  0.0401  0.1449 -0.0980
 4216SOL    HW113038   3.585   1.527   6.725  0.9998 -0.0283 -0.0628
 4216SOL    HW213039   3.588   1.431   6.608  4.6451 -0.0541 -0.0665
 4217SOL     OW13040   6.477   4.639   5.209  0.4882 -0.0120  0.9288
 4217SOL    HW113041   6.387   4.633   5.175  0.6408 -0.6080  0.6130
 4217SOL    HW213042   6.521   4.699   5.148  0.4510 -0.1598  0.7544
 4218SOL     OW13043   5.494   5.866   4.916 -0.1247  0.0058 -0.0977
 4218SOL    HW113044   5.467   5.922   4.843 -0.3803 -0.7326 -0.5745
 4218SOL    HW213045   5.562   5.917   4.960  0.5933  0.1350 -1.3127
 4219SOL     OW13046   6.512   2.897   0.151  0.2895 -0.6908  0.0349
 4219SOL    HW113047   6.521   2.871   0.059  1.4085 -1.1191  0.2459
 4219SOL    HW213048   6.491   2.816   0.197  0.6343 -0.6424  0.2799
 4220SOL     OW13049   4.310   5.244   6.102  0.2604  0.0931  0.4867
 4220SOL    HW113050   4.280   5.334   6.111  0.2094  0.0532  0.7264
 4220SOL    HW213051   4.296   5.205   6.189 -0.4894 -0.3685  0.1713
 4221SOL     OW13052   3.949   4.450   2.808 -0.5725  0.4203  0.5001
 4221SOL    HW113053   3.894   4.377   2.834  0.5834  0.1326  2.3119
 4221SOL    HW213054   4.038   4.413   2.805 -0.1446  1.4372  0.0817
 4222SOL     OW13055   6.025   4.862   3.851  0.0136 -0.4274  1.2200
 4222SOL    HW113056   6.052   4.930   3.913  0.8006 -0.2137  0.6470
 4222SOL    HW213057   6.060   4.781   3.888 -1.2571 -0.6116  2.1105
 4223SOL     OW13058   3.905   5.069   5.115  0.2326 -0.2399  0.2159
 4223SOL    HW113059   3.817   5.104   5.134  0.5245 -0.0689  1.3332
 4223SOL    HW213060   3.891   4.975   5.104 -0.3144 -0.0280 -1.2113
 4224SOL     OW13061   1.112   5.682   2.390  0.2505 -0.5959 -0.2107
 4224SOL    HW113062   1.126   5.776   2.397 -0.1800 -0.6082  0.9326
 4224SOL    HW213063   1.077   5.656   2.475 -1.1458 -1.5258 -1.0413
 4225SOL     OW13064   3.374   3.022   4.268 -0.4506  0.5363 -0.3459
 4225SOL    HW113065   3.295   3.075   4.277 -0.9012 -0.3895  1.5559
 4225SOL    HW213066   3.443   3.076   4.307 -1.2175 -0.8192  3.2543
 4226SOL     OW13067   3.048   0.190   2.664  0.1828  0.5424  0.2931
 4226SOL    HW113068   2.963   0.229   2.645 -0.1891  0.6974  2.1329
 4226SOL    HW213069   3.104   0.264   2.688  0.8001  0.4145 -0.6659
 4227SOL     OW13070   1.825   4.322   3.397  0.0230 -0.8750 -1.1677
 4227SOL    HW113071   1.829   4.227   3.385  1.0188 -1.1871  1.0654
 4227SOL    HW213072   1.872   4.337   3.479  1.0167  1.7004 -2.1295
 4228SOL     OW13073   4.780   3.476   0.578  0.5653  0.0182 -0.1301
 4228SOL    HW113074   4.872   3.459   0.599  0.6261  0.1744 -0.2708
 4228SOL    HW213075   4.771   3.451   0.486 -0.0677 -2.1360  0.4673
 4229SOL     OW13076   4.467   1.232   5.905 -0.2063 -0.2770  0.2449
 4229SOL    HW113077   4.493   1.296   5.971  1.6439  0.7956 -1.4255
 4229SOL    HW213078   4.484   1.147   5.945 -0.3156  0.3113  1.5723
 4230SOL     OW13079   2.728   4.867   2.571 -0.2127 -0.0636  0.1014
 4230SOL    HW113080   2.671   4.793   2.590 -1.0298  0.8570  1.4414
 4230SOL    HW213081   2.672   4.944   2.579  0.9200  0.7896  0.2020
 4231SOL     OW13082   2.584   6.608   1.631 -0.1821  0.3744 -0.1401
 4231SOL    HW113083   2.518   6.538   1.622 -0.5834  0.5976  0.9451
 4231SOL    HW213084   2.593   6.620   1.725  1.3245  0.4556 -0.2775
 4232SOL     OW13085   4.402   1.496   5.257 -0.4730  0.2444  0.5867
 4232SOL    HW113086   4.359   1.501   5.172 -0.1750 -2.4907  0.1685
 4232SOL    HW213087   4.475   1.557   5.251 -2.8962  3.3641  0.5445
 4233SOL     OW13088   0.130   0.449   6.789  0.2372 -0.6767  0.1634
 4233SOL    HW113089   0.085   0.491   6.715  2.5181  0.8951 -0.4528
 4233SOL    HW213090   0.089   0.488   6.866  0.8681  1.2094 -0.3841
 4234SOL     OW13091   2.918   6.505   2.722 -0.0703 -0.0751  0.0055
 4234SOL    HW113092   2.843   6.515   2.781 -1.0312 -0.4339 -1.1256
 4234SOL    HW213093   2.947   6.414   2.736 -0.0378 -0.0356  0.2082
 4235SOL     OW13094   5.134   4.737   0.975 -0.5382 -0.1827  0.2208
 4235SOL    HW113095   5.065   4.762   1.037 -0.2261 -0.7138  0.7896
 4235SOL    HW213096   5.160   4.820   0.935 -1.3783  0.0511  0.1313
 4236SOL     OW13097   2.861   1.328   1.783 -0.1873  0.4169 -0.1172
 4236SOL    HW113098   2.817   1.394   1.729 -1.2039  0.3154  0.5722
 4236SOL    HW213099   2.795   1.260   1.796  0.2121  0.2065  0.8431
 4237SOL     OW13100   0.770   0.845   5.021  0.1238 -0.2505 -0.2894
 4237SOL    HW113101   0.741   0.925   4.977 -1.7558 -0.6322  0.1440
 4237SOL    HW213102   0.806   0.790   4.952  1.7089  1.0680 -0.5431
 4238SOL     OW13103   6.538   3.653   4.120 -0.1384  0.1582  0.6324
 4238SOL    HW113104   6.564   3.718   4.056 -2.1395 -0.5465 -1.0084
 4238SOL    HW213105   6.476   3.699   4.177 -1.8871 -0.3247 -0.7882
 4239SOL     OW13106   5.392   5.967   6.327  0.0179  0.5805  0.2283
 4239SOL    HW113107   5.345   5.913   6.389  0.5996  0.4816  0.5938
 4239SOL    HW213108   5.388   6.056   6.364  0.1317  0.5692  0.2684
 4240SOL     OW13109   4.469   2.933   0.591  0.4867 -0.2523  0.3591
 4240SOL    HW113110   4.434   2.917   0.504  0.3762  0.4096  0.2784
 4240SOL    HW213111   4.493   3.026   0.591  0.0861 -0.1370  1.1637
 4241SOL     OW13112   3.376   1.271   6.141 -0.8838 -0.0481  0.7009
 4241SOL    HW113113   3.326   1.248   6.219 -2.2030 -1.5463 -0.5249
 4241SOL    HW213114   3.416   1.189   6.112 -3.0176 -0.2990 -1.9530
 4242SOL     OW13115   5.637   2.717   2.827  0.1933  0.1726  0.3913
 4242SOL    HW113116   5.641   2.762   2.743  0.6531 -2.8658 -1.3763
 4242SOL    HW213117   5.715   2.748   2.874  0.0202  1.8058 -0.3335
 4243SOL     OW13118   3.448   2.124   2.670  0.2723 -0.1600  0.4567
 4243SOL    HW113119   3.358   2.139   2.699 -0.0456 -2.0903  0.5780
 4243SOL    HW213120   3.470   2.203   2.620 -1.0449  0.8745  1.4223
 4244SOL     OW13121   2.441   6.809   2.901 -0.4994  0.1709  0.4334
 4244SOL    HW113122   2.419   6.811   2.994 -1.2580  0.9013  0.2494
 4244SOL    HW213123   2.409   6.892   2.867 -1.4525 -0.6416 -0.7553
 4245SOL     OW13124   3.525   1.018   0.687  0.0912 -0.2760 -0.5243
 4245SOL    HW113125   3.491   1.004   0.598  0.0041 -1.4994 -0.3257
 4245SOL    HW213126   3.562   1.106   0.686 -2.4895  0.8998 -0.9525
 4246SOL     OW13127   3.212   3.402   2.761  0.2105  0.8124  0.1102
 4246SOL    HW113128   3.282   3.398   2.826 -0.3027 -1.4152  0.5981
 4246SOL    HW213129   3.250   3.362   2.683 -0.2162  0.3746  0.1169
 4247SOL     OW13130   6.464   2.409   5.628 -0.3979  0.4035 -0.5279
 4247SOL    HW113131   6.455   2.449   5.542 -0.6738 -0.5572 -0.9614
 4247SOL    HW213132   6.521   2.333   5.613  1.7863  1.7204  0.6399
 4248SOL     OW13133   1.305   6.712   2.911 -0.3201  0.2989  0.4363
 4248SOL    HW113134   1.214   6.702   2.881 -0.3263  0.6020  0.3492
 4248SOL    HW213135   1.342   6.779   2.853 -0.1202  0.3688  0.6441
 4249SOL     OW13136   1.069   6.812   6.556 -0.3295  0.3286  0.5057
 4249SOL    HW113137   0.978   6.839   6.539 -0.6451  0.0755  1.7248
 4249SOL    HW213138   1.081   6.824   6.650  0.2655 -1.5232  0.7177
 4250SOL     OW13139   3.890   3.929   0.442 -0.0851 -0.2359  0.8673
 4250SOL    HW113140   3.853   3.906   0.357  0.1794  0.2778  0.6041
 4250SOL    HW213141   3.961   3.866   0.455 -0.1586 -0.3482  0.7252
 4251SOL     OW13142   5.823   4.836   1.037 -0.1757 -0.3879 -0.0419
 4251SOL    HW113143   5.795   4.777   1.108 -0.6939 -2.7254 -2.0452
 4251SOL    HW213144   5.871   4.779   0.977  1.5498  1.8232 -0.8932
 4252SOL     OW13145   5.233   3.904   3.887  0.6197  0.4291 -0.3816
 4252SOL    HW113146   5.321   3.867   3.886  0.4359 -0.0250 -1.1134
 4252SOL    HW213147   5.201   3.888   3.975  1.0295 -0.0067 -0.3074
 4253SOL     OW13148   2.886   6.511   6.265 -0.1497 -0.6620  0.3255
 4253SOL    HW113149   2.816   6.455   6.300 -1.4589  0.1258 -0.9234
 4253SOL    HW213150   2.924   6.460   6.194  0.0178 -0.7773  0.4983
 4254SOL     OW13151   2.559   1.769   4.835  0.0108 -0.2548 -0.1570
 4254SOL    HW113152   2.573   1.846   4.891  1.5634 -0.0098 -0.8170
 4254SOL    HW213153   2.564   1.803   4.746  0.3170 -1.0502 -0.4554
 4255SOL     OW13154   4.670   2.125   5.997 -0.1848  0.2036  0.1464
 4255SOL    HW113155   4.703   2.193   5.939  0.2658  0.5723  0.8133
 4255SOL    HW213156   4.649   2.052   5.940 -3.4757  1.8344 -1.0402
 4256SOL     OW13157   1.274   4.030   3.728 -0.6000 -0.1721  0.1687
 4256SOL    HW113158   1.290   3.959   3.665  1.4478 -1.3906  1.9636
 4256SOL    HW213159   1.307   3.997   3.811  1.0526  3.1374  0.9780
 4257SOL     OW13160   6.634   4.882   2.964 -0.4757 -0.0952 -0.4931
 4257SOL    HW113161   6.635   4.831   2.883 -0.3511 -0.2461 -0.3972
 4257SOL    HW213162   6.543   4.878   2.994 -0.7201  0.6901 -1.0795
 4258SOL     OW13163   4.695   3.283   1.685  0.3301  0.2851 -0.3685
 4258SOL    HW113164   4.666   3.374   1.692 -0.2446  0.0996 -0.3512
 4258SOL    HW213165   4.633   3.234   1.739  0.5973 -0.1291 -0.4378
 4259SOL     OW13166   3.977   5.090   2.754  0.4379  0.0158 -0.4060
 4259SOL    HW113167   3.923   5.011   2.750  0.1839  0.1864 -0.3363
 4259SOL    HW213168   4.011   5.100   2.665 -1.7148  1.3430 -1.1573
 4260SOL     OW13169   3.843   3.431   0.393 -0.0314  0.6171 -0.5137
 4260SOL    HW113170   3.891   3.512   0.411  1.6470 -0.0303 -1.8050
 4260SOL    HW213171   3.878   3.368   0.456 -2.6175  1.2546  1.7215
 4261SOL     OW13172   2.225   4.620   0.324 -0.2813 -0.2498 -0.3742
 4261SOL    HW113173   2.277   4.631   0.404  0.2577 -1.7189 -0.4795
 4261SOL    HW213174   2.140   4.657   0.345 -0.2167 -0.7942  0.9692
 4262SOL     OW13175   5.594   4.959   4.088 -0.2505 -0.6192  0.3608
 4262SOL    HW113176   5.657   4.913   4.033 -1.0871 -0.0750 -1.1254
 4262SOL    HW213177   5.546   5.015   4.027 -1.6438 -0.4518  1.5564
 4263SOL     OW13178   3.610   6.518   5.156 -0.2758  0.6996  0.1714
 4263SOL    HW113179   3.601   6.611   5.175 -0.7008  0.3062  2.1630
 4263SOL    HW213180   3.600   6.475   5.241 -1.7878 -1.2837 -0.9048
 4264SOL     OW13181   5.509   6.573   1.338  0.4713  0.2419  0.4719
 4264SOL    HW113182   5.586   6.596   1.390 -0.2177 -0.4174  1.8470
 4264SOL    HW213183   5.512   6.478   1.333 -0.1603  0.2258  0.3871
 4265SOL     OW13184   0.998   1.566   3.067  0.1504  0.4084  0.5072
 4265SOL    HW113185   0.943   1.503   3.021 -0.8264  1.5831 -0.0079
 4265SOL    HW213186   1.087   1.531   3.060 -0.1861 -0.2310 -0.9361
 4266SOL     OW13187   3.775   0.042   1.544  0.4224  0.3844 -0.4649
 4266SOL    HW113188   3.692   0.084   1.522  0.9252  1.5043 -0.2878
 4266SOL    HW213189   3.802   0.082   1.626  0.8144 -0.4543 -0.1720
 4267SOL     OW13190   4.315   6.032   4.694  0.0843 -1.1391  0.3446
 4267SOL    HW113191   4.367   6.038   4.614 -0.4583  0.2919  0.0670
 4267SOL    HW213192   4.226   6.056   4.666  0.2158  1.1565  1.6573
 4268SOL     OW13193   0.045   0.875   0.885 -0.2505  0.2123  0.3960
 4268SOL    HW113194   0.021   0.783   0.881 -1.1126  0.4631 -0.2793
 4268SOL    HW213195   0.130   0.880   0.840 -0.0683 -0.2837  0.6774
 4269SOL     OW13196   3.430   2.459   5.837 -0.2118 -0.7464  0.2022
 4269SOL    HW113197   3.383   2.538   5.811  0.3441 -0.0964  1.1212
 4269SOL    HW213198   3.443   2.411   5.755 -1.3654 -0.3445 -0.2365
 4270SOL     OW13199   3.413   6.555   3.076 -0.0129 -0.4461 -0.3234
 4270SOL    HW113200   3.489   6.553   3.134 -0.3433 -0.0920  0.1283
 4270SOL    HW213201   3.449   6.543   2.989  0.3326 -2.9686  0.0897
 4271SOL     OW13202   3.799   1.390   5.145  0.1948  0.0995  0.7773
 4271SOL    HW113203   3.877   1.443   5.128 -1.1230  2.2013  0.8571
 4271SOL    HW213204   3.789   1.337   5.066  0.6600  1.1908 -0.0512
 4272SOL     OW13205   3.814   5.776   2.951  0.0496  0.5134 -0.3485
 4272SOL    HW113206   3.907   5.787   2.929  0.1731  0.3996  0.1061
 4272SOL    HW213207   3.797   5.845   3.016  0.6679 -1.4708  2.0712
 4273SOL     OW13208   3.658   1.144   5.658 -0.0472 -0.3841 -0.2489
 4273SOL    HW113209   3.735   1.088   5.661  1.4152  1.5462 -0.0136
 4273SOL    HW213210   3.627   1.138   5.568 -0.3917 -2.1150 -0.0501
 4274SOL     OW13211   4.965   5.719   6.500  0.0709  0.0463  0.0055
 4274SOL    HW113212   4.898   5.777   6.535  0.1367 -0.4182  0.9232
 4274SOL    HW213213   4.960   5.641   6.555  2.5388  0.6791  1.2370
 4275SOL     OW13214   6.166   2.927   6.668 -0.2901 -0.2805  0.3302
 4275SOL    HW113215   6.242   2.985   6.657  0.3043 -1.1342 -0.0953
 4275SOL    HW213216   6.092   2.987   6.674  0.1702  0.5039 -1.3096
 4276SOL     OW13217   5.006   5.088   0.171 -0.1040 -0.0411 -0.1143
 4276SOL    HW113218   4.938   5.141   0.212  0.2540  1.0696 -0.9087
 4276SOL    HW213219   4.974   5.071   0.082  0.8746  1.0007 -0.7008
 4277SOL     OW13220   1.749   1.031   2.870  0.2470  0.5077 -0.2793
 4277SOL    HW113221   1.738   1.066   2.959 -1.1813  0.8811 -0.5782
 4277SOL    HW213222   1.820   0.967   2.878 -1.0171 -0.7529  1.5034
 4278SOL     OW13223   0.152   0.323   5.659 -0.3377  0.2338  0.4517
 4278SOL    HW113224   0.216   0.263   5.699 -0.0129 -0.7585 -1.4438
 4278SOL    HW213225   0.175   0.409   5.695  1.6784 -0.1830  0.3129
 4279SOL     OW13226   2.603   1.914   1.562 -0.0565  0.9701  0.2170
 4279SOL    HW113227   2.604   1.821   1.588 -0.7824  1.2010  1.1401
 4279SOL    HW213228   2.515   1.927   1.526  0.1909  1.2028 -0.3054
 4280SOL     OW13229   5.604   1.823   3.359  0.1042 -0.0169 -0.3072
 4280SOL    HW113230   5.510   1.831   3.379  0.2613 -0.5645  0.7639
 4280SOL    HW213231   5.641   1.783   3.438  1.4756  1.5054 -0.1265
 4281SOL     OW13232   6.368   1.687   4.919  0.0546  0.2989  0.6408
 4281SOL    HW113233   6.294   1.714   4.865 -1.0636  0.5703  2.2202
 4281SOL    HW213234   6.429   1.646   4.858 -0.7830  1.2779 -0.9238
 4282SOL     OW13235   0.348   1.258   2.507 -0.1958 -0.0425 -0.4409
 4282SOL    HW113236   0.254   1.252   2.488 -0.2924  1.2922 -0.4581
 4282SOL    HW213237   0.390   1.238   2.424 -0.4728 -0.3309 -0.5145
 4283SOL     OW13238   0.705   2.315   2.346 -0.2536  0.4704  0.3722
 4283SOL    HW113239   0.797   2.327   2.326 -0.2547 -1.4074 -1.0782
 4283SOL    HW213240   0.667   2.403   2.340  1.1092  1.0174 -0.8332
 4284SOL     OW13241   3.210   3.921   5.814  0.1058  0.2555 -0.4497
 4284SOL    HW113242   3.264   3.916   5.893 -0.5604 -0.4177 -0.0205
 4284SOL    HW213243   3.272   3.943   5.744  0.7522  0.5625  0.2079
 4285SOL     OW13244   1.897   0.965   6.363 -0.1603  0.3709  0.0082
 4285SOL    HW113245   1.944   1.003   6.437  3.2919 -1.6075 -0.9423
 4285SOL    HW213246   1.950   0.988   6.286 -1.1648 -1.3210 -1.2716
 4286SOL     OW13247   2.847   3.880   5.402  0.1001 -0.2068  0.0827
 4286SOL    HW113248   2.814   3.807   5.455  0.4601  0.8935  1.8792
 4286SOL    HW213249   2.811   3.958   5.444  0.3958  0.7140 -1.3224
 4287SOL     OW13250   2.418   3.966   5.747  0.8035  0.2519 -0.3864
 4287SOL    HW113251   2.487   4.025   5.777  0.2492  1.0520 -0.6483
 4287SOL    HW213252   2.337   4.006   5.779  0.5121 -1.4256  1.1837
 4288SOL     OW13253   0.788   3.978   3.950 -0.0453 -0.1735 -0.3548
 4288SOL    HW113254   0.804   4.063   3.992  1.1546  0.2524 -1.6026
 4288SOL    HW213255   0.695   3.980   3.927  0.0738  1.0197 -0.7938
 4289SOL     OW13256   4.270   6.463   5.120  0.3516  0.3728  0.5578
 4289SOL    HW113257   4.338   6.491   5.181  2.3436 -1.2737 -0.7318
 4289SOL    HW213258   4.255   6.539   5.064  2.0370  0.4699  0.1706
 4290SOL     OW13259   2.292   0.787   4.217 -0.0353  0.5500 -0.5330
 4290SOL    HW113260   2.385   0.776   4.237 -0.1880  0.1092 -0.0313
 4290SOL    HW213261   2.281   0.881   4.204  0.4771  0.6086 -0.5805
 4291SOL     OW13262   0.276   1.051   6.405 -0.3322 -0.3337  0.7230
 4291SOL    HW113263   0.294   0.976   6.462 -1.5755 -1.7218 -0.6246
 4291SOL    HW213264   0.328   1.035   6.326 -0.1402  0.5495  0.6619
 4292SOL     OW13265   4.790   3.671   5.354 -0.0405  0.0612  0.1794
 4292SOL    HW113266   4.795   3.593   5.300  0.0186  1.0600 -1.3183
 4292SOL    HW213267   4.699   3.674   5.383 -0.4962  0.3397 -1.1985
 4293SOL     OW13268   6.197   4.542   5.699 -0.1705  0.4878  0.1251
 4293SOL    HW113269   6.217   4.521   5.790  0.3701  0.5562  0.0227
 4293SOL    HW213270   6.142   4.469   5.669  1.8094 -0.9354 -0.2698
 4294SOL     OW13271   1.908   2.352   0.965  0.2077  0.4406  0.5386
 4294SOL    HW113272   1.989   2.330   0.919  0.0858  0.5926  0.2473
 4294SOL    HW213273   1.864   2.269   0.978 -0.9024  0.6026 -1.7653
 4295SOL     OW13274   4.037   5.512   1.115 -0.3853  0.1297 -0.2174
 4295SOL    HW113275   4.029   5.565   1.035  0.8917  0.6559 -0.0240
 4295SOL    HW213276   4.113   5.548   1.160 -2.1276  1.0090  2.1628
 4296SOL     OW13277   2.448   4.665   2.211 -0.5486  0.1328  0.3872
 4296SOL    HW113278   2.414   4.639   2.297 -2.0194  1.8632  0.3986
 4296SOL    HW213279   2.390   4.622   2.148 -0.3575 -0.0028  0.3043
 4297SOL     OW13280   2.936   1.151   2.449  0.0252 -0.3901  0.0697
 4297SOL    HW113281   3.027   1.144   2.477 -0.1727 -1.3254  0.5341
 4297SOL    HW213282   2.894   1.205   2.516 -0.1950 -1.6671  1.0044
 4298SOL     OW13283   1.883   5.815   0.586 -0.2653  0.3012  0.0094
 4298SOL    HW113284   1.857   5.811   0.494 -0.2070 -1.5128  0.0534
 4298SOL    HW213285   1.849   5.734   0.624  1.7912 -0.1269  1.0261
 4299SOL     OW13286   4.681   3.143   6.056  0.5584 -0.4041 -0.4256
 4299SOL    HW113287   4.651   3.060   6.019  0.1005 -0.0454 -0.8768
 4299SOL    HW213288   4.602   3.197   6.060  0.1967 -0.9919  2.7143
 4300SOL     OW13289   4.431   4.138   6.621 -0.1305 -0.8780  0.4963
 4300SOL    HW113290   4.389   4.181   6.695  1.2806  0.8211  0.3994
 4300SOL    HW213291   4.360   4.123   6.558 -1.0340 -0.6209  1.4319
 4301SOL     OW13292   3.172   0.142   5.068  0.4592 -0.5734  0.7787
 4301SOL    HW113293   3.174   0.101   5.155 -1.0213  0.3301  1.2680
 4301SOL    HW213294   3.092   0.110   5.028  0.3867  0.1480  0.3217
 4302SOL     OW13295   3.540   5.317   5.016 -0.2426  0.4472 -0.3383
 4302SOL    HW113296   3.599   5.344   5.086 -0.2536  0.7755 -0.4532
 4302SOL    HW213297   3.500   5.399   4.986 -1.9026  0.0928  0.7644
 4303SOL     OW13298   2.661   2.174   0.145  0.0839 -0.5305 -0.1160
 4303SOL    HW113299   2.745   2.129   0.136 -0.0174 -1.0868  1.4922
 4303SOL    HW213300   2.598   2.114   0.103  0.4647 -0.0476 -1.4480
 4304SOL     OW13301   2.190   3.914   0.223 -0.5477  0.2986  0.4902
 4304SOL    HW113302   2.280   3.883   0.225 -1.0949 -1.3965  1.8197
 4304SOL    HW213303   2.185   3.970   0.146  1.2056 -0.9533 -0.6060
 4305SOL     OW13304   6.250   3.637   4.703 -0.2043  0.4149  0.0357
 4305SOL    HW113305   6.275   3.611   4.792  0.6445  1.9759  0.2986
 4305SOL    HW213306   6.209   3.723   4.714 -1.4853 -0.0253 -0.9427
 4306SOL     OW13307   0.053   5.094   3.987  0.0627  0.4406  0.2505
 4306SOL    HW113308  -0.024   5.151   3.993  0.1672  0.4769  1.6207
 4306SOL    HW213309   0.028   5.026   3.924 -0.8223  0.8414  0.1524
 4307SOL     OW13310   4.185   4.529   4.415  0.2503 -0.0845 -0.0478
 4307SOL    HW113311   4.142   4.500   4.496 -0.2292 -0.2058 -0.3438
 4307SOL    HW213312   4.227   4.612   4.439 -0.1403  0.0306  0.2538
 4308SOL     OW13313   3.180   2.245   4.490  0.1296  0.9304  0.2149
 4308SOL    HW113314   3.159   2.339   4.487 -1.6446  0.5969  1.0053
 4308SOL    HW213315   3.104   2.203   4.450  1.0779 -0.1653 -0.4673
 4309SOL     OW13316   0.843   3.590   1.465 -0.3882  0.2012 -0.0882
 4309SOL    HW113317   0.880   3.642   1.393  1.8990  1.1916  1.6508
 4309SOL    HW213318   0.836   3.502   1.429  0.9383  0.6053 -1.4852
 4310SOL     OW13319   4.234   2.176   5.066 -0.6972 -0.3140 -0.0677
 4310SOL    HW113320   4.145   2.152   5.094 -1.1330  0.1885 -0.9778
 4310SOL    HW213321   4.226   2.267   5.038  0.0601 -0.3334 -0.3603
 4311SOL     OW13322   6.260   6.142   3.299  0.5613  0.2954 -0.1029
 4311SOL    HW113323   6.195   6.160   3.231  1.5061  0.3733 -1.0023
 4311SOL    HW213324   6.305   6.226   3.313  0.8781  0.0989  0.0772
 4312SOL     OW13325   3.593   0.290   5.040 -0.2533 -0.2746 -0.2700
 4312SOL    HW113326   3.687   0.289   5.057 -0.2109 -1.8177 -0.4792
 4312SOL    HW213327   3.585   0.330   4.953 -0.0815  2.7483  0.9680
 4313SOL     OW13328   0.688   3.655   4.652  0.0505  0.5317 -0.5888
 4313SOL    HW113329   0.737   3.575   4.635 -1.0574 -0.2749 -0.1438
 4313SOL    HW213330   0.608   3.625   4.695  0.0321  1.9595  0.4494
 4314SOL     OW13331   2.718   6.723   3.864 -0.1470 -0.5130  0.3707
 4314SOL    HW113332   2.739   6.699   3.774 -1.2094  1.1312 -0.3560
 4314SOL    HW213333   2.788   6.784   3.889 -0.1788 -0.5116  0.4552
 4315SOL     OW13334   4.013   3.149   4.090 -0.4868  0.3138  0.1099
 4315SOL    HW113335   4.035   3.224   4.146 -3.8240  1.5639 -0.0519
 4315SOL    HW213336   3.928   3.119   4.122 -0.4567 -1.7791 -1.5281
 4316SOL     OW13337   5.663   5.934   1.186 -0.0581  0.4382 -0.6750
 4316SOL    HW113338   5.594   5.924   1.121  0.8786 -0.0947 -1.6066
 4316SOL    HW213339   5.702   6.020   1.168 -0.3855  0.6885 -0.2227
 4317SOL     OW13340   3.605   3.858   3.134 -0.3944 -0.2879  0.0646
 4317SOL    HW113341   3.570   3.921   3.197  0.7043 -0.0572  0.4824
 4317SOL    HW213342   3.700   3.869   3.141 -0.1457 -2.3209  0.5085
 4318SOL     OW13343   3.498   0.511   5.745  0.0456  0.0216 -0.3089
 4318SOL    HW113344   3.407   0.498   5.719  0.2452 -0.7446 -0.6454
 4318SOL    HW213345   3.509   0.457   5.823  0.8230 -1.7450 -1.5856
 4319SOL     OW13346   2.162   2.298   4.832  0.1403  0.0176 -0.1644
 4319SOL    HW113347   2.168   2.223   4.773 -0.2957  0.9393 -1.4154
 4319SOL    HW213348   2.200   2.371   4.784 -1.2078  1.0374  0.2355
 4320SOL     OW13349   5.410   3.781   0.418  0.0777  0.1661 -0.1991
 4320SOL    HW113350   5.370   3.752   0.336 -0.7164 -1.2552  0.6474
 4320SOL    HW213351   5.467   3.853   0.393 -1.0453  0.5337 -1.8310
 4321SOL     OW13352   5.430   4.256   3.333 -0.4852  0.2136 -0.4568
 4321SOL    HW113353   5.427   4.201   3.254 -0.2192  0.7301 -0.8354
 4321SOL    HW213354   5.479   4.204   3.397  0.6620  0.3961 -1.1436
 4322SOL     OW13355   2.475   1.012   2.005 -0.1866  0.1754  0.1589
 4322SOL    HW113356   2.516   1.040   2.087  1.1897 -0.5845 -0.2275
 4322SOL    HW213357   2.391   0.976   2.031  0.8540 -1.4581  1.4670
 4323SOL     OW13358   1.245   3.758   3.298  0.0487  0.2886 -0.2316
 4323SOL    HW113359   1.193   3.746   3.378  1.1706  0.8286  0.6033
 4323SOL    HW213360   1.194   3.820   3.246 -1.2851 -0.9827 -0.5062
 4324SOL     OW13361   3.455   2.658   5.547 -0.1313  0.2476  0.5726
 4324SOL    HW113362   3.435   2.706   5.628 -0.1577 -0.2113  0.8381
 4324SOL    HW213363   3.370   2.628   5.516 -0.1568  0.7035  0.1980
 4325SOL     OW13364   6.179   5.103   4.576  0.4335 -0.0555 -0.0253
 4325SOL    HW113365   6.089   5.124   4.549 -0.3523 -1.3699  1.4420
 4325SOL    HW213366   6.232   5.171   4.535 -1.2131  0.7304 -0.9739
 4326SOL     OW13367   0.822   6.519   2.396 -0.4068 -0.4938  0.1251
 4326SOL    HW113368   0.762   6.492   2.466  0.7451 -0.2650  1.2555
 4326SOL    HW213369   0.766   6.534   2.320 -1.7499 -0.4596  1.0835
 4327SOL     OW13370   5.154   0.335   1.438 -0.0381 -0.0654  0.3720
 4327SOL    HW113371   5.155   0.422   1.397 -2.0955 -0.0107  0.3537
 4327SOL    HW213372   5.176   0.275   1.366 -1.0343  0.2453 -0.2052
 4328SOL     OW13373   3.538   0.085   6.687 -0.0170 -0.2610  0.0715
 4328SOL    HW113374   3.498   0.112   6.605  1.5739  0.1809 -0.5911
 4328SOL    HW213375   3.587   0.161   6.717  1.5221 -1.2077  0.0737
 4329SOL     OW13376   2.151   4.463   1.286 -0.0849  0.1107 -0.1688
 4329SOL    HW113377   2.125   4.371   1.290  0.0429  0.0745 -0.1402
 4329SOL    HW213378   2.171   4.478   1.194 -0.2538  0.1514 -0.1974
 4330SOL     OW13379   2.758   5.289   1.804 -0.4066 -0.7219 -0.4446
 4330SOL    HW113380   2.810   5.367   1.789  0.3296 -1.0687  0.2335
 4330SOL    HW213381   2.679   5.321   1.847  0.1014 -0.3987  0.2628
 4331SOL     OW13382   3.853   6.668   2.001  0.1170 -0.3501  0.1159
 4331SOL    HW113383   3.804   6.593   1.965  1.3900 -0.3391 -1.7703
 4331SOL    HW213384   3.853   6.653   2.096 -1.7484 -1.4223 -0.0015
 4332SOL     OW13385   5.042   1.613   6.786  0.4502 -0.0612  0.2210
 4332SOL    HW113386   5.123   1.607   6.837  0.8471  0.2061 -0.3647
 4332SOL    HW213387   5.008   1.524   6.785  0.2433 -0.0118  1.2475
 4333SOL     OW13388   6.464   0.464   3.956  0.4879  0.8901  0.5351
 4333SOL    HW113389   6.399   0.501   3.896 -0.5039 -0.0226  1.0056
 4333SOL    HW213390   6.548   0.492   3.921 -0.1005  0.9480 -0.8839
 4334SOL     OW13391   1.885   4.804   1.115 -0.5361  0.1507 -0.1869
 4334SOL    HW113392   1.919   4.802   1.204 -0.1534 -1.7443 -0.3417
 4334SOL    HW213393   1.811   4.743   1.115  0.5841 -1.2826 -1.5688
 4335SOL     OW13394   3.858   0.140   5.304  0.1868  0.3892 -0.0961
 4335SOL    HW113395   3.792   0.198   5.342  0.5290  1.2884 -0.8435
 4335SOL    HW213396   3.834   0.053   5.336 -0.1152  0.9751  1.3498
 4336SOL     OW13397   4.937   2.996   0.143  0.0051  0.1062  0.2244
 4336SOL    HW113398   5.032   2.985   0.156 -0.2281 -2.3073  0.4130
 4336SOL    HW213399   4.923   2.976   0.051 -0.2581  1.1838  0.0209
 4337SOL     OW13400   4.501   4.073   1.653 -0.2588  0.1915 -0.7948
 4337SOL    HW113401   4.570   4.019   1.614 -0.2415 -0.6172  0.2974
 4337SOL    HW213402   4.434   4.010   1.679 -0.6888  0.8111 -0.3887
 4338SOL     OW13403   6.089   1.688   6.207  0.1686 -0.0344  0.3301
 4338SOL    HW113404   6.139   1.615   6.170  0.3061 -0.1812  0.7915
 4338SOL    HW213405   5.998   1.661   6.200  0.1462  0.2421 -0.5348
 4339SOL     OW13406   1.947   0.257   2.295  0.0168  0.2176  0.5020
 4339SOL    HW113407   2.037   0.243   2.267 -0.1761 -1.1580  0.5014
 4339SOL    HW213408   1.941   0.213   2.379 -1.1127 -1.3022 -0.3313
 4340SOL     OW13409   6.586   5.318   2.981 -0.2057  0.5031 -0.2339
 4340SOL    HW113410   6.670   5.282   2.953 -0.3528  0.9672 -1.3657
 4340SOL    HW213411   6.602   5.412   2.989 -0.4359  0.5017  0.2747
 4341SOL     OW13412   0.800   5.335   0.021 -0.0747 -0.4420  0.6486
 4341SOL    HW113413   0.800   5.414  -0.033  0.2240  0.8580  2.4650
 4341SOL    HW213414   0.856   5.273  -0.027 -0.1807  0.4747 -0.7258
 4342SOL     OW13415   5.355   5.975   1.524 -0.1844 -0.5210  0.3536
 4342SOL    HW113416   5.271   5.932   1.539 -0.0383 -0.9441 -0.0067
 4342SOL    HW213417   5.413   5.905   1.497 -0.4863  0.1645 -2.3815
 4343SOL     OW13418   5.010   3.342   0.659 -0.1060  0.5757  0.5617
 4343SOL    HW113419   5.100   3.347   0.627 -0.7235  1.5371 -1.1450
 4343SOL    HW213420   5.018   3.360   0.753  1.8836 -3.3374  1.3429
 4344SOL     OW13421   1.796   3.189   6.383  0.4332 -0.2311 -0.3906
 4344SOL    HW113422   1.776   3.274   6.346 -0.2298 -0.3699 -0.3757
 4344SOL    HW213423   1.885   3.170   6.356 -0.2383 -0.6263 -2.5012
 4345SOL     OW13424   5.095   4.248   1.449  0.5031  0.0003 -0.4366
 4345SOL    HW113425   5.010   4.268   1.409 -1.4956 -1.0744  2.8440
 4345SOL    HW213426   5.116   4.325   1.502  0.5640 -0.4693  0.2454
 4346SOL     OW13427   1.434   4.029   0.847 -0.1649  0.2212 -0.4179
 4346SOL    HW113428   1.439   4.016   0.942 -0.8034  0.3304 -0.3622
 4346SOL    HW213429   1.364   3.970   0.819  0.7918 -0.6551 -0.9905
 4347SOL     OW13430   0.145   0.848   4.304  0.2855  0.3873  0.3212
 4347SOL    HW113431   0.171   0.769   4.351  0.3078  1.1044  1.5465
 4347SOL    HW213432   0.174   0.920   4.359  0.3770  1.2662 -0.8357
 4348SOL     OW13433   6.346   4.307   4.488  0.2928 -0.6517 -0.3328
 4348SOL    HW113434   6.371   4.397   4.508 -0.0459 -0.0430 -2.4667
 4348SOL    HW213435   6.429   4.261   4.475  0.4349 -0.2748 -0.7596
 4349SOL     OW13436   5.228   0.281   2.609  0.1301  0.1780  0.1359
 4349SOL    HW113437   5.320   0.262   2.628  0.0691 -1.5114 -1.0879
 4349SOL    HW213438   5.194   0.201   2.569 -1.0360  1.8003 -2.4075
 4350SOL     OW13439   0.480   4.942   1.566 -0.2099 -0.3191 -0.1410
 4350SOL    HW113440   0.472   4.963   1.473  1.2082  2.2724  0.2124
 4350SOL    HW213441   0.427   4.863   1.578 -1.6042  0.0822 -2.8455
 4351SOL     OW13442   1.662   5.447   0.223  0.6273  0.3943 -0.0743
 4351SOL    HW113443   1.723   5.426   0.152 -0.1655 -2.2086 -0.1018
 4351SOL    HW213444   1.579   5.461   0.179  0.8221  2.3620  0.1021
 4352SOL     OW13445   3.183   2.854   0.481  0.1752 -0.5240 -0.0447
 4352SOL    HW113446   3.177   2.782   0.543  1.2834 -1.0179 -0.4892
 4352SOL    HW213447   3.169   2.814   0.395 -2.2768  0.2941 -0.1031
 4353SOL     OW13448   5.114   5.060   3.361 -0.3588 -0.1240  0.7359
 4353SOL    HW113449   5.069   5.024   3.285  0.2640 -1.5427  1.0096
 4353SOL    HW213450   5.196   5.095   3.326 -0.6204  0.3381  0.5807
 4354SOL     OW13451   3.372   3.042   2.454 -0.2326 -0.0421  0.2926
 4354SOL    HW113452   3.443   3.015   2.395 -1.2666 -0.2199 -0.9159
 4354SOL    HW213453   3.376   3.138   2.454  0.6445 -0.0650  1.0615
 4355SOL     OW13454   3.990   4.764   5.017 -0.6021 -0.1666  0.2168
 4355SOL    HW113455   3.932   4.812   4.957 -0.7233 -0.6975 -0.0942
 4355SOL    HW213456   4.003   4.679   4.975 -0.0767 -0.2701  0.5776
 4356SOL     OW13457   5.538   6.650   4.118 -0.6730 -0.1188 -0.1305
 4356SOL    HW113458   5.557   6.728   4.067  0.3909  0.1536  0.6494
 4356SOL    HW213459   5.451   6.665   4.154  0.6939  2.2135  2.6075
 4357SOL     OW13460   5.452   6.804   3.099  0.0553  0.0339 -0.6234
 4357SOL    HW113461   5.402   6.769   3.025  0.7598 -2.0203 -0.1904
 4357SOL    HW213462   5.522   6.854   3.059 -0.3381  0.0372 -1.3167
 4358SOL     OW13463   2.313   2.457   0.118  0.2756  0.5599 -0.5213
 4358SOL    HW113464   2.260   2.497   0.049 -0.2879  1.0525  0.1885
 4358SOL    HW213465   2.291   2.363   0.112 -0.7840  0.7676 -0.1651
 4359SOL     OW13466   2.739   6.303   3.470  0.3580 -0.6835 -0.3721
 4359SOL    HW113467   2.822   6.261   3.447  0.3006 -1.3144  0.5010
 4359SOL    HW213468   2.763   6.391   3.498  0.6675 -0.6796 -0.6483
 4360SOL     OW13469   1.512   3.780   4.142  0.5549 -0.4955 -0.2122
 4360SOL    HW113470   1.600   3.752   4.118  0.5270  0.2804 -1.2820
 4360SOL    HW213471   1.477   3.708   4.194  2.1992 -0.3826  1.1658
 4361SOL     OW13472   1.365   5.161   4.333 -1.1304  0.3181  0.1219
 4361SOL    HW113473   1.302   5.091   4.352 -0.5229 -0.1454  0.4795
 4361SOL    HW213474   1.448   5.128   4.367 -0.5046  0.5430 -1.1064
 4362SOL     OW13475   2.807   3.536   2.615  0.0125 -0.6408 -0.1893
 4362SOL    HW113476   2.804   3.570   2.705 -2.6188 -0.3460 -0.3051
 4362SOL    HW213477   2.898   3.548   2.588  0.7095 -0.0597  2.1798
 4363SOL     OW13478   6.118   6.579   1.526 -0.1622  0.6195 -0.5562
 4363SOL    HW113479   6.213   6.571   1.533 -0.2171 -0.7134 -0.9578
 4363SOL    HW213480   6.102   6.604   1.435 -0.1941  0.9881 -0.4510
 4364SOL     OW13481   0.909   2.565   4.917  0.0531 -0.1549 -0.5204
 4364SOL    HW113482   0.919   2.625   4.842  0.1970  0.3815 -0.0837
 4364SOL    HW213483   0.989   2.578   4.968  0.7969 -1.8285 -1.1791
 4365SOL     OW13484   2.503   1.929   3.466  0.2203  0.2208 -0.5529
 4365SOL    HW113485   2.534   1.994   3.529  3.5580 -2.0707  0.4008
 4365SOL    HW213486   2.480   1.853   3.519  0.9938 -1.0244 -1.9320
 4366SOL     OW13487   4.940   3.453   5.552  0.2768 -0.2525 -0.3474
 4366SOL    HW113488   4.904   3.431   5.466  0.8753 -0.3683 -0.5678
 4366SOL    HW213489   5.018   3.504   5.534  0.7781 -0.8390  0.1058
 4367SOL     OW13490   3.524   1.954   6.524  0.5496 -0.1882 -0.2713
 4367SOL    HW113491   3.459   2.022   6.539  1.3791  0.7785 -0.9646
 4367SOL    HW213492   3.473   1.873   6.522 -0.6610  0.5672 -1.0223
 4368SOL     OW13493   5.686   5.050   5.765  0.1737  0.2139 -0.7769
 4368SOL    HW113494   5.747   4.993   5.811 -1.4009  1.1398  2.7853
 4368SOL    HW213495   5.728   5.136   5.766 -0.4180  0.4993  0.1303
 4369SOL     OW13496   5.163   5.346   5.690  0.0606 -0.2090  0.5010
 4369SOL    HW113497   5.180   5.252   5.692  0.5965 -0.1258 -0.0934
 4369SOL    HW213498   5.222   5.382   5.756 -0.8797 -0.3910  1.4735
 4370SOL     OW13499   1.464   3.104   0.494  0.1777 -0.1499  0.3975
 4370SOL    HW113500   1.524   3.072   0.562  0.9374  2.2056  0.9204
 4370SOL    HW213501   1.518   3.162   0.441 -0.5829 -1.4185 -1.8798
 4371SOL     OW13502   2.077   6.656   6.834  0.7030  0.2152  0.6134
 4371SOL    HW113503   2.169   6.627   6.833  1.1068  1.2614  2.3197
 4371SOL    HW213504   2.070   6.708   6.914 -1.3347  0.3716  0.3767
 4372SOL     OW13505   0.084   5.356   4.435  0.0188  0.3349  0.2951
 4372SOL    HW113506   0.028   5.356   4.357 -0.7223  0.3842  0.8154
 4372SOL    HW213507   0.097   5.449   4.455  0.7619  0.3358 -0.1462
 4373SOL     OW13508   5.745   5.142   5.425  0.2814 -0.2429  0.2890
 4373SOL    HW113509   5.748   5.217   5.484  0.2682 -0.0734  0.0737
 4373SOL    HW213510   5.767   5.177   5.339 -2.2382  0.0592 -0.3368
 4374SOL     OW13511   4.974   3.917   1.109 -0.1647 -0.9150  0.0274
 4374SOL    HW113512   4.882   3.943   1.115  0.5322  2.0388 -0.5893
 4374SOL    HW213513   5.004   3.915   1.200 -0.4072 -0.0280  0.1365
 4375SOL     OW13514   1.589   3.260   1.469 -0.3866  0.3403  0.2205
 4375SOL    HW113515   1.525   3.260   1.541  0.2416  0.6214  0.7921
 4375SOL    HW213516   1.552   3.200   1.404 -0.7155 -0.3453  1.0144
 4376SOL     OW13517   5.169   6.531   2.145  0.2605  0.7462  0.1508
 4376SOL    HW113518   5.230   6.557   2.214 -0.0972  1.2317  0.2847
 4376SOL    HW213519   5.217   6.465   2.095 -0.0807 -0.8716  1.8471
 4377SOL     OW13520   1.068   5.627   6.642  0.0804  0.8527 -0.3279
 4377SOL    HW113521   1.127   5.668   6.579 -0.4369  2.8023  0.3819
 4377SOL    HW213522   1.055   5.538   6.608  1.2402  1.2562 -1.9660
 4378SOL     OW13523   3.564   5.979   2.879 -0.2016  0.0638 -0.5757
 4378SOL    HW113524   3.629   6.043   2.853  0.4319 -0.5076 -0.4287
 4378SOL    HW213525   3.574   5.908   2.815  0.1761 -0.5750  0.1759
 4379SOL     OW13526   0.080   2.312   3.013  0.3346 -0.0684  0.2039
 4379SOL    HW113527   0.084   2.403   3.040  0.8609 -0.5254  1.7810
 4379SOL    HW213528   0.159   2.299   2.959 -0.1105  0.5637 -0.6181
 4380SOL     OW13529   4.018   0.782   3.656  0.6823 -0.3098 -0.2921
 4380SOL    HW113530   3.941   0.839   3.660  1.0925  0.3003 -0.8466
 4380SOL    HW213531   4.004   0.717   3.725  0.0497  0.2657  0.1315
 4381SOL     OW13532   5.107   5.648   5.895 -0.1995 -0.1018 -0.1252
 4381SOL    HW113533   5.087   5.672   5.804  0.6505  0.0713 -0.2748
 4381SOL    HW213534   5.183   5.702   5.917 -0.3461 -0.2138  0.6580
 4382SOL     OW13535   2.070   1.056   6.560 -0.3103  0.1938  0.5348
 4382SOL    HW113536   2.035   1.084   6.644  0.1706 -0.0179  0.8062
 4382SOL    HW213537   2.145   1.001   6.582 -1.1563 -1.2165  0.0120
 4383SOL     OW13538   6.346   0.218   5.825  0.6387 -0.0676  0.2993
 4383SOL    HW113539   6.329   0.125   5.844  1.7346 -0.3248  0.0814
 4383SOL    HW213540   6.406   0.217   5.751  0.2358  0.8412 -0.0507
 4384SOL     OW13541   1.222   1.228   1.873  0.0054  0.1402 -0.1814
 4384SOL    HW113542   1.261   1.141   1.879  0.9530  0.4484 -1.4477
 4384SOL    HW213543   1.191   1.246   1.962  0.2124 -1.2888  0.2069
 4385SOL     OW13544   0.501   3.092   0.773  0.2688 -0.3565  0.1296
 4385SOL    HW113545   0.405   3.084   0.776  0.3812 -1.8391  0.7466
 4385SOL    HW213546   0.517   3.182   0.745 -1.3089  0.0755  0.5247
 4386SOL     OW13547   0.796   3.860   5.189 -0.0768 -0.0677  0.4130
 4386SOL    HW113548   0.708   3.889   5.215  0.2480 -0.0364  1.5266
 4386SOL    HW213549   0.845   3.856   5.272  0.2083 -2.7572  0.1931
 4387SOL     OW13550   4.875   1.408   2.707  0.5799 -0.4241 -0.6131
 4387SOL    HW113551   4.904   1.360   2.784 -0.2487  0.6945  0.4346
 4387SOL    HW213552   4.910   1.496   2.719  0.4306 -0.2262 -1.5154
 4388SOL     OW13553   1.771   0.367   2.977  0.0712  0.6574 -0.5236
 4388SOL    HW113554   1.826   0.349   2.900  0.0061  0.8206 -0.6088
 4388SOL    HW213555   1.834   0.374   3.049  0.0052 -1.3637 -0.2001
 4389SOL     OW13556   4.377   6.701   3.647  0.4043 -0.2605  0.0120
 4389SOL    HW113557   4.326   6.628   3.612 -1.4909  0.6452  0.7786
 4389SOL    HW213558   4.450   6.710   3.585  1.5035 -3.6032  0.5930
 4390SOL     OW13559   5.307   1.381   0.901  0.2943  0.4415 -0.0270
 4390SOL    HW113560   5.221   1.398   0.940  0.3818  0.6122  0.0922
 4390SOL    HW213561   5.357   1.339   0.971 -0.2373 -1.2368 -0.6129
 4391SOL     OW13562   3.661   6.557   0.832 -0.8696 -0.0507 -0.0865
 4391SOL    HW113563   3.731   6.567   0.896 -0.5337 -2.7399  0.0571
 4391SOL    HW213564   3.703   6.574   0.747 -0.8303  1.3896  0.1831
 4392SOL     OW13565   6.365   1.390   4.199 -0.3441  0.2988  0.2246
 4392SOL    HW113566   6.313   1.349   4.267 -0.0165  1.0228  0.9232
 4392SOL    HW213567   6.405   1.316   4.152  0.0545 -0.2020  1.3123
 4393SOL     OW13568   0.854   0.203   4.514 -0.7043 -0.1747 -0.2824
 4393SOL    HW113569   0.916   0.148   4.562 -0.7404 -0.5329 -0.6352
 4393SOL    HW213570   0.847   0.283   4.565 -0.7109 -0.5330  0.2803
 4394SOL     OW13571   1.573   4.764   0.192  0.0269  0.5963  0.2951
 4394SOL    HW113572   1.527   4.805   0.119 -1.2861  0.3830  0.9559
 4394SOL    HW213573   1.576   4.832   0.259 -1.7701 -0.1589  1.2357
 4395SOL     OW13574   1.928   3.333   3.632  0.0964 -0.3661  0.7098
 4395SOL    HW113575   1.948   3.264   3.695  4.1188  0.2305  0.3457
 4395SOL    HW213576   1.961   3.300   3.548 -1.3777  0.5222 -0.2704
 4396SOL     OW13577   2.576   5.302   1.588 -0.0609 -0.0938 -0.2545
 4396SOL    HW113578   2.642   5.298   1.657  1.0186  0.2886 -1.2325
 4396SOL    HW213579   2.493   5.298   1.634  0.5319  2.9418  1.3552
 4397SOL     OW13580   5.979   2.615   2.361 -0.9253  0.1062  0.4408
 4397SOL    HW113581   5.986   2.563   2.281 -3.6030  1.0203 -0.5277
 4397SOL    HW213582   5.939   2.556   2.425 -0.4013 -0.1144  0.5700
 4398SOL     OW13583   0.763   4.197   2.289 -0.0635 -1.0770  0.1747
 4398SOL    HW113584   0.851   4.178   2.255 -0.9522 -1.1957 -2.2371
 4398SOL    HW213585   0.765   4.290   2.310  0.6486 -1.0774  0.1502
 4399SOL     OW13586   0.650   3.045   1.008  0.0814  0.6897 -0.2706
 4399SOL    HW113587   0.735   3.024   0.968 -0.5778  0.1113 -1.4401
 4399SOL    HW213588   0.589   3.046   0.934 -1.2383 -0.5765  0.7295
 4400SOL     OW13589   2.604   1.333   4.371  0.1645 -0.4517  0.5501
 4400SOL    HW113590   2.669   1.264   4.357 -0.2611 -0.7576  0.0711
 4400SOL    HW213591   2.619   1.395   4.300  0.5102 -0.0735  0.9486
 4401SOL     OW13592   2.957   6.163   0.529 -0.0850 -0.1072 -0.2261
 4401SOL    HW113593   2.996   6.250   0.528  1.2715 -0.6806  0.1674
 4401SOL    HW213594   2.940   6.144   0.436  1.9633 -0.3976 -0.5944
 4402SOL     OW13595   6.821   3.959   5.213 -0.2079 -0.1015 -0.3149
 4402SOL    HW113596   6.733   3.981   5.241 -0.2638  1.1754 -1.3946
 4402SOL    HW213597   6.864   3.926   5.292 -1.7654 -1.1938  0.1278
 4403SOL     OW13598   1.100   1.480   1.414 -0.1629 -0.6207  0.6548
 4403SOL    HW113599   1.146   1.454   1.335  0.9803 -0.9329  1.3997
 4403SOL    HW213600   1.053   1.402   1.442 -1.6882 -0.1367 -0.4369
 4404SOL     OW13601   0.989   4.101   5.872 -0.1517 -0.1559  0.5219
 4404SOL    HW113602   1.026   4.036   5.932 -0.2740 -0.0131  0.7520
 4404SOL    HW213603   1.062   4.157   5.849 -0.7084  1.8606  3.1632
 4405SOL     OW13604   2.614   4.047   6.614 -0.2235 -0.1255  0.6779
 4405SOL    HW113605   2.581   3.965   6.577  0.3722  0.0519 -0.2736
 4405SOL    HW213606   2.669   4.084   6.545 -0.6943  1.2113  1.0036
 4406SOL     OW13607   3.937   2.617   2.275  0.2759  0.4858 -0.5818
 4406SOL    HW113608   3.913   2.657   2.359  0.4852 -0.5818 -0.0074
 4406SOL    HW213609   3.891   2.670   2.210  0.8836  1.9374  0.1222
 4407SOL     OW13610   1.202   5.830   1.583 -0.2158 -0.1141  0.9514
 4407SOL    HW113611   1.241   5.893   1.643 -0.0890 -0.8243  1.6363
 4407SOL    HW213612   1.276   5.782   1.547 -0.1504  1.4051 -1.0855
 4408SOL     OW13613   5.378   5.520   4.141 -0.0960  0.0570  0.3131
 4408SOL    HW113614   5.330   5.463   4.202 -1.1130  0.9815  0.4055
 4408SOL    HW213615   5.440   5.461   4.097 -1.7302 -1.3309 -0.2549
 4409SOL     OW13616   3.853   6.391   5.119  0.7023 -0.4907 -0.0890
 4409SOL    HW113617   3.768   6.430   5.140  0.4134 -0.3725 -1.3631
 4409SOL    HW213618   3.912   6.423   5.187  0.0962  0.8281 -0.1601
 4410SOL     OW13619   3.114   3.453   4.300 -0.4585  0.2730 -1.2889
 4410SOL    HW113620   3.141   3.377   4.250 -0.1368 -0.7126  0.3203
 4410SOL    HW213621   3.077   3.417   4.381 -2.5590  1.7365 -1.5221
 4411SOL     OW13622   2.361   4.601   3.647 -0.1798  0.2301  0.2214
 4411SOL    HW113623   2.374   4.681   3.698 -0.0017 -0.3748  1.1568
 4411SOL    HW213624   2.448   4.578   3.616 -0.4879  1.4877 -1.8170
 4412SOL     OW13625   2.178   1.812   0.246 -0.2430 -0.1568 -0.1008
 4412SOL    HW113626   2.164   1.758   0.324 -1.4139  1.0663  0.5701
 4412SOL    HW213627   2.256   1.775   0.205  0.1785 -1.0575  1.4436
 4413SOL     OW13628   2.275   4.601   0.036  0.0857 -0.0680 -0.2334
 4413SOL    HW113629   2.256   4.587   0.129  0.2249  1.5907  0.0947
 4413SOL    HW213630   2.370   4.613   0.033  0.0367  0.2582 -0.5231
 4414SOL     OW13631   2.884   5.707   4.158 -0.4911  0.4241  0.3520
 4414SOL    HW113632   2.953   5.646   4.134 -0.7481 -0.0595  0.8487
 4414SOL    HW213633   2.914   5.791   4.122  1.2227  0.6263  2.0762
 4415SOL     OW13634   6.588   4.295   4.817  0.4897  0.0929  0.2831
 4415SOL    HW113635   6.621   4.361   4.756  0.7829 -0.6246 -0.3534
 4415SOL    HW213636   6.536   4.345   4.880 -0.3053  0.7922 -0.8902
 4416SOL     OW13637   0.114   4.419   2.153 -0.1056 -0.1417  0.1368
 4416SOL    HW113638   0.046   4.465   2.203  0.8076 -1.0974  2.3889
 4416SOL    HW213639   0.082   4.330   2.145  1.5212 -1.1096  2.8389
 4417SOL     OW13640   0.986   1.166   4.757 -0.4040 -0.2941  0.2548
 4417SOL    HW113641   1.057   1.127   4.807 -1.3011  0.6641  2.3837
 4417SOL    HW213642   0.985   1.117   4.675  1.1345 -1.9485  1.1599
 4418SOL     OW13643   3.704   3.071   5.149  0.4776  0.1745  0.0091
 4418SOL    HW113644   3.609   3.065   5.156  0.2971  1.8947 -0.4410
 4418SOL    HW213645   3.719   3.112   5.064  1.7461 -1.8754 -0.8376
 4419SOL     OW13646   3.082   6.383   0.617  1.1544  0.3629 -0.3184
 4419SOL    HW113647   2.993   6.417   0.625  1.2859  0.4483  0.9685
 4419SOL    HW213648   3.132   6.455   0.578  0.4242 -0.1320 -2.2673
 4420SOL     OW13649   6.338   5.220   4.789  0.3833  0.0248 -0.0321
 4420SOL    HW113650   6.272   5.165   4.749  1.4914 -0.0100 -1.9477
 4420SOL    HW213651   6.321   5.308   4.755  0.2030  0.3829  0.9439
 4421SOL     OW13652   3.180   0.645   1.057  0.0214 -0.2063 -0.0793
 4421SOL    HW113653   3.192   0.738   1.075 -0.1848 -0.2100  0.0802
 4421SOL    HW213654   3.116   0.642   0.985  1.2733 -0.1708 -1.2275
 4422SOL     OW13655   5.492   2.039   3.645  0.4549  0.6819  0.4382
 4422SOL    HW113656   5.418   2.030   3.585  3.2080 -1.0722 -3.0657
 4422SOL    HW213657   5.483   1.964   3.704 -0.5005  0.4297 -0.0017
 4423SOL     OW13658   5.552   4.848   0.566  0.1633 -0.1480 -0.6408
 4423SOL    HW113659   5.576   4.882   0.653 -0.3219 -1.3985  0.0010
 4423SOL    HW213660   5.466   4.886   0.548  0.1656 -0.0643 -0.4767
 4424SOL     OW13661   3.644   1.298   3.016 -0.3956  0.1937 -0.1363
 4424SOL    HW113662   3.701   1.226   3.041 -2.3153 -0.6948  1.9646
 4424SOL    HW213663   3.616   1.276   2.927 -0.3229 -1.2564  0.1772
 4425SOL     OW13664   2.338   3.641   5.308  0.4970 -0.2378 -0.2476
 4425SOL    HW113665   2.397   3.704   5.267  0.7780 -0.5075 -0.2596
 4425SOL    HW213666   2.269   3.695   5.347 -0.0526 -0.0100 -1.4987
 4426SOL     OW13667   0.837   5.594   3.482 -0.3766 -0.7162 -0.2166
 4426SOL    HW113668   0.862   5.686   3.483 -1.8351 -0.3000  0.3594
 4426SOL    HW213669   0.915   5.548   3.451 -0.4388  0.9758 -3.2922
 4427SOL     OW13670   1.370   5.758   0.106 -0.0071  0.1265  0.0707
 4427SOL    HW113671   1.457   5.730   0.078 -0.5705  0.2684 -2.0447
 4427SOL    HW213672   1.314   5.683   0.086 -0.9816  1.4006 -2.5305
 4428SOL     OW13673   5.013   3.697   2.467 -0.3589  0.0065  0.0954
 4428SOL    HW113674   5.063   3.674   2.546  0.0632  0.4721 -0.0319
 4428SOL    HW213675   5.080   3.706   2.399 -0.7350 -0.5159 -0.3473
 4429SOL     OW13676   4.110   2.720   2.828  0.2365  0.3767 -0.0434
 4429SOL    HW113677   4.114   2.741   2.735  1.6842  0.7471  0.0794
 4429SOL    HW213678   4.183   2.768   2.867 -0.0291 -0.1798  1.2076
 4430SOL     OW13679   5.450   3.438   4.034  0.2349  0.0787  0.0142
 4430SOL    HW113680   5.444   3.386   3.954 -2.0524 -0.7296  0.6366
 4430SOL    HW213681   5.397   3.390   4.098  4.5284 -1.1622  3.1297
 4431SOL     OW13682   6.558   6.549   1.282  0.5889 -0.2078  0.1189
 4431SOL    HW113683   6.538   6.569   1.191  0.2767  2.9112  0.7617
 4431SOL    HW213684   6.654   6.542   1.285  0.5775 -0.7216 -0.4833
 4432SOL     OW13685   4.267   1.152   3.196  0.2157 -0.4470  0.0230
 4432SOL    HW113686   4.197   1.188   3.142  0.6339 -0.6256 -0.6494
 4432SOL    HW213687   4.291   1.071   3.152  0.7662 -0.4405  0.3126
 4433SOL     OW13688   4.095   0.658   3.918  0.0188 -0.0352  0.0818
 4433SOL    HW113689   4.162   0.623   3.859 -0.6216 -1.5193  0.1913
 4433SOL    HW213690   4.087   0.592   3.987 -1.1812  0.3616  0.3418
 4434SOL     OW13691   2.880   0.354   5.433  0.2360 -0.6010  0.5936
 4434SOL    HW113692   2.975   0.342   5.425  0.3111  0.1591  0.2657
 4434SOL    HW213693   2.845   0.314   5.353  0.4096  0.4632 -0.0311
 4435SOL     OW13694   1.336   4.231   2.913 -0.2321 -0.0614 -0.1204
 4435SOL    HW113695   1.240   4.222   2.917 -0.4850  2.3320  0.9397
 4435SOL    HW213696   1.360   4.268   2.998  1.5963 -0.1265 -0.5672
 4436SOL     OW13697   0.196   4.801   2.312 -0.5640  0.1577  0.0496
 4436SOL    HW113698   0.212   4.866   2.380  2.3914  0.2810 -0.6500
 4436SOL    HW213699   0.153   4.729   2.358  1.1752  0.2998  2.0696
 4437SOL     OW13700   5.758   2.447   0.164 -0.0289  0.2035  0.6619
 4437SOL    HW113701   5.820   2.514   0.196  0.7377 -0.5109  0.6947
 4437SOL    HW213702   5.792   2.365   0.199 -0.5941 -0.2896  0.0573
 4438SOL     OW13703   0.225   4.704   6.780  0.1506  0.5320 -0.8757
 4438SOL    HW113704   0.221   4.761   6.703  2.1359  2.8827  0.6241
 4438SOL    HW213705   0.310   4.661   6.773 -0.1454 -0.1022 -0.5706
 4439SOL     OW13706   4.721   6.741   0.999 -0.5565 -0.1625  0.1093
 4439SOL    HW113707   4.763   6.674   1.052 -0.4018  0.9231  1.4100
 4439SOL    HW213708   4.628   6.735   1.021 -0.3327  1.1713  1.5945
 4440SOL     OW13709   6.647   4.693   6.423 -0.3402  0.0854 -1.1651
 4440SOL    HW113710   6.673   4.648   6.343 -1.2022 -1.1115 -0.7974
 4440SOL    HW213711   6.553   4.681   6.428 -0.2583 -0.1269  0.1878
 4441SOL     OW13712   0.402   4.752   1.905 -0.1230  0.5719 -0.1629
 4441SOL    HW113713   0.378   4.702   1.827  1.5661 -1.0898  0.3006
 4441SOL    HW213714   0.319   4.776   1.946 -1.0016 -1.1253 -0.8899
 4442SOL     OW13715   2.067   3.210   2.728 -0.0236  0.1790  0.6052
 4442SOL    HW113716   2.112   3.137   2.688  0.3901  0.5682  0.3480
 4442SOL    HW213717   2.107   3.218   2.815 -0.4241 -0.2186  0.8257
 4443SOL     OW13718   0.676   5.474   4.646  0.3580  0.0668  0.5138
 4443SOL    HW113719   0.611   5.406   4.665  1.1658 -0.9090 -0.1000
 4443SOL    HW213720   0.761   5.429   4.652  0.8311  0.4390 -2.0822
 4444SOL     OW13721   1.840   0.537   1.957 -0.4280 -0.7131 -0.5401
 4444SOL    HW113722   1.808   0.481   2.028 -1.8531  0.5051 -0.1774
 4444SOL    HW213723   1.827   0.626   1.989 -0.5442 -0.1396 -2.1042
 4445SOL     OW13724   3.137   6.035   2.870  0.3078 -0.0216  0.0050
 4445SOL    HW113725   3.180   6.012   2.952  1.9542  0.3806 -0.7030
 4445SOL    HW213726   3.122   5.951   2.827 -0.6317 -0.2382  0.7351
 4446SOL     OW13727   3.955   3.441   3.596  0.3071 -0.2313 -0.5398
 4446SOL    HW113728   3.942   3.420   3.689  0.7661 -1.0009 -0.6409
 4446SOL    HW213729   3.879   3.402   3.552  0.1980 -0.0493 -0.5144
 4447SOL     OW13730   0.854   1.430   3.945 -0.8608  0.1567  0.2826
 4447SOL    HW113731   0.760   1.421   3.927 -0.7934  0.8365 -0.4494
 4447SOL    HW213732   0.865   1.393   4.033 -1.6751 -0.6466  0.0624
 4448SOL     OW13733   3.439   0.859   5.274  0.4888  0.3481  0.0579
 4448SOL    HW113734   3.444   0.816   5.359  0.5459  0.3950  0.0786
 4448SOL    HW213735   3.417   0.950   5.293 -3.4682 -0.3974 -0.1611
 4449SOL     OW13736   0.524   0.623   1.162 -0.4913 -0.4710  0.0518
 4449SOL    HW113737   0.504   0.671   1.081 -0.4768  1.9296  1.3664
 4449SOL    HW213738   0.458   0.555   1.166 -2.7742  1.5780 -0.2787
 4450SOL     OW13739   2.090   6.621   5.215 -0.1126 -0.3834  0.3389
 4450SOL    HW113740   2.150   6.548   5.196 -1.2166 -1.3317  0.3683
 4450SOL    HW213741   2.020   6.611   5.150 -0.8491 -0.0274  1.0758
 4451SOL     OW13742   5.901   5.960   3.690 -0.3445  0.5424 -0.2441
 4451SOL    HW113743   5.834   5.997   3.748 -0.5627  0.4523 -0.4363
 4451SOL    HW213744   5.857   5.951   3.606 -0.4704 -0.6980 -0.0640
 4452SOL     OW13745   5.939   3.768   2.701  0.2646 -0.4950 -0.0807
 4452SOL    HW113746   5.950   3.791   2.609 -0.9780 -1.0480 -0.3894
 4452SOL    HW213747   5.866   3.823   2.731 -0.1542 -1.2101  0.2280
 4453SOL     OW13748   0.914   1.827   0.069  0.4001  0.3861 -0.2816
 4453SOL    HW113749   0.934   1.902   0.011 -0.0932  1.6309  1.0967
 4453SOL    HW213750   0.823   1.804   0.047  1.1291 -1.0715 -2.0093
 4454SOL     OW13751   3.976   5.422   3.495  0.5747 -0.6417  0.0933
 4454SOL    HW113752   3.902   5.480   3.476  0.7602 -0.4824 -0.1554
 4454SOL    HW213753   3.945   5.335   3.470  0.0484 -0.7647  1.1185
 4455SOL     OW13754   1.915   2.265   4.572 -0.8182  0.8832 -0.0191
 4455SOL    HW113755   1.963   2.347   4.559  0.2230  0.1818 -0.6863
 4455SOL    HW213756   1.931   2.243   4.664  1.5794 -0.1893 -0.6167
 4456SOL     OW13757   5.972   0.254   5.552 -0.3984 -0.3015 -0.2749
 4456SOL    HW113758   5.989   0.315   5.481 -0.8949 -0.4523 -0.5298
 4456SOL    HW213759   5.878   0.237   5.547 -0.4906 -0.0736  0.6166
 4457SOL     OW13760   4.986   2.406   1.319 -0.3167 -0.4082  0.0797
 4457SOL    HW113761   5.059   2.353   1.288 -0.0658  0.1069 -0.2125
 4457SOL    HW213762   4.910   2.349   1.309  0.0714 -1.0560  0.6518
 4458SOL     OW13763   6.105   3.333   1.475 -0.0269  0.0356  0.2946
 4458SOL    HW113764   6.077   3.260   1.531  2.1628 -1.9118 -0.9877
 4458SOL    HW213765   6.153   3.390   1.534 -0.6333 -0.2108  1.0530
 4459SOL     OW13766   5.243   3.974   2.637  0.0230 -0.1524  0.0405
 4459SOL    HW113767   5.233   3.879   2.624  2.1776 -0.7000  1.7699
 4459SOL    HW213768   5.268   4.007   2.551 -3.0038 -0.6703 -1.1913
 4460SOL     OW13769   3.565   4.658   4.537 -0.4681 -0.0166  0.4502
 4460SOL    HW113770   3.598   4.657   4.627  1.2884  0.4473 -0.1686
 4460SOL    HW213771   3.541   4.567   4.520  1.5764 -0.6097  0.5567
 4461SOL     OW13772   6.190   5.755   1.123 -0.9045  0.3274 -0.1959
 4461SOL    HW113773   6.208   5.669   1.084 -1.0192  0.4830 -0.5939
 4461SOL    HW213774   6.147   5.804   1.054 -0.7980  0.7245  0.0201
 4462SOL     OW13775   4.212   0.822   1.777 -0.1025 -0.2043 -0.4493
 4462SOL    HW113776   4.141   0.808   1.714 -0.1605  1.3535 -0.7685
 4462SOL    HW213777   4.276   0.875   1.730 -0.3400  1.3590  0.8906
 4463SOL     OW13778   1.845   1.284   4.951 -0.5617  0.3975  0.2362
 4463SOL    HW113779   1.913   1.237   4.999 -1.8217 -1.0697  0.6929
 4463SOL    HW213780   1.892   1.332   4.883  0.9139 -0.7131  0.4161
 4464SOL     OW13781   0.047   4.196   4.020 -0.3727  0.0978  0.2258
 4464SOL    HW113782  -0.011   4.225   3.950 -0.2069 -0.3478 -0.1007
 4464SOL    HW213783   0.093   4.120   3.984  1.0962  0.9754  0.1308
 4465SOL     OW13784   1.926   2.139   2.094 -0.2989  0.2254  0.2220
 4465SOL    HW113785   1.908   2.143   2.000  0.2167  0.6676  0.1323
 4465SOL    HW213786   1.841   2.125   2.135 -0.4423 -0.5989 -0.3524
 4466SOL     OW13787   3.310   0.088   4.007  0.6124  0.1894 -0.2195
 4466SOL    HW113788   3.291   0.158   4.069  0.3736 -0.5256  0.5446
 4466SOL    HW213789   3.232   0.084   3.951  1.0417  1.1723 -0.9108
 4467SOL     OW13790   1.716   1.334   4.031  0.1417 -0.2812  0.3219
 4467SOL    HW113791   1.672   1.393   4.092 -0.0667  0.4393 -0.5137
 4467SOL    HW213792   1.645   1.292   3.982  0.3224 -0.4811  0.2290
 4468SOL     OW13793   4.575   6.044   4.176 -0.1701 -0.0021  0.6478
 4468SOL    HW113794   4.567   6.121   4.120 -0.8006 -1.2662 -1.0788
 4468SOL    HW213795   4.669   6.027   4.180 -0.0330  0.7644  0.9490
 4469SOL     OW13796   4.516   0.156   5.154 -0.8603 -0.2655 -0.0633
 4469SOL    HW113797   4.547   0.147   5.064 -0.5521  0.6264 -0.0591
 4469SOL    HW213798   4.425   0.128   5.151 -1.1922  0.8442 -0.8943
 4470SOL     OW13799   0.416   3.868   6.365 -0.6550  0.0689 -0.2064
 4470SOL    HW113800   0.390   3.892   6.276  0.9693  0.3021 -0.6449
 4470SOL    HW213801   0.338   3.886   6.418 -0.9050  2.2853 -1.1995
 4471SOL     OW13802   5.712   4.658   3.685 -0.2649  0.0988 -0.1309
 4471SOL    HW113803   5.752   4.603   3.617 -0.3279 -1.3632  0.9834
 4471SOL    HW213804   5.619   4.656   3.667 -0.3632 -0.9428  0.4478
 4472SOL     OW13805   6.784   3.805   4.795  0.5738  0.3805 -0.6072
 4472SOL    HW113806   6.777   3.900   4.789  0.3131  0.5316  1.4147
 4472SOL    HW213807   6.708   3.772   4.748 -0.2605  1.2505  0.1008
 4473SOL     OW13808   3.856   4.059   6.216 -0.3279  0.1931 -0.0603
 4473SOL    HW113809   3.892   3.983   6.168  0.1369  1.3756 -1.6714
 4473SOL    HW213810   3.761   4.049   6.208 -0.2893 -0.6259  0.4069
 4474SOL     OW13811   0.352   2.411   2.377 -0.4322  1.0108  0.4091
 4474SOL    HW113812   0.384   2.326   2.410  0.1073  0.4283 -1.4637
 4474SOL    HW213813   0.361   2.404   2.282 -2.4589  2.3557  0.0491
 4475SOL     OW13814   6.299   0.124   6.781 -0.7962 -0.4961  1.1603
 4475SOL    HW113815   6.230   0.161   6.726 -0.5702 -2.9456 -0.9515
 4475SOL    HW213816   6.252   0.067   6.842 -0.7426 -1.3387  0.4270
 4476SOL     OW13817   1.954   5.863   3.226  0.4560 -0.0070  0.0255
 4476SOL    HW113818   1.925   5.920   3.155  1.2067  0.0248 -0.2576
 4476SOL    HW213819   2.048   5.852   3.212  0.9698  1.4000  2.0029
 4477SOL     OW13820   1.575   4.291   1.118 -0.4749 -0.8371 -0.7341
 4477SOL    HW113821   1.617   4.377   1.119 -2.3741  0.1562  1.4487
 4477SOL    HW213822   1.536   4.285   1.031 -1.3914  1.1000 -0.5079
 4478SOL     OW13823   3.228   0.922   4.921 -0.3962 -0.0033 -1.2072
 4478SOL    HW113824   3.231   0.866   4.844 -0.0011  1.2420 -2.1279
 4478SOL    HW213825   3.309   0.972   4.918  0.1421 -0.6616  0.6227
 4479SOL     OW13826   0.370   5.589   0.414 -0.1693 -0.0176  0.0454
 4479SOL    HW113827   0.419   5.631   0.485  0.5900 -1.0059  0.1298
 4479SOL    HW213828   0.356   5.658   0.350  0.8138  0.4262  0.2953
 4480SOL     OW13829   0.450   0.397   3.076  0.0357 -0.6634 -0.0895
 4480SOL    HW113830   0.441   0.307   3.045 -0.1311 -1.1853  1.3698
 4480SOL    HW213831   0.542   0.404   3.101  0.1732 -0.2475 -0.6980
 4481SOL     OW13832   1.241   4.588   5.056  0.4305 -0.5077  0.1195
 4481SOL    HW113833   1.304   4.622   4.992  1.1848  0.1358  1.1772
 4481SOL    HW213834   1.162   4.642   5.042  0.2319 -1.0442 -0.9302
 4482SOL     OW13835   4.395   6.252   1.293 -0.0251  0.1003 -0.0835
 4482SOL    HW113836   4.383   6.309   1.217 -0.7780 -1.8084 -1.4700
 4482SOL    HW213837   4.467   6.292   1.341  1.0622  0.9291 -2.2470
 4483SOL     OW13838   5.114   3.202   2.800  0.2053  0.0768 -0.4831
 4483SOL    HW113839   5.067   3.238   2.876 -0.0631 -1.4369  0.1060
 4483SOL    HW213840   5.046   3.191   2.733 -0.0989 -1.0510 -0.0169
 4484SOL     OW13841   5.128   2.786   0.850  0.6184  0.2455 -0.1369
 4484SOL    HW113842   5.133   2.825   0.763 -1.0346 -0.8429 -0.7769
 4484SOL    HW213843   5.200   2.723   0.853  1.1163  0.7913 -0.4346
 4485SOL     OW13844   6.824   5.494   1.031 -0.2632 -0.1764  0.4540
 4485SOL    HW113845   6.786   5.461   1.113 -0.7275  0.7604  0.6341
 4485SOL    HW213846   6.788   5.582   1.023 -1.2765 -0.6981 -1.4180
 4486SOL     OW13847   6.250   4.683   5.024  0.2055 -0.2464 -0.7627
 4486SOL    HW113848   6.182   4.616   5.031 -0.2968  0.1146 -2.0469
 4486SOL    HW213849   6.208   4.763   5.054  0.0966 -0.0543 -1.4121
 4487SOL     OW13850   4.138   2.829   4.201  0.4741  0.1557 -0.1628
 4487SOL    HW113851   4.165   2.808   4.290  0.6914  0.2724 -0.2004
 4487SOL    HW213852   4.188   2.907   4.179 -0.3273  0.7182 -0.0222
 4488SOL     OW13853   4.909   5.252   4.627  0.1299 -0.3925  0.0612
 4488SOL    HW113854   4.869   5.339   4.619 -0.4162 -0.6564 -0.1860
 4488SOL    HW213855   4.847   5.194   4.582  0.7267 -0.8395 -0.1889
 4489SOL     OW13856   4.251   5.608   6.705  0.2084 -0.5858  0.3573
 4489SOL    HW113857   4.342   5.602   6.676  0.1795 -1.2928  0.3891
 4489SOL    HW213858   4.201   5.617   6.624  0.3940  1.2282  0.4087
 4490SOL     OW13859   1.013   1.939   5.825  0.4962  0.1031 -0.2317
 4490SOL    HW113860   1.085   1.992   5.791  0.1135  2.1551  1.8448
 4490SOL    HW213861   0.935   1.974   5.781  0.4717 -0.2255 -0.4497
 4491SOL     OW13862   5.978   2.649   1.445  0.1555  0.6503  0.0920
 4491SOL    HW113863   6.025   2.597   1.380 -0.2343  1.2118 -0.6661
 4491SOL    HW213864   5.971   2.592   1.521  3.0161  0.9346  0.6686
 4492SOL     OW13865   1.172   3.145   6.028 -0.4492  0.2702  0.1780
 4492SOL    HW113866   1.155   3.236   6.053  0.0273  0.9515 -1.8358
 4492SOL    HW213867   1.256   3.124   6.070 -1.0433  0.3893  1.4810
 4493SOL     OW13868   2.562   2.062   3.892  0.0194  0.1766  0.9015
 4493SOL    HW113869   2.469   2.048   3.873  0.2173 -0.7250  0.5820
 4493SOL    HW213870   2.561   2.117   3.971 -0.7858  1.8197 -0.1782
 4494SOL     OW13871   2.876   3.876   4.522  0.0334 -0.0826 -0.2355
 4494SOL    HW113872   2.912   3.803   4.473 -1.1847 -0.7919 -0.1134
 4494SOL    HW213873   2.809   3.914   4.465 -1.2497 -0.7847  0.7374
 4495SOL     OW13874   2.403   2.872   5.491  0.6231  0.0669  0.2423
 4495SOL    HW113875   2.315   2.842   5.470  0.0627  2.1741 -0.6588
 4495SOL    HW213876   2.439   2.900   5.407  3.2086 -3.1068  0.0845
 4496SOL     OW13877   6.435   3.921   1.345  0.3787  0.5924 -0.5033
 4496SOL    HW113878   6.477   3.854   1.399  1.1301  1.4384 -0.0167
 4496SOL    HW213879   6.413   3.875   1.264  0.2732 -0.4077  0.0736
 4497SOL     OW13880   5.300   3.368   2.731 -0.1637  0.2791 -0.0894
 4497SOL    HW113881   5.237   3.298   2.746  0.3709  0.1833  2.0427
 4497SOL    HW213882   5.384   3.331   2.760  0.3055  1.4405  0.0732
 4498SOL     OW13883   1.601   2.809   0.461 -0.4944  0.1306 -0.0566
 4498SOL    HW113884   1.652   2.755   0.521 -0.7268 -0.1515 -0.1117
 4498SOL    HW213885   1.510   2.796   0.488 -0.4911  1.2385  0.5457
 4499SOL     OW13886   3.364   0.522   0.812 -0.0090  0.4808  0.0845
 4499SOL    HW113887   3.446   0.571   0.812  0.1161  0.2778  0.4711
 4499SOL    HW213888   3.319   0.550   0.891  0.3363 -0.4602  0.6302
 4500SOL     OW13889   0.872   2.244   4.882 -0.4177  0.0439  0.7210
 4500SOL    HW113890   0.897   2.172   4.824 -0.5794 -0.9627  1.8607
 4500SOL    HW213891   0.880   2.322   4.828 -0.6602 -0.8690 -0.6781
 4501SOL     OW13892   4.320   2.422   3.348 -0.6509 -0.2907  0.3009
 4501SOL    HW113893   4.268   2.427   3.428 -1.2098  0.8597 -0.1148
 4501SOL    HW213894   4.373   2.502   3.349 -1.8326  0.5875 -1.2365
 4502SOL     OW13895   0.327   3.394   0.242  0.0170  0.3678 -0.1078
 4502SOL    HW113896   0.360   3.451   0.172  2.7337 -0.2531  0.5324
 4502SOL    HW213897   0.348   3.441   0.323  0.2303 -0.5183  0.3683
 4503SOL     OW13898   4.144   2.375   5.359  0.4618  0.5361  0.2421
 4503SOL    HW113899   4.175   2.440   5.295  0.6176  0.1634 -0.0692
 4503SOL    HW213900   4.198   2.390   5.436  1.6576 -0.2987 -0.3931
 4504SOL     OW13901   5.076   1.745   4.726  0.4673 -0.2700 -0.3431
 4504SOL    HW113902   5.092   1.681   4.656 -0.3548 -0.9377  0.0540
 4504SOL    HW213903   5.068   1.691   4.805  2.0830  0.5232  0.4093
 4505SOL     OW13904   3.997   5.604   3.744 -0.6397  0.0822  0.1162
 4505SOL    HW113905   4.063   5.610   3.675 -0.4853  0.5084  0.3018
 4505SOL    HW213906   3.997   5.511   3.768 -1.6169 -0.3350 -1.3464
 4506SOL     OW13907   3.725   0.684   4.725  0.0709 -0.0174  0.2609
 4506SOL    HW113908   3.816   0.655   4.736 -0.1708 -0.5711  0.8792
 4506SOL    HW213909   3.698   0.711   4.813 -0.4485 -0.1214  0.1370
 4507SOL     OW13910   0.096   0.740   1.919  0.4393  0.1126 -0.5135
 4507SOL    HW113911   0.125   0.738   2.010 -0.6093  0.2563 -0.1692
 4507SOL    HW213912   0.069   0.830   1.904 -1.6724 -0.4298 -0.2197
 4508SOL     OW13913   3.827   3.128   5.406  0.3225  0.5791 -0.3185
 4508SOL    HW113914   3.916   3.143   5.372  0.4645 -0.9694 -0.7111
 4508SOL    HW213915   3.777   3.101   5.329  0.3896 -1.9522  0.4397
 4509SOL     OW13916   3.198   1.981   2.018 -0.2370 -0.2953  0.3635
 4509SOL    HW113917   3.119   1.933   2.045 -1.0869 -0.7926 -2.5723
 4509SOL    HW213918   3.169   2.032   1.942  2.0174  0.4436 -0.0531
 4510SOL     OW13919   0.305   0.095   3.733 -0.1218  0.3872  0.0482
 4510SOL    HW113920   0.215   0.092   3.765  0.2196  1.4230  1.2107
 4510SOL    HW213921   0.324   0.005   3.705 -2.2660  0.6000 -2.5087
 4511SOL     OW13922   0.401   3.455   3.528  0.1092 -0.0434  0.0016
 4511SOL    HW113923   0.375   3.547   3.524  1.0469  0.2998  0.9991
 4511SOL    HW213924   0.496   3.456   3.513 -0.1837 -1.1130 -2.3564
 4512SOL     OW13925   4.444   1.010   2.403  0.5868 -0.1394  0.3675
 4512SOL    HW113926   4.454   1.035   2.311  0.5997  0.4311  0.5163
 4512SOL    HW213927   4.479   1.085   2.451 -0.7455  0.1892  0.8493
 4513SOL     OW13928   1.849   3.040   2.768 -0.1525  0.1798 -0.4012
 4513SOL    HW113929   1.862   3.063   2.860  1.7785 -0.1345 -0.5568
 4513SOL    HW213930   1.905   3.101   2.719 -2.3574  1.4170 -1.5430
 4514SOL     OW13931   5.406   5.176   3.408  0.3287  0.4351  0.7662
 4514SOL    HW113932   5.464   5.239   3.366 -0.7266  1.8327  1.3146
 4514SOL    HW213933   5.411   5.197   3.501  0.1906 -0.5093  0.9966
 4515SOL     OW13934   6.143   4.005   1.297 -0.3664 -0.1043  0.4491
 4515SOL    HW113935   6.123   4.073   1.232  0.5352 -0.1797  0.0835
 4515SOL    HW213936   6.142   4.050   1.381  2.6270  0.9479  0.0372
 4516SOL     OW13937   3.252   5.607   6.246 -0.2496  0.2470  0.2714
 4516SOL    HW113938   3.296   5.578   6.166 -0.0588 -0.0572  0.4811
 4516SOL    HW213939   3.239   5.701   6.234 -0.4599  0.1599 -0.2267
 4517SOL     OW13940   3.384   1.437   2.323 -0.4301  0.1544 -0.0647
 4517SOL    HW113941   3.390   1.441   2.419  0.1220  3.2036 -0.1310
 4517SOL    HW213942   3.450   1.373   2.298 -0.9529 -1.1159  1.5835
 4518SOL     OW13943   0.716   2.555   1.944 -0.1885  0.2567  0.6718
 4518SOL    HW113944   0.766   2.586   2.020 -0.2727 -0.9828  1.2569
 4518SOL    HW213945   0.714   2.460   1.954  1.6718 -0.1958 -2.0231
 4519SOL     OW13946   2.864   1.574   2.942 -0.3621  0.5062  0.3850
 4519SOL    HW113947   2.905   1.616   2.867 -0.1656 -0.5204 -0.1097
 4519SOL    HW213948   2.913   1.605   3.018  1.4909 -0.8000 -0.2027
 4520SOL     OW13949   6.699   3.604   1.312  0.1399  0.3738 -0.3337
 4520SOL    HW113950   6.781   3.649   1.335  0.6235 -1.5515  2.1871
 4520SOL    HW213951   6.679   3.635   1.224  1.5226  3.8033  0.3970
 4521SOL     OW13952   2.143   4.295   3.782  0.1544  0.2171 -0.7189
 4521SOL    HW113953   2.192   4.353   3.723  0.2627  0.3378 -0.5122
 4521SOL    HW213954   2.182   4.311   3.868 -0.8746  1.0317 -0.3795
 4522SOL     OW13955   5.080   0.111   5.575  0.1718  0.3900 -0.1129
 4522SOL    HW113956   5.114   0.143   5.659  2.5483 -0.8451 -0.5131
 4522SOL    HW213957   5.045   0.025   5.595  0.2674  0.3092 -0.2934
 4523SOL     OW13958   2.231   0.046   5.614  0.2590 -0.0772 -0.0414
 4523SOL    HW113959   2.258   0.080   5.529  0.8211  2.2528  1.0104
 4523SOL    HW213960   2.312   0.017   5.655  0.2207  0.4358  0.3925
 4524SOL     OW13961   3.089   4.817   2.605  0.1883  0.4599 -0.4342
 4524SOL    HW113962   3.041   4.781   2.530 -1.5545 -1.3679  1.4149
 4524SOL    HW213963   3.161   4.755   2.619 -0.3138 -0.0046  0.1882
 4525SOL     OW13964   4.453   0.417   1.265 -1.1508  0.2048  0.4010
 4525SOL    HW113965   4.461   0.384   1.354 -1.3123  0.7322  0.6168
 4525SOL    HW213966   4.361   0.406   1.243 -0.9133 -0.8993 -0.0966
 4526SOL     OW13967   0.880   1.233   5.005  0.0131  0.4229 -0.4396
 4526SOL    HW113968   0.797   1.186   4.999 -0.5881  1.3986  0.0702
 4526SOL    HW213969   0.918   1.226   4.917  0.3493 -1.6895 -0.1969
 4527SOL     OW13970   5.464   4.693   6.200  0.1620  0.2081 -0.0343
 4527SOL    HW113971   5.536   4.641   6.237  0.1101  2.3890  3.6491
 4527SOL    HW213972   5.390   4.633   6.200  1.3515 -1.3725 -1.6167
 4528SOL     OW13973   2.701   3.578   4.109  0.3185 -0.8603 -0.5604
 4528SOL    HW113974   2.721   3.581   4.203  1.4649  2.8197 -0.7585
 4528SOL    HW213975   2.612   3.544   4.104  0.3715 -1.5250  1.8235
 4529SOL     OW13976   5.183   5.266   6.088 -0.0527  0.3534 -0.6559
 4529SOL    HW113977   5.264   5.317   6.091  0.5468 -0.5914 -0.2986
 4529SOL    HW213978   5.114   5.330   6.106  0.6857  1.0219 -0.1192
 4530SOL     OW13979   2.931   1.880   1.601  0.4078  0.5390 -0.0482
 4530SOL    HW113980   2.945   1.975   1.595 -4.3305  1.5228  0.5683
 4530SOL    HW213981   2.878   1.859   1.524 -1.4218 -0.8350  1.4924
 4531SOL     OW13982   2.844   3.281   3.819 -0.3360 -0.2058 -0.0531
 4531SOL    HW113983   2.762   3.263   3.772 -0.9531 -0.7983  1.2101
 4531SOL    HW213984   2.866   3.198   3.862 -0.7563  0.7389  2.1339
 4532SOL     OW13985   1.470   6.138   0.863 -0.4381 -0.2569  0.6453
 4532SOL    HW113986   1.556   6.134   0.820 -1.2632 -0.8264 -1.0541
 4532SOL    HW213987   1.437   6.049   0.857 -0.4437 -0.4544  2.8925
 4533SOL     OW13988   3.498   4.592   6.814  0.1171 -0.2659  0.2940
 4533SOL    HW113989   3.461   4.677   6.791  1.3996  0.1018 -0.4979
 4533SOL    HW213990   3.433   4.528   6.786 -0.0470  0.3772 -0.8336
 4534SOL     OW13991   1.411   2.153   1.476  0.1381  0.0905 -0.1176
 4534SOL    HW113992   1.469   2.210   1.427 -0.1022  0.4768  0.0454
 4534SOL    HW213993   1.357   2.110   1.409  2.0092 -1.8925 -0.4671
 4535SOL     OW13994   5.846   5.747   5.479  0.4651 -0.2498  0.3122
 4535SOL    HW113995   5.935   5.757   5.446 -0.1537  3.1073 -0.6817
 4535SOL    HW213996   5.790   5.767   5.404 -1.0071  3.2142  2.1399
 4536SOL     OW13997   3.945   3.358   3.855  0.4512  0.3498 -0.4959
 4536SOL    HW113998   3.974   3.305   3.929 -1.5091  0.7584  0.6442
 4536SOL    HW213999   3.888   3.425   3.894 -2.6056 -0.8546 -2.5350
 4537SOL     OW14000   3.147   4.150   2.462 -0.3597  0.2162  0.2707
 4537SOL    HW114001   3.136   4.106   2.547  1.0188  1.1983  0.9907
 4537SOL    HW214002   3.228   4.200   2.471  0.2708 -0.2983 -1.9298
 4538SOL     OW14003   3.459   5.498   1.828 -0.2904 -0.0168  0.3299
 4538SOL    HW114004   3.402   5.574   1.842  0.2623  0.1719  1.6046
 4538SOL    HW214005   3.468   5.457   1.914  2.5821  0.7240  0.4662
 4539SOL     OW14006   1.316   1.622   0.524 -0.7616  0.3762 -0.0550
 4539SOL    HW114007   1.306   1.717   0.530 -0.7613  0.4237 -0.7905
 4539SOL    HW214008   1.373   1.608   0.448 -0.0394 -0.1764  0.5635
 4540SOL     OW14009   2.222   3.979   2.519  0.1907 -0.4308  0.0743
 4540SOL    HW114010   2.130   3.973   2.546 -0.0699  0.8110 -0.4563
 4540SOL    HW214011   2.259   4.048   2.573  1.1935 -1.7844  1.1903
 4541SOL     OW14012   4.637   4.647   5.351 -0.3408 -0.1431 -0.0935
 4541SOL    HW114013   4.714   4.656   5.295 -1.2810 -6.0077 -3.0793
 4541SOL    HW214014   4.562   4.651   5.291 -2.6989  4.2638  2.5521
 4542SOL     OW14015   3.941   2.870   3.072 -0.0873  0.1454  0.3319
 4542SOL    HW114016   3.940   2.783   3.033 -1.7523  0.4473 -0.4166
 4542SOL    HW214017   3.851   2.902   3.060  0.3348  1.7225  1.1252
 4543SOL     OW14018   4.568   2.566   1.336 -0.0628  0.4292 -0.6317
 4543SOL    HW114019   4.571   2.492   1.396  0.9707  1.2639  0.4011
 4543SOL    HW214020   4.547   2.528   1.251  0.4109 -1.0357 -0.1180
 4544SOL     OW14021   5.147   3.700   2.019  0.0538 -0.2038  0.0565
 4544SOL    HW114022   5.151   3.614   2.061 -0.3213  0.2864  1.1247
 4544SOL    HW214023   5.233   3.710   1.977  0.5995 -0.5406  1.0558
 4545SOL     OW14024   1.507   2.293   0.187 -0.5656 -0.5080 -0.0597
 4545SOL    HW114025   1.527   2.216   0.240  0.8409  0.2938  0.6001
 4545SOL    HW214026   1.586   2.308   0.135 -0.5875  0.8552  0.2681
 4546SOL     OW14027   3.005   5.909   4.027 -0.0103  0.0470  0.3411
 4546SOL    HW114028   3.090   5.865   4.029 -0.6687 -1.3257 -0.3488
 4546SOL    HW214029   3.022   5.992   3.984  1.1503  0.1834  1.0212
 4547SOL     OW14030   5.538   0.258   3.338  0.1167 -0.3790  0.4360
 4547SOL    HW114031   5.452   0.297   3.349  0.1676  0.5909 -1.9737
 4547SOL    HW214032   5.599   0.332   3.340  0.6735 -0.8193  0.0401
 4548SOL     OW14033   4.720   1.124   5.705  0.2831  0.0138 -0.4165
 4548SOL    HW114034   4.636   1.156   5.672  0.3313 -0.3984 -0.9523
 4548SOL    HW214035   4.713   1.028   5.698  0.4229 -0.0651  0.4629
 4549SOL     OW14036   2.252   6.206   3.100  0.1020 -0.2905  0.2769
 4549SOL    HW114037   2.276   6.129   3.049 -0.0739 -0.4612  0.4524
 4549SOL    HW214038   2.162   6.225   3.074  0.3256  0.1772 -0.1655
 4550SOL     OW14039   1.754   1.553   6.542 -0.2663 -0.2703 -0.3804
 4550SOL    HW114040   1.819   1.506   6.594 -1.1998 -0.8183  0.3244
 4550SOL    HW214041   1.675   1.552   6.596 -0.2394  2.5206 -0.1049
 4551SOL     OW14042   5.650   0.150   1.477  0.5102 -0.1046 -0.6076
 4551SOL    HW114043   5.712   0.112   1.539  0.7115  0.9502 -0.1527
 4551SOL    HW214044   5.673   0.110   1.393  1.4615 -0.1170 -0.3480
 4552SOL     OW14045   0.202   2.084   2.722  0.3715  0.5378 -0.1511
 4552SOL    HW114046   0.284   2.068   2.770 -0.6589  1.7107  2.1825
 4552SOL    HW214047   0.228   2.142   2.650  2.0457 -1.5522 -1.3330
 4553SOL     OW14048   4.154   3.140   1.272  0.4433  0.2528 -0.0483
 4553SOL    HW114049   4.185   3.050   1.276 -0.3264 -0.0028  0.4242
 4553SOL    HW214050   4.219   3.190   1.322  0.6809 -0.0986 -0.0046
 4554SOL     OW14051   5.754   4.877   3.883  0.0205 -0.3799 -0.4543
 4554SOL    HW114052   5.731   4.804   3.825 -1.8355 -0.0604 -0.1935
 4554SOL    HW214053   5.849   4.874   3.889 -0.0203 -3.2299  0.1574
 4555SOL     OW14054   5.725   3.252   5.540 -0.0181  0.4408  0.0952
 4555SOL    HW114055   5.767   3.265   5.625 -0.2924 -0.6915  0.4297
 4555SOL    HW214056   5.781   3.297   5.477  2.4952 -2.1009  0.3372
 4556SOL     OW14057   4.482   4.072   5.147  0.4334 -0.1012 -0.4811
 4556SOL    HW114058   4.422   4.013   5.191 -1.2659  1.1766 -0.9509
 4556SOL    HW214059   4.551   4.016   5.111  0.2970 -1.4507  1.2833
 4557SOL     OW14060   1.770   5.396   2.430  0.6236 -0.2749  0.3739
 4557SOL    HW114061   1.720   5.315   2.440 -1.3795  0.8525  0.1641
 4557SOL    HW214062   1.851   5.380   2.478 -0.8906 -1.4603  2.7804
 4558SOL     OW14063   1.003   4.619   3.701  0.3119  0.3258  0.3788
 4558SOL    HW114064   0.942   4.637   3.772  0.6284  0.5018  0.6112
 4558SOL    HW214065   1.035   4.705   3.673  0.5459  0.2315  0.3451
 4559SOL     OW14066   1.626   4.043   2.649  0.0579 -0.3094 -0.8368
 4559SOL    HW114067   1.657   4.046   2.559 -0.9387  1.1830 -1.1729
 4559SOL    HW214068   1.661   4.122   2.690  0.6955 -1.0903  0.1719
 4560SOL     OW14069   0.644   2.187   1.705 -0.0793  0.0431  0.1654
 4560SOL    HW114070   0.737   2.200   1.721 -0.0374  0.2629 -0.2339
 4560SOL    HW214071   0.626   2.237   1.625 -0.3807 -0.6023 -0.1830
 4561SOL     OW14072   3.299   3.542   1.671 -0.0213 -0.2391 -0.3413
 4561SOL    HW114073   3.353   3.550   1.750 -0.1530  2.4806 -0.4295
 4561SOL    HW214074   3.361   3.517   1.603  1.2667  2.8178 -0.4359
 4562SOL     OW14075   2.793   3.787   6.190  0.1530 -0.3018 -0.5044
 4562SOL    HW114076   2.867   3.761   6.134  1.1780 -1.0590  1.1211
 4562SOL    HW214077   2.821   3.870   6.229  0.3643 -0.8013  0.4422
 4563SOL     OW14078   6.128   4.875   1.471 -0.3572  0.3100 -0.1079
 4563SOL    HW114079   6.054   4.818   1.449 -2.9368  2.8426  1.4133
 4563SOL    HW214080   6.095   4.964   1.457  2.8492  1.5743 -0.5059
 4564SOL     OW14081   2.336   2.299   5.329 -0.5378 -0.5366  0.1351
 4564SOL    HW114082   2.346   2.325   5.421 -0.6545 -0.6746  0.1855
 4564SOL    HW214083   2.412   2.243   5.312  1.3773  2.0818 -0.7748
 4565SOL     OW14084   1.778   3.189   3.962 -0.2599  0.3477 -0.4280
 4565SOL    HW114085   1.873   3.179   3.970 -0.3812 -0.0074  0.7882
 4565SOL    HW214086   1.757   3.149   3.878  0.4558 -1.2979  0.1372
 4566SOL     OW14087   3.153   0.944   1.857  0.0539  0.1354 -0.2998
 4566SOL    HW114088   3.182   0.858   1.886 -2.1395 -0.4298  0.3492
 4566SOL    HW214089   3.162   1.000   1.934 -0.5017 -0.0135 -0.1291
 4567SOL     OW14090   3.690   2.943   3.058  0.2070  0.1509  0.1477
 4567SOL    HW114091   3.629   3.006   3.094  0.7880  2.2405 -2.2634
 4567SOL    HW214092   3.635   2.872   3.024 -0.8585  1.4412 -0.9369
 4568SOL     OW14093   5.899   6.112   1.049 -0.0778 -0.0291 -0.6635
 4568SOL    HW114094   5.857   6.190   1.012 -0.9295 -0.3623 -0.4116
 4568SOL    HW214095   5.957   6.146   1.117 -1.3997  0.3255  0.3383
 4569SOL     OW14096   1.235   5.951   0.557 -0.0863  0.2128  0.0741
 4569SOL    HW114097   1.155   5.916   0.517  0.6469 -0.8067 -0.5636
 4569SOL    HW214098   1.287   5.981   0.483  0.0911  0.9623  0.4968
 4570SOL     OW14099   2.430   6.724   2.194  0.4567 -0.2756 -0.2725
 4570SOL    HW114100   2.347   6.720   2.145  1.4615 -2.6989 -1.9484
 4570SOL    HW214101   2.443   6.635   2.226  2.7738 -0.1502 -0.7267
 4571SOL     OW14102   5.851   3.303   2.092  0.2125  0.6794  0.2227
 4571SOL    HW114103   5.938   3.291   2.129  0.0150  0.4587  0.6174
 4571SOL    HW214104   5.801   3.345   2.162 -0.4517 -0.6846  0.5883
 4572SOL     OW14105   4.811   5.979   4.837  0.0523 -0.2692 -0.0890
 4572SOL    HW114106   4.808   6.074   4.849  1.5102 -0.1321 -0.6365
 4572SOL    HW214107   4.848   5.945   4.918 -0.8794 -0.4266  0.2816
 4573SOL     OW14108   4.622   4.831   4.780  0.1016 -0.6601 -0.2108
 4573SOL    HW114109   4.543   4.788   4.747  0.6735 -1.5554 -0.4273
 4573SOL    HW214110   4.687   4.761   4.789  0.4259 -0.2119  1.4187
 4574SOL     OW14111   2.705   4.254   2.052 -0.4306  0.4118  0.0420
 4574SOL    HW114112   2.683   4.346   2.045 -3.1640 -0.2303 -1.2480
 4574SOL    HW214113   2.716   4.239   2.146 -0.6681  1.8933  0.3229
 4575SOL     OW14114   1.365   1.536   5.165 -0.0893 -0.6347 -0.0843
 4575SOL    HW114115   1.319   1.490   5.095 -1.0669  0.2285 -0.0272
 4575SOL    HW214116   1.421   1.599   5.119  0.7252 -1.3663 -0.1346
 4576SOL     OW14117   4.902   1.268   2.219 -0.1811  0.1403 -0.1583
 4576SOL    HW114118   4.883   1.297   2.130 -2.7131 -0.7127  0.0453
 4576SOL    HW214119   4.865   1.180   2.225  0.5943 -0.1179  1.5285
 4577SOL     OW14120   2.027   3.256   6.143  0.5224  0.0283 -0.0163
 4577SOL    HW114121   2.088   3.300   6.202 -0.2685 -1.9454  2.4445
 4577SOL    HW214122   2.079   3.188   6.101  0.9206  1.0009 -1.1722
 4578SOL     OW14123   6.531   4.991   1.014 -0.0315  0.0460 -0.6598
 4578SOL    HW114124   6.479   5.037   1.080  0.7205 -0.5280  0.3560
 4578SOL    HW214125   6.551   4.906   1.054 -0.4057 -0.7256 -2.0243
 4579SOL     OW14126   0.202   6.531   1.871  0.2232  0.0927  0.2451
 4579SOL    HW114127   0.275   6.584   1.838  0.5987  0.1294  1.1210
 4579SOL    HW214128   0.125   6.568   1.828  0.6591  0.3639 -0.3218
 4580SOL     OW14129   3.741   0.331   0.335 -0.1783 -0.2514 -0.0352
 4580SOL    HW114130   3.767   0.406   0.282 -1.4246 -0.0163 -0.3557
 4580SOL    HW214131   3.823   0.288   0.358  0.4815  0.5283 -0.8467
 4581SOL     OW14132   5.347   0.782   4.365 -0.4455 -0.0015 -0.1875
 4581SOL    HW114133   5.381   0.803   4.452 -1.2393  1.2487 -0.1620
 4581SOL    HW214134   5.412   0.816   4.304  1.0281 -2.4532 -0.1373
 4582SOL     OW14135   4.774   1.546   2.138 -0.8939 -0.1678 -0.2528
 4582SOL    HW114136   4.752   1.622   2.084  2.1042  0.0543 -1.3782
 4582SOL    HW214137   4.781   1.473   2.076 -1.9412 -0.9896  0.5551
 4583SOL     OW14138   5.992   1.117   5.875  0.1023  0.4690  0.2096
 4583SOL    HW114139   5.929   1.044   5.875  2.0908 -1.3305  0.6876
 4583SOL    HW214140   6.057   1.093   5.940  0.3983  3.1489  1.0223
 4584SOL     OW14141   1.493   0.874   0.242  0.0323 -0.2912 -0.6919
 4584SOL    HW114142   1.448   0.791   0.253  1.4082 -1.2316 -1.7536
 4584SOL    HW214143   1.585   0.850   0.228  0.7709  1.5059  0.6521
 4585SOL     OW14144   6.538   3.161   2.541 -0.1562 -0.0192 -0.1173
 4585SOL    HW114145   6.606   3.222   2.570 -0.4564  0.0260  0.5142
 4585SOL    HW214146   6.512   3.194   2.455  0.7676 -0.1648 -0.4615
 4586SOL     OW14147   5.824   1.870   1.232  0.2682  0.0018 -0.9076
 4586SOL    HW114148   5.774   1.832   1.160 -0.1014 -0.7396 -0.2600
 4586SOL    HW214149   5.808   1.965   1.224  0.1578 -0.0799 -1.7410
 4587SOL     OW14150   0.713   1.537   4.294  0.1553 -0.1865 -0.5955
 4587SOL    HW114151   0.674   1.451   4.278 -1.0692  0.2412 -0.0196
 4587SOL    HW214152   0.681   1.592   4.223 -1.2592  0.4476  0.4757
 4588SOL     OW14153   0.838   3.400   4.705 -0.1883 -0.4837 -0.1257
 4588SOL    HW114154   0.816   3.367   4.618 -2.2887  0.5376 -0.0604
 4588SOL    HW214155   0.879   3.326   4.749 -1.6738 -1.9539 -1.0795
 4589SOL     OW14156   1.188   3.246   1.966  0.0341  0.0183  0.3415
 4589SOL    HW114157   1.099   3.269   1.993 -0.4046 -1.3552  0.1241
 4589SOL    HW214158   1.180   3.226   1.873  0.4044 -0.9035  0.4979
 4590SOL     OW14159   2.718   6.709   1.415 -0.2565 -0.2641  0.0007
 4590SOL    HW114160   2.721   6.623   1.375  1.3626 -0.6533  0.8742
 4590SOL    HW214161   2.671   6.696   1.497  0.1142 -0.3509  0.2005
 4591SOL     OW14162   0.694   5.985   6.015  0.2810 -0.1328  0.3779
 4591SOL    HW114163   0.760   5.996   6.084  0.0264 -1.0197  0.7802
 4591SOL    HW214164   0.619   5.945   6.059 -0.3064  0.3108 -0.1985
 4592SOL     OW14165   0.815   3.279   1.722 -0.0986 -0.5500 -0.3926
 4592SOL    HW114166   0.767   3.361   1.719  0.6130 -0.1249 -0.2686
 4592SOL    HW214167   0.747   3.213   1.740 -0.4202  0.2413  1.5425
 4593SOL     OW14168   5.512   2.239   1.944 -0.4047 -0.1219  0.3501
 4593SOL    HW114169   5.563   2.158   1.948 -0.8364 -0.3627  1.5701
 4593SOL    HW214170   5.527   2.273   1.856  1.3090 -0.5307  0.4521
 4594SOL     OW14171   5.978   6.744   6.325 -0.0731  0.4683  0.8116
 4594SOL    HW114172   5.951   6.820   6.273 -0.2358  0.3431  0.7090
 4594SOL    HW214173   6.063   6.768   6.361  1.0132 -0.1906 -1.1338
 4595SOL     OW14174   3.879   4.346   2.456 -0.2868 -0.7902 -0.5434
 4595SOL    HW114175   3.936   4.292   2.510 -0.0664 -0.4353 -0.4211
 4595SOL    HW214176   3.797   4.350   2.505 -0.3141 -1.0360 -0.5665
 4596SOL     OW14177   2.430   1.270   0.860 -0.9644  0.1958  0.7714
 4596SOL    HW114178   2.431   1.202   0.927 -1.9454  0.2604  0.8670
 4596SOL    HW214179   2.516   1.311   0.866  0.0645 -1.7229 -0.0091
 4597SOL     OW14180   3.779   0.728   3.292 -0.1229 -0.0911 -0.8572
 4597SOL    HW114181   3.764   0.669   3.218 -2.9648 -0.8430  0.1774
 4597SOL    HW214182   3.799   0.669   3.365  0.0174  0.4338 -0.4678
 4598SOL     OW14183   6.308   4.331   5.215 -0.4229  0.6539 -0.2421
 4598SOL    HW114184   6.256   4.347   5.294 -0.7344 -0.5660 -0.1788
 4598SOL    HW214185   6.397   4.314   5.248 -0.3796  0.9460 -0.2111
 4599SOL     OW14186   2.061   4.223   6.573 -0.6436  0.9373 -0.4926
 4599SOL    HW114187   2.115   4.299   6.596 -0.0277 -0.1035  1.7173
 4599SOL    HW214188   1.972   4.250   6.592 -0.2088  0.2850  2.9851
 4600SOL     OW14189   6.184   4.882   5.455 -0.3766 -0.5466  0.1849
 4600SOL    HW114190   6.146   4.805   5.413 -0.6401 -1.5267  2.1323
 4600SOL    HW214191   6.266   4.851   5.494 -0.0264  0.3858  0.2402
 4601SOL     OW14192   5.854   4.841   3.050 -0.4274  0.4884  0.3970
 4601SOL    HW114193   5.787   4.802   3.107 -1.4680  1.3927 -0.1629
 4601SOL    HW214194   5.935   4.833   3.099 -1.2537  1.0440  1.9271
 4602SOL     OW14195   4.289   2.489   3.605 -0.3494  0.5614 -0.2289
 4602SOL    HW114196   4.215   2.547   3.589 -0.4984  0.3549 -0.2938
 4602SOL    HW214197   4.363   2.548   3.618 -0.7375  0.8154  0.9676
 4603SOL     OW14198   3.729   6.678   5.937  0.5811  0.1594  0.2270
 4603SOL    HW114199   3.664   6.617   5.971  0.4971  0.3178  0.3527
 4603SOL    HW214200   3.771   6.714   6.014  0.1305  0.8011  0.1821
 4604SOL     OW14201   6.380   0.388   0.467 -0.6803 -0.0524 -0.5311
 4604SOL    HW114202   6.401   0.473   0.507 -0.1121 -0.2447 -0.4089
 4604SOL    HW214203   6.401   0.400   0.374 -0.4456 -0.1102 -0.4853
 4605SOL     OW14204   4.735   3.672   3.466  0.5755  0.1021 -0.6086
 4605SOL    HW114205   4.828   3.694   3.475  0.4574  0.3181  0.1016
 4605SOL    HW214206   4.700   3.677   3.555 -0.3698  1.2132 -1.0087
 4606SOL     OW14207   0.004   2.662   6.718 -0.1380 -0.5648 -0.1433
 4606SOL    HW114208   0.064   2.629   6.652 -1.3277 -0.9287 -1.0777
 4606SOL    HW214209  -0.056   2.589   6.734 -0.5155 -0.1181  0.5490
 4607SOL     OW14210   4.098   3.045   5.881 -0.1422 -0.2615 -0.3180
 4607SOL    HW114211   4.140   3.039   5.967  0.4212 -1.1574 -0.6488
 4607SOL    HW214212   4.014   3.000   5.892  0.3205 -1.1846 -0.4661
 4608SOL     OW14213   4.633   0.510   0.639  0.3370  0.1420  0.3212
 4608SOL    HW114214   4.719   0.482   0.606  0.2712  0.1462  0.1445
 4608SOL    HW214215   4.573   0.441   0.612 -0.3686  1.7463 -2.6577
 4609SOL     OW14216   1.928   3.680   2.551  0.2801  0.1919 -0.3389
 4609SOL    HW114217   1.964   3.591   2.558 -1.0387 -0.4103 -0.7712
 4609SOL    HW214218   1.980   3.732   2.612  2.1538 -0.4965 -1.2593
 4610SOL     OW14219   1.754   4.845   1.830  0.2376 -0.0566  0.6993
 4610SOL    HW114220   1.679   4.866   1.886  0.0805  2.4302 -0.2958
 4610SOL    HW214221   1.825   4.898   1.865  0.6081  0.1774 -0.3687
 4611SOL     OW14222   2.100   3.455   2.552  0.0207  0.1163  0.0104
 4611SOL    HW114223   2.134   3.388   2.612 -2.1239 -0.0535  1.1323
 4611SOL    HW214224   2.095   3.410   2.467 -0.3708 -0.8266  0.5119
 4612SOL     OW14225   4.062   2.150   4.572  0.3618  0.0414 -0.4742
 4612SOL    HW114226   4.047   2.072   4.518 -0.5209  0.7464 -1.2735
 4612SOL    HW214227   4.155   2.169   4.560  1.4644 -2.6732  2.2230
 4613SOL     OW14228   3.503   0.534   1.076  0.3229  0.0660 -0.4210
 4613SOL    HW114229   3.537   0.622   1.091  1.1399 -0.4871  1.2243
 4613SOL    HW214230   3.429   0.527   1.136  1.0548 -0.7811  0.4107
 4614SOL     OW14231   2.171   1.755   1.112  0.2920 -0.0135 -0.0512
 4614SOL    HW114232   2.097   1.696   1.101  0.5677 -0.6324  1.1981
 4614SOL    HW214233   2.243   1.713   1.065 -0.3517  1.1050 -2.1761
 4615SOL     OW14234   6.334   1.152   4.411  0.0128  0.3722  0.0867
 4615SOL    HW114235   6.266   1.150   4.344 -0.5300  1.1469  0.5971
 4615SOL    HW214236   6.416   1.145   4.363 -0.4128 -0.4723 -0.5472
 4616SOL     OW14237   1.048   4.756   4.959 -0.5555  0.2413  0.5378
 4616SOL    HW114238   0.955   4.734   4.961 -0.5501  0.1772  0.1016
 4616SOL    HW214239   1.050   4.845   4.922 -0.2748 -0.7348 -1.9633
 4617SOL     OW14240   2.989   6.231   1.067 -0.1568  0.3056  0.1741
 4617SOL    HW114241   2.968   6.179   0.989 -0.2439 -1.5925  1.3884
 4617SOL    HW214242   3.075   6.198   1.094  0.5804  2.0181  0.0672
 4618SOL     OW14243   2.212   4.468   1.010  0.1628  0.2390 -0.1102
 4618SOL    HW114244   2.271   4.543   1.022  0.0129  0.3897 -0.3289
 4618SOL    HW214245   2.159   4.490   0.934  0.3165 -0.2202 -0.3514
 4619SOL     OW14246   2.516   2.348   0.538 -0.6516  0.2071  0.0757
 4619SOL    HW114247   2.479   2.260   0.536  1.1027 -0.5864  0.8218
 4619SOL    HW214248   2.440   2.406   0.529 -1.9701 -1.3440  0.7200
 4620SOL     OW14249   5.246   1.322   6.038  0.2922  0.0709  0.1161
 4620SOL    HW114250   5.300   1.271   6.098  1.1702 -1.3024 -1.7294
 4620SOL    HW214251   5.208   1.257   5.979 -1.1983  1.2761 -0.3187
 4621SOL     OW14252   3.211   2.929   5.311 -0.1692 -0.1303 -0.0981
 4621SOL    HW114253   3.146   2.964   5.250 -0.4985  0.9032  0.8181
 4621SOL    HW214254   3.177   2.844   5.337 -1.8729  0.9308  1.3687
 4622SOL     OW14255   6.522   2.282   4.072  0.5984 -0.1809  0.3758
 4622SOL    HW114256   6.529   2.211   4.135 -0.3830 -0.9116 -0.3074
 4622SOL    HW214257   6.565   2.249   3.994  0.3026  0.0414  0.1168
 4623SOL     OW14258   0.355   6.029   2.352 -0.0208 -0.3882 -0.9924
 4623SOL    HW114259   0.293   6.099   2.370 -0.7621 -1.6652  1.8055
 4623SOL    HW214260   0.355   6.021   2.256 -2.5723  1.0196 -1.1770
 4624SOL     OW14261   3.399   5.633   4.465  0.5189  0.5466 -0.1078
 4624SOL    HW114262   3.366   5.658   4.551 -1.6532  2.1050 -1.2998
 4624SOL    HW214263   3.349   5.555   4.442  3.0554 -1.6001  1.0787
 4625SOL     OW14264   2.403   5.688   4.714  0.5977 -0.4475 -0.1068
 4625SOL    HW114265   2.391   5.618   4.779  1.7713 -1.7799 -1.2434
 4625SOL    HW214266   2.315   5.723   4.701 -0.0108 -1.6092  0.6239
 4626SOL     OW14267   6.780   2.310   0.394 -0.1704  0.1838 -0.2897
 4626SOL    HW114268   6.738   2.391   0.365  2.5552  1.1281 -1.9340
 4626SOL    HW214269   6.769   2.310   0.489 -1.0074  2.0180 -0.3515
 4627SOL     OW14270   2.690   2.158   6.611  0.0190 -0.2190  0.2760
 4627SOL    HW114271   2.671   2.137   6.702  0.5228  0.2881  0.5083
 4627SOL    HW214272   2.613   2.207   6.581 -0.1833 -0.4586  0.4008
 4628SOL     OW14273   1.176   0.091   1.101 -0.4456  0.4757  0.7785
 4628SOL    HW114274   1.238   0.019   1.094  0.0964  1.0638 -1.0749
 4628SOL    HW214275   1.093   0.054   1.072 -0.0284  0.7260 -0.8043
 4629SOL     OW14276   4.491   4.903   3.315  0.2787 -0.3440 -0.3477
 4629SOL    HW114277   4.582   4.871   3.315  0.9781  1.4502  1.4069
 4629SOL    HW214278   4.493   4.979   3.372 -2.1637  0.3386 -1.0843
 4630SOL     OW14279   5.363   3.181   4.769  0.1812  0.2851  0.7247
 4630SOL    HW114280   5.321   3.166   4.685  1.8619  1.2787 -0.3443
 4630SOL    HW214281   5.309   3.132   4.832 -1.6443  0.2681 -0.7625
 4631SOL     OW14282   6.754   2.886   4.231 -0.2363  0.3395 -0.0862
 4631SOL    HW114283   6.790   2.817   4.287 -0.4443  0.7375  0.5366
 4631SOL    HW214284   6.830   2.924   4.188 -0.0730  0.0676 -0.0421
 4632SOL     OW14285   3.442   5.355   5.947 -0.1492 -0.1787 -0.2107
 4632SOL    HW114286   3.432   5.277   5.893  0.2422 -0.2342 -0.2061
 4632SOL    HW214287   3.354   5.394   5.950 -0.5554 -1.1316  0.5718
 4633SOL     OW14288   2.104   0.304   5.611  0.0672  0.3863 -0.0323
 4633SOL    HW114289   2.112   0.209   5.607  0.9556  0.4942 -1.6058
 4633SOL    HW214290   2.038   0.325   5.545  1.3545  0.9783 -1.1823
 4634SOL     OW14291   4.297   6.713   6.239  0.2318 -0.3601  0.1203
 4634SOL    HW114292   4.257   6.714   6.326 -0.0851  0.5498 -0.0244
 4634SOL    HW214293   4.280   6.625   6.206  0.5612 -0.7956  1.0668
 4635SOL     OW14294   1.065   6.061   1.841 -1.0544 -0.2509 -0.1988
 4635SOL    HW114295   1.152   6.068   1.802 -0.0795 -3.1732  1.1563
 4635SOL    HW214296   1.027   5.983   1.800 -3.2614  1.1337 -1.0080
 4636SOL     OW14297   2.150   1.450   3.901  0.4289  0.2325 -0.3974
 4636SOL    HW114298   2.182   1.531   3.940  3.2208 -0.2270 -1.5357
 4636SOL    HW214299   2.215   1.384   3.924 -1.0431 -1.4088 -0.6809
 4637SOL     OW14300   6.533   1.185   5.937  0.3927  0.0976  0.4495
 4637SOL    HW114301   6.620   1.158   5.964  0.7590  0.4765 -0.3148
 4637SOL    HW214302   6.537   1.281   5.934 -0.4924  0.2104  1.8414
 4638SOL     OW14303   5.735   5.957   3.496 -0.1040  0.1587  0.0356
 4638SOL    HW114304   5.666   6.022   3.501  0.9329  1.8395 -3.9930
 4638SOL    HW214305   5.696   5.883   3.450  0.5604  0.9207 -1.8231
 4639SOL     OW14306   5.228   3.380   3.509 -0.1583 -0.3567 -0.1442
 4639SOL    HW114307   5.133   3.366   3.515  0.1371 -1.8620  2.2983
 4639SOL    HW214308   5.247   3.444   3.576  0.7504 -1.4073  0.6419
 4640SOL     OW14309   1.175   6.370   2.125  0.0748  0.0607 -0.2149
 4640SOL    HW114310   1.115   6.441   2.147  2.6735  1.6890  2.4419
 4640SOL    HW214311   1.220   6.400   2.046 -0.3408  0.3208 -0.3584
 4641SOL     OW14312   2.646   0.063   2.218 -0.1341 -0.1781  0.0785
 4641SOL    HW114313   2.623   0.119   2.144 -1.5828 -0.9706 -0.1063
 4641SOL    HW214314   2.572   0.003   2.227  0.7930 -1.2233  1.0868
 4642SOL     OW14315   5.597   1.719   6.695 -0.3500 -0.1603  0.1379
 4642SOL    HW114316   5.667   1.670   6.738 -2.9732 -2.8273  1.6972
 4642SOL    HW214317   5.561   1.775   6.764  0.9045  2.1640 -0.9675
 4643SOL     OW14318   5.790   2.232   0.306 -0.0900 -0.9464  0.1037
 4643SOL    HW114319   5.842   2.186   0.371 -1.4657 -0.2451  1.7549
 4643SOL    HW214320   5.702   2.195   0.314 -0.5057 -0.1562 -0.6606
 4644SOL     OW14321   6.229   4.118   0.349  0.1000 -0.0054 -0.0640
 4644SOL    HW114322   6.285   4.127   0.272 -0.5595  0.1338 -0.5341
 4644SOL    HW214323   6.238   4.201   0.396  0.3412 -0.0109 -0.1015
 4645SOL     OW14324   1.414   5.023   2.635 -0.0666  0.2930  0.2247
 4645SOL    HW114325   1.443   4.934   2.653  0.1113  0.4704  0.8709
 4645SOL    HW214326   1.410   5.029   2.540  0.0487 -0.3606  0.1749
 4646SOL     OW14327   2.704   1.687   2.354  0.0217 -0.4898  0.1732
 4646SOL    HW114328   2.656   1.634   2.290 -0.4737 -0.2858  0.3712
 4646SOL    HW214329   2.780   1.634   2.376  1.1722  0.2062 -1.9230
 4647SOL     OW14330   2.063   2.037   0.110 -0.2605 -0.4096  0.2701
 4647SOL    HW114331   2.080   1.947   0.138 -0.5254 -0.5065  0.1141
 4647SOL    HW214332   1.973   2.037   0.080  0.3864 -0.6331 -1.8462
 4648SOL     OW14333   5.859   4.567   0.830 -0.1388  0.3787 -0.2149
 4648SOL    HW114334   5.931   4.622   0.860  0.3175  0.7071 -1.8252
 4648SOL    HW214335   5.828   4.610   0.750 -2.7711  0.7849  0.9307
 4649SOL     OW14336   0.572   3.156   3.968  0.8105  0.1235 -0.3395
 4649SOL    HW114337   0.495   3.190   3.923  2.3662  1.0645 -2.4611
 4649SOL    HW214338   0.538   3.089   4.027 -1.6354  0.6954 -0.9932
 4650SOL     OW14339   2.892   5.348   6.102  0.4820 -0.2916  0.3255
 4650SOL    HW114340   2.971   5.371   6.151  0.5269 -1.5250  0.8647
 4650SOL    HW214341   2.918   5.355   6.010  0.4975  1.6941  0.4265
 4651SOL     OW14342   1.514   0.414   0.473 -0.6730 -0.8586 -0.0758
 4651SOL    HW114343   1.421   0.399   0.459 -0.9709 -1.4206  2.0526
 4651SOL    HW214344   1.524   0.412   0.568  1.4498 -0.3839 -0.2396
 4652SOL     OW14345   5.015   6.429   4.120 -0.1510  0.0288 -0.2608
 4652SOL    HW114346   5.067   6.459   4.046 -1.3961  1.7125 -0.5138
 4652SOL    HW214347   4.938   6.388   4.081  0.5419 -1.7390  0.1164
 4653SOL     OW14348   3.105   5.048   0.123  0.0824  0.0093  0.6132
 4653SOL    HW114349   3.054   5.113   0.075  0.2252  0.2638  0.8039
 4653SOL    HW214350   3.087   4.966   0.079 -1.8732 -0.2207  1.7052
 4654SOL     OW14351   0.150   4.799   3.621  0.3929 -0.7067 -0.3933
 4654SOL    HW114352   0.155   4.859   3.547  0.3247 -0.1149  0.0755
 4654SOL    HW214353   0.241   4.787   3.648  0.3647 -0.4004 -0.1606
 4655SOL     OW14354   5.911   4.045   4.738  0.0762  0.2057 -0.0304
 4655SOL    HW114355   5.946   4.130   4.763 -1.1341  0.3455  1.2729
 4655SOL    HW214356   5.830   4.036   4.787 -1.0065 -0.7245 -1.8735
 4656SOL     OW14357   0.953   2.396   2.289 -0.1995  0.1435  0.9771
 4656SOL    HW114358   1.004   2.467   2.251 -2.9947  0.6179 -2.3249
 4656SOL    HW214359   1.004   2.317   2.270  1.7231  0.9538  2.4774
 4657SOL     OW14360   1.631   5.668   4.135 -0.4386  0.5283 -0.0463
 4657SOL    HW114361   1.722   5.642   4.148  0.1001  3.2633  2.4487
 4657SOL    HW214362   1.580   5.595   4.169  0.7408 -0.9513 -1.2877
 4658SOL     OW14363   0.117   0.404   2.624 -0.2594 -0.2225 -0.0649
 4658SOL    HW114364   0.207   0.377   2.641  0.6065  2.1471 -0.4643
 4658SOL    HW214365   0.102   0.477   2.685 -1.3618  0.4044 -1.0410
 4659SOL     OW14366   0.928   0.526   3.072  0.3112 -0.1898 -0.0269
 4659SOL    HW114367   0.936   0.434   3.096 -0.8354 -0.3405 -0.1823
 4659SOL    HW214368   0.834   0.540   3.060  0.6044  0.5410 -1.8056
 4660SOL     OW14369   0.603   4.902   4.801 -0.9013  0.1425  0.1646
 4660SOL    HW114370   0.614   4.970   4.868  0.5677 -0.4184  0.5349
 4660SOL    HW214371   0.595   4.950   4.719 -0.6556  0.7819  0.5126
 4661SOL     OW14372   4.783   1.187   4.175 -0.1438  0.1027 -0.0921
 4661SOL    HW114373   4.851   1.133   4.135 -0.9302 -1.2166  0.2706
 4661SOL    HW214374   4.831   1.248   4.231  0.8036  0.1781 -0.9581
 4662SOL     OW14375   1.433   1.069   5.683  0.2424 -0.1341  0.0332
 4662SOL    HW114376   1.400   0.982   5.657 -0.4660 -0.0774  0.7133
 4662SOL    HW214377   1.526   1.068   5.657 -0.1472 -0.4963 -1.4215
 4663SOL     OW14378   0.273   3.056   2.099 -0.0983 -0.3551  0.4745
 4663SOL    HW114379   0.230   3.015   2.024 -0.7313  0.5080  0.3544
 4663SOL    HW214380   0.308   2.983   2.150 -1.4945 -1.0686  0.4379
 4664SOL     OW14381   6.158   2.256   3.574 -0.3988 -0.2446 -0.2718
 4664SOL    HW114382   6.145   2.339   3.528 -0.4080  0.4305  0.9302
 4664SOL    HW214383   6.137   2.190   3.508  1.2861  0.6367 -1.7954
 4665SOL     OW14384   3.736   3.774   5.781 -0.0748  0.1203 -0.2492
 4665SOL    HW114385   3.811   3.739   5.731 -2.0464  0.1121 -3.5322
 4665SOL    HW214386   3.747   3.869   5.777 -0.7061  0.1578 -1.6500
 4666SOL     OW14387   1.204   2.423   4.478  0.7749 -0.1559  0.5777
 4666SOL    HW114388   1.124   2.475   4.485  1.6632  1.8062 -2.2850
 4666SOL    HW214389   1.276   2.485   4.489  1.8730 -0.6237 -2.7188
 4667SOL     OW14390   1.999   4.047   2.335 -0.1450  0.6744  0.0205
 4667SOL    HW114391   2.091   4.027   2.350 -0.6470 -1.2468  1.0013
 4667SOL    HW214392   1.973   4.100   2.411  0.1498  1.2529 -0.2791
 4668SOL     OW14393   0.822   2.871   2.441  0.3012 -0.0847 -0.2508
 4668SOL    HW114394   0.832   2.779   2.467  0.5454  0.6050  2.3783
 4668SOL    HW214395   0.800   2.917   2.522  1.3296  2.3627 -1.2475
 4669SOL     OW14396   1.131   5.963   6.244 -0.1144 -0.4339 -0.2879
 4669SOL    HW114397   1.176   5.992   6.324 -1.9325  1.1505  0.2381
 4669SOL    HW214398   1.105   5.873   6.263  3.1126 -1.6131 -0.8062
 4670SOL     OW14399   3.704   4.135   5.074 -0.3739 -0.0260 -0.3363
 4670SOL    HW114400   3.764   4.169   5.141 -1.7802 -0.1256  1.0228
 4670SOL    HW214401   3.678   4.212   5.024 -0.2647  0.2426  0.0181
 4671SOL     OW14402   5.698   2.935   0.819  0.0413 -0.3838 -0.5864
 4671SOL    HW114403   5.748   3.014   0.794  1.0648 -0.6013  0.6691
 4671SOL    HW214404   5.732   2.912   0.905 -0.3595 -2.1268 -0.8682
 4672SOL     OW14405   0.919   6.139   6.579 -0.0797  0.2825  0.2598
 4672SOL    HW114406   0.921   6.161   6.672  0.7923 -0.7224  0.5018
 4672SOL    HW214407   0.895   6.221   6.535  1.9424  1.4516  1.1883
 4673SOL     OW14408   2.344   1.404   5.079  0.1822 -0.0190 -0.5419
 4673SOL    HW114409   2.286   1.371   5.147  2.9634 -0.8516  1.6429
 4673SOL    HW214410   2.331   1.345   5.005 -2.0638  0.1659 -0.3402
 4674SOL     OW14411   3.393   2.881   0.848 -0.5378  0.1946 -0.0476
 4674SOL    HW114412   3.386   2.882   0.944  0.0900 -1.6460  0.0574
 4674SOL    HW214413   3.463   2.819   0.830 -0.4463  0.7304 -1.7170
 4675SOL     OW14414   6.527   4.844   1.379  0.2467  0.2466  0.7236
 4675SOL    HW114415   6.512   4.928   1.336  0.0343  0.4938  1.2651
 4675SOL    HW214416   6.464   4.842   1.451  1.3736  0.3583  1.7497
 4676SOL     OW14417   3.553   6.708   6.464 -0.4207 -0.2456 -0.4250
 4676SOL    HW114418   3.562   6.628   6.516  1.1164 -0.1322 -0.4670
 4676SOL    HW214419   3.642   6.742   6.457 -1.0033  1.3285 -0.6467
 4677SOL     OW14420   1.421   6.300   0.003 -0.1717  0.1590  0.3807
 4677SOL    HW114421   1.355   6.278  -0.062  0.1103 -1.4394  0.5937
 4677SOL    HW214422   1.417   6.395   0.010 -1.6182  0.1867 -0.4656
 4678SOL     OW14423   2.697   3.359   1.574  0.4082 -0.3886 -0.6871
 4678SOL    HW114424   2.721   3.289   1.634  0.3223  0.1370 -0.0215
 4678SOL    HW214425   2.768   3.361   1.509  1.6337  0.4116  0.6145
 4679SOL     OW14426   1.388   1.289   6.624  0.2325  0.0492 -0.3520
 4679SOL    HW114427   1.345   1.291   6.710 -1.1199 -1.2055 -0.9481
 4679SOL    HW214428   1.434   1.373   6.618 -1.0020  0.8713  0.9214
 4680SOL     OW14429   1.673   2.488   5.723  0.0807  0.1695 -0.5400
 4680SOL    HW114430   1.678   2.507   5.816  0.4731 -2.0597 -0.0583
 4680SOL    HW214431   1.764   2.470   5.697 -0.2248 -0.8059 -0.9717
 4681SOL     OW14432   2.258   0.848   2.059 -0.3330 -0.2155 -0.0619
 4681SOL    HW114433   2.248   0.757   2.033 -0.8485  0.1306 -1.1453
 4681SOL    HW214434   2.172   0.873   2.093  0.1537 -0.4755  1.4379
 4682SOL     OW14435   4.217   2.160   0.751  0.6536  0.2098 -0.7030
 4682SOL    HW114436   4.180   2.072   0.762  0.0671  0.5714  0.3878
 4682SOL    HW214437   4.190   2.187   0.664  0.8693 -0.7040 -1.0656
 4683SOL     OW14438   5.718   5.805   0.111  0.5889 -0.2039  0.2960
 4683SOL    HW114439   5.699   5.731   0.169  0.7914  0.3831  1.1476
 4683SOL    HW214440   5.633   5.832   0.077  0.6384 -1.5980 -1.0326
 4684SOL     OW14441   0.595   5.756   3.421  0.5083 -0.0458 -0.2304
 4684SOL    HW114442   0.577   5.743   3.514  0.5477  2.0526  0.1090
 4684SOL    HW214443   0.660   5.689   3.400  1.9710  0.6554  1.7584
 4685SOL     OW14444   5.218   3.610   2.629  0.5081 -0.0494  0.2702
 4685SOL    HW114445   5.308   3.635   2.608  0.2777 -0.4451 -1.3644
 4685SOL    HW214446   5.223   3.515   2.644  0.1757 -0.3134 -1.1619
 4686SOL     OW14447   3.104   5.439   4.658  0.4659 -0.0275 -0.3452
 4686SOL    HW114448   3.025   5.390   4.683 -0.8987  0.8386 -2.6227
 4686SOL    HW214449   3.072   5.527   4.638  2.5620  1.3007  1.6810
 4687SOL     OW14450   6.413   4.077   2.309 -0.6704 -0.0072  0.0061
 4687SOL    HW114451   6.378   4.082   2.220 -1.2462 -1.3890  0.1244
 4687SOL    HW214452   6.503   4.047   2.298 -0.5240  0.4603 -0.1274
 4688SOL     OW14453   0.602   6.452   1.250  0.2923 -0.1068  0.2396
 4688SOL    HW114454   0.581   6.540   1.218 -1.4098 -0.6070 -0.1180
 4688SOL    HW214455   0.661   6.467   1.324  0.5115  1.2942 -0.1865
 4689SOL     OW14456   0.246   3.122   2.784  0.0211 -0.3706 -0.1705
 4689SOL    HW114457   0.235   3.139   2.691 -0.8298 -1.2961 -0.2609
 4689SOL    HW214458   0.161   3.142   2.822  0.3448 -0.0617  0.4061
 4690SOL     OW14459   5.809   0.022   1.661 -0.5218 -0.0929 -0.2272
 4690SOL    HW114460   5.905   0.022   1.656 -0.5380 -1.1519 -0.9192
 4690SOL    HW214461   5.790   0.050   1.751  0.4562 -0.5069  0.1268
 4691SOL     OW14462   1.981   1.806   5.703 -0.2082  0.1097 -0.1070
 4691SOL    HW114463   1.939   1.750   5.637 -0.3903 -1.5978  1.3957
 4691SOL    HW214464   2.027   1.746   5.761  2.6670  1.7669 -0.4540
 4692SOL     OW14465   1.278   2.221   4.095 -0.1998  0.4975  0.4377
 4692SOL    HW114466   1.346   2.174   4.046  0.7584  0.6015  1.6315
 4692SOL    HW214467   1.260   2.165   4.170 -1.1708  0.6669  0.3456
 4693SOL     OW14468   2.832   0.793   2.078 -0.2375 -0.0442 -0.1692
 4693SOL    HW114469   2.813   0.790   2.172 -0.0717 -0.4443 -0.1453
 4693SOL    HW214470   2.851   0.885   2.060 -0.9899  0.1598  0.0445
 4694SOL     OW14471   5.776   2.386   4.841  0.3025 -0.6818  0.6115
 4694SOL    HW114472   5.861   2.398   4.800 -0.7838 -1.2572 -2.0364
 4694SOL    HW214473   5.724   2.462   4.812 -0.3425 -0.7714  1.4844
 4695SOL     OW14474   5.117   2.945   3.268 -0.1481 -0.2949  0.0609
 4695SOL    HW114475   5.095   3.035   3.290  0.9306  0.0888 -0.3874
 4695SOL    HW214476   5.049   2.919   3.205 -1.1300 -0.2006  1.0561
 4696SOL     OW14477   2.332   4.169   1.757 -0.3255  0.1424 -0.3451
 4696SOL    HW114478   2.274   4.103   1.794  0.2138 -0.3407 -0.3487
 4696SOL    HW214479   2.274   4.242   1.735 -0.8313 -0.0618  0.2714
 4697SOL     OW14480   0.849   6.417   1.957 -0.2195 -0.6040 -0.3745
 4697SOL    HW114481   0.757   6.437   1.976 -0.4582 -1.7886 -0.2420
 4697SOL    HW214482   0.897   6.451   2.033 -0.3834  1.1267 -0.9931
 4698SOL     OW14483   3.745   6.159   5.150 -0.0993 -0.3034  0.2780
 4698SOL    HW114484   3.787   6.131   5.231 -0.3898  1.6165  1.1368
 4698SOL    HW214485   3.785   6.243   5.130 -1.6383  0.3358 -0.3071
 4699SOL     OW14486   2.299   0.724   2.658  0.6259  0.6382  0.2611
 4699SOL    HW114487   2.343   0.648   2.695 -1.7799 -0.0842  1.8843
 4699SOL    HW214488   2.354   0.751   2.585  2.4183 -1.6278  0.6744
 4700SOL     OW14489   5.180   4.347   3.345  0.3281  0.2763 -0.2241
 4700SOL    HW114490   5.272   4.370   3.353 -0.0264  2.1309 -0.7575
 4700SOL    HW214491   5.168   4.328   3.252 -0.0963  1.6009 -0.4717
 4701SOL     OW14492   4.826   6.092   5.485 -1.2380 -0.3254 -0.0707
 4701SOL    HW114493   4.782   6.060   5.564 -0.3482 -2.1387 -0.2735
 4701SOL    HW214494   4.909   6.128   5.516 -0.1811 -2.4584 -0.2870
 4702SOL     OW14495   3.344   4.136   6.375  0.6095 -0.7365 -0.0667
 4702SOL    HW114496   3.327   4.100   6.462 -0.9932 -0.2141 -0.1223
 4702SOL    HW214497   3.415   4.083   6.339  0.8345 -1.3784  1.3013
 4703SOL     OW14498   1.113   5.351   6.102 -0.7692 -0.2858  0.6121
 4703SOL    HW114499   1.114   5.264   6.141 -0.8096 -0.0656  1.1168
 4703SOL    HW214500   1.053   5.343   6.028 -0.5483 -0.7584  0.4813
 4704SOL     OW14501   5.591   3.712   0.761 -0.0520  0.0088  0.3123
 4704SOL    HW114502   5.532   3.756   0.823  1.1038  1.5436  0.3766
 4704SOL    HW214503   5.632   3.642   0.813 -0.8252 -0.2429  0.6087
 4705SOL     OW14504   1.943   0.509   3.183 -0.3477 -0.1311 -0.0405
 4705SOL    HW114505   1.878   0.580   3.179  1.6636  1.9625  1.5422
 4705SOL    HW214506   2.009   0.534   3.118  0.4286 -0.5179  0.5911
 4706SOL     OW14507   1.240   1.442   0.710  0.3244  0.9034  0.4457
 4706SOL    HW114508   1.209   1.510   0.770  1.8650  2.1175 -0.0559
 4706SOL    HW214509   1.286   1.491   0.641  0.4674 -0.5925 -0.5634
 4707SOL     OW14510   5.097   1.399   6.393  0.3943 -0.4792  0.6302
 4707SOL    HW114511   5.028   1.433   6.450 -1.8792  0.4141 -2.3953
 4707SOL    HW214512   5.157   1.473   6.383 -1.1984  0.7095 -0.9475
 4708SOL     OW14513   5.967   5.163   4.378 -0.3643 -0.0667  0.3074
 4708SOL    HW114514   5.952   5.069   4.371 -2.6412  0.3462 -2.3499
 4708SOL    HW214515   5.894   5.202   4.330  1.2085  3.0224  0.1734
 4709SOL     OW14516   5.514   3.227   2.547  0.2309 -0.4880  0.2258
 4709SOL    HW114517   5.440   3.267   2.503 -0.2006 -1.9244 -0.4302
 4709SOL    HW214518   5.580   3.296   2.553 -1.4088  1.0565  1.5357
 4710SOL     OW14519   5.448   3.842   0.946  0.1384 -0.0860  0.4630
 4710SOL    HW114520   5.372   3.843   0.887  0.7274  1.8161 -0.3404
 4710SOL    HW214521   5.410   3.843   1.034 -0.7497 -0.6216  0.1079
 4711SOL     OW14522   0.138   6.224   2.726  0.1722  0.9556 -0.1168
 4711SOL    HW114523   0.078   6.182   2.665  0.7324  0.8823 -0.6267
 4711SOL    HW214524   0.210   6.254   2.672 -1.1814  4.5778 -0.1361
 4712SOL     OW14525   3.702   1.690   4.513  0.4073 -0.3850 -0.4433
 4712SOL    HW114526   3.614   1.722   4.492 -0.1035 -0.4712  1.4269
 4712SOL    HW214527   3.714   1.713   4.605  3.0211  1.1246 -1.0753
 4713SOL     OW14528   4.814   2.261   0.904 -0.7126 -0.1340  0.0253
 4713SOL    HW114529   4.822   2.347   0.944  3.0073 -0.9714  1.4614
 4713SOL    HW214530   4.832   2.276   0.811 -0.0288  0.6571  0.2735
 4714SOL     OW14531   6.290   3.920   4.178 -0.4849  0.0505  0.2074
 4714SOL    HW114532   6.326   3.855   4.238  0.2330 -0.1430 -0.4232
 4714SOL    HW214533   6.264   3.869   4.100 -0.7528  0.3944  0.0662
 4715SOL     OW14534   0.159   5.947   6.621  0.3082 -0.0320 -0.2157
 4715SOL    HW114535   0.232   5.886   6.626 -0.7003 -1.2139  0.7597
 4715SOL    HW214536   0.170   6.004   6.698  0.5773  0.2219 -0.4438
 4716SOL     OW14537   4.134   3.481   1.075 -0.5027 -0.3507  0.0453
 4716SOL    HW114538   4.129   3.393   1.039 -0.8909 -0.5495  0.5750
 4716SOL    HW214539   4.209   3.521   1.031  0.0123 -1.1334  0.1991
 4717SOL     OW14540   0.885   2.055   0.604 -0.1616  0.2071 -0.0900
 4717SOL    HW114541   0.972   2.092   0.595  0.6743 -1.7163 -0.3936
 4717SOL    HW214542   0.877   1.994   0.531 -1.3215 -0.4852  0.5836
 4718SOL     OW14543   6.319   1.669   0.067 -0.3949  0.7029  0.0034
 4718SOL    HW114544   6.386   1.616   0.023 -0.3372  1.4052 -0.7972
 4718SOL    HW214545   6.337   1.659   0.160 -0.0502 -0.2384 -0.1553
 4719SOL     OW14546   0.027   3.842   6.432  0.0092 -0.3880 -0.7883
 4719SOL    HW114547  -0.017   3.818   6.350 -4.6143 -2.0976  1.8112
 4719SOL    HW214548   0.025   3.938   6.433 -0.7757 -0.3549 -2.2047
 4720SOL     OW14549   4.507   0.049   6.124  0.6041  0.5146 -0.2027
 4720SOL    HW114550   4.421   0.011   6.140  0.3924  1.9334  2.4954
 4720SOL    HW214551   4.492   0.113   6.054 -0.2091 -0.2368 -0.7408
 4721SOL     OW14552   4.407   0.881   4.140 -0.1826 -0.3433 -0.1848
 4721SOL    HW114553   4.355   0.906   4.064 -0.8727  0.9080  0.6687
 4721SOL    HW214554   4.343   0.852   4.205  0.3632 -0.9491  0.0986
 4722SOL     OW14555   5.014   0.872   4.101  0.1402 -0.0432  0.1110
 4722SOL    HW114556   5.034   0.784   4.068 -1.4502  0.4704 -2.5232
 4722SOL    HW214557   5.086   0.927   4.072  0.0267 -0.0681 -0.2157
 4723SOL     OW14558   6.675   5.526   3.312 -0.3771 -0.0826  0.2784
 4723SOL    HW114559   6.764   5.547   3.340  0.0020 -0.5348 -0.5517
 4723SOL    HW214560   6.665   5.571   3.228 -0.4540 -1.0966 -0.2742
 4724SOL     OW14561   4.267   5.745   4.660  0.1256 -0.0859 -0.2072
 4724SOL    HW114562   4.227   5.831   4.672 -0.8813 -0.8895  3.2829
 4724SOL    HW214563   4.358   5.756   4.689 -0.2549 -0.3433  1.1526
 4725SOL     OW14564   5.068   5.464   3.486  0.2691  0.6091 -0.2685
 4725SOL    HW114565   5.013   5.527   3.439  0.4159 -0.5373 -2.0597
 4725SOL    HW214566   5.154   5.471   3.445  1.4621  2.0874  2.2388
 4726SOL     OW14567   1.905   1.640   4.174  0.2589 -0.2752  0.3728
 4726SOL    HW114568   1.902   1.686   4.091 -1.5045  0.7383  0.9399
 4726SOL    HW214569   1.843   1.687   4.230  1.7628 -0.5943  2.4458
 4727SOL     OW14570   1.173   6.066   2.512  0.2705 -0.2100  0.2328
 4727SOL    HW114571   1.236   6.131   2.480 -0.2168 -0.3994 -1.1889
 4727SOL    HW214572   1.162   6.006   2.439 -0.6867 -0.8468  0.8818
 4728SOL     OW14573   1.991   6.397   3.484  0.1534  0.9127 -0.7154
 4728SOL    HW114574   1.943   6.366   3.407  0.0900  1.7303 -1.0121
 4728SOL    HW214575   2.082   6.406   3.454  0.4611 -0.3554 -0.2326
 4729SOL     OW14576   1.626   5.729   1.213 -0.1775  0.2494  0.3024
 4729SOL    HW114577   1.668   5.785   1.147  0.3520 -2.4056 -1.7766
 4729SOL    HW214578   1.680   5.741   1.292  0.8228  1.4748 -0.5271
 4730SOL     OW14579   6.725   1.324   0.644  0.0389 -0.2194 -0.2516
 4730SOL    HW114580   6.657   1.333   0.578  0.4499  1.1280 -0.5094
 4730SOL    HW214581   6.677   1.316   0.727 -0.4435 -0.4793 -0.5516
 4731SOL     OW14582   0.634   4.455   4.829  0.4591 -0.0236  0.1668
 4731SOL    HW114583   0.598   4.377   4.786  1.0768 -0.0832 -0.2553
 4731SOL    HW214584   0.728   4.444   4.824  0.5464  0.4199  0.7352
 4732SOL     OW14585   0.014   6.653   6.808  0.8280  0.3412  0.0464
 4732SOL    HW114586   0.008   6.678   6.901 -1.2780 -2.0651  0.6777
 4732SOL    HW214587   0.085   6.589   6.806 -1.2435 -2.1267  0.7633
 4733SOL     OW14588   2.692   1.551   3.667 -0.2004  0.2773 -0.2837
 4733SOL    HW114589   2.708   1.466   3.708  2.2918  0.4202 -0.8173
 4733SOL    HW214590   2.755   1.610   3.710  0.6952  0.9964 -2.4477
 4734SOL     OW14591   2.506   3.922   4.615 -0.6452  0.1658  0.2902
 4734SOL    HW114592   2.580   3.982   4.627 -0.2888 -0.6083  2.4677
 4734SOL    HW214593   2.434   3.964   4.662 -0.8854 -0.2577  0.3022
 4735SOL     OW14594   5.794   4.079   5.779  0.1582  0.3898  0.3627
 4735SOL    HW114595   5.718   4.028   5.753  0.1646  0.5726 -0.0269
 4735SOL    HW214596   5.789   4.084   5.874  2.1190 -3.4814  0.8853
 4736SOL     OW14597   1.784   4.138   1.148 -0.0667 -0.6080  0.3902
 4736SOL    HW114598   1.707   4.190   1.172  0.3852 -0.2220  1.0413
 4736SOL    HW214599   1.749   4.060   1.106 -0.7653  0.2430 -0.6446
 4737SOL     OW14600   1.702   1.145   0.986 -0.9235 -0.1410  0.5444
 4737SOL    HW114601   1.758   1.184   1.054 -0.3384 -0.8670  0.4974
 4737SOL    HW214602   1.671   1.219   0.935  1.5292  0.2005 -0.6044
 4738SOL     OW14603   6.328   3.297   0.988 -0.0109  0.4614 -0.3540
 4738SOL    HW114604   6.327   3.372   0.928  2.7094 -0.3008 -1.4717
 4738SOL    HW214605   6.362   3.334   1.070 -0.2532  0.7709 -0.3884
 4739SOL     OW14606   1.902   0.832   0.342  0.2021 -0.4479  0.4237
 4739SOL    HW114607   1.915   0.742   0.314  1.6612 -0.6835  1.7358
 4739SOL    HW214608   1.807   0.840   0.354  0.1519 -2.1359  1.3776
 4740SOL     OW14609   1.594   6.304   2.291 -0.0823  0.0130  0.0791
 4740SOL    HW114610   1.508   6.321   2.329 -0.7657 -2.4206 -0.2121
 4740SOL    HW214611   1.580   6.233   2.229  1.0967  3.2968 -4.4798
 4741SOL     OW14612   3.122   3.884   2.584  0.1842 -0.1296 -0.8975
 4741SOL    HW114613   3.202   3.895   2.531 -0.6247  0.0463 -2.1243
 4741SOL    HW214614   3.148   3.824   2.654  1.6780  0.7604 -0.6406
 4742SOL     OW14615   4.658   0.174   1.995 -0.0477 -0.0987 -1.0369
 4742SOL    HW114616   4.647   0.083   2.022 -0.0752 -0.1498 -1.2185
 4742SOL    HW214617   4.677   0.169   1.902  1.6987 -0.0320 -0.7163
 4743SOL     OW14618   5.598   3.038   0.022 -0.0453 -0.7104 -0.2117
 4743SOL    HW114619   5.550   3.010  -0.056  0.7864 -1.9086 -0.3368
 4743SOL    HW214620   5.688   3.009   0.006  0.3435 -0.1165  0.7782
 4744SOL     OW14621   3.818   3.842   3.470 -0.2524 -0.1063 -0.7109
 4744SOL    HW114622   3.864   3.903   3.412  2.5230 -0.6322  0.7173
 4744SOL    HW214623   3.889   3.793   3.513 -2.0924 -0.1466  2.6425
 4745SOL     OW14624   1.920   3.813   0.235  0.4532 -0.0362  0.6848
 4745SOL    HW114625   1.870   3.882   0.191 -0.1588 -1.2076 -0.5619
 4745SOL    HW214626   2.009   3.822   0.201 -0.3821 -2.0900 -2.4797
 4746SOL     OW14627   2.143   2.725   1.073 -0.3929 -0.3796 -0.3729
 4746SOL    HW114628   2.127   2.816   1.100  0.5508  0.6935 -3.1100
 4746SOL    HW214629   2.238   2.715   1.073 -0.4917 -1.5076  0.2371
 4747SOL     OW14630   1.019   2.333   6.550 -0.0027  0.5868 -0.1967
 4747SOL    HW114631   1.073   2.328   6.471 -1.4154  1.6528 -1.2798
 4747SOL    HW214632   0.949   2.269   6.535  0.5469 -0.3333  0.9209
 4748SOL     OW14633   5.998   6.050   6.120  0.1291 -0.0844  0.3421
 4748SOL    HW114634   6.071   6.017   6.173 -0.8968 -0.9065  1.3027
 4748SOL    HW214635   5.958   6.119   6.174  0.2264  0.4194 -0.2124
 4749SOL     OW14636   1.495   6.637   2.676 -0.1554 -0.1139 -0.2549
 4749SOL    HW114637   1.522   6.674   2.760  0.4708 -0.0882 -0.4671
 4749SOL    HW214638   1.408   6.601   2.693 -0.7699  1.3963 -0.0225
 4750SOL     OW14639   0.969   5.755   6.252  0.5097  0.2795 -0.0961
 4750SOL    HW114640   0.911   5.806   6.309 -0.0916  1.4370 -1.6918
 4750SOL    HW214641   0.928   5.668   6.248 -1.0036  0.9909 -0.9520
 4751SOL     OW14642   4.500   3.345   3.521 -0.1554  0.3040 -0.3654
 4751SOL    HW114643   4.440   3.273   3.541  0.1367  0.1735  0.0560
 4751SOL    HW214644   4.447   3.409   3.473 -0.5603  0.0720 -0.2254
 4752SOL     OW14645   3.303   4.687   1.293 -0.1041 -0.3183 -0.0679
 4752SOL    HW114646   3.369   4.656   1.231 -1.5315  0.3154 -2.0008
 4752SOL    HW214647   3.247   4.746   1.241 -1.1302  0.5630  1.9341
 4753SOL     OW14648   1.563   6.080   0.090  0.7085  0.0167  0.1612
 4753SOL    HW114649   1.605   6.078   0.004  0.1908  0.1238 -0.1011
 4753SOL    HW214650   1.492   6.144   0.079 -0.6182 -1.4247  0.0767
 4754SOL     OW14651   6.086   5.795   0.635 -0.2289 -0.0054  0.5833
 4754SOL    HW114652   6.100   5.842   0.553 -0.8449 -2.6640 -1.1723
 4754SOL    HW214653   6.171   5.757   0.657 -0.2365  0.0851  0.7781
 4755SOL     OW14654   0.105   1.312   1.628  0.1574  0.6700  0.1015
 4755SOL    HW114655   0.096   1.387   1.570  0.1366  0.4701 -0.1538
 4755SOL    HW214656   0.096   1.349   1.716 -0.3998  0.8856 -0.0410
 4756SOL     OW14657   5.767   0.330   5.156 -0.1533 -0.0019  0.6872
 4756SOL    HW114658   5.819   0.348   5.078  1.5486  1.5704  2.0924
 4756SOL    HW214659   5.678   0.354   5.131 -0.0992 -1.8076 -1.4742
 4757SOL     OW14660   1.851   3.715   2.881  0.0170  0.5019  0.3078
 4757SOL    HW114661   1.944   3.720   2.899 -0.1944 -0.1608  1.7365
 4757SOL    HW214662   1.809   3.729   2.967 -1.1568 -0.0323 -0.1514
 4758SOL     OW14663   6.262   2.989   0.224  0.2556  0.3822 -0.6158
 4758SOL    HW114664   6.285   3.074   0.262  0.2978  0.1778 -0.1744
 4758SOL    HW214665   6.339   2.963   0.174 -0.2521  1.2286 -1.8944
 4759SOL     OW14666   3.000   1.758   6.789  0.0744 -0.1742  0.3364
 4759SOL    HW114667   2.992   1.794   6.701 -1.6406 -0.3695  0.3638
 4759SOL    HW214668   3.062   1.686   6.781 -0.3464 -0.4341 -0.8077
 4760SOL     OW14669   0.621   6.658   2.830 -0.1731 -0.3040  0.5038
 4760SOL    HW114670   0.653   6.737   2.872  3.9681 -1.5152  0.0250
 4760SOL    HW214671   0.650   6.587   2.887  0.6597 -1.6769 -1.5021
 4761SOL     OW14672   0.456   1.707   0.247 -0.3525 -0.6957 -0.1631
 4761SOL    HW114673   0.467   1.787   0.299 -0.2379  0.4490 -1.8704
 4761SOL    HW214674   0.380   1.664   0.287  0.5014 -0.5412  1.7382
 4762SOL     OW14675   2.079   3.687   6.778  0.1318 -0.0445 -0.2984
 4762SOL    HW114676   2.041   3.714   6.694 -2.9503  0.6363  1.1732
 4762SOL    HW214677   2.005   3.652   6.827  2.5550 -4.6355  0.6515
 4763SOL     OW14678   5.193   4.742   3.261 -0.1866 -0.1613  0.9896
 4763SOL    HW114679   5.112   4.690   3.263 -0.1286 -0.3385 -0.5607
 4763SOL    HW214680   5.198   4.776   3.172  0.5118  1.3694  1.5739
 4764SOL     OW14681   0.071   0.722   3.018 -0.0152 -0.2241  0.1185
 4764SOL    HW114682   0.040   0.798   3.068 -1.1767 -1.5598  1.5505
 4764SOL    HW214683   0.151   0.696   3.062  1.1143  0.8833 -1.1761
 4765SOL     OW14684   1.097   6.809   1.348 -0.7760 -0.5417  0.5830
 4765SOL    HW114685   1.138   6.878   1.296 -0.1279 -1.5668 -0.3252
 4765SOL    HW214686   1.030   6.772   1.292 -1.9237  0.0914  1.4953
 4766SOL     OW14687   3.432   2.142   1.743  0.1026  0.3470 -0.0626
 4766SOL    HW114688   3.468   2.113   1.826  2.0197 -0.2609 -1.0396
 4766SOL    HW214689   3.474   2.086   1.677 -2.6275 -0.3949 -1.3703
 4767SOL     OW14690   0.694   1.692   2.159  0.8004  0.2000  0.1145
 4767SOL    HW114691   0.663   1.603   2.141 -1.0559  0.7125  0.6402
 4767SOL    HW214692   0.691   1.700   2.254 -0.4444  1.2972 -0.0073
 4768SOL     OW14693   6.444   2.580   2.869 -0.6949 -0.1406 -0.3965
 4768SOL    HW114694   6.424   2.583   2.963  1.1316 -2.4246  0.1753
 4768SOL    HW214695   6.426   2.489   2.845 -0.1699  0.1674 -2.0241
 4769SOL     OW14696   4.208   0.744   0.995  0.1329  0.1892  0.0239
 4769SOL    HW114697   4.136   0.782   0.946 -0.8085  1.5964  2.3315
 4769SOL    HW214698   4.173   0.663   1.032  1.0975 -1.3237 -2.1309
 4770SOL     OW14699   2.905   1.992   3.530  0.8525  0.4063  0.1524
 4770SOL    HW114700   3.000   2.007   3.539  1.0734 -0.5411 -0.4194
 4770SOL    HW214701   2.899   1.913   3.475 -0.2717  0.4460  0.2071
 4771SOL     OW14702   5.020   5.990   3.337  0.0284 -0.3842 -0.1511
 4771SOL    HW114703   5.088   5.946   3.286 -1.1434 -1.6749 -0.6695
 4771SOL    HW214704   5.058   6.000   3.425  1.2262 -0.2050 -0.6778
 4772SOL     OW14705   6.337   0.134   1.564  0.6693  0.2343  0.3638
 4772SOL    HW114706   6.287   0.085   1.499  0.0279  0.0723  0.9585
 4772SOL    HW214707   6.384   0.201   1.514  1.1074 -0.6221 -0.3899
 4773SOL     OW14708   5.576   3.899   5.695  0.1891  0.2215  0.1039
 4773SOL    HW114709   5.502   3.918   5.754 -0.1711 -1.1991  0.1412
 4773SOL    HW214710   5.536   3.891   5.608 -0.1480 -2.8313  0.4252
 4774SOL     OW14711   2.458   4.788   4.747 -0.5376  0.1620 -0.5561
 4774SOL    HW114712   2.465   4.840   4.827  1.5465  0.1937 -0.7221
 4774SOL    HW214713   2.509   4.709   4.765 -1.6443 -0.7394 -1.2007
 4775SOL     OW14714   2.785   4.903   3.029 -0.4486 -0.1869  0.1742
 4775SOL    HW114715   2.798   4.897   2.934 -1.0441  0.7055  0.0308
 4775SOL    HW214716   2.854   4.961   3.059 -0.9230  0.4072  0.1297
 4776SOL     OW14717   2.040   1.569   2.385 -0.1252  0.0607 -0.3588
 4776SOL    HW114718   1.983   1.516   2.440  1.4701 -0.0815  1.2352
 4776SOL    HW214719   1.983   1.639   2.352 -0.9239  0.7970  2.3726
 4777SOL     OW14720   3.493   6.282   2.548  0.3007  0.5451  0.2213
 4777SOL    HW114721   3.518   6.345   2.481 -0.7392 -0.2146 -0.9317
 4777SOL    HW214722   3.432   6.329   2.605 -0.1121  0.7352 -0.3648
 4778SOL     OW14723   2.666   5.206   6.533  0.2083  0.2753 -0.7772
 4778SOL    HW114724   2.759   5.194   6.511  0.8545  0.1777  1.7056
 4778SOL    HW214725   2.652   5.149   6.608 -1.3362  1.8370  0.1894
 4779SOL     OW14726   6.363   4.777   3.084  0.6136  0.5269  0.4401
 4779SOL    HW114727   6.376   4.719   3.159 -0.6067  0.1831  0.4125
 4779SOL    HW214728   6.296   4.838   3.113 -1.0239 -0.5742 -0.8510
 4780SOL     OW14729   2.723   1.767   2.634  0.4180 -0.1828  0.0165
 4780SOL    HW114730   2.700   1.740   2.545  0.7806  2.8494 -1.1363
 4780SOL    HW214731   2.816   1.747   2.642  0.8040  1.0548 -0.9977
 4781SOL     OW14732   2.631   2.520   6.563  0.0024 -0.2419 -0.3431
 4781SOL    HW114733   2.662   2.502   6.474  1.1701 -0.6079  0.1178
 4781SOL    HW214734   2.620   2.434   6.603 -0.7550 -0.0870 -0.2018
 4782SOL     OW14735   2.153   2.886   4.954  0.1447 -0.3183 -0.6838
 4782SOL    HW114736   2.077   2.943   4.964 -0.6259 -1.3420 -0.4996
 4782SOL    HW214737   2.134   2.811   5.012  1.1001 -0.7812 -0.9485
 4783SOL     OW14738   0.557   5.482   4.361 -0.3757 -0.0890 -0.4184
 4783SOL    HW114739   0.572   5.398   4.318  0.7241  0.7111 -1.6662
 4783SOL    HW214740   0.578   5.466   4.453  0.0909 -1.1206 -0.6937
 4784SOL     OW14741   1.257   2.091   3.027  0.2836  0.0204  0.3136
 4784SOL    HW114742   1.200   2.052   3.092 -0.8694  0.6424 -0.3007
 4784SOL    HW214743   1.324   2.137   3.078 -0.3430  0.1339  1.0431
 4785SOL     OW14744   3.991   1.595   1.299 -0.3278  0.2067  0.0241
 4785SOL    HW114745   4.027   1.666   1.245 -0.0346 -0.0369 -0.1072
 4785SOL    HW214746   4.018   1.515   1.253  2.0865 -0.1057  1.8082
 4786SOL     OW14747   0.816   1.748   0.945  0.3378 -0.6602 -0.3559
 4786SOL    HW114748   0.851   1.836   0.932 -1.3678  0.3272  1.1823
 4786SOL    HW214749   0.721   1.758   0.935  0.0567 -2.2195  0.3907
 4787SOL     OW14750   5.864   2.782   4.029  0.1568  0.7903 -0.1683
 4787SOL    HW114751   5.848   2.873   4.054  1.1587  0.5394  1.5588
 4787SOL    HW214752   5.828   2.730   4.101 -2.0583 -0.3507 -1.9423
 4788SOL     OW14753   2.442   5.083   1.756  0.3669 -0.3061  0.2877
 4788SOL    HW114754   2.347   5.090   1.766 -0.0412 -1.8333 -1.8655
 4788SOL    HW214755   2.475   5.077   1.845 -1.6838 -0.8519  1.0670
 4789SOL     OW14756   2.989   0.282   0.343  0.2707  0.3059 -0.2450
 4789SOL    HW114757   2.974   0.348   0.410 -0.3735  1.1359 -1.1809
 4789SOL    HW214758   2.992   0.331   0.261 -0.4727 -0.8375 -0.9873
 4790SOL     OW14759   2.306   3.381   6.053 -0.0413 -0.0714  0.1974
 4790SOL    HW114760   2.217   3.404   6.028 -0.4788 -0.1295  1.6160
 4790SOL    HW214761   2.345   3.464   6.081  0.0687 -0.1904  0.3992
 4791SOL     OW14762   2.878   5.731   6.670 -0.0053  0.7558 -0.4201
 4791SOL    HW114763   2.946   5.688   6.619 -0.2735 -0.2915  0.0794
 4791SOL    HW214764   2.797   5.715   6.621 -0.0236  1.2158 -0.5443
 4792SOL     OW14765   4.112   6.310   5.382  0.0575 -0.3517 -0.3191
 4792SOL    HW114766   4.088   6.227   5.341 -0.6686  0.0518 -0.7208
 4792SOL    HW214767   4.063   6.376   5.334 -0.0009  0.2377  0.5305
 4793SOL     OW14768   5.011   2.575   6.106 -0.5151  0.2101  0.5246
 4793SOL    HW114769   4.975   2.493   6.074  0.1781  1.1953 -3.2381
 4793SOL    HW214770   4.945   2.641   6.085  0.7490  1.1690 -0.5989
 4794SOL     OW14771   6.639   3.962   6.775 -0.3147  0.1792  0.6330
 4794SOL    HW114772   6.682   4.026   6.717  0.9492 -0.4427  0.8568
 4794SOL    HW214773   6.707   3.898   6.795 -0.8796  0.0785  2.3845
 4795SOL     OW14774   3.361   1.200   0.022 -0.7116 -0.2100 -0.7011
 4795SOL    HW114775   3.416   1.136  -0.024 -0.6717 -1.9647  1.6121
 4795SOL    HW214776   3.421   1.269   0.048 -0.0224 -0.9917 -0.1628
 4796SOL     OW14777   4.221   2.056   0.403  0.4377  0.1029 -0.3565
 4796SOL    HW114778   4.164   1.989   0.439 -0.5304  1.2765  0.3748
 4796SOL    HW214779   4.249   2.021   0.318 -0.3330 -1.0432 -0.1553
 4797SOL     OW14780   2.468   6.779   3.428 -0.2535  0.1064 -0.2486
 4797SOL    HW114781   2.431   6.777   3.340 -0.2213 -0.4607 -0.2558
 4797SOL    HW214782   2.402   6.738   3.483  0.3716 -0.9925 -0.2748
 4798SOL     OW14783   6.723   3.230   2.002  0.9357  0.0295 -0.3704
 4798SOL    HW114784   6.711   3.227   1.907  1.4409 -1.1567 -0.4131
 4798SOL    HW214785   6.756   3.143   2.025 -0.8071 -0.3091  1.1258
 4799SOL     OW14786   4.521   3.090   2.931  0.8922  0.0332  0.2679
 4799SOL    HW114787   4.478   3.147   2.995  1.3169 -1.0172  1.5394
 4799SOL    HW214788   4.588   3.146   2.891  1.0460  0.5599  1.2163
 4800SOL     OW14789   3.543   2.433   6.658  0.5474  0.3002 -0.1250
 4800SOL    HW114790   3.504   2.382   6.730 -0.4406  0.8777 -0.2337
 4800SOL    HW214791   3.611   2.485   6.700  0.3919  0.1766  0.2890
 4801SOL     OW14792   3.984   6.528   6.027 -0.6455  0.2260  0.6520
 4801SOL    HW114793   3.913   6.591   6.013  0.2758  1.1710  0.1369
 4801SOL    HW214794   4.028   6.560   6.106  1.4588  1.8467 -1.0544
 4802SOL     OW14795   2.457   2.217   6.394 -0.0176 -0.3388  0.1521
 4802SOL    HW114796   2.372   2.258   6.383 -0.6616 -0.9074  2.4340
 4802SOL    HW214797   2.438   2.134   6.438  1.5275 -1.6345 -1.4864
 4803SOL     OW14798   1.526   1.062   2.357  0.3842  0.5367 -0.4540
 4803SOL    HW114799   1.521   1.154   2.330  1.7615  0.2428 -1.8979
 4803SOL    HW214800   1.539   1.065   2.452 -1.6563  1.7426 -0.1702
 4804SOL     OW14801   1.084   6.508   4.547 -0.1910 -0.5602 -0.1264
 4804SOL    HW114802   1.046   6.544   4.467  1.5068 -0.4702 -0.9393
 4804SOL    HW214803   1.177   6.502   4.528  0.1895 -0.9591  1.7060
 4805SOL     OW14804   1.805   4.439   4.153  0.2124  0.2543  0.0436
 4805SOL    HW114805   1.772   4.503   4.090 -0.1312 -1.8379 -2.0693
 4805SOL    HW214806   1.732   4.424   4.213 -0.1498  0.9051 -0.2334
 4806SOL     OW14807   3.514   4.250   2.403 -1.0738 -0.4330  0.2972
 4806SOL    HW114808   3.486   4.165   2.438  0.1743 -0.6037  0.9632
 4806SOL    HW214809   3.555   4.294   2.477 -3.5238  1.6678  0.5257
 4807SOL     OW14810   6.423   3.415   2.221 -0.0651  0.2238 -1.0735
 4807SOL    HW114811   6.491   3.466   2.266 -0.9266  0.3300  0.1327
 4807SOL    HW214812   6.435   3.437   2.129  1.6291  0.1329 -0.9118
 4808SOL     OW14813   5.518   0.256   2.821  1.0005 -0.0308 -0.5002
 4808SOL    HW114814   5.485   0.185   2.764 -0.3009 -0.8936  1.2298
 4808SOL    HW214815   5.562   0.210   2.892 -1.6632  0.6819  1.7761
 4809SOL     OW14816   2.657   1.072   3.040  0.2783 -0.3735  0.1717
 4809SOL    HW114817   2.679   0.993   3.089  1.2717  0.4415  1.0918
 4809SOL    HW214818   2.620   1.131   3.105 -1.0730 -0.2955 -0.6366
 4810SOL     OW14819   6.610   4.302   3.511 -0.2403 -0.6786 -0.4403
 4810SOL    HW114820   6.527   4.347   3.527 -1.2653 -2.6061 -0.1388
 4810SOL    HW214821   6.590   4.209   3.520  2.4466 -1.1728  2.1073
 4811SOL     OW14822   0.129   4.509   6.228 -0.6161 -0.8551 -0.0053
 4811SOL    HW114823   0.150   4.515   6.321  2.8532  0.9313 -0.7433
 4811SOL    HW214824   0.041   4.547   6.221  0.5278  2.7275  2.2251
 4812SOL     OW14825   5.873   5.610   4.839  0.3199  0.3326 -0.4590
 4812SOL    HW114826   5.781   5.601   4.813  0.6828  0.3239 -1.8147
 4812SOL    HW214827   5.908   5.521   4.831  0.6614  0.5013 -0.8568
 4813SOL     OW14828   6.248   1.920   4.751 -0.0486 -0.1740 -0.4070
 4813SOL    HW114829   6.204   1.980   4.691  0.5126 -1.9646 -2.7740
 4813SOL    HW214830   6.212   1.834   4.728  1.5604 -1.1355  0.5557
 4814SOL     OW14831   5.449   1.048   0.286 -0.1889  0.4669  0.3824
 4814SOL    HW114832   5.435   1.010   0.372 -1.7768  2.0786  0.9032
 4814SOL    HW214833   5.392   1.125   0.284  2.4965  2.6042 -0.7379
 4815SOL     OW14834   1.922   4.720   2.647  0.1629 -0.3361  0.1287
 4815SOL    HW114835   1.963   4.806   2.641 -2.9619  1.5358  2.5012
 4815SOL    HW214836   1.852   4.721   2.582  0.5642 -1.4464 -0.3555
 4816SOL     OW14837   2.872   5.924   1.855  0.4305  0.5951  0.0047
 4816SOL    HW114838   2.816   5.910   1.779 -1.3907 -0.4242  1.4430
 4816SOL    HW214839   2.834   5.868   1.923  2.1207  1.2907  1.6005
 4817SOL     OW14840   6.609   6.445   1.827 -0.3166 -0.6098 -0.7297
 4817SOL    HW114841   6.517   6.432   1.849  0.6052 -1.9778  3.0983
 4817SOL    HW214842   6.636   6.362   1.787 -0.2045 -1.1794  0.4967
 4818SOL     OW14843   3.568   6.453   6.567 -0.3555 -0.2752 -0.6095
 4818SOL    HW114844   3.501   6.387   6.550 -1.1259  0.0325  1.0317
 4818SOL    HW214845   3.587   6.445   6.660  1.9345 -0.3592 -1.0083
 4819SOL     OW14846   4.953   4.596   1.972 -0.1000 -0.0545 -0.1358
 4819SOL    HW114847   4.966   4.526   1.908 -0.3967  0.0883 -0.3548
 4819SOL    HW214848   4.906   4.554   2.043  0.1157 -0.1836 -0.0674
 4820SOL     OW14849   4.307   6.423   4.676  0.4765 -0.1701 -0.0355
 4820SOL    HW114850   4.291   6.430   4.582 -1.0294 -0.1687  0.2016
 4820SOL    HW214851   4.274   6.336   4.700  0.9621 -0.2228  0.4791
 4821SOL     OW14852   0.044   3.231   1.310  0.9214 -0.1704 -0.5819
 4821SOL    HW114853  -0.033   3.208   1.258 -0.7291 -1.8444  2.3276
 4821SOL    HW214854   0.090   3.149   1.324  1.9381  0.4232 -0.3137
 4822SOL     OW14855   4.189   0.948   2.459  0.4017 -0.4918 -0.0508
 4822SOL    HW114856   4.191   0.853   2.469  0.4249 -0.4715  0.1457
 4822SOL    HW214857   4.280   0.973   2.449  0.3457 -0.5529 -0.7193
 4823SOL     OW14858   4.856   1.914   4.603 -0.2382 -0.1243 -0.3748
 4823SOL    HW114859   4.770   1.893   4.641 -1.0194 -0.3577 -2.1349
 4823SOL    HW214860   4.915   1.848   4.639 -0.9126 -0.2898  0.4534
 4824SOL     OW14861   5.185   4.662   5.937  0.0599  0.5031  0.6441
 4824SOL    HW114862   5.158   4.747   5.901 -0.9256 -0.5275 -1.2218
 4824SOL    HW214863   5.154   4.664   6.027 -1.0570  1.6704  0.2708
 4825SOL     OW14864   4.488   1.863   6.807 -0.3121 -0.0570  0.0387
 4825SOL    HW114865   4.487   1.958   6.823  0.6549  0.1716 -1.1951
 4825SOL    HW214866   4.576   1.835   6.832  0.3016 -0.1610 -2.0989
 4826SOL     OW14867   0.469   6.421   1.591  0.2219  0.0861 -0.1313
 4826SOL    HW114868   0.481   6.506   1.548 -1.8838 -0.2380 -1.5335
 4826SOL    HW214869   0.472   6.357   1.520 -2.4091 -0.5529  0.2058
 4827SOL     OW14870   2.431   6.564   6.062  0.1114  0.1289 -0.4414
 4827SOL    HW114871   2.432   6.646   6.012 -1.7943 -0.0870 -0.9376
 4827SOL    HW214872   2.386   6.586   6.144 -1.5362 -0.6192 -1.0882
 4828SOL     OW14873   0.175   6.762   1.594  0.0816  0.2539 -0.0652
 4828SOL    HW114874   0.104   6.719   1.642 -0.0894  1.9175  1.2338
 4828SOL    HW214875   0.241   6.694   1.583  0.0843 -0.2277  2.4550
 4829SOL     OW14876   4.117   1.806   6.606 -0.0064  0.3793 -0.2766
 4829SOL    HW114877   4.029   1.768   6.605 -0.4407  1.3383 -0.3503
 4829SOL    HW214878   4.101   1.901   6.604  1.0398  0.5548 -2.2850
 4830SOL     OW14879   1.263   1.791   4.996 -0.4082  0.3314  0.2157
 4830SOL    HW114880   1.250   1.875   5.041  0.1574  0.1790  0.6634
 4830SOL    HW214881   1.339   1.805   4.940 -0.7614  0.3393 -0.2748
 4831SOL     OW14882   3.198   6.704   3.055 -0.3898 -0.9506 -0.0037
 4831SOL    HW114883   3.272   6.643   3.056  0.9151  0.5803  0.3565
 4831SOL    HW214884   3.200   6.742   2.967 -0.5954 -0.6938  0.1023
 4832SOL     OW14885   6.146   6.228   0.935 -0.2915  0.1025 -0.9613
 4832SOL    HW114886   6.098   6.279   0.870 -0.5298 -1.0726 -1.7468
 4832SOL    HW214887   6.201   6.169   0.883 -1.1562 -1.5026 -0.1341
 4833SOL     OW14888   3.855   3.682   5.150 -0.1465 -0.3586  0.0662
 4833SOL    HW114889   3.839   3.684   5.244 -1.2300  0.6525 -0.1212
 4833SOL    HW214890   3.927   3.743   5.136 -1.3957  1.1543  0.0167
 4834SOL     OW14891   6.834   0.060   6.126 -0.0504 -0.2241 -0.2077
 4834SOL    HW114892   6.826   0.037   6.218  1.0745  1.1173  0.2568
 4834SOL    HW214893   6.746   0.088   6.100 -0.6416 -1.6712  0.1136
 4835SOL     OW14894   3.581   5.808   6.636  0.1585 -0.2807  0.1141
 4835SOL    HW114895   3.495   5.824   6.673  0.2446 -0.5607  0.4373
 4835SOL    HW214896   3.639   5.871   6.679  0.3831 -1.0362  0.9482
 4836SOL     OW14897   0.301   4.601   3.365  0.5855  0.1228 -0.0596
 4836SOL    HW114898   0.296   4.562   3.452 -2.6756  0.6562  0.0939
 4836SOL    HW214899   0.364   4.546   3.318 -1.2554 -3.3213  1.1552
 4837SOL     OW14900   4.493   5.548   3.180  0.1360  0.4503  0.2215
 4837SOL    HW114901   4.570   5.599   3.155  0.3843 -0.3035 -0.6215
 4837SOL    HW214902   4.470   5.499   3.101 -0.2084 -0.5900  0.9441
 4838SOL     OW14903   4.560   2.476   5.745 -0.3112 -0.2607  0.3884
 4838SOL    HW114904   4.641   2.430   5.769 -0.5956 -0.7504  0.4050
 4838SOL    HW214905   4.572   2.497   5.653 -0.4773 -0.9981  0.1905
 4839SOL     OW14906   5.860   1.325   0.643  0.4242  0.2234 -0.5533
 4839SOL    HW114907   5.778   1.279   0.660 -0.4184  1.3695 -1.3460
 4839SOL    HW214908   5.834   1.416   0.629  1.7462  0.4589 -1.6673
 4840SOL     OW14909   3.570   0.234   1.474  0.1741 -0.7812  0.6055
 4840SOL    HW114910   3.579   0.279   1.558  1.7138 -0.6023  0.3804
 4840SOL    HW214911   3.557   0.305   1.411  1.7227 -0.6766  0.3657
 4841SOL     OW14912   0.576   0.926   3.887 -0.3532  0.5856  0.2039
 4841SOL    HW114913   0.506   0.897   3.945  0.5607 -0.5560  0.7743
 4841SOL    HW214914   0.533   0.986   3.826 -1.6388  0.6135  1.0925
 4842SOL     OW14915   2.503   3.448   2.079  0.2273  0.4904 -0.1910
 4842SOL    HW114916   2.513   3.542   2.064  0.1031  0.6093  0.4532
 4842SOL    HW214917   2.412   3.437   2.105 -0.0386  0.0513 -1.2475
 4843SOL     OW14918   0.075   6.081   0.310 -0.2155  0.5887  0.1467
 4843SOL    HW114919   0.157   6.032   0.310  0.0812  1.0330 -1.2779
 4843SOL    HW214920   0.022   6.038   0.243 -1.1734  0.2906  1.0711
 4844SOL     OW14921   1.041   6.555   2.816  0.5163 -0.6040 -0.2205
 4844SOL    HW114922   0.986   6.495   2.766 -3.5806  1.3681  1.3973
 4844SOL    HW214923   1.030   6.527   2.907  0.4113  1.1202  0.3380
 4845SOL     OW14924   6.831   6.747   4.850 -0.3038  0.1615 -0.4562
 4845SOL    HW114925   6.828   6.742   4.754 -0.9221 -2.1452 -0.3713
 4845SOL    HW214926   6.831   6.655   4.879  0.7010  0.7849  1.7408
 4846SOL     OW14927   6.391   1.514   1.667 -0.0859  0.5957 -0.0599
 4846SOL    HW114928   6.360   1.501   1.577 -0.6267  0.5868  0.1263
 4846SOL    HW214929   6.327   1.573   1.706  0.7073  1.4316  0.0131
 4847SOL     OW14930   3.621   6.121   6.520  0.3768 -0.0269 -0.4409
 4847SOL    HW114931   3.535   6.163   6.526  0.4591 -0.0547  1.6231
 4847SOL    HW214932   3.660   6.133   6.607  2.0956 -0.8130 -1.0518
 4848SOL     OW14933   2.577   2.313   1.999  0.3160 -0.3435 -0.2084
 4848SOL    HW114934   2.597   2.274   1.914  1.0729  0.6238 -0.4851
 4848SOL    HW214935   2.484   2.335   1.993  0.8329  1.7076 -1.6362
 4849SOL     OW14936   6.068   3.448   0.878  0.1621  0.3554 -0.4542
 4849SOL    HW114937   6.064   3.421   0.786  0.3777  2.0162 -0.9879
 4849SOL    HW214938   6.153   3.491   0.886 -0.1169  0.7708  0.3674
 4850SOL     OW14939   0.263   0.426   4.612  0.2837  0.0683  0.0970
 4850SOL    HW114940   0.333   0.389   4.558  1.3018  1.1104  0.6532
 4850SOL    HW214941   0.294   0.417   4.702 -0.0471  1.0023  0.3224
 4851SOL     OW14942   0.855   3.427   1.224  0.1243  0.0563 -0.2547
 4851SOL    HW114943   0.918   3.393   1.160  0.2153 -0.2462 -0.0082
 4851SOL    HW214944   0.797   3.483   1.172  1.3404  1.3666 -0.2864
 4852SOL     OW14945   3.609   6.433   5.415  0.4921  0.1499  0.8435
 4852SOL    HW114946   3.629   6.486   5.493 -0.1230 -1.7916  2.3932
 4852SOL    HW214947   3.546   6.368   5.446 -1.6719  0.7893 -1.8950
 4853SOL     OW14948   5.206   1.256   3.069  0.3282 -0.5378  0.0189
 4853SOL    HW114949   5.279   1.280   3.013  1.8730 -2.8692  0.8787
 4853SOL    HW214950   5.234   1.280   3.157 -0.5432 -0.2422  0.2312
 4854SOL     OW14951   2.702   5.558   6.186  0.5166 -0.0174 -0.4246
 4854SOL    HW114952   2.631   5.542   6.123  1.0198 -0.8668 -0.7837
 4854SOL    HW214953   2.745   5.473   6.197  0.5265  0.1349  0.9704
 4855SOL     OW14954   1.204   1.237   0.128 -0.5208 -0.4807 -0.1595
 4855SOL    HW114955   1.273   1.175   0.151 -1.2131 -1.0523  0.4479
 4855SOL    HW214956   1.126   1.204   0.174 -1.2409  0.0437 -0.9719
 4856SOL     OW14957   1.734   1.885   2.331 -0.1077  0.0529 -0.1542
 4856SOL    HW114958   1.752   1.849   2.244 -0.1549  0.2665 -0.2538
 4856SOL    HW214959   1.705   1.975   2.314  1.8220  0.7933  0.1864
 4857SOL     OW14960   5.611   3.381   0.849  0.0467 -0.3131  0.1706
 4857SOL    HW114961   5.603   3.295   0.889  0.5767 -1.2561 -1.6273
 4857SOL    HW214962   5.616   3.363   0.755  1.9178  1.5468 -0.1624
 4858SOL     OW14963   6.772   5.826   2.662  0.4335 -0.2244  0.0005
 4858SOL    HW114964   6.827   5.749   2.681  0.1520 -0.6314 -0.7882
 4858SOL    HW214965   6.796   5.851   2.573  1.1838  1.1805  0.5733
 4859SOL     OW14966   2.311   3.329   5.454 -0.0704 -0.5335  0.1880
 4859SOL    HW114967   2.291   3.423   5.461 -0.3141 -0.5154 -0.5976
 4859SOL    HW214968   2.265   3.289   5.528 -0.6145 -0.1206  0.0854
 4860SOL     OW14969   6.320   0.824   0.950 -0.2884  0.2075 -0.2412
 4860SOL    HW114970   6.381   0.856   0.884 -0.2649  0.7613  0.0339
 4860SOL    HW214971   6.368   0.756   0.997  0.2301  0.8290  0.1528
 4861SOL     OW14972   6.560   2.932   3.051  0.1274 -0.1570  0.2564
 4861SOL    HW114973   6.533   2.972   2.968 -0.2258  1.3129  1.0412
 4861SOL    HW214974   6.633   2.875   3.027  0.6259  0.9273 -0.9501
 4862SOL     OW14975   6.287   0.460   1.703  0.3028  0.2803  0.0227
 4862SOL    HW114976   6.284   0.547   1.744  0.0322  0.2362  0.0990
 4862SOL    HW214977   6.228   0.407   1.756 -0.9788  0.5253 -1.1219
 4863SOL     OW14978   5.533   3.474   1.122 -0.4142  0.3293  0.4840
 4863SOL    HW114979   5.607   3.496   1.066  0.0708  0.1833  1.0624
 4863SOL    HW214980   5.498   3.393   1.085  0.7423 -0.5206  1.1759
 4864SOL     OW14981   6.648   6.819   6.817 -0.5698  0.1324  0.8584
 4864SOL    HW114982   6.578   6.772   6.772  0.3037  0.7427 -1.2248
 4864SOL    HW214983   6.719   6.755   6.823 -0.4179  0.2869  0.6926
 4865SOL     OW14984   2.953   0.630   0.855  0.1583  0.4541  0.5099
 4865SOL    HW114985   2.897   0.552   0.852  1.3239 -0.3991 -0.2379
 4865SOL    HW214986   2.992   0.635   0.767 -0.3428  2.2456  0.3523
 4866SOL     OW14987   1.575   5.951   4.491  0.2908 -0.2174 -0.1003
 4866SOL    HW114988   1.627   5.890   4.439  0.9855 -2.6236  3.1010
 4866SOL    HW214989   1.496   5.966   4.438  2.2461  0.1771 -3.1924
 4867SOL     OW14990   3.441   1.707   5.491  0.5512 -0.1397 -0.0238
 4867SOL    HW114991   3.354   1.748   5.488  0.4859 -0.2223 -3.2368
 4867SOL    HW214992   3.424   1.617   5.519 -0.4175 -0.1376 -0.5633
 4868SOL     OW14993   1.908   1.669   5.503  0.4207 -0.3094  0.3304
 4868SOL    HW114994   1.813   1.664   5.490  0.0443  1.4472  1.8924
 4868SOL    HW214995   1.945   1.610   5.438 -1.7346 -0.8439 -0.4811
 4869SOL     OW14996   5.525   6.114   5.532 -0.4966  0.1242  0.0208
 4869SOL    HW114997   5.557   6.106   5.442  1.9246 -1.0362  0.8922
 4869SOL    HW214998   5.582   6.180   5.571 -0.3205 -0.6781  1.1630
 4870SOL     OW14999   5.815   6.337   2.503 -0.0881  0.7633 -0.1594
 4870SOL    HW115000   5.735   6.323   2.452 -0.6896  1.8127  0.4525
 4870SOL    HW215001   5.800   6.291   2.585 -0.1927  1.2017  0.0710
 4871SOL     OW15002   0.413   4.166   6.582 -0.5226  0.1225 -0.2386
 4871SOL    HW115003   0.443   4.257   6.580 -0.9931  0.2883 -2.4149
 4871SOL    HW215004   0.493   4.114   6.576  0.1798  0.1116  4.8652
 4872SOL     OW15005   2.457   5.032   5.893  0.5566 -0.0598 -0.0984
 4872SOL    HW115006   2.495   5.084   5.823  0.9966  0.3731  0.4538
 4872SOL    HW215007   2.363   5.052   5.890  0.5071 -0.3669 -0.8231
 4873SOL     OW15008   6.502   0.832   6.123  0.2624 -0.3880  0.2220
 4873SOL    HW115009   6.527   0.793   6.207 -2.3038 -1.3164  0.6558
 4873SOL    HW215010   6.472   0.920   6.146 -1.0950 -0.8797  0.4484
 4874SOL     OW15011   3.543   5.352   6.201  0.3352  0.0276 -0.1294
 4874SOL    HW115012   3.474   5.343   6.267  2.1843  0.1089  1.9161
 4874SOL    HW215013   3.502   5.322   6.120 -2.9319  2.5425  0.3630
 4875SOL     OW15014   1.633   6.468   4.046 -0.5843  0.6116  0.1743
 4875SOL    HW115015   1.701   6.433   3.988  0.3539  1.3541  0.7901
 4875SOL    HW215016   1.578   6.392   4.066  0.1025 -0.0262 -0.2803
 4876SOL     OW15017   0.361   1.266   5.195 -0.3537  0.5962  0.3817
 4876SOL    HW115018   0.272   1.255   5.161 -0.1280 -1.1666  0.2877
 4876SOL    HW215019   0.402   1.326   5.133 -0.6463 -0.7920 -1.2239
 4877SOL     OW15020   0.983   1.463   2.177 -0.1400  0.2598  0.6104
 4877SOL    HW115021   0.972   1.534   2.114  0.0132  0.2244  0.5433
 4877SOL    HW215022   1.078   1.454   2.187 -0.1241 -0.6602 -0.2072
 4878SOL     OW15023   2.597   5.602   4.535  0.4563 -0.0145  0.6389
 4878SOL    HW115024   2.534   5.634   4.599 -2.4866 -0.9067 -1.5986
 4878SOL    HW215025   2.609   5.510   4.557  1.0337  0.1648  1.0881
 4879SOL     OW15026   3.844   2.808   5.189  0.2885  0.1813 -0.5788
 4879SOL    HW115027   3.792   2.887   5.182  0.4806  0.2132 -1.8810
 4879SOL    HW215028   3.882   2.812   5.277 -1.3676  0.4660  0.1693
 4880SOL     OW15029   3.743   5.594   5.692  0.1818 -0.1354 -0.0436
 4880SOL    HW115030   3.727   5.686   5.714  1.0995  0.2549 -0.9362
 4880SOL    HW215031   3.744   5.591   5.597 -0.0047 -1.1129 -0.0289
 4881SOL     OW15032   0.871   5.617   5.249 -0.7875 -0.3495  0.1006
 4881SOL    HW115033   0.883   5.522   5.238 -0.9095 -0.5423  1.4546
 4881SOL    HW215034   0.817   5.643   5.175 -0.8915 -1.3707 -0.1956
 4882SOL     OW15035   2.076   1.128   6.195 -0.2624  0.3109  0.0729
 4882SOL    HW115036   2.125   1.089   6.122  0.7029 -1.5372  1.6116
 4882SOL    HW215037   2.138   1.189   6.235  0.2617 -0.8290  1.0486
 4883SOL     OW15038   6.029   4.287   3.257  0.4257  0.9906  0.0508
 4883SOL    HW115039   6.062   4.361   3.206  1.6685  1.6695  1.7523
 4883SOL    HW215040   5.962   4.325   3.314  0.0527  0.5170 -0.0619
 4884SOL     OW15041   0.321   1.281   2.877 -0.5145  0.2545  0.6402
 4884SOL    HW115042   0.398   1.224   2.884 -0.4731  0.3472  0.9607
 4884SOL    HW215043   0.338   1.336   2.801 -1.8247 -2.0852 -1.4923
 4885SOL     OW15044   3.882   3.787   6.045 -0.2291 -0.0899  0.0030
 4885SOL    HW115045   3.858   3.774   5.953  2.2236 -0.3952 -0.6767
 4885SOL    HW215046   3.867   3.702   6.086  0.8205 -0.6296 -0.6924
 4886SOL     OW15047   4.775   0.944   3.642  0.0084  0.0042  0.2508
 4886SOL    HW115048   4.859   0.987   3.660  0.4946 -0.7876 -0.0583
 4886SOL    HW215049   4.744   0.986   3.561 -0.3574  0.9368  0.8514
 4887SOL     OW15050   3.193   4.911   3.863 -0.2433  0.4482  0.1234
 4887SOL    HW115051   3.258   4.915   3.933  0.2853 -2.7920 -0.0177
 4887SOL    HW215052   3.110   4.892   3.907 -0.4759  1.2953  0.0620
 4888SOL     OW15053   2.003   3.235   1.087  0.4200  0.1515  0.3263
 4888SOL    HW115054   2.014   3.294   1.162 -0.2695 -1.0528  1.3984
 4888SOL    HW215055   1.920   3.262   1.047  1.2793  1.4635 -0.6582
 4889SOL     OW15056   0.465   4.421   6.481  0.1288  0.5946 -0.0867
 4889SOL    HW115057   0.464   4.373   6.398  1.4471 -0.5298  0.5168
 4889SOL    HW215058   0.531   4.489   6.469  0.6069  0.1787  0.1690
 4890SOL     OW15059   4.234   5.644   5.261 -0.1151  0.2440  0.0531
 4890SOL    HW115060   4.288   5.707   5.308  3.6609 -1.6067 -1.3827
 4890SOL    HW215061   4.192   5.694   5.191  1.5120  1.4584 -0.0974
 4891SOL     OW15062   4.016   1.792   1.900  0.5688  0.0639  0.3348
 4891SOL    HW115063   3.960   1.842   1.959  0.2890 -1.8263  1.7755
 4891SOL    HW215064   3.956   1.755   1.836 -0.1150 -2.6137  2.3384
 4892SOL     OW15065   4.320   6.634   3.052  0.2004  0.1143 -0.2017
 4892SOL    HW115066   4.265   6.584   3.112  0.8163 -0.0189  0.2639
 4892SOL    HW215067   4.356   6.705   3.105  1.5558 -0.5868 -0.1339
 4893SOL     OW15068   1.880   3.581   1.915  0.2012 -0.7763 -0.1223
 4893SOL    HW115069   1.791   3.547   1.907  0.5688 -2.1815  1.3167
 4893SOL    HW215070   1.910   3.550   2.000  1.6592  0.6778 -0.0573
 4894SOL     OW15071   0.282   3.268   3.979  0.1913  0.1169 -0.1153
 4894SOL    HW115072   0.272   3.357   4.014  1.7365  0.2592  0.0056
 4894SOL    HW215073   0.260   3.277   3.886 -0.6627  0.4102  0.1066
 4895SOL     OW15074   4.650   0.195   5.653 -0.0549 -0.0112  0.8541
 4895SOL    HW115075   4.694   0.267   5.698 -0.7305  2.3225 -1.9057
 4895SOL    HW215076   4.573   0.235   5.613 -1.2159 -2.6061  0.3037
 4896SOL     OW15077   0.404   3.293   2.974  0.1571  0.0749 -0.4673
 4896SOL    HW115078   0.454   3.370   3.001  1.1527 -0.1840 -1.4784
 4896SOL    HW215079   0.350   3.324   2.901  1.2932 -0.3743 -1.5376
 4897SOL     OW15080   5.344   1.661   4.749  0.4024 -0.0276 -0.0429
 4897SOL    HW115081   5.416   1.714   4.782 -1.0750  2.2284 -0.1865
 4897SOL    HW215082   5.265   1.711   4.771 -1.0221 -1.5603 -1.3582
 4898SOL     OW15083   2.594   5.824   5.773  0.0416  0.4221  0.3099
 4898SOL    HW115084   2.682   5.820   5.736  0.1787 -2.0448  0.7590
 4898SOL    HW215085   2.538   5.785   5.705 -0.4533  0.4204  0.7145
 4899SOL     OW15086   1.151   5.665   0.737 -0.2525  0.4779  0.6250
 4899SOL    HW115087   1.102   5.728   0.791 -1.6224  0.1062 -0.1358
 4899SOL    HW215088   1.089   5.638   0.669  0.9658 -0.1799 -0.2630
 4900SOL     OW15089   1.408   0.545   2.151  0.1505  0.0284 -0.0231
 4900SOL    HW115090   1.367   0.510   2.231  0.6962 -0.9368 -0.1568
 4900SOL    HW215091   1.458   0.620   2.182  0.0494 -0.1076  0.4893
 4901SOL     OW15092   6.236   6.452   4.104  0.0361  0.8794  0.0655
 4901SOL    HW115093   6.187   6.375   4.075 -0.4698 -0.0618  3.0324
 4901SOL    HW215094   6.311   6.456   4.044 -1.2325 -0.3963 -1.7157
 4902SOL     OW15095   0.224   3.159   4.738 -0.6306 -0.2084 -0.3489
 4902SOL    HW115096   0.261   3.203   4.815  0.0090 -1.7795  0.2916
 4902SOL    HW215097   0.210   3.228   4.674  1.1580  0.7868  0.2855
 4903SOL     OW15098   5.377   4.689   2.542 -0.0129  0.8405  0.4173
 4903SOL    HW115099   5.297   4.653   2.504  0.1552  3.4851 -2.9603
 4903SOL    HW215100   5.448   4.644   2.497  0.3728  0.3209  1.5188
 4904SOL     OW15101   4.314   0.870   0.203 -0.1249 -0.2245  0.0449
 4904SOL    HW115102   4.331   0.872   0.298  1.1157 -2.0813 -0.0785
 4904SOL    HW215103   4.339   0.781   0.177 -1.3991 -0.0613 -1.8735
 4905SOL     OW15104   3.751   4.328   5.468  0.5965  0.2885  0.1310
 4905SOL    HW115105   3.733   4.247   5.420  0.1298  0.6219 -0.2668
 4905SOL    HW215106   3.666   4.373   5.472  1.0366  1.2040 -0.4841
 4906SOL     OW15107   0.729   3.165   3.565 -0.4310 -0.1220  0.4908
 4906SOL    HW115108   0.762   3.151   3.654  0.9304  1.0255  0.2019
 4906SOL    HW215109   0.648   3.113   3.561  0.8388 -2.3221  1.5272
 4907SOL     OW15110   1.074   4.897   5.213  0.1026 -0.1368  0.5048
 4907SOL    HW115111   1.065   4.837   5.139 -0.6587  1.1659 -0.5125
 4907SOL    HW215112   1.169   4.913   5.220  0.0772  1.1727 -1.4473
 4908SOL     OW15113   1.451   5.432   4.996 -0.1845  0.0360 -0.0351
 4908SOL    HW115114   1.524   5.494   4.996 -1.2440  1.3251 -0.1169
 4908SOL    HW215115   1.435   5.414   4.903  0.5878 -0.9577  0.0088
 4909SOL     OW15116   6.114   3.044   5.893 -0.4192  0.6251 -0.3399
 4909SOL    HW115117   6.095   3.090   5.811  0.6033  0.9107 -0.4405
 4909SOL    HW215118   6.033   3.049   5.943 -0.5641  1.9212 -0.6565
 4910SOL     OW15119   4.880   0.279   6.591 -0.4539  0.0929 -0.3844
 4910SOL    HW115120   4.787   0.257   6.582 -0.3215 -0.2914 -0.8690
 4910SOL    HW215121   4.915   0.213   6.651 -0.5671  0.4626  0.0962
 4911SOL     OW15122   5.812   5.976   0.715 -0.3352 -0.5428 -0.4595
 4911SOL    HW115123   5.761   5.981   0.634  0.1949  2.2421 -0.7163
 4911SOL    HW215124   5.902   5.963   0.686 -0.2143 -0.0862 -0.2848
 4912SOL     OW15125   2.394   2.645   3.340  0.2442 -0.0913 -1.1173
 4912SOL    HW115126   2.423   2.609   3.256  0.2076  1.1616 -1.7075
 4912SOL    HW215127   2.299   2.650   3.331  0.2205 -0.1807 -0.9074
 4913SOL     OW15128   1.287   4.896   0.803 -0.4648  0.4035 -0.2876
 4913SOL    HW115129   1.247   4.964   0.859 -0.7063  1.4464 -1.6616
 4913SOL    HW215130   1.380   4.900   0.824 -0.6936 -0.0790  0.9067
 4914SOL     OW15131   3.656   5.540   3.818 -1.1849  0.1718 -0.1714
 4914SOL    HW115132   3.618   5.570   3.736 -0.7729 -0.6551 -0.6760
 4914SOL    HW215133   3.712   5.613   3.847 -2.0994  0.8585 -0.0981
 4915SOL     OW15134   1.509   6.216   4.515  0.2178 -0.7423 -0.1493
 4915SOL    HW115135   1.455   6.234   4.439 -0.9079  1.4036  1.0581
 4915SOL    HW215136   1.555   6.135   4.494 -2.9624 -2.3248 -1.5128
 4916SOL     OW15137   0.202   5.064   6.674 -0.0398  0.8950  0.0058
 4916SOL    HW115138   0.296   5.079   6.684  0.1065  0.3059 -0.4360
 4916SOL    HW215139   0.195   5.002   6.601 -0.7500  0.6175  0.2989
 4917SOL     OW15140   0.649   2.771   5.846  0.7024 -0.5395 -0.1379
 4917SOL    HW115141   0.737   2.809   5.841  0.4010  0.2225  0.2045
 4917SOL    HW215142   0.651   2.699   5.783  2.7612 -2.9898  2.4083
 4918SOL     OW15143   1.228   6.647   1.009  0.1872  0.0849  0.3011
 4918SOL    HW115144   1.312   6.601   0.996  1.8791  3.4675 -2.4225
 4918SOL    HW215145   1.181   6.636   0.927  0.2688  2.3070 -0.1160
 4919SOL     OW15146   6.599   4.643   0.908  0.3569 -0.4833  0.6332
 4919SOL    HW115147   6.543   4.623   0.983 -1.3699  2.3964  0.2820
 4919SOL    HW215148   6.674   4.690   0.945 -0.3275  0.6345  0.6781
 4920SOL     OW15149   6.008   0.392   5.325 -0.0689  0.4182 -0.0152
 4920SOL    HW115150   5.972   0.325   5.267 -0.0783 -0.1650  0.6564
 4920SOL    HW215151   6.099   0.402   5.299 -0.2064  0.5226 -0.4583
 4921SOL     OW15152   6.439   0.669   4.946 -0.7577 -0.0033 -0.6274
 4921SOL    HW115153   6.488   0.733   4.895 -2.3273 -0.0086 -2.2353
 4921SOL    HW215154   6.364   0.718   4.980 -0.2444 -0.2355  0.9318
 4922SOL     OW15155   1.249   2.384   0.213  0.2513 -0.0747  0.6043
 4922SOL    HW115156   1.335   2.346   0.192 -0.1879 -0.7829  0.0547
 4922SOL    HW215157   1.188   2.342   0.153 -0.4003  0.8730  0.5666
 4923SOL     OW15158   1.113   5.098   3.443  0.7572  0.1045 -0.7101
 4923SOL    HW115159   1.093   5.170   3.504  1.8778 -0.0603 -0.1149
 4923SOL    HW215160   1.028   5.076   3.404  0.4190  1.8951 -1.0774
 4924SOL     OW15161   2.407   3.797   3.745 -0.4233  0.1476 -0.5410
 4924SOL    HW115162   2.476   3.743   3.782 -0.3693 -1.1076 -2.3329
 4924SOL    HW215163   2.327   3.764   3.786 -0.0930  1.0333  0.8947
 4925SOL     OW15164   3.223   1.888   3.246  0.3270  0.0679  0.7976
 4925SOL    HW115165   3.153   1.952   3.252  1.2511  1.0695  1.3091
 4925SOL    HW215166   3.303   1.940   3.240  0.9611 -1.0231 -1.2268
 4926SOL     OW15167   5.666   2.004   1.915 -0.1757 -1.0424  0.2949
 4926SOL    HW115168   5.687   1.954   1.993  1.7257 -1.4329 -0.4193
 4926SOL    HW215169   5.717   1.964   1.845  0.1146  0.8326 -0.6487
 4927SOL     OW15170   3.334   6.567   4.133  0.0173  0.0421  0.0341
 4927SOL    HW115171   3.409   6.621   4.108 -1.0936  1.5991 -0.0615
 4927SOL    HW215172   3.358   6.479   4.107  2.0315  0.4100  0.4804
 4928SOL     OW15173   5.379   1.623   6.233 -0.7958 -0.2098 -0.1134
 4928SOL    HW115174   5.298   1.675   6.236  0.9192  2.9201 -1.9832
 4928SOL    HW215175   5.400   1.617   6.139  2.8178  2.2178  0.3482
 4929SOL     OW15176   1.064   1.819   2.679 -0.3091  0.4599 -0.4432
 4929SOL    HW115177   1.135   1.789   2.735 -0.6051 -0.4058 -0.5063
 4929SOL    HW215178   1.000   1.748   2.682 -1.1039  1.1530 -0.5091
 4930SOL     OW15179   0.298   6.152   6.474  0.8185  0.2543 -0.2654
 4930SOL    HW115180   0.275   6.061   6.493 -0.5470  0.4915 -0.6521
 4930SOL    HW215181   0.375   6.170   6.528  1.1417 -1.1420 -0.2286
 4931SOL     OW15182   3.412   6.590   1.998  0.0190  0.4140  0.0315
 4931SOL    HW115183   3.363   6.663   1.960  0.4628  0.9668  0.4921
 4931SOL    HW215184   3.373   6.578   2.085  0.5400  0.7028  0.3079
 4932SOL     OW15185   1.048   5.792   0.966  0.1210  0.3286 -0.4993
 4932SOL    HW115186   1.008   5.726   1.022  1.1954 -0.7531 -0.9693
 4932SOL    HW215187   0.998   5.872   0.983  0.0873 -0.0824  1.6158
 4933SOL     OW15188   3.293   0.383   5.107  0.1601  0.4049  0.2429
 4933SOL    HW115189   3.258   0.294   5.100 -0.7247  0.6915  0.7822
 4933SOL    HW215190   3.383   0.372   5.136 -0.0758 -0.3054  0.7327
 4934SOL     OW15191   2.990   0.281   1.225  0.3917  0.6856 -0.0198
 4934SOL    HW115192   2.928   0.346   1.191  3.0264  2.5446 -1.5624
 4934SOL    HW215193   2.974   0.282   1.320  1.2252  4.7719  0.2671
 4935SOL     OW15194   4.713   4.039   1.022 -0.2311  0.4822 -0.6080
 4935SOL    HW115195   4.665   4.008   0.945  0.2024  0.3145 -0.8136
 4935SOL    HW215196   4.688   3.978   1.092  0.8310 -0.5215 -1.0785
 4936SOL     OW15197   4.594   3.192   0.356  0.0277  0.1232  0.3268
 4936SOL    HW115198   4.675   3.141   0.350  0.5819  1.0962 -0.5879
 4936SOL    HW215199   4.538   3.155   0.288  0.3667  0.6195 -0.2245
 4937SOL     OW15200   0.177   1.910   0.443 -0.3254 -0.0717 -0.5228
 4937SOL    HW115201   0.212   1.943   0.360 -0.0075  2.3530  0.4847
 4937SOL    HW215202   0.104   1.969   0.463 -0.7691 -0.9759  0.6511
 4938SOL     OW15203   5.464   5.990   3.390  0.1886 -0.3315  0.0062
 4938SOL    HW115204   5.504   6.074   3.367 -0.4445 -0.2872 -0.9676
 4938SOL    HW215205   5.398   6.012   3.456 -0.5763  0.0589 -0.8807
 4939SOL     OW15206   4.807   0.717   5.172  0.2023 -0.3001 -0.3767
 4939SOL    HW115207   4.739   0.691   5.234 -1.0040 -0.5744 -1.7635
 4939SOL    HW215208   4.851   0.636   5.148  0.1535 -0.3057 -0.4499
 4940SOL     OW15209   0.282   5.329   6.437  0.2577 -0.2271  0.2844
 4940SOL    HW115210   0.371   5.311   6.469  1.3872  2.1734 -1.1884
 4940SOL    HW215211   0.276   5.424   6.436 -1.5946 -0.2991 -1.5906
 4941SOL     OW15212   4.834   2.709   5.858 -0.2955  0.5419  0.2232
 4941SOL    HW115213   4.855   2.776   5.793 -0.3379  0.6948  0.3669
 4941SOL    HW215214   4.841   2.754   5.942  0.2031  0.2335  0.3513
 4942SOL     OW15215   0.354   0.941   3.063 -0.0517  0.3820  0.4161
 4942SOL    HW115216   0.361   0.847   3.082  1.6491  0.3114 -0.3694
 4942SOL    HW215217   0.385   0.984   3.143 -3.1230  0.3999  1.7128
 4943SOL     OW15218   2.448   2.884   0.077  0.1460 -0.2557 -0.0946
 4943SOL    HW115219   2.359   2.870   0.111 -1.4353  2.3363 -2.6863
 4943SOL    HW215220   2.464   2.809   0.020 -0.4301 -0.6880  0.2906
 4944SOL     OW15221   6.031   0.543   6.100  0.2094 -0.1247  0.3068
 4944SOL    HW115222   6.104   0.481   6.092 -0.0313 -0.5426  1.2432
 4944SOL    HW215223   6.060   0.605   6.167  0.0808  0.2537  0.0139
 4945SOL     OW15224   0.491   3.853   3.974  0.0703  0.1441 -0.0778
 4945SOL    HW115225   0.464   3.933   4.019 -0.4412 -0.3062  0.4301
 4945SOL    HW215226   0.482   3.784   4.040  2.6219 -0.0272  0.1674
 4946SOL     OW15227   6.728   2.205   2.088  0.1202  0.5271 -0.0590
 4946SOL    HW115228   6.753   2.155   2.010  0.7857  0.3108  0.2921
 4946SOL    HW215229   6.642   2.170   2.112  1.2510 -1.6385  1.1429
 4947SOL     OW15230   5.188   3.261   1.177  0.6990  0.0574 -0.0295
 4947SOL    HW115231   5.161   3.352   1.178  1.0983  0.1775  0.1129
 4947SOL    HW215232   5.121   3.215   1.227 -0.7592 -0.0996 -2.0190
 4948SOL     OW15233   5.847   5.561   1.492  0.8600  0.3517  0.1272
 4948SOL    HW115234   5.805   5.555   1.577  2.4444 -0.0111  0.9230
 4948SOL    HW215235   5.859   5.655   1.478  2.0664  0.3609  1.0858
 4949SOL     OW15236   0.622   5.228   2.419  0.0201 -0.2958  0.2317
 4949SOL    HW115237   0.579   5.292   2.362 -0.3422 -0.9368 -0.2447
 4949SOL    HW215238   0.558   5.212   2.489 -0.1538 -0.6013  0.0043
 4950SOL     OW15239   2.736   0.888   5.448  0.0566 -0.7651  0.3535
 4950SOL    HW115240   2.779   0.864   5.529 -0.4526 -0.3846  0.7457
 4950SOL    HW215241   2.760   0.819   5.386  2.1677  0.0200  0.2137
 4951SOL     OW15242   2.713   6.417   1.369 -0.1678 -0.8542  0.1581
 4951SOL    HW115243   2.801   6.397   1.339  0.6098  0.5549  1.3495
 4951SOL    HW215244   2.709   6.383   1.459 -1.4955 -2.5377 -0.4832
 4952SOL     OW15245   6.332   0.182   3.564 -0.3929  0.2299 -0.4110
 4952SOL    HW115246   6.316   0.130   3.643 -1.0559 -2.0275 -1.9360
 4952SOL    HW215247   6.262   0.248   3.565  0.1092  0.8034  1.2736
 4953SOL     OW15248   0.190   2.336   2.004  0.7875  0.0988  0.2618
 4953SOL    HW115249   0.259   2.313   1.942 -0.1357  1.2354 -1.2497
 4953SOL    HW215250   0.194   2.431   2.011  0.2222  0.0699  1.1855
 4954SOL     OW15251   5.586   1.511   1.663  0.5575  0.1157 -0.3457
 4954SOL    HW115252   5.509   1.504   1.607  0.4612 -0.4436 -0.1415
 4954SOL    HW215253   5.649   1.450   1.625  0.3492 -0.5717  0.3863
 4955SOL     OW15254   0.485   2.342   6.549  0.1550 -0.5910 -0.1078
 4955SOL    HW115255   0.541   2.383   6.615 -0.4292 -1.8868  1.2312
 4955SOL    HW215256   0.410   2.401   6.542  1.2045  0.6665 -1.2282
 4956SOL     OW15257   3.775   6.404   3.607  0.3072 -0.2427  0.0467
 4956SOL    HW115258   3.807   6.318   3.579  0.4930  0.1417 -0.9410
 4956SOL    HW215259   3.799   6.409   3.699  1.2745 -0.8054 -0.1640
 4957SOL     OW15260   2.244   6.540   3.201  0.2949 -0.6275  0.7108
 4957SOL    HW115261   2.333   6.538   3.166 -0.2277 -1.3443 -0.6434
 4957SOL    HW215262   2.235   6.457   3.248  0.2267 -0.7033  0.5624
 4958SOL     OW15263   4.834   5.765   6.097 -0.2058 -0.3114 -0.0499
 4958SOL    HW115264   4.811   5.700   6.030  0.4116 -1.8111  1.1305
 4958SOL    HW215265   4.751   5.790   6.136 -0.3917 -0.9718 -0.0152
 4959SOL     OW15266   2.492   2.206   2.432 -0.0530  0.4471 -0.2343
 4959SOL    HW115267   2.532   2.137   2.484  0.3000  1.1508  0.4507
 4959SOL    HW215268   2.534   2.200   2.346  0.9939  0.6959  0.2448
 4960SOL     OW15269   4.621   5.192   0.999 -0.1931 -0.2142 -0.0282
 4960SOL    HW115270   4.652   5.282   0.998 -0.5291 -0.0953 -0.2093
 4960SOL    HW215271   4.659   5.153   1.078 -0.4724  0.2417  0.3388
 4961SOL     OW15272   4.786   4.880   0.703  0.0285  0.4227 -0.7948
 4961SOL    HW115273   4.753   4.811   0.646 -3.6343  0.2523  1.2316
 4961SOL    HW215274   4.794   4.956   0.645  0.2044 -0.6404 -2.2409
 4962SOL     OW15275   6.539   2.403   0.628 -0.3342 -0.1154  0.8164
 4962SOL    HW115276   6.479   2.371   0.695  1.1536 -3.5352  0.7264
 4962SOL    HW215277   6.484   2.413   0.550 -1.2930 -0.4087  1.4308
 4963SOL     OW15278   2.559   0.572   2.119 -0.5652 -0.4564 -0.3111
 4963SOL    HW115279   2.513   0.491   2.141 -0.2449 -0.5021  0.1973
 4963SOL    HW215280   2.651   0.548   2.120 -0.5512 -0.6624 -2.5439
 4964SOL     OW15281   6.571   1.946   3.320  0.4076 -0.2532 -0.0100
 4964SOL    HW115282   6.623   1.873   3.288 -0.1731  0.8325 -4.0136
 4964SOL    HW215283   6.488   1.906   3.346  0.2574 -1.1706 -1.6976
 4965SOL     OW15284   3.550   1.730   2.407  0.4009 -0.2079 -0.2760
 4965SOL    HW115285   3.472   1.760   2.454  0.3242 -1.8101  0.6936
 4965SOL    HW215286   3.613   1.801   2.416 -0.0094 -0.0040  1.3045
 4966SOL     OW15287   6.217   6.255   5.454  0.1102  0.0628  0.0619
 4966SOL    HW115288   6.259   6.208   5.382  0.0923  1.3724 -0.8412
 4966SOL    HW215289   6.289   6.299   5.500  0.2342 -1.4862  1.4467
 4967SOL     OW15290   0.363   4.310   5.436  0.0154  0.5346  0.6348
 4967SOL    HW115291   0.276   4.285   5.468 -0.3939  0.2717 -0.6138
 4967SOL    HW215292   0.423   4.287   5.507 -0.7427 -0.8273  0.8660
 4968SOL     OW15293   6.439   6.305   0.326  0.0246 -0.1582  0.0572
 4968SOL    HW115294   6.526   6.312   0.287 -0.4487 -1.5607 -1.3851
 4968SOL    HW215295   6.379   6.308   0.251 -0.9180 -3.3534  0.5300
 4969SOL     OW15296   3.018   0.361   6.458  0.0119 -0.7795 -0.3818
 4969SOL    HW115297   3.021   0.271   6.426 -1.6161 -1.1736  0.4471
 4969SOL    HW215298   2.926   0.386   6.451  0.2452  0.4062  0.4673
 4970SOL     OW15299   4.872   2.122   0.355  0.1235 -0.6856 -0.1204
 4970SOL    HW115300   4.909   2.198   0.310  2.6842 -1.6766  0.1346
 4970SOL    HW215301   4.848   2.062   0.285  2.5396 -1.5367 -0.2891
 4971SOL     OW15302   6.620   0.534   4.514 -0.2667  0.2713 -0.5096
 4971SOL    HW115303   6.707   0.510   4.544 -0.7745  0.3273  1.1046
 4971SOL    HW215304   6.567   0.539   4.594 -1.8137 -0.0157 -1.4647
 4972SOL     OW15305   5.729   6.602   1.477  0.3177 -0.5444  0.2005
 4972SOL    HW115306   5.802   6.655   1.509  0.3001 -0.1315 -0.4176
 4972SOL    HW215307   5.724   6.528   1.537  0.6211 -0.0683  0.8257
 4973SOL     OW15308   4.230   1.187   1.152  0.1835 -0.1402  0.1110
 4973SOL    HW115309   4.253   1.095   1.164 -0.1777 -0.1051  1.1754
 4973SOL    HW215310   4.184   1.212   1.232  2.1287  1.5612  0.7799
 4974SOL     OW15311   0.196   3.988   2.310 -0.1537 -0.3889 -0.3093
 4974SOL    HW115312   0.244   3.924   2.362  1.2965 -0.0482 -1.1603
 4974SOL    HW215313   0.256   4.011   2.240 -2.1062 -0.9696 -2.2712
 4975SOL     OW15314   1.472   6.325   2.807 -0.3358 -0.1222 -0.4493
 4975SOL    HW115315   1.413   6.383   2.760 -0.2193  1.3431  1.1016
 4975SOL    HW215316   1.560   6.359   2.788 -0.2889  0.5179  0.7998
 4976SOL     OW15317   2.777   1.744   0.132  0.2803  0.9678  0.2205
 4976SOL    HW115318   2.798   1.698   0.213  0.0430 -1.3103 -0.9308
 4976SOL    HW215319   2.855   1.733   0.077 -0.3750  0.5531 -0.6519
 4977SOL     OW15320   2.602   5.250   5.782 -0.0447 -0.0558 -0.5154
 4977SOL    HW115321   2.675   5.199   5.818  1.3251  0.4224 -2.4614
 4977SOL    HW215322   2.644   5.315   5.726 -1.9134  1.2873 -0.4256
 4978SOL     OW15323   1.831   2.430   1.458  0.3745 -0.0403 -0.1702
 4978SOL    HW115324   1.889   2.507   1.453 -0.7183  0.9692  1.5604
 4978SOL    HW215325   1.814   2.407   1.367  0.0579  2.3360 -0.7965
 4979SOL     OW15326   5.496   6.740   4.445  0.6431 -0.4378 -0.1633
 4979SOL    HW115327   5.497   6.696   4.529  0.0588  1.7993  1.1123
 4979SOL    HW215328   5.559   6.692   4.391  0.6291 -2.2529  1.3427
 4980SOL     OW15329   5.868   3.077   3.065 -0.5082  0.2653 -0.1921
 4980SOL    HW115330   5.912   3.127   2.996  0.4298 -1.4845 -0.9378
 4980SOL    HW215331   5.854   3.139   3.135 -0.1336  1.7531 -1.3880
 4981SOL     OW15332   5.206   1.683   3.165  0.0289  0.4507 -0.1081
 4981SOL    HW115333   5.167   1.664   3.251  0.5868 -1.0568 -0.1550
 4981SOL    HW215334   5.133   1.682   3.104 -0.0087 -1.6295 -0.0899
 4982SOL     OW15335   5.333   4.670   5.458 -0.0108 -0.2542 -0.2415
 4982SOL    HW115336   5.397   4.735   5.488  1.0522 -1.3132 -0.1416
 4982SOL    HW215337   5.346   4.595   5.517 -0.5112 -0.9369 -0.9807
 4983SOL     OW15338   4.516   3.026   0.142 -0.1220  0.3998 -0.0187
 4983SOL    HW115339   4.474   3.094   0.089 -0.6658  0.5189  0.5557
 4983SOL    HW215340   4.601   3.013   0.101  0.5915  2.4492  0.6603
 4984SOL     OW15341   5.724   6.817   5.724 -0.2884 -0.1690 -0.4836
 4984SOL    HW115342   5.704   6.879   5.654 -0.2146 -0.6561 -0.9369
 4984SOL    HW215343   5.640   6.779   5.748 -0.2991 -0.0829 -0.3858
 4985SOL     OW15344   1.110   0.476   2.297  0.4212 -0.6750 -0.3175
 4985SOL    HW115345   1.100   0.466   2.391 -1.4058  1.5045 -0.1880
 4985SOL    HW215346   1.050   0.412   2.259 -0.6535  0.0656  0.0898
 4986SOL     OW15347   5.320   3.510   6.587  0.0127 -0.0453  0.3390
 4986SOL    HW115348   5.227   3.504   6.607  0.6480 -1.1589  3.5577
 4986SOL    HW215349   5.351   3.583   6.640  0.7450  1.5044 -2.0731
 4987SOL     OW15350   1.306   0.388   3.158  0.2695 -0.0130  0.3110
 4987SOL    HW115351   1.382   0.439   3.184  0.3832  0.8271 -1.5036
 4987SOL    HW215352   1.266   0.439   3.088 -0.9383 -1.3117  0.0156
 4988SOL     OW15353   0.854   0.308   5.251  0.1116  0.0444  0.1632
 4988SOL    HW115354   0.833   0.216   5.266 -2.4881  0.1851 -2.0327
 4988SOL    HW215355   0.946   0.307   5.224 -0.1971 -2.0730 -0.9894
 4989SOL     OW15356   1.176   0.892   1.283 -0.1204  0.2532 -0.5201
 4989SOL    HW115357   1.082   0.877   1.291  0.1353 -1.1360  0.3643
 4989SOL    HW215358   1.184   0.969   1.227 -1.7404 -1.1526 -2.9044
 4990SOL     OW15359   0.645   3.687   6.320  0.2663 -0.0156 -0.0808
 4990SOL    HW115360   0.572   3.749   6.330 -0.3005 -0.4879 -1.1398
 4990SOL    HW215361   0.676   3.673   6.409  0.6466  2.0551  0.1640
 4991SOL     OW15362   6.646   6.338   3.231  0.0899 -0.9503 -0.1047
 4991SOL    HW115363   6.735   6.345   3.265  0.4873 -1.2376 -1.0470
 4991SOL    HW215364   6.651   6.268   3.166 -0.1633  0.9360 -2.2539
 4992SOL     OW15365   1.170   4.547   5.340  0.0137  0.0001  0.0298
 4992SOL    HW115366   1.214   4.616   5.392 -1.7017  1.5456 -0.4674
 4992SOL    HW215367   1.192   4.568   5.250 -0.4078 -0.1822 -0.1158
 4993SOL     OW15368   2.810   0.070   0.417  0.3084 -0.0017  0.1061
 4993SOL    HW115369   2.871   0.137   0.387  1.2156 -1.0746 -0.4913
 4993SOL    HW215370   2.861   0.014   0.474 -0.5673  0.0744  0.9982
 4994SOL     OW15371   0.114   6.345   6.553 -0.1253 -0.2737  0.1172
 4994SOL    HW115372   0.163   6.384   6.625 -0.7779 -1.9757  1.5357
 4994SOL    HW215373   0.168   6.272   6.523 -0.9074 -1.0045  0.4483
 4995SOL     OW15374   5.282   2.597   6.123  0.0689  0.2281 -0.3601
 4995SOL    HW115375   5.190   2.585   6.102 -0.0057  0.7092 -0.3096
 4995SOL    HW215376   5.285   2.674   6.179  0.5297  0.3652 -0.5647
 4996SOL     OW15377   1.962   0.868   2.946 -0.0671  0.4852 -0.0520
 4996SOL    HW115378   2.042   0.908   2.914 -0.2453  2.0175  1.2705
 4996SOL    HW215379   1.956   0.897   3.038 -2.2785  0.7033 -0.2060
 4997SOL     OW15380   5.688   0.827   2.331  0.4301 -0.2782  0.0092
 4997SOL    HW115381   5.758   0.800   2.391  1.0982  0.3920 -0.4466
 4997SOL    HW215382   5.721   0.805   2.244  0.5166  0.9193 -0.2887
 4998SOL     OW15383   6.143   1.576   2.874 -0.0083  0.1690  0.1962
 4998SOL    HW115384   6.189   1.493   2.867 -0.6643 -0.2842  1.0716
 4998SOL    HW215385   6.118   1.582   2.967  0.5804  1.6385  0.2866
 4999SOL     OW15386   0.785   4.479   3.498 -0.0977 -0.5572 -0.3653
 4999SOL    HW115387   0.794   4.567   3.536 -3.1062  0.0988 -0.9536
 4999SOL    HW215388   0.872   4.459   3.464  0.9358  1.7576  0.6915
 5000SOL     OW15389   3.804   3.017   0.395 -0.5744 -0.1945  0.3986
 5000SOL    HW115390   3.725   3.030   0.342  0.2799 -1.2109 -1.2357
 5000SOL    HW215391   3.773   2.971   0.473 -1.6929  0.0823  0.1460
 5001SOL     OW15392   1.030   1.668   4.475  0.1584 -0.2627 -0.0712
 5001SOL    HW115393   0.992   1.617   4.403  0.3240 -0.3487 -0.0982
 5001SOL    HW215394   1.001   1.757   4.459  0.7187 -0.1676 -0.6032
 5002SOL     OW15395   2.850   6.651   4.192 -0.1564 -0.2517 -0.3480
 5002SOL    HW115396   2.848   6.590   4.265  0.8281  0.2520  0.1279
 5002SOL    HW215397   2.783   6.716   4.212  0.3705  0.0936  0.3021
 5003SOL     OW15398   1.621   4.404   6.165 -0.4999 -0.1870  0.6790
 5003SOL    HW115399   1.527   4.414   6.146 -0.9297 -0.4313  2.4245
 5003SOL    HW215400   1.659   4.489   6.144 -1.0580 -0.1743 -0.3225
 5004SOL     OW15401   5.757   4.540   6.083 -0.1155 -0.7343  0.5188
 5004SOL    HW115402   5.795   4.452   6.081  0.9210 -0.2903 -1.4746
 5004SOL    HW215403   5.727   4.556   5.994 -0.9309  0.6771  1.0057
 5005SOL     OW15404   6.061   2.556   2.941  0.1943 -0.6154 -0.2470
 5005SOL    HW115405   6.062   2.620   2.870  2.3131 -0.9911 -0.6186
 5005SOL    HW215406   5.993   2.588   3.001  0.2933  1.2542 -1.0666
 5006SOL     OW15407   0.850   1.185   0.918 -0.2650  0.1859  0.8400
 5006SOL    HW115408   0.759   1.207   0.935 -0.3862  1.5139 -1.1588
 5006SOL    HW215409   0.898   1.266   0.935  0.2580  0.0722 -0.0283
 5007SOL     OW15410   4.863   1.249   0.821  0.2383  0.1461 -0.3975
 5007SOL    HW115411   4.825   1.241   0.909 -1.9831  3.0694 -0.9304
 5007SOL    HW215412   4.800   1.207   0.763  0.8469 -0.2672 -0.7678
 5008SOL     OW15413   4.200   6.284   2.961 -0.2613  0.3201  0.8154
 5008SOL    HW115414   4.218   6.293   3.055  1.6213 -2.6459  0.8981
 5008SOL    HW215415   4.285   6.264   2.922 -1.2924 -0.4073 -1.2275
 5009SOL     OW15416   6.754   5.375   0.569  0.4588 -0.2991 -0.0920
 5009SOL    HW115417   6.761   5.312   0.640 -0.9958  0.5453  0.8707
 5009SOL    HW215418   6.831   5.360   0.515  1.2372 -1.4490  1.2708
 5010SOL     OW15419   5.048   3.879   3.204  0.4149 -0.1295  0.5371
 5010SOL    HW115420   5.048   3.790   3.170 -1.0515  0.6154 -1.6266
 5010SOL    HW215421   5.004   3.872   3.289 -2.2398 -1.1407 -0.8070
 5011SOL     OW15422   6.476   1.323   0.842  0.9305  1.0126  0.4748
 5011SOL    HW115423   6.419   1.369   0.781 -0.2183  1.8204  2.0905
 5011SOL    HW215424   6.420   1.256   0.882  1.9016 -0.1022  0.0305
 5012SOL     OW15425   1.017   0.484   0.345 -0.0179  0.5036 -0.1454
 5012SOL    HW115426   1.018   0.532   0.262 -3.0850 -0.2299 -0.7291
 5012SOL    HW215427   0.968   0.540   0.405  1.3889  0.6147  0.9571
 5013SOL     OW15428   1.235   4.764   5.465  0.2772 -0.2164 -0.0868
 5013SOL    HW115429   1.251   4.806   5.380 -3.2455  0.0523 -0.7634
 5013SOL    HW215430   1.191   4.830   5.517 -0.0741 -1.2408  0.9539
 5014SOL     OW15431   3.572   5.391   0.219  0.0483 -0.4826  0.1073
 5014SOL    HW115432   3.588   5.297   0.207 -0.0600 -0.5776  0.7104
 5014SOL    HW215433   3.522   5.416   0.141  2.0853 -0.4172 -1.2694
 5015SOL     OW15434   3.207   6.711   4.637  0.3474 -0.1506 -0.1858
 5015SOL    HW115435   3.194   6.805   4.650 -0.1174 -0.2478  0.0756
 5015SOL    HW215436   3.299   6.696   4.658 -0.0053 -0.0504  1.6005
 5016SOL     OW15437   0.420   0.472   5.216 -0.1683  0.4096  0.0507
 5016SOL    HW115438   0.364   0.548   5.230  2.4654  2.1470  2.4205
 5016SOL    HW215439   0.414   0.422   5.298  0.7452 -0.0566 -0.1529
 5017SOL     OW15440   0.482   0.266   5.037  0.2749 -0.2227 -0.4396
 5017SOL    HW115441   0.506   0.179   5.067 -2.4656 -0.9609 -0.1487
 5017SOL    HW215442   0.482   0.320   5.116  2.1363  0.1513 -0.6444
 5018SOL     OW15443   2.018   2.963   1.069 -0.2138  0.1340 -0.6397
 5018SOL    HW115444   2.036   3.055   1.089 -0.0517  0.2680 -1.3895
 5018SOL    HW215445   2.059   2.948   0.984  0.3788 -0.8218 -0.2088
 5019SOL     OW15446   0.796   5.759   0.161  0.0109  0.4121 -0.0771
 5019SOL    HW115447   0.759   5.691   0.218 -0.7083 -0.2841 -1.3434
 5019SOL    HW215448   0.742   5.836   0.178  1.1334  0.8703  1.7298
 5020SOL     OW15449   3.076   5.537   1.108 -0.3295 -0.7937 -0.3227
 5020SOL    HW115450   3.118   5.466   1.060  0.1116 -1.7349  1.3603
 5020SOL    HW215451   3.148   5.581   1.154 -0.8259 -0.4597  0.1531
 5021SOL     OW15452   3.677   1.295   6.285 -0.0238  0.2925 -0.2131
 5021SOL    HW115453   3.737   1.246   6.228  1.2954  1.2620  0.2782
 5021SOL    HW215454   3.675   1.383   6.248 -0.6871  0.4225  0.1227
 5022SOL     OW15455   3.294   3.025   3.325  0.0671  0.2879 -0.0157
 5022SOL    HW115456   3.308   3.015   3.419 -0.2965 -0.0816 -0.0021
 5022SOL    HW215457   3.373   3.070   3.294  0.3523  0.0765  0.4035
 5023SOL     OW15458   4.623   6.241   1.884 -0.4425 -0.5256  0.7511
 5023SOL    HW115459   4.540   6.255   1.930  0.0395 -1.3295  1.9109
 5023SOL    HW215460   4.634   6.318   1.830 -0.7327  0.7896  2.4852
 5024SOL     OW15461   3.510   3.466   6.237  0.2994  0.0632  0.5443
 5024SOL    HW115462   3.541   3.418   6.160 -0.3161  0.1242  0.2445
 5024SOL    HW215463   3.415   3.453   6.235  0.2908 -0.0456  1.3737
 5025SOL     OW15464   2.475   3.107   5.631 -0.1891  0.7948  0.0970
 5025SOL    HW115465   2.483   3.018   5.596  1.8741  0.9497  0.0476
 5025SOL    HW215466   2.381   3.119   5.644 -0.5030 -1.5334  0.5034
 5026SOL     OW15467   6.121   1.644   2.362 -0.0131 -0.2077  0.3030
 5026SOL    HW115468   6.065   1.625   2.437  0.5622 -1.7628  0.3540
 5026SOL    HW215469   6.064   1.631   2.286 -0.5435  1.1940  0.4165
 5027SOL     OW15470   5.385   2.800   3.555  0.1014 -0.1796  0.3279
 5027SOL    HW115471   5.456   2.796   3.492 -0.8335  0.0699 -0.7742
 5027SOL    HW215472   5.353   2.710   3.561  0.2459 -0.2189  0.5152
 5028SOL     OW15473   2.595   5.543   0.829 -0.5010  0.4901  0.1804
 5028SOL    HW115474   2.678   5.571   0.790 -0.0666  0.2475  0.9033
 5028SOL    HW215475   2.545   5.624   0.840  0.0934  0.7885  0.7605
 5029SOL     OW15476   1.440   5.031   4.101  0.2527  0.0796  0.1475
 5029SOL    HW115477   1.464   5.111   4.053 -1.8298 -1.3965 -3.8376
 5029SOL    HW215478   1.378   5.060   4.167  1.2053  1.9893  0.2587
 5030SOL     OW15479   5.931   5.030   3.628  1.0257 -0.3200  0.4285
 5030SOL    HW115480   6.012   5.082   3.628 -0.0396  1.5239  2.9174
 5030SOL    HW215481   5.949   4.959   3.689  0.6733  0.3003  1.2665
 5031SOL     OW15482   6.810   4.990   1.366 -0.8090 -0.6913 -0.3714
 5031SOL    HW115483   6.792   5.016   1.276  0.4186 -1.5645 -0.9120
 5031SOL    HW215484   6.804   4.894   1.364  1.2588 -0.8867 -0.0637
 5032SOL     OW15485   4.240   1.105   6.113  0.0972  0.2767 -0.2383
 5032SOL    HW115486   4.218   1.019   6.076 -0.5347  0.2290  0.2309
 5032SOL    HW215487   4.215   1.167   6.045 -1.0217  0.1870  0.0620
 5033SOL     OW15488   1.183   6.075   4.693 -0.4686  0.1698 -0.1623
 5033SOL    HW115489   1.214   6.015   4.624  1.3428  0.8751 -0.0207
 5033SOL    HW215490   1.096   6.041   4.716  0.1005 -1.8496 -0.7162
 5034SOL     OW15491   4.255   4.170   5.021  0.5249  0.2807 -0.0091
 5034SOL    HW115492   4.342   4.147   5.055  0.4888 -0.2916 -0.2834
 5034SOL    HW215493   4.257   4.141   4.929  0.0012  0.1345  0.0216
 5035SOL     OW15494   0.787   2.529   6.079 -0.2924  0.6341 -0.3225
 5035SOL    HW115495   0.843   2.521   6.003 -0.3404 -1.7130 -0.1786
 5035SOL    HW215496   0.846   2.553   6.150 -0.0801  1.7641 -0.8641
 5036SOL     OW15497   1.108   1.154   0.385  0.1945  0.1650 -0.3293
 5036SOL    HW115498   1.088   1.242   0.419  1.0648  1.1334 -2.1661
 5036SOL    HW215499   1.203   1.146   0.396  0.2032 -0.3017 -0.7357
 5037SOL     OW15500   1.760   4.950   3.685 -0.0315 -0.3265  0.1760
 5037SOL    HW115501   1.716   4.996   3.614 -0.1560 -0.2521  0.2997
 5037SOL    HW215502   1.853   4.959   3.666 -0.0664 -0.4323 -0.0553
 5038SOL     OW15503   0.455   3.624   1.434 -0.0780 -0.1165 -0.2702
 5038SOL    HW115504   0.531   3.680   1.447  0.9298 -1.0593 -1.8222
 5038SOL    HW215505   0.444   3.578   1.517  2.2987 -1.4246 -0.5982
 5039SOL     OW15506   3.074   3.389   3.225  0.0962  0.1870  0.0103
 5039SOL    HW115507   3.052   3.482   3.225  1.6078  0.5713  0.1786
 5039SOL    HW215508   3.132   3.378   3.301 -0.6068 -1.0376  0.4030
 5040SOL     OW15509   0.188   2.726   0.386  0.1730 -0.6972 -0.2361
 5040SOL    HW115510   0.166   2.687   0.301  0.9553  0.0271 -0.7836
 5040SOL    HW215511   0.268   2.682   0.412 -0.6143 -1.6703  0.6529
 5041SOL     OW15512   0.262   2.109   2.167  0.4294  0.3966 -0.0191
 5041SOL    HW115513   0.210   2.183   2.137  0.5342  0.7572  0.6601
 5041SOL    HW215514   0.352   2.134   2.149  0.3763 -0.2688 -1.2838
 5042SOL     OW15515   1.867   6.770   0.543  0.5478  0.0748  0.0923
 5042SOL    HW115516   1.883   6.753   0.636  1.5879 -2.5744 -0.4902
 5042SOL    HW215517   1.947   6.811   0.511 -0.1931  1.9447  0.5216
 5043SOL     OW15518   6.681   4.134   6.295 -0.4400  0.1913  0.3434
 5043SOL    HW115519   6.720   4.205   6.244  2.6472 -0.2837  1.7967
 5043SOL    HW215520   6.638   4.178   6.369  1.9747  0.6683  1.5699
 5044SOL     OW15521   0.602   4.579   1.228 -0.1950  0.4048  0.1695
 5044SOL    HW115522   0.563   4.612   1.146  1.8563 -0.7363 -1.3516
 5044SOL    HW215523   0.696   4.595   1.218  0.2210 -0.7447  1.8594
 5045SOL     OW15524   2.694   5.057   3.605  0.0975  0.4259 -0.1067
 5045SOL    HW115525   2.678   4.980   3.550 -0.8396  0.6771 -0.2045
 5045SOL    HW215526   2.709   5.021   3.692  1.0916  0.0537 -0.4128
 5046SOL     OW15527   6.074   6.304   2.427  0.3696  0.0777  0.8806
 5046SOL    HW115528   6.135   6.270   2.494  1.1721  0.8375  0.5523
 5046SOL    HW215529   6.002   6.341   2.477  0.9566  0.6235  1.3453
 5047SOL     OW15530   3.537   6.691   3.741  0.1686  0.1500  0.1846
 5047SOL    HW115531   3.532   6.597   3.721  0.4768  0.2531 -0.4016
 5047SOL    HW215532   3.551   6.694   3.835 -0.1744 -0.3860  0.2602
 5048SOL     OW15533   1.170   3.608   4.103  0.1498  0.2042 -0.5108
 5048SOL    HW115534   1.191   3.548   4.031  1.8410  1.4206 -1.1007
 5048SOL    HW215535   1.182   3.556   4.182  2.1596 -0.1515 -0.9884
 5049SOL     OW15536   1.012   0.566   5.972  0.3506 -0.5758 -0.0430
 5049SOL    HW115537   0.994   0.653   5.938  0.0899 -0.5265  0.2168
 5049SOL    HW215538   0.974   0.506   5.909 -0.4698 -0.4793  0.3520
 5050SOL     OW15539   2.103   4.849   3.436 -0.0465 -0.6180 -0.1924
 5050SOL    HW115540   2.088   4.906   3.511 -1.4932 -2.4897  1.0222
 5050SOL    HW215541   2.117   4.909   3.363  1.8756  1.2815  1.6006
 5051SOL     OW15542   0.230   6.491   0.011 -0.5534 -0.0958 -0.4985
 5051SOL    HW115543   0.182   6.426   0.063 -1.6557  1.8917  1.0988
 5051SOL    HW215544   0.322   6.462   0.016 -0.9017 -1.0877  0.8413
 5052SOL     OW15545   5.056   5.260   4.064 -0.4338  0.0295 -0.4697
 5052SOL    HW115546   5.020   5.333   4.114 -2.1517 -1.9885  1.4991
 5052SOL    HW215547   4.983   5.232   4.008 -0.7945 -1.7910  0.8126
 5053SOL     OW15548   4.735   4.482   3.428  0.1840 -0.6152  0.9457
 5053SOL    HW115549   4.789   4.403   3.433  0.7192 -0.2961  0.3152
 5053SOL    HW215550   4.724   4.509   3.519  1.5958 -0.3484  1.0612
 5054SOL     OW15551   4.643   6.231   4.467 -0.4033 -0.5051  0.1068
 5054SOL    HW115552   4.626   6.325   4.474 -2.2074 -0.7531 -0.4100
 5054SOL    HW215553   4.705   6.223   4.394  0.5483  0.3261  0.7951
 5055SOL     OW15554   1.467   5.026   0.538 -0.4238 -0.4075 -0.3615
 5055SOL    HW115555   1.454   5.091   0.607  0.8557 -0.3852 -0.1260
 5055SOL    HW215556   1.514   4.955   0.581  0.1266 -0.5217 -1.1441
 5056SOL     OW15557   3.007   1.848   0.478  0.7820  0.9264 -0.0419
 5056SOL    HW115558   3.014   1.897   0.396 -0.0121  1.1201 -0.0008
 5056SOL    HW215559   2.976   1.911   0.542  1.2698  0.7416  0.3809
 5057SOL     OW15560   1.083   6.143   0.780 -0.2832  0.5020  0.0326
 5057SOL    HW115561   1.054   6.204   0.712  2.0878 -0.6059 -2.1516
 5057SOL    HW215562   1.084   6.058   0.736 -0.8844 -0.6680  2.1904
 5058SOL     OW15563   0.264   5.988   1.458 -0.0607 -0.0868  0.2114
 5058SOL    HW115564   0.236   6.055   1.396 -0.0202 -0.5089 -0.2778
 5058SOL    HW215565   0.255   6.028   1.544 -0.1878  0.4854 -0.0669
 5059SOL     OW15566   0.470   5.749   0.037 -0.1383 -0.3610 -0.0434
 5059SOL    HW115567   0.512   5.671   0.074  0.0355  0.0930  0.7410
 5059SOL    HW215568   0.422   5.787   0.111 -1.8403 -0.7923 -0.8863
 5060SOL     OW15569   5.773   1.348   0.939 -0.0028  0.3411 -0.0276
 5060SOL    HW115570   5.779   1.256   0.962  0.0594  0.5724  0.9339
 5060SOL    HW215571   5.843   1.362   0.875 -0.1333 -0.3171 -0.3118
 5061SOL     OW15572   5.795   1.194   4.002  0.3378  0.8730  0.1047
 5061SOL    HW115573   5.844   1.116   3.977  0.4000  1.2083 -0.8579
 5061SOL    HW215574   5.713   1.188   3.954 -0.0181  0.9730  0.6903
 5062SOL     OW15575   5.933   4.999   0.059 -0.8424  0.1165 -0.3517
 5062SOL    HW115576   5.942   4.942   0.136 -0.3976  1.1315  0.3590
 5062SOL    HW215577   5.838   5.007   0.046 -0.9310 -1.6603 -1.1441
 5063SOL     OW15578   5.557   5.459   5.388 -0.1222  0.0881 -0.4208
 5063SOL    HW115579   5.640   5.443   5.434  0.7203  0.4398 -1.7490
 5063SOL    HW215580   5.577   5.440   5.296 -1.0582  1.7296 -1.0018
 5064SOL     OW15581   4.567   0.854   2.855 -0.3692 -0.0291  0.3807
 5064SOL    HW115582   4.588   0.944   2.827  1.8470 -0.5594  0.1207
 5064SOL    HW215583   4.568   0.803   2.774 -1.2201 -0.3649  0.5773
 5065SOL     OW15584   6.199   3.696   3.290 -0.3749 -0.1269  0.4906
 5065SOL    HW115585   6.171   3.756   3.360  1.3885  0.8374  0.4281
 5065SOL    HW215586   6.229   3.754   3.220 -1.3025 -1.0914 -0.7529
 5066SOL     OW15587   1.941   5.110   2.459  0.6952  0.0784 -0.1777
 5066SOL    HW115588   1.847   5.123   2.462  0.2677 -2.1520 -1.3972
 5066SOL    HW215589   1.960   5.060   2.539 -0.1324 -3.8881 -2.1785
 5067SOL     OW15590   3.194   5.931   4.342 -0.0597 -0.1648 -1.0926
 5067SOL    HW115591   3.205   5.838   4.321 -3.1263 -0.9023 -0.0223
 5067SOL    HW215592   3.222   5.939   4.433  0.7647  0.1070 -1.3659
 5068SOL     OW15593   0.542   0.484   4.280  0.2112 -0.2453  0.1583
 5068SOL    HW115594   0.541   0.533   4.197 -0.5221 -3.5853 -1.9829
 5068SOL    HW215595   0.508   0.546   4.344 -0.9112  1.9740 -2.3672
 5069SOL     OW15596   4.727   2.778   6.471 -0.3718 -0.0554 -0.1050
 5069SOL    HW115597   4.701   2.693   6.508  0.5567  0.2659  1.3649
 5069SOL    HW215598   4.645   2.815   6.438 -0.6434 -1.9094 -1.6817
 5070SOL     OW15599   0.841   3.096   6.712 -0.5102 -0.3133  0.3243
 5070SOL    HW115600   0.797   3.156   6.773 -1.3394 -0.7691  0.1871
 5070SOL    HW215601   0.926   3.079   6.752 -0.2753  0.8974  0.4032
 5071SOL     OW15602   3.494   0.653   4.980  0.0346 -0.1784 -0.0030
 5071SOL    HW115603   3.545   0.691   5.051  0.2287 -1.3204  0.4916
 5071SOL    HW215604   3.407   0.693   4.989  0.0470 -0.3411  0.9107
 5072SOL     OW15605   6.489   1.150   4.157 -0.2177 -0.7504 -0.3948
 5072SOL    HW115606   6.582   1.125   4.156 -0.5273 -2.1501  0.7599
 5072SOL    HW215607   6.447   1.086   4.099 -0.4767 -0.2162 -0.7945
 5073SOL     OW15608   0.414   4.874   0.195 -0.2592 -0.3569  0.3582
 5073SOL    HW115609   0.480   4.810   0.168  2.2075  1.0884  2.4804
 5073SOL    HW215610   0.424   4.946   0.133 -1.3081 -0.9429 -0.5266
 5074SOL     OW15611   5.122   6.140   6.469  0.0261 -0.6160 -0.3772
 5074SOL    HW115612   5.103   6.047   6.483 -1.1848 -0.5337 -1.3277
 5074SOL    HW215613   5.071   6.184   6.537 -0.8091 -0.5671 -1.0183
 5075SOL     OW15614   5.145   4.996   5.641  0.5834  0.5329 -0.3842
 5075SOL    HW115615   5.116   4.927   5.700 -1.8534  2.6175  1.0375
 5075SOL    HW215616   5.227   5.027   5.679  0.9022 -0.5192 -0.1779
 5076SOL     OW15617   6.400   2.301   2.891  0.3422  0.0382  0.9266
 5076SOL    HW115618   6.444   2.236   2.946  0.4549 -0.3623  0.3790
 5076SOL    HW215619   6.328   2.252   2.851  1.2048 -0.0976 -0.5041
 5077SOL     OW15620   4.663   2.051   4.193 -0.1588  0.0995  0.5844
 5077SOL    HW115621   4.587   2.019   4.146  0.3682  1.9305 -1.6804
 5077SOL    HW215622   4.634   2.059   4.284 -2.2685 -0.3833 -0.0091
 5078SOL     OW15623   6.330   3.897   0.627  0.7961 -0.6938  0.1931
 5078SOL    HW115624   6.234   3.895   0.636  0.8776 -1.0809  1.0654
 5078SOL    HW215625   6.353   3.807   0.604  0.9898 -0.7167  0.4722
 5079SOL     OW15626   1.890   6.464   1.204  0.0905 -0.0205 -0.5564
 5079SOL    HW115627   1.983   6.448   1.187  0.1820 -0.2154  0.1134
 5079SOL    HW215628   1.844   6.395   1.156  0.3494 -0.5996  0.0157
 5080SOL     OW15629   0.187   2.222   3.288 -0.0342  0.2373  0.0516
 5080SOL    HW115630   0.126   2.251   3.355 -2.1338 -2.5899 -0.4532
 5080SOL    HW215631   0.135   2.217   3.208  1.6507  0.6599 -1.1302
 5081SOL     OW15632   1.933   4.523   4.783 -0.0186  0.2551 -0.4040
 5081SOL    HW115633   1.996   4.587   4.750  1.3994  0.2770  2.0927
 5081SOL    HW215634   1.987   4.449   4.811 -1.0575  0.2918  1.8578
 5082SOL     OW15635   5.735   3.972   4.496 -0.2348  0.4825 -0.0563
 5082SOL    HW115636   5.814   3.978   4.551 -0.8215 -0.3816  0.9250
 5082SOL    HW215637   5.688   4.054   4.513 -0.3702  0.2586  0.6932
 5083SOL     OW15638   1.317   2.858   1.927 -0.2969 -0.1276 -0.5157
 5083SOL    HW115639   1.352   2.920   1.863  0.8671  1.0139  1.1221
 5083SOL    HW215640   1.388   2.795   1.939 -1.1605 -1.3415 -1.5539
 5084SOL     OW15641   2.617   0.302   6.155  0.7893 -0.0790 -0.6825
 5084SOL    HW115642   2.576   0.230   6.205  0.2840 -0.1889 -1.2365
 5084SOL    HW215643   2.543   0.355   6.126  1.1344  0.4071 -0.6686
 5085SOL     OW15644   5.681   2.072   6.717 -0.2046  0.4997 -0.5648
 5085SOL    HW115645   5.636   2.032   6.792  0.5142  1.8223  0.6142
 5085SOL    HW215646   5.611   2.106   6.662 -0.7167  1.2375  0.5126
 5086SOL     OW15647   0.464   5.825   0.554  0.1224  0.1601 -0.1718
 5086SOL    HW115648   0.391   5.851   0.497  0.8180  3.0587  0.1064
 5086SOL    HW215649   0.505   5.907   0.579  3.8718 -1.3361 -0.7308
 5087SOL     OW15650   6.443   2.431   6.228 -0.3354  0.3324  1.1670
 5087SOL    HW115651   6.455   2.510   6.175 -0.5863 -0.1211  0.4235
 5087SOL    HW215652   6.530   2.391   6.231 -0.4902 -0.0915  0.3590
 5088SOL     OW15653   5.036   3.325   6.388  0.2317 -0.4868  0.1177
 5088SOL    HW115654   4.976   3.251   6.395  0.5808 -0.9095 -1.1416
 5088SOL    HW215655   5.112   3.290   6.341 -0.6254  1.2405 -2.8015
 5089SOL     OW15656   6.064   1.150   0.661  0.3086  0.1328  0.0120
 5089SOL    HW115657   5.998   1.212   0.630  0.4213 -0.0494 -0.6101
 5089SOL    HW215658   6.016   1.089   0.716 -0.3189 -0.7785 -1.4745
 5090SOL     OW15659   0.625   1.608   4.062 -0.0395 -0.3895 -0.0165
 5090SOL    HW115660   0.581   1.545   4.004 -2.2548  0.8049  0.2477
 5090SOL    HW215661   0.627   1.689   4.012 -1.3949  0.4868  1.2745
 5091SOL     OW15662   1.900   0.319   0.281 -0.3253 -0.0228  0.5703
 5091SOL    HW115663   1.995   0.325   0.291 -0.2580  0.5089 -0.2517
 5091SOL    HW215664   1.887   0.246   0.220 -0.5817 -1.5286  2.3423
 5092SOL     OW15665   4.368   0.650   5.897 -0.1778 -0.1379  0.0694
 5092SOL    HW115666   4.359   0.609   5.983  1.5125 -2.9413 -0.9722
 5092SOL    HW215667   4.286   0.629   5.852 -0.6898  0.5567  0.6522
 5093SOL     OW15668   3.200   1.331   4.449 -0.4524  0.1341  0.1740
 5093SOL    HW115669   3.237   1.274   4.516  0.2448  1.3299  0.8536
 5093SOL    HW215670   3.150   1.396   4.498  1.0376  1.7337 -0.3306
 5094SOL     OW15671   4.156   1.118   4.162  0.2576 -0.2036 -0.0075
 5094SOL    HW115672   4.145   1.064   4.084  0.2862  1.5586 -1.2943
 5094SOL    HW215673   4.092   1.189   4.151  0.6300  0.3596  1.3188
 5095SOL     OW15674   1.655   2.127   4.149  0.5731  0.0771  0.1003
 5095SOL    HW115675   1.661   2.176   4.067 -0.4349 -0.9332 -0.6113
 5095SOL    HW215676   1.587   2.061   4.133  0.3608 -0.1538  1.7453
 5096SOL     OW15677   0.248   4.357   1.724  0.2829  0.2562 -0.2602
 5096SOL    HW115678   0.326   4.393   1.767 -0.5813 -0.2656  1.8150
 5096SOL    HW215679   0.255   4.263   1.737 -1.0071  0.2497  0.5253
 5097SOL     OW15680   3.524   0.197   3.820 -0.1548  0.3011 -0.4336
 5097SOL    HW115681   3.445   0.171   3.867 -0.2584 -1.1266 -1.3299
 5097SOL    HW215682   3.495   0.208   3.730  0.8870 -1.5972 -1.0454
 5098SOL     OW15683   1.805   2.599   5.407  0.5945 -0.4194 -0.7254
 5098SOL    HW115684   1.727   2.603   5.461  0.5475 -1.2620 -0.7259
 5098SOL    HW215685   1.840   2.688   5.409 -0.2859 -0.0661 -0.6183
 5099SOL     OW15686   3.645   1.488   0.073  0.8056 -0.1565 -0.1603
 5099SOL    HW115687   3.722   1.457   0.121  0.4913  1.1097  1.2248
 5099SOL    HW215688   3.600   1.546   0.134 -1.5740 -1.2903 -0.7157
 5100SOL     OW15689   3.726   2.622   5.465  0.5206  0.2015 -0.2263
 5100SOL    HW115690   3.726   2.538   5.419  0.6359  0.1543 -0.1414
 5100SOL    HW215691   3.640   2.627   5.506 -0.0119  0.7553 -1.3612
 5101SOL     OW15692   2.495   0.161   5.103  0.1057  0.0059  0.2437
 5101SOL    HW115693   2.527   0.108   5.030  0.0063  2.1834 -1.5112
 5101SOL    HW215694   2.422   0.110   5.139  1.1387 -1.8369 -0.1541
 5102SOL     OW15695   6.597   4.914   4.831  0.0581 -1.0325 -0.1297
 5102SOL    HW115696   6.511   4.896   4.793 -0.2605 -1.3773  0.7314
 5102SOL    HW215697   6.659   4.879   4.767 -0.4222 -0.4249 -0.9486
 5103SOL     OW15698   6.160   0.850   5.017  0.3919 -0.5236 -0.1293
 5103SOL    HW115699   6.086   0.796   4.988  0.0914  0.0272 -0.4126
 5103SOL    HW215700   6.131   0.888   5.100 -0.7740  1.8304 -1.5062
 5104SOL     OW15701   4.176   5.108   5.147 -0.2054  0.7462 -0.3411
 5104SOL    HW115702   4.088   5.132   5.118  0.1597  0.3225 -1.8859
 5104SOL    HW215703   4.172   5.013   5.159 -0.2927  0.8874  0.8686
 5105SOL     OW15704   0.845   4.565   3.915 -0.4800 -0.3782 -0.8494
 5105SOL    HW115705   0.869   4.569   4.007  2.6904  1.2592 -1.6065
 5105SOL    HW215706   0.869   4.477   3.887 -2.3454 -1.2134  0.0182
 5106SOL     OW15707   6.533   3.525   0.198  0.1887 -0.1359 -1.1748
 5106SOL    HW115708   6.511   3.590   0.264 -1.0726 -1.5434 -0.1275
 5106SOL    HW215709   6.451   3.508   0.152  0.4109 -1.1704 -1.2279
 5107SOL     OW15710   5.182   2.936   1.629  0.2872 -0.3914 -0.1379
 5107SOL    HW115711   5.224   2.972   1.707  0.6170 -0.4572 -0.2851
 5107SOL    HW215712   5.206   2.995   1.558  1.2267 -1.1438 -0.4731
 5108SOL     OW15713   5.377   1.111   6.222 -0.6718  0.1578 -0.4134
 5108SOL    HW115714   5.377   1.016   6.214 -1.3772  0.0119  0.9758
 5108SOL    HW215715   5.457   1.131   6.270 -0.1400  0.3420 -1.3673
 5109SOL     OW15716   2.952   1.587   0.359  0.4195 -0.7810 -0.0917
 5109SOL    HW115717   2.918   1.555   0.443 -3.0840  0.1030 -0.9936
 5109SOL    HW215718   2.993   1.671   0.380  0.7301 -1.1773  0.9185
 5110SOL     OW15719   2.797   5.850   6.154 -0.5860  0.1967 -0.0268
 5110SOL    HW115720   2.758   5.762   6.157  1.3174 -0.6916  1.9229
 5110SOL    HW215721   2.881   5.836   6.111 -0.7826  1.3114 -0.7793
 5111SOL     OW15722   3.078   5.210   5.661 -0.1167 -1.1506 -0.0533
 5111SOL    HW115723   3.033   5.275   5.715  1.1076  0.5056 -0.9004
 5111SOL    HW215724   3.017   5.191   5.590 -0.8410 -1.6193  0.6826
 5112SOL     OW15725   2.959   1.234   5.108 -0.1318  0.0262 -0.0846
 5112SOL    HW115726   2.870   1.210   5.082 -0.2994 -0.2382  0.6955
 5112SOL    HW215727   2.983   1.168   5.173 -0.0008  1.0602  0.9410
 5113SOL     OW15728   3.576   5.121   0.203  0.2140  0.2187 -0.0262
 5113SOL    HW115729   3.568   5.035   0.245 -0.5882  0.1752 -0.2517
 5113SOL    HW215730   3.616   5.103   0.118  0.3881  0.1141  0.0779
 5114SOL     OW15731   4.269   1.218   1.955  0.1676 -0.0530 -0.5367
 5114SOL    HW115732   4.199   1.154   1.967  1.1436 -0.8435  1.4685
 5114SOL    HW215733   4.349   1.166   1.950  0.8392  0.9306 -0.4383
 5115SOL     OW15734   4.819   0.547   5.562  0.0828 -0.1850  0.0983
 5115SOL    HW115735   4.779   0.551   5.649  1.7547  1.0035  0.8832
 5115SOL    HW215736   4.763   0.602   5.507 -1.5215 -1.7136  0.1514
 5116SOL     OW15737   0.846   6.421   5.294 -0.0441  0.4111  0.1564
 5116SOL    HW115738   0.923   6.461   5.335 -1.1303  2.0753  0.6734
 5116SOL    HW215739   0.780   6.421   5.363 -0.9826  0.4591 -0.7334
 5117SOL     OW15740   4.911   5.042   4.325 -0.2114 -0.9564 -0.3039
 5117SOL    HW115741   4.956   5.127   4.328  0.9500 -1.5387 -0.5340
 5117SOL    HW215742   4.825   5.062   4.290  0.4090 -0.0114 -1.3593
 5118SOL     OW15743   1.332   4.218   6.531 -0.0984 -0.0942 -0.3858
 5118SOL    HW115744   1.362   4.237   6.620 -2.1078  1.8506 -0.0295
 5118SOL    HW215745   1.412   4.221   6.478  1.2209 -1.8455  1.3636
 5119SOL     OW15746   1.581   5.085   0.130  0.2649  0.2286  0.9377
 5119SOL    HW115747   1.515   5.034   0.082  1.6247 -0.2142 -0.5399
 5119SOL    HW215748   1.617   5.145   0.065  1.5772  0.1952  1.6109
 5120SOL     OW15749   4.303   6.216   1.814  0.0920  0.0490 -0.2488
 5120SOL    HW115750   4.216   6.219   1.776 -0.0013  3.6428 -0.0997
 5120SOL    HW215751   4.296   6.152   1.885 -3.0208  1.4693  0.9300
 5121SOL     OW15752   6.447   6.380   6.630 -0.0165  0.4049 -0.1672
 5121SOL    HW115753   6.463   6.400   6.722  1.7588  0.1217 -0.3729
 5121SOL    HW215754   6.353   6.363   6.625  0.1972 -2.2394  2.1501
 5122SOL     OW15755   1.471   2.858   0.789  0.1632  0.4117 -0.1384
 5122SOL    HW115756   1.566   2.855   0.786  0.2233  2.0485 -1.3718
 5122SOL    HW215757   1.448   2.822   0.874  1.9465  1.0952  0.6769
 5123SOL     OW15758   5.152   4.668   2.328 -0.1335  0.1644 -0.2284
 5123SOL    HW115759   5.098   4.746   2.339  0.6850  0.7988 -0.5381
 5123SOL    HW215760   5.180   4.671   2.236  0.2138 -0.2822 -0.1431
 5124SOL     OW15761   5.496   2.387   6.450  0.1686  0.4725  0.2711
 5124SOL    HW115762   5.534   2.298   6.452 -1.3232 -0.2428  3.0730
 5124SOL    HW215763   5.526   2.426   6.532 -0.5747  1.9460 -0.1427
 5125SOL     OW15764   5.537   5.230   2.678 -0.3725 -0.1317 -0.4503
 5125SOL    HW115765   5.444   5.225   2.701 -0.1046  0.7081  0.9357
 5125SOL    HW215766   5.577   5.278   2.750  1.2916 -1.1599 -0.6367
 5126SOL     OW15767   3.148   5.002   5.839 -0.1213 -0.3189  0.2523
 5126SOL    HW115768   3.096   4.922   5.845 -0.2806 -0.3131 -0.7754
 5126SOL    HW215769   3.098   5.059   5.781  0.6328 -0.0000 -0.1029
 5127SOL     OW15770   0.558   2.467   4.530  0.1387  0.6321 -0.2440
 5127SOL    HW115771   0.610   2.443   4.607 -1.2765  2.8010  1.5125
 5127SOL    HW215772   0.509   2.388   4.509 -0.6647  0.3827  2.1739
 5128SOL     OW15773   0.623   4.523   5.424 -0.7113  0.0731 -0.0344
 5128SOL    HW115774   0.595   4.551   5.337 -0.2220 -1.7490 -0.8249
 5128SOL    HW215775   0.718   4.533   5.422 -0.6872 -0.1141  0.2489
 5129SOL     OW15776   4.794   0.103   4.292  0.4340 -0.0339 -0.0307
 5129SOL    HW115777   4.882   0.098   4.253  0.3480  0.7527 -0.3375
 5129SOL    HW215778   4.794   0.186   4.340 -0.6054  0.6869 -1.2111
 5130SOL     OW15779   1.091   4.493   2.968  0.0053  0.7129 -0.5399
 5130SOL    HW115780   1.125   4.540   2.892  0.4423  0.0407 -0.7717
 5130SOL    HW215781   1.055   4.412   2.932  0.2320  0.3813 -0.0273
 5131SOL     OW15782   4.166   0.323   3.856 -0.1497  0.2082 -0.0312
 5131SOL    HW115783   4.237   0.263   3.877 -1.0840 -0.7703  0.4499
 5131SOL    HW215784   4.209   0.408   3.844  0.9413 -0.0721  1.5982
 5132SOL     OW15785   1.687   2.485   0.402  0.6945  0.6134  0.2100
 5132SOL    HW115786   1.742   2.505   0.477  0.6505 -0.5377  0.5763
 5132SOL    HW215787   1.747   2.477   0.329  0.8527  0.7807  0.3230
 5133SOL     OW15788   4.937   1.871   4.137 -0.5528  0.7306 -0.1708
 5133SOL    HW115789   4.881   1.923   4.080  1.5178  0.2512 -2.8210
 5133SOL    HW215790   4.919   1.780   4.113 -0.0978  0.4769  0.4091
 5134SOL     OW15791   5.419   2.803   4.084 -0.1083 -0.4998  0.0470
 5134SOL    HW115792   5.430   2.735   4.151  0.9802 -0.0462  0.3426
 5134SOL    HW215793   5.460   2.767   4.006  0.3048 -0.2667  0.1529
 5135SOL     OW15794   2.283   1.931   4.937  0.0848  0.0971  0.2857
 5135SOL    HW115795   2.281   1.972   4.851 -0.0344 -0.3116  0.0924
 5135SOL    HW215796   2.192   1.928   4.965  0.1511  0.4959  0.5569
 5136SOL     OW15797   3.848   5.389   4.729  0.3153  0.4996 -0.3713
 5136SOL    HW115798   3.815   5.466   4.774  1.4186  1.8659 -1.7900
 5136SOL    HW215799   3.893   5.339   4.796 -2.7038 -0.3997  1.1879
 5137SOL     OW15800   6.390   6.000   3.088 -0.4649  0.5356  0.1918
 5137SOL    HW115801   6.341   6.020   3.167  1.7216  0.1649  1.7495
 5137SOL    HW215802   6.407   6.086   3.047 -1.2353  0.7674  0.3575
 5138SOL     OW15803   1.590   2.372   5.247  0.6910  0.0158  0.0991
 5138SOL    HW115804   1.685   2.380   5.241  0.7431 -0.8042 -0.3970
 5138SOL    HW215805   1.557   2.462   5.241  1.4585  0.3550  0.8899
 5139SOL     OW15806   1.785   4.423   2.453  0.5286 -0.2685 -0.6084
 5139SOL    HW115807   1.708   4.479   2.448  1.4110  1.0601  0.1190
 5139SOL    HW215808   1.762   4.355   2.516 -0.0441  0.1120 -0.4068
 5140SOL     OW15809   0.023   0.145   2.167 -0.6758  0.6558 -0.3332
 5140SOL    HW115810  -0.033   0.162   2.091  0.5170 -0.8174 -1.6090
 5140SOL    HW215811   0.005   0.055   2.191  1.4440 -0.0416 -1.1088
 5141SOL     OW15812   2.482   0.951   5.110 -0.2311 -0.6533  0.3261
 5141SOL    HW115813   2.436   0.909   5.037 -1.1040  0.8279 -0.0293
 5141SOL    HW215814   2.566   0.905   5.115 -1.1478 -2.4396  0.0206
 5142SOL     OW15815   5.590   4.861   4.583  0.3656 -0.4135 -0.3078
 5142SOL    HW115816   5.632   4.940   4.617  0.3290 -1.2103  1.7046
 5142SOL    HW215817   5.612   4.861   4.489  0.4240  1.9135 -0.3507
 5143SOL     OW15818   3.897   0.628   6.056  0.0590 -0.2351 -0.1284
 5143SOL    HW115819   3.880   0.720   6.035 -0.5096 -0.4777 -0.7895
 5143SOL    HW215820   3.947   0.630   6.137 -0.0161  0.6547 -0.0988
 5144SOL     OW15821   1.393   0.856   5.921  0.2183  0.2296  0.3811
 5144SOL    HW115822   1.415   0.937   5.967 -0.0483 -0.6946  2.2623
 5144SOL    HW215823   1.298   0.848   5.930  0.3455 -0.7456  1.0775
 5145SOL     OW15824   6.797   4.936   3.228  0.0844 -0.4443  0.3077
 5145SOL    HW115825   6.839   4.965   3.309 -1.0789  0.8035  0.4892
 5145SOL    HW215826   6.737   4.867   3.256  0.4104 -0.7190  0.3471
 5146SOL     OW15827   2.053   3.005   1.560 -0.3046  0.4024  0.1905
 5146SOL    HW115828   2.067   2.955   1.640 -0.1015  0.4976  0.2163
 5146SOL    HW215829   1.972   3.053   1.575  0.5158  1.5886  0.9489
 5147SOL     OW15830   6.585   0.573   1.748  0.0885 -0.0093  0.3840
 5147SOL    HW115831   6.519   0.635   1.779  1.1086  1.5610 -0.4500
 5147SOL    HW215832   6.647   0.565   1.821 -0.2629 -0.3906  0.6457
 5148SOL     OW15833   5.467   2.779   3.085  0.2893 -0.3415  0.6680
 5148SOL    HW115834   5.388   2.774   3.031  0.0088 -2.9669  1.2161
 5148SOL    HW215835   5.537   2.802   3.024 -0.3976 -0.9548 -0.3680
 5149SOL     OW15836   2.519   6.235   5.096  0.4056  0.1591  0.2443
 5149SOL    HW115837   2.580   6.161   5.106 -0.1772 -0.2762  0.6435
 5149SOL    HW215838   2.574   6.313   5.101  0.7377 -0.1565  2.4065
 5150SOL     OW15839   6.642   1.787   5.355  0.1679  0.0796 -0.0989
 5150SOL    HW115840   6.663   1.733   5.280  0.9315 -2.2437  1.6537
 5150SOL    HW215841   6.726   1.823   5.383 -0.2721  1.8961 -0.9773
 5151SOL     OW15842   0.250   1.040   3.395  0.2040 -0.0112 -0.5014
 5151SOL    HW115843   0.307   1.098   3.344  0.2269 -0.0455 -0.5144
 5151SOL    HW215844   0.183   1.099   3.431 -0.2435 -0.0955 -1.1802
 5152SOL     OW15845   5.906   1.136   1.599 -0.3691 -0.0649 -0.2095
 5152SOL    HW115846   5.951   1.129   1.683  1.0131  0.3574 -0.8813
 5152SOL    HW215847   5.910   1.048   1.563  1.4662  0.2788 -0.9866
 5153SOL     OW15848   3.899   2.141   3.145 -0.0213  0.2496 -0.6835
 5153SOL    HW115849   3.953   2.063   3.140 -0.9786 -0.6276  1.5327
 5153SOL    HW215850   3.960   2.214   3.129  1.1101 -0.8509 -1.5641
 5154SOL     OW15851   3.480   6.076   5.303 -0.3948 -0.0595  0.5217
 5154SOL    HW115852   3.529   6.146   5.260  0.4125 -0.8849  0.0464
 5154SOL    HW215853   3.474   6.007   5.237 -1.2003 -0.4266  0.9647
 5155SOL     OW15854   5.153   5.900   4.289  0.7490 -0.2405  0.2761
 5155SOL    HW115855   5.233   5.942   4.258  0.1408  0.7070 -0.0732
 5155SOL    HW215856   5.146   5.927   4.381  0.2829  0.5985  0.0142
 5156SOL     OW15857   4.351   0.563   6.543 -0.0620  0.2182  0.3206
 5156SOL    HW115858   4.445   0.575   6.557  0.0542 -0.7956  0.5470
 5156SOL    HW215859   4.331   0.480   6.588 -0.7631 -0.3605 -1.0039
 5157SOL     OW15860   2.470   0.223   2.614  0.3764 -0.1133  0.1632
 5157SOL    HW115861   2.476   0.151   2.551  1.3297  0.8963 -0.9358
 5157SOL    HW215862   2.541   0.206   2.676  1.0253  0.2368 -0.4797
 5158SOL     OW15863   6.460   1.258   1.329 -0.0272  0.0704  0.4706
 5158SOL    HW115864   6.482   1.269   1.236  0.4464 -1.1430  0.4223
 5158SOL    HW215865   6.544   1.245   1.372 -0.2334  0.8280  1.1080
 5159SOL     OW15866   1.019   3.729   6.246  0.5865  0.0613 -0.9101
 5159SOL    HW115867   0.953   3.693   6.305  1.2849 -0.1347 -0.2282
 5159SOL    HW215868   1.043   3.657   6.188 -1.9949  0.9276 -3.2443
 5160SOL     OW15869   6.220   4.389   6.618 -0.0429 -0.3921  0.4720
 5160SOL    HW115870   6.269   4.314   6.586 -0.3356  0.1016 -1.2438
 5160SOL    HW215871   6.158   4.410   6.547  0.4297  1.8013  0.6170
 5161SOL     OW15872   4.863   5.381   5.772  0.1192 -0.3407  0.0038
 5161SOL    HW115873   4.781   5.425   5.751  0.4423  0.2353 -0.0487
 5161SOL    HW215874   4.924   5.411   5.706  0.6828  0.1317  0.7355
 5162SOL     OW15875   6.766   0.175   1.064 -0.1160  0.2285 -0.3189
 5162SOL    HW115876   6.861   0.172   1.053 -0.1439  0.1889 -0.5643
 5162SOL    HW215877   6.747   0.267   1.084  0.2245 -0.1912  2.2553
 5163SOL     OW15878   0.121   2.732   5.344 -0.0341  0.0555  0.3555
 5163SOL    HW115879   0.191   2.669   5.327 -1.5415 -1.1793 -1.7484
 5163SOL    HW215880   0.052   2.681   5.386 -0.1769  0.9874  1.2979
 5164SOL     OW15881   6.042   6.251   4.043  0.0866 -0.1958  0.2234
 5164SOL    HW115882   5.968   6.274   3.987  1.3057 -0.2225 -1.4998
 5164SOL    HW215883   6.068   6.163   4.013 -0.1188 -0.8564  1.8652
 5165SOL     OW15884   2.832   3.265   6.233 -0.0064  0.2374  0.5534
 5165SOL    HW115885   2.888   3.295   6.161 -0.2948 -0.2472  0.1239
 5165SOL    HW215886   2.789   3.187   6.199 -3.4715  2.3203 -0.3875
 5166SOL     OW15887   6.146   6.514   3.557  0.1610  0.8039 -0.2167
 5166SOL    HW115888   6.210   6.520   3.487 -0.6561  0.7341 -0.9835
 5166SOL    HW215889   6.116   6.604   3.571  0.8664  0.9319  0.5792
 5167SOL     OW15890   5.964   0.356   1.088 -0.4210  0.1221 -0.0495
 5167SOL    HW115891   5.976   0.391   1.000 -1.4622  0.1325 -0.1990
 5167SOL    HW215892   5.902   0.416   1.130 -0.3128 -0.1591  0.5303
 5168SOL     OW15893   4.663   6.573   4.550  0.3255 -0.0903 -0.1642
 5168SOL    HW115894   4.705   6.659   4.557 -1.4064  0.8874 -1.0861
 5168SOL    HW215895   4.607   6.580   4.472 -0.1887 -1.9230 -0.0064
 5169SOL     OW15896   5.848   2.438   2.555 -0.0900  0.0210 -0.9771
 5169SOL    HW115897   5.833   2.475   2.642 -2.3041  1.0786 -1.7511
 5169SOL    HW215898   5.908   2.365   2.571 -1.1688 -0.4335  1.5875
 5170SOL     OW15899   1.177   1.922   6.080 -0.5240  0.1569 -0.0972
 5170SOL    HW115900   1.122   1.874   6.143 -1.6061  2.2931  0.6719
 5170SOL    HW215901   1.136   1.905   5.995 -0.7722 -0.4205  0.1312
 5171SOL     OW15902   3.766   4.211   2.231  0.3095 -0.4137  0.4547
 5171SOL    HW115903   3.682   4.211   2.277 -0.7766  1.9232 -1.3253
 5171SOL    HW215904   3.826   4.255   2.291  0.0598 -1.2385  1.3445
 5172SOL     OW15905   6.101   5.744   5.414 -0.2975  0.3994  0.7518
 5172SOL    HW115906   6.166   5.810   5.439  1.3033  0.2951 -2.5799
 5172SOL    HW215907   6.124   5.667   5.466  1.9211  0.5861  0.1496
 5173SOL     OW15908   1.044   6.599   5.174 -0.0374  0.5193  0.2513
 5173SOL    HW115909   1.057   6.536   5.103 -0.6659  1.2853 -0.5703
 5173SOL    HW215910   1.113   6.580   5.237  0.0013 -0.7423 -0.1547
 5174SOL     OW15911   6.012   3.056   4.028  0.1283  0.4906 -0.6948
 5174SOL    HW115912   6.056   2.990   4.082 -0.6675  1.0055  0.6091
 5174SOL    HW215913   6.084   3.105   3.987  0.7320 -1.0110 -1.5093
 5175SOL     OW15914   1.823   2.892   0.747  0.1797  0.3622  0.0916
 5175SOL    HW115915   1.909   2.871   0.785  0.5893 -2.0418 -1.9047
 5175SOL    HW215916   1.837   2.975   0.701  1.1308  0.5373  0.6576
 5176SOL     OW15917   6.745   1.705   6.419  0.1517 -0.2092  0.2909
 5176SOL    HW115918   6.780   1.704   6.508  1.3185  0.7050 -0.1321
 5176SOL    HW215919   6.708   1.793   6.409  2.1676  0.5786 -0.8783
 5177SOL     OW15920   0.916   4.501   4.228  0.3553 -0.0261  0.5852
 5177SOL    HW115921   0.918   4.534   4.318  0.6114  2.2935 -0.2005
 5177SOL    HW215922   0.987   4.548   4.184 -1.7327  1.3361 -1.5739
 5178SOL     OW15923   3.077   2.302   3.984 -0.1110 -0.0295 -0.2219
 5178SOL    HW115924   2.994   2.335   3.951 -0.6342 -2.4915 -1.5827
 5178SOL    HW215925   3.141   2.328   3.918 -0.3086 -0.6146 -0.6513
 5179SOL     OW15926   5.870   1.759   2.945  0.3268  0.3223  0.2596
 5179SOL    HW115927   5.948   1.709   2.920 -1.3969 -1.8860 -1.0803
 5179SOL    HW215928   5.829   1.707   3.013 -0.9889  0.3932 -0.4488
 5180SOL     OW15929   2.415   6.646   5.334  0.0334 -0.4488  0.7327
 5180SOL    HW115930   2.357   6.722   5.335 -0.7412 -0.9835 -0.8693
 5180SOL    HW215931   2.502   6.682   5.319 -0.1992  0.1758  0.8495
 5181SOL     OW15932   1.109   0.077   0.805  0.3004 -0.1411  0.4549
 5181SOL    HW115933   1.187   0.131   0.821  1.7289 -1.2563 -2.2391
 5181SOL    HW215934   1.134  -0.011   0.832 -0.2935 -0.3756  0.2600
 5182SOL     OW15935   6.823   6.254   5.022 -0.2664 -0.4265  0.1015
 5182SOL    HW115936   6.896   6.199   5.052  2.0660  3.1187  1.4888
 5182SOL    HW215937   6.770   6.267   5.100 -0.5249 -0.3030 -0.0974
 5183SOL     OW15938   5.069   6.638   2.540  0.0824  0.3006  0.5781
 5183SOL    HW115939   5.161   6.662   2.527  0.1466 -0.0589  0.3437
 5183SOL    HW215940   5.065   6.546   2.513  0.5587 -1.0386  4.4435
 5184SOL     OW15941   1.235   1.243   5.743  0.0510  0.1754  0.4872
 5184SOL    HW115942   1.310   1.184   5.732  1.0478  1.0054  2.3683
 5184SOL    HW215943   1.237   1.267   5.836 -0.5734  2.8102 -0.1068
 5185SOL     OW15944   3.804   6.216   0.639  0.1421  0.0235  0.6027
 5185SOL    HW115945   3.737   6.150   0.622 -0.3343  0.4437  0.8307
 5185SOL    HW215946   3.887   6.170   0.627 -0.1738 -0.8996  1.8335
 5186SOL     OW15947   5.238   6.276   2.006  0.1984  0.1993  0.0700
 5186SOL    HW115948   5.295   6.200   1.996 -0.7410 -0.2295 -2.7536
 5186SOL    HW215949   5.159   6.240   2.048  0.0197 -0.2796 -0.6491
 5187SOL     OW15950   0.328   0.141   2.680 -0.0200  0.0962 -0.2600
 5187SOL    HW115951   0.318   0.153   2.585 -2.7728  3.4623  0.2594
 5187SOL    HW215952   0.421   0.154   2.697  0.1193  2.3833 -2.2511
 5188SOL     OW15953   1.412   5.336   0.945  0.1464 -0.2831  0.3527
 5188SOL    HW115954   1.333   5.391   0.941 -0.1243 -0.6099  1.0391
 5188SOL    HW215955   1.419   5.312   1.038  0.1760 -1.5300  0.0394
 5189SOL     OW15956   5.885   2.251   6.235  0.0100  0.0633 -0.0370
 5189SOL    HW115957   5.869   2.258   6.329 -0.7027  0.7312 -0.2024
 5189SOL    HW215958   5.961   2.307   6.220 -0.1381  0.2937  0.0705
 5190SOL     OW15959   1.696   2.720   1.324 -0.1014 -0.6642  0.0271
 5190SOL    HW115960   1.746   2.741   1.245  1.1625  0.2927  1.0302
 5190SOL    HW215961   1.761   2.685   1.385 -0.7875 -0.1108  1.1018
 5191SOL     OW15962   1.358   4.798   3.844 -0.1391 -0.1661 -0.4812
 5191SOL    HW115963   1.436   4.825   3.893  0.3663 -0.8035 -0.9193
 5191SOL    HW215964   1.392   4.742   3.774 -0.8886  0.3964 -1.3140
 5192SOL     OW15965   4.492   3.488   1.203 -0.0819  0.0457 -0.0956
 5192SOL    HW115966   4.515   3.418   1.264  0.0611  0.7394  0.6644
 5192SOL    HW215967   4.469   3.442   1.122  0.1641 -0.8682  0.3329
 5193SOL     OW15968   0.760   3.965   0.401  0.2905 -0.2888 -0.8689
 5193SOL    HW115969   0.723   3.919   0.476  0.7764  1.8669  0.7844
 5193SOL    HW215970   0.684   3.988   0.348 -0.2967  0.0130  0.0792
 5194SOL     OW15971   1.421   1.555   0.266  0.5928 -0.1148 -0.7022
 5194SOL    HW115972   1.330   1.547   0.237  0.2473  0.8868  0.0384
 5194SOL    HW215973   1.463   1.606   0.197  1.0691 -2.0965 -1.9418
 5195SOL     OW15974   3.549   3.031   1.337 -0.1234  0.8971  0.2918
 5195SOL    HW115975   3.595   2.947   1.344 -1.4665  0.1318  0.1914
 5195SOL    HW215976   3.571   3.063   1.249 -0.5158  0.0826 -0.1170
 5196SOL     OW15977   1.476   1.829   4.266 -0.2125  0.0919 -0.5371
 5196SOL    HW115978   1.473   1.817   4.360 -0.7028 -3.0567 -0.8399
 5196SOL    HW215979   1.383   1.833   4.240 -0.1675 -1.5439 -1.0609
 5197SOL     OW15980   3.576   0.744   0.494 -0.2237 -0.2245  0.1489
 5197SOL    HW115981   3.619   0.717   0.575 -1.1806  1.7259  1.3721
 5197SOL    HW215982   3.647   0.781   0.441  0.2011 -0.3894  0.5892
 5198SOL     OW15983   2.290   1.092   0.030  0.1398 -0.2238 -0.1142
 5198SOL    HW115984   2.260   1.003   0.008  0.4331 -0.1079 -1.0462
 5198SOL    HW215985   2.228   1.123   0.096  0.5735 -1.4684  0.9213
 5199SOL     OW15986   0.436   2.771   6.768  0.0449 -0.0251  0.4646
 5199SOL    HW115987   0.487   2.828   6.711  0.6288 -1.2473 -0.2985
 5199SOL    HW215988   0.439   2.814   6.854 -1.8064  2.4353 -0.5946
 5200SOL     OW15989   2.153   2.640   5.424  0.2850 -0.1066 -0.1232
 5200SOL    HW115990   2.227   2.583   5.444  0.3424  0.6126  2.0493
 5200SOL    HW215991   2.152   2.648   5.329  2.6588 -0.5459 -0.2230
 5201SOL     OW15992   2.436   1.838   4.378 -0.6399  0.2989  0.0661
 5201SOL    HW115993   2.396   1.756   4.351 -1.1827  0.3958  0.5619
 5201SOL    HW215994   2.408   1.901   4.311 -1.5887  0.4336  0.5677
 5202SOL     OW15995   6.137   0.964   4.747  0.5930  0.5947  0.3364
 5202SOL    HW115996   6.156   0.933   4.836  1.4123 -0.5690 -0.2120
 5202SOL    HW215997   6.118   1.057   4.757  1.7222  0.7231  1.6025
 5203SOL     OW15998   4.283   3.149   3.519  0.2810  0.2557 -0.0778
 5203SOL    HW115999   4.213   3.151   3.584 -0.9741  0.4966 -1.3775
 5203SOL    HW216000   4.314   3.058   3.520  0.1708  0.2235  0.7343
 5204SOL     OW16001   3.809   6.560   4.177 -0.1630 -0.9156  0.0177
 5204SOL    HW116002   3.895   6.551   4.135  0.7364 -0.1040  1.5927
 5204SOL    HW216003   3.772   6.640   4.140  0.5227 -0.3250  0.5974
 5205SOL     OW16004   5.411   2.039   5.921  0.2415  0.2785  0.0655
 5205SOL    HW116005   5.382   2.014   6.008 -1.4761  0.7430 -0.3324
 5205SOL    HW216006   5.471   2.113   5.936  1.8595 -1.1449  0.9512
 5206SOL     OW16007   5.413   2.233   3.941  0.2088 -0.0901  0.3689
 5206SOL    HW116008   5.361   2.153   3.952  1.0253 -0.6498  0.2716
 5206SOL    HW216009   5.430   2.236   3.846 -1.5559  1.3358  0.0392
 5207SOL     OW16010   4.156   3.206   3.745  0.4512  0.0472 -0.5340
 5207SOL    HW116011   4.237   3.245   3.778  1.2164 -0.9348 -1.1942
 5207SOL    HW216012   4.089   3.273   3.760  0.5756 -0.4983  3.4930
 5208SOL     OW16013   0.725   5.293   1.154  0.4384  0.2734 -0.2374
 5208SOL    HW116014   0.632   5.278   1.173  0.1721  0.6261 -1.2401
 5208SOL    HW216015   0.760   5.328   1.236 -0.8910  2.6902 -0.6263
 5209SOL     OW16016   0.247   6.048   4.521  0.2551  0.3519 -0.4815
 5209SOL    HW116017   0.303   6.124   4.527 -0.8230  1.1077  0.5280
 5209SOL    HW216018   0.161   6.079   4.551  0.3277 -1.7799  2.3873
 5210SOL     OW16019   6.546   5.948   3.530  0.4933 -0.3308 -0.8660
 5210SOL    HW116020   6.539   5.913   3.441 -0.6326 -0.0658 -0.9009
 5210SOL    HW216021   6.633   5.987   3.534 -0.0387  1.1332 -2.4185
 5211SOL     OW16022   2.842   5.617   5.065 -0.3721  1.0528 -0.2651
 5211SOL    HW116023   2.841   5.593   5.157 -0.2276  0.9462 -0.2922
 5211SOL    HW216024   2.753   5.650   5.048 -0.3241  1.3048 -0.0286
 5212SOL     OW16025   1.065   4.209   2.925  0.7261  0.6390 -0.1686
 5212SOL    HW116026   1.028   4.159   2.998  0.0863 -0.2979 -1.1209
 5212SOL    HW216027   0.989   4.238   2.875  1.1002  2.2784  0.1417
 5213SOL     OW16028   3.324   5.406   4.119 -0.1052 -0.0125  0.6470
 5213SOL    HW116029   3.325   5.315   4.091 -0.6953  0.6166 -1.6262
 5213SOL    HW216030   3.408   5.441   4.089 -1.5128  1.1555 -2.3695
 5214SOL     OW16031   2.216   4.268   5.869 -0.3826  0.3104 -0.0886
 5214SOL    HW116032   2.182   4.180   5.850  0.2098  0.3813 -1.6193
 5214SOL    HW216033   2.266   4.257   5.951 -0.5066 -0.7288 -0.1414
 5215SOL     OW16034   0.479   0.680   4.470  0.2395  0.1444  0.4875
 5215SOL    HW116035   0.480   0.770   4.439  1.0938 -0.5604 -1.7467
 5215SOL    HW216036   0.495   0.686   4.564  0.3480  2.2996  0.3672
 5216SOL     OW16037   0.989   5.472   5.794 -0.3531 -0.2422  0.3938
 5216SOL    HW116038   0.953   5.524   5.866 -1.2676 -0.1557 -0.0968
 5216SOL    HW216039   0.934   5.394   5.790  1.1681 -1.4037  1.2798
 5217SOL     OW16040   0.203   1.351   4.348 -0.5323  0.1228  0.0110
 5217SOL    HW116041   0.224   1.440   4.378 -1.2669  0.3511 -0.1319
 5217SOL    HW216042   0.137   1.363   4.281 -0.9688 -0.5657  0.3074
 5218SOL     OW16043   3.858   5.229   0.977  0.6698 -0.0849  0.2768
 5218SOL    HW116044   3.815   5.264   0.899  0.4787 -0.8506  0.0299
 5218SOL    HW216045   3.798   5.250   1.049  0.7821  0.5053  0.1996
 5219SOL     OW16046   1.753   4.861   2.439  0.3097 -0.6462 -0.5172
 5219SOL    HW116047   1.750   4.801   2.365  0.6347  0.1056 -1.1491
 5219SOL    HW216048   1.812   4.931   2.412 -0.0948 -0.0053  0.1878
 5220SOL     OW16049   3.005   6.459   0.042 -0.5814 -0.2218 -0.3002
 5220SOL    HW116050   3.063   6.499  -0.022 -1.9109  1.2251 -0.6709
 5220SOL    HW216051   2.951   6.398  -0.009 -0.3724 -0.4879 -0.2079
 5221SOL     OW16052   1.732   0.678   3.158 -0.1230  0.0283  0.3296
 5221SOL    HW116053   1.699   0.690   3.069 -1.4946  2.0524  1.0318
 5221SOL    HW216054   1.762   0.764   3.185  2.8447 -1.0739  0.9463
 5222SOL     OW16055   2.379   3.354   3.065  0.2252 -0.4656 -0.1810
 5222SOL    HW116056   2.294   3.385   3.097  0.1616 -2.0715  1.3165
 5222SOL    HW216057   2.444   3.405   3.114  0.1220 -2.4802  2.2066
 5223SOL     OW16058   1.812   1.724   6.321  0.0685  0.3039 -0.6322
 5223SOL    HW116059   1.794   1.681   6.405  2.6887 -0.0157 -0.1379
 5223SOL    HW216060   1.865   1.661   6.272 -0.6483  0.8553 -2.1885
 5224SOL     OW16061   4.710   3.835   3.755 -0.0278  0.1006  0.4486
 5224SOL    HW116062   4.787   3.780   3.771  0.4739  0.7236  0.2401
 5224SOL    HW216063   4.638   3.788   3.796  0.8451  0.6384  2.7994
 5225SOL     OW16064   4.665   1.612   1.808 -0.2659  0.5262  0.2549
 5225SOL    HW116065   4.759   1.608   1.788 -0.3595 -0.2726 -0.0743
 5225SOL    HW216066   4.657   1.684   1.871  0.5330  0.7589  0.1049
 5226SOL     OW16067   0.256   2.917   2.453  0.4822 -0.3729 -0.4185
 5226SOL    HW116068   0.236   2.870   2.534  0.8296  1.0753  0.5522
 5226SOL    HW216069   0.172   2.952   2.423  0.6398  0.8190  0.4706
 5227SOL     OW16070   0.404   5.477   6.222 -0.3231  0.1587  0.1042
 5227SOL    HW116071   0.341   5.540   6.256  1.4836  2.8309 -1.1493
 5227SOL    HW216072   0.353   5.421   6.163 -1.7721  1.3571  0.1637
 5228SOL     OW16073   5.879   0.822   5.214 -0.4442  0.2413 -0.1129
 5228SOL    HW116074   5.893   0.915   5.200 -0.9445  0.3835  0.2985
 5228SOL    HW216075   5.879   0.812   5.310 -3.1844  0.2778 -0.0417
 5229SOL     OW16076   5.676   5.979   1.856 -0.4602  0.8953  0.1132
 5229SOL    HW116077   5.708   6.033   1.784  1.0591  1.6850  1.2984
 5229SOL    HW216078   5.732   5.901   1.854 -0.4910  0.8654  0.3400
 5230SOL     OW16079   1.012   3.751   0.677  0.0482 -0.0421 -0.5416
 5230SOL    HW116080   0.983   3.739   0.587 -1.5021 -1.8955  0.1208
 5230SOL    HW216081   0.948   3.703   0.729  1.2732  0.4150  1.5018
 5231SOL     OW16082   5.302   5.580   6.164  0.1696  0.4057 -0.9732
 5231SOL    HW116083   5.208   5.587   6.184  0.2902  3.4470 -0.9518
 5231SOL    HW216084   5.316   5.645   6.095  2.5638  1.4180  0.3430
 5232SOL     OW16085   2.250   0.852   6.722  0.6145 -0.3924  0.2914
 5232SOL    HW116086   2.339   0.877   6.698  0.0929 -0.2151 -1.6885
 5232SOL    HW216087   2.242   0.761   6.695  0.0203 -0.2200 -0.1480
 5233SOL     OW16088   0.162   1.654   2.770 -0.4389  0.6514  0.0699
 5233SOL    HW116089   0.255   1.632   2.762 -0.4620  0.4011  0.4490
 5233SOL    HW216090   0.148   1.723   2.705  0.0889  0.9346  0.2488
 5234SOL     OW16091   0.873   2.431   0.016 -0.2487  0.1548  0.2743
 5234SOL    HW116092   0.967   2.430   0.034 -0.4786 -0.8787  1.5856
 5234SOL    HW216093   0.835   2.484   0.085 -0.7151 -0.1244  0.2419
 5235SOL     OW16094   4.015   5.833   2.758 -0.0024 -0.3110 -0.6877
 5235SOL    HW116095   4.032   5.891   2.832  0.0261 -1.3633  0.1368
 5235SOL    HW216096   4.088   5.849   2.698  0.3593  0.0221 -0.1642
 5236SOL     OW16097   4.457   4.805   0.020 -0.1971  0.2740  0.0678
 5236SOL    HW116098   4.540   4.844  -0.009 -0.8904  1.2736 -0.6128
 5236SOL    HW216099   4.422   4.761  -0.058 -1.4611  1.9171 -0.3473
 5237SOL     OW16100   4.521   4.722   0.319 -0.1497 -0.3458 -0.1021
 5237SOL    HW116101   4.497   4.765   0.236 -2.0417 -0.0897  0.5107
 5237SOL    HW216102   4.569   4.644   0.293 -2.0364 -1.1151 -1.5757
 5238SOL     OW16103   6.140   1.562   0.704  0.0650 -0.5875 -0.0542
 5238SOL    HW116104   6.202   1.493   0.679 -0.9523 -1.3134 -0.6743
 5238SOL    HW216105   6.130   1.552   0.799 -0.0268 -1.2760 -0.1297
 5239SOL     OW16106   2.476   4.115   3.223  0.5857  0.1461 -0.3474
 5239SOL    HW116107   2.470   4.130   3.128  0.4218  0.3300 -0.3099
 5239SOL    HW216108   2.429   4.033   3.238  2.6231 -1.1369 -0.7326
 5240SOL     OW16109   4.668   3.433   4.230  0.3114 -0.0667  0.0998
 5240SOL    HW116110   4.668   3.354   4.176  1.1465  0.3385 -0.5171
 5240SOL    HW216111   4.761   3.458   4.236  0.1302  0.4677  0.8832
 5241SOL     OW16112   1.900   2.203   4.904 -0.4619  0.0704 -0.0440
 5241SOL    HW116113   1.977   2.260   4.908  0.0004 -0.5809  0.6874
 5241SOL    HW216114   1.835   2.248   4.957 -0.7710  0.8604 -1.0495
 5242SOL     OW16115   5.114   6.499   6.322  0.4649 -0.5601 -0.4823
 5242SOL    HW116116   5.109   6.463   6.410 -0.3804 -0.8420 -0.6368
 5242SOL    HW216117   5.195   6.550   6.321 -0.3427  0.8278  0.9739
 5243SOL     OW16118   6.549   3.570   4.514 -0.9939  0.2324  0.7204
 5243SOL    HW116119   6.501   3.497   4.554 -4.5388  2.0540  0.1383
 5243SOL    HW216120   6.549   3.638   4.581  1.3344  0.1879  0.8610
 5244SOL     OW16121   5.126   3.034   3.629  0.1223  0.1071  0.2610
 5244SOL    HW116122   5.072   3.050   3.552  1.4148  0.1295 -0.6518
 5244SOL    HW216123   5.213   3.067   3.606  0.1913  1.5865  2.2922
 5245SOL     OW16124   5.807   5.844   1.422 -0.2241 -0.3569  0.2578
 5245SOL    HW116125   5.902   5.847   1.422 -0.2160 -0.5212  0.7845
 5245SOL    HW216126   5.782   5.860   1.331  0.3980 -3.4917 -0.5690
 5246SOL     OW16127   4.982   6.688   5.665 -0.1899 -0.1744  0.0069
 5246SOL    HW116128   4.923   6.713   5.736 -0.2532 -0.3519  0.0174
 5246SOL    HW216129   5.027   6.610   5.698  0.7332  0.4956  0.3769
 5247SOL     OW16130   0.426   3.640   2.183  0.1874  0.0161  0.8701
 5247SOL    HW116131   0.482   3.563   2.193 -0.9171 -1.1680 -1.3142
 5247SOL    HW216132   0.476   3.698   2.125  0.4703  0.3836  1.4744
 5248SOL     OW16133   4.230   5.748   6.360  0.1693 -0.5929  0.3942
 5248SOL    HW116134   4.274   5.665   6.340 -0.7431 -1.0403  0.1565
 5248SOL    HW216135   4.218   5.790   6.275  0.3444 -0.3607  0.4832
 5249SOL     OW16136   3.274   2.040   5.605 -0.4893  0.0022 -0.2581
 5249SOL    HW116137   3.255   2.098   5.532  0.3820 -0.9260 -1.2597
 5249SOL    HW216138   3.229   1.958   5.584  1.4171 -0.9594 -0.8236
 5250SOL     OW16139   5.105   2.535   2.597  0.3907  0.5108  0.2971
 5250SOL    HW116140   5.068   2.499   2.678 -1.3346 -0.6187 -0.9251
 5250SOL    HW216141   5.079   2.627   2.597  1.2893  0.7876  1.4866
 5251SOL     OW16142   5.089   0.858   4.946  0.0642 -0.6173  0.2041
 5251SOL    HW116143   5.071   0.841   4.853 -2.2020  0.3663  0.4025
 5251SOL    HW216144   5.147   0.787   4.972  0.6811 -0.9611 -1.9441
 5252SOL     OW16145   2.437   0.961   1.330  0.0551  0.2061 -0.1210
 5252SOL    HW116146   2.361   0.912   1.297  0.7179 -1.0392  0.1556
 5252SOL    HW216147   2.503   0.895   1.347  1.4101  1.3138 -0.8399
 5253SOL     OW16148   1.403   4.108   5.221  0.0632  0.1219  0.1750
 5253SOL    HW116149   1.385   4.191   5.264 -0.8276  0.7323 -1.2935
 5253SOL    HW216150   1.352   4.111   5.140  2.1976 -0.6209 -1.3153
 5254SOL     OW16151   5.144   1.632   2.757 -0.4437 -0.0481 -0.3173
 5254SOL    HW116152   5.126   1.723   2.731 -0.9734  0.2903  1.1491
 5254SOL    HW216153   5.122   1.629   2.850  3.7235 -0.4852  0.8561
 5255SOL     OW16154   6.445   1.114   4.922 -0.2689  0.1037 -0.0271
 5255SOL    HW116155   6.376   1.124   4.987  1.0611  1.8143  1.2579
 5255SOL    HW216156   6.417   1.168   4.848  0.0980  1.6487  0.9080
 5256SOL     OW16157   2.453   2.031   5.494  0.1865  0.4246  0.2967
 5256SOL    HW116158   2.460   1.944   5.534  1.9453  1.2674  2.0132
 5256SOL    HW216159   2.366   2.033   5.455  0.0333 -2.0312  0.3810
 5257SOL     OW16160   6.089   1.339   0.231 -0.8462 -0.1065  0.4949
 5257SOL    HW116161   6.054   1.262   0.276 -0.4217 -0.2306  0.6181
 5257SOL    HW216162   6.125   1.393   0.301 -2.5055  0.9556  0.5922
 5258SOL     OW16163   6.825   2.683   4.413 -0.3514 -0.1046  0.2072
 5258SOL    HW116164   6.852   2.621   4.481  0.3402 -0.8229 -0.6991
 5258SOL    HW216165   6.771   2.631   4.354  2.5129 -0.6727 -2.1349
 5259SOL     OW16166   1.567   0.504   3.991 -0.7959  0.3168 -0.4980
 5259SOL    HW116167   1.606   0.578   3.944 -1.3815  0.4265 -0.8162
 5259SOL    HW216168   1.485   0.538   4.027  0.7440  1.0029  2.8072
 5260SOL     OW16169   1.227   6.681   3.882  0.4515  0.0213  0.2440
 5260SOL    HW116170   1.318   6.673   3.853  0.3552 -1.2813  0.2335
 5260SOL    HW216171   1.193   6.755   3.832  1.6023  0.7761  0.5306
 5261SOL     OW16172   1.465   1.930   1.994 -0.5171 -0.5442  0.2839
 5261SOL    HW116173   1.467   1.944   1.899  0.9011  0.6042  0.4520
 5261SOL    HW216174   1.530   1.862   2.009  0.1738  0.1643  0.5472
 5262SOL     OW16175   0.900   4.462   2.387 -0.2104 -0.2113 -0.1707
 5262SOL    HW116176   0.845   4.470   2.309  1.5433  1.9624 -1.2604
 5262SOL    HW216177   0.895   4.547   2.429  0.4679 -0.7387  1.0205
 5263SOL     OW16178   0.082   0.176   0.599 -0.3251  0.1149  0.4913
 5263SOL    HW116179   0.035   0.135   0.527  1.1785 -0.5968 -0.1270
 5263SOL    HW216180   0.124   0.103   0.645  1.0261  0.7889  0.3777
 5264SOL     OW16181   5.237   1.757   5.957 -0.7481  0.0222 -0.7674
 5264SOL    HW116182   5.170   1.691   5.975  0.0331  0.0288  2.9855
 5264SOL    HW216183   5.189   1.840   5.957 -0.8628  0.0861  2.4465
 5265SOL     OW16184   6.090   4.174   6.466 -0.1675  0.3785 -0.0550
 5265SOL    HW116185   6.177   4.147   6.497 -0.1649 -0.1003 -0.4542
 5265SOL    HW216186   6.083   4.134   6.379 -0.9016  0.1758  0.0935
 5266SOL     OW16187   3.108   4.950   1.796 -0.0817 -0.1343 -0.2458
 5266SOL    HW116188   3.036   5.011   1.813 -0.4369  0.5315 -3.5064
 5266SOL    HW216189   3.171   5.001   1.746  0.6513 -1.8608 -1.1528
 5267SOL     OW16190   3.444   2.838   6.525 -0.1601  0.4707  0.0347
 5267SOL    HW116191   3.355   2.841   6.559  0.0828  0.8477  0.6545
 5267SOL    HW216192   3.439   2.780   6.449 -0.7675 -0.1596  0.5473
 5268SOL     OW16193   6.745   4.788   5.959  0.0499  0.2757 -0.4374
 5268SOL    HW116194   6.671   4.847   5.975  0.1278  0.6710 -1.4558
 5268SOL    HW216195   6.722   4.744   5.878  0.5280 -0.2602 -0.2822
 5269SOL     OW16196   4.995   1.982   3.810 -0.1771 -0.3218 -0.1710
 5269SOL    HW116197   4.961   2.040   3.743  0.1198 -0.9389 -0.8681
 5269SOL    HW216198   4.919   1.931   3.838 -0.4272  0.3557  0.4079
 5270SOL     OW16199   1.465   4.663   1.039  0.4448 -0.4907  0.2665
 5270SOL    HW116200   1.469   4.720   1.115  2.1845 -1.4308  0.9460
 5270SOL    HW216201   1.374   4.631   1.037  0.5031 -0.9092  2.3087
 5271SOL     OW16202   5.245   2.274   6.167  0.1050  1.0957 -0.1356
 5271SOL    HW116203   5.229   2.325   6.246 -0.0935  0.3418  0.3137
 5271SOL    HW216204   5.292   2.196   6.197  0.0916  0.8371 -0.7662
 5272SOL     OW16205   4.454   1.969   6.349 -0.2128  0.6721  0.1869
 5272SOL    HW116206   4.498   2.051   6.324  0.7549  0.0173 -0.3101
 5272SOL    HW216207   4.452   1.972   6.445  1.1352  0.6239  0.2389
 5273SOL     OW16208   2.058   5.075   3.586  0.1789 -0.3504  0.0279
 5273SOL    HW116209   1.990   5.126   3.542  0.5484 -1.0708 -1.4356
 5273SOL    HW216210   2.047   5.095   3.679 -0.1038  1.8821 -0.4239
 5274SOL     OW16211   2.415   6.807   0.330  0.2059 -0.3074 -0.3790
 5274SOL    HW116212   2.496   6.851   0.305  0.5108 -0.9111 -0.4716
 5274SOL    HW216213   2.353   6.878   0.347 -0.0061  0.1423 -2.7729
 5275SOL     OW16214   3.344   4.422   6.348  0.5028  0.0221 -0.1667
 5275SOL    HW116215   3.318   4.413   6.256 -0.2802 -1.1227  0.1369
 5275SOL    HW216216   3.317   4.339   6.388  2.0073 -0.0110  0.8266
 5276SOL     OW16217   1.515   3.569   5.688  0.2753  0.0461  0.1071
 5276SOL    HW116218   1.532   3.663   5.697 -1.2669  0.1880  2.1872
 5276SOL    HW216219   1.537   3.549   5.597 -3.7289  3.4045 -1.9310
 5277SOL     OW16220   0.996   0.861   1.022  0.3194 -0.2801 -0.6590
 5277SOL    HW116221   0.909   0.822   1.031  0.0705  0.2071 -0.9195
 5277SOL    HW216222   1.003   0.884   0.930  0.4561  0.3053 -0.5064
 5278SOL     OW16223   2.766   1.562   4.235 -0.4181  0.5762 -0.6053
 5278SOL    HW116224   2.822   1.619   4.184  0.0020  0.9214  0.2185
 5278SOL    HW216225   2.804   1.474   4.223 -0.1120  0.7074 -0.5972
 5279SOL     OW16226   6.383   3.719   4.337 -0.4012  0.0532 -0.6473
 5279SOL    HW116227   6.311   3.656   4.331 -0.4885  0.1785 -0.9334
 5279SOL    HW216228   6.454   3.670   4.379 -0.4296 -0.2735 -0.9734
 5280SOL     OW16229   3.811   1.035   5.328  0.0375 -0.1233  0.1698
 5280SOL    HW116230   3.830   1.129   5.330 -2.1277  0.3990 -1.3213
 5280SOL    HW216231   3.822   1.011   5.237 -0.9429 -0.9713  0.2647
 5281SOL     OW16232   3.202   3.921   4.528 -0.3227  0.3347  0.0513
 5281SOL    HW116233   3.289   3.881   4.521 -0.4555 -0.1654  1.0924
 5281SOL    HW216234   3.155   3.890   4.451 -0.0848 -0.6911  0.3064
 5282SOL     OW16235   0.863   5.811   2.257  0.1437 -0.7093  0.0253
 5282SOL    HW116236   0.840   5.724   2.290 -2.9597  0.0191  0.0750
 5282SOL    HW216237   0.857   5.803   2.162  0.0394 -0.6013  0.0228
 5283SOL     OW16238   0.735   3.822   2.675 -0.1985 -0.3674 -0.0674
 5283SOL    HW116239   0.742   3.732   2.645  3.0284 -0.0044 -0.8756
 5283SOL    HW216240   0.688   3.868   2.605 -1.4341 -1.3027  0.1319
 5284SOL     OW16241   3.521   3.090   1.072  0.1296  0.9178 -0.0693
 5284SOL    HW116242   3.430   3.064   1.086  0.2650  1.1756  1.4495
 5284SOL    HW216243   3.543   3.055   0.986 -1.2217  0.3611 -0.2157
 5285SOL     OW16244   1.114   0.476   5.531 -0.8155 -0.1700 -0.2258
 5285SOL    HW116245   1.208   0.485   5.511 -0.8758  0.4947 -0.2436
 5285SOL    HW216246   1.070   0.525   5.461 -1.3109 -2.3505 -1.5140
 5286SOL     OW16247   4.792   5.963   2.130  0.9740 -0.3781 -0.0119
 5286SOL    HW116248   4.803   6.037   2.070  0.8456 -0.7062 -0.4429
 5286SOL    HW216249   4.872   5.912   2.120  1.0650 -0.3016  0.2915
 5287SOL     OW16250   2.860   2.633   1.065 -0.5717 -0.2994  0.0120
 5287SOL    HW116251   2.912   2.665   1.138 -2.4127  2.3126  0.3225
 5287SOL    HW216252   2.904   2.668   0.987 -1.0732  0.8193  0.2027
 5288SOL     OW16253   5.852   6.100   5.184  0.0993 -0.0090 -0.1847
 5288SOL    HW116254   5.877   6.077   5.274 -1.5095 -2.1783 -0.2236
 5288SOL    HW216255   5.904   6.178   5.165  0.1516  0.8354  2.7903
 5289SOL     OW16256   3.501   5.055   2.813  0.6856 -0.8246  0.2106
 5289SOL    HW116257   3.486   5.142   2.774  0.9837 -1.2624 -0.9301
 5289SOL    HW216258   3.544   5.073   2.896  0.4421  0.1383  0.1405
 5290SOL     OW16259   2.007   1.797   6.666 -0.7017 -0.7884 -0.4170
 5290SOL    HW116260   1.935   1.771   6.724  0.1170 -0.9793  0.5322
 5290SOL    HW216261   2.070   1.725   6.673 -0.2641 -0.4680 -0.9935
 5291SOL     OW16262   1.784   2.119   1.846 -0.0921 -0.1470 -0.0085
 5291SOL    HW116263   1.810   2.170   1.769  0.4816  0.4647  0.5755
 5291SOL    HW216264   1.691   2.139   1.858 -0.2286 -0.3844 -0.6395
 5292SOL     OW16265   5.432   3.314   1.955 -0.0236 -0.5532  0.0023
 5292SOL    HW116266   5.496   3.265   2.007 -1.2266 -0.8270  1.2589
 5292SOL    HW216267   5.356   3.323   2.012 -0.3324  1.6713 -0.6657
 5293SOL     OW16268   6.114   2.056   1.638 -0.6974  0.2916  0.1092
 5293SOL    HW116269   6.086   2.084   1.725  0.6550 -0.3434  0.7765
 5293SOL    HW216270   6.191   2.002   1.654 -1.4036 -1.2125 -1.3718
 5294SOL     OW16271   1.885   6.064   3.063  0.1500 -0.2403 -0.2526
 5294SOL    HW116272   1.943   6.129   3.022  0.3119 -0.8269 -0.9868
 5294SOL    HW216273   1.809   6.060   3.005 -0.4075  0.1524  0.4346
 5295SOL     OW16274   5.302   2.927   5.023  0.3712  0.1044 -0.1034
 5295SOL    HW116275   5.346   2.883   4.950 -0.1935  2.7875 -2.1886
 5295SOL    HW216276   5.374   2.961   5.077  0.8262  0.2793 -0.8094
 5296SOL     OW16277   2.380   5.650   4.143 -0.2407 -0.8637 -0.1327
 5296SOL    HW116278   2.390   5.714   4.073 -0.9007 -1.4250 -0.7552
 5296SOL    HW216279   2.470   5.629   4.169 -0.0085 -0.1001 -0.2919
 5297SOL     OW16280   0.089   1.632   6.799  0.0298 -0.1211 -0.9377
 5297SOL    HW116281   0.172   1.681   6.799 -0.1153  0.3791  2.5707
 5297SOL    HW216282   0.022   1.699   6.792 -0.1867  0.6274  4.2971
 5298SOL     OW16283   4.866   2.290   6.334  1.1518 -0.0677  0.6232
 5298SOL    HW116284   4.872   2.201   6.297 -1.5327 -0.1526  0.1500
 5298SOL    HW216285   4.953   2.328   6.321  1.2694 -1.2062 -3.0071
 5299SOL     OW16286   2.404   4.555   3.331  0.3719  0.3071  0.1552
 5299SOL    HW116287   2.482   4.561   3.386 -1.7264  2.2057  3.1625
 5299SOL    HW216288   2.383   4.461   3.329  0.0700  0.2084  3.4587
 5300SOL     OW16289   6.633   4.157   5.318 -0.0970 -0.8544 -0.1275
 5300SOL    HW116290   6.639   4.204   5.402  0.8161 -0.5587 -0.3414
 5300SOL    HW216291   6.609   4.225   5.255  1.0801 -0.6829 -0.4129
 5301SOL     OW16292   1.934   3.774   6.540  0.2598 -0.0353 -0.1697
 5301SOL    HW116293   1.878   3.710   6.494  1.3840 -1.4138  0.3028
 5301SOL    HW216294   1.952   3.841   6.474 -2.2197  0.6817 -0.2314
 5302SOL     OW16295   2.277   6.145   0.357 -0.3093 -0.3236  0.0033
 5302SOL    HW116296   2.236   6.062   0.336  1.1793 -0.8578 -0.9379
 5302SOL    HW216297   2.369   6.123   0.374 -0.0115  1.0521  0.3119
 5303SOL     OW16298   4.550   3.779   6.707  0.0227 -0.4726 -0.0092
 5303SOL    HW116299   4.462   3.745   6.693 -0.2026  0.9303 -2.8178
 5303SOL    HW216300   4.594   3.713   6.761 -2.6285 -1.3208  1.2700
 5304SOL     OW16301   3.651   4.342   2.631 -0.1335  0.2971  0.1929
 5304SOL    HW116302   3.671   4.290   2.709  0.0460  0.4446  0.2473
 5304SOL    HW216303   3.623   4.427   2.666 -1.2359 -0.0271  0.1296
 5305SOL     OW16304   3.626   0.739   5.856  0.2197  0.1965 -0.4836
 5305SOL    HW116305   3.719   0.718   5.856 -0.0353 -1.0096 -1.3453
 5305SOL    HW216306   3.592   0.697   5.777 -1.3103 -0.5696  0.5385
 5306SOL     OW16307   1.934   3.438   2.896 -0.3265 -0.3567 -0.0676
 5306SOL    HW116308   1.854   3.479   2.864  0.5001  2.5874  1.3048
 5306SOL    HW216309   2.004   3.476   2.844  0.4059 -0.8157  0.5530
 5307SOL     OW16310   3.136   6.702   5.148  0.0232 -0.1725 -0.2152
 5307SOL    HW116311   3.134   6.608   5.129  2.0518  0.2151 -2.9365
 5307SOL    HW216312   3.225   6.718   5.182 -0.1435  0.8286 -0.2169
 5308SOL     OW16313   5.621   4.812   4.333  0.1697  0.4525  0.4418
 5308SOL    HW116314   5.630   4.826   4.239 -1.8707  0.1655  0.1652
 5308SOL    HW216315   5.647   4.721   4.346 -1.0678 -0.0062 -0.1225
 5309SOL     OW16316   6.002   6.395   2.713 -0.0830  0.5310 -0.0219
 5309SOL    HW116317   5.967   6.448   2.642  0.7235 -0.8626 -1.5094
 5309SOL    HW216318   5.927   6.347   2.747  0.0851 -1.6155 -2.4624
 5310SOL     OW16319   1.076   6.115   2.106  0.3245 -0.1249  0.2004
 5310SOL    HW116320   1.068   6.092   2.013 -0.5482 -0.8446  0.4383
 5310SOL    HW216321   1.095   6.209   2.106  0.0011 -0.0477 -0.6908
 5311SOL     OW16322   3.989   1.871   5.926 -0.9426  0.0702 -0.4022
 5311SOL    HW116323   4.076   1.911   5.923  0.2579 -2.3893 -1.3735
 5311SOL    HW216324   3.937   1.930   5.981  1.7570  0.8104  1.5336
 5312SOL     OW16325   2.810   6.746   6.725  0.8929 -0.0653 -0.3281
 5312SOL    HW116326   2.729   6.762   6.678  1.1002 -1.9413 -1.4315
 5312SOL    HW216327   2.794   6.664   6.773  1.9107 -0.1131 -0.0364
 5313SOL     OW16328   3.580   3.907   4.290  0.0231  0.8633  0.2699
 5313SOL    HW116329   3.652   3.916   4.227 -0.3150  0.3138 -0.1960
 5313SOL    HW216330   3.518   3.975   4.266 -1.3841 -1.0095 -1.7228
 5314SOL     OW16331   5.501   1.281   0.688 -0.0739  0.0832  0.1106
 5314SOL    HW116332   5.478   1.228   0.765 -0.5221 -0.8825 -0.6684
 5314SOL    HW216333   5.552   1.221   0.633  0.1766  0.7468 -0.3862
 5315SOL     OW16334   6.263   5.593   0.392  0.1616  0.0486  0.2572
 5315SOL    HW116335   6.256   5.512   0.342 -0.4701  0.2296  0.0364
 5315SOL    HW216336   6.176   5.634   0.383  0.6917  1.1037 -0.2409
 5316SOL     OW16337   5.042   2.325   2.408 -0.0779 -0.1218 -0.0085
 5316SOL    HW116338   4.951   2.339   2.382 -0.4649  0.0563  1.3954
 5316SOL    HW216339   5.067   2.405   2.453  0.9917  0.0862 -0.9241
 5317SOL     OW16340   6.807   0.696   5.568  0.2912  0.0872  0.1260
 5317SOL    HW116341   6.835   0.738   5.487  1.3970  0.5947  0.7486
 5317SOL    HW216342   6.812   0.602   5.550 -0.3704  0.2002 -0.6802
 5318SOL     OW16343   5.308   4.854   3.016  0.4574  0.3760  1.4417
 5318SOL    HW116344   5.252   4.896   2.951 -1.5292 -2.0804  1.4199
 5318SOL    HW216345   5.374   4.808   2.965 -1.9784 -2.7953  0.8742
 5319SOL     OW16346   0.499   6.060   0.702  0.3144  0.2539  0.0305
 5319SOL    HW116347   0.520   6.085   0.792  0.8213  1.6883 -0.4547
 5319SOL    HW216348   0.576   6.087   0.651  0.8557 -2.2289 -0.6067
 5320SOL     OW16349   3.646   6.471   1.914  0.1996 -0.1819  0.0739
 5320SOL    HW116350   3.626   6.388   1.957  0.3477  0.0672  0.6431
 5320SOL    HW216351   3.568   6.525   1.929 -0.0482 -0.3421 -0.6190
 5321SOL     OW16352   0.987   1.707   0.690  0.1233  0.8519  0.0164
 5321SOL    HW116353   1.028   1.772   0.633  0.2091  0.7356 -0.0547
 5321SOL    HW216354   0.952   1.758   0.763  1.9729  0.7974  1.0210
 5322SOL     OW16355   2.473   1.045   1.042  0.3260  0.2851 -0.1089
 5322SOL    HW116356   2.493   1.080   1.128 -2.5216 -2.1944  1.7292
 5322SOL    HW216357   2.559   1.038   0.999  1.7726  2.0849  2.2555
 5323SOL     OW16358   5.231   0.318   6.184 -0.2217 -0.4150 -0.0310
 5323SOL    HW116359   5.188   0.300   6.268  1.6259  0.7975  1.2433
 5323SOL    HW216360   5.174   0.380   6.140 -1.3125 -1.2173  0.1996
 5324SOL     OW16361   3.683   4.814   0.947  0.1252 -0.5902 -0.2178
 5324SOL    HW116362   3.662   4.892   0.895 -0.9769 -0.2506  0.7008
 5324SOL    HW216363   3.773   4.793   0.923  0.4476  0.9698 -0.4881
 5325SOL     OW16364   2.991   4.287   3.734  0.0676 -0.5445 -0.0225
 5325SOL    HW116365   3.016   4.308   3.644  1.3791  1.3781  0.7210
 5325SOL    HW216366   2.896   4.278   3.731 -0.0167  0.4834 -1.4193
 5326SOL     OW16367   4.713   5.331   2.115 -0.0544 -0.3522 -0.3332
 5326SOL    HW116368   4.627   5.374   2.124 -0.0141 -0.5646  1.2791
 5326SOL    HW216369   4.766   5.395   2.068 -0.7636  0.2629 -0.3203
 5327SOL     OW16370   1.835   5.123   5.456 -0.3984  0.0666  0.6152
 5327SOL    HW116371   1.823   5.049   5.396 -0.8033  0.6008  0.0261
 5327SOL    HW216372   1.746   5.154   5.474 -0.3019 -0.2575  1.7200
 5328SOL     OW16373   6.315   6.107   1.748  0.4044 -0.5890  0.6962
 5328SOL    HW116374   6.276   6.102   1.836 -0.9575  0.1675  0.1670
 5328SOL    HW216375   6.357   6.193   1.745 -2.3441  0.8650 -0.4102
 5329SOL     OW16376   4.398   6.704   0.484 -0.0339  0.5489 -0.2651
 5329SOL    HW116377   4.315   6.749   0.498  1.4187  3.2494  0.4782
 5329SOL    HW216378   4.453   6.768   0.440  1.9279 -0.8269  0.0311
 5330SOL     OW16379   4.711   0.023   4.910  0.1656 -0.1327  0.5339
 5330SOL    HW116380   4.766  -0.030   4.968 -0.1551  0.5296  1.4669
 5330SOL    HW216381   4.637  -0.034   4.890  1.5102 -1.3319 -1.3726
 5331SOL     OW16382   2.649   3.363   6.826 -0.1755  0.2781  0.6010
 5331SOL    HW116383   2.588   3.369   6.752  0.6118 -3.4146 -0.5987
 5331SOL    HW216384   2.610   3.297   6.884  0.7685  0.7792  1.8520
 5332SOL     OW16385   0.782   1.113   0.419 -0.2149  0.4826 -0.5927
 5332SOL    HW116386   0.771   1.206   0.438 -0.4104  0.3041  0.2364
 5332SOL    HW216387   0.696   1.085   0.387  0.0857  0.7629 -1.6872
 5333SOL     OW16388   4.204   2.953   5.345  0.1812  0.0018  0.0620
 5333SOL    HW116389   4.243   2.871   5.315  0.1746  0.5349 -1.4975
 5333SOL    HW216390   4.128   2.927   5.396  1.3248 -0.9992  1.3537
 5334SOL     OW16391   6.291   6.046   0.827 -1.0279  0.2224 -0.2080
 5334SOL    HW116392   6.292   6.027   0.921  0.4668 -1.2286 -0.4585
 5334SOL    HW216393   6.288   5.959   0.786 -0.8864  0.8121 -1.4999
 5335SOL     OW16394   4.435   2.414   4.134 -0.1469  0.7740 -0.2535
 5335SOL    HW116395   4.389   2.495   4.114 -1.1269  0.2492 -0.1854
 5335SOL    HW216396   4.477   2.431   4.218  0.7887  1.6645 -0.8794
 5336SOL     OW16397   2.447   6.814   5.858 -0.1647  0.0399  0.0635
 5336SOL    HW116398   2.502   6.872   5.805 -0.6857 -0.1381 -0.6782
 5336SOL    HW216399   2.398   6.873   5.915  0.0612  0.2605  0.0330
 5337SOL     OW16400   0.667   4.011   6.473  0.3502  0.2719  0.4504
 5337SOL    HW116401   0.625   3.958   6.406  1.0429 -2.1238  1.7991
 5337SOL    HW216402   0.754   4.030   6.438  0.3533 -0.0974  0.2607
 5338SOL     OW16403   6.187   0.442   5.817 -0.2458 -0.1083 -0.0410
 5338SOL    HW116404   6.237   0.514   5.856 -1.2836  0.3069  0.5653
 5338SOL    HW216405   6.248   0.368   5.816  0.4289  0.4255  0.5256
 5339SOL     OW16406   3.577   6.810   3.097 -0.8434 -0.1802  0.4465
 5339SOL    HW116407   3.669   6.781   3.093  0.5249  3.3033  2.1905
 5339SOL    HW216408   3.557   6.836   3.007 -0.1096 -0.9372  0.0428
 5340SOL     OW16409   3.275   6.600   5.879 -0.0256  0.3654 -0.1723
 5340SOL    HW116410   3.333   6.538   5.925 -1.3750 -0.4452  0.4780
 5340SOL    HW216411   3.314   6.686   5.896  1.0209 -0.1639  0.1941
 5341SOL     OW16412   1.211   0.372   6.699  0.4805  0.1014 -0.0140
 5341SOL    HW116413   1.125   0.350   6.663  0.0404  1.5480  0.0959
 5341SOL    HW216414   1.273   0.335   6.636 -0.1472 -1.9209  0.4602
 5342SOL     OW16415   1.400   1.011   0.611 -0.4864  0.4287 -0.0665
 5342SOL    HW116416   1.435   1.030   0.697 -2.2975  2.5013  0.2962
 5342SOL    HW216417   1.367   0.921   0.618  1.2204 -0.1666  0.7157
 5343SOL     OW16418   2.795   5.364   4.351 -0.0408 -0.0673 -0.5044
 5343SOL    HW116419   2.770   5.390   4.440 -0.1774 -1.2148 -0.1884
 5343SOL    HW216420   2.758   5.432   4.295 -0.4272  0.3833  0.2832
 5344SOL     OW16421   2.158   6.405   5.727 -0.2167  0.0879 -0.1211
 5344SOL    HW116422   2.188   6.331   5.674  0.0167  0.5291 -0.6110
 5344SOL    HW216423   2.228   6.470   5.718 -0.7690  0.6573 -0.2942
 5345SOL     OW16424   3.118   0.824   5.355  0.5175  0.0080  0.1750
 5345SOL    HW116425   3.114   0.743   5.304 -3.0004  0.1650 -0.0363
 5345SOL    HW216426   3.121   0.795   5.446  0.6069 -0.3408  0.0619
 5346SOL     OW16427   2.123   4.591   3.385  0.0545 -0.0808 -0.0205
 5346SOL    HW116428   2.207   4.571   3.426 -0.3242  0.0198  0.8305
 5346SOL    HW216429   2.110   4.684   3.401 -2.0287 -0.7422  3.4716
 5347SOL     OW16430   1.767   4.185   6.613 -0.6504 -0.0526 -0.0179
 5347SOL    HW116431   1.719   4.260   6.578  0.2379 -0.3922 -2.0867
 5347SOL    HW216432   1.705   4.112   6.607 -0.8707  0.1132  0.1952
 5348SOL     OW16433   5.569   5.814   3.837 -0.3599 -0.2613 -0.1217
 5348SOL    HW116434   5.621   5.886   3.873 -0.4775  0.0877 -0.6320
 5348SOL    HW216435   5.539   5.847   3.752 -0.2526 -0.9948 -0.4455
 5349SOL     OW16436   2.024   0.553   6.284 -0.7950  0.1006  0.3966
 5349SOL    HW116437   2.083   0.628   6.278 -0.1689 -0.4134 -0.0365
 5349SOL    HW216438   2.059   0.490   6.220 -0.1138 -1.3849  2.1638
 5350SOL     OW16439   1.117   2.584   6.680 -0.5845 -0.7265 -0.1799
 5350SOL    HW116440   1.070   2.522   6.624 -1.3729  1.3053 -1.9166
 5350SOL    HW216441   1.194   2.536   6.710 -0.7571 -2.3146 -2.0714
 5351SOL     OW16442   2.556   3.635   3.521 -0.3172 -0.3443  0.1547
 5351SOL    HW116443   2.601   3.650   3.605  0.7812 -0.4291 -0.4054
 5351SOL    HW216444   2.591   3.702   3.463 -0.8231 -0.5009 -0.3421
 5352SOL     OW16445   3.990   0.386   5.739  0.1837  0.5823 -0.1071
 5352SOL    HW116446   3.998   0.332   5.661 -0.0373 -0.4790  0.5890
 5352SOL    HW216447   4.068   0.366   5.791  0.1093  0.9521  0.1549
 5353SOL     OW16448   4.185   0.674   6.820  0.1255  0.2453  0.5436
 5353SOL    HW116449   4.269   0.650   6.860  1.3608 -0.4965 -2.2458
 5353SOL    HW216450   4.210   0.731   6.746 -1.6243 -1.3489 -1.4002
 5354SOL     OW16451   1.957   5.541   4.494 -0.0142  0.1304  0.1990
 5354SOL    HW116452   1.967   5.632   4.524 -1.9315  0.5639 -0.3355
 5354SOL    HW216453   2.044   5.517   4.462 -0.0951  2.8226 -2.4438
 5355SOL     OW16454   0.955   3.192   5.582  0.3464  0.5429 -0.4218
 5355SOL    HW116455   0.966   3.141   5.501 -0.7011 -0.9249  0.3235
 5355SOL    HW216456   1.039   3.182   5.628  0.8074  1.0626 -1.1252
 5356SOL     OW16457   0.235   4.004   1.067 -0.6498  0.2547 -0.9170
 5356SOL    HW116458   0.290   3.929   1.089 -1.3510 -0.0353 -0.0956
 5356SOL    HW216459   0.295   4.066   1.026  0.2587 -0.1347 -0.2197
 5357SOL     OW16460   0.033   0.405   4.121 -0.3684  0.3631  0.0189
 5357SOL    HW116461   0.101   0.339   4.111 -0.8394 -0.1041 -0.1172
 5357SOL    HW216462  -0.007   0.387   4.206  0.9519  1.8463  1.0341
 5358SOL     OW16463   4.878   3.979   6.018  0.4042  0.1100  0.3789
 5358SOL    HW116464   4.843   4.051   5.966 -1.9040  0.3462  2.1139
 5358SOL    HW216465   4.816   3.907   6.004  0.0265  0.0114  2.2788
 5359SOL     OW16466   2.380   2.995   5.054 -0.1349 -0.9334  0.4843
 5359SOL    HW116467   2.321   2.945   4.997 -0.4080 -1.4558  1.2119
 5359SOL    HW216468   2.467   2.974   5.021 -0.3484  0.6915 -1.2959
 5360SOL     OW16469   2.134   5.704   1.295  0.9875 -0.9912  0.1824
 5360SOL    HW116470   2.118   5.634   1.231 -0.0934 -0.3563 -0.2799
 5360SOL    HW216471   2.225   5.729   1.281  0.6741 -0.6158 -1.3953
 5361SOL     OW16472   4.751   2.290   4.419 -0.2750  0.3049 -0.2055
 5361SOL    HW116473   4.828   2.326   4.376 -0.1050  2.9649  2.0685
 5361SOL    HW216474   4.762   2.195   4.412  2.8046  0.5884 -0.6366
 5362SOL     OW16475   2.825   4.255   3.449 -0.5082 -0.4638  0.2754
 5362SOL    HW116476   2.809   4.256   3.543  0.0300 -0.7036  0.3710
 5362SOL    HW216477   2.781   4.177   3.417 -3.6627  1.3394 -0.2269
 5363SOL     OW16478   0.735   2.823   0.244  0.2803 -0.3172  0.5871
 5363SOL    HW116479   0.647   2.791   0.263 -1.0126  1.8538 -1.2427
 5363SOL    HW216480   0.734   2.915   0.270  2.3557 -0.4665  1.3986
 5364SOL     OW16481   4.052   1.046   0.702  0.2356  0.3754  0.0351
 5364SOL    HW116482   4.046   1.141   0.698  0.4418  0.3624 -0.7390
 5364SOL    HW216483   3.990   1.015   0.636  0.6138 -0.0100 -0.1424
 5365SOL     OW16484   5.363   0.697   4.056  0.4658  0.4356  0.2173
 5365SOL    HW116485   5.282   0.695   4.005  0.9936 -1.4242 -0.6304
 5365SOL    HW216486   5.345   0.645   4.133  1.3555 -1.6139 -0.8805
 5366SOL     OW16487   0.691   2.137   5.310  0.6408  0.3113  1.0228
 5366SOL    HW116488   0.626   2.200   5.278 -0.8370 -1.6807 -0.1371
 5366SOL    HW216489   0.753   2.129   5.238 -0.4444 -1.1689  0.1908
 5367SOL     OW16490   6.621   4.599   5.475  0.0112 -0.5407 -0.1431
 5367SOL    HW116491   6.676   4.521   5.479 -0.8969 -1.1507  1.2638
 5367SOL    HW216492   6.577   4.593   5.390 -1.2834 -2.4808  0.5834
 5368SOL     OW16493   1.350   5.030   2.066 -0.5415 -0.1888  0.6412
 5368SOL    HW116494   1.289   5.074   2.006  0.8869  3.4354  1.5660
 5368SOL    HW216495   1.300   5.018   2.147 -0.2699  2.5389  1.3142
 5369SOL     OW16496   6.731   2.545   3.302  0.0235  0.5101  0.0202
 5369SOL    HW116497   6.782   2.557   3.222  0.9493 -1.6491  0.2230
 5369SOL    HW216498   6.646   2.512   3.271 -0.1589  1.1129 -0.1375
 5370SOL     OW16499   1.132   5.465   5.544  0.0507 -0.0570  0.1054
 5370SOL    HW116500   1.142   5.548   5.497  0.3409  0.2994  0.7954
 5370SOL    HW216501   1.098   5.490   5.630 -0.8933 -0.7446 -0.0532
 5371SOL     OW16502   3.299   6.485   3.698 -0.4126 -0.4058  0.3782
 5371SOL    HW116503   3.328   6.434   3.623 -0.0873 -1.6166  1.2934
 5371SOL    HW216504   3.340   6.571   3.686 -0.5649 -0.5039 -0.9291
 5372SOL     OW16505   6.637   2.194   5.709  0.2394 -0.1435  0.3276
 5372SOL    HW116506   6.630   2.104   5.677 -2.6611 -0.6002  1.8913
 5372SOL    HW216507   6.723   2.223   5.679  0.6631 -2.8849 -1.5551
 5373SOL     OW16508   1.981   2.794   0.014 -0.0924  0.2232 -0.1253
 5373SOL    HW116509   1.972   2.823  -0.077  0.8905  1.0304  0.0129
 5373SOL    HW216510   1.901   2.744   0.032  0.1281 -0.7439 -1.7186
 5374SOL     OW16511   5.354   2.563   2.474 -0.6046 -0.0221 -0.2828
 5374SOL    HW116512   5.260   2.549   2.489 -0.2474 -1.4839  0.8237
 5374SOL    HW216513   5.390   2.580   2.561  0.3146 -0.5375 -0.5470
 5375SOL     OW16514   0.250   2.700   5.661  0.3365 -0.3658  0.0820
 5375SOL    HW116515   0.180   2.763   5.673 -0.9482 -1.9197  1.0448
 5375SOL    HW216516   0.217   2.619   5.698  2.5640 -1.2231  0.3743
 5376SOL     OW16517   6.233   2.284   4.278  0.6337  0.4426 -0.1116
 5376SOL    HW116518   6.165   2.295   4.211  1.3408 -0.0899 -0.9343
 5376SOL    HW216519   6.279   2.203   4.253  0.0177 -0.5794  1.8185
 5377SOL     OW16520   1.657   1.695   5.427 -0.1249  0.1206  0.0667
 5377SOL    HW116521   1.622   1.617   5.469 -0.8506  0.2421 -0.2873
 5377SOL    HW216522   1.580   1.750   5.411  0.3388  0.7830  0.0549
 5378SOL     OW16523   3.479   0.740   6.671 -0.2371  0.0473 -0.3505
 5378SOL    HW116524   3.548   0.717   6.608 -0.3866 -1.3606 -0.0160
 5378SOL    HW216525   3.432   0.658   6.687 -1.7374  0.8950 -0.2377
 5379SOL     OW16526   2.403   4.136   6.771 -0.2232  0.0415  0.3285
 5379SOL    HW116527   2.330   4.075   6.758 -0.0861 -0.0537 -0.0000
 5379SOL    HW216528   2.470   4.107   6.709  0.1739  0.0060  0.7681
 5380SOL     OW16529   5.434   6.313   6.237 -0.0333  0.1953 -0.6629
 5380SOL    HW116530   5.423   6.244   6.302 -2.6099 -0.6657 -1.8572
 5380SOL    HW216531   5.423   6.394   6.286  0.9182 -0.3082  0.4201
 5381SOL     OW16532   5.850   0.487   2.373  0.1703  0.2801 -0.1116
 5381SOL    HW116533   5.786   0.504   2.443  1.1760 -1.6033  1.3790
 5381SOL    HW216534   5.811   0.416   2.322  0.6420 -0.2311  0.2304
 5382SOL     OW16535   4.117   4.080   4.391  0.0237  0.3364 -0.0028
 5382SOL    HW116536   4.133   4.061   4.483 -1.0663  1.7505  0.5283
 5382SOL    HW216537   4.075   4.001   4.357 -0.3052  0.1009  0.9293
 5383SOL     OW16538   0.760   4.047   1.718 -0.0948  0.2283 -0.1566
 5383SOL    HW116539   0.799   3.982   1.660  0.0839 -1.1489  1.4284
 5383SOL    HW216540   0.823   4.120   1.718  0.4484 -0.2270 -0.7911
 5384SOL     OW16541   0.063   6.638   2.563 -0.3386 -0.1750 -0.2453
 5384SOL    HW116542   0.035   6.710   2.620 -1.5359  0.2161 -1.2826
 5384SOL    HW216543   0.141   6.603   2.606 -0.7617  0.5854  1.2321
 5385SOL     OW16544   4.205   0.533   1.613  0.0672 -0.5213  0.2581
 5385SOL    HW116545   4.145   0.590   1.660 -0.5256 -2.1933  1.6608
 5385SOL    HW216546   4.287   0.582   1.609 -0.1010  0.0562  2.3711
 5386SOL     OW16547   2.342   1.857   2.496  0.4979  0.6603 -0.0525
 5386SOL    HW116548   2.418   1.892   2.541  1.0182  0.8199 -1.0185
 5386SOL    HW216549   2.295   1.935   2.464 -0.6432  0.6063  1.4097
 5387SOL     OW16550   1.940   6.536   0.307 -0.2055 -0.0678 -0.3718
 5387SOL    HW116551   2.022   6.584   0.293  0.8342 -1.5303  0.4173
 5387SOL    HW216552   1.965   6.444   0.300 -2.1097 -0.5518 -1.7190
 5388SOL     OW16553   6.278   2.242   6.661  0.6307  0.2298 -0.3446
 5388SOL    HW116554   6.283   2.273   6.570 -0.8399  0.4838 -0.3649
 5388SOL    HW216555   6.205   2.181   6.662 -0.2692  1.2684  0.9366
 5389SOL     OW16556   5.689   2.497   3.867  0.2139 -0.3463 -0.3576
 5389SOL    HW116557   5.785   2.495   3.864  0.2607  0.2982  0.3588
 5389SOL    HW216558   5.662   2.422   3.814  1.1075 -0.2854 -0.9327
 5390SOL     OW16559   0.215   2.694   3.374 -0.4822  0.1564  0.5372
 5390SOL    HW116560   0.228   2.608   3.414  1.8113 -0.4712 -1.3070
 5390SOL    HW216561   0.187   2.675   3.285  0.9384  1.2355 -0.1896
 5391SOL     OW16562   4.192   1.529   3.644 -0.5124  0.6745 -0.7633
 5391SOL    HW116563   4.175   1.453   3.590  1.9534 -1.5125  1.2924
 5391SOL    HW216564   4.123   1.527   3.711  0.2484 -0.5422  0.0104
 5392SOL     OW16565   2.331   1.614   4.896 -0.4820 -0.3648  0.3001
 5392SOL    HW116566   2.357   1.567   4.976 -0.3514 -1.7148 -0.5055
 5392SOL    HW216567   2.406   1.670   4.875 -0.9202  0.7960  1.6717
 5393SOL     OW16568   3.561   4.000   4.658  0.3534 -0.8523  0.2661
 5393SOL    HW116569   3.614   4.073   4.689  0.0889 -1.5393  2.4774
 5393SOL    HW216570   3.612   3.962   4.586 -0.3793  2.5850 -2.3533
 5394SOL     OW16571   1.343   2.393   1.968 -0.7173 -0.2912  0.3185
 5394SOL    HW116572   1.283   2.398   1.894 -1.5090 -0.4007  0.9428
 5394SOL    HW216573   1.293   2.352   2.038  0.1775 -0.6611  0.7693
 5395SOL     OW16574   3.024   2.932   6.114 -0.1445 -0.2083 -0.0779
 5395SOL    HW116575   3.081   2.862   6.145 -0.2675  0.6355  2.3196
 5395SOL    HW216576   3.029   2.927   6.019  1.3393 -2.2293  0.0339
 5396SOL     OW16577   0.868   3.096   0.447 -0.1773  0.0325  0.2261
 5396SOL    HW116578   0.932   3.167   0.448  1.1670 -1.1174  1.4536
 5396SOL    HW216579   0.785   3.137   0.471  0.3093  1.3781 -0.2938
 5397SOL     OW16580   6.580   5.403   6.646 -0.3773  0.1569 -0.3019
 5397SOL    HW116581   6.666   5.435   6.671  0.4623  0.1404 -2.8650
 5397SOL    HW216582   6.589   5.307   6.645 -0.9133  0.0723  0.8780
 5398SOL     OW16583   4.062   2.442   4.342  0.1993 -0.4844  0.6483
 5398SOL    HW116584   4.001   2.470   4.410 -0.1290  2.5103 -0.7212
 5398SOL    HW216585   4.149   2.459   4.379  0.0451  0.3340  0.6384
 5399SOL     OW16586   0.261   2.808   4.603 -0.0351  0.0581 -0.0580
 5399SOL    HW116587   0.345   2.787   4.642  0.2158 -0.0531 -0.6440
 5399SOL    HW216588   0.277   2.887   4.552 -1.0295  1.9137  2.3366
 5400SOL     OW16589   0.319   2.406   2.849  0.1902 -0.4081  0.1982
 5400SOL    HW116590   0.240   2.459   2.853  1.5341  1.7516  0.0742
 5400SOL    HW216591   0.345   2.408   2.757  0.7106 -0.5769  0.3362
 5401SOL     OW16592   5.616   3.532   4.305  0.2275 -0.5092  0.4327
 5401SOL    HW116593   5.536   3.585   4.297 -0.2407 -0.5135  3.6942
 5401SOL    HW216594   5.584   3.442   4.319  0.7246 -0.4785  1.9912
 5402SOL     OW16595   3.438   3.539   3.170  0.2473 -0.2321  0.2687
 5402SOL    HW116596   3.458   3.532   3.264  0.4178  0.6982  0.3059
 5402SOL    HW216597   3.515   3.581   3.132 -0.3665  0.5943 -0.0786
 5403SOL     OW16598   4.888   6.513   4.671 -0.1305  0.6000  0.0830
 5403SOL    HW116599   4.922   6.424   4.661  0.0872  0.2213  3.2090
 5403SOL    HW216600   4.818   6.519   4.606 -0.6679 -2.1615  0.2747
 5404SOL     OW16601   5.487   5.312   1.337  0.0492 -0.5316  0.6315
 5404SOL    HW116602   5.500   5.355   1.421 -0.2131 -0.2278  0.5203
 5404SOL    HW216603   5.394   5.290   1.335 -0.5571  1.7783 -0.6381
 5405SOL     OW16604   5.379   4.513   4.339 -0.2831  0.0256  0.4635
 5405SOL    HW116605   5.368   4.602   4.371 -0.6580  0.7772 -1.5884
 5405SOL    HW216606   5.474   4.498   4.342 -0.1430  0.8018  0.1041
 5406SOL     OW16607   5.260   0.791   3.422  0.3908  0.3049 -0.1292
 5406SOL    HW116608   5.299   0.850   3.358  0.0300 -0.8270 -1.4617
 5406SOL    HW216609   5.180   0.835   3.451 -0.9104 -0.2825 -2.5510
 5407SOL     OW16610   5.653   1.045   1.724  0.0934  0.0714 -0.0085
 5407SOL    HW116611   5.722   1.099   1.686 -1.3173  1.1483 -1.1597
 5407SOL    HW216612   5.632   1.088   1.807 -1.4742  1.7901 -1.2141
 5408SOL     OW16613   2.787   5.987   6.379  0.4084  0.3695 -0.0357
 5408SOL    HW116614   2.732   6.045   6.327  0.4137  0.6710  0.2934
 5408SOL    HW216615   2.821   5.923   6.316  0.3008  0.6467 -0.3750
 5409SOL     OW16616   1.591   2.272   3.482 -0.1777  0.0168  0.0506
 5409SOL    HW116617   1.546   2.324   3.548 -0.6199  0.1375 -0.3392
 5409SOL    HW216618   1.665   2.327   3.455  1.2081 -0.8441  1.8554
 5410SOL     OW16619   2.035   5.583   2.843  0.1629 -0.4764  0.0889
 5410SOL    HW116620   1.997   5.669   2.829 -0.5168 -0.5827  1.1306
 5410SOL    HW216621   2.030   5.570   2.938  2.7783 -0.5095  0.2923
 5411SOL     OW16622   3.267   3.074   5.528  0.1894 -0.2908 -0.1291
 5411SOL    HW116623   3.239   3.013   5.460 -1.5452 -0.0849  0.3263
 5411SOL    HW216624   3.358   3.093   5.509  0.5673 -2.4661 -0.6983
 5412SOL     OW16625   6.377   5.164   1.537 -0.3358  0.0583  0.0113
 5412SOL    HW116626   6.377   5.101   1.465 -0.5337 -0.4937  0.4904
 5412SOL    HW216627   6.323   5.123   1.605  1.3293 -0.2523  1.1955
 5413SOL     OW16628   3.646   0.661   3.914 -0.7742  0.0272  0.1381
 5413SOL    HW116629   3.686   0.583   3.876 -0.6924 -0.8399  1.8677
 5413SOL    HW216630   3.721   0.714   3.944 -0.8499  0.2865 -0.1291
 5414SOL     OW16631   3.427   5.890   5.131  0.7938  0.5341 -0.0013
 5414SOL    HW116632   3.517   5.881   5.101  0.5494  0.9830 -0.8801
 5414SOL    HW216633   3.373   5.866   5.056  0.1784  0.6972  0.3776
 5415SOL     OW16634   6.380   3.366   5.124  0.3868 -0.8980 -0.2970
 5415SOL    HW116635   6.433   3.440   5.097 -0.2999 -0.6643 -1.0607
 5415SOL    HW216636   6.382   3.367   5.220 -1.6030  1.6034 -0.1953
 5416SOL     OW16637   6.801   0.313   4.931 -0.6947 -0.1056  0.1279
 5416SOL    HW116638   6.872   0.261   4.968 -1.5596 -0.5957  1.1377
 5416SOL    HW216639   6.836   0.402   4.927  0.5652 -0.6204 -0.9997
 5417SOL     OW16640   3.465   0.812   2.544  0.9164  0.9139 -0.3919
 5417SOL    HW116641   3.499   0.900   2.528  2.5793  0.4708  0.5042
 5417SOL    HW216642   3.520   0.755   2.490  2.4528  0.0754  1.8918
 5418SOL     OW16643   2.989   4.735   6.161  0.1763 -0.1284  0.4643
 5418SOL    HW116644   3.026   4.822   6.176  1.0399 -0.4718  0.3386
 5418SOL    HW216645   2.973   4.731   6.067 -0.4406  0.1149  0.5522
 5419SOL     OW16646   2.833   5.629   0.730 -0.4807 -0.7327  0.0379
 5419SOL    HW116647   2.899   5.640   0.799 -1.8674  1.6418  1.1292
 5419SOL    HW216648   2.877   5.579   0.662  2.7591  1.4539  0.3129
 5420SOL     OW16649   0.592   2.411   1.441  0.0552  0.0983 -0.2753
 5420SOL    HW116650   0.527   2.406   1.370 -0.7142  1.3102  0.2978
 5420SOL    HW216651   0.637   2.494   1.425 -0.5033  0.6574  0.9514
 5421SOL     OW16652   4.392   2.636   0.156  0.1341  0.3715  0.5251
 5421SOL    HW116653   4.368   2.543   0.156  1.8423 -0.0935 -0.1172
 5421SOL    HW216654   4.340   2.674   0.084 -0.8981  0.0238  1.0695
 5422SOL     OW16655   1.969   2.213   5.888  0.0198 -0.0016 -0.4160
 5422SOL    HW116656   1.926   2.291   5.854 -0.8237 -0.7356 -1.0833
 5422SOL    HW216657   2.057   2.242   5.913 -0.8129  1.5040  0.8721
 5423SOL     OW16658   2.362   4.030   3.583 -0.3040 -0.5562  0.2385
 5423SOL    HW116659   2.278   3.999   3.548 -0.3615 -0.7130  0.5085
 5423SOL    HW216660   2.374   3.979   3.663  0.7157 -1.5069 -0.5028
 5424SOL     OW16661   1.473   6.483   4.271  0.5288 -0.1229  0.0671
 5424SOL    HW116662   1.535   6.493   4.198  0.5666 -2.6829 -0.3193
 5424SOL    HW216663   1.397   6.535   4.245  2.0064  2.2041  0.0549
 5425SOL     OW16664   0.571   0.767   2.675  0.0329  0.2203 -0.1907
 5425SOL    HW116665   0.586   0.855   2.642  2.3008  0.1605  0.4890
 5425SOL    HW216666   0.476   0.755   2.670 -0.1805  2.0857 -1.7709
 5426SOL     OW16667   2.954   5.120   4.632  0.0905 -0.3440  0.1649
 5426SOL    HW116668   3.033   5.072   4.652 -0.3222 -1.4415 -0.7315
 5426SOL    HW216669   2.933   5.169   4.712  1.3767 -0.4254  0.5630
 5427SOL     OW16670   4.961   2.743   6.780  0.1743 -0.0993 -0.4589
 5427SOL    HW116671   4.931   2.653   6.769 -1.1469  0.1852  0.6325
 5427SOL    HW216672   4.884   2.796   6.763  0.7622  0.7998 -0.3571
 5428SOL     OW16673   2.364   1.267   5.465 -0.3446 -0.0560  0.0123
 5428SOL    HW116674   2.440   1.305   5.421  1.3296 -0.0175  2.6841
 5428SOL    HW216675   2.384   1.174   5.471 -0.8353 -0.1548  0.1844
 5429SOL     OW16676   5.187   3.564   1.541 -0.5317 -0.2701  0.1509
 5429SOL    HW116677   5.254   3.624   1.509 -0.0693 -1.2474 -0.7797
 5429SOL    HW216678   5.156   3.604   1.622  1.7223 -0.1734  1.0386
 5430SOL     OW16679   4.815   4.836   4.465 -0.6101 -0.2192  0.2088
 5430SOL    HW116680   4.826   4.922   4.425  0.2792 -0.0814  0.7036
 5430SOL    HW216681   4.806   4.776   4.392 -0.7849  0.2407 -0.1511
 5431SOL     OW16682   2.420   3.206   1.768  0.1220 -0.1025 -0.2874
 5431SOL    HW116683   2.326   3.199   1.751 -0.0695  0.4146  0.5054
 5431SOL    HW216684   2.459   3.137   1.714 -0.7121 -0.3256 -0.6225
 5432SOL     OW16685   5.060   6.192   6.206  0.2594 -0.2639  0.3944
 5432SOL    HW116686   5.092   6.175   6.294 -1.5304 -4.1466  0.4687
 5432SOL    HW216687   5.119   6.143   6.149 -0.9147 -1.0596 -0.1605
 5433SOL     OW16688   6.042   1.265   5.329 -0.1587  0.3249 -0.4726
 5433SOL    HW116689   6.107   1.335   5.321 -1.3799  1.5534 -0.1629
 5433SOL    HW216690   6.025   1.258   5.423  1.1216 -1.5535 -0.3428
 5434SOL     OW16691   2.604   5.039   6.748  0.3056 -0.1972  0.7920
 5434SOL    HW116692   2.592   5.127   6.783 -2.1725 -0.4436  0.7600
 5434SOL    HW216693   2.554   4.983   6.807 -0.3775 -1.1964 -0.6765
 5435SOL     OW16694   1.642   2.757   5.008  0.0364  0.1738  0.2107
 5435SOL    HW116695   1.650   2.803   5.091 -0.9492  0.8447 -0.0543
 5435SOL    HW216696   1.606   2.821   4.947  1.1791 -0.1593 -0.8851
 5436SOL     OW16697   5.408   5.521   2.150  0.7784 -0.2550 -0.7203
 5436SOL    HW116698   5.458   5.465   2.208 -0.4887 -2.1329 -1.3428
 5436SOL    HW216699   5.473   5.573   2.103  1.9365 -0.5591  0.5066
 5437SOL     OW16700   6.323   0.055   0.864  0.0122 -0.6752  0.1668
 5437SOL    HW116701   6.333   0.114   0.790  0.1074 -0.0808  0.6454
 5437SOL    HW216702   6.412   0.042   0.897 -0.1564  0.1618  1.0054
 5438SOL     OW16703   6.616   1.198   6.265  0.1011 -0.0661  0.4980
 5438SOL    HW116704   6.710   1.189   6.278 -0.2534 -2.1938  2.2887
 5438SOL    HW216705   6.596   1.288   6.291  1.7834  0.9648 -1.4662
 5439SOL     OW16706   5.853   6.377   6.366 -0.3807  0.3293 -0.2822
 5439SOL    HW116707   5.790   6.383   6.295  2.2063  0.4033 -2.7400
 5439SOL    HW216708   5.809   6.417   6.441 -3.5436 -0.4994 -1.5495
 5440SOL     OW16709   2.073   3.246   1.880  0.3680 -0.2321  0.1849
 5440SOL    HW116710   1.978   3.254   1.885  0.4325  0.9301 -0.0880
 5440SOL    HW216711   2.092   3.162   1.922 -0.6955  0.0035  1.1980
 5441SOL     OW16712   3.434   3.619   2.063 -0.4123 -0.1583  0.3644
 5441SOL    HW116713   3.503   3.601   1.999 -0.6077  0.0352  0.0898
 5441SOL    HW216714   3.357   3.573   2.028 -0.6921  0.4912  0.1021
 5442SOL     OW16715   6.620   2.843   5.222  0.1965 -0.2647  0.0531
 5442SOL    HW116716   6.671   2.878   5.295  0.0137 -0.3394  0.2177
 5442SOL    HW216717   6.540   2.811   5.262  0.3984 -0.9613 -0.0849
 5443SOL     OW16718   2.284   2.147   0.686  0.1897  0.2709 -0.2883
 5443SOL    HW116719   2.229   2.142   0.609 -0.7139 -0.3996  0.3720
 5443SOL    HW216720   2.327   2.061   0.691 -0.9177 -0.2501  0.7638
 5444SOL     OW16721   3.721   1.894   2.683 -0.0864  0.3062  0.5434
 5444SOL    HW116722   3.750   1.804   2.698 -0.1491  0.2570  0.3730
 5444SOL    HW216723   3.641   1.902   2.735 -1.3850 -0.4702 -1.2336
 5445SOL     OW16724   0.981   5.757   2.627  0.3777  0.3308 -0.0951
 5445SOL    HW116725   0.958   5.850   2.638 -0.4008  0.1233  0.0739
 5445SOL    HW216726   0.899   5.714   2.605  0.6976 -0.3553  0.0178
 5446SOL     OW16727   4.857   5.223   3.893 -0.8040  0.0424  0.4173
 5446SOL    HW116728   4.764   5.242   3.890 -0.5769  1.2770  0.5909
 5446SOL    HW216729   4.892   5.263   3.814 -0.5058 -0.9328  0.0501
 5447SOL     OW16730   2.207   2.337   0.366 -0.8712 -0.7684  0.1937
 5447SOL    HW116731   2.245   2.359   0.281 -2.0716 -2.0675 -0.7204
 5447SOL    HW216732   2.208   2.420   0.415 -0.4840  0.0786 -1.1999
 5448SOL     OW16733   1.443   4.795   1.292 -0.2595  0.3124  0.6370
 5448SOL    HW116734   1.363   4.783   1.344 -0.6932 -1.1147 -0.3174
 5448SOL    HW216735   1.496   4.719   1.313 -0.5621 -0.4499 -1.1826
 5449SOL     OW16736   3.475   5.318   1.625  0.3215  0.0283  0.4038
 5449SOL    HW116737   3.456   5.390   1.686 -0.2176  0.1615  0.0842
 5449SOL    HW216738   3.461   5.355   1.538 -1.7813 -0.9390  0.2745
 5450SOL     OW16739   4.394   3.955   4.636  0.0547 -0.3874  0.6322
 5450SOL    HW116740   4.424   3.955   4.545  1.8150  0.4863  1.1719
 5450SOL    HW216741   4.353   3.869   4.647 -0.7146 -0.2860 -1.1315
 5451SOL     OW16742   5.180   3.948   4.347  0.2494 -0.0359 -0.1553
 5451SOL    HW116743   5.242   4.015   4.376  0.1013 -0.6284  1.6759
 5451SOL    HW216744   5.205   3.870   4.396 -1.8061 -0.3378  0.5144
 5452SOL     OW16745   4.166   3.396   3.422 -0.2787  0.6468  0.3239
 5452SOL    HW116746   4.092   3.422   3.478 -1.1796  1.0143 -0.9916
 5452SOL    HW216747   4.193   3.311   3.457 -1.4460  0.4143  0.7315
 5453SOL     OW16748   1.460   3.996   4.321  0.1790 -0.0532  0.5352
 5453SOL    HW116749   1.481   3.931   4.253  1.4188  0.5484  0.3164
 5453SOL    HW216750   1.428   3.943   4.395 -0.0189 -0.8102 -0.0744
 5454SOL     OW16751   2.881   5.726   1.041 -0.1425  0.2321  0.1354
 5454SOL    HW116752   2.910   5.779   0.966 -1.7184  0.3431 -0.4322
 5454SOL    HW216753   2.947   5.658   1.049 -1.1865 -1.3380 -3.0039
 5455SOL     OW16754   5.035   2.687   0.215 -0.1065  0.2290  0.0003
 5455SOL    HW116755   5.019   2.734   0.134 -0.4468  1.0219  0.5167
 5455SOL    HW216756   5.120   2.718   0.244  0.2417 -0.4282 -0.3036
 5456SOL     OW16757   4.943   0.660   6.662  0.2328 -0.5440 -0.6087
 5456SOL    HW116758   5.024   0.628   6.703 -0.1343 -0.0244  0.5799
 5456SOL    HW216759   4.970   0.690   6.576  1.1374 -1.2408 -0.5890
 5457SOL     OW16760   5.441   3.244   3.399  0.0280  0.6941  0.2287
 5457SOL    HW116761   5.431   3.200   3.483  0.2814 -0.2149 -0.2028
 5457SOL    HW216762   5.364   3.301   3.391 -1.1091 -0.8180  0.1204
 5458SOL     OW16763   3.078   3.660   6.416 -0.3457 -0.3453 -1.0151
 5458SOL    HW116764   3.038   3.741   6.383  0.0716  0.6684  0.8168
 5458SOL    HW216765   3.114   3.618   6.339 -0.6905  1.1595 -2.0398
 5459SOL     OW16766   6.820   5.203   3.131 -0.0109 -0.5251  0.4088
 5459SOL    HW116767   6.910   5.236   3.143 -0.8404  1.9046  0.5869
 5459SOL    HW216768   6.783   5.203   3.219 -0.8847  0.7983  0.0656
 5460SOL     OW16769   0.149   2.181   0.987  0.0314  0.2797 -0.0096
 5460SOL    HW116770   0.062   2.154   0.961  0.5490 -0.5278 -0.9720
 5460SOL    HW216771   0.156   2.272   0.959 -0.8067  0.6365  0.9001
 5461SOL     OW16772   2.114   2.988   0.809 -0.0461 -0.1749  0.4130
 5461SOL    HW116773   2.097   3.040   0.731  0.5656 -1.1841 -0.4076
 5461SOL    HW216774   2.183   3.036   0.855 -0.1486  0.2259  0.1591
 5462SOL     OW16775   6.418   4.455   3.637 -0.0998  0.0998 -0.2448
 5462SOL    HW116776   6.448   4.545   3.634 -3.6630  1.4605  0.3081
 5462SOL    HW216777   6.434   4.427   3.727 -0.1702  0.6498 -0.0615
 5463SOL     OW16778   1.891   5.847   4.642  1.1938  0.1809 -0.2591
 5463SOL    HW116779   1.904   5.829   4.735 -0.1531 -0.1997 -0.1140
 5463SOL    HW216780   1.971   5.891   4.614  1.5043  0.5529  1.1432
 5464SOL     OW16781   4.296   2.310   2.251 -0.1601  0.0784 -0.1570
 5464SOL    HW116782   4.238   2.369   2.202  0.2583 -0.9718 -2.0188
 5464SOL    HW216783   4.241   2.275   2.322 -1.0027  1.1187 -0.2721
 5465SOL     OW16784   3.707   6.184   6.274  0.0991  0.2598  0.0766
 5465SOL    HW116785   3.670   6.152   6.356  1.0463  1.0839  0.8408
 5465SOL    HW216786   3.671   6.273   6.265  0.8144  0.5573  0.1337
 5466SOL     OW16787   4.231   3.709   5.001 -0.2546  1.0384  0.3325
 5466SOL    HW116788   4.289   3.720   4.926  1.3901 -1.6597  1.0503
 5466SOL    HW216789   4.225   3.796   5.040  1.9242  1.7743 -0.8080
 5467SOL     OW16790   0.765   2.026   5.736  0.2586 -0.0190  0.3172
 5467SOL    HW116791   0.698   1.962   5.715 -0.5333  1.4233 -1.8803
 5467SOL    HW216792   0.759   2.037   5.831 -2.2021 -0.3774  0.2696
 5468SOL     OW16793   3.271   2.846   2.122 -0.1599 -0.3188  0.4550
 5468SOL    HW116794   3.310   2.791   2.191  2.1649 -1.9875 -1.9868
 5468SOL    HW216795   3.343   2.862   2.061 -2.1952  0.7349 -1.8112
 5469SOL     OW16796   0.986   5.854   5.928  0.1518 -0.2283  0.1194
 5469SOL    HW116797   1.013   5.892   6.012  0.1518  0.4173 -0.1728
 5469SOL    HW216798   0.942   5.772   5.953 -3.4072  1.7770  1.1240
 5470SOL     OW16799   6.396   6.141   5.909  0.0061 -0.4704  0.1913
 5470SOL    HW116800   6.313   6.181   5.936 -0.2140 -0.9452  0.2319
 5470SOL    HW216801   6.416   6.078   5.978  0.0822 -0.7982 -0.1262
 5471SOL     OW16802   2.644   1.893   2.147  0.5060  0.4027 -0.1474
 5471SOL    HW116803   2.658   1.851   2.232 -0.0920  0.0177 -0.2300
 5471SOL    HW216804   2.625   1.820   2.088  1.2894  0.6297 -0.6975
 5472SOL     OW16805   5.586   3.358   0.164 -1.1358  0.1571 -0.1778
 5472SOL    HW116806   5.638   3.281   0.138 -3.2664 -1.2382 -0.5667
 5472SOL    HW216807   5.528   3.373   0.089 -0.4225  2.5533 -0.3432
 5473SOL     OW16808   1.044   3.024   0.255 -0.3324 -0.3302  0.0346
 5473SOL    HW116809   1.103   2.949   0.265  0.2004 -0.0215 -0.6894
 5473SOL    HW216810   0.993   3.025   0.335 -1.2005 -2.2000 -0.4426
 5474SOL     OW16811   1.049   5.359   6.549 -0.1391 -0.5261  0.2637
 5474SOL    HW116812   1.114   5.336   6.615  0.1415  1.2781  0.6649
 5474SOL    HW216813   1.021   5.275   6.513  3.6517 -1.3985 -1.1566
 5475SOL     OW16814   3.761   3.916   4.894  0.3314  0.6163  0.0389
 5475SOL    HW116815   3.782   3.948   4.982 -2.1187 -0.9141  1.3025
 5475SOL    HW216816   3.682   3.964   4.869 -0.2079 -0.4739 -0.4036
 5476SOL     OW16817   0.434   3.232   1.470 -0.8230 -0.0893 -0.1175
 5476SOL    HW116818   0.434   3.184   1.387  0.1528  1.2615 -0.9317
 5476SOL    HW216819   0.485   3.177   1.529  0.7448  0.1448 -1.1892
 5477SOL     OW16820   6.096   2.745   3.576 -0.2219  0.0722  0.0584
 5477SOL    HW116821   6.068   2.713   3.662  2.9237  0.6625  1.4479
 5477SOL    HW216822   6.108   2.839   3.587 -2.2761  0.6613 -1.8771
 5478SOL     OW16823   4.818   5.506   4.529  0.8969  0.7002 -0.0259
 5478SOL    HW116824   4.800   5.581   4.585 -1.5637  0.2182 -0.0503
 5478SOL    HW216825   4.742   5.449   4.540  1.8171 -0.9007 -1.4555
 5479SOL     OW16826   4.271   1.522   1.789  0.0319 -0.0232  0.5018
 5479SOL    HW116827   4.275   1.531   1.694 -0.7657  0.1089  0.4745
 5479SOL    HW216828   4.199   1.461   1.804  1.1400 -1.2700  0.9656
 5480SOL     OW16829   0.654   2.696   1.422 -0.3453  0.4035  0.1793
 5480SOL    HW116830   0.574   2.708   1.473 -1.3696 -0.3454 -1.2041
 5480SOL    HW216831   0.661   2.776   1.369  0.1137  0.6783  0.6325
 5481SOL     OW16832   5.258   2.450   3.738 -0.3146 -0.4660  0.0388
 5481SOL    HW116833   5.202   2.401   3.799 -1.5387  0.1220 -0.5758
 5481SOL    HW216834   5.343   2.407   3.745 -1.3020 -2.6776 -0.4260
 5482SOL     OW16835   2.492   5.748   3.879 -0.0814 -0.0962  0.4804
 5482SOL    HW116836   2.584   5.772   3.890  0.4064 -0.8179 -1.5506
 5482SOL    HW216837   2.450   5.827   3.845  0.4286 -0.5368 -1.2805
 5483SOL     OW16838   1.316   5.415   5.270 -0.3812  0.2907 -0.1258
 5483SOL    HW116839   1.334   5.396   5.178 -0.2462 -0.8549  0.1208
 5483SOL    HW216840   1.381   5.481   5.294  0.3726 -0.2795 -0.5458
 5484SOL     OW16841   1.525   2.471   3.140 -0.5255 -0.5313 -0.6575
 5484SOL    HW116842   1.551   2.553   3.098 -1.6368  0.9839  1.4038
 5484SOL    HW216843   1.595   2.452   3.202 -1.3448  0.1771  0.5212
 5485SOL     OW16844   3.559   1.498   3.216 -0.8024 -0.3035  0.1615
 5485SOL    HW116845   3.572   1.409   3.184 -0.3922 -0.2301  0.1195
 5485SOL    HW216846   3.489   1.490   3.281 -0.1107 -0.8231  0.8658
 5486SOL     OW16847   4.337   4.942   4.251  0.3555 -0.1723 -0.3925
 5486SOL    HW116848   4.312   4.853   4.229  0.3432 -0.0965 -0.6947
 5486SOL    HW216849   4.380   4.975   4.172  0.0785  0.1948 -0.3939
 5487SOL     OW16850   1.503   6.318   3.627 -0.1573 -0.3159 -0.6908
 5487SOL    HW116851   1.577   6.258   3.625  0.2564  0.1432  0.2080
 5487SOL    HW216852   1.540   6.404   3.608 -0.3241  0.0212  0.4153
 5488SOL     OW16853   6.055   2.218   2.953 -0.3714 -0.0263 -0.1964
 5488SOL    HW116854   5.977   2.262   2.988  0.6023  2.7394 -1.2674
 5488SOL    HW216855   6.080   2.270   2.877  1.5963 -1.8239 -0.8741
 5489SOL     OW16856   5.129   2.597   3.565  0.3238  0.1987  0.3180
 5489SOL    HW116857   5.175   2.546   3.632  1.5558  2.6476  1.5159
 5489SOL    HW216858   5.073   2.656   3.616 -0.3162  0.6844 -0.9282
 5490SOL     OW16859   2.859   3.034   3.915  0.1726 -0.3678  0.5483
 5490SOL    HW116860   2.949   3.004   3.926  0.3468 -0.3797 -0.7067
 5490SOL    HW216861   2.808   2.954   3.902 -0.1378 -0.4047  1.9266
 5491SOL     OW16862   1.760   4.238   4.707 -0.5939 -0.0452 -0.2593
 5491SOL    HW116863   1.756   4.328   4.673  0.8721 -0.4226 -1.5249
 5491SOL    HW216864   1.834   4.240   4.768 -1.9784  0.1272  1.5089
 5492SOL     OW16865   5.713   3.122   5.227 -0.1162  0.2607  0.2039
 5492SOL    HW116866   5.721   3.114   5.322 -1.7983 -1.2670  0.2757
 5492SOL    HW216867   5.627   3.084   5.207  0.1600  0.6340 -1.9190
 5493SOL     OW16868   6.559   5.292   3.600 -0.1948  0.2725 -0.1178
 5493SOL    HW116869   6.524   5.288   3.689 -2.7275 -0.8814 -1.0909
 5493SOL    HW216870   6.520   5.370   3.562  0.6287  0.5887 -0.3315
 5494SOL     OW16871   3.654   0.648   0.803  0.0028 -0.0571  0.1018
 5494SOL    HW116872   3.704   0.730   0.809  0.3370 -0.3413  1.8009
 5494SOL    HW216873   3.716   0.581   0.830 -0.8952 -0.5945  0.8740
 5495SOL     OW16874   2.547   5.319   0.661  0.6554  0.1172 -0.0255
 5495SOL    HW116875   2.569   5.403   0.700  1.7691  0.1326 -0.6592
 5495SOL    HW216876   2.605   5.311   0.586  1.5478 -1.8383  0.8029
 5496SOL     OW16877   2.570   4.657   2.590 -0.0568  0.8074 -0.0840
 5496SOL    HW116878   2.566   4.594   2.662  1.1958 -0.4151 -1.0383
 5496SOL    HW216879   2.481   4.659   2.555 -0.1694 -0.2646  0.1166
 5497SOL     OW16880   6.820   5.545   6.151 -0.0448 -0.5365 -0.0611
 5497SOL    HW116881   6.812   5.466   6.204 -1.7636 -0.6781 -0.4757
 5497SOL    HW216882   6.899   5.531   6.099  0.7286 -1.1368  1.2132
 5498SOL     OW16883   1.433   2.470   0.551  0.1332 -0.2261 -0.0338
 5498SOL    HW116884   1.448   2.447   0.459 -0.8052  1.2858 -0.5990
 5498SOL    HW216885   1.402   2.560   0.549  1.2303  0.2570  1.8748
 5499SOL     OW16886   5.920   1.385   3.664  0.3751  0.3233 -0.1818
 5499SOL    HW116887   5.969   1.311   3.699  0.9055  0.3788 -0.7790
 5499SOL    HW216888   5.980   1.459   3.670  1.3078 -0.0823 -3.1132
 5500SOL     OW16889   5.976   5.078   0.979 -0.9141 -0.8415  0.0718
 5500SOL    HW116890   5.931   4.998   1.007 -0.6884 -1.3408 -0.9123
 5500SOL    HW216891   6.053   5.046   0.931  0.2076 -0.0117  1.2578
 5501SOL     OW16892   6.045   0.717   5.474  0.0072  0.4583  0.4717
 5501SOL    HW116893   6.095   0.636   5.463 -0.5703  0.1554  0.0539
 5501SOL    HW216894   5.955   0.688   5.489 -0.0822  1.0073  1.0307
 5502SOL     OW16895   6.392   5.485   3.203  0.0799  0.0233 -0.2392
 5502SOL    HW116896   6.416   5.508   3.292  1.7027 -1.3741 -0.2603
 5502SOL    HW216897   6.362   5.394   3.209 -0.9350  0.2943 -0.9522
 5503SOL     OW16898   1.728   3.706   6.808  0.2043 -0.4082  0.2815
 5503SOL    HW116899   1.736   3.797   6.780 -0.9074 -0.6887 -1.0607
 5503SOL    HW216900   1.721   3.711   6.904 -1.1461  1.0557  0.1546
 5504SOL     OW16901   4.392   5.905   3.241  0.2076 -0.4347  0.8075
 5504SOL    HW116902   4.453   5.942   3.177  0.0562 -1.6671 -0.0963
 5504SOL    HW216903   4.443   5.898   3.322  1.4883 -1.9213 -0.0567
 5505SOL     OW16904   0.575   0.313   6.539 -0.1138 -0.5980 -0.0552
 5505SOL    HW116905   0.627   0.357   6.472  0.3275  0.6276  1.0499
 5505SOL    HW216906   0.639   0.281   6.602 -0.4560 -2.5588 -0.6445
 5506SOL     OW16907   3.382   6.236   3.024  0.4931  0.5714  0.3019
 5506SOL    HW116908   3.413   6.149   2.997  0.8660  0.9740 -0.6107
 5506SOL    HW216909   3.462   6.287   3.035  0.2094  1.3419 -1.0777
 5507SOL     OW16910   6.069   5.905   5.142  0.2112  0.5047  0.0100
 5507SOL    HW116911   6.062   5.810   5.156  0.8085  0.3500 -0.6899
 5507SOL    HW216912   5.989   5.927   5.094  0.6422  0.1309 -0.9067
 5508SOL     OW16913   1.407   5.945   0.278 -0.1867  0.5720  0.4967
 5508SOL    HW116914   1.375   5.865   0.236  0.0951  1.2155 -1.0018
 5508SOL    HW216915   1.480   5.974   0.224  0.8029  0.9625  1.9605
 5509SOL     OW16916   1.250   3.689   1.380  0.5467 -0.7215 -0.5733
 5509SOL    HW116917   1.162   3.717   1.405  1.0676 -0.0790  0.6006
 5509SOL    HW216918   1.247   3.594   1.386 -1.3326 -1.1866 -4.8679
 5510SOL     OW16919   3.918   2.820   1.235 -0.2958 -0.7599  0.0873
 5510SOL    HW116920   3.862   2.844   1.308  0.6650 -1.7362  1.1760
 5510SOL    HW216921   3.968   2.745   1.266  1.4561 -0.0761 -0.9200
 5511SOL     OW16922   1.815   1.200   5.795  0.1377  0.2507 -0.1023
 5511SOL    HW116923   1.832   1.119   5.843  0.7345  1.0327  1.0519
 5511SOL    HW216924   1.759   1.173   5.722 -0.8440 -0.9861  1.0507
 5512SOL     OW16925   6.513   6.512   0.636 -0.1229 -0.3208 -0.3399
 5512SOL    HW116926   6.517   6.438   0.696 -1.0256 -1.5633 -1.7255
 5512SOL    HW216927   6.481   6.585   0.689  1.4843 -0.7019  1.2221
 5513SOL     OW16928   4.817   0.551   6.405 -0.0681 -0.0226 -0.0793
 5513SOL    HW116929   4.851   0.552   6.494 -1.5874 -0.3667  0.5259
 5513SOL    HW216930   4.724   0.571   6.414 -0.3106 -0.3804 -1.5534
 5514SOL     OW16931   1.982   1.607   3.125  0.2816  0.2115 -0.3253
 5514SOL    HW116932   2.025   1.683   3.085  2.6788 -0.9814 -0.1296
 5514SOL    HW216933   2.026   1.595   3.208 -0.1278 -1.3629 -0.3183
 5515SOL     OW16934   0.572   0.432   0.059  0.4764 -0.4516 -0.5703
 5515SOL    HW116935   0.500   0.374   0.036  1.1666 -1.7578  0.4132
 5515SOL    HW216936   0.637   0.420  -0.010 -0.1544  0.6102 -1.3744
 5516SOL     OW16937   0.376   0.720   1.545 -0.3775  0.0248 -0.0942
 5516SOL    HW116938   0.364   0.630   1.576  0.3600 -0.9649 -2.4741
 5516SOL    HW216939   0.380   0.713   1.450  2.6539  2.1405 -0.2958
 5517SOL     OW16940   5.099   1.475   1.048  0.0624  0.0826 -0.6159
 5517SOL    HW116941   5.115   1.539   1.118  1.5020  1.3639 -2.0377
 5517SOL    HW216942   5.080   1.393   1.094 -0.2009  1.1366  1.2568
 5518SOL     OW16943   4.521   0.120   0.651 -0.1397 -0.0906 -0.3284
 5518SOL    HW116944   4.554   0.047   0.598  1.6018 -0.7111  1.4817
 5518SOL    HW216945   4.553   0.199   0.608  2.9023 -0.6369  0.6920
 5519SOL     OW16946   1.415   0.914   1.753 -0.1044  0.2168 -0.0701
 5519SOL    HW116947   1.489   0.853   1.754 -0.8485 -0.7156 -0.2416
 5519SOL    HW216948   1.367   0.891   1.673 -1.6717 -0.5474  1.0463
 5520SOL     OW16949   3.683   3.283   6.818 -0.5860 -0.1398  0.3792
 5520SOL    HW116950   3.680   3.189   6.830 -0.8344 -0.4988 -2.0318
 5520SOL    HW216951   3.698   3.296   6.724  0.7780  2.2234  0.8251
 5521SOL     OW16952   6.301   4.340   6.221 -0.3046  0.5542 -0.3228
 5521SOL    HW116953   6.380   4.384   6.254 -0.1526 -0.1665  0.3009
 5521SOL    HW216954   6.327   4.249   6.210 -0.7105  0.5439 -1.2978
 5522SOL     OW16955   0.538   0.534   3.987 -0.1260 -0.5271  0.2448
 5522SOL    HW116956   0.485   0.466   3.944  1.5067 -0.3697 -2.1944
 5522SOL    HW216957   0.486   0.614   3.977 -0.5882 -0.8321  0.1679
 5523SOL     OW16958   4.556   5.330   1.844 -0.0195  0.3839  0.4825
 5523SOL    HW116959   4.627   5.288   1.893 -0.8488 -1.9089 -0.1322
 5523SOL    HW216960   4.480   5.322   1.901 -0.9598 -2.1732 -0.9676
 5524SOL     OW16961   0.375   6.660   1.223 -0.1723  0.4495 -0.0160
 5524SOL    HW116962   0.319   6.697   1.155  1.0424  1.2843 -0.6061
 5524SOL    HW216963   0.327   6.585   1.257 -1.3013  0.7118 -1.0052
 5525SOL     OW16964   5.208   1.461   2.004  0.3512  0.0157  0.6694
 5525SOL    HW116965   5.137   1.482   1.943 -0.9733  2.0898  2.7202
 5525SOL    HW216966   5.287   1.494   1.962 -0.1940 -0.4697 -0.7891
 5526SOL     OW16967   6.193   2.761   2.169 -0.2593 -0.0241 -0.2699
 5526SOL    HW116968   6.115   2.723   2.210  0.1847 -0.1488  0.4608
 5526SOL    HW216969   6.230   2.819   2.235  0.9491 -0.8801 -0.1553
 5527SOL     OW16970   3.747   3.602   6.217  0.0884 -0.3300  0.5156
 5527SOL    HW116971   3.676   3.544   6.244 -0.5114 -0.3584 -1.0208
 5527SOL    HW216972   3.713   3.691   6.232 -0.5928 -0.3251 -0.8649
 5528SOL     OW16973   5.226   2.010   4.008 -0.3781  0.6225 -0.2655
 5528SOL    HW116974   5.183   2.052   4.082  0.0142  2.0965 -0.8319
 5528SOL    HW216975   5.154   1.978   3.954 -0.6743  0.0801  0.4331
 5529SOL     OW16976   5.106   6.781   1.634  0.2132  0.2397  0.2828
 5529SOL    HW116977   5.168   6.743   1.572  0.4491  0.2001  0.5396
 5529SOL    HW216978   5.063   6.705   1.673  1.0136  0.2055  1.1332
 5530SOL     OW16979   4.038   6.030   6.664  0.2954  0.1797  0.6171
 5530SOL    HW116980   4.112   5.999   6.612  0.4360 -0.1193  0.9940
 5530SOL    HW216981   4.010   5.953   6.713 -0.6216  0.1424  0.0620
 5531SOL     OW16982   3.141   6.626   6.303  0.3537 -0.4543 -0.5603
 5531SOL    HW116983   3.075   6.556   6.302 -1.3782  1.0885  0.8656
 5531SOL    HW216984   3.116   6.683   6.230  0.8338 -0.4710 -0.7408
 5532SOL     OW16985   0.966   2.171   6.215 -0.1832 -0.1270  0.0940
 5532SOL    HW116986   0.980   2.226   6.138 -0.9664  0.9328  0.7006
 5532SOL    HW216987   0.979   2.082   6.183 -2.0572  0.1636 -1.6507
 5533SOL     OW16988   1.327   3.930   3.983  0.2835  0.0471  0.4110
 5533SOL    HW116989   1.371   3.869   4.042  0.0628  0.3151  0.8639
 5533SOL    HW216990   1.234   3.917   4.000  0.1782 -0.5363 -0.5640
 5534SOL     OW16991   5.344   2.471   1.739 -0.3170 -0.4389 -0.0166
 5534SOL    HW116992   5.426   2.511   1.768 -0.2127 -0.3598 -0.4242
 5534SOL    HW216993   5.350   2.468   1.644 -1.5356  1.2099 -0.2026
 5535SOL     OW16994   0.133   5.890   4.232  0.1723 -0.2697  0.3188
 5535SOL    HW116995   0.184   5.960   4.191  0.7965 -0.1978  1.1871
 5535SOL    HW216996   0.193   5.815   4.234 -0.0269 -0.4191  0.6451
 5536SOL     OW16997   1.762   6.110   3.704 -0.2060  0.2834 -0.2106
 5536SOL    HW116998   1.754   6.051   3.779  1.8466  1.0045  0.6327
 5536SOL    HW216999   1.799   6.055   3.635 -1.8471 -0.3143 -0.6683
 5537SOL     OW17000   6.299   2.946   2.323  1.0063  0.4061 -0.2113
 5537SOL    HW117001   6.348   2.926   2.403  1.5746  0.2484 -0.5871
 5537SOL    HW217002   6.312   3.040   2.310  1.4674  0.3110 -0.4702
 5538SOL     OW17003   4.598   1.393   2.737  0.3172  0.8051  0.2471
 5538SOL    HW117004   4.682   1.435   2.722  0.5146  0.5015  0.4829
 5538SOL    HW217005   4.569   1.426   2.822  0.0586  1.1320  0.0349
 5539SOL     OW17006   6.645   1.889   1.440  0.0653  0.2127 -0.5892
 5539SOL    HW117007   6.722   1.853   1.484 -1.3507 -0.4206  1.5421
 5539SOL    HW217008   6.588   1.813   1.427 -1.8020  1.1314  1.4796
 5540SOL     OW17009   6.304   5.945   5.499 -0.0442 -0.3043 -0.1779
 5540SOL    HW117010   6.368   5.988   5.557 -0.1796 -0.8715  0.3972
 5540SOL    HW217011   6.337   5.963   5.411  0.1947  0.5237  0.0644
 5541SOL     OW17012   2.251   4.951   0.340 -0.9961 -0.1170  0.3277
 5541SOL    HW117013   2.273   5.000   0.419 -2.3667  1.8321 -0.4167
 5541SOL    HW217014   2.266   5.012   0.268 -1.1347 -1.3667 -0.8120
 5542SOL     OW17015   4.504   1.048   4.718  0.4217 -0.0104 -0.3642
 5542SOL    HW117016   4.516   1.056   4.812 -2.4017  3.9581 -0.1188
 5542SOL    HW217017   4.538   1.130   4.682 -0.1609 -0.6805 -2.5929
 5543SOL     OW17018   0.612   5.620   5.808 -1.1300  0.1374 -0.3595
 5543SOL    HW117019   0.550   5.690   5.828 -0.6411  0.6856 -0.7035
 5543SOL    HW217020   0.578   5.580   5.728 -1.2721  0.1569 -0.3089
 5544SOL     OW17021   0.573   6.444   6.135 -0.4623  0.4933 -0.2333
 5544SOL    HW117022   0.556   6.476   6.046 -0.4627  1.6648  0.1741
 5544SOL    HW217023   0.553   6.518   6.192  1.6491  0.5027  0.5869
 5545SOL     OW17024   2.104   1.147   4.591  0.3062  0.1293  0.1180
 5545SOL    HW117025   2.031   1.198   4.625  0.3330  0.0852  0.2434
 5545SOL    HW217026   2.069   1.102   4.515 -0.1561 -0.8619  0.8906
 5546SOL     OW17027   2.593   3.656   2.798 -0.5093 -0.3121 -1.0219
 5546SOL    HW117028   2.550   3.727   2.750 -2.1636 -0.1109  0.6767
 5546SOL    HW217029   2.546   3.577   2.771 -1.2224 -0.2411 -0.0344
 5547SOL     OW17030   5.820   1.281   6.804  0.7116 -0.4698 -0.0584
 5547SOL    HW117031   5.784   1.245   6.885 -1.0026 -0.1405 -0.6167
 5547SOL    HW217032   5.826   1.375   6.819  0.8678 -0.4676 -0.1345
 5548SOL     OW17033   6.695   2.722   1.327 -0.2826  0.1562 -0.3408
 5548SOL    HW117034   6.770   2.665   1.343  0.4492  0.9235 -0.9392
 5548SOL    HW217035   6.707   2.752   1.237 -0.5583  1.3597  0.0015
 5549SOL     OW17036   0.700   2.153   3.356 -0.0139 -0.9629  1.3300
 5549SOL    HW117037   0.617   2.124   3.394 -0.5021  0.0491  1.0747
 5549SOL    HW217038   0.724   2.230   3.407  0.5989 -1.0553  1.1878
 5550SOL     OW17039   3.671   5.070   5.293  0.4753  0.1591  0.0036
 5550SOL    HW117040   3.738   5.008   5.320  0.2232  0.5892  1.7886
 5550SOL    HW217041   3.591   5.018   5.289  0.5382  0.0625  0.0037
 5551SOL     OW17042   3.496   3.212   6.371 -0.2641 -0.2650 -0.5871
 5551SOL    HW117043   3.540   3.295   6.389 -1.4904  0.1532  0.6520
 5551SOL    HW217044   3.407   3.237   6.348 -0.4512 -1.2017 -0.9085
 5552SOL     OW17045   2.073   4.994   2.684 -0.1996 -0.2448 -0.4010
 5552SOL    HW117046   2.045   5.068   2.738  1.2599  0.2939 -0.3356
 5552SOL    HW217047   2.168   5.003   2.679 -0.2061 -0.8503 -2.2490
 5553SOL     OW17048   5.048   6.622   3.377 -0.2992 -0.2382  0.4904
 5553SOL    HW117049   5.086   6.566   3.445 -1.0834 -0.7546  0.5188
 5553SOL    HW217050   5.092   6.596   3.297 -0.9466 -1.2060  0.4307
 5554SOL     OW17051   1.485   4.305   5.679  0.0429 -0.1711  0.1238
 5554SOL    HW117052   1.566   4.327   5.633 -1.2282  0.8393 -1.7698
 5554SOL    HW217053   1.470   4.379   5.737 -0.8855  1.0140 -1.5359
 5555SOL     OW17054   5.523   3.664   1.647 -0.1335  0.0732  0.2056
 5555SOL    HW117055   5.463   3.696   1.579 -2.4322  0.8824  2.4636
 5555SOL    HW217056   5.601   3.719   1.637 -1.0240  1.2208 -0.8199
 5556SOL     OW17057   3.219   3.437   2.089  0.5110 -0.0940 -0.2147
 5556SOL    HW117058   3.191   3.382   2.016 -1.5621  0.8935 -0.2448
 5556SOL    HW217059   3.207   3.382   2.166 -2.5443  0.4884 -0.1335
 5557SOL     OW17060   0.343   1.071   3.739 -0.2873 -0.9053  0.4035
 5557SOL    HW117061   0.278   1.016   3.784 -1.7980  0.2933 -0.2156
 5557SOL    HW217062   0.291   1.128   3.683  1.3899 -0.5867 -0.9096
 5558SOL     OW17063   3.952   4.120   1.480  0.5540 -0.1347 -0.2912
 5558SOL    HW117064   3.965   4.165   1.563  0.4191  0.1530 -0.4280
 5558SOL    HW217065   3.912   4.185   1.423  0.5666 -0.3583 -0.5556
 5559SOL     OW17066   4.316   2.855   4.798 -0.8389 -0.3849  0.1469
 5559SOL    HW117067   4.386   2.912   4.828  0.3381 -1.0881 -1.1780
 5559SOL    HW217068   4.245   2.915   4.773  0.0044  0.4587 -0.2930
 5560SOL     OW17069   2.871   1.117   2.839 -0.3715 -0.3931  0.1359
 5560SOL    HW117070   2.944   1.095   2.898 -0.1914  1.2763  0.6004
 5560SOL    HW217071   2.793   1.102   2.892 -0.2460  0.2488  0.5114
 5561SOL     OW17072   6.435   5.639   6.123  0.2689 -0.1387 -0.3908
 5561SOL    HW117073   6.456   5.590   6.203 -0.8905 -0.5699 -0.3352
 5561SOL    HW217074   6.378   5.581   6.073  0.3673  0.4332 -1.1783
 5562SOL     OW17075   5.155   4.768   5.293  0.1062  0.0767  0.1932
 5562SOL    HW117076   5.220   4.722   5.345  0.8176  0.2923 -0.5022
 5562SOL    HW217077   5.167   4.860   5.317 -0.9247 -0.0091  1.1454
 5563SOL     OW17078   2.609   3.168   5.024 -0.0599 -0.1397  0.0331
 5563SOL    HW117079   2.585   3.170   5.116  0.6021 -0.5360  0.2234
 5563SOL    HW217080   2.559   3.238   4.984 -0.7689 -0.3174  0.5946
 5564SOL     OW17081   2.384   0.204   1.223 -0.5055 -0.2302 -0.0531
 5564SOL    HW117082   2.290   0.195   1.204 -0.7683 -0.0066  1.0867
 5564SOL    HW217083   2.388   0.268   1.295  0.5483  0.0367 -0.3295
 5565SOL     OW17084   5.122   0.726   5.769 -0.0174  0.5933 -0.3901
 5565SOL    HW117085   5.038   0.747   5.810  0.9148  0.6954  1.5825
 5565SOL    HW217086   5.175   0.804   5.781  1.9151 -0.9832  2.8029
 5566SOL     OW17087   6.340   3.644   5.446  0.0160 -1.0854  0.0064
 5566SOL    HW117088   6.392   3.724   5.447  1.3817 -1.9405  0.1601
 5566SOL    HW217089   6.262   3.666   5.394 -0.0153  0.5413  0.6948
 5567SOL     OW17090   2.293   5.463   2.442  0.4871 -0.2844 -0.7227
 5567SOL    HW117091   2.370   5.504   2.482  0.8492 -0.4992 -1.1882
 5567SOL    HW217092   2.280   5.382   2.491  0.2427  0.0020 -0.3092
 5568SOL     OW17093   5.246   5.711   3.670 -1.1274  0.3554 -0.2551
 5568SOL    HW117094   5.310   5.642   3.656  1.2876  2.2120  0.7752
 5568SOL    HW217095   5.196   5.682   3.746  1.1977  0.5124  1.4701
 5569SOL     OW17096   1.234   4.876   4.381 -0.0654  0.2024 -0.5329
 5569SOL    HW117097   1.258   4.818   4.453  0.0201 -0.8355 -1.3707
 5569SOL    HW217098   1.155   4.920   4.411  0.4204  0.3895  0.5074
 5570SOL     OW17099   1.771   0.121   1.723 -0.1962 -0.3922  0.2681
 5570SOL    HW117100   1.828   0.143   1.797 -0.7025  2.0680  0.0191
 5570SOL    HW217101   1.704   0.190   1.724 -1.7690 -1.8341 -0.8997
 5571SOL     OW17102   1.560   2.035   5.611  0.0830 -0.7796  0.4215
 5571SOL    HW117103   1.610   2.045   5.529  1.4296 -0.9511  1.1957
 5571SOL    HW217104   1.623   1.999   5.673 -1.2297 -1.7423  1.2413
 5572SOL     OW17105   1.386   0.110   1.597 -0.3713  0.1411  0.2387
 5572SOL    HW117106   1.306   0.061   1.616 -0.1156 -0.0615  0.8112
 5572SOL    HW217107   1.422   0.133   1.683  2.1772 -3.0178  0.2197
 5573SOL     OW17108   2.578   2.929   6.270 -0.1461  0.4206  0.0620
 5573SOL    HW117109   2.527   2.901   6.193  1.2711  0.1072 -0.7931
 5573SOL    HW217110   2.641   2.992   6.236  0.3210  0.4859  1.0177
 5574SOL     OW17111   3.040   4.010   1.968  0.0034 -0.3167  0.0383
 5574SOL    HW117112   3.076   4.026   2.055 -0.6517 -0.7123  0.3973
 5574SOL    HW217113   3.062   4.088   1.918 -1.9906  1.1981  1.3422
 5575SOL     OW17114   5.443   4.590   3.396  0.5748  0.1923 -0.3969
 5575SOL    HW117115   5.370   4.626   3.345  1.4921  2.4164 -0.2762
 5575SOL    HW217116   5.517   4.647   3.375  1.9662 -1.2196  0.4615
 5576SOL     OW17117   3.859   3.664   4.846  0.6485  0.0744 -0.0016
 5576SOL    HW117118   3.846   3.633   4.935  0.3059 -1.1728 -0.4635
 5576SOL    HW217119   3.843   3.758   4.851  0.3309 -0.0234  1.1869
 5577SOL     OW17120   3.479   1.718   1.438  0.5858 -0.3238 -0.2085
 5577SOL    HW117121   3.475   1.705   1.533  0.8383 -0.9980 -0.2868
 5577SOL    HW217122   3.387   1.728   1.411  0.4077 -1.3476 -0.0483
 5578SOL     OW17123   6.296   4.072   1.598  0.3652  0.0097  0.4910
 5578SOL    HW117124   6.329   4.028   1.520  1.6020 -0.5104  1.2946
 5578SOL    HW217125   6.346   4.154   1.602 -0.3008  0.4374  0.2827
 5579SOL     OW17126   5.843   4.702   0.140  0.5017  0.7460  0.7647
 5579SOL    HW117127   5.819   4.714   0.232 -0.3344  0.1155  0.6390
 5579SOL    HW217128   5.933   4.671   0.142  0.2603  0.0769  1.4043
 5580SOL     OW17129   5.155   4.970   1.441  0.0894 -0.3715  0.0057
 5580SOL    HW117130   5.066   4.998   1.460 -0.6750 -0.7953 -2.4821
 5580SOL    HW217131   5.205   5.052   1.431 -0.3082 -0.1005  0.2267
 5581SOL     OW17132   5.842   2.732   0.430 -0.1686 -0.0477 -0.4336
 5581SOL    HW117133   5.757   2.756   0.392  1.1966  0.5153 -3.4005
 5581SOL    HW217134   5.905   2.788   0.385  2.0953 -2.4006 -0.4267
 5582SOL     OW17135   0.428   6.216   4.642  0.2381  0.0927 -0.8398
 5582SOL    HW117136   0.508   6.166   4.627 -0.7527 -1.7345 -0.2597
 5582SOL    HW217137   0.397   6.188   4.728  0.6148  3.1326  0.4020
 5583SOL     OW17138   4.415   0.520   0.329 -0.0214  0.5133  0.1001
 5583SOL    HW117139   4.406   0.442   0.384 -0.9266  0.3871 -0.2172
 5583SOL    HW217140   4.414   0.593   0.391  0.3558  0.3014  0.3612
 5584SOL     OW17141   1.116   6.481   3.093  0.5359  0.1595  0.6289
 5584SOL    HW117142   1.171   6.406   3.073  1.9714  0.7089  2.2706
 5584SOL    HW217143   1.177   6.550   3.120 -0.6704  2.1627 -1.4069
 5585SOL     OW17144   4.751   3.046   4.731  0.3847 -0.3391  0.0874
 5585SOL    HW117145   4.791   3.008   4.809 -0.1984  0.0842  0.6017
 5585SOL    HW217146   4.753   2.976   4.666  0.3377 -0.8912  0.6725
 5586SOL     OW17147   0.232   3.724   6.627 -0.3619 -0.0976 -0.6209
 5586SOL    HW117148   0.237   3.630   6.614 -1.2411 -0.2310 -0.1169
 5586SOL    HW217149   0.179   3.755   6.554  0.7840  0.1633 -1.3668
 5587SOL     OW17150   4.955   1.273   2.941 -0.0622 -0.7229  0.1266
 5587SOL    HW117151   4.920   1.190   2.974  1.5051 -1.5582 -0.2056
 5587SOL    HW217152   5.045   1.275   2.973  1.2513 -1.1379 -3.2502
 5588SOL     OW17153   6.007   2.831   0.870 -0.0867 -0.1164 -0.4497
 5588SOL    HW117154   5.986   2.781   0.792  0.2261  0.7880 -1.1327
 5588SOL    HW217155   5.985   2.922   0.847  2.2593  0.5473 -0.3735
 5589SOL     OW17156   3.173   0.491   0.470 -0.2258 -0.3416  0.4778
 5589SOL    HW117157   3.101   0.466   0.527 -0.1309 -0.2145  0.6534
 5589SOL    HW217158   3.251   0.481   0.524 -0.1301 -0.2876  0.3497
 5590SOL     OW17159   3.210   3.560   4.568 -0.1221 -0.2769 -0.4282
 5590SOL    HW117160   3.265   3.638   4.558 -0.4322  0.1101  0.7526
 5590SOL    HW217161   3.143   3.586   4.631 -2.5173 -0.2759 -2.7753
 5591SOL     OW17162   6.264   4.548   1.398  0.3134 -0.4014 -0.0809
 5591SOL    HW117163   6.233   4.458   1.400  2.0721 -1.0455 -0.4447
 5591SOL    HW217164   6.298   4.565   1.486 -0.4479  0.0876  0.1310
 5592SOL     OW17165   0.721   3.643   0.661  0.5469 -0.3583 -0.3369
 5592SOL    HW117166   0.658   3.572   0.668  0.3590 -0.1660 -0.0389
 5592SOL    HW217167   0.679   3.707   0.603  1.3410 -1.1426 -1.8399
 5593SOL     OW17168   1.055   0.235   3.083  0.2617  0.2790  0.1330
 5593SOL    HW117169   1.058   0.160   3.143  1.7477  0.9990  1.0330
 5593SOL    HW217170   1.147   0.262   3.075 -0.1200  1.2932 -1.0994
 5594SOL     OW17171   2.912   5.524   1.810 -0.3874 -0.2395  0.5085
 5594SOL    HW117172   2.941   5.523   1.718 -4.2720  0.7483 -0.9158
 5594SOL    HW217173   2.911   5.617   1.833 -3.6623 -0.0046 -0.1206
 5595SOL     OW17174   2.492   4.880   5.036 -0.1310  0.4194  0.1839
 5595SOL    HW117175   2.543   4.811   5.077 -2.5715 -1.3728  0.4183
 5595SOL    HW217176   2.520   4.960   5.081  2.6476 -0.3517  0.0239
 5596SOL     OW17177   3.825   5.687   0.028 -0.2170  0.1492 -0.1109
 5596SOL    HW117178   3.899   5.748   0.022  1.5412 -2.0045 -1.9602
 5596SOL    HW217179   3.836   5.628  -0.045 -2.5161 -1.7241  0.9127
 5597SOL     OW17180   1.304   6.369   1.835  0.6198 -0.1635  0.8952
 5597SOL    HW117181   1.295   6.273   1.843 -2.5908 -0.0267  0.5426
 5597SOL    HW217182   1.321   6.384   1.742  1.9636 -0.3866  1.0877
 5598SOL     OW17183   2.760   4.744   4.524  0.7656 -0.8382  0.0668
 5598SOL    HW117184   2.775   4.747   4.618  2.6990 -1.0143 -0.1843
 5598SOL    HW217185   2.665   4.748   4.514  0.4609 -1.8839  2.0571
 5599SOL     OW17186   5.351   1.316   3.343 -0.9961 -0.8346 -0.4060
 5599SOL    HW117187   5.300   1.366   3.407  0.0173 -2.5729  1.9405
 5599SOL    HW217188   5.441   1.322   3.376 -0.2069 -0.7726 -2.4367
 5600SOL     OW17189   3.854   6.709   6.472  0.6317  0.0447  0.3003
 5600SOL    HW117190   3.825   6.707   6.563  0.4916 -0.0007  0.2551
 5600SOL    HW217191   3.879   6.619   6.453 -0.2044 -0.1425  0.0184
 5601SOL     OW17192   6.792   3.737   2.668  0.1827  0.1733  0.0353
 5601SOL    HW117193   6.778   3.643   2.678  1.6257 -0.3054 -1.8173
 5601SOL    HW217194   6.856   3.760   2.735  0.1444 -0.2431  0.2175
 5602SOL     OW17195   6.024   4.242   5.753  0.0260  0.1838  0.2197
 5602SOL    HW117196   6.011   4.303   5.826 -1.1965 -0.0372  0.2108
 5602SOL    HW217197   5.939   4.199   5.742  0.5090 -0.6007 -0.6092
 5603SOL     OW17198   6.189   0.711   0.345 -0.0659 -0.2284 -0.3773
 5603SOL    HW117199   6.201   0.627   0.302 -2.4396 -0.1466 -1.3608
 5603SOL    HW217200   6.195   0.776   0.275  0.4624  0.3093  0.1569
 5604SOL     OW17201   1.756   0.014   3.528 -0.3167  0.1554  0.9227
 5604SOL    HW117202   1.672   0.049   3.559 -0.1687 -0.1995  1.7469
 5604SOL    HW217203   1.822   0.059   3.579  0.0988  1.3614 -0.5984
 5605SOL     OW17204   2.302   6.797   1.901  0.0026 -0.0760  0.3644
 5605SOL    HW117205   2.221   6.844   1.923 -0.0738 -0.4967  1.0125
 5605SOL    HW217206   2.288   6.708   1.935  1.3652  0.2719  1.9275
 5606SOL     OW17207   3.794   6.318   0.203 -0.3663  0.6220 -0.3547
 5606SOL    HW117208   3.735   6.382   0.165 -0.5006  1.3783  1.0538
 5606SOL    HW217209   3.779   6.324   0.297  1.1099 -0.0067 -0.0410
 5607SOL     OW17210   0.584   5.438   5.588 -0.1767 -0.4151 -0.2017
 5607SOL    HW117211   0.531   5.446   5.509 -0.7985 -0.3075  0.2209
 5607SOL    HW217212   0.581   5.345   5.610 -0.2237 -0.4027 -0.1555
 5608SOL     OW17213   3.458   6.026   4.279 -0.0102 -0.3759 -0.5075
 5608SOL    HW117214   3.515   5.999   4.207 -0.9321 -0.8918 -1.0637
 5608SOL    HW217215   3.401   5.950   4.295  0.8181 -0.6536  1.4438
 5609SOL     OW17216   2.134   4.109   4.054 -0.4661 -0.1243  0.5971
 5609SOL    HW117217   2.141   4.089   3.961 -2.1097  1.8225 -0.0296
 5609SOL    HW217218   2.159   4.028   4.098  3.8113 -0.1482 -1.3645
 5610SOL     OW17219   5.357   4.609   0.907  0.1538  0.2464 -0.3866
 5610SOL    HW117220   5.349   4.514   0.897  0.5576  0.2900 -1.1995
 5610SOL    HW217221   5.270   4.638   0.937 -0.2919 -0.2466 -1.1816
 5611SOL     OW17222   2.210   2.295   6.372 -0.0944  0.2680  0.0638
 5611SOL    HW117223   2.182   2.378   6.410 -0.7361  0.2943 -0.4384
 5611SOL    HW217224   2.141   2.233   6.396 -0.5244  0.2881 -1.0420
 5612SOL     OW17225   2.761   1.540   6.396  0.2063  0.2140  0.0597
 5612SOL    HW117226   2.713   1.618   6.367 -0.2138 -0.3145 -0.7253
 5612SOL    HW217227   2.788   1.497   6.314 -0.4112 -0.9658  0.4481
 5613SOL     OW17228   1.158   3.947   4.774  0.1188 -0.1425 -0.6509
 5613SOL    HW117229   1.171   4.037   4.745 -1.5520 -0.2979 -2.0729
 5613SOL    HW217230   1.088   3.953   4.839 -0.7248 -0.4893 -1.5013
 5614SOL     OW17231   0.161   2.891   3.571  0.8831  0.2369  0.0186
 5614SOL    HW117232   0.171   2.827   3.501  0.9523  0.2292  0.0347
 5614SOL    HW217233   0.130   2.970   3.528 -0.0886 -0.0774  0.1285
 5615SOL     OW17234   1.288   1.553   1.884  0.1172  0.2064  0.0192
 5615SOL    HW117235   1.295   1.459   1.896 -2.5616  0.0077  0.5608
 5615SOL    HW217236   1.315   1.567   1.793  2.7247 -0.7069  0.5626
 5616SOL     OW17237   2.285   0.988   2.852 -0.1815  0.2522  0.3422
 5616SOL    HW117238   2.344   0.914   2.837 -1.4052 -0.5408 -0.7613
 5616SOL    HW217239   2.271   1.026   2.766 -1.3580  0.3543  0.5619
 5617SOL     OW17240   3.596   3.855   1.727  0.1783  0.5530  0.1570
 5617SOL    HW117241   3.663   3.879   1.662  1.7836  0.5741  1.7365
 5617SOL    HW217242   3.613   3.763   1.745 -1.2133  0.1417 -0.4770
 5618SOL     OW17243   4.685   1.480   0.105 -0.7389  0.3268 -0.4033
 5618SOL    HW117244   4.702   1.449   0.194 -2.0112 -0.0300 -0.2713
 5618SOL    HW217245   4.592   1.500   0.103 -0.3932  2.0471 -1.1472
 5619SOL     OW17246   6.499   5.036   3.400 -0.1725  0.4373 -0.9036
 5619SOL    HW117247   6.563   5.037   3.472 -0.3327 -3.1882 -0.5010
 5619SOL    HW217248   6.516   5.117   3.352  2.6997  1.0652  0.8850
 5620SOL     OW17249   0.069   1.038   3.780 -0.4184  0.0621 -0.0220
 5620SOL    HW117250   0.091   0.979   3.709  1.5352  0.5980  0.0885
 5620SOL    HW217251  -0.023   1.018   3.800 -0.9152 -0.3791 -2.3943
 5621SOL     OW17252   0.061   5.165   6.409  0.0260 -0.1140 -0.5879
 5621SOL    HW117253   0.143   5.214   6.411  0.5285 -0.9530  0.2977
 5621SOL    HW217254   0.077   5.094   6.346  1.1548 -2.1441  1.7887
 5622SOL     OW17255   0.680   0.049   4.683  0.2676  0.6101 -0.2596
 5622SOL    HW117256   0.710   0.088   4.601  2.0806 -0.1226  0.0039
 5622SOL    HW217257   0.668  -0.044   4.663 -2.4448  0.9108 -0.4671
 5623SOL     OW17258   0.802   1.917   0.385 -0.6619  0.0007  0.0852
 5623SOL    HW117259   0.709   1.923   0.406 -1.2375 -0.5941 -2.0762
 5623SOL    HW217260   0.810   1.839   0.330  0.8463  0.9164 -1.0687
 5624SOL     OW17261   2.894   4.126   6.156 -0.3227 -0.3236 -0.1026
 5624SOL    HW117262   2.987   4.116   6.137 -0.7115 -2.3737 -1.1604
 5624SOL    HW217263   2.854   4.152   6.073 -0.7931 -0.0259  0.2056
 5625SOL     OW17264   3.236   3.301   6.542 -0.2768 -0.2054  0.0638
 5625SOL    HW117265   3.140   3.294   6.543 -0.3073  0.1580 -0.1985
 5625SOL    HW217266   3.258   3.315   6.450 -0.1196  1.6143  0.3394
 5626SOL     OW17267   6.536   6.058   0.010 -0.0072  0.4244 -0.6301
 5626SOL    HW117268   6.591   6.072  -0.067  0.8564 -0.6602 -0.2362
 5626SOL    HW217269   6.474   5.991  -0.017  1.2619 -1.0719  0.0477
 5627SOL     OW17270   4.624   0.147   6.682 -0.0970 -0.5532  0.3412
 5627SOL    HW117271   4.554   0.175   6.622  1.3413  0.6227 -0.8721
 5627SOL    HW217272   4.626   0.213   6.750  0.3138 -0.1512 -0.0504
 5628SOL     OW17273   2.488   3.802   6.544  0.4376  0.8239 -0.2187
 5628SOL    HW117274   2.562   3.747   6.521  0.6030  1.4302 -1.1909
 5628SOL    HW217275   2.417   3.740   6.562  0.8071  0.2802 -0.6097
 5629SOL     OW17276   2.712   4.227   3.705  0.1516  0.3529  0.4279
 5629SOL    HW117277   2.670   4.143   3.690 -0.2274  0.8481 -1.4567
 5629SOL    HW217278   2.651   4.275   3.762 -2.0224  1.1097 -2.3374
 5630SOL     OW17279   5.577   0.597   6.399  0.8631 -0.6143  0.4061
 5630SOL    HW117280   5.545   0.508   6.386  0.3734 -0.2851 -0.8114
 5630SOL    HW217281   5.665   0.596   6.360  0.1825 -0.1481 -1.2361
 5631SOL     OW17282   6.113   6.037   2.531  0.0117  0.0928  0.3199
 5631SOL    HW117283   6.158   6.016   2.449  0.1599 -0.7107  0.6021
 5631SOL    HW217284   6.135   5.965   2.590  2.8672  2.3366  2.2883
 5632SOL     OW17285   5.077   4.534   4.450 -0.3010 -0.2385  0.0076
 5632SOL    HW117286   4.993   4.493   4.430  0.1783 -1.4871  0.5012
 5632SOL    HW217287   5.097   4.585   4.371 -0.3915 -1.8428 -1.0977
 5633SOL     OW17288   6.577   6.242   4.559  0.4576 -0.8154 -0.0608
 5633SOL    HW117289   6.611   6.210   4.642  1.0163  0.1783  0.1183
 5633SOL    HW217290   6.653   6.283   4.517 -0.3472  0.8664  0.0502
 5634SOL     OW17291   5.034   4.171   1.750  0.2844 -0.5283 -0.5055
 5634SOL    HW117292   5.084   4.100   1.711  1.5201 -1.9112  3.1550
 5634SOL    HW217293   4.966   4.126   1.802 -0.6511  1.0769 -0.2725
 5635SOL     OW17294   5.809   3.757   6.155 -0.0842  0.5826  0.0799
 5635SOL    HW117295   5.837   3.732   6.067  0.4987  1.2163  0.0764
 5635SOL    HW217296   5.715   3.736   6.158 -0.2380  1.0990 -0.8874
 5636SOL     OW17297   1.815   5.756   6.473  0.4825 -0.8513 -0.0676
 5636SOL    HW117298   1.763   5.819   6.422 -0.6988 -1.5964  0.1888
 5636SOL    HW217299   1.752   5.689   6.499  1.4575 -1.4473  0.7991
 5637SOL     OW17300   3.348   3.035   2.729 -0.4007 -0.0927 -0.1433
 5637SOL    HW117301   3.436   3.066   2.747 -0.1281  0.1611 -1.7310
 5637SOL    HW217302   3.351   3.007   2.638 -1.8462 -0.5027 -0.0909
 5638SOL     OW17303   5.456   4.790   2.809 -0.3530  0.7767  0.5316
 5638SOL    HW117304   5.414   4.739   2.741  2.6955 -2.3616  0.7222
 5638SOL    HW217305   5.518   4.846   2.762  0.2207  0.1768  0.5486
 5639SOL     OW17306   5.187   0.575   1.304  0.2843  0.4955 -0.6420
 5639SOL    HW117307   5.228   0.660   1.321 -0.0928  0.4684  0.4975
 5639SOL    HW217308   5.099   0.596   1.275 -0.8063  0.5236  2.3409
 5640SOL     OW17309   3.767   3.970   2.838 -0.6004 -0.4015  0.1055
 5640SOL    HW117310   3.780   3.919   2.918  1.9597  0.2790  0.2202
 5640SOL    HW217311   3.849   3.960   2.790 -0.1481  3.1354 -0.1173
 5641SOL     OW17312   1.080   4.382   3.544  0.1305 -0.5626 -0.2302
 5641SOL    HW117313   1.034   4.453   3.589  2.0813  0.5756  0.0542
 5641SOL    HW217314   1.120   4.331   3.615 -2.6729 -3.1233 -0.2792
 5642SOL     OW17315   4.299   3.248   1.459 -0.0861  0.1015 -0.1268
 5642SOL    HW117316   4.323   3.193   1.534 -1.0365 -0.5607 -0.2940
 5642SOL    HW217317   4.379   3.297   1.439  0.1455  0.4040  1.4077
 5643SOL     OW17318   3.721   3.039   3.749 -0.0453  0.3681 -0.3729
 5643SOL    HW117319   3.812   3.014   3.768 -0.3153 -1.2166 -1.0419
 5643SOL    HW217320   3.724   3.134   3.741  1.5174  0.3686 -0.1554
 5644SOL     OW17321   3.391   0.663   2.776 -0.0683  0.2095 -0.1226
 5644SOL    HW117322   3.406   0.712   2.695  0.8830  0.4730  0.1839
 5644SOL    HW217323   3.440   0.582   2.764 -1.3553 -0.5201 -0.4869
 5645SOL     OW17324   5.214   0.155   0.033  0.0373 -0.1250  0.5191
 5645SOL    HW117325   5.288   0.182  -0.022  1.0661 -1.9764  0.9202
 5645SOL    HW217326   5.210   0.221   0.102  1.9946 -0.5259  1.0753
 5646SOL     OW17327   4.950   3.837   2.182  0.0555  0.2525 -0.2732
 5646SOL    HW117328   5.011   3.909   2.202 -1.7667  2.3502 -1.7442
 5646SOL    HW217329   5.002   3.776   2.130  1.3982  1.0850  0.0351
 5647SOL     OW17330   3.778   4.848   6.221 -0.3936  0.1117 -0.3593
 5647SOL    HW117331   3.864   4.888   6.208  0.1977 -0.9788  0.1314
 5647SOL    HW217332   3.719   4.901   6.166  0.6926  0.4619 -1.2283
 5648SOL     OW17333   0.374   5.716   6.024  0.3077 -0.3183  0.5211
 5648SOL    HW117334   0.331   5.641   5.983 -0.0965 -0.9395  2.0263
 5648SOL    HW217335   0.400   5.772   5.950 -0.4388 -1.3563 -0.5642
 5649SOL     OW17336   5.550   2.435   5.362 -0.1829 -0.1638  0.2670
 5649SOL    HW117337   5.506   2.399   5.439  0.7267 -0.9222  0.4508
 5649SOL    HW217338   5.547   2.530   5.374 -0.3356 -0.2676  1.0697
 5650SOL     OW17339   6.186   4.337   0.860  0.8874 -0.1429 -0.1048
 5650SOL    HW117340   6.130   4.362   0.787  0.2975 -0.6661  0.1667
 5650SOL    HW217341   6.265   4.390   0.848  1.8169 -1.9013 -2.4781
 5651SOL     OW17342   0.158   5.450   0.786  0.2973 -0.2065 -0.3716
 5651SOL    HW117343   0.111   5.473   0.866  2.1362 -2.1966  1.4158
 5651SOL    HW217344   0.231   5.512   0.782  0.5010 -0.4301 -0.1872
 5652SOL     OW17345   0.419   5.466   2.972 -0.3074  0.6584 -0.7182
 5652SOL    HW117346   0.326   5.469   2.949 -0.3321  2.4101 -0.5216
 5652SOL    HW217347   0.454   5.549   2.941  1.0264  0.3738 -0.0571
 5653SOL     OW17348   4.265   2.628   4.065 -0.3204 -0.1655  0.0785
 5653SOL    HW117349   4.203   2.671   4.125  1.6078  0.3772  1.8165
 5653SOL    HW217350   4.269   2.687   3.990 -0.2276  1.0410  0.9766
 5654SOL     OW17351   2.759   3.990   5.648 -0.6239  0.0995 -0.2465
 5654SOL    HW117352   2.757   3.938   5.728  0.4337  4.3225  2.8971
 5654SOL    HW217353   2.691   4.056   5.660  0.9052  2.0916 -1.8338
 5655SOL     OW17354   4.559   5.009   2.860  0.0289 -0.4556 -0.2657
 5655SOL    HW117355   4.594   5.080   2.806 -0.5603  1.3983  1.6669
 5655SOL    HW217356   4.568   5.040   2.950 -0.6356 -2.6849  0.6479
 5656SOL     OW17357   2.600   2.083   4.345  0.4368 -0.1071 -0.0580
 5656SOL    HW117358   2.630   2.170   4.319  0.2722  0.1240  0.5224
 5656SOL    HW217359   2.679   2.040   4.378  0.7791 -0.6162 -1.4662
 5657SOL     OW17360   6.511   0.112   3.100  0.2095 -0.4857 -0.2704
 5657SOL    HW117361   6.475   0.176   3.161 -1.0572 -0.0994 -1.3821
 5657SOL    HW217362   6.604   0.135   3.094  0.4058 -0.6307  1.5851
 5658SOL     OW17363   3.120   4.621   5.648 -0.8538  0.2225 -0.2929
 5658SOL    HW117364   3.144   4.533   5.676  1.1309  0.0512 -2.2629
 5658SOL    HW217365   3.074   4.608   5.564 -0.1392  1.0457 -0.8319
 5659SOL     OW17366   0.081   4.668   1.628 -0.2354 -0.7670 -0.5615
 5659SOL    HW117367   0.023   4.733   1.667  0.6406 -0.0654 -0.3934
 5659SOL    HW217368   0.031   4.632   1.554 -0.4148  0.7311 -1.2088
 5660SOL     OW17369   1.905   0.581   1.692  0.4834  0.4087 -0.1039
 5660SOL    HW117370   1.956   0.508   1.656 -0.1203  0.6679 -1.5314
 5660SOL    HW217371   1.875   0.549   1.778  1.7543 -0.3145  0.0921
 5661SOL     OW17372   5.472   0.525   5.373  0.6557 -0.0327 -0.7373
 5661SOL    HW117373   5.403   0.591   5.379  1.3633  0.5946  3.5705
 5661SOL    HW217374   5.553   0.574   5.367  1.0323 -0.6082 -0.4633
 5662SOL     OW17375   2.850   5.426   2.957 -0.2955  0.3821 -0.0128
 5662SOL    HW117376   2.857   5.338   2.918 -0.6052  0.6987 -0.8055
 5662SOL    HW217377   2.775   5.420   3.016  0.5412 -0.2709  1.0247
 5663SOL     OW17378   1.901   6.151   4.010  0.0707  0.3298  0.4578
 5663SOL    HW117379   1.992   6.179   4.010 -0.2635  1.5246 -0.4800
 5663SOL    HW217380   1.854   6.224   3.970 -1.6201  0.6735  2.8883
 5664SOL     OW17381   6.520   0.176   3.881  0.2767 -0.5290  0.1681
 5664SOL    HW117382   6.604   0.201   3.842 -0.4572 -0.0218 -1.1508
 5664SOL    HW217383   6.493   0.253   3.930 -0.9015  0.5396 -2.0343
 5665SOL     OW17384   4.639   2.079   0.830  0.1513  0.2802  0.7219
 5665SOL    HW117385   4.700   2.135   0.879  0.9897 -0.2810  0.3442
 5665SOL    HW217386   4.686   2.057   0.749 -0.4415 -0.3871  0.5465
 5666SOL     OW17387   4.177   6.565   5.846  0.4331  0.6327 -0.0616
 5666SOL    HW117388   4.132   6.558   5.762  0.5878 -0.0413 -0.0954
 5666SOL    HW217389   4.106   6.572   5.910  0.3247  2.3997 -0.3297
 5667SOL     OW17390   2.544   2.700   5.267 -0.3704 -0.3663 -0.3759
 5667SOL    HW117391   2.497   2.700   5.184 -1.0481 -2.0713 -0.0327
 5667SOL    HW217392   2.566   2.792   5.282 -1.7347  0.1958 -1.5860
 5668SOL     OW17393   0.060   1.195   5.205  0.1000  0.0006  0.2643
 5668SOL    HW117394   0.016   1.275   5.233  0.4702 -0.1771  1.4106
 5668SOL    HW217395   0.022   1.176   5.119  2.0956  3.0130 -1.4712
 5669SOL     OW17396   5.013   5.604   4.984 -0.2418  0.2472  0.7492
 5669SOL    HW117397   5.094   5.566   4.949 -0.8473 -0.6668  0.3082
 5669SOL    HW217398   4.963   5.529   5.016 -1.0718  0.7658  0.6950
 5670SOL     OW17399   2.211   0.146   0.366  0.3582 -0.2506 -0.2202
 5670SOL    HW117400   2.188   0.148   0.459 -0.3940  0.5352 -0.4081
 5670SOL    HW217401   2.180   0.230   0.332 -1.7814 -1.5231 -1.7140
 5671SOL     OW17402   0.385   0.343   3.816 -0.0872 -0.1067 -0.4852
 5671SOL    HW117403   0.397   0.254   3.783 -0.6286 -0.3204 -0.1285
 5671SOL    HW217404   0.340   0.332   3.900 -2.6002  0.5617 -1.6369
 5672SOL     OW17405   3.295   4.416   4.558  0.1122  0.2672 -0.4229
 5672SOL    HW117406   3.327   4.393   4.470 -0.2123  0.1454 -0.5090
 5672SOL    HW217407   3.235   4.345   4.581  0.4765  0.1074  0.0511
 5673SOL     OW17408   2.367   2.567   6.130  0.2130 -0.4527 -0.2623
 5673SOL    HW117409   2.446   2.537   6.175 -0.2508 -0.0944  0.8299
 5673SOL    HW217410   2.318   2.487   6.112  0.6681 -0.6487 -0.6747
 5674SOL     OW17411   0.264   6.274   1.901 -0.1132 -0.2297 -0.0694
 5674SOL    HW117412   0.249   6.367   1.919 -0.7511 -0.4566  0.6069
 5674SOL    HW217413   0.204   6.228   1.959  2.5440 -1.1798  2.1254
 5675SOL     OW17414   3.396   1.243   5.697 -0.5489  0.4860  0.6460
 5675SOL    HW117415   3.327   1.237   5.762 -0.7668 -2.9196  0.2892
 5675SOL    HW217416   3.467   1.190   5.733  1.4826  2.8625  0.4243
 5676SOL     OW17417   5.304   1.848   4.341 -0.1031  1.0391 -0.2512
 5676SOL    HW117418   5.221   1.883   4.372 -1.2847 -1.3215 -0.5586
 5676SOL    HW217419   5.356   1.836   4.421 -0.9888  0.2828  0.2321
 5677SOL     OW17420   1.262   5.720   5.829  0.0221 -0.7000  0.2846
 5677SOL    HW117421   1.186   5.725   5.772 -1.2858  1.2551  2.0206
 5677SOL    HW217422   1.298   5.809   5.828  0.6079 -0.9009  1.6084
 5678SOL     OW17423   4.317   3.959   3.714 -0.5696  0.3430  0.7762
 5678SOL    HW117424   4.284   4.010   3.788 -0.6046 -0.2909  1.1982
 5678SOL    HW217425   4.353   4.025   3.655 -0.8635  0.8854  1.1880
 5679SOL     OW17426   1.484   6.605   3.578 -0.7693  0.4793  0.1710
 5679SOL    HW117427   1.537   6.618   3.656 -0.7076  1.0601  0.0421
 5679SOL    HW217428   1.480   6.692   3.537 -0.5922  0.1323 -0.6027
 5680SOL     OW17429   3.775   1.952   6.620 -0.2658  0.2975 -0.2894
 5680SOL    HW117430   3.792   1.861   6.646  0.8540  0.3916 -0.6341
 5680SOL    HW217431   3.683   1.953   6.596 -0.2231 -0.8375 -0.5798
 5681SOL     OW17432   3.624   2.345   5.983  0.2913  0.0629  0.2818
 5681SOL    HW117433   3.609   2.398   6.061  0.1891 -0.0677  0.3512
 5681SOL    HW217434   3.566   2.384   5.917 -0.8692 -0.8421  0.7290
 5682SOL     OW17435   5.531   6.322   2.839 -0.2569 -0.0680  0.0268
 5682SOL    HW117436   5.581   6.344   2.918 -1.5241 -2.5316  1.6743
 5682SOL    HW217437   5.443   6.355   2.857  0.1776  2.5098 -2.0086
 5683SOL     OW17438   6.183   1.245   3.371  0.0885 -0.3294 -0.5506
 5683SOL    HW117439   6.131   1.165   3.369 -0.5893  0.0981 -0.6497
 5683SOL    HW217440   6.270   1.217   3.397 -0.5175 -0.8901  1.0130
 5684SOL     OW17441   5.453   5.124   3.060  0.2139  0.1054 -0.3879
 5684SOL    HW117442   5.444   5.044   3.007  0.4121  0.0489 -0.3393
 5684SOL    HW217443   5.364   5.146   3.087  0.1865 -0.2618 -0.1687
 5685SOL     OW17444   4.305   5.445   5.488 -0.5042  0.0232  0.2354
 5685SOL    HW117445   4.244   5.390   5.438  0.9509  0.1268 -1.7585
 5685SOL    HW217446   4.339   5.507   5.424 -1.1590  2.5416  2.1365
 5686SOL     OW17447   0.540   5.232   2.923  0.2886 -0.2104  0.0133
 5686SOL    HW117448   0.489   5.313   2.923 -0.2996 -0.5295 -2.0095
 5686SOL    HW217449   0.631   5.262   2.934 -0.1601  0.4138  2.8030
 5687SOL     OW17450   2.083   1.796   4.287  0.4096 -0.4778  0.0198
 5687SOL    HW117451   2.041   1.717   4.252 -1.0502  0.6084 -0.7781
 5687SOL    HW217452   2.014   1.862   4.289  1.7799  1.0416 -0.1243
 5688SOL     OW17453   4.153   3.007   6.145  0.1507  0.0117  0.4188
 5688SOL    HW117454   4.174   3.033   6.235 -0.2130  0.5781  0.3423
 5688SOL    HW217455   4.213   2.935   6.127 -0.7918 -1.1507  1.6532
 5689SOL     OW17456   0.153   1.710   6.188  0.2987  0.0936  0.7121
 5689SOL    HW117457   0.174   1.620   6.213  0.8669 -0.2294 -0.8243
 5689SOL    HW217458   0.098   1.742   6.259 -0.7599 -1.8029  0.8348
 5690SOL     OW17459   5.631   5.632   1.973  0.5727  0.0428 -0.2025
 5690SOL    HW117460   5.675   5.716   1.972 -0.3673  0.5475 -0.1588
 5690SOL    HW217461   5.696   5.571   2.008  1.1050  0.8285  0.1926
 5691SOL     OW17462   4.225   5.739   2.135  0.4492 -0.7392 -0.2892
 5691SOL    HW117463   4.130   5.737   2.128 -0.2074  1.1370  4.2265
 5691SOL    HW217464   4.245   5.683   2.210  2.2951  2.0030  1.4875
 5692SOL     OW17465   5.504   6.582   4.766  0.0069 -0.2336  0.2627
 5692SOL    HW117466   5.594   6.565   4.793 -0.7671 -2.3210  1.8406
 5692SOL    HW217467   5.492   6.676   4.780  1.5667 -0.1404  1.2454
 5693SOL     OW17468   6.613   2.955   1.660 -0.4752 -0.2603 -0.1656
 5693SOL    HW117469   6.542   2.915   1.710 -0.2006  0.1401  0.5618
 5693SOL    HW217470   6.630   3.038   1.705  2.3224 -1.5407  1.4513
 5694SOL     OW17471   1.257   3.123   5.182 -1.0371  0.0614  0.2662
 5694SOL    HW117472   1.341   3.142   5.223 -0.2627 -1.9343 -0.2596
 5694SOL    HW217473   1.235   3.203   5.134 -0.0657  1.0450  1.4103
 5695SOL     OW17474   2.425   2.492   1.460 -1.2050  0.3377 -0.2201
 5695SOL    HW117475   2.428   2.404   1.499  0.3153  1.2952  2.0408
 5695SOL    HW217476   2.414   2.476   1.366 -0.1322 -2.2966  0.0001
 5696SOL     OW17477   4.357   6.447   1.663 -0.6712  0.6881 -0.5435
 5696SOL    HW117478   4.328   6.369   1.710 -0.2156  0.5929 -0.4205
 5696SOL    HW217479   4.286   6.465   1.601 -0.7398  0.1331 -0.6295
 5697SOL     OW17480   0.910   1.477   0.047  0.1101  0.7924  0.4094
 5697SOL    HW117481   0.889   1.544  -0.018  0.4004 -1.1433 -1.8096
 5697SOL    HW217482   0.838   1.481   0.110 -1.6424  0.9805 -1.4940
 5698SOL     OW17483   0.812   4.310   6.508  0.1821  0.5186  0.3086
 5698SOL    HW117484   0.726   4.292   6.470  0.7046  0.2093 -0.7592
 5698SOL    HW217485   0.871   4.315   6.433  1.0523  1.0239  1.0075
 5699SOL     OW17486   4.578   5.696   6.679 -0.2852 -0.8669  0.2487
 5699SOL    HW117487   4.548   5.636   6.610  0.4533 -1.8196  0.7418
 5699SOL    HW217488   4.648   5.746   6.638 -0.9161 -0.3012 -0.1698
 5700SOL     OW17489   4.859   4.227   4.731 -0.4621  0.3240  0.7049
 5700SOL    HW117490   4.927   4.201   4.669 -0.7525  0.4264  0.3420
 5700SOL    HW217491   4.779   4.183   4.699 -0.2833 -1.0038  1.9432
 5701SOL     OW17492   3.192   0.922   1.065  0.2569 -0.2863  0.4501
 5701SOL    HW117493   3.115   0.915   1.007  0.7753 -1.9077 -0.0849
 5701SOL    HW217494   3.258   0.965   1.011 -0.1427  0.7872  0.7945
 5702SOL     OW17495   2.209   3.266   0.946 -0.4389  0.0778 -0.1082
 5702SOL    HW117496   2.131   3.282   0.998 -0.7467 -0.7034 -0.3024
 5702SOL    HW217497   2.254   3.195   0.992 -0.8405 -0.7867 -1.0136
 5703SOL     OW17498   5.983   5.222   1.761 -0.7647  0.7288  0.5687
 5703SOL    HW117499   5.949   5.153   1.703 -0.8739 -1.2448  2.8134
 5703SOL    HW217500   6.029   5.282   1.703 -0.5722 -1.2942 -1.5107
 5704SOL     OW17501   3.145   1.101   5.399 -0.3626  1.1563 -0.2651
 5704SOL    HW117502   3.135   1.006   5.397 -0.3250  1.1602 -0.5751
 5704SOL    HW217503   3.166   1.125   5.309 -0.4238  1.4638 -0.1973
 5705SOL     OW17504   4.506   0.053   2.349 -0.5761  0.2870 -0.0286
 5705SOL    HW117505   4.519  -0.015   2.283 -0.3201 -0.3614  0.6757
 5705SOL    HW217506   4.477   0.130   2.299  3.9188  1.3115 -1.5671
 5706SOL     OW17507   0.921   1.902   2.914 -0.1569  0.9430  0.0952
 5706SOL    HW117508   0.901   1.995   2.907 -0.6176  0.9827  1.6499
 5706SOL    HW217509   0.988   1.896   2.981 -1.3926  0.0182  1.3038
 5707SOL     OW17510   0.250   6.161   3.723  0.6910 -0.3600 -0.0805
 5707SOL    HW117511   0.295   6.244   3.740  1.1577 -0.6106 -0.0772
 5707SOL    HW217512   0.297   6.097   3.776  0.2944 -0.6187 -0.0371
 5708SOL     OW17513   2.607   2.036   2.640 -0.4001  0.1212  0.6806
 5708SOL    HW117514   2.655   1.957   2.618 -1.1090 -0.1017 -0.1338
 5708SOL    HW217515   2.668   2.088   2.692  0.9631  0.1562 -0.8817
 5709SOL     OW17516   0.870   6.284   2.698  0.0894 -0.5544  0.1562
 5709SOL    HW117517   0.883   6.192   2.677  0.5686 -0.2379 -1.0066
 5709SOL    HW217518   0.776   6.292   2.715  0.0724 -1.2777  0.4485
 5710SOL     OW17519   1.994   1.309   2.461 -0.3813  0.1689  0.2872
 5710SOL    HW117520   1.976   1.276   2.549  1.6278 -4.3123 -0.7024
 5710SOL    HW217521   2.083   1.345   2.466  0.5441 -1.9159 -0.1979
 5711SOL     OW17522   2.276   0.027   5.158  0.7421 -0.6375 -0.5378
 5711SOL    HW117523   2.249   0.054   5.070 -0.8716  0.0321  0.1319
 5711SOL    HW217524   2.218  -0.045   5.180 -0.4086  0.6469  0.8299
 5712SOL     OW17525   1.750   2.944   0.285 -0.5240  0.0819 -1.0172
 5712SOL    HW117526   1.732   2.889   0.209 -1.3241 -2.8398  1.0937
 5712SOL    HW217527   1.714   2.895   0.359  2.8356  1.2400  1.6465
 5713SOL     OW17528   3.193   2.799   3.191 -0.2237 -0.1217  0.2688
 5713SOL    HW117529   3.254   2.839   3.253 -0.6419 -0.1784  0.7175
 5713SOL    HW217530   3.184   2.865   3.121  1.8220 -0.8681 -0.7944
 5714SOL     OW17531   5.017   1.416   4.275  0.1351 -0.3033 -0.1330
 5714SOL    HW117532   5.093   1.389   4.223  1.7569  0.2956  1.7772
 5714SOL    HW217533   5.025   1.366   4.356 -0.9169  0.5596  0.5260
 5715SOL     OW17534   5.674   2.596   5.722  1.1033  0.0865  0.1775
 5715SOL    HW117535   5.598   2.575   5.776  0.6641  0.1461 -0.4019
 5715SOL    HW217536   5.741   2.535   5.750  0.5262 -0.6421  0.0199
 5716SOL     OW17537   0.690   6.108   0.481 -0.2551  0.1615  0.2246
 5716SOL    HW117538   0.778   6.140   0.460 -0.4615  1.3396  1.0457
 5716SOL    HW217539   0.663   6.060   0.403  0.7073  0.6780 -0.4514
 5717SOL     OW17540   0.574   2.550   2.998  0.0659 -0.5552 -0.3740
 5717SOL    HW117541   0.573   2.466   3.043  1.7676 -1.2271 -1.4487
 5717SOL    HW217542   0.586   2.527   2.906  0.0411  0.8464 -0.7481
 5718SOL     OW17543   6.702   4.057   4.238 -0.0317  0.3043 -0.3590
 5718SOL    HW117544   6.687   4.099   4.324 -0.0345 -1.1593  0.3830
 5718SOL    HW217545   6.747   4.124   4.187 -0.1865  1.2810  0.7265
 5719SOL     OW17546   0.502   3.797   2.840 -0.2897 -0.1391 -0.1277
 5719SOL    HW117547   0.497   3.702   2.854  1.3077 -0.5925 -2.0419
 5719SOL    HW217548   0.578   3.808   2.782 -0.9424  2.2363 -0.6292
 5720SOL     OW17549   5.501   4.103   1.003  0.4006 -0.2082 -0.3219
 5720SOL    HW117550   5.459   4.072   1.084  0.4837 -1.6736 -0.8100
 5720SOL    HW217551   5.551   4.028   0.972  0.7885  0.5047 -1.4750
 5721SOL     OW17552   2.599   2.804   0.271 -0.0359 -0.9149 -0.1705
 5721SOL    HW117553   2.623   2.730   0.215  0.9119 -0.5069 -0.3329
 5721SOL    HW217554   2.551   2.864   0.214  2.3205  0.2700 -1.0718
 5722SOL     OW17555   1.955   5.202   4.838 -0.0471  1.1088  0.7762
 5722SOL    HW117556   1.901   5.277   4.863 -1.9327  0.1760 -0.2906
 5722SOL    HW217557   1.974   5.216   4.745  0.5789  0.8288  0.8552
 5723SOL     OW17558   6.336   3.942   5.423  0.3144  0.3206 -0.1308
 5723SOL    HW117559   6.386   3.926   5.503 -0.1725  2.5435  0.6790
 5723SOL    HW217560   6.267   4.002   5.449 -1.5538 -1.0510 -1.6788
 5724SOL     OW17561   6.799   1.105   1.023 -0.3862  0.4789 -0.4753
 5724SOL    HW117562   6.839   1.165   0.960 -1.6658  0.4596 -1.3571
 5724SOL    HW217563   6.837   1.020   1.002  0.6383  0.7879  0.0721
 5725SOL     OW17564   2.263   1.986   1.006 -0.3283 -0.1350 -0.3990
 5725SOL    HW117565   2.341   1.942   0.972 -0.8815  0.1204 -2.0916
 5725SOL    HW217566   2.212   1.917   1.047  0.6271 -0.3553  0.4572
 5726SOL     OW17567   6.699   3.376   0.390  0.3209 -0.1511  0.2002
 5726SOL    HW117568   6.637   3.429   0.340 -1.8754 -1.0533  1.7720
 5726SOL    HW217569   6.710   3.424   0.473  0.1358 -0.9595  0.7080
 5727SOL     OW17570   2.736   5.844   3.893  0.3298  0.3223 -0.6439
 5727SOL    HW117571   2.723   5.936   3.918 -2.5523 -0.4219  0.9763
 5727SOL    HW217572   2.797   5.810   3.958 -0.9844  0.3835  0.6775
 5728SOL     OW17573   2.356   4.279   4.756  0.0747  0.3132 -0.0202
 5728SOL    HW117574   2.274   4.228   4.757 -0.3878  0.9791 -1.1450
 5728SOL    HW217575   2.400   4.256   4.837 -0.5905 -1.1172 -0.0276
 5729SOL     OW17576   2.740   4.472   3.923  0.0401 -0.3308  0.0867
 5729SOL    HW117577   2.663   4.458   3.979 -0.1149 -0.2161 -0.0952
 5729SOL    HW217578   2.799   4.524   3.977 -0.9404  1.5401 -0.5302
 5730SOL     OW17579   0.961   6.391   0.866 -0.0896 -0.1097 -0.2797
 5730SOL    HW117580   1.019   6.448   0.816 -1.1687 -0.5424 -2.1235
 5730SOL    HW217581   0.877   6.438   0.867 -0.0809 -0.0945  1.2028
 5731SOL     OW17582   4.102   3.393   6.241 -0.1614 -0.0689 -0.5625
 5731SOL    HW117583   4.184   3.362   6.204 -0.1668 -0.1448 -0.5109
 5731SOL    HW217584   4.034   3.359   6.182 -0.0902  0.9504 -1.2523
 5732SOL     OW17585   6.336   2.727   1.219 -0.1714  0.6020  0.2172
 5732SOL    HW117586   6.243   2.741   1.199 -0.7523 -0.5631  1.8868
 5732SOL    HW217587   6.366   2.666   1.152 -0.6713  0.7495 -0.1545
 5733SOL     OW17588   3.995   3.000   3.826 -0.5549 -0.6217 -0.5402
 5733SOL    HW117589   4.066   3.061   3.845  0.2901 -1.3604 -1.2478
 5733SOL    HW217590   3.965   2.971   3.912 -0.7785  0.5594 -0.2061
 5734SOL     OW17591   0.212   3.081   0.761 -0.3883 -0.1599  0.4464
 5734SOL    HW117592   0.187   3.162   0.804 -1.2772 -1.1810  1.9544
 5734SOL    HW217593   0.151   3.073   0.687 -1.1019 -0.0507  1.0147
 5735SOL     OW17594   6.171   0.972   3.202  0.2529  0.1481  0.3916
 5735SOL    HW117595   6.100   1.037   3.199  1.1898  1.1932 -2.2671
 5735SOL    HW217596   6.248   1.020   3.173  1.2449 -1.8532 -0.4665
 5736SOL     OW17597   5.821   5.756   5.739  0.3689  0.3004 -0.3642
 5736SOL    HW117598   5.889   5.820   5.760  0.0730  0.2756  0.7473
 5736SOL    HW217599   5.818   5.754   5.644  0.5717  1.7446 -0.4198
 5737SOL     OW17600   3.292   3.970   3.726 -0.4772  0.3516 -0.4142
 5737SOL    HW117601   3.372   4.006   3.688 -1.0006  3.1871  0.8550
 5737SOL    HW217602   3.287   4.010   3.813 -1.4385 -2.6484  1.0313
 5738SOL     OW17603   3.462   2.924   4.705  0.0549  0.2942  0.3444
 5738SOL    HW117604   3.493   2.835   4.692 -0.9385 -0.2024  1.2997
 5738SOL    HW217605   3.538   2.972   4.738  0.2325 -0.5320  1.1633
 5739SOL     OW17606   5.004   5.965   0.250 -0.0953  0.7365 -0.9677
 5739SOL    HW117607   5.081   5.918   0.218 -1.1726 -0.0613 -2.5168
 5739SOL    HW217608   4.998   5.941   0.343  0.6115 -0.4545 -1.2118
 5740SOL     OW17609   5.998   0.449   0.843 -0.4550 -0.2615 -0.2261
 5740SOL    HW117610   6.057   0.374   0.835 -0.3087  0.0084 -2.1823
 5740SOL    HW217611   6.055   0.525   0.837 -0.7190  0.0247  0.7188
 5741SOL     OW17612   0.563   6.548   0.660  0.0748  0.1026  0.0800
 5741SOL    HW117613   0.526   6.601   0.731 -1.8349  1.5666 -1.8882
 5741SOL    HW217614   0.538   6.594   0.580  2.8401 -1.0275 -1.5790
 5742SOL     OW17615   2.483   2.900   2.267 -1.1413 -0.0545 -0.0513
 5742SOL    HW117616   2.532   2.941   2.339 -1.7725  0.3361  0.1675
 5742SOL    HW217617   2.465   2.972   2.207  0.0779 -0.5240 -1.0178
 5743SOL     OW17618   5.473   0.005   4.864  0.0241 -0.2462  0.5838
 5743SOL    HW117619   5.562   0.013   4.900  0.0911  0.9234  0.1779
 5743SOL    HW217620   5.418   0.050   4.928  0.0315  1.0529 -0.2747
 5744SOL     OW17621   3.650   3.039   4.851 -0.0073  0.4719 -0.4918
 5744SOL    HW117622   3.739   3.007   4.849 -0.1517  0.0166 -3.2510
 5744SOL    HW217623   3.659   3.132   4.873  1.0519  0.2724 -0.0126
 5745SOL     OW17624   5.220   5.019   1.995  0.1214  0.2547 -0.4627
 5745SOL    HW117625   5.175   5.023   1.911  1.0163  2.3755 -0.9036
 5745SOL    HW217626   5.298   5.072   1.983  0.0278  1.0361  1.8506
 5746SOL     OW17627   5.350   2.456   1.447  0.4435 -0.1900  0.2590
 5746SOL    HW117628   5.313   2.543   1.465  3.4744  1.4755 -0.7595
 5746SOL    HW217629   5.365   2.456   1.352  0.6433 -1.7833  0.2668
 5747SOL     OW17630   4.276   2.113   4.257  0.0084 -0.2052 -0.1805
 5747SOL    HW117631   4.186   2.081   4.258 -0.5375  1.2593  0.5453
 5747SOL    HW217632   4.290   2.142   4.167 -0.5022  0.1736 -0.1458
 5748SOL     OW17633   3.256   4.658   3.779  0.1398 -0.4372 -0.0143
 5748SOL    HW117634   3.257   4.740   3.829 -1.3998 -0.7666  0.6245
 5748SOL    HW217635   3.187   4.671   3.714  0.2858 -1.0196 -0.2954
 5749SOL     OW17636   1.844   2.356   0.596 -0.0734 -0.1214 -0.2703
 5749SOL    HW117637   1.842   2.264   0.573 -0.1266 -0.4189  0.8419
 5749SOL    HW217638   1.796   2.361   0.679  0.4812  0.7940  0.0192
 5750SOL     OW17639   0.773   0.717   1.054 -0.0629 -0.0024 -0.0535
 5750SOL    HW117640   0.700   0.668   1.092  0.4631 -0.5144  0.3145
 5750SOL    HW217641   0.754   0.719   0.960 -0.8404  0.3725  0.1027
 5751SOL     OW17642   4.469   5.529   6.453 -0.2208  0.0997  0.2683
 5751SOL    HW117643   4.402   5.462   6.440 -1.2883  1.1794  0.0784
 5751SOL    HW217644   4.481   5.568   6.367 -3.0315  3.2772  1.1131
 5752SOL     OW17645   0.476   4.422   3.263  0.3221 -0.6574  0.4214
 5752SOL    HW117646   0.528   4.348   3.294 -0.3814 -1.0313  0.7335
 5752SOL    HW217647   0.537   4.495   3.262  0.2035 -0.3798  3.6687
 5753SOL     OW17648   3.701   0.092   4.527  0.0442 -0.0058  0.2484
 5753SOL    HW117649   3.770   0.025   4.533  0.0671 -0.0153 -0.0882
 5753SOL    HW217650   3.748   0.174   4.515  0.0060  0.0181  0.2629
 5754SOL     OW17651   1.034   6.434   3.547 -0.7597  0.0852  0.4988
 5754SOL    HW117652   1.056   6.423   3.640 -0.8749 -0.2584  0.4870
 5754SOL    HW217653   1.119   6.441   3.503 -0.6891  2.6487  0.8915
 5755SOL     OW17654   2.239   4.703   2.847 -0.2103  0.7721 -0.4983
 5755SOL    HW117655   2.270   4.751   2.924  3.7977 -1.5920 -0.3551
 5755SOL    HW217656   2.198   4.625   2.883 -1.1549  1.1009 -0.8141
 5756SOL     OW17657   3.282   4.524   2.067 -0.6449 -0.5909  0.1819
 5756SOL    HW117658   3.263   4.533   1.973 -0.2539 -2.6982 -0.1703
 5756SOL    HW217659   3.256   4.607   2.105 -0.2457  0.5633 -1.8867
 5757SOL     OW17660   0.557   2.584   6.245  0.5415  0.1693  0.1522
 5757SOL    HW117661   0.596   2.584   6.332  0.1827 -1.0885  0.3334
 5757SOL    HW217662   0.626   2.551   6.188  0.6100  0.4986  0.0455
 5758SOL     OW17663   0.951   5.023   5.890 -0.5245 -0.3195 -0.3275
 5758SOL    HW117664   0.940   5.117   5.899 -1.7898 -0.5876  1.5981
 5758SOL    HW217665   1.033   5.004   5.937 -0.9636 -0.3011  0.4734
 5759SOL     OW17666   6.542   5.568   2.824 -0.3559  0.3981 -0.4578
 5759SOL    HW117667   6.595   5.566   2.744  0.9515 -0.7930  0.3998
 5759SOL    HW217668   6.458   5.531   2.798 -0.4979  1.4412 -1.6174
 5760SOL     OW17669   5.473   3.569   2.148 -0.3871  0.6305  0.2188
 5760SOL    HW117670   5.384   3.537   2.164 -0.0651 -0.6589 -0.4563
 5760SOL    HW217671   5.464   3.626   2.072 -0.4411 -0.5269 -0.6560
 5761SOL     OW17672   1.305   6.775   6.440 -0.1310 -0.2758  0.6588
 5761SOL    HW117673   1.293   6.726   6.359 -0.4515 -1.0440  1.1561
 5761SOL    HW217674   1.217   6.787   6.475  0.0974 -1.3784  1.6988
 5762SOL     OW17675   3.822   4.834   5.320 -0.5700 -0.2268 -0.0632
 5762SOL    HW117676   3.778   4.757   5.282 -0.4045 -0.6410  0.5693
 5762SOL    HW217677   3.866   4.800   5.398 -0.3453  0.4804  0.1214
 5763SOL     OW17678   6.810   5.103   2.438 -0.1790 -0.5166 -0.2371
 5763SOL    HW117679   6.816   5.142   2.351 -0.6745 -1.7671 -0.8660
 5763SOL    HW217680   6.864   5.024   2.433 -0.5540 -0.8305  0.4485
 5764SOL     OW17681   3.885   4.266   3.117 -0.2110 -0.3717 -0.3884
 5764SOL    HW117682   3.824   4.269   3.043 -0.6480 -2.9169 -0.2351
 5764SOL    HW217683   3.963   4.224   3.081  1.8693  3.4332 -0.7607
 5765SOL     OW17684   4.390   6.773   5.871 -0.1998  0.2959  0.5998
 5765SOL    HW117685   4.353   6.833   5.806 -0.9475 -0.7358  0.0383
 5765SOL    HW217686   4.328   6.700   5.874  0.0917  0.0751  2.1067
 5766SOL     OW17687   2.289   1.119   5.005  0.4283  0.3323  0.6261
 5766SOL    HW117688   2.328   1.187   4.950 -0.9789 -0.6746 -1.7466
 5766SOL    HW217689   2.363   1.078   5.050  1.7498  0.6300 -1.1955
 5767SOL     OW17690   2.920   0.481   0.566  0.2604  0.1324  0.4556
 5767SOL    HW117691   2.961   0.567   0.570  0.7542 -0.1539  2.1139
 5767SOL    HW217692   2.832   0.495   0.600  0.3896 -0.0443  0.8628
 5768SOL     OW17693   5.798   0.905   5.958 -0.0961  0.0990  0.1980
 5768SOL    HW117694   5.817   0.936   6.046  2.5288 -0.4152 -0.0929
 5768SOL    HW217695   5.831   0.815   5.957 -0.1241  0.0862 -1.3024
 5769SOL     OW17696   4.800   1.131   2.663  0.0945 -0.3227  0.3889
 5769SOL    HW117697   4.744   1.136   2.586 -0.4943 -1.8941  0.6863
 5769SOL    HW217698   4.823   1.222   2.681 -2.0851  0.3547  0.0601
 5770SOL     OW17699   5.791   5.651   2.993  0.2995 -0.2132 -0.3972
 5770SOL    HW117700   5.841   5.706   3.053  1.9667 -1.3837 -0.6493
 5770SOL    HW217701   5.817   5.561   3.014 -2.3406 -0.9953 -0.0078
 5771SOL     OW17702   5.774   5.501   0.840 -0.2757  0.0091 -0.2209
 5771SOL    HW117703   5.854   5.483   0.791 -0.0232 -0.6491  0.4160
 5771SOL    HW217704   5.749   5.416   0.877 -0.6349  0.4313  0.5309
 5772SOL     OW17705   1.911   3.514   2.170 -0.6399 -0.5961  0.3832
 5772SOL    HW117706   1.893   3.608   2.164  0.5029 -0.3247  1.0732
 5772SOL    HW217707   1.824   3.474   2.176 -1.2679  0.2345 -1.9579
 5773SOL     OW17708   1.512   1.089   1.933  0.6263  0.5521  0.1547
 5773SOL    HW117709   1.577   1.042   1.986 -1.0358 -1.0531  0.8916
 5773SOL    HW217710   1.480   1.025   1.871 -0.4624  1.2160  0.0006
 5774SOL     OW17711   5.009   0.487   0.120  0.2065 -0.0403 -0.7733
 5774SOL    HW117712   5.055   0.517   0.041  0.0734  0.2194 -0.7530
 5774SOL    HW217713   5.079   0.454   0.177  0.7403  2.7995  0.3805
 5775SOL     OW17714   1.512   4.555   1.433  0.0181  0.2363 -0.6397
 5775SOL    HW117715   1.544   4.480   1.483  1.1684 -0.2020 -1.9825
 5775SOL    HW217716   1.428   4.526   1.398 -0.1921  0.0939 -0.0445
 5776SOL     OW17717   0.526   5.311   3.318  0.6820  0.4016  0.1119
 5776SOL    HW117718   0.590   5.354   3.261  0.7292  1.2030  0.7594
 5776SOL    HW217719   0.537   5.353   3.403  1.2905 -1.4654  0.9940
 5777SOL     OW17720   1.135   0.173   2.372  0.0139 -0.2694  0.1343
 5777SOL    HW117721   1.114   0.086   2.406  0.7037 -0.2490  0.6469
 5777SOL    HW217722   1.128   0.164   2.277  0.1951 -0.9234  0.1763
 5778SOL     OW17723   5.388   1.802   2.001 -0.1608  0.2997 -0.2152
 5778SOL    HW117724   5.366   1.884   1.957  0.8691  0.5707 -0.2523
 5778SOL    HW217725   5.375   1.819   2.094 -0.5526  0.3077 -0.2724
 5779SOL     OW17726   3.517   1.153   2.785  0.3845 -0.3517  0.2952
 5779SOL    HW117727   3.498   1.078   2.842  0.8199 -1.0424 -0.4351
 5779SOL    HW217728   3.431   1.182   2.754  0.3074 -2.0162 -1.2134
 5780SOL     OW17729   3.094   4.257   2.962 -0.5469 -0.3336 -0.2311
 5780SOL    HW117730   3.158   4.187   2.948 -1.7130 -1.9075  1.7888
 5780SOL    HW217731   3.147   4.336   2.974  0.9725 -1.3729  0.1774
 5781SOL     OW17732   1.912   4.435   6.103  0.2829  0.5609 -0.1914
 5781SOL    HW117733   1.833   4.407   6.150  0.2185 -0.6870 -1.0225
 5781SOL    HW217734   1.906   4.531   6.101 -2.1523  0.4442 -1.8099
 5782SOL     OW17735   0.747   5.910   5.686  0.1639  0.0495 -0.0152
 5782SOL    HW117736   0.763   5.835   5.629 -0.3099 -0.6733  0.7904
 5782SOL    HW217737   0.758   5.877   5.774 -1.0865  0.6705  0.3935
 5783SOL     OW17738   6.114   2.822   0.394  0.0003  0.1052  0.1406
 5783SOL    HW117739   6.106   2.744   0.338 -2.4238  0.2197  0.2270
 5783SOL    HW217740   6.167   2.883   0.342 -0.4966 -0.5489 -1.1821
 5784SOL     OW17741   4.936   0.092   0.199  0.3047  0.1686  0.8993
 5784SOL    HW117742   4.910   0.017   0.253 -1.8313  0.5607  0.5268
 5784SOL    HW217743   5.017   0.124   0.239  1.0886 -2.1040  1.2555
 5785SOL     OW17744   0.059   3.729   5.070 -0.1168  0.0677 -0.3067
 5785SOL    HW117745   0.039   3.735   4.977 -0.5285 -0.6489 -0.2734
 5785SOL    HW217746   0.050   3.818   5.102  1.7304  0.6371 -1.2731
 5786SOL     OW17747   0.728   3.331   4.109 -0.3522  0.2732 -0.4510
 5786SOL    HW117748   0.785   3.269   4.155 -1.3818  0.6851  1.4795
 5786SOL    HW217749   0.659   3.276   4.070  0.7305 -0.1141 -1.9121
 5787SOL     OW17750   6.016   2.865   3.062 -0.3961 -0.1888  0.8978
 5787SOL    HW117751   6.099   2.895   3.027 -1.9194 -0.6860 -3.8119
 5787SOL    HW217752   5.959   2.941   3.059 -0.6958 -0.3365  2.1583
 5788SOL     OW17753   5.659   0.562   2.597  0.0611 -0.2263 -0.3189
 5788SOL    HW117754   5.705   0.646   2.590 -3.0259  1.7582  1.0695
 5788SOL    HW217755   5.612   0.554   2.514  0.6050 -0.7738 -0.5785
 5789SOL     OW17756   0.628   2.040   0.695  0.2544 -0.1149  0.6059
 5789SOL    HW117757   0.710   2.011   0.656 -0.7519  0.3610 -2.0971
 5789SOL    HW217758   0.624   2.133   0.677 -1.2557 -0.2839 -0.1141
 5790SOL     OW17759   5.694   0.311   4.675  0.2557 -0.1414  0.4223
 5790SOL    HW117760   5.689   0.295   4.581  3.0934  0.3629  0.0970
 5790SOL    HW217761   5.615   0.362   4.694  1.3454  3.0125 -2.4565
 5791SOL     OW17762   2.193   5.487   4.323  0.1381  0.0601 -0.1740
 5791SOL    HW117763   2.258   5.540   4.277 -0.0495  1.7496  1.3566
 5791SOL    HW217764   2.241   5.446   4.395 -0.3635  1.1621  0.8474
 5792SOL     OW17765   5.915   1.408   3.325  0.6158 -0.4592  0.2292
 5792SOL    HW117766   5.967   1.411   3.406 -1.4559 -0.1932  1.6297
 5792SOL    HW217767   5.907   1.315   3.305 -1.0979 -0.7665  1.9599
 5793SOL     OW17768   4.025   0.710   5.265 -0.1642  0.1494  0.1697
 5793SOL    HW117769   4.106   0.659   5.259 -0.3244 -0.1701  0.6661
 5793SOL    HW217770   3.962   0.649   5.302 -0.0662  1.0386  1.8796
 5794SOL     OW17771   6.597   5.181   4.726  0.4874 -0.3480 -0.4173
 5794SOL    HW117772   6.509   5.213   4.745 -0.0078 -0.3216 -2.5040
 5794SOL    HW217773   6.610   5.109   4.788 -1.8196 -1.6648 -1.3255
 5795SOL     OW17774   5.618   0.862   6.833 -0.1027  0.0758 -0.2134
 5795SOL    HW117775   5.655   0.944   6.865 -1.7585  0.3767  1.0987
 5795SOL    HW217776   5.539   0.849   6.887 -1.6866 -0.6777 -2.5571
 5796SOL     OW17777   3.660   2.146   3.640  0.0874 -0.4851 -0.2690
 5796SOL    HW117778   3.572   2.147   3.676 -0.1449 -0.2160 -0.8246
 5796SOL    HW217779   3.702   2.070   3.679 -1.0947 -1.9148 -1.6306
 5797SOL     OW17780   5.943   6.278   1.784  0.0145  0.0224  0.5979
 5797SOL    HW117781   5.935   6.251   1.876 -1.1851  0.9808  0.8014
 5797SOL    HW217782   5.911   6.203   1.734  0.7380 -0.5340  0.9479
 5798SOL     OW17783   2.897   4.620   1.925 -0.4372  0.0477 -0.0694
 5798SOL    HW117784   2.938   4.674   1.993 -0.3917  1.3667 -1.1083
 5798SOL    HW217785   2.824   4.576   1.970  0.7595 -0.6517  1.2826
 5799SOL     OW17786   0.990   6.219   1.360  0.8468 -0.1881 -0.1426
 5799SOL    HW117787   0.937   6.144   1.388  0.0027 -0.1220 -1.4691
 5799SOL    HW217788   1.076   6.203   1.398  0.6369 -1.7388 -0.2303
 5800SOL     OW17789   0.964   2.087   3.753 -0.3213 -0.2022  0.2940
 5800SOL    HW117790   0.879   2.108   3.714  0.4876  3.2193  0.0419
 5800SOL    HW217791   1.016   2.054   3.681 -0.5263  0.7004 -0.2847
 5801SOL     OW17792   1.993   2.517   4.020  0.2034  0.1056 -0.3729
 5801SOL    HW117793   2.011   2.426   3.998  0.5582  0.5128 -1.8320
 5801SOL    HW217794   1.952   2.512   4.107 -0.6133 -1.5025 -0.8066
 5802SOL     OW17795   4.346   3.824   6.029  0.1141  0.0057  0.3389
 5802SOL    HW117796   4.410   3.759   5.999  0.5985  1.0064 -0.8991
 5802SOL    HW217797   4.295   3.778   6.096  3.1113 -0.3873  2.5961
 5803SOL     OW17798   4.021   2.604   6.160 -0.1447  0.9105  0.3302
 5803SOL    HW117799   4.021   2.513   6.188  1.3876  0.5519 -0.6938
 5803SOL    HW217800   4.114   2.627   6.154 -0.4962  2.3410 -0.0405
 5804SOL     OW17801   3.828   2.176   1.624  0.2511  0.0199 -0.3080
 5804SOL    HW117802   3.876   2.184   1.541 -0.9234 -0.7687 -1.1035
 5804SOL    HW217803   3.896   2.171   1.691  1.2515  3.3730 -0.8827
 5805SOL     OW17804   5.585   4.244   2.104  0.2372 -0.4102  0.1192
 5805SOL    HW117805   5.538   4.327   2.096 -0.1192 -0.6278 -0.0720
 5805SOL    HW217806   5.575   4.220   2.196  1.4863  0.4235  0.4877
 5806SOL     OW17807   1.122   1.828   3.105 -0.0874 -0.7222 -0.9861
 5806SOL    HW117808   1.076   1.744   3.098  1.3364 -1.4649 -2.1384
 5806SOL    HW217809   1.184   1.816   3.177 -0.7511 -0.2009 -0.3203
 5807SOL     OW17810   5.294   1.393   0.309  0.2135  0.2322 -0.0798
 5807SOL    HW117811   5.215   1.353   0.272  1.3981 -3.2857  0.8433
 5807SOL    HW217812   5.360   1.382   0.241  0.9741 -1.0389  0.8239
 5808SOL     OW17813   4.746   6.574   2.355 -0.0354  0.6243 -0.3086
 5808SOL    HW117814   4.679   6.584   2.287 -0.2187  4.7668  0.1932
 5808SOL    HW217815   4.829   6.579   2.308 -0.0805 -0.5161 -0.5410
 5809SOL     OW17816   1.930   0.898   4.866  0.0417 -0.0881 -0.0692
 5809SOL    HW117817   2.006   0.920   4.813 -0.1859 -0.1202 -0.4158
 5809SOL    HW217818   1.948   0.936   4.952  0.8115 -0.7935  0.0932
 5810SOL     OW17819   3.072   5.733   0.838 -0.2823 -0.4878  0.0368
 5810SOL    HW117820   3.068   5.786   0.758  2.6308  0.6604  0.5171
 5810SOL    HW217821   3.119   5.654   0.813 -1.5255 -1.2666  0.1057
 5811SOL     OW17822   6.600   2.685   1.800 -0.6437  0.1552 -0.9595
 5811SOL    HW117823   6.561   2.699   1.887 -0.4244 -1.2387 -0.5991
 5811SOL    HW217824   6.537   2.722   1.739 -0.9754  0.8387 -0.2230
 5812SOL     OW17825   3.797   1.342   5.415 -0.0193 -0.2719  0.7313
 5812SOL    HW117826   3.775   1.369   5.326  0.0821 -0.8045  0.5444
 5812SOL    HW217827   3.712   1.329   5.458 -0.0863  1.1889  1.0909
 5813SOL     OW17828   4.278   0.066   1.528  0.6010  0.1482  0.1347
 5813SOL    HW117829   4.294   0.135   1.593  1.8911  0.3569 -0.3676
 5813SOL    HW217830   4.183   0.055   1.528  0.3934  1.6712  0.4932
 5814SOL     OW17831   2.881   0.759   3.782 -0.1329  0.1327  0.5365
 5814SOL    HW117832   2.954   0.820   3.778 -0.6736  0.7171 -1.5621
 5814SOL    HW217833   2.898   0.696   3.711 -2.2966  1.0896 -0.9390
 5815SOL     OW17834   0.499   1.374   3.419  0.2830  0.6432  0.2933
 5815SOL    HW117835   0.491   1.363   3.324 -0.4930  1.1198  0.2961
 5815SOL    HW217836   0.455   1.297   3.456 -1.3589  1.5337  0.2730
 5816SOL     OW17837   6.439   3.750   2.857 -0.3202  0.2707 -0.5963
 5816SOL    HW117838   6.343   3.750   2.852 -0.4256 -0.2433  0.9384
 5816SOL    HW217839   6.459   3.805   2.933  0.4965 -1.4271  0.4668
 5817SOL     OW17840   2.964   0.010   4.018  0.0981 -0.2828 -0.0282
 5817SOL    HW117841   2.929   0.018   4.107  0.1385 -0.1007 -0.0279
 5817SOL    HW217842   2.994  -0.081   4.013  0.4931 -0.1747  0.2918
 5818SOL     OW17843   5.529   3.504   5.528  0.6273  0.1085  0.6127
 5818SOL    HW117844   5.577   3.562   5.470 -0.6144 -0.2994 -0.8943
 5818SOL    HW217845   5.583   3.425   5.534  1.8846  1.0151  1.9528
 5819SOL     OW17846   2.220   6.630   0.656 -0.3506  0.0495  0.3996
 5819SOL    HW117847   2.312   6.608   0.642  0.4209  2.2527  1.5134
 5819SOL    HW217848   2.179   6.547   0.679  1.5875 -0.8004  1.0162
 5820SOL     OW17849   5.127   1.354   1.437  0.2451 -0.1812  0.2995
 5820SOL    HW117850   5.077   1.432   1.458 -1.4918 -1.5891  1.7468
 5820SOL    HW217851   5.080   1.315   1.362  1.3971  0.3701 -0.7534
 5821SOL     OW17852   5.294   5.151   4.073 -0.1152  0.3181 -0.4525
 5821SOL    HW117853   5.292   5.143   3.977 -0.2869  2.6273 -0.7046
 5821SOL    HW217854   5.207   5.186   4.095  0.4177  1.1594  0.3658
 5822SOL     OW17855   0.092   5.524   3.407 -0.3288  0.2962  0.2555
 5822SOL    HW117856   0.129   5.442   3.376  1.4558  0.9959  0.4406
 5822SOL    HW217857   0.142   5.592   3.362 -0.7699  1.2972  1.2253
 5823SOL     OW17858   1.097   0.903   2.702 -0.1807 -0.1815  0.3280
 5823SOL    HW117859   1.025   0.884   2.762 -0.4611  0.5351  0.2284
 5823SOL    HW217860   1.131   0.817   2.677 -2.7088 -0.7015 -1.7316
 5824SOL     OW17861   6.099   1.976   1.392 -0.4949 -0.4121  0.3065
 5824SOL    HW117862   6.076   2.008   1.479 -1.2854 -1.3110  0.4438
 5824SOL    HW217863   6.098   1.880   1.401 -2.4349 -0.5842 -1.1201
 5825SOL     OW17864   0.934   6.032   2.604  0.6712 -0.2831  0.0105
 5825SOL    HW117865   0.871   6.039   2.533  0.7536  0.7338  0.0262
 5825SOL    HW217866   1.020   6.041   2.562  0.7793 -0.9472  0.0808
 5826SOL     OW17867   4.441   4.518   2.748  0.5821 -0.4529 -0.1565
 5826SOL    HW117868   4.468   4.551   2.663 -0.6309  0.2744 -0.2925
 5826SOL    HW217869   4.436   4.595   2.804 -0.1624 -0.6987  0.1312
 5827SOL     OW17870   5.915   4.189   6.677  0.0629 -0.3757 -0.2669
 5827SOL    HW117871   5.953   4.171   6.591  0.2638  2.0495 -0.7741
 5827SOL    HW217872   5.983   4.164   6.739  1.3859  1.1285 -1.0305
 5828SOL     OW17873   3.250   0.506   0.216 -0.0839 -0.1144 -0.3636
 5828SOL    HW117874   3.252   0.479   0.308 -0.1505 -1.7657 -0.8269
 5828SOL    HW217875   3.258   0.425   0.167 -1.1090  0.6517 -1.8455
 5829SOL     OW17876   1.756   2.745   4.633  0.2762 -0.2898 -0.2805
 5829SOL    HW117877   1.753   2.758   4.538 -1.7101  1.3666 -0.0710
 5829SOL    HW217878   1.720   2.657   4.646  0.0977 -0.3438 -1.0508
 5830SOL     OW17879   1.584   6.692   0.720 -0.0602 -0.3052  0.1152
 5830SOL    HW117880   1.546   6.615   0.762  1.8537 -1.4895 -0.1591
 5830SOL    HW217881   1.622   6.742   0.792  0.3420 -0.6140  0.1207
 5831SOL     OW17882   4.103   4.184   6.828 -0.2389  0.0633  0.0611
 5831SOL    HW117883   4.043   4.218   6.761 -1.7248  0.4464  1.5383
 5831SOL    HW217884   4.067   4.099   6.853  2.1151 -1.6719 -1.8590
 5832SOL     OW17885   5.543   1.185   3.820 -0.1501  0.4326 -0.0229
 5832SOL    HW117886   5.506   1.099   3.839 -1.5651  0.9870 -0.0670
 5832SOL    HW217887   5.477   1.246   3.854  1.0884  1.5074  0.5209
 5833SOL     OW17888   5.764   4.046   1.450  0.3015 -0.2299 -0.1796
 5833SOL    HW117889   5.781   4.118   1.391 -1.2512  0.4819  0.1820
 5833SOL    HW217890   5.836   4.047   1.513 -0.2473  1.7236  0.4748
 5834SOL     OW17891   2.800   0.310   2.232 -0.0807 -0.1903  0.1725
 5834SOL    HW117892   2.759   0.224   2.218  0.6114 -0.4310 -0.3851
 5834SOL    HW217893   2.735   0.359   2.283  0.6249 -1.9658  2.9785
 5835SOL     OW17894   0.370   2.109   6.152 -0.5970 -0.0315 -0.0899
 5835SOL    HW117895   0.281   2.139   6.135 -0.8024  0.4042  1.5663
 5835SOL    HW217896   0.372   2.093   6.246  0.6535 -1.4878 -0.3269
 5836SOL     OW17897   1.630   4.890   6.353 -0.3164 -0.6092 -0.0733
 5836SOL    HW117898   1.539   4.908   6.376 -0.2649  0.4746 -0.6476
 5836SOL    HW217899   1.651   4.954   6.284  1.0684 -0.4093  0.4896
 5837SOL     OW17900   6.596   2.335   0.996  0.4198  0.0341 -0.1302
 5837SOL    HW117901   6.675   2.291   0.965 -1.6429 -3.1042 -1.3456
 5837SOL    HW217902   6.524   2.282   0.965 -2.2845  2.8351  0.7812
 5838SOL     OW17903   4.424   4.912   2.496 -0.5189 -0.3333 -0.2231
 5838SOL    HW117904   4.344   4.863   2.514 -0.4330 -0.5717 -0.4810
 5838SOL    HW217905   4.493   4.845   2.494 -0.4139 -0.2094 -0.6676
 5839SOL     OW17906   5.963   3.400   4.855  1.2177  0.0873 -0.4322
 5839SOL    HW117907   5.974   3.325   4.913 -1.3390  0.6706  0.9230
 5839SOL    HW217908   6.007   3.472   4.900 -0.5927  0.4928  0.7751
 5840SOL     OW17909   2.451   0.148   0.590  0.4142 -0.3405  0.2987
 5840SOL    HW117910   2.440   0.223   0.531  0.9773 -0.6755 -0.2502
 5840SOL    HW217911   2.362   0.114   0.603  0.3697 -0.8794 -1.1927
 5841SOL     OW17912   5.729   2.910   2.038 -0.4874 -0.3042  0.0557
 5841SOL    HW117913   5.770   2.896   2.124 -0.1217 -0.0336 -0.0691
 5841SOL    HW217914   5.673   2.986   2.052 -0.4792 -0.3010  0.0737
 5842SOL     OW17915   3.871   0.056   0.313  0.2174  0.0773  0.2901
 5842SOL    HW117916   3.781   0.076   0.289 -0.2412  0.4313  2.1335
 5842SOL    HW217917   3.910   0.018   0.234 -2.1322 -2.0513  0.0181
 5843SOL     OW17918   3.487   0.350   3.530 -0.0411  0.0170 -0.0686
 5843SOL    HW117919   3.518   0.428   3.485 -0.2527 -0.5534 -1.2424
 5843SOL    HW217920   3.566   0.308   3.564  0.1401  0.3522 -0.0726
 5844SOL     OW17921   2.098   6.764   3.317 -0.5788 -0.5760  0.0473
 5844SOL    HW117922   2.139   6.838   3.271  0.1682 -1.3536 -0.5798
 5844SOL    HW217923   2.145   6.687   3.284 -3.2155 -1.6405 -1.5123
 5845SOL     OW17924   5.022   3.705   0.551 -0.0477 -0.2977 -0.0895
 5845SOL    HW117925   4.971   3.746   0.622 -0.1514 -1.3469  0.4647
 5845SOL    HW217926   5.087   3.652   0.597  0.0197 -0.8243 -0.7880
 5846SOL     OW17927   1.433   0.898   3.238  0.4593 -0.2941 -0.5349
 5846SOL    HW117928   1.487   0.976   3.248  0.4349 -0.1756 -1.2856
 5846SOL    HW217929   1.344   0.931   3.229  0.1789 -0.5027  1.0440
 5847SOL     OW17930   6.060   4.456   5.085  0.2096  0.5714  0.0879
 5847SOL    HW117931   6.061   4.380   5.028  0.5813  2.0533 -1.9806
 5847SOL    HW217932   5.991   4.437   5.149 -0.8659 -0.7634 -1.4046
 5848SOL     OW17933   5.302   5.012   4.560 -0.0618  0.6448 -0.4598
 5848SOL    HW117934   5.233   4.947   4.570 -0.0718  0.7092 -0.1149
 5848SOL    HW217935   5.337   4.995   4.472  0.9280 -0.8057  0.1706
 5849SOL     OW17936   3.538   0.434   4.818 -0.8134  0.2606 -0.1230
 5849SOL    HW117937   3.531   0.514   4.869  1.0939  1.3469 -1.4239
 5849SOL    HW217938   3.519   0.462   4.728 -0.0310 -0.7188 -0.6068
 5850SOL     OW17939   5.846   1.609   1.043 -0.6121 -0.2396  0.1872
 5850SOL    HW117940   5.780   1.672   1.070  1.3175  0.4226  4.0009
 5850SOL    HW217941   5.799   1.525   1.039 -2.0288  0.4926  0.9364
 5851SOL     OW17942   6.829   3.988   4.518  1.0773  0.1562 -0.1637
 5851SOL    HW117943   6.812   3.928   4.445  1.3083 -0.1795  0.0531
 5851SOL    HW217944   6.908   4.035   4.493 -0.8090  2.6838 -1.7817
 5852SOL     OW17945   1.549   1.701   2.489 -0.1739 -0.1721 -0.3290
 5852SOL    HW117946   1.611   1.727   2.421 -1.7727  0.0875 -1.7705
 5852SOL    HW217947   1.489   1.776   2.496  0.9091  0.5131  2.6131
 5853SOL     OW17948   0.779   1.552   3.266  0.1516 -0.8775 -0.3892
 5853SOL    HW117949   0.796   1.469   3.221 -5.0084 -1.7568 -1.2723
 5853SOL    HW217950   0.779   1.618   3.196  4.3501  0.2033  0.3208
 5854SOL     OW17951   3.305   6.235   4.445 -0.0853 -0.4775 -0.0327
 5854SOL    HW117952   3.255   6.298   4.393  0.9761 -0.1759 -0.7215
 5854SOL    HW217953   3.321   6.162   4.385  1.1681 -0.1193 -0.1654
 5855SOL     OW17954   2.927   5.633   2.144  0.7980  0.4008  0.4058
 5855SOL    HW117955   2.895   5.713   2.103  0.2819 -0.2315 -0.4701
 5855SOL    HW217956   2.848   5.592   2.180  1.1998  0.7930  1.7985
 5856SOL     OW17957   1.368   1.933   1.252  0.2429 -0.3336  0.0961
 5856SOL    HW117958   1.316   1.890   1.320  1.3107  0.8034  1.7209
 5856SOL    HW217959   1.446   1.878   1.243 -0.3553 -1.0361 -0.9929
 5857SOL     OW17960   0.285   5.781   2.370 -0.3665  0.0231 -0.0905
 5857SOL    HW117961   0.329   5.866   2.373  1.5913 -0.9721  2.4024
 5857SOL    HW217962   0.326   5.735   2.297  1.0963 -0.0104  0.7199
 5858SOL     OW17963   1.269   1.544   5.976  0.3824  0.6666 -1.1286
 5858SOL    HW117964   1.218   1.592   5.910 -1.2549  1.9368  0.9350
 5858SOL    HW217965   1.353   1.589   5.979  0.3417  0.8321 -2.0316
 5859SOL     OW17966   6.632   4.146   5.704  0.0639 -0.3251 -0.5095
 5859SOL    HW117967   6.552   4.095   5.697  0.7518 -1.3087 -1.4188
 5859SOL    HW217968   6.694   4.090   5.751  0.5514  0.0069 -0.7344
 5860SOL     OW17969   3.257   0.239   6.165 -0.0364  0.1568  0.7501
 5860SOL    HW117970   3.186   0.211   6.221 -1.3969 -0.8237 -1.3304
 5860SOL    HW217971   3.331   0.184   6.190 -1.1254 -1.5284  0.4148
 5861SOL     OW17972   3.544   3.349   4.603 -0.4213 -0.8327 -0.0837
 5861SOL    HW117973   3.534   3.444   4.606 -1.9729 -1.0000  0.8538
 5861SOL    HW217974   3.623   3.331   4.653  0.9891  0.0792 -1.8855
 5862SOL     OW17975   2.641   0.139   1.669  0.2281  0.2409 -0.5610
 5862SOL    HW117976   2.635   0.139   1.574 -0.4063  2.6576 -0.5920
 5862SOL    HW217977   2.721   0.187   1.688 -0.1894  0.6860  0.1197
 5863SOL     OW17978   2.180   2.877   0.196  0.5190  0.1046 -0.2332
 5863SOL    HW117979   2.099   2.840   0.161  0.6750 -1.4741  0.9407
 5863SOL    HW217980   2.171   2.971   0.183 -1.3224 -0.0749 -0.5156
 5864SOL     OW17981   5.739   5.963   6.488  0.5410  0.2414 -0.2871
 5864SOL    HW117982   5.765   5.887   6.436 -0.9395 -1.5077  1.3897
 5864SOL    HW217983   5.691   5.927   6.562  0.8758  2.7485  1.2956
 5865SOL     OW17984   6.391   5.216   1.086  0.1564 -0.1083 -0.4412
 5865SOL    HW117985   6.483   5.220   1.063 -0.0754  0.6578 -1.2882
 5865SOL    HW217986   6.351   5.288   1.038 -0.9723 -0.7453 -0.4951
 5866SOL     OW17987   3.613   4.318   0.231  0.0794  0.1345  0.5947
 5866SOL    HW117988   3.671   4.344   0.159  1.2079 -2.1827  0.5408
 5866SOL    HW217989   3.668   4.321   0.309 -0.3574  0.0050  0.9116
 5867SOL     OW17990   6.115   0.301   1.859 -0.0218  0.9141 -0.5650
 5867SOL    HW117991   6.117   0.211   1.893 -0.7523  0.5960 -1.3316
 5867SOL    HW217992   6.114   0.356   1.937  1.7549  0.3195 -0.0618
 5868SOL     OW17993   2.806   6.448   0.678  0.2094 -0.0008  0.2039
 5868SOL    HW117994   2.758   6.372   0.710  0.6896  0.8850  3.3652
 5868SOL    HW217995   2.750   6.522   0.700 -0.1989  0.6745 -2.7168
 5869SOL     OW17996   4.570   6.785   5.355 -0.0426 -0.1697  0.0302
 5869SOL    HW117997   4.661   6.810   5.369 -1.0979  3.5206  1.4501
 5869SOL    HW217998   4.547   6.823   5.270 -0.5259 -0.2308  0.1300
 5870SOL     OW17999   4.060   4.775   4.009 -0.1659  0.7248  0.7084
 5870SOL    HW118000   4.154   4.788   3.997 -0.1849  0.5440  0.3287
 5870SOL    HW218001   4.052   4.736   4.096  0.2764 -0.8788  0.0766
 5871SOL     OW18002   6.502   6.100   4.324  0.0704 -0.2536 -0.3773
 5871SOL    HW118003   6.523   6.008   4.310  1.4948  0.0277 -0.2371
 5871SOL    HW218004   6.539   6.120   4.410 -0.7211  0.3149 -0.1579
 5872SOL     OW18005   0.656   1.311   6.618  0.2794 -0.0733 -0.0288
 5872SOL    HW118006   0.750   1.303   6.635  0.4680  0.5276 -0.7552
 5872SOL    HW218007   0.626   1.376   6.681  0.1186 -1.0744  0.9684
 5873SOL     OW18008   5.377   6.313   3.852 -0.4856 -0.1289  0.0455
 5873SOL    HW118009   5.472   6.330   3.850 -0.6121  0.5550 -0.8763
 5873SOL    HW218010   5.354   6.301   3.760 -1.1647 -1.0847  0.3365
 5874SOL     OW18011   3.454   4.733   0.521  0.3772 -0.4701 -0.7303
 5874SOL    HW118012   3.471   4.666   0.454 -0.4016 -0.4489 -0.9544
 5874SOL    HW218013   3.498   4.811   0.488  1.4385 -0.9030 -0.3846
 5875SOL     OW18014   6.806   6.118   0.580  0.1856  0.3691 -0.2105
 5875SOL    HW118015   6.723   6.162   0.595 -0.1493 -0.4786  0.5273
 5875SOL    HW218016   6.798   6.081   0.492 -0.5082 -0.2910  0.1148
 5876SOL     OW18017   1.843   5.438   1.947 -0.0510 -0.2837 -0.0273
 5876SOL    HW118018   1.775   5.387   1.991 -0.6661 -0.8018 -1.5211
 5876SOL    HW218019   1.867   5.385   1.871  0.3823  0.9777 -0.7935
 5877SOL     OW18020   2.357   2.041   3.708 -0.3038  0.1292 -0.2021
 5877SOL    HW118021   2.353   1.950   3.678  1.7888 -0.4594  1.0910
 5877SOL    HW218022   2.383   2.090   3.629 -1.2529 -0.3951 -0.8635
 5878SOL     OW18023   6.191   1.368   4.546 -0.1341 -0.0356  0.4856
 5878SOL    HW118024   6.103   1.351   4.512 -0.6082 -0.1954  1.7335
 5878SOL    HW218025   6.242   1.291   4.523 -1.2207 -1.4990  2.6318
 5879SOL     OW18026   2.965   2.401   3.490  0.0231  0.3705  1.0505
 5879SOL    HW118027   2.986   2.490   3.461 -0.5667 -0.6404 -3.1224
 5879SOL    HW218028   2.877   2.408   3.525 -1.1026  1.1920 -1.6352
 5880SOL     OW18029   2.084   6.299   0.227  0.2399 -0.2243  0.6086
 5880SOL    HW118030   2.057   6.224   0.174 -1.4682 -0.4281  1.6790
 5880SOL    HW218031   2.152   6.265   0.285  0.4364 -0.5893  0.1667
 5881SOL     OW18032   2.314   5.918   6.363 -0.1638  0.2620 -0.4465
 5881SOL    HW118033   2.389   5.881   6.315  0.7063 -0.5497  1.4388
 5881SOL    HW218034   2.239   5.867   6.332  0.4849 -0.7288 -0.4428
 5882SOL     OW18035   6.378   2.239   0.853  0.1626  0.3051  0.3616
 5882SOL    HW118036   6.357   2.148   0.874  1.3270 -0.0698 -0.0585
 5882SOL    HW218037   6.302   2.289   0.885 -0.7113 -0.8515  0.1508
 5883SOL     OW18038   1.810   1.247   6.684  0.2904  0.3412 -0.0219
 5883SOL    HW118039   1.741   1.268   6.747  1.3352 -1.3379  1.8377
 5883SOL    HW218040   1.878   1.313   6.700  0.0009  0.7344 -0.3819
 5884SOL     OW18041   5.322   4.314   0.894  0.3411  0.2522 -0.1798
 5884SOL    HW118042   5.253   4.314   0.961  0.6645 -0.2971  0.1676
 5884SOL    HW218043   5.346   4.222   0.885 -0.1417  0.2300 -1.5360
 5885SOL     OW18044   5.106   2.650   3.292  0.1449  0.1103 -0.3702
 5885SOL    HW118045   5.126   2.617   3.380 -0.5705 -1.3733 -0.7311
 5885SOL    HW218046   5.137   2.740   3.292  1.7830 -0.4126  0.8353
 5886SOL     OW18047   3.610   5.714   2.785 -0.4745 -0.4499 -0.1122
 5886SOL    HW118048   3.616   5.626   2.748 -1.8954 -0.4929 -0.2896
 5886SOL    HW218049   3.695   5.728   2.825 -0.6943 -2.5115  1.2579
 5887SOL     OW18050   0.394   0.128   1.662  0.1961  0.2571  0.4729
 5887SOL    HW118051   0.465   0.118   1.598  0.3796 -0.1752  0.7384
 5887SOL    HW218052   0.314   0.132   1.610  0.2416 -1.1956  0.2695
 5888SOL     OW18053   2.375   3.877   3.264  0.2585  0.1449  0.4211
 5888SOL    HW118054   2.406   3.802   3.213 -0.2609  0.2341 -0.0417
 5888SOL    HW218055   2.327   3.839   3.337  0.1034  0.0234  0.2562
 5889SOL     OW18056   4.234   0.235   1.027  0.1636 -0.0733 -0.0034
 5889SOL    HW118057   4.209   0.267   1.114  1.0726 -0.2761  0.3469
 5889SOL    HW218058   4.214   0.141   1.030 -0.8706  0.1315 -0.4167
 5890SOL     OW18059   5.449   0.870   3.639 -0.7267 -0.0997 -0.2272
 5890SOL    HW118060   5.494   0.790   3.662 -2.4200 -1.2166 -0.5922
 5890SOL    HW218061   5.398   0.847   3.561  0.0477  1.8176 -1.3729
 5891SOL     OW18062   2.291   0.462   1.721  0.1592 -0.1664 -0.2813
 5891SOL    HW118063   2.314   0.538   1.668  1.6906 -0.3519  0.0836
 5891SOL    HW218064   2.237   0.497   1.792  0.5351  0.5218 -0.3272
 5892SOL     OW18065   4.479   1.993   1.032  0.1996  0.2790  0.2857
 5892SOL    HW118066   4.437   1.912   1.002  1.9478 -0.9607  1.0489
 5892SOL    HW218067   4.539   2.016   0.961  1.6244 -0.5981  1.1636
 5893SOL     OW18068   6.041   5.893   0.949  0.2037 -0.4781 -0.2867
 5893SOL    HW118069   6.022   5.892   0.856 -0.4903  0.9120 -0.1733
 5893SOL    HW218070   5.985   5.961   0.985  2.2105  0.6965  0.7763
 5894SOL     OW18071   2.609   0.066   6.302  0.2930  0.4021  0.4071
 5894SOL    HW118072   2.686   0.049   6.356  0.3372  1.0614  0.5600
 5894SOL    HW218073   2.537   0.073   6.364 -0.0811 -1.2189  0.1920
 5895SOL     OW18074   1.661   4.729   3.578 -0.3569 -0.4851  0.3613
 5895SOL    HW118075   1.688   4.810   3.622  0.6370 -0.3900 -0.3818
 5895SOL    HW218076   1.697   4.659   3.632 -2.3821 -0.5083  1.7637
 5896SOL     OW18077   3.780   0.975   2.442 -0.0127  0.3707 -0.2746
 5896SOL    HW118078   3.768   1.055   2.492  0.9172  0.3790 -0.0379
 5896SOL    HW218079   3.832   0.918   2.499  1.2001  0.4292 -1.2562
 5897SOL     OW18080   4.311   3.949   2.643  0.3320 -0.5644  0.2929
 5897SOL    HW118081   4.239   3.897   2.606 -1.3043  0.3357  2.0269
 5897SOL    HW218082   4.349   3.994   2.567  0.0176 -2.1534 -0.8620
 5898SOL     OW18083   0.996   4.246   6.742  0.1376  0.3697 -0.3268
 5898SOL    HW118084   1.087   4.253   6.715  0.4265  1.7292  0.8758
 5898SOL    HW218085   0.947   4.237   6.660  1.2990  0.0861 -1.0083
 5899SOL     OW18086   2.935   2.382   5.630  0.8376 -0.4386 -1.0183
 5899SOL    HW118087   2.907   2.326   5.557 -0.7110 -1.2492  0.1371
 5899SOL    HW218088   2.895   2.467   5.612  0.4316 -0.6445 -1.0869
 5900SOL     OW18089   2.987   6.102   4.364 -0.1122 -0.4000  0.3354
 5900SOL    HW118090   2.973   6.154   4.285  0.5582  0.4683  0.7693
 5900SOL    HW218091   3.062   6.046   4.344 -0.9984 -1.4407 -0.2267
 5901SOL     OW18092   1.398   1.484   1.095 -0.1844  0.6823  0.1634
 5901SOL    HW118093   1.325   1.423   1.089 -2.3154  2.6498  3.1031
 5901SOL    HW218094   1.426   1.498   1.004 -0.7766 -3.0765 -0.7444
 5902SOL     OW18095   3.665   1.935   2.988  0.0203 -0.0440  0.0345
 5902SOL    HW118096   3.755   1.915   2.964  0.3449 -0.5083  1.5410
 5902SOL    HW218097   3.647   1.880   3.065 -1.1326  0.9272  0.4989
 5903SOL     OW18098   3.607   6.790   2.240 -0.0166 -0.3874  0.1782
 5903SOL    HW118099   3.516   6.783   2.211 -0.1971 -0.5094  0.7651
 5903SOL    HW218100   3.610   6.873   2.288  0.4023  0.0685 -0.6049
 5904SOL     OW18101   2.910   2.035   4.847 -0.8249 -0.1107 -0.0861
 5904SOL    HW118102   2.925   2.077   4.762 -1.9516 -1.5937 -1.0851
 5904SOL    HW218103   2.989   1.983   4.862 -0.3944  0.5727  0.0493
 5905SOL     OW18104   0.985   2.563   5.887  0.3225  0.4766 -0.0195
 5905SOL    HW118105   0.998   2.532   5.797  1.2176  1.4369 -0.2415
 5905SOL    HW218106   1.073   2.564   5.925 -0.2798 -2.5004  1.8021
 5906SOL     OW18107   6.549   0.742   4.329  0.3487 -0.1431  0.0591
 5906SOL    HW118108   6.470   0.719   4.280 -0.1446  1.2909  0.1272
 5906SOL    HW218109   6.559   0.671   4.392 -0.2642 -0.8905 -0.6535
 5907SOL     OW18110   2.098   2.529   0.572  0.2857 -0.1689  0.7720
 5907SOL    HW118111   2.109   2.583   0.651 -0.0676  1.8112 -0.4541
 5907SOL    HW218112   2.010   2.493   0.580  0.5089 -0.5716  1.5897
 5908SOL     OW18113   5.362   3.546   3.293  0.0946 -0.7135  0.4495
 5908SOL    HW118114   5.282   3.544   3.346 -0.0067 -0.3116  0.3086
 5908SOL    HW218115   5.419   3.608   3.338  0.0103 -0.3743  0.0931
 5909SOL     OW18116   5.408   1.369   5.159  0.2162  0.2234 -0.1637
 5909SOL    HW118117   5.457   1.289   5.179  0.9668  0.9075  0.8630
 5909SOL    HW218118   5.473   1.427   5.119 -0.2589  0.4270 -0.6571
 5910SOL     OW18119   4.476   2.390   1.114 -0.0485 -0.1522  0.1293
 5910SOL    HW118120   4.425   2.320   1.155 -1.4877  1.6334  1.5059
 5910SOL    HW218121   4.437   2.400   1.027 -1.1333  0.2044  0.6346
 5911SOL     OW18122   1.698   1.627   4.425 -0.9579 -0.1244 -0.2062
 5911SOL    HW118123   1.758   1.603   4.495  0.1861 -0.7708 -1.3721
 5911SOL    HW218124   1.708   1.722   4.418  0.8149 -0.3425 -1.1272
 5912SOL     OW18125   4.395   1.879   5.227 -0.1715 -0.2261 -0.1108
 5912SOL    HW118126   4.380   1.973   5.232 -0.9291 -0.2739 -1.2501
 5912SOL    HW218127   4.313   1.839   5.257 -0.9223 -0.4851 -2.2822
 5913SOL     OW18128   0.851   5.990   1.438  0.7316 -0.0322  0.1148
 5913SOL    HW118129   0.901   5.937   1.376  1.1006  1.3994 -0.8718
 5913SOL    HW218130   0.845   5.936   1.517  2.1726 -1.0131 -0.4031
 5914SOL     OW18131   5.671   0.130   1.894 -0.2480 -0.0883  0.4010
 5914SOL    HW118132   5.661   0.046   1.938  0.5751 -1.7709 -2.3210
 5914SOL    HW218133   5.587   0.146   1.852 -0.3697  0.4286  0.8254
 5915SOL     OW18134   0.300   5.337   5.370  0.1257  0.2413 -0.1925
 5915SOL    HW118135   0.216   5.365   5.333  0.8453  0.6333 -1.6279
 5915SOL    HW218136   0.333   5.413   5.416  0.0230  0.3200 -0.2497
 5916SOL     OW18137   2.240   1.533   0.675 -0.0330 -0.4032  0.1728
 5916SOL    HW118138   2.289   1.471   0.621 -1.2351 -0.7464 -0.5532
 5916SOL    HW218139   2.301   1.556   0.745  1.1500 -0.8306 -0.6804
 5917SOL     OW18140   0.003   3.397   3.483 -0.2517 -0.2521 -0.1825
 5917SOL    HW118141  -0.054   3.470   3.505  0.7412  0.9596 -1.4410
 5917SOL    HW218142   0.043   3.421   3.400  1.6055 -1.3204  0.3303
 5918SOL     OW18143   2.103   1.309   4.846  0.3396 -0.9808 -0.4575
 5918SOL    HW118144   2.181   1.296   4.792 -0.6196 -1.6724 -1.7237
 5918SOL    HW218145   2.114   1.396   4.884  0.8651 -0.2821 -2.1203
 5919SOL     OW18146   5.637   1.099   0.577  0.0579 -0.7877 -0.6755
 5919SOL    HW118147   5.565   1.094   0.514  0.8842 -0.7979 -1.6343
 5919SOL    HW218148   5.660   1.008   0.594 -1.2452 -0.8691  0.9539
 5920SOL     OW18149   2.863   2.281   2.299 -0.4964  0.2717 -0.2518
 5920SOL    HW118150   2.779   2.235   2.292 -1.2385  1.4996  0.1760
 5920SOL    HW218151   2.922   2.231   2.244 -1.4606 -0.7345 -0.4220
 5921SOL     OW18152   4.703   3.291   5.743  0.3426  0.8258 -0.2484
 5921SOL    HW118153   4.744   3.368   5.783 -0.0307  0.5364  0.7335
 5921SOL    HW218154   4.727   3.218   5.801  0.2177  0.2949 -0.8489
 5922SOL     OW18155   4.821   4.792   5.197 -0.4263 -0.1276 -0.0280
 5922SOL    HW118156   4.848   4.849   5.269 -0.6498 -1.8173  1.4531
 5922SOL    HW218157   4.891   4.728   5.188 -1.0192 -0.7506 -0.4009
 5923SOL     OW18158   0.434   6.348   3.190 -0.2594  0.2370 -0.4738
 5923SOL    HW118159   0.434   6.440   3.217  0.1044 -0.0457  0.5125
 5923SOL    HW218160   0.466   6.300   3.266 -3.3435 -1.0651  0.1350
 5924SOL     OW18161   4.219   1.976   1.837 -0.2414  0.0851  0.6862
 5924SOL    HW118162   4.155   1.905   1.844  0.2049 -0.3301  0.5227
 5924SOL    HW218163   4.235   2.003   1.928 -0.3226 -0.0971  0.7542
 5925SOL     OW18164   4.289   5.728   0.846 -0.4259 -0.2477  0.4291
 5925SOL    HW118165   4.242   5.659   0.801  0.8103  0.7653 -2.6495
 5925SOL    HW218166   4.221   5.782   0.886 -1.7664 -0.2939 -1.6587
 5926SOL     OW18167   2.321   2.924   0.408  0.0604 -0.3665  0.1633
 5926SOL    HW118168   2.264   2.909   0.333 -0.4778 -1.1305  0.7163
 5926SOL    HW218169   2.334   2.838   0.447  1.5678 -0.2115  0.0862
 5927SOL     OW18170   1.732   2.977   3.105  0.2592  0.3476 -0.0029
 5927SOL    HW118171   1.787   3.051   3.079  1.1058  0.3443  1.7066
 5927SOL    HW218172   1.696   3.002   3.190 -0.2742 -0.7816  0.1237
 5928SOL     OW18173   3.417   4.008   2.478 -0.2204 -0.3920 -0.6062
 5928SOL    HW118174   3.466   3.940   2.431  0.0416 -0.5856 -0.0675
 5928SOL    HW218175   3.441   3.995   2.570 -1.6250 -0.7723 -0.2683
 5929SOL     OW18176   2.716   5.972   1.610 -0.0898 -1.0232 -0.0925
 5929SOL    HW118177   2.770   6.030   1.557 -0.9342  0.5266  0.6578
 5929SOL    HW218178   2.640   5.951   1.556 -1.1688  0.9132  0.5744
 5930SOL     OW18179   6.352   6.396   5.779 -0.7790  0.1675  0.0385
 5930SOL    HW118180   6.374   6.316   5.825 -1.7080 -0.9814 -1.4146
 5930SOL    HW218181   6.260   6.412   5.801 -1.1164 -0.1723 -1.0525
 5931SOL     OW18182   6.157   4.344   3.574  0.1784 -0.1542  0.1966
 5931SOL    HW118183   6.231   4.404   3.584 -1.8225  2.2401  1.6860
 5931SOL    HW218184   6.181   4.268   3.628  3.0724 -1.1991 -2.2754
 5932SOL     OW18185   3.237   3.271   0.098 -0.5686 -0.2497  0.7828
 5932SOL    HW118186   3.202   3.209   0.162 -0.0245  0.7886  2.1309
 5932SOL    HW218187   3.173   3.342   0.094 -0.8054 -0.5015 -0.1533
 5933SOL     OW18188   5.912   3.494   3.855  0.3131  0.0274 -0.2751
 5933SOL    HW118189   5.880   3.467   3.941  1.2096 -0.9892 -0.2354
 5933SOL    HW218190   5.941   3.584   3.868 -0.3752  0.1800  0.2594
 5934SOL     OW18191   1.245   4.154   4.366 -0.0104 -0.7295 -0.1090
 5934SOL    HW118192   1.181   4.161   4.296 -0.5101  2.1430  0.4982
 5934SOL    HW218193   1.324   4.120   4.323 -1.1089 -1.7749 -1.4054
 5935SOL     OW18194   0.648   2.500   6.716 -0.1782 -0.8095 -0.1776
 5935SOL    HW118195   0.740   2.497   6.742  0.5136  2.7421 -1.6317
 5935SOL    HW218196   0.602   2.528   6.796  0.2337 -1.0117  0.1366
 5936SOL     OW18197   1.268   2.661   2.699  0.0237  0.5151 -0.7642
 5936SOL    HW118198   1.246   2.583   2.647  2.6819 -0.4212 -0.6397
 5936SOL    HW218199   1.322   2.627   2.770 -1.7457  2.0672  1.4455
 5937SOL     OW18200   2.076   5.263   4.147 -0.0234  0.0944 -0.6292
 5937SOL    HW118201   2.006   5.222   4.198  0.0510  1.6676  0.8005
 5937SOL    HW218202   2.110   5.332   4.204  3.0467 -0.9084 -1.0330
 5938SOL     OW18203   6.585   0.590   0.813 -0.1117 -0.1801 -0.1884
 5938SOL    HW118204   6.590   0.627   0.902 -1.8107 -1.0849  0.3427
 5938SOL    HW218205   6.605   0.497   0.825 -1.1458 -0.4652 -0.6050
 5939SOL     OW18206   2.118   4.463   2.932  0.2234 -0.0044  0.0582
 5939SOL    HW118207   2.115   4.448   3.026  1.3002  1.3676  0.3410
 5939SOL    HW218208   2.116   4.375   2.894  0.6318 -0.6173  1.3804
 5940SOL     OW18209   6.239   2.482   3.202  0.2847 -0.4640 -0.4935
 5940SOL    HW118210   6.220   2.389   3.198  1.1270 -0.6190 -1.0759
 5940SOL    HW218211   6.184   2.521   3.134 -1.0614 -0.3381  0.6153
 5941SOL     OW18212   6.821   5.791   6.237 -0.3644  0.1044 -0.8502
 5941SOL    HW118213   6.788   5.773   6.326  2.3058 -1.5294 -0.0772
 5941SOL    HW218214   6.808   5.709   6.190  0.1196  0.3029 -1.3340
 5942SOL     OW18215   3.450   1.510   6.006 -0.1273 -0.4653  0.2321
 5942SOL    HW118216   3.412   1.434   6.049  0.1562 -0.5949  0.2585
 5942SOL    HW218217   3.500   1.474   5.933 -1.3930 -0.1768 -0.8102
 5943SOL     OW18218   4.013   4.693   4.256 -0.4684  0.4224 -0.5251
 5943SOL    HW118219   3.926   4.686   4.295 -0.0188  2.4161  0.9766
 5943SOL    HW218220   4.065   4.628   4.304 -1.1114 -0.9039 -1.5486
 5944SOL     OW18221   1.019   6.037   5.347  0.4648 -0.7651 -0.6357
 5944SOL    HW118222   1.041   6.058   5.437 -0.8466  0.0584 -0.4924
 5944SOL    HW218223   1.083   6.086   5.295 -0.1057  0.4528 -0.2001
 5945SOL     OW18224   2.602   4.296   6.251 -0.1973  0.6200 -0.0511
 5945SOL    HW118225   2.650   4.367   6.294 -1.3767  1.4046  0.0306
 5945SOL    HW218226   2.512   4.306   6.281 -0.1998 -1.6703  0.9105
 5946SOL     OW18227   3.692   4.171   0.465  0.4309 -0.3921  0.3185
 5946SOL    HW118228   3.755   4.200   0.398 -0.1791  0.2983  0.0275
 5946SOL    HW218229   3.729   4.090   0.499  0.2068 -1.3877 -1.6650
 5947SOL     OW18230   3.392   0.381   0.572 -0.2850 -0.0022  0.3929
 5947SOL    HW118231   3.371   0.298   0.615 -2.3746  1.1283  1.7501
 5947SOL    HW218232   3.394   0.445   0.643 -0.5900  1.4013 -0.8105
 5948SOL     OW18233   4.538   2.585   2.272  0.4594  0.4110  0.0521
 5948SOL    HW118234   4.463   2.642   2.256  1.0383  1.0499 -0.4775
 5948SOL    HW218235   4.592   2.594   2.193  1.6937  0.9248  0.9081
 5949SOL     OW18236   5.898   2.889   2.756  0.2830 -0.1472  0.1790
 5949SOL    HW118237   5.914   2.798   2.730  2.1496 -0.2104  1.3234
 5949SOL    HW218238   5.983   2.932   2.742 -0.2150  1.1024  0.8974
 5950SOL     OW18239   6.732   5.933   0.808  0.0524  0.1192 -0.6098
 5950SOL    HW118240   6.672   5.895   0.744  2.3141 -0.1325 -2.7289
 5950SOL    HW218241   6.700   6.022   0.822  0.4087  0.7730 -3.4417
 5951SOL     OW18242   3.264   0.295   4.209  0.1753 -0.0632 -0.4128
 5951SOL    HW118243   3.258   0.379   4.163  1.3444  0.4396  0.3031
 5951SOL    HW218244   3.358   0.285   4.227  0.2284 -2.1038 -1.5353
 5952SOL     OW18245   3.106   1.211   3.804  0.2392 -0.1127  0.0163
 5952SOL    HW118246   3.143   1.137   3.756  0.5822  0.0631 -0.0001
 5952SOL    HW218247   3.015   1.187   3.821 -0.0997  0.1260 -1.3404
 5953SOL     OW18248   5.905   3.112   2.477 -0.7358  0.1964 -0.0009
 5953SOL    HW118249   5.946   3.180   2.422  0.2383 -0.3666 -0.0017
 5953SOL    HW218250   5.813   3.114   2.452 -0.8528  1.9013  0.4066
 5954SOL     OW18251   2.740   5.359   3.647  0.5278  0.0551  0.5424
 5954SOL    HW118252   2.689   5.421   3.699 -1.8154 -1.6816  0.4552
 5954SOL    HW218253   2.711   5.273   3.676  0.5172 -1.0046 -2.3068
 5955SOL     OW18254   1.111   5.926   2.302  0.4725  0.5548 -0.0361
 5955SOL    HW118255   1.022   5.898   2.281  1.2835 -1.2092 -1.3967
 5955SOL    HW218256   1.133   5.989   2.233  1.4815 -1.7434 -1.9691
 5956SOL     OW18257   3.334   3.579   3.644  0.0389 -0.0666  0.0404
 5956SOL    HW118258   3.376   3.664   3.655 -1.0657  0.5505 -0.4238
 5956SOL    HW218259   3.250   3.587   3.689  0.3876 -1.2841  0.9536
 5957SOL     OW18260   5.284   5.132   2.250  0.2285  0.4280 -0.0943
 5957SOL    HW118261   5.274   5.129   2.155  0.1361  0.8377 -0.0990
 5957SOL    HW218262   5.346   5.062   2.270 -0.5516 -0.3469 -0.3432
 5958SOL     OW18263   0.210   3.326   3.708 -0.2195  0.3171 -0.3274
 5958SOL    HW118264   0.222   3.234   3.684  0.1981  0.2658  0.0646
 5958SOL    HW218265   0.178   3.368   3.628 -0.0336 -0.0906 -0.6183
 5959SOL     OW18266   3.071   1.725   6.240 -0.5455  0.5460  0.0281
 5959SOL    HW118267   3.063   1.723   6.144  1.4302  1.4700 -0.2063
 5959SOL    HW218268   3.165   1.736   6.255 -0.8208  0.3087  2.0899
 5960SOL     OW18269   1.010   3.932   5.030  0.1692 -0.3929  0.1769
 5960SOL    HW118270   0.937   3.883   5.067 -0.4046  0.3139  0.0158
 5960SOL    HW218271   1.082   3.918   5.091  0.6833 -3.1226 -0.9303
 5961SOL     OW18272   1.366   2.759   0.554  0.2650  0.6758 -0.1537
 5961SOL    HW118273   1.285   2.810   0.545  0.7023  1.1660 -1.8085
 5961SOL    HW218274   1.401   2.783   0.639 -1.4454  0.2661  0.7011
 5962SOL     OW18275   0.349   3.757   3.464  0.6612 -0.1982 -0.2571
 5962SOL    HW118276   0.313   3.837   3.425  1.4756  1.0445  1.4316
 5962SOL    HW218277   0.432   3.743   3.418  1.4946  1.1098  0.7760
 5963SOL     OW18278   6.116   4.491   4.321  0.2695 -0.0689  0.2514
 5963SOL    HW118279   6.204   4.467   4.348  0.8905  0.6326 -1.0146
 5963SOL    HW218280   6.101   4.440   4.241 -1.8089 -2.6977  2.1620
 5964SOL     OW18281   5.674   6.252   1.976  0.1459 -0.1519 -0.2471
 5964SOL    HW118282   5.615   6.211   1.912 -1.8776 -0.6024  1.7530
 5964SOL    HW218283   5.681   6.343   1.947 -0.0237 -0.5335 -1.5528
 5965SOL     OW18284   5.158   6.254   1.065  0.0153 -0.0870 -0.1617
 5965SOL    HW118285   5.193   6.216   1.146  1.0082 -0.2810 -0.6550
 5965SOL    HW218286   5.221   6.323   1.042 -0.9746  0.8846 -0.0697
 5966SOL     OW18287   1.908   2.261   1.652 -0.4123 -0.1304  0.6367
 5966SOL    HW118288   1.866   2.296   1.574  0.4028  0.7492  0.5825
 5966SOL    HW218289   1.912   2.334   1.713  1.9192  0.1339  0.2785
 5967SOL     OW18290   3.748   6.621   1.408 -0.2703 -0.3805  0.1941
 5967SOL    HW118291   3.735   6.701   1.459 -0.0322 -0.0414 -0.2741
 5967SOL    HW218292   3.660   6.590   1.389 -0.3622 -0.3956  0.6300
 5968SOL     OW18293   2.939   3.703   4.094 -0.5036  0.2110 -0.0922
 5968SOL    HW118294   2.852   3.669   4.073 -0.0934  0.1226 -1.7607
 5968SOL    HW218295   2.940   3.791   4.056  0.3510 -0.0318 -0.6560
 5969SOL     OW18296   0.619   3.192   2.363  0.0224  0.2750 -0.5180
 5969SOL    HW118297   0.622   3.186   2.459 -0.6165  1.6721 -0.3917
 5969SOL    HW218298   0.627   3.101   2.334  2.8912  0.0014  0.7580
 5970SOL     OW18299   1.893   1.321   2.178 -0.6046  0.2330  0.5609
 5970SOL    HW118300   1.937   1.315   2.263  0.3275  1.9666  0.2406
 5970SOL    HW218301   1.958   1.289   2.115 -1.2931 -1.0470  0.4641
 5971SOL     OW18302   1.781   2.593   3.856 -0.1089 -0.4140  0.3643
 5971SOL    HW118303   1.706   2.564   3.907 -0.1343  2.5413  2.2247
 5971SOL    HW218304   1.857   2.576   3.912  0.1320  0.5641  0.3532
 5972SOL     OW18305   5.902   1.061   2.384 -0.1566  0.5786  0.1259
 5972SOL    HW118306   5.952   0.993   2.430  1.1975  1.5994  0.2132
 5972SOL    HW218307   5.925   1.049   2.292 -1.5809 -0.4072 -0.1343
 5973SOL     OW18308   4.926   3.077   6.168 -0.1182 -0.4741  0.3595
 5973SOL    HW118309   4.876   3.125   6.102  1.0306  1.5601  0.8769
 5973SOL    HW218310   5.017   3.102   6.152  0.3455 -1.1876  1.7165
 5974SOL     OW18311   4.892   6.235   6.645  0.3002 -0.1188 -0.2015
 5974SOL    HW118312   4.876   6.229   6.739  0.5188 -0.6063 -0.1957
 5974SOL    HW218313   4.915   6.327   6.631 -0.3328  0.1023  0.1255
 5975SOL     OW18314   0.838   4.387   0.095  0.2004  0.1628 -0.1168
 5975SOL    HW118315   0.807   4.296   0.094  1.3261 -0.2377 -0.6802
 5975SOL    HW218316   0.890   4.395   0.015 -0.1003  1.3883 -0.1978
 5976SOL     OW18317   0.903   3.413   6.504  0.1327 -0.0489  0.0465
 5976SOL    HW118318   0.966   3.377   6.565 -0.0888 -0.0267  0.2907
 5976SOL    HW218319   0.889   3.503   6.534  0.1230  0.0041 -0.1154
 5977SOL     OW18320   1.671   3.807   4.805 -0.0633 -0.4416  0.5056
 5977SOL    HW118321   1.597   3.776   4.753  0.9793  0.2389 -1.5166
 5977SOL    HW218322   1.633   3.864   4.871 -1.6519 -2.9625  1.9146
 5978SOL     OW18323   2.247   5.131   0.112 -0.6199  0.1212  0.6026
 5978SOL    HW118324   2.294   5.214   0.112  0.3641 -0.4246  0.3937
 5978SOL    HW218325   2.257   5.097   0.023 -0.3067 -0.6129  0.9118
 5979SOL     OW18326   5.633   1.530   5.908 -0.2597  0.2008 -0.4656
 5979SOL    HW118327   5.586   1.507   5.828 -1.9031  1.0138  0.1992
 5979SOL    HW218328   5.589   1.609   5.939  0.6907  0.2064  0.9544
 5980SOL     OW18329   4.619   3.293   3.282 -0.2026 -0.1844  0.1381
 5980SOL    HW118330   4.537   3.295   3.233 -0.5283 -1.3839  0.6168
 5980SOL    HW218331   4.594   3.309   3.372  0.5005  3.0175 -0.1153
 5981SOL     OW18332   5.357   5.154   1.684  0.4655 -0.2210 -1.0486
 5981SOL    HW118333   5.284   5.093   1.669  0.4061  0.2374 -2.8873
 5981SOL    HW218334   5.338   5.195   1.768 -1.0265 -0.6301 -1.1617
 5982SOL     OW18335   6.820   3.799   4.265 -0.0140 -0.2090  0.6400
 5982SOL    HW118336   6.784   3.885   4.242 -1.0959 -0.9252 -0.4783
 5982SOL    HW218337   6.890   3.784   4.200 -0.3321 -0.4868  0.3576
 5983SOL     OW18338   4.146   6.221   5.089 -0.2561  0.2766 -0.0175
 5983SOL    HW118339   4.187   6.165   5.023 -0.5148 -0.4153  0.3979
 5983SOL    HW218340   4.187   6.306   5.078  2.1371 -0.6496  1.1092
 5984SOL     OW18341   2.796   1.095   6.586  0.3479 -0.5956  0.2136
 5984SOL    HW118342   2.772   1.184   6.613  1.0672  0.1347 -1.3887
 5984SOL    HW218343   2.881   1.105   6.543 -0.3076 -1.7670 -1.4852
 5985SOL     OW18344   3.238   6.430   5.444 -0.3088 -0.2215 -0.1790
 5985SOL    HW118345   3.212   6.338   5.439  0.4979 -0.6286  2.2234
 5985SOL    HW218346   3.245   6.457   5.352  0.3226 -2.7938 -0.9760
 5986SOL     OW18347   4.941   5.152   0.863  0.1256 -0.9659  0.3503
 5986SOL    HW118348   4.855   5.178   0.830 -0.1444 -2.3199 -0.0729
 5986SOL    HW218349   4.970   5.084   0.802  0.9577 -1.3751  1.1864
 5987SOL     OW18350   3.086   1.619   5.273 -0.0822 -0.1560  0.1086
 5987SOL    HW118351   2.992   1.606   5.285 -0.0904 -0.1406  0.0608
 5987SOL    HW218352   3.119   1.533   5.248 -0.2640  0.0851 -1.0369
 5988SOL     OW18353   1.208   1.866   1.749  0.3441  0.3780  0.5360
 5988SOL    HW118354   1.219   1.771   1.757 -0.0280  0.4137  1.7215
 5988SOL    HW218355   1.296   1.902   1.764  0.1128  0.3022  2.2604
 5989SOL     OW18356   2.029   5.867   2.700 -0.0195  0.2806 -0.0634
 5989SOL    HW118357   2.091   5.940   2.702 -0.8456  1.0034  1.8167
 5989SOL    HW218358   1.981   5.877   2.618  1.0166  0.8492 -0.6096
 5990SOL     OW18359   1.204   2.183   4.369  0.0576 -0.0590  0.4490
 5990SOL    HW118360   1.187   2.269   4.407 -1.5430  0.7776 -1.8939
 5990SOL    HW218361   1.296   2.166   4.389  0.6979  2.6227  0.2640
 5991SOL     OW18362   4.127   3.123   0.348  0.2030  0.3787  0.2440
 5991SOL    HW118363   4.080   3.114   0.265  0.4165  1.7029 -0.0370
 5991SOL    HW218364   4.126   3.216   0.367 -2.2649 -0.0796  3.1739
 5992SOL     OW18365   3.141   5.228   5.111  0.3943 -0.1255 -0.2549
 5992SOL    HW118366   3.194   5.282   5.169 -0.4432 -0.6102  1.0164
 5992SOL    HW218367   3.092   5.170   5.170 -0.4671 -0.6674 -1.4482
 5993SOL     OW18368   3.232   6.795   2.786  0.0723  0.5364 -0.0220
 5993SOL    HW118369   3.156   6.853   2.793 -1.7496 -1.4001 -2.2607
 5993SOL    HW218370   3.197   6.713   2.753  2.9583 -1.0085  0.4310
 5994SOL     OW18371   4.897   0.343   5.388 -0.1135 -0.7062 -0.1988
 5994SOL    HW118372   4.908   0.369   5.296  0.2817  0.5707  0.1918
 5994SOL    HW218373   4.906   0.424   5.437 -0.5217 -1.3449  0.9694
 5995SOL     OW18374   0.578   5.167   0.813 -0.2673  0.1141  0.3532
 5995SOL    HW118375   0.483   5.159   0.813 -0.3272  0.7133 -0.5387
 5995SOL    HW218376   0.609   5.076   0.807 -0.8077 -0.0245 -0.5879
 5996SOL     OW18377   1.821   0.906   0.915 -0.1607 -0.4114  0.2719
 5996SOL    HW118378   1.782   0.993   0.924  0.1102  0.0460 -2.2405
 5996SOL    HW218379   1.811   0.885   0.822  2.2249 -1.8829  0.2760
 5997SOL     OW18380   3.641   2.378   0.185 -0.5399 -0.3713  0.1816
 5997SOL    HW118381   3.655   2.319   0.111  1.9759  0.0229  0.2508
 5997SOL    HW218382   3.703   2.348   0.252 -1.5127  0.3727  1.4674
 5998SOL     OW18383   0.751   3.364   5.743  0.2331  0.0977 -0.4041
 5998SOL    HW118384   0.725   3.357   5.835 -0.8516 -0.9827 -0.7608
 5998SOL    HW218385   0.819   3.432   5.742 -1.3253  1.7909  0.8769
 5999SOL     OW18386   4.033   1.081   2.640 -0.1905  0.3113 -0.3491
 5999SOL    HW118387   4.051   1.169   2.676  0.1774 -0.1141  0.5483
 5999SOL    HW218388   4.106   1.065   2.580  0.0718  0.3787 -0.0549
 6000SOL     OW18389   6.156   6.646   6.638  0.7576  0.1359 -0.6829
 6000SOL    HW118390   6.230   6.631   6.696 -0.4420  0.1438  0.9375
 6000SOL    HW218391   6.182   6.721   6.584  2.0056 -0.0233 -0.3217
 6001SOL     OW18392   5.882   0.490   3.959  0.3317 -0.2797  0.1968
 6001SOL    HW118393   5.912   0.564   3.907 -0.2403 -0.9180 -1.0795
 6001SOL    HW218394   5.800   0.519   3.999  0.1124 -0.2111 -0.2972
 6002SOL     OW18395   5.209   5.252   1.319  0.1042 -0.3631 -0.2958
 6002SOL    HW118396   5.174   5.334   1.353  0.4082 -0.2548 -0.2410
 6002SOL    HW218397   5.221   5.269   1.225 -0.4050 -0.5460 -0.3958
 6003SOL     OW18398   3.299   1.397   0.563 -0.2109  0.2998  0.1178
 6003SOL    HW118399   3.237   1.333   0.529 -0.7666  1.0333 -0.2657
 6003SOL    HW218400   3.359   1.413   0.490  0.8822 -0.9384  0.7108
 6004SOL     OW18401   5.095   1.264   4.034 -0.2453 -0.3860 -0.0621
 6004SOL    HW118402   5.010   1.228   4.008 -0.3589 -0.6424  0.6374
 6004SOL    HW218403   5.143   1.189   4.068 -0.6322  0.1596  1.7843
 6005SOL     OW18404   3.386   3.580   4.244 -0.3249  0.1070  0.6668
 6005SOL    HW118405   3.339   3.597   4.162  0.3756  1.4881  0.5231
 6005SOL    HW218406   3.317   3.575   4.310 -0.8160  0.2460  0.1755
 6006SOL     OW18407   6.801   0.253   4.357  0.2453  0.0329 -0.1787
 6006SOL    HW118408   6.792   0.268   4.451 -1.1989 -0.4961 -0.2094
 6006SOL    HW218409   6.749   0.175   4.340  2.9232 -1.7166 -0.9557
 6007SOL     OW18410   1.939   2.718   1.470  0.1744 -0.4991 -0.0337
 6007SOL    HW118411   1.935   2.803   1.426 -0.7592 -0.3814  0.2640
 6007SOL    HW218412   2.028   2.713   1.505  0.3900  0.1394 -0.4811
 6008SOL     OW18413   1.377   0.299   3.411  0.0703  0.1334  0.6070
 6008SOL    HW118414   1.330   0.339   3.339  1.2581  1.3442  0.4604
 6008SOL    HW218415   1.467   0.332   3.403  0.4803 -0.5300  2.0164
 6009SOL     OW18416   2.407   0.649   1.556 -0.5921  0.2722 -0.2084
 6009SOL    HW118417   2.497   0.635   1.527 -0.4491 -2.1224  1.1218
 6009SOL    HW218418   2.353   0.618   1.484 -0.3245 -0.2147 -0.1985
 6010SOL     OW18419   4.079   1.153   5.884 -0.6944 -0.0310  0.7689
 6010SOL    HW118420   4.116   1.093   5.818  0.0628  0.1200  1.0408
 6010SOL    HW218421   4.076   1.238   5.839 -0.1790  0.0718  0.9184
 6011SOL     OW18422   0.955   0.572   6.480 -0.3173  0.3425  0.4607
 6011SOL    HW118423   0.996   0.611   6.558 -0.7653 -1.6465  1.7937
 6011SOL    HW218424   0.961   0.639   6.413  0.1935  2.1142  2.1872
 6012SOL     OW18425   5.599   4.329   0.322 -0.1030  0.6442  0.1741
 6012SOL    HW118426   5.586   4.256   0.261  0.8685  0.6099 -0.0190
 6012SOL    HW218427   5.562   4.405   0.277 -4.5176 -0.2102  1.8470
 6013SOL     OW18428   5.628   3.456   1.832  0.7461  0.0059 -0.3939
 6013SOL    HW118429   5.559   3.409   1.879  0.6056 -1.0092 -1.5431
 6013SOL    HW218430   5.581   3.516   1.774  0.7794 -0.9495 -1.4463
 6014SOL     OW18431   4.984   2.127   1.753 -0.2655 -0.4609 -0.0771
 6014SOL    HW118432   5.014   2.041   1.782 -2.4414 -0.8295  1.2885
 6014SOL    HW218433   5.063   2.181   1.755  0.9271 -2.1165  0.1745
 6015SOL     OW18434   1.519   5.903   3.193 -0.0400  0.2174 -0.4927
 6015SOL    HW118435   1.496   5.971   3.130  1.8465  0.4182 -1.0336
 6015SOL    HW218436   1.538   5.826   3.138 -1.4136 -0.5619  0.0655
 6016SOL     OW18437   3.970   1.584   5.975  0.3298  0.3601 -0.0614
 6016SOL    HW118438   3.963   1.679   5.976  1.1303  0.5429 -2.6359
 6016SOL    HW218439   4.060   1.566   5.948 -0.6348 -0.9670 -2.8775
 6017SOL     OW18440   1.420   6.726   5.172  0.5976 -0.2595 -0.5320
 6017SOL    HW118441   1.411   6.670   5.095  2.7664 -1.2551 -0.1431
 6017SOL    HW218442   1.382   6.675   5.244 -0.0974  0.0533 -0.6659
 6018SOL     OW18443   1.329   5.317   1.630 -0.1732  0.4475  0.6051
 6018SOL    HW118444   1.296   5.262   1.701 -0.1046 -1.6131 -0.8741
 6018SOL    HW218445   1.294   5.277   1.551  1.5758  1.3362 -0.6723
 6019SOL     OW18446   6.431   0.066   2.801  0.4407  0.3755 -0.2724
 6019SOL    HW118447   6.456   0.124   2.872  0.1371  1.1184 -0.7510
 6019SOL    HW218448   6.469  -0.019   2.823 -1.2762  0.0598  1.7635
 6020SOL     OW18449   1.900   1.516   4.581  0.5964  0.2371  0.3987
 6020SOL    HW118450   1.875   1.567   4.658  0.1819 -0.6049  0.8347
 6020SOL    HW218451   1.995   1.526   4.575  0.4518  1.7123 -0.0115
 6021SOL     OW18452   4.184   0.749   4.235  0.3243  0.4167  0.2864
 6021SOL    HW118453   4.218   0.684   4.297  3.0557  0.4355 -1.0218
 6021SOL    HW218454   4.102   0.779   4.274 -0.9445 -3.5108  1.1567
 6022SOL     OW18455   1.739   2.424   4.952  0.2131  0.0770 -0.2464
 6022SOL    HW118456   1.727   2.487   4.881  0.0806  1.2955  0.8143
 6022SOL    HW218457   1.650   2.404   4.983  0.3213  2.2038  1.7525
 6023SOL     OW18458   5.062   4.163   3.499 -0.4471 -0.2837 -0.4296
 6023SOL    HW118459   5.097   4.233   3.445 -0.0517  0.4460  0.7400
 6023SOL    HW218460   5.131   4.143   3.561 -1.2634 -0.3818  0.4739
 6024SOL     OW18461   5.497   3.859   3.823 -0.1083  0.0536 -0.4002
 6024SOL    HW118462   5.526   3.936   3.772  0.5258  0.5214  0.6420
 6024SOL    HW218463   5.559   3.790   3.799 -0.6248 -0.1258 -1.2716
 6025SOL     OW18464   2.716   1.454   6.075 -0.3212 -0.3822 -0.4496
 6025SOL    HW118465   2.678   1.369   6.050  0.3646 -1.4419  1.8413
 6025SOL    HW218466   2.800   1.457   6.028 -0.8679 -0.4048 -1.4605
 6026SOL     OW18467   1.705   5.312   4.433 -0.2509  0.3667  0.4522
 6026SOL    HW118468   1.721   5.370   4.507  1.2285  0.5892 -0.0053
 6026SOL    HW218469   1.628   5.349   4.389 -0.9477  0.4145  1.6614
 6027SOL     OW18470   6.775   2.603   3.842  0.0537 -0.0170  0.0922
 6027SOL    HW118471   6.835   2.678   3.836  1.1981 -1.0228 -2.5094
 6027SOL    HW218472   6.689   2.639   3.823 -0.1044  1.2608  2.7917
 6028SOL     OW18473   2.255   6.333   6.766 -0.1727  0.2946  0.1933
 6028SOL    HW118474   2.217   6.257   6.722  1.5396 -0.7122  0.3832
 6028SOL    HW218475   2.293   6.298   6.846 -2.4137  1.9270  2.1473
 6029SOL     OW18476   3.813   2.270   0.359 -0.3010 -0.1005  0.1064
 6029SOL    HW118477   3.905   2.288   0.343 -0.4001  1.2211  0.9093
 6029SOL    HW218478   3.802   2.279   0.454 -1.5618  1.4645 -0.1379
 6030SOL     OW18479   6.005   0.010   4.229 -0.4608  0.3595 -0.0820
 6030SOL    HW118480   6.024  -0.077   4.193 -0.1665 -0.0157  0.9259
 6030SOL    HW218481   6.091   0.045   4.253 -0.6706  0.4569  0.5402
 6031SOL     OW18482   2.988   1.703   5.684  0.2330 -0.0163  0.1018
 6031SOL    HW118483   2.901   1.668   5.705 -0.3256  1.8969  1.1663
 6031SOL    HW218484   2.985   1.718   5.589 -0.8317  0.5572  0.2082
 6032SOL     OW18485   2.921   0.162   3.394  0.2457  0.9871 -0.3745
 6032SOL    HW118486   2.977   0.085   3.396  0.3785  1.0979  1.1929
 6032SOL    HW218487   2.855   0.146   3.462  0.3060  2.2744  0.0158
 6033SOL     OW18488   6.242   1.286   2.596 -0.2107  0.1566  0.0315
 6033SOL    HW118489   6.249   1.285   2.691 -0.2503  0.5091  0.0385
 6033SOL    HW218490   6.150   1.265   2.579  0.1989 -1.8464  0.0086
 6034SOL     OW18491   5.722   6.402   1.649 -0.2829  0.3973 -0.0799
 6034SOL    HW118492   5.646   6.377   1.702  0.1726  0.8347  0.8056
 6034SOL    HW218493   5.798   6.384   1.705  0.2288  0.5915 -0.6982
 6035SOL     OW18494   3.241   5.595   3.416 -0.4241  0.2530 -0.6469
 6035SOL    HW118495   3.190   5.672   3.438  0.4451  0.3106  1.3635
 6035SOL    HW218496   3.325   5.630   3.384 -0.5313  0.1403 -1.0576
 6036SOL     OW18497   2.048   2.219   4.024 -0.5669 -0.1773  0.0404
 6036SOL    HW118498   2.034   2.128   3.996  0.4839 -0.1138 -0.7417
 6036SOL    HW218499   2.095   2.212   4.107 -0.0388 -0.3461 -0.2726
 6037SOL     OW18500   2.402   6.484   5.567 -0.8130  0.2617  0.2395
 6037SOL    HW118501   2.412   6.539   5.490 -1.9422 -0.2229 -0.2705
 6037SOL    HW218502   2.489   6.481   5.606  0.3485 -1.2765 -2.2366
 6038SOL     OW18503   4.886   2.560   0.735  0.1735 -0.3330  0.2805
 6038SOL    HW118504   4.951   2.560   0.806  0.7560 -2.3454 -0.1963
 6038SOL    HW218505   4.896   2.646   0.694  0.0145  0.7669  2.4368
 6039SOL     OW18506   3.621   4.895   0.040 -0.7022  0.6405  0.7770
 6039SOL    HW118507   3.530   4.867   0.031 -0.1880 -0.4450 -1.8883
 6039SOL    HW218508   3.645   4.928  -0.046  1.9232 -0.7055  0.8822
 6040SOL     OW18509   6.340   4.068   3.448 -0.4066 -0.9903 -0.1837
 6040SOL    HW118510   6.289   3.988   3.437 -2.1760 -0.1579  1.2077
 6040SOL    HW218511   6.275   4.133   3.478  1.4683  0.1323  1.7489
 6041SOL     OW18512   1.874   5.566   3.535  0.6567  0.9734 -0.4288
 6041SOL    HW118513   1.841   5.624   3.605 -2.7772 -0.3138 -0.7653
 6041SOL    HW218514   1.846   5.609   3.454 -0.2133 -0.1444 -0.7447
 6042SOL     OW18515   6.348   3.444   4.152 -0.1593  0.3837  0.4702
 6042SOL    HW118516   6.419   3.508   4.141 -0.6224  0.5800 -1.8991
 6042SOL    HW218517   6.381   3.364   4.111 -0.8575  0.1092  0.4354
 6043SOL     OW18518   1.312   6.516   5.318 -0.0910 -0.1319  0.0246
 6043SOL    HW118519   1.372   6.457   5.272 -0.2836 -0.5084  0.2541
 6043SOL    HW218520   1.308   6.482   5.407  0.2088  0.5428  0.3023
 6044SOL     OW18521   5.686   0.332   5.659  0.2755  0.1958 -0.0347
 6044SOL    HW118522   5.640   0.402   5.708 -0.9925 -2.2681  2.6129
 6044SOL    HW218523   5.765   0.315   5.711 -0.2894 -1.4062  0.3582
 6045SOL     OW18524   1.240   2.438   1.478  0.2853  0.4460  0.0394
 6045SOL    HW118525   1.324   2.484   1.482  0.1853  0.6284  0.0840
 6045SOL    HW218526   1.196   2.474   1.401  0.2405  0.3670  0.0280
 6046SOL     OW18527   2.899   1.768   3.404 -0.0977  0.0406  0.7642
 6046SOL    HW118528   2.941   1.711   3.339  0.6312  1.6969 -0.2722
 6046SOL    HW218529   2.838   1.710   3.450 -0.5781 -1.2430 -1.3290
 6047SOL     OW18530   1.973   2.794   2.682  0.1247 -0.2111 -0.0956
 6047SOL    HW118531   1.917   2.856   2.728 -0.4734  0.4645 -1.6581
 6047SOL    HW218532   1.941   2.795   2.592  0.0083 -2.8932 -0.1745
 6048SOL     OW18533   2.582   1.654   0.601 -0.2470 -0.7881 -0.6620
 6048SOL    HW118534   2.663   1.602   0.602  0.5066  0.2612  2.3458
 6048SOL    HW218535   2.610   1.741   0.575 -0.4251 -0.4432  0.2926
 6049SOL     OW18536   1.782   5.467   2.737  0.4175 -0.2244 -0.1137
 6049SOL    HW118537   1.744   5.511   2.661  1.1595  1.5787  0.5041
 6049SOL    HW218538   1.876   5.475   2.724  0.5619 -1.0817  0.3526
 6050SOL     OW18539   4.033   1.551   2.260  0.0652  0.0378  0.3417
 6050SOL    HW118540   4.041   1.502   2.179  0.7709  1.9583 -0.8222
 6050SOL    HW218541   4.098   1.512   2.319 -0.7929 -1.6869  0.1761
 6051SOL     OW18542   1.007   3.273   1.545 -0.5489  0.4514 -0.2634
 6051SOL    HW118543   0.931   3.287   1.488 -0.4768  2.2058  0.0172
 6051SOL    HW218544   0.971   3.275   1.633 -0.2022  1.1877 -0.1327
 6052SOL     OW18545   2.410   2.649   1.041  0.3965 -0.9950 -0.1656
 6052SOL    HW118546   2.433   2.579   1.101  0.4707 -0.4194  0.4831
 6052SOL    HW218547   2.474   2.718   1.057 -0.5239 -0.1990  0.2283
 6053SOL     OW18548   6.249   1.804   5.542 -0.2307 -0.2312 -0.1913
 6053SOL    HW118549   6.172   1.860   5.532 -1.2713 -1.3411  1.1922
 6053SOL    HW218550   6.262   1.765   5.455 -0.1442  1.2457 -0.8881
 6054SOL     OW18551   5.528   4.299   5.502  0.4951  0.3191 -0.0998
 6054SOL    HW118552   5.599   4.236   5.504 -0.0143 -0.2521  0.1016
 6054SOL    HW218553   5.481   4.279   5.421  0.5070  0.6379 -0.1867
 6055SOL     OW18554   0.605   2.916   6.459  0.7970 -0.1943 -0.0898
 6055SOL    HW118555   0.643   2.955   6.380 -0.1992  0.0865 -0.4443
 6055SOL    HW218556   0.636   2.825   6.458  1.6309  0.0875 -0.2448
 6056SOL     OW18557   4.281   3.900   1.161  0.2701  0.8105  0.4983
 6056SOL    HW118558   4.284   3.808   1.189  0.4977  0.6945  0.1055
 6056SOL    HW218559   4.238   3.946   1.233 -0.1391  0.3408  0.5621
 6057SOL     OW18560   4.346   4.482   6.215  0.6316 -0.1376  0.2476
 6057SOL    HW118561   4.366   4.437   6.297  0.7056  0.5129  0.6005
 6057SOL    HW218562   4.398   4.563   6.220 -1.9513  1.5989  1.1609
 6058SOL     OW18563   5.595   6.141   1.489 -0.3230  0.0910 -0.5077
 6058SOL    HW118564   5.525   6.080   1.468 -0.9851  0.2871  1.0423
 6058SOL    HW218565   5.612   6.186   1.406 -1.0045 -0.9679 -1.2586
 6059SOL     OW18566   1.978   0.765   5.682  0.4667 -0.1503  0.0701
 6059SOL    HW118567   1.995   0.680   5.722 -0.1626  0.2217  1.1988
 6059SOL    HW218568   1.883   0.771   5.679  0.4760  0.9732  1.1042
 6060SOL     OW18569   4.091   5.775   0.016  0.5207  0.3753 -0.0864
 6060SOL    HW118570   4.163   5.738  -0.034 -1.0370 -1.2500 -1.2608
 6060SOL    HW218571   4.126   5.785   0.105  2.1587 -0.4300 -0.6081
 6061SOL     OW18572   6.478   2.643   6.064  0.1548 -0.1496  0.6027
 6061SOL    HW118573   6.400   2.698   6.059 -0.2925 -0.7857  0.4830
 6061SOL    HW218574   6.546   2.692   6.017 -1.1358 -1.2055 -2.6480
 6062SOL     OW18575   4.035   2.897   3.524 -0.5495 -0.4201 -0.0424
 6062SOL    HW118576   4.013   2.935   3.609 -0.7706 -3.1668  1.2339
 6062SOL    HW218577   4.130   2.904   3.519 -0.3261 -1.8784  1.3477
 6063SOL     OW18578   0.539   4.249   5.227  0.0529 -0.0437 -0.3336
 6063SOL    HW118579   0.608   4.309   5.201 -0.0151  0.9639  1.6361
 6063SOL    HW218580   0.505   4.285   5.309 -1.5578 -1.5258 -0.2827
 6064SOL     OW18581   0.372   6.400   3.503 -0.4085  0.2218 -0.2489
 6064SOL    HW118582   0.460   6.401   3.467 -0.4048  2.0515 -0.2410
 6064SOL    HW218583   0.383   6.376   3.595  0.0674  0.4564 -0.2458
 6065SOL     OW18584   1.706   0.727   1.571  0.4570 -0.4100  0.5780
 6065SOL    HW118585   1.776   0.678   1.613  1.2171  0.5926  0.4956
 6065SOL    HW218586   1.690   0.802   1.629  0.9935  0.5693 -0.5074
 6066SOL     OW18587   3.563   0.311   3.013 -0.2532  0.8556  0.5575
 6066SOL    HW118588   3.630   0.288   3.078 -1.0011  1.1462  1.4432
 6066SOL    HW218589   3.533   0.227   2.979  0.6563  0.7237  0.0363
 6067SOL     OW18590   2.008   1.205   1.342  0.1829  0.2050  0.5478
 6067SOL    HW118591   1.982   1.116   1.365  1.7576 -0.3102  0.4768
 6067SOL    HW218592   1.930   1.243   1.302  0.1608 -2.0061 -1.8430
 6068SOL     OW18593   6.199   3.878   1.963  0.4775 -0.1902 -0.5998
 6068SOL    HW118594   6.165   3.889   2.052 -0.2697  1.5676 -1.0687
 6068SOL    HW218595   6.282   3.832   1.975  0.1412 -0.4687  0.9510
 6069SOL     OW18596   6.487   6.677   4.619  0.2442 -0.0503 -0.0425
 6069SOL    HW118597   6.526   6.764   4.618  0.3924 -0.1179 -0.1737
 6069SOL    HW218598   6.495   6.648   4.710 -1.5369  0.8469  0.4431
 6070SOL     OW18599   2.656   3.968   3.655  0.8095 -0.7163  0.8381
 6070SOL    HW118600   2.723   3.901   3.670  1.3960 -0.1297  0.8776
 6070SOL    HW218601   2.575   3.918   3.644  1.1397 -1.4062  1.3967
 6071SOL     OW18602   3.441   6.068   1.358 -0.2277  0.1794 -0.4605
 6071SOL    HW118603   3.435   5.973   1.364  0.1006  0.2423  1.2405
 6071SOL    HW218604   3.531   6.085   1.330 -0.0613  0.0046 -0.0375
 6072SOL     OW18605   3.669   5.175   1.727  0.5887 -0.5589  0.2922
 6072SOL    HW118606   3.610   5.119   1.777 -1.0193 -0.1444 -1.0646
 6072SOL    HW218607   3.612   5.241   1.688  2.0218  0.1174 -0.7243
 6073SOL     OW18608   2.508   0.710   0.557 -0.3507 -0.0578  0.5398
 6073SOL    HW118609   2.431   0.654   0.560 -0.3964 -0.0100  0.2598
 6073SOL    HW218610   2.473   0.799   0.556 -0.3558 -0.0551 -1.4762
 6074SOL     OW18611   1.269   3.162   2.705 -0.0570  0.3426  0.0564
 6074SOL    HW118612   1.231   3.083   2.667  1.4197 -0.9524  1.1701
 6074SOL    HW218613   1.316   3.203   2.632 -1.5832  0.7486 -0.7514
 6075SOL     OW18614   4.074   2.635   3.579  0.4610 -0.3568 -0.3133
 6075SOL    HW118615   4.005   2.569   3.576  0.9235 -0.8174 -1.8799
 6075SOL    HW218616   4.032   2.715   3.546  0.3424 -0.3064 -0.0401
 6076SOL     OW18617   1.249   3.568   0.663 -0.1500 -0.3346  0.2827
 6076SOL    HW118618   1.161   3.572   0.701 -0.1785  0.1544  0.1613
 6076SOL    HW218619   1.269   3.657   0.637  0.3401 -0.4625  0.2021
 6077SOL     OW18620   4.567   6.458   3.784 -0.4240  0.8391  0.0712
 6077SOL    HW118621   4.630   6.469   3.713  1.3056  0.1044  1.4221
 6077SOL    HW218622   4.577   6.538   3.837  1.1948 -0.2889  1.5930
 6078SOL     OW18623   2.099   6.348   2.114 -0.2916  0.5587 -0.8080
 6078SOL    HW118624   2.114   6.281   2.181  1.2930 -1.0702 -2.6557
 6078SOL    HW218625   2.023   6.396   2.144 -1.5780 -2.1638  0.5937
 6079SOL     OW18626   5.812   2.811   5.999 -0.4468 -0.6213  0.6362
 6079SOL    HW118627   5.845   2.721   6.006  1.5532 -0.1418 -1.4355
 6079SOL    HW218628   5.801   2.826   5.906 -1.1503  1.1721  0.9595
 6080SOL     OW18629   4.950   5.024   3.151  0.3536  0.0932  0.0077
 6080SOL    HW118630   4.890   5.094   3.122 -0.2742 -0.7310 -0.7410
 6080SOL    HW218631   4.945   4.959   3.081  0.2042 -1.1370  1.1306
 6081SOL     OW18632   0.509   6.726   2.398 -0.4365  0.2411 -0.4230
 6081SOL    HW118633   0.503   6.811   2.442 -0.6963  0.3298 -0.6289
 6081SOL    HW218634   0.568   6.742   2.324 -0.2428  0.1666 -0.2865
 6082SOL     OW18635   6.050   1.173   1.837  0.3700 -0.2226 -0.1744
 6082SOL    HW118636   6.140   1.200   1.819 -0.9377  3.5224 -2.1957
 6082SOL    HW218637   6.032   1.206   1.925  0.8940 -0.8279  0.1658
 6083SOL     OW18638   6.406   4.067   3.840 -0.4915 -0.5445 -0.5673
 6083SOL    HW118639   6.392   3.974   3.822 -0.9533 -0.7645  0.7967
 6083SOL    HW218640   6.324   4.109   3.812 -0.4227 -0.5948 -0.8470
 6084SOL     OW18641   6.131   6.216   5.942  0.5468  0.4734  0.1803
 6084SOL    HW118642   6.065   6.264   5.892  0.8845 -0.9072 -1.7189
 6084SOL    HW218643   6.080   6.150   5.991  0.1815  2.0467  2.0533
 6085SOL     OW18644   0.687   5.834   2.014  0.1071  0.8254 -0.0214
 6085SOL    HW118645   0.775   5.816   1.982  0.3984  1.8960  0.1470
 6085SOL    HW218646   0.668   5.923   1.984 -0.9325  0.5923 -0.0888
 6086SOL     OW18647   5.325   5.449   2.440  0.4901 -0.0830 -0.8605
 6086SOL    HW118648   5.281   5.378   2.394 -1.1612  1.3044 -1.5615
 6086SOL    HW218649   5.303   5.527   2.389  1.1414  1.1016  0.6085
 6087SOL     OW18650   1.598   1.883   1.132 -0.3908  0.1742  0.2974
 6087SOL    HW118651   1.659   1.949   1.165  1.8877 -2.2855  1.4605
 6087SOL    HW218652   1.620   1.874   1.039  2.0962 -1.5341  0.9395
 6088SOL     OW18653   3.203   5.509   0.753 -0.2014 -0.6564 -0.2963
 6088SOL    HW118654   3.296   5.526   0.742 -0.0089 -0.5816  1.3157
 6088SOL    HW218655   3.198   5.436   0.814 -1.1957 -0.4903 -0.1576
 6089SOL     OW18656   2.734   6.395   2.157  0.5762 -0.0154 -1.0167
 6089SOL    HW118657   2.691   6.315   2.185 -0.1992  0.3453 -1.1567
 6089SOL    HW218658   2.723   6.397   2.062 -0.3246  0.7608 -0.9162
 6090SOL     OW18659   5.384   6.025   4.177 -0.1322  0.2688  0.1330
 6090SOL    HW118660   5.456   6.070   4.222 -0.4063 -1.3918  2.4208
 6090SOL    HW218661   5.425   5.948   4.138 -0.5367 -0.4184  1.0261
 6091SOL     OW18662   5.382   1.502   1.466 -0.6343 -0.3786  0.6116
 6091SOL    HW118663   5.294   1.490   1.431 -1.9341  2.3558  2.5465
 6091SOL    HW218664   5.409   1.588   1.434  0.4707 -0.2870  1.7077
 6092SOL     OW18665   6.615   3.118   0.402 -0.1018  0.9578  0.3041
 6092SOL    HW118666   6.535   3.121   0.453 -0.3520  1.4582 -0.1010
 6092SOL    HW218667   6.656   3.204   0.417  1.3636 -0.0054  2.0811
 6093SOL     OW18668   0.195   5.547   1.580  0.2947 -0.0773  0.7576
 6093SOL    HW118669   0.184   5.589   1.665 -2.0326 -0.5843  0.7600
 6093SOL    HW218670   0.163   5.612   1.517 -0.0936 -0.5386  0.4707
 6094SOL     OW18671   0.470   5.147   1.872 -0.0304 -0.0194 -0.2645
 6094SOL    HW118672   0.497   5.185   1.956 -0.2954  2.2584 -1.1422
 6094SOL    HW218673   0.381   5.116   1.887  0.2259 -0.4207  0.5022
 6095SOL     OW18674   3.464   3.528   1.454 -0.0458 -0.2762 -0.0977
 6095SOL    HW118675   3.454   3.554   1.363  1.1193 -0.1515 -0.2047
 6095SOL    HW218676   3.543   3.473   1.455 -1.6892 -2.8012  0.3227
 6096SOL     OW18677   0.315   4.310   6.168  0.3359  0.5227 -0.5913
 6096SOL    HW118678   0.257   4.235   6.165  1.1719 -0.2967  1.5188
 6096SOL    HW218679   0.260   4.383   6.197 -0.6127  0.9657 -3.2369
 6097SOL     OW18680   1.023   6.333   6.819 -0.4535 -0.1950 -0.1080
 6097SOL    HW118681   1.020   6.290   6.905 -0.2806  1.2122  0.6264
 6097SOL    HW218682   1.109   6.310   6.784 -0.4744 -0.6765  0.1423
 6098SOL     OW18683   3.163   6.168   4.975  0.4146 -0.8066 -0.2156
 6098SOL    HW118684   3.244   6.167   5.026  0.5175  2.6033 -0.0942
 6098SOL    HW218685   3.191   6.161   4.884  0.5476 -2.5693 -0.0783
 6099SOL     OW18686   2.502   6.663   4.654 -0.1365 -0.2672 -0.9144
 6099SOL    HW118687   2.544   6.728   4.712 -0.3393  0.3966 -1.4976
 6099SOL    HW218688   2.566   6.592   4.648 -0.8894 -1.2879  1.6894
 6100SOL     OW18689   5.106   1.399   5.104  0.3972  0.1904  0.6572
 6100SOL    HW118690   5.195   1.430   5.092 -0.2079  1.8243  0.1078
 6100SOL    HW218691   5.115   1.319   5.156  2.0772  1.0432  1.7776
 6101SOL     OW18692   1.161   1.706   2.314  0.0200 -0.1827 -0.2868
 6101SOL    HW118693   1.208   1.625   2.293  1.2701  0.7836 -1.3824
 6101SOL    HW218694   1.074   1.677   2.342  0.9854 -1.9909  1.0288
 6102SOL     OW18695   4.488   3.506   4.434  0.0025 -0.2330  0.1690
 6102SOL    HW118696   4.548   3.488   4.362  0.5134  0.9469  0.2699
 6102SOL    HW218697   4.435   3.427   4.442  0.7707 -0.8499 -0.6814
 6103SOL     OW18698   3.536   2.371   2.848 -0.5178 -0.0225 -0.2958
 6103SOL    HW118699   3.507   2.293   2.799  2.1456 -0.0503 -2.0420
 6103SOL    HW218700   3.625   2.350   2.875  0.3344  2.4466 -0.9374
 6104SOL     OW18701   2.437   2.224   0.970  0.3873 -0.2739 -0.0411
 6104SOL    HW118702   2.448   2.158   1.039 -0.4925  0.9842  1.3586
 6104SOL    HW218703   2.343   2.224   0.952  0.3616  0.6929  0.0848
 6105SOL     OW18704   4.681   1.598   3.009 -0.7518 -0.3207  0.2989
 6105SOL    HW118705   4.652   1.685   3.034 -0.3084  0.0490 -0.4533
 6105SOL    HW218706   4.724   1.609   2.924  1.0452 -0.9224  1.0588
 6106SOL     OW18707   6.306   4.090   4.699  0.1411 -0.8029  0.6316
 6106SOL    HW118708   6.394   4.115   4.671  0.0095 -1.3357 -0.2727
 6106SOL    HW218709   6.305   4.109   4.793  1.3540 -1.1634  0.7350
 6107SOL     OW18710   6.371   3.033   4.610  0.4695  0.2850 -0.2785
 6107SOL    HW118711   6.406   2.951   4.574  0.3174  0.7691 -1.6022
 6107SOL    HW218712   6.449   3.087   4.625  0.5136  0.1924 -0.1748
 6108SOL     OW18713   3.566   2.544   2.439 -0.2383 -0.3239 -0.6323
 6108SOL    HW118714   3.531   2.456   2.436  0.0234 -0.4229 -0.7817
 6108SOL    HW218715   3.583   2.560   2.532 -1.5299  0.0653 -0.4421
 6109SOL     OW18716   1.073   2.101   1.830 -0.1804 -0.5930 -0.2963
 6109SOL    HW118717   1.129   2.025   1.814  0.8104  0.0733 -0.1367
 6109SOL    HW218718   1.096   2.162   1.759 -1.2902 -0.6168 -0.6874
 6110SOL     OW18719   6.332   1.727   3.671 -0.4831  0.1382  0.1004
 6110SOL    HW118720   6.341   1.638   3.707  1.0158  0.5350  0.7776
 6110SOL    HW218721   6.374   1.783   3.736  1.2428  1.0125 -1.6755
 6111SOL     OW18722   3.516   6.743   4.020 -0.1553 -0.1286 -0.2528
 6111SOL    HW118723   3.554   6.787   4.096 -0.2276 -0.1331 -0.2145
 6111SOL    HW218724   3.434   6.790   4.003 -0.1864 -0.1886 -0.2688
 6112SOL     OW18725   2.948   0.669   3.500 -0.1659 -0.1106 -0.0488
 6112SOL    HW118726   2.984   0.753   3.470  0.2610  0.2978  1.5043
 6112SOL    HW218727   3.024   0.619   3.529 -0.5714 -0.4055  0.5188
 6113SOL     OW18728   2.368   5.535   3.447 -0.2245  0.8502 -0.5448
 6113SOL    HW118729   2.339   5.512   3.359  0.8132 -0.8127 -0.4996
 6113SOL    HW218730   2.298   5.504   3.504 -0.7124  1.5694 -0.7313
 6114SOL     OW18731   6.446   4.481   2.887 -0.1152  1.0663  0.0419
 6114SOL    HW118732   6.490   4.553   2.841  0.7993  0.6936  0.3011
 6114SOL    HW218733   6.499   4.467   2.966 -0.0140 -0.1677 -0.2217
 6115SOL     OW18734   4.056   4.058   2.323 -0.2748 -0.2521  0.0228
 6115SOL    HW118735   4.065   4.079   2.416 -1.2175  1.2681 -0.1847
 6115SOL    HW218736   4.009   3.975   2.322  0.3931 -0.6536  0.9009
 6116SOL     OW18737   1.930   6.686   5.804 -0.4231 -0.1065  0.3696
 6116SOL    HW118738   1.946   6.609   5.859 -0.3163  0.6273  1.3995
 6116SOL    HW218739   1.955   6.658   5.716  1.7742 -0.5914  1.0820
 6117SOL     OW18740   5.068   4.687   0.674 -0.4067 -0.6104 -0.0229
 6117SOL    HW118741   5.163   4.684   0.672 -0.3753  0.2140 -1.0810
 6117SOL    HW218742   5.043   4.713   0.585 -1.6409 -1.2559  0.1130
 6118SOL     OW18743   3.367   3.603   2.331  0.4826 -0.1080 -0.4328
 6118SOL    HW118744   3.382   3.520   2.377 -1.3431 -0.3083 -0.1276
 6118SOL    HW218745   3.348   3.577   2.241 -1.5758 -0.2004 -0.0260
 6119SOL     OW18746   6.331   3.240   5.731  0.9730  0.1907  0.2976
 6119SOL    HW118747   6.249   3.197   5.754  0.9165  0.2870  0.2760
 6119SOL    HW218748   6.305   3.315   5.678  1.0324  0.5513  0.7650
 6120SOL     OW18749   4.184   5.110   6.320  0.6092 -0.4950 -0.0115
 6120SOL    HW118750   4.162   5.174   6.388 -0.0076 -0.4941 -0.2048
 6120SOL    HW218751   4.219   5.035   6.368  1.7402  0.1322  0.1950
 6121SOL     OW18752   0.647   6.710   3.284  0.2353 -0.5653 -0.2088
 6121SOL    HW118753   0.572   6.696   3.226  0.4040 -0.3559 -0.4833
 6121SOL    HW218754   0.687   6.791   3.252  1.6880 -1.6585 -1.2991
 6122SOL     OW18755   1.226   4.183   4.640  0.0496  0.6629  0.8176
 6122SOL    HW118756   1.227   4.139   4.555 -1.2952  1.9520  0.1008
 6122SOL    HW218757   1.314   4.219   4.649  0.9572 -1.4378  1.0786
 6123SOL     OW18758   5.116   5.572   5.294  0.8142 -0.6784 -0.3072
 6123SOL    HW118759   5.211   5.576   5.294  1.0155 -2.5836 -3.0987
 6123SOL    HW218760   5.091   5.597   5.205 -1.3453  0.0888  0.4536
 6124SOL     OW18761   2.374   4.842   0.779  0.0610  0.1184 -0.2595
 6124SOL    HW118762   2.423   4.793   0.845  0.5353  0.3049 -0.4740
 6124SOL    HW218763   2.283   4.816   0.794  0.2564 -0.4810 -0.0799
 6125SOL     OW18764   2.296   1.430   1.791 -0.5549 -0.1484 -0.6701
 6125SOL    HW118765   2.309   1.519   1.825 -1.8429  0.0209 -0.6020
 6125SOL    HW218766   2.300   1.374   1.869  1.2136 -0.2893 -0.8121
 6126SOL     OW18767   6.050   2.870   5.211  0.3178  0.0067  0.1413
 6126SOL    HW118768   6.017   2.791   5.252 -1.2066  0.4074 -0.2253
 6126SOL    HW218769   6.004   2.874   5.127  0.9595  0.8714 -0.1877
 6127SOL     OW18770   3.201   2.404   0.003  0.2855 -0.4343 -0.5657
 6127SOL    HW118771   3.162   2.491  -0.003  0.6427 -0.2413 -0.1409
 6127SOL    HW218772   3.209   2.388   0.097 -0.0166 -1.0329 -0.6361
 6128SOL     OW18773   6.095   3.798   0.103 -0.0227  0.4153 -0.3234
 6128SOL    HW118774   6.108   3.821   0.012  0.2068  3.5459  0.3958
 6128SOL    HW218775   6.169   3.741   0.125  1.5942  2.0465 -1.3419
 6129SOL     OW18776   3.011   5.841   4.998 -0.0090 -0.4606 -0.6602
 6129SOL    HW118777   2.937   5.896   5.024  0.6106 -0.3988  1.1653
 6129SOL    HW218778   2.986   5.752   5.025 -0.2514 -0.7917 -1.9263
 6130SOL     OW18779   4.129   2.847   0.372 -0.4160  0.3497 -0.4761
 6130SOL    HW118780   4.223   2.834   0.360 -0.6614 -1.3534 -0.9620
 6130SOL    HW218781   4.115   2.941   0.362  1.4060  0.8169  0.9827
 6131SOL     OW18782   4.577   2.205   4.697 -0.3017 -0.0354 -0.3351
 6131SOL    HW118783   4.538   2.145   4.761 -1.9486  1.5236  0.2146
 6131SOL    HW218784   4.505   2.227   4.638  1.3572 -2.0865 -3.3795
 6132SOL     OW18785   6.122   2.010   4.180  0.3130 -0.3571  0.0273
 6132SOL    HW118786   6.141   1.917   4.185  0.3980 -0.2913  1.2058
 6132SOL    HW218787   6.039   2.020   4.226  1.1126  0.3458  1.4108
 6133SOL     OW18788   3.563   3.128   3.537  0.2902 -0.9363  0.0298
 6133SOL    HW118789   3.616   3.054   3.565  2.0898 -0.2521 -1.4118
 6133SOL    HW218790   3.592   3.201   3.592  0.0124 -0.8194  0.0242
 6134SOL     OW18791   0.664   4.882   5.202  0.4803  0.8722 -0.0546
 6134SOL    HW118792   0.578   4.853   5.234  0.9109  0.1595  0.4835
 6134SOL    HW218793   0.725   4.860   5.272  1.4680 -0.8089 -1.3557
 6135SOL     OW18794   5.697   3.839   1.279 -0.4090  0.1521 -0.4189
 6135SOL    HW118795   5.718   3.912   1.336  0.7844 -1.1476  0.8618
 6135SOL    HW218796   5.771   3.833   1.219 -1.2773  0.9946 -1.6246
 6136SOL     OW18797   1.164   3.716   1.068  0.1847  0.5508 -0.8823
 6136SOL    HW118798   1.194   3.777   1.135  1.8560 -0.3802 -0.7224
 6136SOL    HW218799   1.082   3.681   1.103  0.4745  0.8815  0.1696
 6137SOL     OW18800   6.006   2.078   4.665 -0.5612  0.8770  0.0970
 6137SOL    HW118801   6.005   2.168   4.633 -1.9513  0.3271 -1.5297
 6137SOL    HW218802   6.022   2.025   4.586 -0.5273 -0.3381  0.9007
 6138SOL     OW18803   2.277   5.875   4.367  0.1355  0.4808 -0.1714
 6138SOL    HW118804   2.369   5.887   4.389 -0.4617 -0.5236  3.5871
 6138SOL    HW218805   2.275   5.791   4.321  1.0786  0.2716  0.1422
 6139SOL     OW18806   1.352   3.992   2.562 -0.3020 -0.0602 -0.0067
 6139SOL    HW118807   1.442   4.016   2.582 -0.9990  2.9922 -0.0841
 6139SOL    HW218808   1.303   4.015   2.642 -1.1297 -1.0151 -0.2141
 6140SOL     OW18809   5.174   6.343   4.362 -0.5022 -0.2537 -0.0296
 6140SOL    HW118810   5.241   6.345   4.431 -1.1957  1.4652  0.6520
 6140SOL    HW218811   5.225   6.342   4.280  0.3686  0.2652  0.4845
 6141SOL     OW18812   5.673   4.059   3.062 -0.2458 -0.1823  0.0886
 6141SOL    HW118813   5.647   3.977   3.105  0.6866 -0.8151 -0.5138
 6141SOL    HW218814   5.592   4.091   3.023 -0.4122 -1.4637 -0.6994
 6142SOL     OW18815   0.845   6.522   4.001 -0.3509 -0.6515  0.0220
 6142SOL    HW118816   0.766   6.558   3.962 -0.0399 -0.6727 -0.6333
 6142SOL    HW218817   0.897   6.492   3.927  0.6894  0.2188  0.3697
 6143SOL     OW18818   3.370   0.093   2.428  0.0643 -0.2264 -0.3702
 6143SOL    HW118819   3.288   0.063   2.466  1.1965 -1.8131  0.9745
 6143SOL    HW218820   3.379   0.183   2.459 -1.2103  0.0093 -0.6505
 6144SOL     OW18821   5.610   3.339   1.350  0.3042 -0.1140  0.0032
 6144SOL    HW118822   5.653   3.419   1.379  0.1039  0.0381 -0.1164
 6144SOL    HW218823   5.572   3.361   1.265  1.1247 -0.6321 -0.5206
 6145SOL     OW18824   0.283   4.567   4.478 -0.2166  0.0185  0.6256
 6145SOL    HW118825   0.251   4.657   4.472  0.8890  0.4730  1.2548
 6145SOL    HW218826   0.329   4.563   4.562 -0.6378 -1.2691  0.8156
 6146SOL     OW18827   0.346   3.291   5.469 -0.2218 -0.3043 -0.7537
 6146SOL    HW118828   0.313   3.329   5.388 -3.1148 -2.1803 -0.6159
 6146SOL    HW218829   0.267   3.278   5.522  1.2738 -1.5062  1.3161
 6147SOL     OW18830   0.232   1.979   3.709 -0.0320  0.0777 -0.2998
 6147SOL    HW118831   0.141   2.005   3.703 -0.2352 -0.7129 -0.7997
 6147SOL    HW218832   0.280   2.060   3.727 -0.6048  0.8429 -2.0282
 6148SOL     OW18833   5.887   4.345   4.471 -0.3723 -0.1714 -0.0574
 6148SOL    HW118834   5.931   4.381   4.548  0.1287 -1.8010  0.4605
 6148SOL    HW218835   5.955   4.344   4.404  0.4414 -2.5748  0.7077
 6149SOL     OW18836   4.286   6.584   0.744  0.0918  0.0836  0.9013
 6149SOL    HW118837   4.363   6.596   0.687  0.7824  0.3474  1.8741
 6149SOL    HW218838   4.213   6.616   0.691  0.4613 -1.1813 -0.4709
 6150SOL     OW18839   1.515   1.987   5.131  0.6743  0.0836 -0.1403
 6150SOL    HW118840   1.480   2.066   5.174  0.8091  0.1713 -0.1896
 6150SOL    HW218841   1.465   1.915   5.169  0.3657  0.2164 -0.2893
 6151SOL     OW18842   5.267   1.101   4.701 -0.1079  0.2516 -0.5899
 6151SOL    HW118843   5.208   1.140   4.765 -0.6739 -0.8896 -0.3967
 6151SOL    HW218844   5.229   1.124   4.616 -0.9053 -0.5653 -0.4662
 6152SOL     OW18845   3.644   5.018   1.471  0.2803  0.4125 -0.6338
 6152SOL    HW118846   3.574   4.958   1.443 -3.0353  3.4182  0.3824
 6152SOL    HW218847   3.606   5.065   1.545  3.4794  2.2975 -0.0127
 6153SOL     OW18848   6.532   6.588   4.904 -0.5333  0.0871 -0.2034
 6153SOL    HW118849   6.503   6.506   4.942 -0.3425 -1.2171 -2.6501
 6153SOL    HW218850   6.585   6.629   4.972  0.6430 -2.5363  0.5979
 6154SOL     OW18851   6.241   4.387   0.468  0.0402 -0.0176  0.4805
 6154SOL    HW118852   6.173   4.405   0.533  0.2496 -0.6171  0.8728
 6154SOL    HW218853   6.216   4.440   0.392 -1.3427 -0.8720  0.2990
 6155SOL     OW18854   4.440   0.014   3.200 -0.0574  0.5703 -0.2256
 6155SOL    HW118855   4.495   0.071   3.148  0.4691 -0.5403 -0.9267
 6155SOL    HW218856   4.488   0.003   3.283 -0.1230  1.0688 -0.1207
 6156SOL     OW18857   6.443   1.893   0.197 -0.3007  0.0377  0.1624
 6156SOL    HW118858   6.368   1.835   0.201 -0.2391 -0.1111 -0.8054
 6156SOL    HW218859   6.493   1.865   0.121  0.7860  0.0861  0.8219
 6157SOL     OW18860   0.896   5.150   6.503 -0.3362  0.1022  0.2106
 6157SOL    HW118861   0.806   5.123   6.486 -0.0341 -1.9069  1.4871
 6157SOL    HW218862   0.929   5.085   6.565  3.0494 -1.1770 -2.6334
 6158SOL     OW18863   6.377   0.060   2.075 -0.0769  0.2677  0.0742
 6158SOL    HW118864   6.399   0.066   2.168  0.2766 -0.4837  0.0420
 6158SOL    HW218865   6.283   0.042   2.074  0.1619 -1.1168  0.3352
 6159SOL     OW18866   3.995   2.051   6.706  0.1029  0.2211  0.0697
 6159SOL    HW118867   4.012   2.135   6.663  0.1402 -0.6455 -1.6805
 6159SOL    HW218868   3.911   2.022   6.671  0.3330 -0.7010  0.2396
 6160SOL     OW18869   3.108   2.365   1.178 -0.0386 -0.1931  0.1453
 6160SOL    HW118870   3.131   2.291   1.233 -0.8353 -1.4438 -1.1333
 6160SOL    HW218871   3.032   2.404   1.221  0.3587 -0.1299  0.8013
 6161SOL     OW18872   1.637   5.768   5.153 -0.0637 -0.1368 -0.2850
 6161SOL    HW118873   1.617   5.756   5.060  1.0310 -0.6710 -0.4639
 6161SOL    HW218874   1.622   5.861   5.168 -0.8816 -0.1630 -0.8321
 6162SOL     OW18875   2.157   0.396   0.217  0.0563  0.0940  0.1344
 6162SOL    HW118876   2.202   0.368   0.138 -2.4297 -0.8876 -1.0505
 6162SOL    HW218877   2.173   0.490   0.222  0.0204  0.2287 -1.7267
 6163SOL     OW18878   0.281   5.767   2.659  0.2023  0.4579  0.2681
 6163SOL    HW118879   0.267   5.796   2.569 -0.3513  0.8181  0.4678
 6163SOL    HW218880   0.376   5.758   2.667  0.2559  0.4853 -0.3294
 6164SOL     OW18881   4.307   6.010   1.191  0.4520 -0.5716  0.2137
 6164SOL    HW118882   4.369   5.986   1.122 -0.0484 -0.1752 -0.3896
 6164SOL    HW218883   4.350   6.081   1.238 -0.8928  2.1846 -2.3815
 6165SOL     OW18884   3.946   0.965   6.631 -0.1215  0.3701 -0.1507
 6165SOL    HW118885   3.990   0.947   6.548  0.8956  0.6441  0.3027
 6165SOL    HW218886   3.939   0.879   6.673 -1.2865  0.1220 -0.8016
 6166SOL     OW18887   0.231   2.831   4.124 -0.4143  0.0504 -0.4326
 6166SOL    HW118888   0.272   2.795   4.203  0.2943 -0.2028 -0.9063
 6166SOL    HW218889   0.196   2.915   4.152  1.4089  0.8097 -0.2476
 6167SOL     OW18890   2.046   0.374   1.557  0.4293  0.6327  0.0246
 6167SOL    HW118891   2.061   0.280   1.551 -0.0100  0.6305 -1.9431
 6167SOL    HW218892   2.130   0.413   1.531  0.3605  0.7593 -0.0090
 6168SOL     OW18893   2.319   3.454   3.844  0.2469 -0.4441 -0.2976
 6168SOL    HW118894   2.337   3.478   3.752 -1.8222 -1.4004 -1.0129
 6168SOL    HW218895   2.264   3.376   3.838 -2.3274  1.0689  1.6371
 6169SOL     OW18896   1.114   1.955   1.084  0.5825  0.7996  0.1092
 6169SOL    HW118897   1.091   1.865   1.107  2.1418  0.2772 -0.2149
 6169SOL    HW218898   1.121   2.000   1.168  0.0648  0.5524  0.2884
 6170SOL     OW18899   5.998   5.665   0.334  0.1661 -0.1551  0.1256
 6170SOL    HW118900   5.909   5.691   0.357  0.1748  2.1575 -2.0219
 6170SOL    HW218901   5.987   5.607   0.259  0.4562  2.0675 -1.7220
 6171SOL     OW18902   3.717   4.152   3.478  0.3295  0.1714 -0.3045
 6171SOL    HW118903   3.707   4.098   3.556  0.6612 -0.4893 -0.7040
 6171SOL    HW218904   3.807   4.134   3.448  0.3981  0.8523 -0.5150
 6172SOL     OW18905   1.336   1.878   2.497  0.6033  0.5330 -0.0455
 6172SOL    HW118906   1.263   1.832   2.540  0.9330 -0.9669 -1.0026
 6172SOL    HW218907   1.295   1.924   2.424  0.4957  0.3922 -0.0747
 6173SOL     OW18908   6.712   1.947   6.173  0.2447 -0.1355 -0.3491
 6173SOL    HW118909   6.645   1.887   6.141 -0.5798  0.3232  0.4853
 6173SOL    HW218910   6.742   1.993   6.094 -2.5784  1.8151 -0.4219
 6174SOL     OW18911   5.678   6.216   6.616  0.3132 -0.7142  0.5696
 6174SOL    HW118912   5.616   6.172   6.675 -1.3053 -0.6665 -1.0189
 6174SOL    HW218913   5.718   6.145   6.567  0.7666 -0.6684  0.8654
 6175SOL     OW18914   1.641   0.589   4.864 -0.3627 -0.1877 -0.1970
 6175SOL    HW118915   1.672   0.672   4.900 -0.2467 -0.4555  0.3191
 6175SOL    HW218916   1.691   0.522   4.910 -0.5013 -0.5519 -0.5678
 6176SOL     OW18917   1.350   0.595   2.456 -0.1984 -1.0290 -0.2161
 6176SOL    HW118918   1.325   0.504   2.437 -1.3426 -1.0022  1.0155
 6176SOL    HW218919   1.285   0.625   2.519 -0.3840  0.9599 -1.2748
 6177SOL     OW18920   5.955   4.961   5.265 -0.3362 -0.1379  0.3464
 6177SOL    HW118921   5.933   5.054   5.255  1.8987  0.5311  1.2205
 6177SOL    HW218922   5.918   4.937   5.350  0.0161  0.2355  0.6041
 6178SOL     OW18923   3.414   5.235   4.422 -0.2390 -0.2865 -0.1285
 6178SOL    HW118924   3.355   5.308   4.400 -1.2729 -0.4804  1.8157
 6178SOL    HW218925   3.405   5.225   4.517  1.6474 -1.4680 -0.0334
 6179SOL     OW18926   3.117   5.090   0.403 -0.1099  0.0721  0.4891
 6179SOL    HW118927   3.077   5.091   0.316 -1.4165 -0.0765  1.0734
 6179SOL    HW218928   3.192   5.150   0.395 -1.3974  1.6649 -0.1932
 6180SOL     OW18929   1.913   3.332   3.326 -0.6475 -0.2234 -0.0006
 6180SOL    HW118930   1.870   3.415   3.307 -1.7363 -0.8392 -0.2797
 6180SOL    HW218931   1.978   3.322   3.257 -0.4185  0.4559  0.1115
 6181SOL     OW18932   5.283   0.274   2.152 -0.4436  0.0902  0.2865
 6181SOL    HW118933   5.264   0.360   2.190 -1.2656 -0.3746  0.9737
 6181SOL    HW218934   5.199   0.243   2.118  0.1916  0.3072 -1.5859
 6182SOL     OW18935   5.623   2.323   1.681 -0.1072  0.2466 -1.0339
 6182SOL    HW118936   5.702   2.364   1.645 -0.1910  2.9252  1.5268
 6182SOL    HW218937   5.595   2.263   1.612  2.4616  1.3814 -3.2822
 6183SOL     OW18938   3.963   4.506   4.976  0.2256 -0.1696  0.3724
 6183SOL    HW118939   3.886   4.450   4.962  0.0075  0.2540 -0.1759
 6183SOL    HW218940   4.017   4.458   5.038 -0.7401 -0.2311  1.1800
 6184SOL     OW18941   1.094   1.687   5.783 -0.4593  0.2877 -1.4060
 6184SOL    HW118942   1.035   1.669   5.710  0.0446  0.4000 -1.8427
 6184SOL    HW218943   1.063   1.769   5.820 -1.4481 -0.3598 -0.7433
 6185SOL     OW18944   1.677   5.057   2.150  0.2105 -0.1217 -0.7189
 6185SOL    HW118945   1.670   4.967   2.181 -0.6235  0.0693 -0.3140
 6185SOL    HW218946   1.593   5.097   2.175  0.6616  0.8251 -0.6936
 6186SOL     OW18947   1.258   4.552   1.354 -0.1660 -0.7201 -0.5436
 6186SOL    HW118948   1.230   4.571   1.265  2.0477 -1.5357 -1.4767
 6186SOL    HW218949   1.176   4.550   1.405 -1.2980  1.9069 -2.0643
 6187SOL     OW18950   0.686   6.266   4.018 -0.0567 -0.3242 -0.1619
 6187SOL    HW118951   0.713   6.358   4.022  0.4784 -0.5030  0.4917
 6187SOL    HW218952   0.630   6.261   3.940  2.4228 -0.1174 -2.0710
 6188SOL     OW18953   4.329   6.626   2.304 -0.8529 -0.2591  0.0549
 6188SOL    HW118954   4.237   6.609   2.286 -1.0796  0.8430  0.1398
 6188SOL    HW218955   4.373   6.607   2.221 -0.6681 -3.9041  0.8082
 6189SOL     OW18956   5.014   1.836   2.639  0.0985  0.0990 -0.5173
 6189SOL    HW118957   5.075   1.881   2.579  1.2717 -2.1849 -1.1641
 6189SOL    HW218958   4.927   1.859   2.607  0.4873  3.6514  0.5637
 6190SOL     OW18959   1.332   5.827   3.383 -0.4257 -0.3530  0.1966
 6190SOL    HW118960   1.387   5.795   3.455  0.8556  1.5712  0.1500
 6190SOL    HW218961   1.394   5.860   3.318 -1.6029 -0.5047 -1.0519
 6191SOL     OW18962   1.067   5.866   4.179 -0.2804 -0.0448  0.5786
 6191SOL    HW118963   1.013   5.835   4.107 -2.1480  0.0342  1.8560
 6191SOL    HW218964   1.040   5.956   4.193  0.3635  0.0802  1.0985
 6192SOL     OW18965   4.914   0.502   1.804  0.2176 -0.1118 -0.1078
 6192SOL    HW118966   4.918   0.436   1.735  0.9180 -1.6281  1.2970
 6192SOL    HW218967   5.001   0.502   1.842 -0.3034  0.2504  1.1401
 6193SOL     OW18968   4.932   5.392   5.495 -0.3575  0.7375  0.1921
 6193SOL    HW118969   4.848   5.419   5.456  0.0425  0.7992 -0.6392
 6193SOL    HW218970   4.917   5.301   5.521 -0.1046  0.1044 -1.7226
 6194SOL     OW18971   6.320   4.769   0.556 -0.2669 -0.3304 -0.3983
 6194SOL    HW118972   6.374   4.820   0.616 -1.1169 -2.2396  2.2344
 6194SOL    HW218973   6.300   4.828   0.484  2.3313  1.5463  0.2725
 6195SOL     OW18974   5.130   4.347   5.420 -0.5450 -0.1457 -0.6133
 6195SOL    HW118975   5.078   4.269   5.444 -0.4533  0.3228  1.2413
 6195SOL    HW218976   5.172   4.323   5.338 -1.0053 -1.8347 -0.3957
 6196SOL     OW18977   2.630   3.062   4.546  0.8191 -0.1883 -0.0074
 6196SOL    HW118978   2.633   3.099   4.458 -2.0849 -1.1237 -0.5891
 6196SOL    HW218979   2.663   3.132   4.603 -1.5724  2.2042 -1.3680
 6197SOL     OW18980   6.088   1.211   3.773  0.1994 -0.3132 -0.3384
 6197SOL    HW118981   6.095   1.150   3.846 -1.0728  0.4085  0.4303
 6197SOL    HW218982   6.177   1.221   3.740  1.3128  1.3095  2.7701
 6198SOL     OW18983   1.230   5.284   0.547  0.0668  0.9926 -0.3183
 6198SOL    HW118984   1.246   5.211   0.487  3.9139  1.7172 -0.4096
 6198SOL    HW218985   1.170   5.342   0.500  1.4299  0.5782 -2.6819
 6199SOL     OW18986   6.504   0.346   2.799  0.3482  0.1352 -0.0532
 6199SOL    HW118987   6.574   0.327   2.737  0.2728 -0.6606  0.0986
 6199SOL    HW218988   6.429   0.370   2.745  0.6118  0.5869 -0.2281
 6200SOL     OW18989   3.895   0.866   2.639 -0.0285 -0.0669  0.3524
 6200SOL    HW118990   3.831   0.887   2.707 -1.5987  1.1652 -1.4077
 6200SOL    HW218991   3.947   0.946   2.630 -0.5131  0.1598 -0.5725
 6201SOL     OW18992   5.726   6.030   3.904  0.1693 -0.5614 -0.3502
 6201SOL    HW118993   5.723   6.013   3.998 -0.8296  1.4121  0.0203
 6201SOL    HW218994   5.720   6.125   3.896 -3.1655 -0.7938 -2.4566
 6202SOL     OW18995   4.245   2.864   1.487  0.3237 -0.3200  0.2858
 6202SOL    HW118996   4.312   2.910   1.437 -1.6867 -0.6257 -3.0328
 6202SOL    HW218997   4.261   2.772   1.470 -0.1074 -0.4623  0.6376
 6203SOL     OW18998   4.515   3.596   6.006 -0.7230 -0.0330 -0.3740
 6203SOL    HW118999   4.444   3.533   5.989 -0.5707  0.0938 -1.5214
 6203SOL    HW219000   4.531   3.588   6.100 -3.6582  1.3936  0.3707
 6204SOL     OW19001   5.684   2.908   5.730 -0.2345  0.3859 -0.4720
 6204SOL    HW119002   5.767   2.928   5.686  0.9670 -0.5385  1.2209
 6204SOL    HW219003   5.669   2.816   5.710 -1.1187  0.6654 -1.1369
 6205SOL     OW19004   2.467   5.765   3.549  0.0226 -0.0502  0.7724
 6205SOL    HW119005   2.424   5.686   3.515 -1.5026  1.1471 -0.2806
 6205SOL    HW219006   2.448   5.832   3.483  0.8579  1.3070  1.8568
 6206SOL     OW19007   2.020   5.420   2.574  0.0169 -0.2359 -0.4683
 6206SOL    HW119008   2.069   5.498   2.550 -0.9717  0.5211 -0.1092
 6206SOL    HW219009   2.085   5.350   2.578  1.4791  1.1586  2.3105
 6207SOL     OW19010   5.508   0.016   6.126 -0.2892 -0.6411  0.3439
 6207SOL    HW119011   5.561  -0.014   6.200 -0.8711  1.1353  1.5582
 6207SOL    HW219012   5.419   0.018   6.160 -0.5804  0.0950 -0.4243
 6208SOL     OW19013   6.715   2.227   4.600 -0.2545 -0.2838 -0.1929
 6208SOL    HW119014   6.749   2.297   4.655 -0.7256 -1.8084  2.1993
 6208SOL    HW219015   6.788   2.164   4.594 -0.4864 -0.5147 -0.6189
 6209SOL     OW19016   2.190   2.929   5.307  0.4968  0.8817 -0.5981
 6209SOL    HW119017   2.202   3.024   5.315 -1.5251  1.1870 -0.5822
 6209SOL    HW219018   2.230   2.907   5.223  2.6476  1.3806  0.2183
 6210SOL     OW19019   5.672   2.774   1.231  0.2675 -0.0039 -0.0572
 6210SOL    HW119020   5.729   2.848   1.251 -0.2654  0.6022 -0.7599
 6210SOL    HW219021   5.728   2.697   1.244  1.6204  0.5992 -1.8560
 6211SOL     OW19022   3.701   3.842   3.882  0.6554  0.1404  0.4894
 6211SOL    HW119023   3.760   3.768   3.871  0.3487 -0.3503  1.8963
 6211SOL    HW219024   3.615   3.802   3.899  0.0227  0.8399 -0.9364
 6212SOL     OW19025   5.870   3.356   6.046 -0.1665  0.3525 -0.2599
 6212SOL    HW119026   5.953   3.384   6.083 -1.0294  0.1554  1.9884
 6212SOL    HW219027   5.884   3.264   6.023  0.8727  0.9187 -2.0491
 6213SOL     OW19028   5.441   0.832   6.196  0.7940 -0.3739 -0.1158
 6213SOL    HW119029   5.510   0.782   6.239  1.4968 -0.6088 -1.4401
 6213SOL    HW219030   5.412   0.776   6.124  0.0725  0.2301 -0.3161
 6214SOL     OW19031   6.442   3.397   5.386  0.3346  0.4339 -0.0819
 6214SOL    HW119032   6.536   3.387   5.376  0.5921 -1.1854  2.9334
 6214SOL    HW219033   6.430   3.484   5.424  0.6956  0.2336  0.4832
 6215SOL     OW19034   2.323   4.643   1.460  0.2653  1.1099  1.1412
 6215SOL    HW119035   2.283   4.567   1.419  0.0232  1.7542  0.1471
 6215SOL    HW219036   2.313   4.629   1.554 -2.0155  1.0931  0.9479
 6216SOL     OW19037   0.922   4.003   6.371 -0.3619  0.1105  0.1846
 6216SOL    HW119038   0.924   4.082   6.317 -2.2328  1.3133  1.7597
 6216SOL    HW219039   1.011   3.967   6.364  0.3890  2.0518 -0.9832
 6217SOL     OW19040   3.518   0.533   0.333 -0.4209  0.0016 -0.2174
 6217SOL    HW119041   3.452   0.565   0.272 -0.2831  1.3500  0.2936
 6217SOL    HW219042   3.531   0.606   0.395 -0.8909 -1.4783  1.7085
 6218SOL     OW19043   1.250   2.055   5.716  0.2899  0.3175  0.4687
 6218SOL    HW119044   1.297   1.978   5.684  0.1450  1.2926 -2.3007
 6218SOL    HW219045   1.318   2.120   5.731  0.2698  0.1353  1.3976
 6219SOL     OW19046   1.096   3.892   0.315  0.1273  0.3283  0.0059
 6219SOL    HW119047   1.041   3.814   0.323  0.2782  0.3286  1.3428
 6219SOL    HW219048   1.092   3.916   0.222 -1.1945 -0.3395 -0.1262
 6220SOL     OW19049   2.543   5.475   5.407 -0.2408 -0.3733  0.4591
 6220SOL    HW119050   2.468   5.534   5.394  0.2485  0.2195  0.2877
 6220SOL    HW219051   2.511   5.390   5.376 -1.4115 -0.5359  1.9960
 6221SOL     OW19052   3.526   5.535   6.637  0.0010 -0.4740 -0.1458
 6221SOL    HW119053   3.589   5.464   6.650  0.2323 -0.4556 -1.0422
 6221SOL    HW219054   3.580   5.613   6.625 -0.2567 -0.1120  0.9967
 6222SOL     OW19055   0.391   5.801   5.753  0.1767  0.3413 -0.2073
 6222SOL    HW119056   0.413   5.893   5.769  1.0346  0.0583  0.3078
 6222SOL    HW219057   0.296   5.801   5.745 -0.0094  1.0237  1.5444
 6223SOL     OW19058   0.786   2.040   4.509  0.1217  0.3246  0.1715
 6223SOL    HW119059   0.857   2.050   4.573 -0.2767 -0.2048  0.7159
 6223SOL    HW219060   0.716   1.997   4.559 -2.0023  3.9718  0.7500
 6224SOL     OW19061   4.838   4.051   4.346  0.1191 -0.4587 -0.6954
 6224SOL    HW119062   4.910   4.106   4.315  1.0007 -1.6776 -0.9141
 6224SOL    HW219063   4.881   3.983   4.398 -1.0178 -0.4612  0.2705
 6225SOL     OW19064   0.926   6.465   5.695 -0.2945 -0.6560  0.6434
 6225SOL    HW119065   0.862   6.402   5.661  1.1422 -1.3976 -0.8347
 6225SOL    HW219066   0.997   6.410   5.730 -0.1412  0.1419  1.6261
 6226SOL     OW19067   1.084   3.142   0.020  0.6119 -0.2200  0.2484
 6226SOL    HW119068   1.057   3.107   0.105 -2.2703  1.2061  0.0405
 6226SOL    HW219069   1.134   3.071  -0.020 -0.7285 -2.1658  1.8302
 6227SOL     OW19070   0.715   5.098   1.470  0.1252 -0.2470  0.4397
 6227SOL    HW119071   0.787   5.147   1.429 -0.5970  1.1389  0.7626
 6227SOL    HW219072   0.679   5.046   1.399  1.9411 -1.6054  0.4519
 6228SOL     OW19073   4.407   3.735   5.265 -0.4291  0.5022  0.4623
 6228SOL    HW119074   4.368   3.663   5.216  0.3667  0.2828  0.1478
 6228SOL    HW219075   4.434   3.695   5.348 -0.3996  0.5467  0.4741
 6229SOL     OW19076   0.718   2.145   3.659 -0.0211  0.1434  0.7607
 6229SOL    HW119077   0.637   2.145   3.710 -0.1566 -0.5451  0.5528
 6229SOL    HW219078   0.723   2.233   3.623 -1.8392 -0.4105 -1.0290
 6230SOL     OW19079   6.290   5.461   5.977  0.1574  0.1151 -0.4135
 6230SOL    HW119080   6.322   5.508   5.901 -1.4526 -0.9471 -1.8272
 6230SOL    HW219081   6.320   5.371   5.965 -1.1193 -0.3355 -0.4760
 6231SOL     OW19082   5.001   5.161   5.890  0.2156 -0.3665 -0.2694
 6231SOL    HW119083   4.969   5.221   5.823  1.1347 -2.2684 -2.5374
 6231SOL    HW219084   5.079   5.204   5.925 -0.3383  0.7059 -0.3077
 6232SOL     OW19085   0.596   4.338   0.831  0.3152  0.5737 -0.2558
 6232SOL    HW119086   0.562   4.405   0.771 -1.1229  0.9272  0.9098
 6232SOL    HW219087   0.675   4.378   0.868 -0.3914  1.5541  0.2424
 6233SOL     OW19088   2.414   2.674   5.032 -0.5869  0.3573  0.6884
 6233SOL    HW119089   2.450   2.592   4.997  0.6897  1.3296 -0.3727
 6233SOL    HW219090   2.453   2.742   4.978  0.4078  1.8772  3.1509
 6234SOL     OW19091   3.557   2.122   4.866  0.0288  0.3469 -0.0788
 6234SOL    HW119092   3.482   2.069   4.840 -1.1718  2.1074 -0.3712
 6234SOL    HW219093   3.633   2.073   4.834 -1.0156 -1.0769 -0.4901
 6235SOL     OW19094   3.876   5.076   6.460 -0.6451 -0.0813  0.3029
 6235SOL    HW119095   3.958   5.107   6.497 -0.3670 -0.9957  0.4871
 6235SOL    HW219096   3.851   5.142   6.396  0.2902  0.1422  0.1626
 6236SOL     OW19097   2.260   5.688   2.732  0.4646  0.0331  0.4025
 6236SOL    HW119098   2.231   5.771   2.770  0.1969  0.0376  0.1947
 6236SOL    HW219099   2.190   5.626   2.753 -0.0034  0.1815 -0.6189
 6237SOL     OW19100   3.041   0.969   5.100 -0.3335 -0.0252 -0.0253
 6237SOL    HW119101   3.130   0.955   5.069  1.3262 -0.4580  4.1770
 6237SOL    HW219102   3.034   0.912   5.177 -3.0464  2.4572  1.7719
 6238SOL     OW19103   3.398   4.471   3.541  0.2711 -0.6316  0.6211
 6238SOL    HW119104   3.307   4.497   3.527  1.0442  1.4969 -0.8699
 6238SOL    HW219105   3.442   4.550   3.570  1.7524 -1.5270  0.9502
 6239SOL     OW19106   2.857   1.792   5.980  0.4432 -0.8378 -0.0357
 6239SOL    HW119107   2.815   1.765   5.899 -2.3465 -1.6201  1.5362
 6239SOL    HW219108   2.937   1.837   5.952 -1.3010  0.5927 -3.2988
 6240SOL     OW19109   1.496   6.821   5.439  0.0482  0.3527  0.0326
 6240SOL    HW119110   1.532   6.802   5.353  2.6845  0.8794  0.9265
 6240SOL    HW219111   1.529   6.751   5.495  0.9761  1.6409  1.1791
 6241SOL     OW19112   4.779   4.992   2.410  0.3657 -0.5973  0.3833
 6241SOL    HW119113   4.788   5.043   2.491 -2.5314  1.5468 -0.4571
 6241SOL    HW219114   4.732   4.913   2.436 -1.8213  0.7196  0.7331
 6242SOL     OW19115   5.155   2.341   0.015 -0.0528 -0.1065 -0.0193
 6242SOL    HW119116   5.225   2.404   0.031 -1.1458  1.0892  0.1577
 6242SOL    HW219117   5.196   2.256   0.032  0.6725  0.6913  2.5968
 6243SOL     OW19118   0.362   4.341   0.137 -0.0908 -0.2374  0.7322
 6243SOL    HW119119   0.341   4.325   0.045  1.4581  0.6188  0.1919
 6243SOL    HW219120   0.328   4.429   0.155 -0.0432 -0.2456  0.8616
 6244SOL     OW19121   1.931   0.021   5.478  0.5096 -0.3512  0.2711
 6244SOL    HW119122   2.024   0.007   5.495  0.5444 -0.7098 -0.1929
 6244SOL    HW219123   1.927   0.109   5.442  0.9318 -1.0524 -1.5994
 6245SOL     OW19124   4.541   5.148   3.144  0.3214  0.1702  0.3465
 6245SOL    HW119125   4.449   5.165   3.166 -0.4269  0.7238 -2.7131
 6245SOL    HW219126   4.566   5.075   3.200 -2.4558 -0.9332  0.3305
 6246SOL     OW19127   5.214   6.825   2.262  0.2774 -0.4401  0.2035
 6246SOL    HW119128   5.130   6.854   2.299  0.2954 -1.2452  0.9277
 6246SOL    HW219129   5.259   6.906   2.237 -0.2847  0.0625  0.7745
 6247SOL     OW19130   5.205   0.206   1.692  0.4186  0.4165  0.0969
 6247SOL    HW119131   5.195   0.272   1.624  0.7280  0.5023  0.1334
 6247SOL    HW219132   5.166   0.127   1.655  1.7588  0.1009 -0.7075
 6248SOL     OW19133   0.376   2.207   1.407 -0.2896  0.1868  0.2334
 6248SOL    HW119134   0.438   2.141   1.374 -0.7522 -0.6827  1.0399
 6248SOL    HW219135   0.384   2.280   1.346  2.6540  0.7557  1.1561
 6249SOL     OW19136   5.628   4.940   1.947 -0.3755  0.9208 -0.0066
 6249SOL    HW119137   5.637   4.960   1.853 -0.6260  0.2926 -0.1665
 6249SOL    HW219138   5.702   4.985   1.988  0.3386  0.3520 -0.6318
 6250SOL     OW19139   0.580   6.690   6.741 -0.0549  0.2348  0.5229
 6250SOL    HW119140   0.504   6.748   6.738  0.2851  0.8324  2.3808
 6250SOL    HW219141   0.545   6.604   6.715 -1.0607  0.7672  0.0276
 6251SOL     OW19142   4.398   6.411   0.436 -0.0369 -0.0484  0.5026
 6251SOL    HW119143   4.305   6.398   0.416  0.5741 -1.4454 -1.8608
 6251SOL    HW219144   4.408   6.506   0.445 -1.5331  0.2020 -0.2441
 6252SOL     OW19145   0.857   5.317   5.232 -0.3149  0.0526  0.8747
 6252SOL    HW119146   0.810   5.274   5.304 -0.8592  0.3467  0.6962
 6252SOL    HW219147   0.949   5.297   5.249 -0.3282  0.9404  2.2300
 6253SOL     OW19148   4.531   1.523   1.151 -0.7253 -0.0391 -0.1962
 6253SOL    HW119149   4.616   1.555   1.120 -0.7349 -0.0091 -0.1911
 6253SOL    HW219150   4.467   1.574   1.103 -0.7410  0.4425  0.3319
 6254SOL     OW19151   3.998   5.107   3.027  0.0248 -0.2260 -0.3351
 6254SOL    HW119152   3.999   5.130   2.935  2.4042 -0.9594 -0.5616
 6254SOL    HW219153   4.022   5.188   3.072 -1.9784  0.3680 -0.2167
 6255SOL     OW19154   2.169   1.291   0.290 -0.0283  0.3177 -0.5011
 6255SOL    HW119155   2.209   1.244   0.363 -1.4569 -0.6612 -0.3038
 6255SOL    HW219156   2.078   1.305   0.317 -1.0974 -1.6474 -2.7387
 6256SOL     OW19157   0.091   6.386   3.472  0.5158  0.4393  0.8279
 6256SOL    HW119158   0.186   6.386   3.484  0.7222 -0.3961 -0.5989
 6256SOL    HW219159   0.075   6.462   3.416  0.5600 -0.3715 -0.3084
 6257SOL     OW19160   6.508   4.792   1.906 -0.2341  0.2420  0.1571
 6257SOL    HW119161   6.515   4.851   1.981 -2.7421  2.2118 -1.0002
 6257SOL    HW219162   6.417   4.763   1.907  0.0896 -0.9531 -1.2363
 6258SOL     OW19163   0.071   3.147   3.493  0.9165 -0.3284  0.4404
 6258SOL    HW119164   0.161   3.161   3.464  0.3395  0.5085 -1.0917
 6258SOL    HW219165   0.032   3.235   3.494 -0.3527 -0.8317 -0.6570
 6259SOL     OW19166   4.964   3.842   4.470 -0.2060 -0.4539 -0.3492
 6259SOL    HW119167   5.020   3.835   4.547  0.5798 -1.2819 -0.9702
 6259SOL    HW219168   5.024   3.870   4.400 -1.0259  0.9258 -0.5368
 6260SOL     OW19169   1.215   5.186   5.506  0.1101  0.1977  0.5455
 6260SOL    HW119170   1.126   5.152   5.493 -0.7204  1.9509  1.3634
 6260SOL    HW219171   1.203   5.265   5.558  2.0046  1.5534 -0.9684
 6261SOL     OW19172   6.182   3.162   6.355  0.5747 -0.5116 -0.1937
 6261SOL    HW119173   6.094   3.130   6.337  0.0003  0.5244  0.6471
 6261SOL    HW219174   6.239   3.108   6.300 -0.6851 -0.3966 -1.6744
 6262SOL     OW19175   2.111   0.409   6.057 -0.2984  0.3780  0.2300
 6262SOL    HW119176   2.086   0.460   5.980 -1.3592  1.3475  1.1897
 6262SOL    HW219177   2.205   0.392   6.045 -0.5851 -0.0984 -1.5962
 6263SOL     OW19178   6.712   1.612   3.519  0.1093 -0.3273 -0.5032
 6263SOL    HW119179   6.717   1.603   3.614 -0.0892 -0.1619 -0.4752
 6263SOL    HW219180   6.789   1.664   3.495  0.1204 -0.3079 -0.4253
 6264SOL     OW19181   3.281   2.395   3.031  0.1994 -0.0741 -0.3956
 6264SOL    HW119182   3.353   2.402   2.969 -0.1921  0.0480 -0.8432
 6264SOL    HW219183   3.323   2.382   3.116  0.7945  1.1712 -0.4721
 6265SOL     OW19184   5.525   6.573   3.780 -0.9229 -0.8787  0.4052
 6265SOL    HW119185   5.583   6.506   3.816 -0.3150 -0.0965  0.8883
 6265SOL    HW219186   5.452   6.578   3.842 -0.1267  0.1067  1.2849
 6266SOL     OW19187   2.656   4.601   0.450  0.2128 -0.2674 -0.5902
 6266SOL    HW119188   2.666   4.674   0.511 -1.7123  0.1804 -0.7551
 6266SOL    HW219189   2.746   4.580   0.423  1.0941 -0.2832  2.1068
 6267SOL     OW19190   5.390   6.056   1.926 -0.1840 -0.4986  0.2946
 6267SOL    HW119191   5.430   6.130   1.879 -0.7325  0.6284  1.5137
 6267SOL    HW219192   5.464   6.006   1.960  0.2002 -0.2414 -0.1595
 6268SOL     OW19193   5.580   3.036   1.364  0.1053  0.5855 -0.0961
 6268SOL    HW119194   5.650   3.019   1.301  0.7707  1.0582  0.5002
 6268SOL    HW219195   5.598   3.125   1.396 -0.6428  0.6281  0.2255
 6269SOL     OW19196   2.928   4.806   5.201 -0.1099  0.0113  0.7780
 6269SOL    HW119197   2.954   4.819   5.110 -1.2915  0.2502  0.4567
 6269SOL    HW219198   2.980   4.869   5.250 -0.1810  0.5729  0.1440
 6270SOL     OW19199   3.337   0.006   5.280  0.5925 -0.3265  0.3505
 6270SOL    HW119200   3.406   0.023   5.344 -0.0603 -1.8988  1.5565
 6270SOL    HW219201   3.262  -0.022   5.332 -0.3282 -0.5945 -1.0460
 6271SOL     OW19202   0.600   1.897   1.998  0.6800 -0.0812 -0.1224
 6271SOL    HW119203   0.611   1.810   2.036  0.9634 -0.6638 -1.4847
 6271SOL    HW219204   0.685   1.917   1.958 -0.1311 -0.3595 -2.1350
 6272SOL     OW19205   1.863   2.610   2.937 -0.0369 -0.7024  0.1838
 6272SOL    HW119206   1.874   2.703   2.921 -2.0157 -0.1265  1.7228
 6272SOL    HW219207   1.818   2.605   3.021 -3.3317 -2.8444 -1.4656
 6273SOL     OW19208   1.763   6.279   5.583  0.4154 -0.1803  0.0160
 6273SOL    HW119209   1.843   6.293   5.532  1.0458  1.0564  1.2681
 6273SOL    HW219210   1.693   6.309   5.526  0.9883  0.0881 -0.5662
 6274SOL     OW19211   4.668   2.346   2.962  0.0821 -0.5387  0.5563
 6274SOL    HW119212   4.638   2.341   2.871 -0.5349 -0.0885  0.7281
 6274SOL    HW219213   4.606   2.292   3.011 -0.7915  0.8262  0.9917
 6275SOL     OW19214   2.114   3.441   4.775  0.1128  0.2451 -0.1426
 6275SOL    HW119215   2.058   3.518   4.772 -0.0902  0.0730 -0.9214
 6275SOL    HW219216   2.138   3.432   4.868 -1.7035 -0.0657  0.3397
 6276SOL     OW19217   1.558   1.666   1.905  0.8088  0.2104  0.1447
 6276SOL    HW119218   1.616   1.593   1.926  0.1833 -0.2748  0.2122
 6276SOL    HW219219   1.472   1.626   1.897  0.4478  0.9590  0.2551
 6277SOL     OW19220   0.180   2.914   1.851 -0.0394  0.0200  0.3855
 6277SOL    HW119221   0.244   2.980   1.821 -0.5439  0.9650  1.3206
 6277SOL    HW219222   0.130   2.893   1.773  2.0042 -1.4853 -0.6285
 6278SOL     OW19223   5.228   4.163   0.651  0.1418 -0.4245  0.0115
 6278SOL    HW119224   5.160   4.218   0.610  0.7633  1.6946  1.6077
 6278SOL    HW219225   5.310   4.205   0.626  0.7268 -1.4152  0.2464
 6279SOL     OW19226   2.524   1.051   2.270 -0.2991  0.1300 -0.0793
 6279SOL    HW119227   2.551   1.132   2.314  1.1915  0.6178 -1.7541
 6279SOL    HW219228   2.538   0.982   2.336 -0.2571  1.0735  0.9215
 6280SOL     OW19229   1.678   4.350   1.534  0.1061  0.1267  0.0782
 6280SOL    HW119230   1.761   4.385   1.501  0.2808 -1.1395 -0.9155
 6280SOL    HW219231   1.698   4.320   1.623 -0.0552  2.4854  0.9621
 6281SOL     OW19232   3.504   0.986   2.162 -0.2210  0.5107 -0.1717
 6281SOL    HW119233   3.426   1.040   2.149 -0.3935  0.0998 -0.9260
 6281SOL    HW219234   3.542   1.017   2.244 -1.7351  0.0294  0.7466
 6282SOL     OW19235   0.990   2.138   0.314  0.1134 -0.0099  0.3487
 6282SOL    HW119236   1.033   2.082   0.249 -0.7880 -0.9178  0.5015
 6282SOL    HW219237   0.916   2.085   0.345 -0.3369  0.9988  1.0296
 6283SOL     OW19238   2.546   5.650   1.813  0.2231 -0.0138 -0.0400
 6283SOL    HW119239   2.473   5.611   1.765  1.8431 -0.6655 -2.1219
 6283SOL    HW219240   2.527   5.744   1.812 -0.8175 -0.2082 -0.1359
 6284SOL     OW19241   3.274   5.372   3.587  0.2207 -0.3016  0.3970
 6284SOL    HW119242   3.282   5.450   3.532  1.7673 -0.2594  0.6217
 6284SOL    HW219243   3.182   5.347   3.581 -0.4956  1.9829  0.9516
 6285SOL     OW19244   1.754   2.099   1.281  1.3823  0.1465  0.3209
 6285SOL    HW119245   1.831   2.115   1.226  1.1270 -2.2414 -0.8403
 6285SOL    HW219246   1.789   2.055   1.358  1.2104 -0.9981 -0.2368
 6286SOL     OW19247   1.672   4.525   2.140 -0.1559  0.1173 -0.0523
 6286SOL    HW119248   1.629   4.468   2.203 -2.3271  1.4404 -0.2674
 6286SOL    HW219249   1.639   4.496   2.054 -1.4756  1.7682 -0.1482
 6287SOL     OW19250   4.958   6.160   4.359 -0.2814  0.3931  0.2889
 6287SOL    HW119251   5.003   6.242   4.340  0.7258 -0.2734 -0.3280
 6287SOL    HW219252   5.019   6.111   4.414  0.4187 -1.0804 -1.6495
 6288SOL     OW19253   0.357   6.560   6.228  0.3974 -0.1585 -0.6205
 6288SOL    HW119254   0.311   6.476   6.224 -1.3472  0.6698  0.6302
 6288SOL    HW219255   0.306   6.617   6.170  2.6941 -0.3549 -3.0583
 6289SOL     OW19256   4.349   5.567   3.410 -0.1933 -0.3145 -0.3414
 6289SOL    HW119257   4.411   5.559   3.338 -0.2355 -0.2919 -0.3805
 6289SOL    HW219258   4.280   5.625   3.376 -0.6022 -0.9088 -0.5491
 6290SOL     OW19259   6.834   0.798   1.314 -0.5981 -0.2515 -0.2017
 6290SOL    HW119260   6.839   0.762   1.402 -0.4422  1.7470  0.6335
 6290SOL    HW219261   6.921   0.784   1.277 -0.9304 -1.9744 -0.4592
 6291SOL     OW19262   3.197   1.233   5.881 -0.1779 -0.4017  0.0598
 6291SOL    HW119263   3.250   1.256   5.958  0.8150  0.6164 -0.8910
 6291SOL    HW219264   3.107   1.242   5.911  0.1531 -1.4843  1.5220
 6292SOL     OW19265   5.091   2.298   3.921 -0.2099 -0.1808 -0.1461
 6292SOL    HW119266   5.134   2.336   3.997 -1.3244  0.9319 -0.0498
 6292SOL    HW219267   5.026   2.239   3.957  0.6815 -1.3002 -0.2885
 6293SOL     OW19268   3.448   4.680   1.773  0.9753 -0.2490  0.4937
 6293SOL    HW119269   3.467   4.711   1.684  2.6113  0.4444  1.0466
 6293SOL    HW219270   3.372   4.731   1.800  1.0163  0.1869 -0.1765
 6294SOL     OW19271   3.070   2.709   1.989 -0.0337 -0.0604 -0.3030
 6294SOL    HW119272   3.156   2.736   2.020 -0.3586  1.2607 -0.5188
 6294SOL    HW219273   3.034   2.658   2.062  1.7532 -2.5608 -1.0212
 6295SOL     OW19274   5.724   1.727   0.216  0.1533  0.4860  0.3724
 6295SOL    HW119275   5.749   1.680   0.137  0.5950  0.5061  0.4964
 6295SOL    HW219276   5.648   1.779   0.190  1.1163  1.5361 -0.4110
 6296SOL     OW19277   5.513   1.786   5.884 -0.2214  0.0748 -0.0197
 6296SOL    HW119278   5.491   1.874   5.854 -0.7034  0.5620  1.6962
 6296SOL    HW219279   5.429   1.744   5.900  0.0274 -0.2261  0.5142
 6297SOL     OW19280   1.276   4.870   1.527 -0.0705  0.4153  0.1303
 6297SOL    HW119281   1.229   4.850   1.608  1.1449  0.8256  0.9733
 6297SOL    HW219282   1.345   4.930   1.554  1.5201 -0.8819 -0.8653
 6298SOL     OW19283   6.270   6.115   3.887  0.5999  0.4643 -0.1066
 6298SOL    HW119284   6.290   6.203   3.856 -0.9835  1.0588  0.4596
 6298SOL    HW219285   6.300   6.113   3.977 -0.3863  0.8291  0.2432
 6299SOL     OW19286   0.190   5.376   0.425 -0.1016  0.2501 -0.1803
 6299SOL    HW119287   0.232   5.335   0.500 -0.3987  0.7152  0.2481
 6299SOL    HW219288   0.236   5.460   0.414 -1.3805  1.1208  0.7795
 6300SOL     OW19289   1.751   0.424   2.209 -0.3321 -0.4151 -0.1121
 6300SOL    HW119290   1.711   0.466   2.285  1.2078  2.2491 -0.6454
 6300SOL    HW219291   1.798   0.349   2.245  0.5754  0.9247  1.6807
 6301SOL     OW19292   2.207   5.236   2.551  0.0009 -0.3365 -0.3527
 6301SOL    HW119293   2.217   5.225   2.646  0.7407 -0.6636 -0.4661
 6301SOL    HW219294   2.160   5.157   2.523 -0.4936 -0.0945 -0.2196
 6302SOL     OW19295   3.310   1.347   4.962 -0.2074 -0.3428 -0.1594
 6302SOL    HW119296   3.282   1.415   4.900  1.2997  2.6780  2.1941
 6302SOL    HW219297   3.397   1.321   4.931  0.1179  0.4244  0.0738
 6303SOL     OW19298   2.813   5.035   5.840  0.2007  0.7866 -0.4943
 6303SOL    HW119299   2.869   5.060   5.913  0.9204 -1.0844 -0.3424
 6303SOL    HW219300   2.799   4.941   5.852 -2.0048  0.9739 -1.2176
 6304SOL     OW19301   0.134   4.748   0.182  0.7666  0.9036 -0.1003
 6304SOL    HW119302   0.215   4.777   0.225  0.3604  2.2456 -0.2023
 6304SOL    HW219303   0.162   4.719   0.095  1.5763 -1.6977  0.9304
 6305SOL     OW19304   6.607   3.872   0.466 -0.0771 -0.4717 -0.4085
 6305SOL    HW119305   6.632   3.939   0.530  1.3960 -0.4298 -0.9667
 6305SOL    HW219306   6.617   3.916   0.381 -2.9702 -0.2080 -0.6978
 6306SOL     OW19307   6.144   3.858   5.861 -0.2230  0.2729  0.5823
 6306SOL    HW119308   6.191   3.776   5.845  0.5585  0.8313 -0.0592
 6306SOL    HW219309   6.053   3.839   5.837  0.3074  0.1373 -1.4885
 6307SOL     OW19310   1.144   5.399   2.770  0.6128  0.0172 -0.0216
 6307SOL    HW119311   1.191   5.482   2.780 -0.7684  0.6262  1.9302
 6307SOL    HW219312   1.071   5.419   2.712  0.7367 -0.0508 -0.2031
 6308SOL     OW19313   5.839   4.607   4.786  0.0741 -0.0700 -0.1575
 6308SOL    HW119314   5.793   4.599   4.703 -0.3910 -0.4166  0.1321
 6308SOL    HW219315   5.890   4.526   4.793  0.7242  0.2997 -0.4660
 6309SOL     OW19316   4.766   6.460   3.027  0.1495 -0.0491 -0.3410
 6309SOL    HW119317   4.677   6.451   2.991 -0.7056  0.7700  1.4521
 6309SOL    HW219318   4.821   6.476   2.950 -0.8647 -2.6957 -1.7619
 6310SOL     OW19319   4.883   4.068   5.080 -0.2986 -0.2427  0.3577
 6310SOL    HW119320   4.806   4.023   5.045 -0.4215 -0.0150  0.3340
 6310SOL    HW219321   4.853   4.157   5.097  0.1185  0.0196 -0.2230
 6311SOL     OW19322   4.299   2.237   4.502  0.8116  0.2607 -0.1824
 6311SOL    HW119323   4.319   2.220   4.410 -0.3181  0.4869 -0.4838
 6311SOL    HW219324   4.300   2.332   4.510 -0.4753  0.3066 -0.3098
 6312SOL     OW19325   2.213   1.424   6.517 -0.1180  0.2175  0.0226
 6312SOL    HW119326   2.295   1.444   6.472 -0.8593 -2.2466 -2.6937
 6312SOL    HW219327   2.150   1.407   6.448 -2.5612  0.4020  2.0401
 6313SOL     OW19328   4.532   3.069   2.220 -0.1674  0.1619  0.2944
 6313SOL    HW119329   4.490   3.017   2.289  0.7422 -0.7388  0.1945
 6313SOL    HW219330   4.503   3.159   2.236  0.7479  0.1320  2.4162
 6314SOL     OW19331   0.543   6.678   1.009 -0.4016  0.6287  0.5663
 6314SOL    HW119332   0.524   6.761   0.964  0.8553  0.9357  0.5652
 6314SOL    HW219333   0.482   6.677   1.082 -0.9942  1.1652  0.0985
 6315SOL     OW19334   4.542   3.506   2.750 -0.5725  0.5347 -0.0574
 6315SOL    HW119335   4.454   3.491   2.716  0.3643 -2.2917 -1.6041
 6315SOL    HW219336   4.590   3.544   2.676  0.0860 -0.3189 -0.0912
 6316SOL     OW19337   1.731   1.748   1.719  0.3338  0.1593  0.2616
 6316SOL    HW119338   1.670   1.734   1.791  0.8763  0.9053  0.8910
 6316SOL    HW219339   1.677   1.784   1.649  0.2562  2.4127  1.3706
 6317SOL     OW19340   3.232   1.653   5.792  0.0420 -0.0088  0.4460
 6317SOL    HW119341   3.138   1.665   5.783  0.3264  0.8006 -2.5281
 6317SOL    HW219342   3.257   1.601   5.716  2.3672  2.5134 -0.6846
 6318SOL     OW19343   5.320   6.299   4.135  0.3044  0.7644  0.2497
 6318SOL    HW119344   5.329   6.205   4.123  0.0505  0.8538 -0.7132
 6318SOL    HW219345   5.337   6.337   4.049  0.2999  1.5942  0.5992
 6319SOL     OW19346   4.940   5.279   6.433  0.3594 -0.0304 -0.3618
 6319SOL    HW119347   4.989   5.354   6.466 -1.7674  0.3307  2.3121
 6319SOL    HW219348   4.883   5.315   6.365  0.4932  0.4797 -0.2037
 6320SOL     OW19349   0.631   2.589   5.629  0.6468 -0.0550  0.3988
 6320SOL    HW119350   0.602   2.517   5.686  1.7638  0.0359  1.1191
 6320SOL    HW219351   0.718   2.561   5.598 -0.5286 -0.8165 -2.5601
 6321SOL     OW19352   5.645   4.428   2.825  0.4134 -0.7241  0.0332
 6321SOL    HW119353   5.584   4.398   2.893  0.4298 -0.9442 -0.0494
 6321SOL    HW219354   5.727   4.443   2.871  0.3242 -0.5113  0.1293
 6322SOL     OW19355   2.814   4.646   0.879 -0.4668  0.6959  0.0232
 6322SOL    HW119356   2.892   4.677   0.924 -0.4635 -0.6573  1.0070
 6322SOL    HW219357   2.818   4.551   0.885 -2.0564  0.5817 -0.1202
 6323SOL     OW19358   6.359   5.593   1.274 -0.0254  0.4420 -0.2990
 6323SOL    HW119359   6.306   5.667   1.247 -1.4217 -0.9740 -1.6943
 6323SOL    HW219360   6.403   5.564   1.193 -1.5578 -1.7693 -0.4507
 6324SOL     OW19361   3.494   6.557   4.438 -0.2802  0.6461  0.0747
 6324SOL    HW119362   3.421   6.618   4.427 -0.8967 -0.0509  0.2520
 6324SOL    HW219363   3.559   6.606   4.489 -0.2631  1.5584 -0.7835
 6325SOL     OW19364   2.550   1.277   3.194  0.0961  0.8880 -0.3717
 6325SOL    HW119365   2.520   1.294   3.284  2.0034  1.2938  0.2282
 6325SOL    HW219366   2.566   1.364   3.158 -1.1701  0.7516 -1.3223
 6326SOL     OW19367   0.336   1.070   0.127  0.5521 -0.1054  0.1033
 6326SOL    HW119368   0.306   1.052   0.216 -2.4771 -0.2420 -0.8527
 6326SOL    HW219369   0.330   1.166   0.118  0.4006 -0.1310 -0.0861
 6327SOL     OW19370   4.200   1.015   3.434  0.0916  0.2878 -0.0020
 6327SOL    HW119371   4.212   0.921   3.427  0.9333  0.1684  2.3305
 6327SOL    HW219372   4.221   1.048   3.346 -1.0930 -1.7186 -1.1296
 6328SOL     OW19373   2.315   5.377   0.027  0.2298 -0.0351 -0.1513
 6328SOL    HW119374   2.350   5.359  -0.061 -0.7523  0.2717 -0.6205
 6328SOL    HW219375   2.338   5.468   0.043 -0.1225  0.0938 -0.3579
 6329SOL     OW19376   0.679   4.081   0.736  0.0262 -0.3928  0.0630
 6329SOL    HW119377   0.661   4.136   0.811 -5.0468  0.9972 -1.7847
 6329SOL    HW219378   0.706   4.142   0.667  0.4765 -1.0826 -0.3853
 6330SOL     OW19379   6.818   3.202   3.123  0.3150  0.4059 -0.1811
 6330SOL    HW119380   6.905   3.176   3.155  0.5628 -1.3000 -2.0482
 6330SOL    HW219381   6.757   3.161   3.184  0.7734  1.3743  0.9763
 6331SOL     OW19382   1.165   5.087   0.986 -0.4365  0.1081  0.2162
 6331SOL    HW119383   1.072   5.083   1.007 -0.4827  0.8170  0.1550
 6331SOL    HW219384   1.179   5.175   0.951  0.1089 -0.2381 -0.4717
 6332SOL     OW19385   1.840   0.310   3.372 -0.3099  0.3265  0.4732
 6332SOL    HW119386   1.905   0.368   3.333 -0.7261 -0.0266 -0.7810
 6332SOL    HW219387   1.756   0.355   3.358 -0.4107  0.5231  1.5966
 6333SOL     OW19388   6.687   3.505   1.764 -0.2699  0.2165  0.4886
 6333SOL    HW119389   6.649   3.520   1.850 -0.5014  0.5727  0.3230
 6333SOL    HW219390   6.618   3.527   1.702 -0.0698  0.0649  0.2065
 6334SOL     OW19391   5.948   3.663   3.173  0.1789 -0.3387 -0.3497
 6334SOL    HW119392   6.039   3.677   3.201  0.3116 -0.4215 -0.7316
 6334SOL    HW219393   5.956   3.623   3.086 -0.2201 -0.6721 -0.2366
 6335SOL     OW19394   1.437   1.652   4.785 -0.2336 -0.4306  0.4333
 6335SOL    HW119395   1.478   1.734   4.811  0.5748 -1.0862  1.2797
 6335SOL    HW219396   1.470   1.587   4.847  0.6620 -1.7922 -1.3732
 6336SOL     OW19397   1.876   2.625   2.443  0.2581 -0.2077  0.7291
 6336SOL    HW119398   1.838   2.710   2.423  0.6271 -0.1923  0.0261
 6336SOL    HW219399   1.803   2.572   2.475 -0.3434 -0.1472 -0.4732
 6337SOL     OW19400   1.332   6.605   0.544  0.1624  0.1410  0.0695
 6337SOL    HW119401   1.316   6.699   0.532 -0.1535  0.2420  1.1564
 6337SOL    HW219402   1.420   6.600   0.580 -0.0191  0.0592  0.5054
 6338SOL     OW19403   6.107   5.634   3.515  0.2289 -0.2908 -0.3286
 6338SOL    HW119404   6.147   5.713   3.480 -1.1705  0.3693 -0.5322
 6338SOL    HW219405   6.136   5.564   3.456  4.0103 -0.5699  1.6125
 6339SOL     OW19406   2.491   4.927   2.229 -0.2875  0.0303  0.8352
 6339SOL    HW119407   2.469   4.835   2.218  0.6251  0.0341 -2.0540
 6339SOL    HW219408   2.408   4.970   2.249 -0.9001 -1.2635  1.1675
 6340SOL     OW19409   3.429   3.195   2.158  0.4504  0.4805  0.6631
 6340SOL    HW119410   3.347   3.194   2.208  0.1431 -2.4839  0.2932
 6340SOL    HW219411   3.402   3.216   2.069  0.3570  1.2218  0.8594
 6341SOL     OW19412   1.640   0.103   4.915  0.0275 -0.0701 -0.0369
 6341SOL    HW119413   1.570   0.076   4.975 -0.4184 -1.5069 -1.1282
 6341SOL    HW219414   1.605   0.085   4.827  1.6966 -0.7231 -0.6229
 6342SOL     OW19415   2.149   5.396   3.567  0.0116 -0.2480  0.2629
 6342SOL    HW119416   2.149   5.399   3.663 -3.5972 -1.6796  0.4644
 6342SOL    HW219417   2.058   5.415   3.542  0.6652 -0.6311 -2.8544
 6343SOL     OW19418   4.767   0.436   4.684  0.9377 -0.4816 -0.8688
 6343SOL    HW119419   4.730   0.359   4.728  0.6701 -0.5615 -1.2303
 6343SOL    HW219420   4.822   0.400   4.615  0.8218 -0.3487 -1.0309
 6344SOL     OW19421   5.969   4.813   6.658 -0.6799 -0.0263  0.8556
 6344SOL    HW119422   5.961   4.754   6.733 -0.3035 -1.0026  0.1453
 6344SOL    HW219423   5.929   4.895   6.688  1.4959  0.3906  2.9299
 6345SOL     OW19424   1.062   0.023   3.267 -0.3673 -0.1708 -0.4175
 6345SOL    HW119425   1.016  -0.031   3.331  0.6767 -1.5519 -0.7774
 6345SOL    HW219426   1.136  -0.031   3.239 -0.2436  0.7889 -2.0699
 6346SOL     OW19427   6.219   0.429   3.567 -0.5136 -0.5394 -0.1874
 6346SOL    HW119428   6.256   0.480   3.638 -0.5617  0.3906 -0.8175
 6346SOL    HW219429   6.254   0.469   3.487 -1.6517 -0.6084 -0.7426
 6347SOL     OW19430   6.615   1.484   6.297 -0.5874 -0.1650 -0.0883
 6347SOL    HW119431   6.654   1.559   6.341 -1.4426  0.8363 -0.9913
 6347SOL    HW219432   6.539   1.519   6.252 -0.3667 -1.3504 -1.4678
 6348SOL     OW19433   1.543   6.429   0.285  0.1465 -0.4870  0.5460
 6348SOL    HW119434   1.581   6.440   0.372  0.9007 -0.2810  0.2073
 6348SOL    HW219435   1.618   6.410   0.229 -0.2726 -0.1707 -0.1356
 6349SOL     OW19436   3.873   5.541   5.946  0.6265  0.3892  0.0887
 6349SOL    HW119437   3.881   5.544   5.851 -1.9703 -0.9845 -0.2927
 6349SOL    HW219438   3.886   5.631   5.975  0.9110  0.9288 -1.6307
 6350SOL     OW19439   1.790   0.176   1.428 -1.1415 -0.3614 -0.0911
 6350SOL    HW119440   1.874   0.190   1.473 -0.4976 -1.6373 -0.8318
 6350SOL    HW219441   1.728   0.230   1.476  0.4615  2.2381 -0.7444
 6351SOL     OW19442   4.023   0.348   0.439 -1.4641 -0.0796  0.5444
 6351SOL    HW119443   3.961   0.396   0.494 -0.2388  2.9571 -0.5294
 6351SOL    HW219444   4.109   0.383   0.463 -0.6222 -0.7898 -1.2287
 6352SOL     OW19445   4.389   3.236   6.314  0.4385  0.0616 -0.0720
 6352SOL    HW119446   4.405   3.276   6.400 -0.9506 -0.6096  0.5286
 6352SOL    HW219447   4.343   3.155   6.334 -0.7882  0.3753 -1.4918
 6353SOL     OW19448   2.356   0.304   1.489  0.1985  0.5931  0.0522
 6353SOL    HW119449   2.399   0.356   1.558 -1.8349  0.5707  1.4236
 6353SOL    HW219450   2.352   0.216   1.526  0.8589  0.1240 -0.9667
 6354SOL     OW19451   1.133   1.052   6.235 -0.1099 -0.2632 -0.0057
 6354SOL    HW119452   1.214   1.102   6.222  0.1198 -0.3058  1.1324
 6354SOL    HW219453   1.082   1.104   6.297 -0.1980 -1.0586  0.6040
 6355SOL     OW19454   5.036   2.412   0.314  0.4245  0.5214 -0.2910
 6355SOL    HW119455   4.943   2.414   0.338  1.0960  0.5046  2.7830
 6355SOL    HW219456   5.051   2.495   0.269 -1.3103 -0.0485 -2.0355
 6356SOL     OW19457   2.730   3.691   6.514  0.1528  0.7061  0.4473
 6356SOL    HW119458   2.762   3.698   6.424  1.4234 -1.0519  0.6908
 6356SOL    HW219459   2.789   3.746   6.566  1.2714 -0.5554  0.5569
 6357SOL     OW19460   3.834   0.969   5.070 -0.3115 -0.3010 -0.0890
 6357SOL    HW119461   3.838   1.055   5.027 -0.1643 -0.1081  0.3051
 6357SOL    HW219462   3.882   0.911   5.012 -0.5381 -0.1525 -0.4355
 6358SOL     OW19463   0.604   6.531   2.557  0.4583  0.4511  0.4361
 6358SOL    HW119464   0.614   6.574   2.642 -0.8866  2.5241 -0.3870
 6358SOL    HW219465   0.568   6.598   2.500 -0.4483 -1.4159 -1.3221
 6359SOL     OW19466   6.258   0.083   2.591 -0.1624  0.1307  0.4709
 6359SOL    HW119467   6.308   0.087   2.672  1.6827  1.5839 -0.6418
 6359SOL    HW219468   6.169   0.110   2.615  0.2872  0.2699  2.0368
 6360SOL     OW19469   5.563   6.239   4.256 -0.9161  0.3239 -0.2566
 6360SOL    HW119470   5.613   6.299   4.311 -0.0787 -1.1172  0.6278
 6360SOL    HW219471   5.488   6.290   4.226 -0.2651  1.7770  0.4906
 6361SOL     OW19472   6.736   3.833   3.320 -0.1188  0.1415 -0.2003
 6361SOL    HW119473   6.648   3.863   3.344  0.6645  1.6890  0.9517
 6361SOL    HW219474   6.774   3.805   3.403 -0.0780 -2.2069 -0.9468
 6362SOL     OW19475   4.173   3.527   0.695  0.6260 -0.1783  0.6703
 6362SOL    HW119476   4.241   3.546   0.760  1.5246 -1.0130  0.0104
 6362SOL    HW219477   4.106   3.480   0.744  1.5112 -1.2265  0.9281
 6363SOL     OW19478   2.422   2.203   1.365  0.8776 -0.0419  0.2845
 6363SOL    HW119479   2.357   2.237   1.303  0.2146  0.1790  1.0782
 6363SOL    HW219480   2.379   2.127   1.405  0.9859  0.2883  1.0397
 6364SOL     OW19481   2.539   5.741   3.094  0.5696 -0.4587 -0.4702
 6364SOL    HW119482   2.573   5.653   3.108 -0.4471 -0.5247  2.0065
 6364SOL    HW219483   2.598   5.798   3.144 -1.4854 -0.3320  1.9860
 6365SOL     OW19484   0.143   1.276   0.528 -0.0793 -0.4651 -0.1085
 6365SOL    HW119485   0.073   1.318   0.578  0.5159  1.4288 -0.7854
 6365SOL    HW219486   0.097   1.228   0.459 -0.7829 -1.0656  0.7512
 6366SOL     OW19487   5.917   1.684   3.291 -0.0793 -0.9508  0.1667
 6366SOL    HW119488   5.948   1.715   3.376 -0.0947 -0.6201  0.0557
 6366SOL    HW219489   5.925   1.589   3.295 -0.2384 -0.9474  0.5970
 6367SOL     OW19490   4.438   2.302   0.853  0.5322 -0.5563  0.3329
 6367SOL    HW119491   4.357   2.255   0.835  1.1276 -1.0777 -1.0700
 6367SOL    HW219492   4.503   2.233   0.869  1.3035 -0.2388 -1.2605
 6368SOL     OW19493   1.800   5.413   0.009  0.4235  0.1207  0.4662
 6368SOL    HW119494   1.801   5.436  -0.084  0.2540  0.3135  0.5115
 6368SOL    HW219495   1.893   5.412   0.034  0.4748 -0.0255  0.2734
 6369SOL     OW19496   4.504   5.635   6.210 -0.1111  0.3088 -0.7962
 6369SOL    HW119497   4.547   5.716   6.240  0.3438 -0.1989 -0.0413
 6369SOL    HW219498   4.478   5.654   6.120  0.5415  1.0883 -0.8361
 6370SOL     OW19499   5.278   4.351   4.141 -0.1963  0.6358 -0.1071
 6370SOL    HW119500   5.278   4.407   4.218  0.1806 -0.6062  0.8418
 6370SOL    HW219501   5.281   4.411   4.067 -0.1121  1.8538  0.8505
 6371SOL     OW19502   0.423   3.977   3.629 -0.1931  0.3813 -0.4810
 6371SOL    HW119503   0.471   4.009   3.552  0.1560 -0.8247 -0.7779
 6371SOL    HW219504   0.379   3.898   3.599 -1.5048  0.8604  0.0936
 6372SOL     OW19505   4.336   2.158   5.308  0.0286  0.3358  0.3417
 6372SOL    HW119506   4.257   2.171   5.360  1.4209  1.7921  2.1990
 6372SOL    HW219507   4.306   2.167   5.217 -1.9803  0.5091  0.9687
 6373SOL     OW19508   0.905   4.041   4.588  0.2694  0.0614  0.0200
 6373SOL    HW119509   0.997   4.015   4.596  1.2078  2.7643 -0.8464
 6373SOL    HW219510   0.870   3.984   4.520  1.3819 -0.7766  0.1215
 6374SOL     OW19511   0.555   1.369   5.812 -0.1750 -0.2698 -0.4840
 6374SOL    HW119512   0.479   1.397   5.863 -0.3237 -0.9843 -0.2955
 6374SOL    HW219513   0.519   1.312   5.744 -0.2504  2.4279 -2.8680
 6375SOL     OW19514   6.723   0.840   5.314 -0.2100 -0.4203  0.2382
 6375SOL    HW119515   6.669   0.788   5.373  1.3026 -0.7587  1.3753
 6375SOL    HW219516   6.660   0.893   5.264 -1.5595 -0.5083  1.7723
 6376SOL     OW19517   0.498   2.686   4.696  0.0831  0.3727 -0.1443
 6376SOL    HW119518   0.526   2.612   4.643 -0.4868 -0.3740  0.5638
 6376SOL    HW219519   0.548   2.678   4.777 -1.0032 -0.0768  0.5026
 6377SOL     OW19520   1.387   0.500   4.839  0.6063 -0.3582  0.1074
 6377SOL    HW119521   1.376   0.477   4.747 -1.7070 -1.3241  0.5500
 6377SOL    HW219522   1.475   0.539   4.844  1.0987 -0.9868 -2.3310
 6378SOL     OW19523   0.979   5.602   1.500 -0.8836 -0.2228  0.0927
 6378SOL    HW119524   1.020   5.596   1.413 -0.6292 -0.9076  0.2457
 6378SOL    HW219525   1.022   5.676   1.542  0.4546 -1.1136  0.3603
 6379SOL     OW19526   2.386   1.299   4.808 -0.2405 -0.0603  0.1122
 6379SOL    HW119527   2.429   1.230   4.758 -0.9555 -1.8201  1.8038
 6379SOL    HW219528   2.411   1.380   4.763  0.3641 -1.4065 -2.1439
 6380SOL     OW19529   3.592   2.296   3.243  0.7462  0.4395 -0.0369
 6380SOL    HW119530   3.662   2.359   3.223  0.2645  1.2562  0.7775
 6380SOL    HW219531   3.547   2.334   3.318 -0.4765 -0.1623 -0.4505
 6381SOL     OW19532   5.574   5.389   2.877  0.1189 -0.3090  0.5861
 6381SOL    HW119533   5.559   5.473   2.920 -1.3847 -0.1446 -0.1966
 6381SOL    HW219534   5.536   5.324   2.936  1.9564 -0.5576  1.5585
 6382SOL     OW19535   5.853   1.386   2.781 -0.1252 -0.0698  0.5372
 6382SOL    HW119536   5.865   1.371   2.875  1.7425 -0.9529  0.2034
 6382SOL    HW219537   5.763   1.358   2.763 -0.7296  0.6950  2.1370
 6383SOL     OW19538   1.992   4.015   1.566 -0.3570  0.2494  0.2157
 6383SOL    HW119539   1.913   3.962   1.566  1.3615 -2.5396  1.8820
 6383SOL    HW219540   2.056   3.964   1.516  0.7008  2.0258 -0.3601
 6384SOL     OW19541   0.897   1.750   4.730  0.7152  0.4196  0.2970
 6384SOL    HW119542   0.940   1.694   4.665 -0.8333 -1.3664  0.7097
 6384SOL    HW219543   0.807   1.757   4.698 -0.1943 -0.8454  2.3915
 6385SOL     OW19544   4.139   4.834   6.742  0.1184 -0.1681  0.2587
 6385SOL    HW119545   4.074   4.831   6.672  0.0906 -0.7034  0.2994
 6385SOL    HW219546   4.198   4.905   6.717  0.3488 -0.6166 -0.5271
 6386SOL     OW19547   4.623   2.200   0.129  0.6456  0.8450 -0.0652
 6386SOL    HW119548   4.612   2.118   0.177  0.7626  1.4508  1.0329
 6386SOL    HW219549   4.717   2.204   0.110  0.4699  0.1635 -1.1986
 6387SOL     OW19550   1.529   0.051   4.689 -0.1406  0.0147  0.6470
 6387SOL    HW119551   1.526   0.134   4.642  0.9798 -0.7770 -0.8937
 6387SOL    HW219552   1.444   0.011   4.673 -0.6263  0.7606  1.2615
 6388SOL     OW19553   1.159   4.291   0.256  0.1589  0.4915 -0.2773
 6388SOL    HW119554   1.252   4.283   0.235  0.4309 -1.4048  1.4201
 6388SOL    HW219555   1.116   4.225   0.202 -0.2842  1.5328 -1.2479
 6389SOL     OW19556   0.518   3.929   0.270  0.5787 -0.3348  0.0463
 6389SOL    HW119557   0.472   4.011   0.286 -1.5255 -1.2231 -0.9990
 6389SOL    HW219558   0.505   3.913   0.176  1.8485 -1.3528  0.0241
 6390SOL     OW19559   2.044   1.151   0.805  0.4138  0.1650 -0.0232
 6390SOL    HW119560   2.107   1.084   0.777 -0.0282 -1.0408  1.6774
 6390SOL    HW219561   1.958   1.112   0.787  0.1208  1.3851 -1.4087
 6391SOL     OW19562   5.895   4.123   5.108 -0.2954 -0.1958 -0.0920
 6391SOL    HW119563   5.840   4.048   5.133  0.8393 -0.5238  1.5822
 6391SOL    HW219564   5.837   4.198   5.114 -0.6119 -0.5333  1.6788
 6392SOL     OW19565   6.265   4.690   3.556  0.3230  0.1006  0.1520
 6392SOL    HW119566   6.347   4.689   3.506 -0.4914  0.1326 -1.2415
 6392SOL    HW219567   6.233   4.779   3.547  0.3614  0.2272  1.1229
 6393SOL     OW19568   0.260   4.067   3.155  0.4046 -0.0288  0.1272
 6393SOL    HW119569   0.246   4.162   3.157  0.5662  0.1034 -2.4404
 6393SOL    HW219570   0.173   4.031   3.140  0.6510 -0.1262 -1.1305
 6394SOL     OW19571   6.631   0.992   6.738  0.2995 -0.2535 -0.2434
 6394SOL    HW119572   6.697   1.061   6.736  1.0428 -0.9055  0.8420
 6394SOL    HW219573   6.570   1.020   6.807  1.0858 -1.0895  0.8117
 6395SOL     OW19574   3.305   6.716   1.139  0.2378 -0.2899 -0.0879
 6395SOL    HW119575   3.367   6.763   1.196  0.8391 -2.0613  0.7906
 6395SOL    HW219576   3.257   6.786   1.094  1.6197  1.1590  0.5565
 6396SOL     OW19577   2.821   0.426   4.317  0.5432  0.0097 -0.1497
 6396SOL    HW119578   2.813   0.331   4.320  0.1527  0.0166 -0.7462
 6396SOL    HW219579   2.844   0.445   4.226  0.0534  0.5250 -0.1721
 6397SOL     OW19580   3.718   0.741   6.524  0.2084 -0.6627 -0.7660
 6397SOL    HW119581   3.810   0.717   6.537  0.7265  1.2355 -0.6112
 6397SOL    HW219582   3.717   0.791   6.442 -0.6931 -0.6914 -0.7851
 6398SOL     OW19583   5.432   3.255   3.827 -0.0586  0.1009 -0.2601
 6398SOL    HW119584   5.386   3.274   3.745 -0.1833 -0.7402 -0.4027
 6398SOL    HW219585   5.487   3.180   3.806 -1.0387 -0.9481  0.7304
 6399SOL     OW19586   3.343   1.455   3.358  0.3195 -0.1279 -0.4042
 6399SOL    HW119587   3.303   1.535   3.393  0.0852 -0.8923  1.2114
 6399SOL    HW219588   3.342   1.394   3.433 -0.8399 -2.1423 -1.9487
 6400SOL     OW19589   0.800   5.323   3.897  0.0928 -0.4378 -0.2492
 6400SOL    HW119590   0.883   5.367   3.878  0.3748 -0.4359  0.9238
 6400SOL    HW219591   0.795   5.319   3.992 -0.5896 -1.7069 -0.3031
 6401SOL     OW19592   0.364   4.826   1.117 -0.0332  0.2349  0.4572
 6401SOL    HW119593   0.306   4.762   1.158 -1.8222  1.2422 -0.4035
 6401SOL    HW219594   0.405   4.778   1.045 -1.0004 -0.0884  0.1051
 6402SOL     OW19595   0.614   4.033   4.930 -0.2645 -0.0277  0.0724
 6402SOL    HW119596   0.531   4.029   4.882 -0.3920  2.5360 -0.0975
 6402SOL    HW219597   0.681   4.023   4.863 -0.4463  0.3505 -0.1683
 6403SOL     OW19598   0.722   3.969   6.114  0.1673 -0.1883 -0.1385
 6403SOL    HW119599   0.781   3.926   6.052  1.1196  0.4501  0.2923
 6403SOL    HW219600   0.780   4.023   6.168 -0.8424  0.5905  0.1956
 6404SOL     OW19601   3.611   2.422   0.762 -0.0396 -0.5910 -0.2223
 6404SOL    HW119602   3.673   2.399   0.693 -0.0121 -0.6652 -0.1727
 6404SOL    HW219603   3.556   2.344   0.771  0.1210 -0.6740  0.0193
 6405SOL     OW19604   5.679   4.924   1.515  0.5775 -0.3203 -0.2094
 6405SOL    HW119605   5.656   4.972   1.435  1.2540  0.2793 -0.0522
 6405SOL    HW219606   5.652   4.982   1.586 -0.1503 -0.9118  0.0126
 6406SOL     OW19607   0.117   1.199   0.831  0.1513 -0.2183  0.0228
 6406SOL    HW119608   0.120   1.172   0.739 -3.1065 -0.6413 -0.0720
 6406SOL    HW219609   0.110   1.295   0.828 -0.8514 -0.2980 -0.2147
 6407SOL     OW19610   6.392   6.508   2.606  0.2942 -0.6891  0.0567
 6407SOL    HW119611   6.452   6.436   2.586  0.7490 -0.1474 -0.6048
 6407SOL    HW219612   6.450   6.582   2.627 -0.1577 -0.4069  0.3203
 6408SOL     OW19613   1.506   0.092   1.019  0.0912 -0.2819  0.1133
 6408SOL    HW119614   1.494   0.018   1.078  1.6077 -1.0485 -0.4748
 6408SOL    HW219615   1.563   0.152   1.067 -0.9692  0.4437  0.5076
 6409SOL     OW19616   3.915   5.275   6.029 -0.0032 -0.0326  0.4972
 6409SOL    HW119617   3.877   5.270   6.116 -1.1302 -1.3726 -0.0351
 6409SOL    HW219618   3.882   5.358   5.993 -0.9460 -0.3014  0.7183
 6410SOL     OW19619   2.583   6.481   1.095  0.4232 -0.4715  0.3485
 6410SOL    HW119620   2.578   6.446   1.184  2.3173  1.2913  1.2313
 6410SOL    HW219621   2.520   6.552   1.093 -0.1209 -0.9504  0.0242
 6411SOL     OW19622   0.585   1.893   5.376 -0.1839  0.1455  0.6435
 6411SOL    HW119623   0.626   1.974   5.345 -0.5074  0.1921  0.3389
 6411SOL    HW219624   0.618   1.883   5.466  0.2171  0.3703  0.5264
 6412SOL     OW19625   3.664   1.242   0.622  0.1302 -0.1606 -0.3719
 6412SOL    HW119626   3.621   1.295   0.555 -0.2018  0.0263 -0.0119
 6412SOL    HW219627   3.757   1.261   0.611  0.1356 -0.6031 -1.1850
 6413SOL     OW19628   1.553   6.816   6.563  0.0813 -0.1955  0.1451
 6413SOL    HW119629   1.549   6.721   6.574  0.4871 -0.3311 -0.8326
 6413SOL    HW219630   1.469   6.839   6.524  0.9666 -0.5147 -2.0723
 6414SOL     OW19631   2.800   3.033   3.429  0.1160 -0.4953 -0.1966
 6414SOL    HW119632   2.876   3.017   3.373  0.2411  0.7375 -0.4090
 6414SOL    HW219633   2.799   2.960   3.490  1.8137 -0.2513  0.1731
 6415SOL     OW19634   3.611   4.140   6.653 -0.4099  0.0965  0.0848
 6415SOL    HW119635   3.604   4.203   6.581  0.7068 -0.6420 -0.6889
 6415SOL    HW219636   3.533   4.085   6.645  0.0189 -0.3808 -0.9679
 6416SOL     OW19637   3.380   2.716   1.822 -0.0692 -0.1905 -0.3838
 6416SOL    HW119638   3.393   2.637   1.874 -2.5784 -0.0225  0.6085
 6416SOL    HW219639   3.371   2.684   1.732 -0.9101 -1.0280 -0.0174
 6417SOL     OW19640   2.438   6.312   5.982  0.0840 -0.1068  0.3042
 6417SOL    HW119641   2.434   6.406   6.000 -0.7882 -0.0621 -0.0459
 6417SOL    HW219642   2.400   6.272   6.061 -1.0820 -0.0592 -0.2004
 6418SOL     OW19643   6.333   3.781   0.292  0.1918  0.0978  0.6208
 6418SOL    HW119644   6.250   3.775   0.340 -0.8066 -0.2281 -1.0697
 6418SOL    HW219645   6.383   3.847   0.339 -1.1234  0.4803  1.5396
 6419SOL     OW19646   2.883   2.396   3.823  0.2168 -0.3005  0.3179
 6419SOL    HW119647   2.832   2.381   3.744 -0.4645  0.5092  0.5980
 6419SOL    HW219648   2.928   2.479   3.808 -0.9448  0.5267  1.2973
 6420SOL     OW19649   0.556   3.403   2.216  0.0904  0.2491 -0.0438
 6420SOL    HW119650   0.506   3.383   2.136  0.3867  1.0457 -0.4412
 6420SOL    HW219651   0.570   3.318   2.257 -0.4077 -0.1325 -0.6382
 6421SOL     OW19652   2.329   5.341   4.495 -0.3228  0.0007 -0.6548
 6421SOL    HW119653   2.424   5.346   4.484 -0.3021  1.4773 -0.0754
 6421SOL    HW219654   2.305   5.254   4.463  1.3679 -0.8204  0.1868
 6422SOL     OW19655   0.615   5.442   3.554 -0.0646 -0.0066 -0.3981
 6422SOL    HW119656   0.610   5.464   3.647 -0.4711 -2.0502  0.1056
 6422SOL    HW219657   0.699   5.478   3.525 -0.0472  0.8644  0.6820
 6423SOL     OW19658   4.846   3.058   1.619 -0.1775 -0.1090 -0.0460
 6423SOL    HW119659   4.937   3.080   1.597 -0.0191 -0.6776  0.0411
 6423SOL    HW219660   4.813   3.135   1.665  0.5513 -0.2739  0.7572
 6424SOL     OW19661   5.916   4.698   1.907 -0.4458 -0.3474 -0.3540
 6424SOL    HW119662   5.971   4.628   1.871 -1.5721 -1.8385  0.6591
 6424SOL    HW219663   5.922   4.769   1.843  2.0402 -0.7135 -0.6225
 6425SOL     OW19664   2.429   2.574   5.488 -0.2960 -0.5531  0.2233
 6425SOL    HW119665   2.511   2.527   5.505 -0.4238 -0.6978  0.4500
 6425SOL    HW219666   2.449   2.631   5.415  0.4995  0.6654  1.3457
 6426SOL     OW19667   4.991   3.185   3.343  0.1192 -0.2569  0.1759
 6426SOL    HW119668   4.906   3.142   3.343 -0.6364  1.0712 -1.8430
 6426SOL    HW219669   4.973   3.275   3.368  1.1113 -0.2004  0.7524
 6427SOL     OW19670   0.142   1.660   2.157 -0.0326  0.2694 -0.2424
 6427SOL    HW119671   0.195   1.661   2.237 -0.7162  1.1491  0.2141
 6427SOL    HW219672   0.182   1.728   2.102 -0.3301  0.5324 -0.1341
 6428SOL     OW19673   3.359   6.464   6.344  0.1999  0.1653  0.5273
 6428SOL    HW119674   3.440   6.507   6.371  0.0799  0.2519  0.7538
 6428SOL    HW219675   3.301   6.536   6.319  0.3073  0.0864  0.0415
 6429SOL     OW19676   6.015   6.365   4.641  0.2138 -0.6641 -0.2522
 6429SOL    HW119677   6.103   6.392   4.667 -0.0510  0.4519 -0.4552
 6429SOL    HW219678   5.986   6.433   4.579 -2.0279  0.8509  2.2432
 6430SOL     OW19679   4.449   5.631   0.123 -0.1397  0.2884  1.1187
 6430SOL    HW119680   4.462   5.677   0.040  1.4658 -1.0776  0.5621
 6430SOL    HW219681   4.411   5.697   0.181 -0.4818  1.5159 -0.4338
 6431SOL     OW19682   3.772   5.828   1.908 -0.0126  0.0032 -0.2238
 6431SOL    HW119683   3.848   5.881   1.884 -0.5151  1.6232  1.5027
 6431SOL    HW219684   3.706   5.848   1.842  0.1091  0.8991 -0.0946
 6432SOL     OW19685   6.483   1.486   2.756 -0.4347 -0.3682 -0.5056
 6432SOL    HW119686   6.419   1.429   2.799 -1.1022 -0.9203 -2.1276
 6432SOL    HW219687   6.432   1.560   2.723 -0.0737 -0.3270 -0.9903
 6433SOL     OW19688   4.582   0.806   3.786 -0.1552 -0.4989 -0.0517
 6433SOL    HW119689   4.657   0.853   3.749  0.4082 -0.5372  1.0089
 6433SOL    HW219690   4.509   0.826   3.726 -0.2095  2.5487  0.8473
 6434SOL     OW19691   6.344   1.594   4.568 -0.6850  0.2482  0.3724
 6434SOL    HW119692   6.282   1.655   4.608 -0.3232  1.8047 -1.3049
 6434SOL    HW219693   6.292   1.518   4.545 -1.3807  0.3532  1.4940
 6435SOL     OW19694   3.208   1.447   3.109  0.1828 -0.7906  0.1187
 6435SOL    HW119695   3.229   1.446   3.202  0.5203 -0.1800  0.0558
 6435SOL    HW219696   3.284   1.488   3.068 -1.5257  2.5566 -0.0109
 6436SOL     OW19697   0.002   1.150   6.471 -0.3191 -0.3998 -0.2052
 6436SOL    HW119698   0.090   1.129   6.441 -0.5333 -1.3201 -0.2221
 6436SOL    HW219699   0.012   1.170   6.564  0.1241  1.0023 -0.5311
 6437SOL     OW19700   0.382   3.513   4.232 -0.2430 -0.1365  0.4099
 6437SOL    HW119701   0.454   3.520   4.169 -0.0930  1.3863  0.7212
 6437SOL    HW219702   0.303   3.518   4.180 -0.1644 -1.6650  0.0802
 6438SOL     OW19703   1.569   3.675   3.555  0.6853 -0.3910 -0.2886
 6438SOL    HW119704   1.644   3.635   3.599  1.2126 -0.7189 -1.4478
 6438SOL    HW219705   1.548   3.614   3.484  0.3912  0.5356 -1.0182
 6439SOL     OW19706   0.116   3.041   1.574 -0.5251 -0.0831  0.1389
 6439SOL    HW119707   0.128   3.037   1.479 -0.0883  1.0143  0.1368
 6439SOL    HW219708   0.073   2.958   1.596 -0.4889 -0.4193 -0.9907
 6440SOL     OW19709   5.002   4.959   4.064  0.2150 -0.1155  0.8747
 6440SOL    HW119710   4.950   4.992   4.137 -0.6319 -0.4751  0.4375
 6440SOL    HW219711   5.027   5.037   4.015  0.6230  0.1098  1.4294
 6441SOL     OW19712   5.779   0.595   6.235 -0.4224 -0.0373  0.1856
 6441SOL    HW119713   5.856   0.652   6.238 -0.0708 -0.5418  2.8173
 6441SOL    HW219714   5.779   0.560   6.146  1.6875  0.8908 -0.2444
 6442SOL     OW19715   3.042   3.912   6.336 -0.2468 -0.3884  0.6730
 6442SOL    HW119716   3.060   3.947   6.423  1.1588 -0.8510  0.5875
 6442SOL    HW219717   3.101   3.960   6.278 -0.6942 -0.5603  0.0681
 6443SOL     OW19718   1.443   5.542   1.234  0.5955  0.0173  0.3184
 6443SOL    HW119719   1.513   5.607   1.228  0.4911  0.0360 -0.9726
 6443SOL    HW219720   1.488   5.458   1.222  0.2024  0.1351 -2.6818
 6444SOL     OW19721   0.253   5.196   3.820 -0.0329  0.7183  0.3099
 6444SOL    HW119722   0.342   5.200   3.856  0.5541 -1.3766 -0.7419
 6444SOL    HW219723   0.209   5.130   3.874 -0.6582  1.0355  0.1940
 6445SOL     OW19724   4.812   1.571   3.263  0.4441 -0.2544 -0.8611
 6445SOL    HW119725   4.761   1.611   3.192 -0.2392 -1.0109 -0.8070
 6445SOL    HW219726   4.749   1.560   3.334  0.5449 -1.6647 -0.9682
 6446SOL     OW19727   0.013   3.030   2.377  0.0072 -0.3563  0.0209
 6446SOL    HW119728   0.010   2.989   2.290 -1.0055  0.6395 -0.4467
 6446SOL    HW219729  -0.032   2.968   2.434 -1.9825  0.2643 -0.7795
 6447SOL     OW19730   4.675   2.552   6.600 -0.0241 -0.3892  0.0854
 6447SOL    HW119731   4.629   2.551   6.683 -1.1252 -0.4149 -0.5068
 6447SOL    HW219732   4.762   2.517   6.620  0.6005  1.8084  1.6863
 6448SOL     OW19733   4.257   6.441   6.496  0.2453 -0.0304  0.1144
 6448SOL    HW119734   4.346   6.405   6.500  0.2439 -0.0147  0.3070
 6448SOL    HW219735   4.203   6.376   6.543  0.3949  0.6866  1.3086
 6449SOL     OW19736   1.297   4.936   0.122  0.7887 -0.2118  0.0622
 6449SOL    HW119737   1.276   5.007   0.060 -1.2980 -1.6886 -1.0652
 6449SOL    HW219738   1.289   4.976   0.208  0.0977  1.0391 -0.5524
 6450SOL     OW19739   0.849   0.842   4.221  0.2054  0.8121 -0.3240
 6450SOL    HW119740   0.828   0.912   4.160  2.4274  1.7326 -0.1235
 6450SOL    HW219741   0.892   0.775   4.168 -1.0177 -0.0164 -0.3335
 6451SOL     OW19742   6.616   2.291   6.528  0.3116 -0.1186 -0.2203
 6451SOL    HW119743   6.535   2.341   6.525 -0.2277 -0.8008  1.4418
 6451SOL    HW219744   6.685   2.356   6.539 -0.3691  0.3199  1.8654
 6452SOL     OW19745   5.491   5.892   0.984  0.2396 -0.8277  0.0069
 6452SOL    HW119746   5.552   5.828   0.946  1.4416 -0.8487  1.8241
 6452SOL    HW219747   5.500   5.969   0.928  0.5787 -1.4379 -0.8051
 6453SOL     OW19748   6.056   2.525   3.414 -0.4683  0.5322  0.0970
 6453SOL    HW119749   6.095   2.587   3.476  0.3954  0.4693 -0.3784
 6453SOL    HW219750   6.107   2.534   3.334  0.0457 -1.1863  0.1851
 6454SOL     OW19751   6.494   5.539   1.025 -0.2067  0.4432  0.8006
 6454SOL    HW119752   6.430   5.511   0.959 -0.7551  1.6022  0.8044
 6454SOL    HW219753   6.539   5.614   0.985  1.1561 -0.3442  0.8077
 6455SOL     OW19754   4.389   1.991   5.595  0.4281  0.4106  0.2465
 6455SOL    HW119755   4.413   2.043   5.519 -0.2504  0.4098  0.0212
 6455SOL    HW219756   4.294   1.979   5.586  0.4556 -0.1862  0.7144
 6456SOL     OW19757   5.629   4.238   0.811  0.4004  0.0407 -0.8376
 6456SOL    HW119758   5.583   4.184   0.875  0.3424  0.9184 -0.1255
 6456SOL    HW219759   5.691   4.289   0.863 -1.1094  2.3321 -1.1837
 6457SOL     OW19760   1.351   3.552   0.940 -0.0970  0.5559  0.0467
 6457SOL    HW119761   1.307   3.635   0.963  0.3430  0.8044 -0.0099
 6457SOL    HW219762   1.314   3.489   1.002 -0.3660  0.8116  0.1550
 6458SOL     OW19763   1.763   4.026   5.026  0.2335 -0.0250 -0.3368
 6458SOL    HW119764   1.801   3.945   5.059  1.3580  1.0057  0.9985
 6458SOL    HW219765   1.683   4.037   5.077  0.1079 -0.2375 -0.4811
 6459SOL     OW19766   3.953   2.084   5.155  0.3885 -0.1582 -0.1266
 6459SOL    HW119767   3.885   2.018   5.150 -0.4319  0.3788  2.4506
 6459SOL    HW219768   3.959   2.106   5.248  2.2454  1.7275 -0.5996
 6460SOL     OW19769   1.097   4.170   0.922 -0.0969 -0.3787 -0.4366
 6460SOL    HW119770   1.182   4.127   0.912  0.5197  0.0341  2.2681
 6460SOL    HW219771   1.041   4.105   0.964  0.4976  0.8610  2.5747
 6461SOL     OW19772   1.612   1.337   3.005 -0.0257  0.5648  0.1325
 6461SOL    HW119773   1.668   1.267   3.038  0.2394  0.8071  0.1963
 6461SOL    HW219774   1.672   1.395   2.957 -0.5986 -0.5846 -2.1166
 6462SOL     OW19775   6.232   1.721   1.732  0.2040  0.0940 -0.1658
 6462SOL    HW119776   6.167   1.773   1.779  0.0788 -0.7994  0.6831
 6462SOL    HW219777   6.299   1.785   1.707  1.2810  0.3906  2.9772
 6463SOL     OW19778   4.177   3.619   5.411 -0.3568  0.2711  0.1203
 6463SOL    HW119779   4.205   3.689   5.351  2.6531 -0.6992  0.2137
 6463SOL    HW219780   4.212   3.644   5.496  0.8391 -1.3130  0.1460
 6464SOL     OW19781   4.571   4.056   4.838 -0.3272  0.3607 -0.1075
 6464SOL    HW119782   4.652   4.004   4.834 -0.3030  0.2429  1.4841
 6464SOL    HW219783   4.520   4.026   4.763  0.2216 -1.0701  0.0529
 6465SOL     OW19784   3.735   2.795   3.445 -0.3106 -0.0364 -0.1099
 6465SOL    HW119785   3.824   2.822   3.423 -0.8363  0.9102 -1.1923
 6465SOL    HW219786   3.705   2.745   3.368 -0.8036 -0.1186  0.1325
 6466SOL     OW19787   5.212   6.724   0.440 -0.3110  0.1492  0.1441
 6466SOL    HW119788   5.218   6.630   0.459 -0.1575  0.4388  1.6115
 6466SOL    HW219789   5.266   6.736   0.362  0.0660 -0.9123  0.2301
 6467SOL     OW19790   3.510   6.393   3.839 -0.4854  0.1480  0.4346
 6467SOL    HW119791   3.429   6.416   3.794 -0.3515 -1.9647 -1.0237
 6467SOL    HW219792   3.482   6.334   3.909 -0.2290 -0.6799 -0.1458
 6468SOL     OW19793   3.111   4.143   4.100  0.3446  1.2314  0.4900
 6468SOL    HW119794   3.082   4.223   4.144 -0.5299  1.1826  0.0329
 6468SOL    HW219795   3.034   4.086   4.101  1.1370  0.1199  1.3932
 6469SOL     OW19796   6.168   5.780   1.804  0.4829  0.6224  0.3552
 6469SOL    HW119797   6.163   5.874   1.817 -2.3592  0.7596 -1.0116
 6469SOL    HW219798   6.167   5.768   1.709 -1.8541 -0.7625  0.4775
 6470SOL     OW19799   4.114   0.647   3.107  0.3276  0.2450 -0.1673
 6470SOL    HW119800   4.048   0.578   3.115  0.8531 -0.3259 -0.6932
 6470SOL    HW219801   4.106   0.677   3.017  0.5844  0.3869 -0.1437
 6471SOL     OW19802   6.736   4.851   1.762 -0.7735  0.1062  0.0222
 6471SOL    HW119803   6.657   4.838   1.814  0.0432  0.1462  1.3315
 6471SOL    HW219804   6.755   4.944   1.769 -0.3347  0.0099  0.1381
 6472SOL     OW19805   4.854   5.393   5.055  0.0661 -0.7004 -0.0308
 6472SOL    HW119806   4.918   5.338   5.099 -0.1291 -0.9021 -0.0018
 6472SOL    HW219807   4.794   5.332   5.013  0.4062 -0.5154 -0.8079
 6473SOL     OW19808   2.558   4.860   5.612  0.0737 -0.2102  0.4827
 6473SOL    HW119809   2.484   4.916   5.639 -0.6431  0.6431 -2.7200
 6473SOL    HW219810   2.582   4.894   5.526 -0.1888 -4.5872 -1.5944
 6474SOL     OW19811   5.541   5.209   4.403 -0.6391 -0.1034 -0.1276
 6474SOL    HW119812   5.462   5.161   4.376 -0.8471  0.7478 -1.0876
 6474SOL    HW219813   5.610   5.178   4.345 -0.1621 -1.0749  0.9140
 6475SOL     OW19814   2.966   1.428   4.844  0.2771 -0.2600  0.0831
 6475SOL    HW119815   2.930   1.512   4.813 -1.3327 -1.0920 -0.4051
 6475SOL    HW219816   2.962   1.434   4.940  2.2547  1.0487  0.1519
 6476SOL     OW19817   6.455   3.859   2.538 -0.0457  0.2047 -0.5621
 6476SOL    HW119818   6.514   3.933   2.523 -0.2856  0.2619 -1.2705
 6476SOL    HW219819   6.448   3.853   2.633  0.8580  0.3869 -0.4710
 6477SOL     OW19820   6.146   4.469   3.122  0.1531 -0.0412  0.2188
 6477SOL    HW119821   6.165   4.461   3.029 -0.1701 -0.7090  0.2071
 6477SOL    HW219822   6.225   4.510   3.159  0.0552  0.7602 -0.4298
 6478SOL     OW19823   2.992   2.434   4.527 -0.2468 -0.0207  0.1466
 6478SOL    HW119824   2.977   2.523   4.495 -2.0803  0.1350  1.3127
 6478SOL    HW219825   3.008   2.445   4.621  1.3473 -0.8013  0.0115
 6479SOL     OW19826   3.364   5.444   6.450 -0.2495  0.2572  0.1110
 6479SOL    HW119827   3.320   5.512   6.400  0.1731  1.1914  0.9636
 6479SOL    HW219828   3.434   5.489   6.496  0.4348 -0.8704  0.2238
 6480SOL     OW19829   1.913   3.988   4.791 -0.6950  0.2103  0.5917
 6480SOL    HW119830   1.858   4.002   4.868 -2.2083  1.5785 -0.6362
 6480SOL    HW219831   1.978   4.058   4.795 -0.6584  0.1662  0.7484
 6481SOL     OW19832   2.324   6.199   6.507 -0.5785 -0.0058 -0.8890
 6481SOL    HW119833   2.407   6.162   6.476  0.1749  0.9867 -0.1544
 6481SOL    HW219834   2.333   6.202   6.602 -1.5220  0.0079 -0.7887
 6482SOL     OW19835   1.589   3.435   3.434 -0.5412  0.2925 -0.0616
 6482SOL    HW119836   1.521   3.378   3.471 -0.5827 -0.9232 -1.9099
 6482SOL    HW219837   1.572   3.436   3.340  2.6577 -1.0193 -0.7796
 6483SOL     OW19838   1.876   5.013   5.943 -0.1716 -0.4736  0.3258
 6483SOL    HW119839   1.894   5.006   5.849 -2.6146  0.1261 -0.2321
 6483SOL    HW219840   1.912   5.098   5.968  0.1834 -0.4838 -0.1329
 6484SOL     OW19841   2.206   6.413   1.019 -0.2697 -0.0161 -0.1956
 6484SOL    HW119842   2.275   6.400   0.954 -0.3967  0.9372 -0.5317
 6484SOL    HW219843   2.184   6.324   1.048 -0.3750 -0.4893 -1.6371
 6485SOL     OW19844   0.335   3.020   6.153 -0.3200 -0.2394 -0.1795
 6485SOL    HW119845   0.376   2.934   6.158 -1.0112 -0.5459  0.4199
 6485SOL    HW219846   0.280   3.025   6.232 -0.5260  0.6243 -0.3647
 6486SOL     OW19847   6.350   4.444   0.167  0.5471  0.3122 -0.3782
 6486SOL    HW119848   6.363   4.501   0.091 -0.7725  0.5418 -0.4616
 6486SOL    HW219849   6.258   4.455   0.189  1.0940  0.9468  1.8293
 6487SOL     OW19850   0.917   4.357   4.893  0.0242 -0.8828 -0.8754
 6487SOL    HW119851   0.877   4.281   4.936 -1.9335  0.7472  0.3584
 6487SOL    HW219852   0.980   4.390   4.957 -0.3572 -0.4856 -0.7032
 6488SOL     OW19853   0.828   2.432   3.841  0.1137 -0.6731 -0.2368
 6488SOL    HW119854   0.900   2.470   3.891 -0.4174  0.1688 -0.0926
 6488SOL    HW219855   0.849   2.452   3.750  1.2154 -2.4328 -0.4244
 6489SOL     OW19856   1.300   1.230   5.212 -0.7558 -0.1502 -0.3421
 6489SOL    HW119857   1.287   1.257   5.122 -0.2584 -0.7075 -0.5842
 6489SOL    HW219858   1.268   1.140   5.216  0.6430 -0.6712 -0.3470
 6490SOL     OW19859   0.332   3.056   3.766 -0.2168 -0.2177  0.1676
 6490SOL    HW119860   0.365   3.016   3.846  2.4873 -2.5803 -1.9439
 6490SOL    HW219861   0.246   3.015   3.754 -0.4454 -0.2110  1.5686
 6491SOL     OW19862   5.018   5.091   0.583 -0.2955  0.3878 -0.5576
 6491SOL    HW119863   4.932   5.105   0.544  0.2537 -0.1304 -1.9775
 6491SOL    HW219864   5.063   5.030   0.525  0.1983 -1.2633  1.4147
 6492SOL     OW19865   4.704   4.914   0.198 -0.2147  0.4207 -0.2917
 6492SOL    HW119866   4.770   4.844   0.196 -2.0750 -1.4234 -0.6907
 6492SOL    HW219867   4.697   4.943   0.107 -0.5152  0.0331 -0.3961
 6493SOL     OW19868   2.786   1.297   5.401 -0.1988 -0.0087 -0.3605
 6493SOL    HW119869   2.718   1.285   5.468  0.4258  0.1692  0.3192
 6493SOL    HW219870   2.754   1.247   5.326 -1.8351  1.3204 -0.6144
 6494SOL     OW19871   6.528   3.761   4.681 -0.1652 -0.7391 -0.0831
 6494SOL    HW119872   6.539   3.852   4.706 -0.7269 -0.2123 -1.6623
 6494SOL    HW219873   6.433   3.746   4.682 -0.1269 -1.0587 -0.6537
 6495SOL     OW19874   1.749   6.831   3.937 -0.2095 -0.1255  0.0082
 6495SOL    HW119875   1.830   6.835   3.886  0.5102  2.6601  1.2123
 6495SOL    HW219876   1.705   6.914   3.918 -2.0728 -0.9475  0.5461
 6496SOL     OW19877   4.623   0.741   5.502 -0.4343  0.4894  0.2132
 6496SOL    HW119878   4.539   0.786   5.494  1.1429  3.4554 -1.7067
 6496SOL    HW219879   4.669   0.787   5.572 -0.8654 -2.1473  2.3868
 6497SOL     OW19880   0.581   1.834   3.309 -1.0671  0.1051  0.2240
 6497SOL    HW119881   0.531   1.880   3.376 -0.3397  1.1329  0.0850
 6497SOL    HW219882   0.601   1.749   3.348 -0.8314  0.6079  1.2318
 6498SOL     OW19883   0.521   6.206   6.604  0.2882  0.0644  0.3864
 6498SOL    HW119884   0.498   6.299   6.597  1.5179  0.4850  1.5368
 6498SOL    HW219885   0.591   6.193   6.540  0.8465  0.2075  0.9515
 6499SOL     OW19886   5.669   0.536   5.970  0.1461  0.1872 -0.4770
 6499SOL    HW119887   5.655   0.441   5.965  1.9949 -0.2315  1.1827
 6499SOL    HW219888   5.588   0.570   6.007  0.5737 -1.1878  1.9249
 6500SOL     OW19889   2.099   1.294   2.003 -0.0698  0.6805 -0.1073
 6500SOL    HW119890   2.161   1.350   2.049 -0.8970  0.5467  1.2015
 6500SOL    HW219891   2.154   1.229   1.959  0.8255  1.7937 -0.6922
 6501SOL     OW19892   0.444   4.648   2.895  0.0901 -0.2331 -0.4036
 6501SOL    HW119893   0.400   4.729   2.870  0.3564 -0.3625 -1.3514
 6501SOL    HW219894   0.445   4.595   2.815  1.3518 -0.5025 -0.2438
 6502SOL     OW19895   2.570   2.519   2.426 -0.1061  0.1021 -0.2121
 6502SOL    HW119896   2.520   2.537   2.346 -2.1551  0.6268  1.1321
 6502SOL    HW219897   2.581   2.424   2.426  0.5176  0.1543 -1.4350
 6503SOL     OW19898   3.692   6.216   5.596  0.3317  0.3602 -0.3205
 6503SOL    HW119899   3.737   6.234   5.678  0.9269  0.6911 -0.7193
 6503SOL    HW219900   3.757   6.171   5.541  0.1680  0.7904 -0.8757
 6504SOL     OW19901   0.115   2.152   6.134  0.5836 -0.3430 -0.2796
 6504SOL    HW119902   0.049   2.170   6.202  1.1116 -1.0601  0.4418
 6504SOL    HW219903   0.092   2.211   6.063  1.6647  2.5258  1.5704
 6505SOL     OW19904   1.869   5.499   6.027  0.5548 -0.0741 -0.6308
 6505SOL    HW119905   1.832   5.442   5.960 -0.7562  0.6902 -0.6032
 6505SOL    HW219906   1.802   5.566   6.040  0.9531  0.0240  1.1513
 6506SOL     OW19907   4.610   5.017   6.525  0.0950 -1.2403 -0.4065
 6506SOL    HW119908   4.580   5.096   6.480 -0.1200 -0.3805  1.1735
 6506SOL    HW219909   4.677   4.981   6.468  0.7116  0.4912 -0.8305
 6507SOL     OW19910   1.989   3.111   4.546 -0.1460 -0.1031 -0.1068
 6507SOL    HW119911   1.957   3.185   4.494  1.7282 -0.6149 -2.1313
 6507SOL    HW219912   1.916   3.090   4.604 -0.8677  3.1061  0.3682
 6508SOL     OW19913   1.637   6.747   1.989 -0.0528  0.8501  0.2389
 6508SOL    HW119914   1.715   6.798   2.012 -0.5820  1.9442 -0.3176
 6508SOL    HW219915   1.670   6.677   1.933  0.3450  2.3388 -1.4752
 6509SOL     OW19916   2.180   4.549   4.326  0.4003 -0.0999 -0.0824
 6509SOL    HW119917   2.164   4.472   4.271 -0.1793  0.3516 -0.5646
 6509SOL    HW219918   2.240   4.518   4.393 -0.3059 -1.1413  0.1054
 6510SOL     OW19919   2.356   6.432   1.559 -0.3587  0.3244  0.5794
 6510SOL    HW119920   2.265   6.431   1.530 -0.0066 -1.9879 -0.6962
 6510SOL    HW219921   2.368   6.348   1.604  1.0295  0.7573  1.0716
 6511SOL     OW19922   5.038   5.658   5.592 -0.1818 -0.3660 -0.1981
 6511SOL    HW119923   4.945   5.682   5.600 -0.6390 -1.4767 -1.6329
 6511SOL    HW219924   5.083   5.741   5.578 -0.9833  0.1592  0.2085
 6512SOL     OW19925   6.539   6.130   5.064  0.1227 -0.2279  0.5176
 6512SOL    HW119926   6.592   6.137   5.143 -1.3618 -2.6394  1.8344
 6512SOL    HW219927   6.545   6.038   5.039 -2.0875 -0.2235 -0.2347
 6513SOL     OW19928   3.493   2.345   5.568  0.5564 -0.0972  0.0612
 6513SOL    HW119929   3.527   2.382   5.486  0.8366 -1.6608 -0.5863
 6513SOL    HW219930   3.534   2.258   5.573 -0.9007 -0.7773  0.8922
 6514SOL     OW19931   1.255   0.742   4.651  0.1589  0.7865  0.3557
 6514SOL    HW119932   1.250   0.675   4.583  1.8306 -0.8686  1.7455
 6514SOL    HW219933   1.176   0.729   4.704 -2.1248  3.2746 -2.1397
 6515SOL     OW19934   3.589   3.045   6.174 -0.2153 -0.7290  0.0727
 6515SOL    HW119935   3.543   3.110   6.228 -0.1940 -0.0685 -0.6719
 6515SOL    HW219936   3.662   3.016   6.228  0.8327  1.2038 -0.2190
 6516SOL     OW19937   4.255   1.507   1.506  0.1031 -0.3543 -0.6383
 6516SOL    HW119938   4.216   1.548   1.429  2.2161  1.7545 -0.6995
 6516SOL    HW219939   4.345   1.487   1.479  1.5679  2.3040  1.7509
 6517SOL     OW19940   2.580   6.062   0.536  0.3713 -0.0933 -0.3080
 6517SOL    HW119941   2.625   6.142   0.560 -1.0649  0.9984 -1.0932
 6517SOL    HW219942   2.623   5.993   0.587  3.3747  0.7219 -1.5376
 6518SOL     OW19943   0.593   2.773   0.992 -0.3584 -0.2125 -0.5279
 6518SOL    HW119944   0.591   2.862   1.026  0.7535 -1.0577  1.9944
 6518SOL    HW219945   0.686   2.750   0.990 -0.6308 -1.3066 -1.1179
 6519SOL     OW19946   4.980   0.084   6.755 -0.2745  0.4679  0.8316
 6519SOL    HW119947   5.064   0.129   6.765  0.1711 -0.3242  0.6956
 6519SOL    HW219948   4.963   0.045   6.840  0.4229 -0.9449  0.3484
 6520SOL     OW19949   3.580   4.681   4.112 -0.2224 -0.0074  0.2487
 6520SOL    HW119950   3.635   4.686   4.034 -1.6067  1.0079 -0.7315
 6520SOL    HW219951   3.538   4.595   4.107  0.3873 -0.3139  0.3722
 6521SOL     OW19952   4.115   6.107   0.177 -0.2103 -0.6786  0.4735
 6521SOL    HW119953   4.105   6.201   0.163 -1.8552 -0.7493  0.8809
 6521SOL    HW219954   4.172   6.100   0.253 -1.9647  0.1024  1.9424
 6522SOL     OW19955   4.529   0.058   0.321 -0.1249  0.8554 -0.1275
 6522SOL    HW119956   4.596   0.124   0.339  1.5422 -0.6980 -0.3428
 6522SOL    HW219957   4.548   0.027   0.233  0.1000 -0.9629  0.5200
 6523SOL     OW19958   1.277   0.426   5.848  0.1236 -0.6199  0.0391
 6523SOL    HW119959   1.210   0.461   5.789  1.4456  0.4951 -0.8579
 6523SOL    HW219960   1.234   0.353   5.891 -1.5462 -0.1968 -0.8032
 6524SOL     OW19961   1.792   2.388   6.277  0.6241 -0.3017  0.0503
 6524SOL    HW119962   1.699   2.412   6.266  0.8532  0.7328  0.2333
 6524SOL    HW219963   1.807   2.393   6.371  0.8591 -0.4807  0.0208
 6525SOL     OW19964   4.597   6.290   2.687 -0.6451 -0.2538 -0.0242
 6525SOL    HW119965   4.566   6.353   2.622  0.3037 -0.2415 -0.4712
 6525SOL    HW219966   4.687   6.271   2.662 -0.3365 -0.4365  1.1444
 6526SOL     OW19967   0.559   3.689   3.753 -0.1164  0.7398  0.0709
 6526SOL    HW119968   0.468   3.661   3.762 -0.9082  2.5666 -1.4797
 6526SOL    HW219969   0.565   3.769   3.804  0.4821  0.8988 -0.2342
 6527SOL     OW19970   1.488   1.592   1.340  0.2886 -0.1099  0.2109
 6527SOL    HW119971   1.493   1.508   1.385 -1.1754 -0.4559 -0.2162
 6527SOL    HW219972   1.453   1.571   1.253 -3.1447  1.1656  1.0897
 6528SOL     OW19973   0.234   0.993   5.316 -0.2594  0.1584  0.2952
 6528SOL    HW119974   0.160   1.049   5.292  0.8991  1.9740  0.7517
 6528SOL    HW219975   0.311   1.049   5.304  1.0524 -1.6153 -0.0094
 6529SOL     OW19976   3.597   1.337   4.276  0.2274 -0.0613 -0.2304
 6529SOL    HW119977   3.573   1.283   4.201  1.2289 -2.2418  0.9238
 6529SOL    HW219978   3.576   1.283   4.352 -0.4718  1.9679  1.0906
 6530SOL     OW19979   4.082   3.335   4.299 -0.6931 -0.1119 -0.2059
 6530SOL    HW119980   4.178   3.341   4.293 -0.6409 -0.7037 -0.0220
 6530SOL    HW219981   4.051   3.418   4.265 -0.0488  0.8858  1.5126
 6531SOL     OW19982   5.507   2.523   3.535 -0.1267 -0.2182 -0.5113
 6531SOL    HW119983   5.597   2.555   3.524 -0.6994  1.5956 -0.2170
 6531SOL    HW219984   5.494   2.463   3.462  1.3670 -0.6457 -0.4707
 6532SOL     OW19985   3.874   0.961   3.407 -0.3749  0.3419 -0.4147
 6532SOL    HW119986   3.967   0.975   3.393 -0.0242  1.1026  2.1306
 6532SOL    HW219987   3.854   0.880   3.361  1.6391 -0.0701 -0.6366
 6533SOL     OW19988   3.729   0.375   3.296  0.5448  0.3960  0.1006
 6533SOL    HW119989   3.728   0.304   3.360 -0.5494 -1.1224 -1.5029
 6533SOL    HW219990   3.641   0.413   3.301 -0.0889 -0.7166 -1.4283
 6534SOL     OW19991   1.106   1.521   3.364  0.3229  0.2096 -0.6942
 6534SOL    HW119992   1.065   1.542   3.280  1.1983  1.1522 -0.9042
 6534SOL    HW219993   1.078   1.590   3.423 -0.3220 -0.4737 -0.1769
 6535SOL     OW19994   2.797   5.000   1.014  0.3246  0.2594 -0.4649
 6535SOL    HW119995   2.733   5.045   0.959  0.9663  0.2943 -1.1961
 6535SOL    HW219996   2.849   5.070   1.054 -0.1765  0.2376  0.2564
 6536SOL     OW19997   6.511   2.932   1.151 -0.1744  0.1067 -0.0440
 6536SOL    HW119998   6.542   2.971   1.233 -1.3680 -0.2466  0.6018
 6536SOL    HW219999   6.459   2.857   1.178 -1.4786  0.5972 -1.0615
 6537SOL     OW20000   5.244   3.439   4.548  0.0022 -0.2360 -0.4531
 6537SOL    HW120001   5.173   3.491   4.586 -0.0226 -0.9798  0.5687
 6537SOL    HW220002   5.201   3.358   4.520  0.4167 -0.6315  0.0416
 6538SOL     OW20003   3.085   6.601   1.287 -0.3613  0.2488 -0.1908
 6538SOL    HW120004   3.026   6.604   1.212  0.1807 -1.6447 -0.7432
 6538SOL    HW220005   3.170   6.627   1.251 -0.5825  1.9183  0.3783
 6539SOL     OW20006   0.385   0.129   3.385  0.2434  0.0088 -0.1597
 6539SOL    HW120007   0.354   0.051   3.432 -1.5280 -0.4414 -1.9440
 6539SOL    HW220008   0.457   0.162   3.439  0.7351 -2.5728  0.9152
 6540SOL     OW20009   4.124   3.077   2.549  0.6282 -0.6654 -0.7242
 6540SOL    HW120010   4.050   3.062   2.608  1.0331 -2.4226 -0.6191
 6540SOL    HW220011   4.155   3.164   2.572 -0.8837 -0.2217 -0.2096
 6541SOL     OW20012   2.689   5.729   1.246 -0.5918  0.0214 -0.4984
 6541SOL    HW120013   2.740   5.766   1.318 -1.7828  0.1896  0.2838
 6541SOL    HW220014   2.741   5.749   1.168  0.4951  0.2449  0.2557
 6542SOL     OW20015   0.911   3.978   1.035 -0.6480  0.2719 -0.2862
 6542SOL    HW120016   0.857   3.907   1.001 -1.6821 -0.1500  2.0539
 6542SOL    HW220017   0.857   4.056   1.023  1.0715  1.0713 -4.2352
 6543SOL     OW20018   0.073   5.095   4.500 -0.1036  0.0754  0.2177
 6543SOL    HW120019   0.092   5.045   4.420 -2.9057 -0.5138 -0.1765
 6543SOL    HW220020   0.074   5.187   4.471  1.3268  0.0528  0.1079
 6544SOL     OW20021   4.812   1.888   1.692 -0.0029 -0.1775 -0.0544
 6544SOL    HW120022   4.887   1.865   1.747 -0.0108 -0.5710 -0.2009
 6544SOL    HW220023   4.761   1.949   1.745 -0.4080 -1.1265  0.6884
 6545SOL     OW20024   2.949   2.699   3.501 -0.6486  0.4309  0.0783
 6545SOL    HW120025   2.980   2.668   3.416 -3.0275 -1.9338 -0.0555
 6545SOL    HW220026   2.854   2.707   3.490 -0.8867  1.0486  2.2410
 6546SOL     OW20027   2.010   4.703   3.811  0.4576  0.3539 -0.6828
 6546SOL    HW120028   2.056   4.717   3.728 -0.0958  0.6491 -0.9449
 6546SOL    HW220029   1.940   4.641   3.789  0.7174 -0.0856 -0.2901
 6547SOL     OW20030   4.021   6.823   6.743 -0.2172 -0.6154 -0.1061
 6547SOL    HW120031   4.030   6.810   6.838 -0.9148 -1.9709 -0.2005
 6547SOL    HW220032   3.929   6.847   6.731  0.2875  1.3719 -0.2881
 6548SOL     OW20033   4.673   0.693   4.663 -0.6114  0.0130 -0.0441
 6548SOL    HW120034   4.679   0.738   4.747 -0.8114 -0.0008 -0.0197
 6548SOL    HW220035   4.695   0.602   4.682 -0.3765  0.0674 -0.0604
 6549SOL     OW20036   0.632   4.786   4.414  0.0496  0.7809  0.0540
 6549SOL    HW120037   0.557   4.787   4.355 -0.9765 -0.0516  1.2769
 6549SOL    HW220038   0.645   4.694   4.436  1.1444  0.9604  0.2374
 6550SOL     OW20039   2.240   2.976   2.735  0.3228 -0.0338 -0.1216
 6550SOL    HW120040   2.204   2.947   2.818 -1.6947  0.7112 -0.6900
 6550SOL    HW220041   2.273   2.895   2.694 -0.8836 -0.7885  0.3544
 6551SOL     OW20042   4.047   0.761   1.594  0.2362  0.4458 -0.3043
 6551SOL    HW120043   4.065   0.838   1.539  0.2921  1.9133  1.6403
 6551SOL    HW220044   3.964   0.781   1.636 -1.3674 -2.0255 -2.0761
 6552SOL     OW20045   5.188   0.145   0.527  0.0017 -0.2275  0.4115
 6552SOL    HW120046   5.258   0.168   0.589  1.9220 -0.3967 -1.5596
 6552SOL    HW220047   5.198   0.051   0.513 -1.7105 -0.5742  1.2917
 6553SOL     OW20048   4.735   1.698   3.681  0.1388 -0.4287  0.3131
 6553SOL    HW120049   4.654   1.649   3.670 -1.9741  2.2317  2.4951
 6553SOL    HW220050   4.758   1.727   3.593 -0.4901 -2.3365 -0.5189
 6554SOL     OW20051   5.377   5.869   5.554 -0.2607 -0.5153 -0.5647
 6554SOL    HW120052   5.432   5.944   5.533 -0.3979 -0.3591 -0.3700
 6554SOL    HW220053   5.296   5.907   5.589 -0.4797 -0.7416 -0.8096
 6555SOL     OW20054   1.449   3.541   4.288  0.7690  0.4220 -0.3340
 6555SOL    HW120055   1.472   3.540   4.381  0.8416 -3.8596 -0.2194
 6555SOL    HW220056   1.513   3.483   4.247 -3.0862 -3.3795 -1.7808
 6556SOL     OW20057   6.429   0.841   3.725  0.3577 -0.1109 -0.2588
 6556SOL    HW120058   6.390   0.897   3.658  1.9619 -0.0752 -1.2133
 6556SOL    HW220059   6.456   0.901   3.794  1.3586  0.2242 -0.9253
 6557SOL     OW20060   0.861   0.786   1.602  0.0923  0.1735  0.3478
 6557SOL    HW120061   0.770   0.792   1.634  0.3583 -2.4109  1.9158
 6557SOL    HW220062   0.853   0.789   1.507 -1.2503  3.2416  0.4330
 6558SOL     OW20063   1.840   0.405   4.157  0.9221  0.4823 -0.0303
 6558SOL    HW120064   1.781   0.355   4.213 -2.2212  0.4265 -3.0481
 6558SOL    HW220065   1.888   0.339   4.107 -1.9770  0.2511 -2.7788
 6559SOL     OW20066   2.639   4.340   2.674 -0.0488  0.0725  0.4418
 6559SOL    HW120067   2.596   4.270   2.624 -0.8593  0.6791  0.2670
 6559SOL    HW220068   2.569   4.377   2.728  0.6736 -0.1522  1.5685
 6560SOL     OW20069   4.266   1.676   5.439 -0.0218 -0.3787  0.3547
 6560SOL    HW120070   4.218   1.618   5.498 -0.4304  0.0038  0.4089
 6560SOL    HW220071   4.324   1.618   5.389 -2.7675 -1.3662 -1.9710
 6561SOL     OW20072   2.692   2.974   1.961 -0.0843  0.1951  0.1795
 6561SOL    HW120073   2.727   2.887   1.943  0.7160  0.2955  1.1394
 6561SOL    HW220074   2.748   3.008   2.031 -1.0111  1.0815  0.5197
 6562SOL     OW20075   0.005   3.757   6.775 -0.1268 -0.7578  0.0866
 6562SOL    HW120076   0.083   3.760   6.720  0.6085 -0.2366  1.1254
 6562SOL    HW220077   0.034   3.789   6.861 -1.5502 -0.2036  0.4053
 6563SOL     OW20078   4.647   1.609   0.531 -0.0795 -0.4173  0.0470
 6563SOL    HW120079   4.700   1.664   0.589 -1.8914 -1.6169  3.0639
 6563SOL    HW220080   4.707   1.541   0.501  0.8688  0.0914  0.7188
 6564SOL     OW20081   2.184   0.190   4.507 -0.1697  1.0543 -0.0795
 6564SOL    HW120082   2.248   0.224   4.569 -1.1122  0.4310  1.2986
 6564SOL    HW220083   2.174   0.098   4.532  1.3499 -0.0171 -2.8489
 6565SOL     OW20084   1.372   3.347   5.475 -0.2239  0.2805 -1.0192
 6565SOL    HW120085   1.413   3.297   5.404 -1.9884 -0.6785 -1.4287
 6565SOL    HW220086   1.428   3.330   5.551  0.7944  0.0044 -1.8017
 6566SOL     OW20087   3.879   6.665   4.913  0.3190  0.4726  0.0812
 6566SOL    HW120088   3.810   6.644   4.850 -0.0888  1.2631  0.2547
 6566SOL    HW220089   3.846   6.741   4.961  1.2343  0.7537  0.2888
 6567SOL     OW20090   3.765   1.211   5.993  0.1885 -0.1592  0.6445
 6567SOL    HW120091   3.840   1.155   6.012  0.9890  0.5996 -0.1736
 6567SOL    HW220092   3.797   1.274   5.928 -1.8343 -1.4676 -1.8557
 6568SOL     OW20093   4.707   1.124   2.927 -0.0983  0.2956  0.2635
 6568SOL    HW120094   4.729   1.130   2.834 -0.9500 -0.1942  0.0250
 6568SOL    HW220095   4.670   1.210   2.948 -0.8786  0.0491 -0.1083
 6569SOL     OW20096   1.502   1.569   5.664  0.1892  0.4690  0.0229
 6569SOL    HW120097   1.566   1.503   5.687  0.5138  0.2598 -1.3736
 6569SOL    HW220098   1.447   1.528   5.597 -1.7981  0.4387  1.5711
 6570SOL     OW20099   2.534   4.085   3.899 -0.1313  0.1451 -0.1499
 6570SOL    HW120100   2.558   4.031   3.824  1.1545  0.7783 -0.2175
 6570SOL    HW220101   2.514   4.170   3.861  0.3296  0.4122  0.2071
 6571SOL     OW20102   4.147   2.066   1.577 -0.1597 -0.0169 -0.7545
 6571SOL    HW120103   4.117   1.988   1.531  0.3823  0.8654 -2.7184
 6571SOL    HW220104   4.188   2.033   1.657 -1.0555 -1.6309 -0.9194
 6572SOL     OW20105   2.852   6.721   5.781  0.1826  0.3696 -0.1175
 6572SOL    HW120106   2.867   6.815   5.776  3.0593 -0.0562 -1.3569
 6572SOL    HW220107   2.917   6.683   5.722 -1.4018 -2.3854 -0.2625
 6573SOL     OW20108   3.918   4.233   5.239  0.1373  0.0953 -0.3130
 6573SOL    HW120109   3.983   4.294   5.204 -0.1657 -0.1781 -1.4024
 6573SOL    HW220110   3.967   4.152   5.254 -0.1073 -0.4360 -2.1103
 6574SOL     OW20111   1.653   3.477   2.142  0.3230  0.0377  0.1781
 6574SOL    HW120112   1.576   3.467   2.199  0.1969  0.2615  0.0475
 6574SOL    HW220113   1.616   3.481   2.054  0.5927 -1.7344 -0.0631
 6575SOL     OW20114   6.489   4.747   4.182  0.3786 -0.3377  0.5650
 6575SOL    HW120115   6.460   4.659   4.161 -1.0903 -0.1410  1.5862
 6575SOL    HW220116   6.456   4.801   4.109  0.9957 -0.5773  0.1053
 6576SOL     OW20117   5.594   0.315   0.910  0.2771  0.0774  0.6744
 6576SOL    HW120118   5.612   0.316   1.004  3.0215  0.1767  0.2467
 6576SOL    HW220119   5.632   0.233   0.879  1.6001  1.1092 -0.6267
 6577SOL     OW20120   0.791   3.526   2.223  0.1868 -0.2734  0.5455
 6577SOL    HW120121   0.835   3.530   2.307 -1.4578  0.4070  1.4185
 6577SOL    HW220122   0.717   3.467   2.238 -0.7108  0.6471 -0.1141
 6578SOL     OW20123   6.807   2.007   5.899 -0.1317  0.3035 -0.0594
 6578SOL    HW120124   6.882   2.050   5.858 -0.4239  0.5749 -0.3108
 6578SOL    HW220125   6.733   2.029   5.843 -0.3167 -0.3866 -0.0937
 6579SOL     OW20126   2.637   5.624   4.234  0.6517 -0.1130  0.3154
 6579SOL    HW120127   2.626   5.658   4.323  0.8118  1.2023 -0.1413
 6579SOL    HW220128   2.716   5.666   4.202 -0.2437  0.6562 -0.9881
 6580SOL     OW20129   2.758   1.261   5.815  0.2415  0.9372 -0.4041
 6580SOL    HW120130   2.738   1.203   5.742 -0.4699  0.9888 -0.2607
 6580SOL    HW220131   2.743   1.208   5.893  1.4746  0.7324 -0.2901
 6581SOL     OW20132   0.633   0.738   0.807 -0.1779  0.1074 -0.7302
 6581SOL    HW120133   0.588   0.659   0.776  0.1413 -0.1651 -0.5041
 6581SOL    HW220134   0.604   0.807   0.747 -3.0434  0.5612  1.0144
 6582SOL     OW20135   4.332   5.236   2.001 -0.3806  0.6637  0.4429
 6582SOL    HW120136   4.285   5.215   1.920  2.2599 -1.7730 -0.6404
 6582SOL    HW220137   4.302   5.170   2.063  0.1963  0.2702  0.3127
 6583SOL     OW20138   4.323   0.798   3.643 -0.3062  0.8116  0.2706
 6583SOL    HW120139   4.355   0.785   3.554  0.0049  0.0073  0.4897
 6583SOL    HW220140   4.228   0.807   3.633 -0.3853 -0.2775 -0.0581
 6584SOL     OW20141   4.842   3.446   0.286 -0.6462 -0.1331 -0.2016
 6584SOL    HW120142   4.834   3.379   0.219  0.5695  1.2836 -1.8365
 6584SOL    HW220143   4.929   3.484   0.272  0.5068 -1.0201  3.4061
 6585SOL     OW20144   5.297   0.006   3.547 -0.4910  0.1034 -0.0780
 6585SOL    HW120145   5.288   0.010   3.452 -0.3996  0.8843 -0.0591
 6585SOL    HW220146   5.307  -0.088   3.567 -0.8970 -0.0927 -0.7953
 6586SOL     OW20147   0.766   2.935   4.955 -0.3540 -0.5900 -0.6300
 6586SOL    HW120148   0.829   2.931   5.027 -0.0219  1.3980 -0.7556
 6586SOL    HW220149   0.681   2.949   4.997 -0.0828  1.1858 -0.5817
 6587SOL     OW20150   3.723   2.368   5.368 -0.0730 -0.3270 -0.3434
 6587SOL    HW120151   3.684   2.313   5.300 -1.6846 -0.7142  0.8142
 6587SOL    HW220152   3.805   2.324   5.391 -0.7240 -1.5743 -0.3222
 6588SOL     OW20153   5.332   4.972   0.552 -0.0668 -0.6209 -0.1804
 6588SOL    HW120154   5.290   4.972   0.638  0.0791 -1.0127 -0.1071
 6588SOL    HW220155   5.320   5.061   0.520  0.7426 -0.1968  0.6590
 6589SOL     OW20156   0.147   4.233   0.866 -0.2462 -0.2895  0.4314
 6589SOL    HW120157   0.225   4.246   0.920 -0.7269  2.0596  0.6634
 6589SOL    HW220158   0.075   4.231   0.928 -0.5180 -0.8156  0.1015
 6590SOL     OW20159   4.737   3.887   2.344  0.3336 -0.4108 -0.5254
 6590SOL    HW120160   4.803   3.863   2.280  0.5743 -0.6884 -0.1758
 6590SOL    HW220161   4.781   3.879   2.428 -0.1122 -0.4829 -0.2981
 6591SOL     OW20162   2.143   5.923   4.595  0.1932  0.4022  0.2918
 6591SOL    HW120163   2.174   6.008   4.625  1.4136 -0.0426  0.3594
 6591SOL    HW220164   2.201   5.900   4.523 -1.4616  0.5624 -1.1569
 6592SOL     OW20165   0.051   1.894   5.407  0.4327  0.2479 -0.3335
 6592SOL    HW120166   0.090   1.980   5.393  0.3402 -0.0383 -2.8055
 6592SOL    HW220167   0.124   1.833   5.398  0.1386 -0.0451 -0.7609
 6593SOL     OW20168   4.544   3.662   1.422  0.2163 -0.2977  0.6272
 6593SOL    HW120169   4.581   3.586   1.376 -0.0250  0.7553 -1.4253
 6593SOL    HW220170   4.455   3.636   1.444 -0.2162 -0.2974 -0.9910
 6594SOL     OW20171   0.664   2.954   2.234  0.0628  0.0407 -0.2812
 6594SOL    HW120172   0.729   2.914   2.292  0.4432 -0.5245 -1.0725
 6594SOL    HW220173   0.715   3.012   2.177 -0.1602 -0.1990 -0.7310
 6595SOL     OW20174   6.173   2.105   2.302 -0.3272 -0.6888  0.0759
 6595SOL    HW120175   6.192   2.011   2.302 -1.3608 -0.9237 -0.6156
 6595SOL    HW220176   6.219   2.139   2.226 -1.2680 -0.9587 -0.6420
 6596SOL     OW20177   4.861   6.817   2.653  0.0064  0.4178 -0.1951
 6596SOL    HW120178   4.908   6.813   2.737 -1.8630  0.5505  0.9236
 6596SOL    HW220179   4.862   6.727   2.621  0.3068  0.2679  0.2260
 6597SOL     OW20180   5.818   4.821   5.830 -0.3243 -0.1259  0.6687
 6597SOL    HW120181   5.782   4.734   5.813  0.7860 -0.7580  1.4463
 6597SOL    HW220182   5.904   4.805   5.869  0.5474  1.3314 -0.5227
 6598SOL     OW20183   5.798   5.076   4.643  0.2236 -0.6315 -0.2218
 6598SOL    HW120184   5.751   5.033   4.714 -2.1914  0.9623 -0.7071
 6598SOL    HW220185   5.809   5.167   4.672  1.1719 -0.4773 -0.9948
 6599SOL     OW20186   6.658   6.214   6.556 -0.1522  0.4960 -0.3583
 6599SOL    HW120187   6.593   6.279   6.583  1.0513  1.3987  0.4552
 6599SOL    HW220188   6.731   6.265   6.522  0.4724 -0.4671 -0.5119
 6600SOL     OW20189   1.396   0.650   0.870  0.1729  0.6748 -0.8492
 6600SOL    HW120190   1.485   0.647   0.904 -0.1085 -0.8951 -0.1152
 6600SOL    HW220191   1.341   0.636   0.947 -0.5706 -1.1211 -1.6516
 6601SOL     OW20192   5.133   5.939   4.788  0.0652 -0.5059 -0.2170
 6601SOL    HW120193   5.044   5.907   4.802 -0.0842  0.0456  0.1524
 6601SOL    HW220194   5.168   5.951   4.877 -0.4959  1.9937 -0.2652
 6602SOL     OW20195   6.833   4.742   0.985  0.0178 -0.5734  0.3791
 6602SOL    HW120196   6.883   4.728   0.904  0.0793  0.8837  0.1422
 6602SOL    HW220197   6.895   4.721   1.055  0.5431 -0.0831  0.0702
 6603SOL     OW20198   5.757   0.390   6.719 -0.4186 -0.2388 -0.0621
 6603SOL    HW120199   5.686   0.452   6.738 -0.9632 -0.7717 -0.3238
 6603SOL    HW220200   5.798   0.425   6.639 -0.6420 -0.1472 -0.1379
 6604SOL     OW20201   1.739   5.763   4.418  0.3482  0.1537  0.1934
 6604SOL    HW120202   1.778   5.704   4.353 -2.6996 -2.5495  0.5370
 6604SOL    HW220203   1.809   5.780   4.480  2.3680 -0.0959 -1.8735
 6605SOL     OW20204   3.691   5.789   0.727 -0.0812  0.1261  0.5079
 6605SOL    HW120205   3.748   5.757   0.657  0.2826  0.4822  0.6393
 6605SOL    HW220206   3.604   5.759   0.702  0.1776 -0.5514  0.3764
 6606SOL     OW20207   0.313   0.273   0.511  0.1076 -0.1519 -0.2902
 6606SOL    HW120208   0.221   0.270   0.536 -0.1492  0.1847 -1.1839
 6606SOL    HW220209   0.315   0.242   0.421  0.3583  3.1952 -1.5801
 6607SOL     OW20210   0.398   2.858   2.250  0.0359  0.1113  0.1287
 6607SOL    HW120211   0.482   2.903   2.249 -0.1508  0.5166  1.1305
 6607SOL    HW220212   0.355   2.890   2.330 -0.4439 -1.2131  0.4237
 6608SOL     OW20213   3.804   3.168   2.936 -0.1430  0.4909 -0.2304
 6608SOL    HW120214   3.787   3.103   3.004  0.8674  1.1926  0.7213
 6608SOL    HW220215   3.719   3.179   2.892 -0.6455 -0.4875  0.4528
 6609SOL     OW20216   4.772   6.560   5.467 -0.4610  0.0552 -0.0298
 6609SOL    HW120217   4.854   6.560   5.516  0.5049  2.3392 -1.5040
 6609SOL    HW220218   4.713   6.615   5.519 -0.9365 -1.1491  0.7540
 6610SOL     OW20219   4.089   5.625   3.248  0.5060  0.1250  0.4251
 6610SOL    HW120220   4.086   5.719   3.265 -1.3326  0.3990 -1.1002
 6610SOL    HW220221   4.142   5.615   3.169 -1.0443  0.1475 -0.6627
 6611SOL     OW20222   4.449   4.432   0.465 -0.1625  0.4339 -0.3729
 6611SOL    HW120223   4.502   4.462   0.391  2.0786  0.6195  1.1880
 6611SOL    HW220224   4.468   4.338   0.471 -0.0331  0.4912  0.1771
 6612SOL     OW20225   1.836   0.010   3.261 -0.2673  0.1340 -0.4027
 6612SOL    HW120226   1.918  -0.023   3.298  0.1685 -0.0761 -1.5196
 6612SOL    HW220227   1.779   0.022   3.337 -0.4051 -3.0532  0.1595
 6613SOL     OW20228   5.078   0.798   4.386  0.5570 -0.9083  0.2669
 6613SOL    HW120229   5.171   0.808   4.404  0.3222  0.4486  0.8568
 6613SOL    HW220230   5.069   0.816   4.292  0.9204 -1.4274  0.1271
 6614SOL     OW20231   6.321   1.827   3.069 -0.0024  0.3363 -0.2587
 6614SOL    HW120232   6.303   1.733   3.076  1.0798 -0.0000 -1.5961
 6614SOL    HW220233   6.234   1.868   3.069 -0.5653 -0.8085 -1.4498
 6615SOL     OW20234   5.441   1.378   0.080  0.2231 -0.3607  0.1764
 6615SOL    HW120235   5.425   1.409  -0.010  1.2790  0.1856  0.1551
 6615SOL    HW220236   5.470   1.288   0.070  1.6013  0.0863 -0.1743
 6616SOL     OW20237   0.857   2.829   6.586 -0.2197 -0.0591  0.0729
 6616SOL    HW120238   0.828   2.919   6.601  1.4411  0.6376 -0.6491
 6616SOL    HW220239   0.910   2.807   6.662  0.8352  0.2381 -0.5560
 6617SOL     OW20240   6.130   0.238   0.713  0.2711 -0.7944 -0.0228
 6617SOL    HW120241   6.076   0.237   0.634 -1.0741 -1.0161  0.8806
 6617SOL    HW220242   6.210   0.192   0.687 -0.6257 -1.8858 -0.9336
 6618SOL     OW20243   0.508   1.983   1.189  0.0576  0.3520 -0.3056
 6618SOL    HW120244   0.594   1.943   1.177 -0.7279 -1.0324 -1.6504
 6618SOL    HW220245   0.476   1.999   1.100 -1.2087  0.5398  0.1600
 6619SOL     OW20246   5.950   3.679   1.565 -0.0101 -0.2751  0.6707
 6619SOL    HW120247   5.981   3.718   1.647  0.7515  0.5548  0.0076
 6619SOL    HW220248   6.022   3.693   1.503 -2.0919  2.7860 -1.2654
 6620SOL     OW20249   2.539   1.238   0.066  0.3525 -0.0396  0.4088
 6620SOL    HW120250   2.603   1.187   0.115 -0.1685 -2.2542 -1.0559
 6620SOL    HW220251   2.467   1.177   0.050 -0.3062  1.1381 -1.4593
 6621SOL     OW20252   0.391   2.421   1.219 -0.2786  0.3212  0.6224
 6621SOL    HW120253   0.426   2.398   1.132 -1.1281 -0.6512  0.5159
 6621SOL    HW220254   0.365   2.513   1.210  0.3060  0.4454  0.0752
 6622SOL     OW20255   2.349   6.469   2.256  0.4762  0.0354 -0.8391
 6622SOL    HW120256   2.290   6.430   2.191  0.4732 -1.9800  0.2797
 6622SOL    HW220257   2.365   6.398   2.318  0.8534  1.7547  1.1131
 6623SOL     OW20258   3.611   4.822   2.608 -0.2842  0.1243 -0.0556
 6623SOL    HW120259   3.659   4.905   2.614 -0.3917  0.1650  0.2920
 6623SOL    HW220260   3.548   4.836   2.537 -1.1750  0.8111  0.8276
 6624SOL     OW20261   5.166   2.082   1.202  0.2798 -0.0281  0.6298
 6624SOL    HW120262   5.091   2.024   1.212 -0.7634  1.3579  0.9985
 6624SOL    HW220263   5.195   2.101   1.291 -0.7358  1.7065  0.6276
 6625SOL     OW20264   3.656   3.534   4.208 -0.2636 -0.5010 -0.1043
 6625SOL    HW120265   3.662   3.447   4.246 -1.2348  0.2060  1.7681
 6625SOL    HW220266   3.562   3.549   4.196 -0.1467  0.5049  0.1373
 6626SOL     OW20267   6.318   3.220   2.364  0.8403 -0.2047 -0.4621
 6626SOL    HW120268   6.305   3.240   2.457  0.8276 -1.2547 -0.2238
 6626SOL    HW220269   6.372   3.292   2.331  1.4341 -0.1867  0.5231
 6627SOL     OW20270   4.711   6.697   1.634  0.4183 -0.7527 -0.2274
 6627SOL    HW120271   4.631   6.748   1.647  1.3796  0.8061 -0.1920
 6627SOL    HW220272   4.689   6.609   1.663 -0.9566 -0.0844  0.8157
 6628SOL     OW20273   3.911   4.380   5.693 -0.1443  0.0560 -0.0231
 6628SOL    HW120274   3.835   4.351   5.642 -0.2009  0.5787 -0.2396
 6628SOL    HW220275   3.899   4.338   5.778 -0.9951  0.6015  0.1383
 6629SOL     OW20276   1.722   2.032   3.421  0.3910  0.7015  0.4263
 6629SOL    HW120277   1.808   2.051   3.383  0.6851  0.7778  1.1153
 6629SOL    HW220278   1.674   2.115   3.415 -0.0493  0.3717 -0.9889
 6630SOL     OW20279   2.613   2.433   5.227  0.0762  0.3960 -0.0090
 6630SOL    HW120280   2.568   2.431   5.143  0.9731  1.0841 -0.5327
 6630SOL    HW220281   2.598   2.522   5.261  0.9784  0.6186 -0.1703
 6631SOL     OW20282   5.628   4.638   1.870  0.2695  0.0922  0.1294
 6631SOL    HW120283   5.720   4.615   1.857 -0.3209 -2.2306 -0.3182
 6631SOL    HW220284   5.630   4.715   1.927  2.5031  0.7835 -0.8073
 6632SOL     OW20285   4.471   3.609   3.372 -0.1247 -0.0623 -0.2889
 6632SOL    HW120286   4.472   3.658   3.454  2.1754 -0.8875  0.2525
 6632SOL    HW220287   4.560   3.617   3.338 -0.6955 -0.7678 -2.0922
 6633SOL     OW20288   6.099   0.019   0.119  0.1087 -0.3703  0.2379
 6633SOL    HW120289   6.119   0.101   0.163  0.7573 -0.9257  1.0194
 6633SOL    HW220290   6.004   0.021   0.105 -0.0759 -0.0427  1.4048
 6634SOL     OW20291   6.330   5.031   1.280  0.7832 -0.3242  0.6565
 6634SOL    HW120292   6.335   5.084   1.200  1.3127  0.2163  1.0416
 6634SOL    HW220293   6.254   5.064   1.326  2.6253  2.0585  2.2335
 6635SOL     OW20294   6.352   1.044   1.593 -0.1990  0.3371  0.4999
 6635SOL    HW120295   6.388   1.057   1.681  1.6383 -1.2548  0.0528
 6635SOL    HW220296   6.408   0.978   1.554 -1.0888  0.8653 -1.8294
 6636SOL     OW20297   2.451   1.103   4.584  0.2522  0.2092  0.1467
 6636SOL    HW120298   2.388   1.162   4.543 -0.5913  1.1080  2.5664
 6636SOL    HW220299   2.467   1.035   4.518 -2.0422  0.8097 -1.1187
 6637SOL     OW20300   3.886   5.353   3.810 -0.0155  0.4619  0.0190
 6637SOL    HW120301   3.853   5.268   3.783  2.2526 -0.9607  1.4612
 6637SOL    HW220302   3.818   5.415   3.782 -1.3574 -1.6882 -1.7877
 6638SOL     OW20303   4.655   5.170   5.371 -0.2012  0.4023  0.2558
 6638SOL    HW120304   4.581   5.111   5.354 -1.2696  1.8842 -0.4277
 6638SOL    HW220305   4.732   5.113   5.367 -1.3289 -1.4109  2.1371
 6639SOL     OW20306   3.326   3.879   3.373  0.0315  0.2446  0.6602
 6639SOL    HW120307   3.364   3.967   3.373  1.2768 -0.2729  0.2709
 6639SOL    HW220308   3.393   3.823   3.413  0.1710 -0.8784 -1.0177
 6640SOL     OW20309   5.683   1.615   3.176 -0.2878  0.0063  0.1481
 6640SOL    HW120310   5.594   1.648   3.188 -0.3562 -0.7485  2.0434
 6640SOL    HW220311   5.735   1.661   3.242  0.4531 -0.5720 -0.0201
 6641SOL     OW20312   6.287   1.470   1.417  0.4435 -0.1675  0.2038
 6641SOL    HW120313   6.192   1.461   1.405  0.0557 -0.0726  2.6448
 6641SOL    HW220314   6.321   1.380   1.410 -0.1222 -0.4766  1.1986
 6642SOL     OW20315   0.186   3.791   4.062  0.3686  0.5057 -0.0400
 6642SOL    HW120316   0.263   3.834   4.099  0.7181  1.2331 -1.5373
 6642SOL    HW220317   0.166   3.842   3.984 -0.8021 -0.5206 -0.4334
 6643SOL     OW20318   0.903   0.879   1.308 -0.3113  0.6662 -0.3422
 6643SOL    HW120319   0.894   0.821   1.233 -1.9181 -1.1195  1.1230
 6643SOL    HW220320   0.868   0.963   1.278 -1.0795 -0.0559 -1.5397
 6644SOL     OW20321   3.432   3.766   6.386 -0.0518  0.2616 -0.6339
 6644SOL    HW120322   3.349   3.758   6.339 -0.6612  0.7494  0.3261
 6644SOL    HW220323   3.487   3.820   6.329  0.2600 -1.4892 -2.0885
 6645SOL     OW20324   4.595   3.160   1.924 -0.5936  0.6994  0.3344
 6645SOL    HW120325   4.556   3.137   2.008  1.1630  0.7450  1.2114
 6645SOL    HW220326   4.600   3.077   1.876  0.9220  0.1171  1.4124
 6646SOL     OW20327   2.943   5.831   1.317 -0.5347  0.7400 -0.7696
 6646SOL    HW120328   2.974   5.918   1.342 -0.7281  0.7426 -0.5306
 6646SOL    HW220329   2.984   5.814   1.232 -0.1605  0.8871 -0.6204
 6647SOL     OW20330   0.061   4.213   1.172 -0.6861  0.2733 -0.2566
 6647SOL    HW120331   0.018   4.141   1.217  0.4187 -0.9484 -1.0925
 6647SOL    HW220332   0.146   4.178   1.145 -0.8355  1.2871 -2.2729
 6648SOL     OW20333   0.891   4.020   3.068  0.1961 -0.1448  0.2685
 6648SOL    HW120334   0.840   4.010   3.149  0.1812  2.2745  0.6503
 6648SOL    HW220335   0.838   4.080   3.015  1.5070  0.4983 -0.3457
 6649SOL     OW20336   2.440   2.821   6.053 -0.0292  0.1162  0.2538
 6649SOL    HW120337   2.457   2.796   5.962 -0.1913 -0.5561  0.3985
 6649SOL    HW220338   2.400   2.743   6.092  1.2217 -0.0838  1.2399
 6650SOL     OW20339   5.456   2.725   1.056 -0.2349 -0.1439  0.3837
 6650SOL    HW120340   5.545   2.728   1.090  0.1195  0.5061 -0.5368
 6650SOL    HW220341   5.400   2.745   1.131  0.4897  0.9178  0.6621
 6651SOL     OW20342   5.851   2.320   6.500  0.3559  0.1229  0.3274
 6651SOL    HW120343   5.820   2.392   6.555 -0.4597 -0.1985  0.3136
 6651SOL    HW220344   5.847   2.243   6.558  3.4619  0.3957  1.0988
 6652SOL     OW20345   5.780   2.823   6.825  0.5061  0.0328  0.1599
 6652SOL    HW120346   5.814   2.835   6.736  1.2162  0.7248  0.5094
 6652SOL    HW220347   5.695   2.781   6.813 -0.1071  1.4918 -0.9385
 6653SOL     OW20348   4.339   2.803   6.074  0.1336 -0.8414  0.9103
 6653SOL    HW120349   4.417   2.854   6.052 -1.9982  1.9616 -0.9509
 6653SOL    HW220350   4.373   2.723   6.113  3.8256  1.4267  2.9453
 6654SOL     OW20351   6.079   5.845   1.388 -0.0864  0.5166 -0.0945
 6654SOL    HW120352   6.159   5.872   1.434 -0.0239  0.4170 -0.1454
 6654SOL    HW220353   6.097   5.863   1.296  0.1840 -0.2635 -0.1965
 6655SOL     OW20354   0.338   6.615   2.186  0.2533 -0.1162 -0.3401
 6655SOL    HW120355   0.285   6.601   2.107 -2.1431 -1.6743  1.3934
 6655SOL    HW220356   0.279   6.594   2.258  2.0452  2.1088  1.9714
 6656SOL     OW20357   0.040   1.152   6.764 -0.2874 -0.0798 -0.0468
 6656SOL    HW120358   0.096   1.100   6.823 -1.5561  0.2502  1.5274
 6656SOL    HW220359   0.093   1.229   6.743  1.4506 -1.6822 -2.0562
 6657SOL     OW20360   4.595   1.999   3.610 -0.0630  0.0635  0.4504
 6657SOL    HW120361   4.579   2.051   3.531  2.5954 -0.9288 -0.8702
 6657SOL    HW220362   4.530   1.928   3.605 -2.1447  1.8175  1.0281
 6658SOL     OW20363   6.653   0.635   3.086  0.2085 -0.1482  0.1154
 6658SOL    HW120364   6.649   0.540   3.085 -0.8755 -0.1161 -0.3580
 6658SOL    HW220365   6.731   0.656   3.034  0.0303 -0.7754 -0.4248
 6659SOL     OW20366   2.392   6.186   5.571 -0.1131 -0.7091  0.4437
 6659SOL    HW120367   2.450   6.230   5.633 -0.1701 -0.2826  0.2020
 6659SOL    HW220368   2.424   6.214   5.485 -0.3858 -0.8460  0.2963
 6660SOL     OW20369   3.761   0.989   0.046 -0.8266  0.3198  0.2322
 6660SOL    HW120370   3.725   1.064  -0.003 -3.4628 -0.8708  0.1771
 6660SOL    HW220371   3.853   0.985   0.019 -1.4805  1.3563 -2.5420
 6661SOL     OW20372   2.525   3.128   2.088  0.2501  0.3081  0.1973
 6661SOL    HW120373   2.589   3.093   2.026 -0.6040 -0.8055 -0.0742
 6661SOL    HW220374   2.506   3.216   2.055  0.3169 -0.0119 -0.7293
 6662SOL     OW20375   3.708   1.647   3.517 -0.2478  0.5669  0.5694
 6662SOL    HW120376   3.708   1.621   3.609 -1.0335 -0.3075  0.3431
 6662SOL    HW220377   3.659   1.728   3.515  1.9756  2.0201  1.2516
 6663SOL     OW20378   0.302   0.726   2.639 -0.5845  0.0396 -0.0433
 6663SOL    HW120379   0.225   0.675   2.661  0.0604 -0.1092  2.0747
 6663SOL    HW220380   0.272   0.817   2.637 -0.9920 -0.0984 -0.2116
 6664SOL     OW20381   3.742   4.396   4.223  0.2050 -0.0789 -0.2984
 6664SOL    HW120382   3.754   4.482   4.263  0.0663 -0.6948  1.1319
 6664SOL    HW220383   3.825   4.350   4.239 -0.3248 -0.7931  0.5043
 6665SOL     OW20384   5.759   0.760   5.631  0.8697  0.2374 -0.5671
 6665SOL    HW120385   5.792   0.736   5.718  1.0823  0.9039 -0.4633
 6665SOL    HW220386   5.736   0.676   5.591  1.3037 -0.1216 -0.0797
 6666SOL     OW20387   5.131   2.464   5.483 -0.2622  0.2075 -0.3705
 6666SOL    HW120388   5.212   2.427   5.449  0.2861 -0.2100  1.2882
 6666SOL    HW220389   5.085   2.390   5.522 -0.9652  0.6159 -0.4104
 6667SOL     OW20390   2.430   0.352   2.215  0.1331  0.2817  0.4392
 6667SOL    HW120391   2.343   0.392   2.217  0.5681  1.2373  0.8503
 6667SOL    HW220392   2.413   0.258   2.207 -0.9168  0.5410 -0.8417
 6668SOL     OW20393   5.611   1.305   2.724 -0.9208 -0.4551 -0.1705
 6668SOL    HW120394   5.557   1.297   2.645 -1.2500 -0.6459  0.0716
 6668SOL    HW220395   5.548   1.316   2.795 -0.6089  0.2042  0.0095
 6669SOL     OW20396   3.014   1.476   0.925 -0.6300 -0.2792  0.4464
 6669SOL    HW120397   3.077   1.419   0.881  0.5306  2.2830 -1.5333
 6669SOL    HW220398   2.948   1.495   0.858  0.0410  2.0519  0.3272
 6670SOL     OW20399   5.592   4.472   3.210 -0.1973  0.0545  0.0178
 6670SOL    HW120400   5.532   4.478   3.283  0.5153 -0.1209  0.6297
 6670SOL    HW220401   5.595   4.379   3.188  0.1302  0.0111  0.2348
 6671SOL     OW20402   3.755   2.077   5.860  0.3184  0.3413  0.0216
 6671SOL    HW120403   3.743   2.172   5.858  0.6358  0.3699 -0.8736
 6671SOL    HW220404   3.704   2.045   5.786  1.8705  0.0139 -0.9409
 6672SOL     OW20405   0.020   4.545   4.814  0.2602 -0.4132  0.5263
 6672SOL    HW120406   0.082   4.615   4.795 -0.8115  1.1208  2.3307
 6672SOL    HW220407   0.073   4.466   4.820  1.9362  0.7222  1.2258
 6673SOL     OW20408   2.636   6.092   3.969 -0.2605 -0.2130  0.7100
 6673SOL    HW120409   2.553   6.139   3.980 -0.7874 -1.1493  0.8501
 6673SOL    HW220410   2.696   6.158   3.935 -0.9868  0.5518  0.8652
 6674SOL     OW20411   0.308   0.167   0.262 -0.6185  0.2286 -0.0818
 6674SOL    HW120412   0.310   0.214   0.179  0.1119 -1.3805 -1.0141
 6674SOL    HW220413   0.229   0.113   0.257  0.8784 -2.0036 -1.0097
 6675SOL     OW20414   2.705   4.759   5.818  0.0678  0.1965  0.2001
 6675SOL    HW120415   2.645   4.796   5.753 -0.3780  0.9543  1.0225
 6675SOL    HW220416   2.651   4.745   5.895  0.5889 -0.7078  0.4141
 6676SOL     OW20417   5.212   5.546   0.865 -0.4467 -0.2342  0.8566
 6676SOL    HW120418   5.118   5.534   0.855 -0.4865 -0.5647  1.5626
 6676SOL    HW220419   5.247   5.536   0.777 -0.9647 -1.1769  0.7503
 6677SOL     OW20420   1.576   0.645   3.493  0.3309  0.4507 -0.0173
 6677SOL    HW120421   1.620   0.729   3.485 -0.0258  0.6607  0.1941
 6677SOL    HW220422   1.486   0.667   3.516 -0.0756  0.0477 -1.1850
 6678SOL     OW20423   2.662   0.610   0.916 -0.1423 -0.1073  0.1171
 6678SOL    HW120424   2.592   0.674   0.908  1.1451  1.2920 -0.4582
 6678SOL    HW220425   2.666   0.568   0.830 -0.8347 -0.8473  0.4255
 6679SOL     OW20426   5.621   0.178   3.052  0.2674  0.1268  0.1831
 6679SOL    HW120427   5.590   0.212   3.135  1.0573 -3.4042  2.1292
 6679SOL    HW220428   5.703   0.226   3.035  0.0048  1.0130  1.3381
 6680SOL     OW20429   2.403   1.923   3.209 -0.3894  0.2362  0.4223
 6680SOL    HW120430   2.474   1.921   3.146  0.1107  0.9122  0.9520
 6680SOL    HW220431   2.445   1.908   3.294 -1.2637 -2.6089  0.4745
 6681SOL     OW20432   3.290   4.051   5.069  0.3730 -0.5730  0.2465
 6681SOL    HW120433   3.268   4.142   5.087  0.0143 -0.7361  0.6655
 6681SOL    HW220434   3.291   4.044   4.974 -1.2783 -0.5344  0.2122
 6682SOL     OW20435   3.557   1.122   3.685 -0.3354 -0.2325  0.0092
 6682SOL    HW120436   3.528   1.211   3.705 -1.9701 -0.7316  0.0631
 6682SOL    HW220437   3.514   1.101   3.602  0.4202 -0.8075 -0.2476
 6683SOL     OW20438   3.661   6.578   5.640  0.1227 -0.3374  0.0637
 6683SOL    HW120439   3.704   6.543   5.718 -0.2913  0.2677  0.5725
 6683SOL    HW220440   3.568   6.581   5.664  0.0262  0.0738 -0.3695
 6684SOL     OW20441   4.485   0.524   2.447  0.7598  0.0194  0.2477
 6684SOL    HW120442   4.401   0.480   2.453 -0.1564  1.7921  1.4806
 6684SOL    HW220443   4.546   0.468   2.495 -0.0089 -0.6561  0.4438
 6685SOL     OW20444   4.207   3.912   3.432  0.3991 -0.5500  0.7839
 6685SOL    HW120445   4.238   3.889   3.519 -1.0555  0.9481  1.7471
 6685SOL    HW220446   4.189   3.829   3.390  1.1491 -1.2985  1.8832
 6686SOL     OW20447   2.219   1.099   2.259  0.5324  0.2472 -0.1055
 6686SOL    HW120448   2.288   1.077   2.197  0.2285  0.1713 -0.4215
 6686SOL    HW220449   2.238   1.189   2.285  0.7764  0.2095 -0.1547
 6687SOL     OW20450   5.316   1.595   4.279 -0.3187 -0.0505  0.8812
 6687SOL    HW120451   5.310   1.568   4.370  0.5820  0.7346  1.1848
 6687SOL    HW220452   5.320   1.691   4.282  0.6429 -0.0483  0.0832
 6688SOL     OW20453   2.726   2.373   1.639 -0.3363  0.1823  0.2135
 6688SOL    HW120454   2.734   2.280   1.619  0.8419  0.4972 -0.9257
 6688SOL    HW220455   2.796   2.391   1.702 -1.2748  0.0910  1.3126
 6689SOL     OW20456   0.847   2.380   0.766  0.2497 -0.3499 -0.5274
 6689SOL    HW120457   0.807   2.432   0.836  0.1901  0.5510 -1.2020
 6689SOL    HW220458   0.926   2.429   0.742  2.6279 -2.7442  1.6756
 6690SOL     OW20459   2.974   6.559   4.690 -0.1273 -0.0866  0.5152
 6690SOL    HW120460   3.066   6.584   4.682 -0.1273  0.0196  0.8355
 6690SOL    HW220461   2.967   6.479   4.637  0.1197 -0.0281  0.3902
 6691SOL     OW20462   0.927   1.390   4.607  0.0941 -0.7224  0.4576
 6691SOL    HW120463   0.978   1.397   4.526  1.0717  0.2426  1.1196
 6691SOL    HW220464   0.967   1.316   4.654 -0.2013 -1.0196  0.2394
 6692SOL     OW20465   4.006   3.936   4.047 -0.0349 -0.1354 -0.1012
 6692SOL    HW120466   4.057   3.884   4.109 -1.1920 -0.6541  0.4501
 6692SOL    HW220467   3.924   3.956   4.094  0.5889  2.7471 -0.0390
 6693SOL     OW20468   5.946   3.309   5.388 -0.4301  0.1048 -0.0034
 6693SOL    HW120469   5.969   3.216   5.385 -0.9206  0.0164 -2.0907
 6693SOL    HW220470   5.998   3.349   5.319 -0.8887  1.2525  0.2914
 6694SOL     OW20471   4.774   5.410   3.604 -0.0956 -0.0314 -0.0318
 6694SOL    HW120472   4.794   5.372   3.518 -0.8585 -2.3921  0.7426
 6694SOL    HW220473   4.848   5.385   3.659  0.0094  0.7682  0.1952
 6695SOL     OW20474   4.774   5.361   0.704 -0.2145  0.2392 -0.4952
 6695SOL    HW120475   4.693   5.412   0.707 -0.2415  0.1664  0.1896
 6695SOL    HW220476   4.826   5.394   0.778 -0.1198 -0.5390 -0.2087
 6696SOL     OW20477   2.093   1.624   0.444  0.5985  0.0375  0.2520
 6696SOL    HW120478   2.012   1.583   0.474 -0.3372  1.8971  0.4368
 6696SOL    HW220479   2.158   1.602   0.512 -0.6458  1.3649  1.9646
 6697SOL     OW20480   4.423   5.796   5.385 -0.1638  0.2895 -0.3616
 6697SOL    HW120481   4.463   5.756   5.462 -1.4438  1.1736  0.8087
 6697SOL    HW220482   4.495   5.846   5.345 -0.3041  3.3517  2.7111
 6698SOL     OW20483   3.155   4.131   6.188 -0.4240  0.1758 -0.0721
 6698SOL    HW120484   3.221   4.178   6.240 -0.3084  0.4277 -0.4447
 6698SOL    HW220485   3.161   4.170   6.101 -0.1270 -0.7237 -0.4687
 6699SOL     OW20486   3.365   3.003   3.993  0.0269  0.6569 -0.7307
 6699SOL    HW120487   3.396   2.997   4.084 -0.8307  3.0038 -0.2054
 6699SOL    HW220488   3.426   2.949   3.944  1.7670  0.9287  0.9842
 6700SOL     OW20489   1.261   1.767   2.872  0.5297  0.4900  0.1201
 6700SOL    HW120490   1.348   1.745   2.906 -0.8325 -1.8711  2.4804
 6700SOL    HW220491   1.214   1.804   2.947 -0.5705  1.6370 -1.0785
 6701SOL     OW20492   3.712   5.873   0.326 -0.6149 -0.1745 -0.1692
 6701SOL    HW120493   3.792   5.848   0.374  0.0568 -1.3288 -1.7674
 6701SOL    HW220494   3.744   5.924   0.252 -1.2146 -1.5721 -1.4420
 6702SOL     OW20495   0.188   5.430   2.877 -0.4783 -0.6198  0.4385
 6702SOL    HW120496   0.133   5.506   2.857 -0.8183 -1.1207 -0.6056
 6702SOL    HW220497   0.162   5.364   2.813 -0.7806 -1.9307  1.8565
 6703SOL     OW20498   6.130   6.640   0.720 -0.7775 -0.0603  0.2211
 6703SOL    HW120499   6.104   6.654   0.629  0.2606 -0.0657 -0.0891
 6703SOL    HW220500   6.182   6.717   0.742  0.6511 -0.9713  0.1570
 6704SOL     OW20501   5.115   2.431   6.363 -0.2558  0.0863  0.0503
 6704SOL    HW120502   5.088   2.499   6.302 -1.3295  0.2708  0.7079
 6704SOL    HW220503   5.130   2.477   6.446 -0.0774 -0.3390  0.2605
 6705SOL     OW20504   0.714   4.091   1.998  0.7477  0.0585 -0.0731
 6705SOL    HW120505   0.755   4.177   2.000  0.2943  0.2816 -0.3035
 6705SOL    HW220506   0.695   4.075   1.905  1.4966 -0.6094 -0.1225
 6706SOL     OW20507   6.249   2.164   0.285 -0.0330  0.4398  0.6999
 6706SOL    HW120508   6.224   2.207   0.203 -2.6868  0.2779  1.3606
 6706SOL    HW220509   6.227   2.072   0.272  0.6660  0.1869  1.2024
 6707SOL     OW20510   5.914   4.044   4.297 -0.1361 -0.2326 -0.4940
 6707SOL    HW120511   5.850   3.994   4.347 -1.2686  0.7546 -0.8907
 6707SOL    HW220512   5.974   4.080   4.363 -0.8733  0.0405  0.0389
 6708SOL     OW20513   6.247   5.954   2.230  0.4751 -0.6914 -0.2747
 6708SOL    HW120514   6.332   5.914   2.208 -0.2436 -2.3086 -0.2954
 6708SOL    HW220515   6.269   6.036   2.272  2.0751 -1.3203  0.1886
 6709SOL     OW20516   1.931   0.271   5.344  0.3273 -0.7272 -0.5682
 6709SOL    HW120517   1.976   0.251   5.262 -0.3200 -0.6813 -0.9491
 6709SOL    HW220518   1.838   0.274   5.320  0.0806 -1.2287  0.2719
 6710SOL     OW20519   0.353   3.921   5.004 -0.3402 -0.1953 -0.3561
 6710SOL    HW120520   0.399   4.005   5.009  0.7176 -0.7977  0.2946
 6710SOL    HW220521   0.263   3.945   4.982  0.0852  1.0660 -0.8312
 6711SOL     OW20522   3.789   5.102   3.735 -0.1916 -0.4907  0.3986
 6711SOL    HW120523   3.718   5.080   3.675  0.6737 -0.2345 -0.7494
 6711SOL    HW220524   3.842   5.022   3.740  0.4689 -0.1016 -0.2326
 6712SOL     OW20525   6.037   5.719   2.144  0.3161 -0.1200 -0.5878
 6712SOL    HW120526   6.107   5.658   2.118  2.3415  1.7138  0.2288
 6712SOL    HW220527   6.049   5.731   2.238 -0.8219  0.5963 -0.5161
 6713SOL     OW20528   5.206   2.698   2.939 -0.0308  0.1624 -0.2344
 6713SOL    HW120529   5.173   2.661   3.021 -1.5400 -1.7159 -1.5983
 6713SOL    HW220530   5.175   2.788   2.939  1.0663  0.6165  1.7749
 6714SOL     OW20531   1.814   3.612   4.575 -0.5256  0.9467  0.2052
 6714SOL    HW120532   1.735   3.581   4.620 -0.6515 -0.5775 -1.0256
 6714SOL    HW220533   1.821   3.558   4.497  0.7989  2.2201 -0.6106
 6715SOL     OW20534   2.107   6.772   2.619  0.4557  0.0667  0.1722
 6715SOL    HW120535   2.195   6.808   2.614  0.2772  0.6036  0.8053
 6715SOL    HW220536   2.114   6.686   2.577  1.2744  0.1014  0.2226
 6716SOL     OW20537   0.314   6.718   3.517 -0.4879  0.1595 -0.2750
 6716SOL    HW120538   0.237   6.713   3.574  0.2349  0.1141  0.7312
 6716SOL    HW220539   0.318   6.633   3.474 -1.0616  0.1979 -0.4010
 6717SOL     OW20540   0.346   4.754   2.632 -0.3512  0.3629  0.2597
 6717SOL    HW120541   0.437   4.782   2.643 -0.2435 -0.6492  2.5111
 6717SOL    HW220542   0.299   4.833   2.607  0.8976  1.2349  0.5610
 6718SOL     OW20543   2.783   2.071   0.397  0.4223 -0.3884  0.0881
 6718SOL    HW120544   2.820   2.062   0.309 -0.1742 -0.6807 -0.1409
 6718SOL    HW220545   2.742   2.158   0.396 -0.5461 -0.8253 -0.3105
 6719SOL     OW20546   3.135   6.834   5.454 -0.7157 -0.3194  0.2641
 6719SOL    HW120547   3.068   6.801   5.395 -1.9716  0.8024  1.0020
 6719SOL    HW220548   3.115   6.794   5.539 -1.6620  1.4350  0.9334
 6720SOL     OW20549   3.935   4.723   0.903  0.2006  0.6288 -0.3906
 6720SOL    HW120550   4.004   4.700   0.965 -0.6630  2.3287  1.3067
 6720SOL    HW220551   3.979   4.775   0.836  0.8751  0.1210 -0.3455
 6721SOL     OW20552   6.822   3.052   5.558  0.5989 -0.2561  0.1570
 6721SOL    HW120553   6.870   3.133   5.574 -1.1619  0.5853  1.6186
 6721SOL    HW220554   6.845   3.027   5.469  2.8619  0.6474  0.4267
 6722SOL     OW20555   2.410   2.716   6.417 -0.5724 -0.1088  0.8828
 6722SOL    HW120556   2.446   2.794   6.375 -0.0663 -0.3585  0.8439
 6722SOL    HW220557   2.439   2.643   6.363 -0.5324 -0.3729  1.2503
 6723SOL     OW20558   2.954   4.522   3.317 -0.2907  0.2354 -0.2296
 6723SOL    HW120559   2.934   4.587   3.249 -0.9943  0.1494 -0.1118
 6723SOL    HW220560   2.893   4.450   3.300  1.2882 -0.9677 -1.1111
 6724SOL     OW20561   4.716   6.589   2.645 -0.5189 -0.4165  0.6070
 6724SOL    HW120562   4.629   6.617   2.674 -0.4736 -0.7684  1.0960
 6724SOL    HW220563   4.713   6.599   2.550 -0.1518  2.2449  0.7815
 6725SOL     OW20564   6.140   4.163   3.782 -0.2757 -0.4680  0.0384
 6725SOL    HW120565   6.112   4.236   3.838 -0.1509 -1.6259  1.6792
 6725SOL    HW220566   6.070   4.099   3.789 -1.1624  0.0809 -2.6864
 6726SOL     OW20567   4.747   4.228   3.161 -0.3794 -0.4122  0.3478
 6726SOL    HW120568   4.651   4.234   3.166 -0.3966  0.7855 -0.7966
 6726SOL    HW220569   4.777   4.243   3.250 -1.2411 -0.0183  0.5853
 6727SOL     OW20570   0.241   2.491   3.564  0.5280 -0.0267  0.7291
 6727SOL    HW120571   0.149   2.472   3.547  0.2050  1.2559  0.9821
 6727SOL    HW220572   0.268   2.424   3.626  0.1224 -1.1821 -0.2975
 6728SOL     OW20573   4.867   4.408   5.819 -0.2207 -0.4374  0.0817
 6728SOL    HW120574   4.863   4.446   5.731 -0.3440 -1.0705 -0.1906
 6728SOL    HW220575   4.960   4.394   5.835 -0.2502 -1.0733 -0.2800
 6729SOL     OW20576   3.657   4.714   5.603 -0.1958  0.4167 -0.1385
 6729SOL    HW120577   3.748   4.722   5.575  0.0239  0.2479  0.5068
 6729SOL    HW220578   3.655   4.756   5.689 -0.9566  1.3347 -0.5930
 6730SOL     OW20579   4.963   0.650   1.158  0.5594  0.2537 -0.4164
 6730SOL    HW120580   4.884   0.672   1.208  0.9155 -0.0086  0.2809
 6730SOL    HW220581   4.941   0.570   1.111  0.7423 -0.4127  0.6038
 6731SOL     OW20582   5.386   2.976   0.615 -0.9063 -0.0187 -0.5319
 6731SOL    HW120583   5.435   3.047   0.575  0.3326 -0.5395  0.0056
 6731SOL    HW220584   5.411   2.979   0.708  0.8602 -2.4262 -0.8307
 6732SOL     OW20585   0.627   6.024   2.847  0.0630 -0.2360 -0.2251
 6732SOL    HW120586   0.608   6.097   2.788  0.8223  1.1520  1.1657
 6732SOL    HW220587   0.721   6.031   2.864  0.0851 -1.3463  0.1931
 6733SOL     OW20588   4.337   3.796   2.881 -0.0083 -0.3501 -0.0031
 6733SOL    HW120589   4.382   3.845   2.949  0.2617 -0.0738 -0.3800
 6733SOL    HW220590   4.330   3.857   2.807  0.4244 -0.9120 -0.5127
 6734SOL     OW20591   5.426   3.040   3.195 -0.3972  0.1070  0.0480
 6734SOL    HW120592   5.446   3.088   3.276 -0.1528 -0.9498  0.6273
 6734SOL    HW220593   5.357   2.978   3.221 -1.1627  0.5597 -0.8437
 6735SOL     OW20594   2.466   1.089   4.234 -0.3279  0.2256  0.6642
 6735SOL    HW120595   2.418   1.140   4.299  0.3767  1.7622  0.0215
 6735SOL    HW220596   2.521   1.030   4.286  0.1829  1.3880  1.4810
 6736SOL     OW20597   0.211   5.633   6.415 -0.1747  0.3875 -0.2927
 6736SOL    HW120598   0.118   5.627   6.439  0.1305 -2.4964  0.5516
 6736SOL    HW220599   0.241   5.714   6.457 -1.9926  0.6610  0.5775
 6737SOL     OW20600   0.085   0.558   4.887 -0.3883 -0.6697 -0.3682
 6737SOL    HW120601   0.071   0.617   4.961  1.5168 -0.1057 -0.4023
 6737SOL    HW220602   0.082   0.616   4.810 -1.1836 -1.0660 -0.6445
 6738SOL     OW20603   3.763   2.001   4.782  0.0289  0.1350 -0.0061
 6738SOL    HW120604   3.855   2.015   4.807 -0.5096  1.2218  1.4875
 6738SOL    HW220605   3.758   2.032   4.692  1.1094  0.0984 -0.0996
 6739SOL     OW20606   5.094   0.765   6.452  0.3188 -0.2854 -0.3862
 6739SOL    HW120607   5.174   0.727   6.488 -0.9829 -1.1919  1.7424
 6739SOL    HW220608   5.117   0.789   6.362  2.5506 -1.8211 -0.3062
 6740SOL     OW20609   0.859   0.648   1.884 -0.2661 -0.1708 -0.2338
 6740SOL    HW120610   0.838   0.733   1.924  0.8540 -0.3088  0.7284
 6740SOL    HW220611   0.854   0.664   1.790  1.3680  1.4018 -0.1186
 6741SOL     OW20612   3.229   2.850   4.582  0.6047  0.1025  0.1937
 6741SOL    HW120613   3.302   2.854   4.643  0.3191  0.2807  0.5234
 6741SOL    HW220614   3.234   2.932   4.533  0.6623  0.0860  0.1722
 6742SOL     OW20615   2.790   4.180   4.067 -0.4211 -0.0208 -0.0913
 6742SOL    HW120616   2.744   4.220   3.994 -1.0664  0.3349  0.5029
 6742SOL    HW220617   2.826   4.254   4.117  2.3349 -0.2821 -1.4606
 6743SOL     OW20618   1.869   1.785   2.068  0.0077 -0.6329 -0.0342
 6743SOL    HW120619   1.816   1.725   2.016 -0.2350 -0.3361 -0.1387
 6743SOL    HW220620   1.959   1.762   2.048 -0.0481 -2.2764  1.4523
 6744SOL     OW20621   0.710   6.488   0.908 -0.3674  0.0085  0.8689
 6744SOL    HW120622   0.640   6.429   0.881 -0.8901 -0.1840  2.5042
 6744SOL    HW220623   0.665   6.562   0.950  0.3136  1.1901 -0.3965
 6745SOL     OW20624   5.822   5.282   3.585  0.1782  0.0220  0.1078
 6745SOL    HW120625   5.853   5.191   3.585  1.0494  0.2869 -1.2412
 6745SOL    HW220626   5.745   5.281   3.641 -0.3101 -1.7270 -0.5171
 6746SOL     OW20627   4.880   6.179   3.022  0.4330 -0.1341  0.8537
 6746SOL    HW120628   4.899   6.265   2.985 -1.0951 -0.3390 -0.5522
 6746SOL    HW220629   4.837   6.197   3.105 -0.2320  0.4936  0.3856
 6747SOL     OW20630   0.901   0.430   4.626 -0.1436 -0.1037 -0.0068
 6747SOL    HW120631   0.855   0.468   4.701 -0.9998  0.3448 -0.7354
 6747SOL    HW220632   0.919   0.505   4.569 -0.8716 -0.6263 -0.9573
 6748SOL     OW20633   1.737   2.863   2.428  0.0441  0.4151  0.0280
 6748SOL    HW120634   1.722   2.913   2.508 -0.0860 -0.9144  0.8556
 6748SOL    HW220635   1.654   2.869   2.381 -0.2891  0.1855  0.5748
 6749SOL     OW20636   3.818   5.572   0.580  0.0742  0.6917  0.5197
 6749SOL    HW120637   3.776   5.510   0.640  0.7432 -1.6604 -1.2589
 6749SOL    HW220638   3.808   5.531   0.494  2.9528  1.7083 -0.4131
 6750SOL     OW20639   4.737   5.991   5.794 -0.3217 -0.3293 -0.8012
 6750SOL    HW120640   4.818   6.019   5.836  0.1251 -1.4246 -0.9157
 6750SOL    HW220641   4.676   6.064   5.809  0.3824  0.0894  0.1151
 6751SOL     OW20642   1.221   5.921   4.959 -0.7231 -0.7371  0.3424
 6751SOL    HW120643   1.138   5.951   4.920 -0.6815  0.1748  0.9309
 6751SOL    HW220644   1.269   5.882   4.886 -0.6363  0.9500 -0.5541
 6752SOL     OW20645   4.214   4.069   3.927 -0.6786 -0.7218  0.3095
 6752SOL    HW120646   4.271   4.066   4.004 -0.0380  0.7896 -0.0752
 6752SOL    HW220647   4.128   4.045   3.961 -0.3338 -0.4439  1.4278
 6753SOL     OW20648   2.373   2.925   1.899  0.0927  0.3787  0.1396
 6753SOL    HW120649   2.427   2.975   1.961  1.0159 -1.6180  1.0706
 6753SOL    HW220650   2.412   2.943   1.814  0.6346  0.9486  0.4924
 6754SOL     OW20651   3.222   2.902   4.889 -0.0184 -0.1595 -0.1211
 6754SOL    HW120652   3.196   2.810   4.881 -2.3156  0.4869 -0.7235
 6754SOL    HW220653   3.309   2.905   4.850 -0.1059 -1.9930 -0.5704
 6755SOL     OW20654   2.159   1.984   5.864  0.2769  0.2159  0.0367
 6755SOL    HW120655   2.153   1.911   5.803  0.5177 -1.6844  2.1725
 6755SOL    HW220656   2.070   2.021   5.866 -0.5603 -1.6695  0.7653
 6756SOL     OW20657   6.696   1.930   5.644  0.1524 -0.5131  0.2427
 6756SOL    HW120658   6.749   1.915   5.565 -0.5469 -0.7793 -0.1821
 6756SOL    HW220659   6.711   1.853   5.698 -0.9587 -1.3210 -0.5453
 6757SOL     OW20660   3.725   6.218   0.971  0.0111  0.0799  0.1905
 6757SOL    HW120661   3.819   6.214   0.952  0.0369  0.4982  0.2194
 6757SOL    HW220662   3.689   6.141   0.928  0.2886  0.2032 -0.2800
 6758SOL     OW20663   1.494   1.887   6.783  0.5578 -0.1931 -0.0881
 6758SOL    HW120664   1.446   1.932   6.852  0.5010  2.1470 -1.5557
 6758SOL    HW220665   1.563   1.948   6.757  2.8541 -2.4542  0.2623
 6759SOL     OW20666   0.376   2.049   0.942 -0.0124  0.3370  0.4361
 6759SOL    HW120667   0.421   2.101   0.875  0.9182 -2.0645 -0.9278
 6759SOL    HW220668   0.303   2.104   0.971 -0.4967  1.4548 -2.6199
 6760SOL     OW20669   2.706   6.325   0.233 -0.7947 -0.0559 -0.1763
 6760SOL    HW120670   2.632   6.272   0.204  0.3793 -1.2482 -1.1781
 6760SOL    HW220671   2.767   6.262   0.271 -0.5696  0.9927  1.2921
 6761SOL     OW20672   1.453   0.917   6.265  0.6038 -0.1889 -0.4411
 6761SOL    HW120673   1.543   0.897   6.238  1.8109  2.1905  1.3664
 6761SOL    HW220674   1.431   0.996   6.215 -0.2647 -0.4342 -0.4498
 6762SOL     OW20675   4.203   0.493   5.469  0.0509  0.0869 -0.6282
 6762SOL    HW120676   4.245   0.506   5.384  2.7572 -1.2082  0.3862
 6762SOL    HW220677   4.137   0.426   5.454  0.2822  0.0996 -1.7671
 6763SOL     OW20678   6.662   5.175   0.765 -0.0370  0.2218 -0.6291
 6763SOL    HW120679   6.582   5.219   0.737  1.2095  1.5882 -2.2811
 6763SOL    HW220680   6.683   5.215   0.850  0.1780  1.6560 -1.3311
 6764SOL     OW20681   2.343   4.946   2.624  0.3122 -0.4644 -0.5573
 6764SOL    HW120682   2.423   4.998   2.618  1.3206 -2.0131 -1.2331
 6764SOL    HW220683   2.333   4.927   2.717  0.6121 -0.0912 -0.4465
 6765SOL     OW20684   4.791   1.671   2.768 -0.3159 -0.1866  0.2419
 6765SOL    HW120685   4.753   1.675   2.680  0.7974  0.6637 -0.2218
 6765SOL    HW220686   4.883   1.695   2.756 -0.4494  1.3057  1.8236
 6766SOL     OW20687   1.855   4.022   3.352 -0.0929 -0.4963 -0.0209
 6766SOL    HW120688   1.928   4.000   3.410 -0.3284  1.1189  0.9261
 6766SOL    HW220689   1.780   3.979   3.391 -0.2849  0.7347  1.0185
 6767SOL     OW20690   5.699   4.254   3.644  0.0567 -0.1347 -0.4393
 6767SOL    HW120691   5.622   4.310   3.636 -0.0913 -0.4486 -1.3534
 6767SOL    HW220692   5.668   4.167   3.618  0.6450 -0.3202 -0.5345
 6768SOL     OW20693   4.824   0.703   3.445  0.5695 -0.1730 -0.0991
 6768SOL    HW120694   4.783   0.633   3.396 -0.3910  0.2870  0.0167
 6768SOL    HW220695   4.751   0.750   3.486  1.1385  1.1978 -0.5860
 6769SOL     OW20696   1.898   0.952   5.881  0.3248 -0.3328  0.3711
 6769SOL    HW120697   1.960   0.922   5.814  0.7999  1.0175  0.1736
 6769SOL    HW220698   1.877   0.873   5.931 -0.4010 -1.4769 -1.6363
 6770SOL     OW20699   6.208   0.938   0.081 -0.4458 -0.6687  0.2783
 6770SOL    HW120700   6.181   1.019   0.039 -0.8552 -1.4676 -1.0367
 6770SOL    HW220701   6.141   0.874   0.057  0.0334 -1.4883  1.0364
 6771SOL     OW20702   0.463   1.020   1.444 -0.0507 -0.2765  0.0866
 6771SOL    HW120703   0.479   1.036   1.351 -0.2984  1.2771  0.2743
 6771SOL    HW220704   0.369   1.034   1.455 -0.3617 -2.2712  0.2663
 6772SOL     OW20705   1.377   5.753   2.389 -0.4790 -0.1015  0.0567
 6772SOL    HW120706   1.284   5.750   2.367 -0.3544  1.5577 -0.8026
 6772SOL    HW220707   1.419   5.792   2.312  0.8677 -0.3610  0.6292
 6773SOL     OW20708   3.124   6.376   1.894  0.4874  0.2185 -0.3313
 6773SOL    HW120709   3.202   6.424   1.923  0.2581 -0.0272  0.7574
 6773SOL    HW220710   3.082   6.434   1.831 -1.4360  2.9531  3.0930
 6774SOL     OW20711   0.327   3.017   5.390  0.6577 -0.0081  0.3974
 6774SOL    HW120712   0.353   3.092   5.443  1.5945  0.0315 -0.1014
 6774SOL    HW220713   0.392   2.950   5.411  0.4075 -0.3436  0.0998
 6775SOL     OW20714   6.431   1.861   4.107  0.3327  0.4142  0.2960
 6775SOL    HW120715   6.358   1.802   4.088  1.1187 -0.5949  0.2891
 6775SOL    HW220716   6.505   1.802   4.123  1.1125  1.4098  0.4294
 6776SOL     OW20717   0.461   3.896   6.077  0.8137  0.0569  0.1648
 6776SOL    HW120718   0.549   3.922   6.104  0.6950  0.4175  0.2045
 6776SOL    HW220719   0.472   3.807   6.044  1.1262 -0.0389  0.5186
 6777SOL     OW20720   2.831   2.657   6.652  0.4285 -0.5900  0.4892
 6777SOL    HW120721   2.862   2.694   6.569 -0.0564 -1.0160  0.1065
 6777SOL    HW220722   2.757   2.602   6.627 -0.0925 -0.2650  1.2790
 6778SOL     OW20723   5.740   3.929   6.478  0.0384 -0.0316  0.7128
 6778SOL    HW120724   5.688   4.009   6.475 -1.2195 -0.8249  0.5289
 6778SOL    HW220725   5.676   3.859   6.489  1.2205 -0.9088  2.5473
 6779SOL     OW20726   4.256   0.476   6.138  0.8590  0.3539  0.0736
 6779SOL    HW120727   4.193   0.524   6.192 -1.2358 -1.7667 -0.3126
 6779SOL    HW220728   4.325   0.449   6.199  1.6019  2.8923  0.4690
 6780SOL     OW20729   0.003   5.342   3.659 -0.0164  0.4865 -0.6283
 6780SOL    HW120730  -0.044   5.373   3.581  0.2236  0.6099 -0.7222
 6780SOL    HW220731   0.094   5.335   3.632 -0.0498 -0.2417 -0.5907
 6781SOL     OW20732   5.233   6.457   6.080  0.3092 -0.1161 -0.3069
 6781SOL    HW120733   5.166   6.455   6.148 -0.9280  0.0239 -1.4736
 6781SOL    HW220734   5.308   6.413   6.118  0.1453  1.1618  1.6408
 6782SOL     OW20735   2.226   4.240   4.400 -0.2248  0.4480  0.0346
 6782SOL    HW120736   2.201   4.217   4.311  2.9587 -0.0706 -0.8393
 6782SOL    HW220737   2.204   4.162   4.452  0.3615 -0.3183 -0.8405
 6783SOL     OW20738   1.906   2.173   2.674  0.2876  0.5318  0.0417
 6783SOL    HW120739   1.850   2.195   2.599 -0.2227 -0.1858  0.2025
 6783SOL    HW220740   1.905   2.078   2.677 -0.8557  0.5528  1.8127
 6784SOL     OW20741   3.225   6.220   1.517 -0.0018 -0.6883 -0.2624
 6784SOL    HW120742   3.246   6.192   1.606 -0.7301 -0.9133 -0.1584
 6784SOL    HW220743   3.306   6.205   1.468  1.1439  1.4731  0.8066
 6785SOL     OW20744   1.330   6.198   6.311  0.3461  0.0123  0.1438
 6785SOL    HW120745   1.260   6.199   6.376  0.3924  0.4494  0.1878
 6785SOL    HW220746   1.410   6.214   6.360  0.5797 -1.2287  0.2022
 6786SOL     OW20747   0.927   2.836   3.363 -0.4195 -0.6419 -0.2978
 6786SOL    HW120748   0.941   2.755   3.315  0.3913  0.9190 -2.8805
 6786SOL    HW220749   0.839   2.864   3.340 -0.6818 -0.7268  0.5494
 6787SOL     OW20750   2.006   6.187   0.675 -1.0140 -0.3448  0.3272
 6787SOL    HW120751   2.033   6.098   0.697 -1.1551 -0.4326  0.1468
 6787SOL    HW220752   1.944   6.177   0.603  1.1860  0.0389 -1.7872
 6788SOL     OW20753   5.030   6.650   1.274  0.4130 -0.2436  0.2507
 6788SOL    HW120754   4.951   6.618   1.232 -0.2625 -0.5995  1.7053
 6788SOL    HW220755   5.011   6.742   1.293  0.1543 -0.4430  0.9953
 6789SOL     OW20756   2.287   0.186   5.403 -0.3047  0.2203  0.1794
 6789SOL    HW120757   2.236   0.159   5.327 -0.8238 -1.2143  0.9947
 6789SOL    HW220758   2.361   0.234   5.367  0.0894 -1.4207 -1.3359
 6790SOL     OW20759   3.825   2.279   0.635  0.5236 -0.1498  0.5464
 6790SOL    HW120760   3.912   2.319   0.645  0.4340  0.0317  0.5899
 6790SOL    HW220761   3.801   2.251   0.723  0.6452 -0.4234  0.4946
 6791SOL     OW20762   4.468   2.216   3.444 -0.4093  0.5122 -0.0208
 6791SOL    HW120763   4.410   2.180   3.511 -2.0907  0.4713 -1.4227
 6791SOL    HW220764   4.431   2.302   3.424 -0.3708  0.2335 -1.3781
 6792SOL     OW20765   0.125   1.891   2.328  0.6953  0.7288  0.0445
 6792SOL    HW120766   0.113   1.982   2.304 -1.2025  0.6238  0.4242
 6792SOL    HW220767   0.059   1.843   2.278  1.3182 -0.3781  0.2304
 6793SOL     OW20768   5.555   6.442   5.091  0.1284  0.1201  0.1450
 6793SOL    HW120769   5.493   6.424   5.161 -0.5879 -0.2493 -0.5659
 6793SOL    HW220770   5.530   6.383   5.020  0.9718  0.3283 -0.3497
 6794SOL     OW20771   5.837   2.871   5.506  0.0785  0.5346  0.0863
 6794SOL    HW120772   5.842   2.822   5.423 -0.3837  1.5679 -0.5665
 6794SOL    HW220773   5.903   2.829   5.562  1.2492  0.5803 -1.2026
 6795SOL     OW20774   5.615   1.087   6.402  0.3050  0.1347 -0.1605
 6795SOL    HW120775   5.628   1.000   6.441  3.0622  0.2524 -0.5892
 6795SOL    HW220776   5.607   1.145   6.477  0.7478 -0.2312  0.1824
 6796SOL     OW20777   5.695   4.345   5.095  0.8280 -0.2689 -0.8115
 6796SOL    HW120778   5.652   4.316   5.176  1.0191 -0.5656 -0.8113
 6796SOL    HW220779   5.653   4.428   5.074  0.5172 -0.3698 -0.6095
 6797SOL     OW20780   3.058   4.135   0.370  0.0976  0.4944  0.7454
 6797SOL    HW120781   3.120   4.100   0.435  0.4351 -0.8675 -0.2617
 6797SOL    HW220782   2.976   4.145   0.419 -0.1649 -2.2696  1.0422
 6798SOL     OW20783   1.155   3.465   4.477  0.0762  0.1712  0.2339
 6798SOL    HW120784   1.080   3.492   4.424 -1.0922  1.2691  2.3408
 6798SOL    HW220785   1.155   3.524   4.552  2.1844 -0.7605  1.0689
 6799SOL     OW20786   4.582   3.776   3.129 -0.7170 -0.7414  0.3081
 6799SOL    HW120787   4.504   3.819   3.164 -0.1559 -0.0292  0.6856
 6799SOL    HW220788   4.646   3.780   3.199 -0.0907 -0.6681 -0.2576
 6800SOL     OW20789   1.205   5.979   0.016  0.2778 -0.2387  0.3894
 6800SOL    HW120790   1.139   5.909   0.019  0.9485 -1.0997 -2.1643
 6800SOL    HW220791   1.278   5.946   0.068  0.2061 -1.0067  0.0154
 6801SOL     OW20792   1.960   1.568   6.141 -0.7483 -0.1788  0.0218
 6801SOL    HW120793   1.873   1.537   6.115 -0.8632  0.9429 -1.0130
 6801SOL    HW220794   1.996   1.607   6.062  0.8304 -0.8892  0.3692
 6802SOL     OW20795   5.514   2.540   0.260  0.0786 -0.4489  0.5081
 6802SOL    HW120796   5.609   2.534   0.245  0.1044 -0.4518  0.6730
 6802SOL    HW220797   5.499   2.488   0.339 -0.0342 -0.2945  0.5883
 6803SOL     OW20798   5.169   6.265   3.190  0.0582  0.1639 -0.0875
 6803SOL    HW120799   5.165   6.251   3.095  1.3200  0.2693 -0.1731
 6803SOL    HW220800   5.166   6.360   3.201 -0.7529  0.1308  0.0280
 6804SOL     OW20801   5.906   3.234   0.064  0.7435  0.1752 -0.1863
 6804SOL    HW120802   5.838   3.283   0.019  0.6283  0.0540 -0.1441
 6804SOL    HW220803   5.970   3.301   0.091  0.4101  0.3513  0.1848
 6805SOL     OW20804   3.938   2.677   0.471  0.5194  0.1431 -0.3998
 6805SOL    HW120805   4.020   2.720   0.448  1.1805  0.5107  2.3487
 6805SOL    HW220806   3.963   2.602   0.525 -0.9418  0.7988  1.2894
 6806SOL     OW20807   2.183   5.786   2.406 -0.7080 -0.0246  0.8138
 6806SOL    HW120808   2.222   5.712   2.452 -0.2660  0.9622  2.0991
 6806SOL    HW220809   2.172   5.853   2.474 -1.3809  0.9777 -0.2437
 6807SOL     OW20810   3.891   6.224   5.819  0.1248 -0.2673  0.5028
 6807SOL    HW120811   3.935   6.308   5.831 -1.4945  1.1472 -2.3227
 6807SOL    HW220812   3.952   6.171   5.769 -0.6636  1.1682 -2.1533
 6808SOL     OW20813   3.799   6.099   2.118  0.1827  0.1043  0.3525
 6808SOL    HW120814   3.883   6.100   2.071 -0.7667  3.0107 -1.5399
 6808SOL    HW220815   3.822   6.123   2.207  1.6263 -2.0139  0.6413
 6809SOL     OW20816   4.266   6.487   5.549 -0.4471 -0.0265 -0.2071
 6809SOL    HW120817   4.337   6.427   5.523  0.0455 -0.5015  2.0012
 6809SOL    HW220818   4.191   6.459   5.496  0.2722 -1.3785 -0.5852
 6810SOL     OW20819   5.636   2.155   5.612  0.1923 -0.4110 -0.4248
 6810SOL    HW120820   5.616   2.192   5.698  0.0522  0.4117 -0.8118
 6810SOL    HW220821   5.607   2.221   5.549  0.4527 -0.9320 -1.1066
 6811SOL     OW20822   1.897   1.914   0.752 -0.2789  0.7429  0.6728
 6811SOL    HW120823   1.944   1.948   0.676 -0.3837 -0.2390  0.1439
 6811SOL    HW220824   1.926   1.823   0.759  0.0725  0.9442  2.0930
 6812SOL     OW20825   1.442   1.991   4.008  0.0283 -0.2575 -0.1574
 6812SOL    HW120826   1.439   1.911   4.060  1.5624 -1.3180 -1.6001
 6812SOL    HW220827   1.466   1.961   3.920  1.7032  1.8713 -0.5073
 6813SOL     OW20828   3.140   3.291   5.761 -0.2168 -0.1026  0.5425
 6813SOL    HW120829   3.198   3.356   5.801 -0.8053 -0.5497  2.2075
 6813SOL    HW220830   3.054   3.308   5.799 -0.4971 -1.5048  0.6136
 6814SOL     OW20831   0.850   5.748   1.722  0.2220  0.0483  0.3939
 6814SOL    HW120832   0.897   5.732   1.804  1.0895 -0.7104 -0.2264
 6814SOL    HW220833   0.887   5.685   1.660 -0.5941  0.4315 -0.5205
 6815SOL     OW20834   6.397   5.367   0.828 -0.2422  0.1456 -0.2685
 6815SOL    HW120835   6.311   5.327   0.818  0.5634 -1.6816 -0.2125
 6815SOL    HW220836   6.407   5.423   0.751 -0.7804 -0.9616 -1.1638
 6816SOL     OW20837   5.634   5.976   5.896 -0.5087  0.1406 -0.4095
 6816SOL    HW120838   5.647   5.931   5.979  0.9377 -0.6964 -1.0441
 6816SOL    HW220839   5.549   6.019   5.905 -1.2813 -1.5227  0.7637
 6817SOL     OW20840   2.205   3.198   4.715  0.2972 -0.5243  0.4645
 6817SOL    HW120841   2.157   3.275   4.747  1.7623  0.7838 -0.3359
 6817SOL    HW220842   2.152   3.164   4.644  0.2691  0.5723 -0.0591
 6818SOL     OW20843   1.508   0.166   6.033  0.1261  0.2120  0.7003
 6818SOL    HW120844   1.552   0.183   5.949  0.4331  0.4490  0.9058
 6818SOL    HW220845   1.482   0.074   6.028  0.7889  0.0230  0.6372
 6819SOL     OW20846   3.442   4.806   2.898 -0.3836  0.0634 -0.0093
 6819SOL    HW120847   3.463   4.874   2.834 -0.5623 -1.4335 -1.7574
 6819SOL    HW220848   3.348   4.816   2.913 -0.5694 -0.2657 -0.8824
 6820SOL     OW20849   4.270   1.477   2.964 -0.2698 -0.2915 -0.9600
 6820SOL    HW120850   4.329   1.401   2.965  0.7745  0.4937 -1.5141
 6820SOL    HW220851   4.200   1.451   2.904  0.1061 -0.7923 -1.1908
 6821SOL     OW20852   3.515   4.281   3.015 -0.1033 -0.2239  0.5240
 6821SOL    HW120853   3.488   4.363   3.058  1.7664  0.3659  0.6745
 6821SOL    HW220854   3.501   4.214   3.082 -1.4885 -0.0134  0.4639
 6822SOL     OW20855   2.778   0.841   5.100 -0.2764 -0.4481 -0.4860
 6822SOL    HW120856   2.840   0.897   5.055  0.2607  0.3020  1.1262
 6822SOL    HW220857   2.738   0.789   5.030 -0.7739  1.8810 -2.0341
 6823SOL     OW20858   1.339   2.038   3.372  0.4277 -0.3251  0.0416
 6823SOL    HW120859   1.363   1.947   3.351  0.7205 -0.0392 -0.9540
 6823SOL    HW220860   1.413   2.090   3.339  1.2828  0.1505  2.5013
 6824SOL     OW20861   4.205   3.481   1.578 -0.0789 -0.3347  0.4280
 6824SOL    HW120862   4.225   3.394   1.543  1.0291  0.0932 -0.0361
 6824SOL    HW220863   4.198   3.467   1.673 -0.2012 -0.9770  0.3316
 6825SOL     OW20864   5.188   6.663   1.036  0.2342  0.7886 -0.2206
 6825SOL    HW120865   5.144   6.633   1.115  0.9377 -0.1410 -0.1717
 6825SOL    HW220866   5.236   6.587   1.004 -0.6317  0.9198 -1.9766
 6826SOL     OW20867   5.613   5.092   1.729  0.4190  0.4433 -0.1494
 6826SOL    HW120868   5.638   5.162   1.788 -0.5490  0.6184  0.0740
 6826SOL    HW220869   5.523   5.114   1.703  0.1675 -0.6166 -0.2092
 6827SOL     OW20870   2.512   5.308   1.188  0.3951 -0.0009 -0.0037
 6827SOL    HW120871   2.571   5.297   1.113  1.1849 -1.0713  0.7599
 6827SOL    HW220872   2.556   5.371   1.245 -0.1642  0.7447 -0.3745
 6828SOL     OW20873   5.152   6.234   5.245  0.3135  0.2820  0.5435
 6828SOL    HW120874   5.175   6.159   5.189  1.0427  1.1840 -0.4211
 6828SOL    HW220875   5.232   6.287   5.248  0.4130  0.0946  2.7806
 6829SOL     OW20876   4.672   3.066   6.382  0.0176 -0.5965 -0.0016
 6829SOL    HW120877   4.757   3.046   6.422  0.2272 -3.4454 -1.5978
 6829SOL    HW220878   4.694   3.093   6.293 -0.6981 -2.0208 -0.6511
 6830SOL     OW20879   1.735   4.759   6.727 -0.3932 -0.2005  0.0286
 6830SOL    HW120880   1.757   4.762   6.820  1.1167 -1.4097 -0.2537
 6830SOL    HW220881   1.793   4.822   6.686 -1.6738  0.9869 -0.0186
 6831SOL     OW20882   1.009   1.169   3.351 -0.1450 -0.0901 -0.3485
 6831SOL    HW120883   1.083   1.119   3.318  0.7082  0.5934  0.5021
 6831SOL    HW220884   1.006   1.149   3.445 -0.0142  1.1657 -0.0643
 6832SOL     OW20885   4.066   6.751   0.182 -0.1213  0.4561  0.2396
 6832SOL    HW120886   4.147   6.704   0.161 -1.2446 -1.4444 -0.0466
 6832SOL    HW220887   4.062   6.748   0.278  0.2503  0.7400  0.2654
 6833SOL     OW20888   4.001   1.288   3.859 -0.1302  0.2376  0.0838
 6833SOL    HW120889   4.083   1.270   3.813 -0.4672 -0.3531 -0.2972
 6833SOL    HW220890   4.028   1.312   3.948  0.4197 -0.7599  0.1986
 6834SOL     OW20891   2.282   3.603   6.615  0.3987  0.0343 -0.4848
 6834SOL    HW120892   2.223   3.580   6.544 -0.7261  1.0877  0.0645
 6834SOL    HW220893   2.224   3.635   6.685  1.4835 -0.6748  0.8000
 6835SOL     OW20894   4.950   0.826   5.937  0.6207 -0.2156 -0.1549
 6835SOL    HW120895   4.908   0.911   5.957  1.2594  0.0967 -0.1230
 6835SOL    HW220896   4.947   0.779   6.020 -0.9893 -0.7941 -0.4938
 6836SOL     OW20897   3.472   5.916   6.384  0.3329 -0.3327  0.0573
 6836SOL    HW120898   3.514   5.971   6.450 -1.6816 -0.1064  1.2342
 6836SOL    HW220899   3.534   5.844   6.369  1.5756  0.5305  0.9097
 6837SOL     OW20900   1.651   2.912   5.212  0.3886  0.1846 -0.1598
 6837SOL    HW120901   1.723   2.899   5.274  0.2537 -0.0472 -0.0492
 6837SOL    HW220902   1.615   2.997   5.234  0.5833  0.2696 -0.1687
 6838SOL     OW20903   0.624   0.375   0.354 -0.0460 -0.5213  0.2359
 6838SOL    HW120904   0.590   0.344   0.270 -2.1466 -0.3929  0.9852
 6838SOL    HW220905   0.566   0.447   0.379  1.3543  0.3300  1.1953
 6839SOL     OW20906   3.749   5.539   3.395 -0.0104  0.5640 -0.2406
 6839SOL    HW120907   3.737   5.527   3.301 -2.4890 -1.3340  0.1824
 6839SOL    HW220908   3.669   5.503   3.433  0.5493  2.0378  2.5732
 6840SOL     OW20909   0.907   2.486   1.586  0.2845  0.0196 -0.4890
 6840SOL    HW120910   0.930   2.540   1.510  0.6462  0.0048 -0.3898
 6840SOL    HW220911   0.897   2.398   1.551 -2.3659  0.4582 -1.0471
 6841SOL     OW20912   3.377   3.180   4.905 -0.2696  0.3742 -0.2186
 6841SOL    HW120913   3.321   3.138   4.840  0.1680  0.3715 -0.5989
 6841SOL    HW220914   3.466   3.167   4.872 -0.0182  0.0764  0.5564
 6842SOL     OW20915   1.515   1.716   2.947  0.0178  0.3379  0.5261
 6842SOL    HW120916   1.542   1.807   2.961  0.2992  0.7296 -2.1043
 6842SOL    HW220917   1.562   1.666   3.014  2.1781  1.7806  0.1738
 6843SOL     OW20918   5.756   1.148   4.284  0.2169  0.0179 -0.1401
 6843SOL    HW120919   5.785   1.158   4.193  0.7890 -2.2161 -0.2673
 6843SOL    HW220920   5.838   1.149   4.335 -0.1208  1.6060  0.4352
 6844SOL     OW20921   2.960   0.716   2.613  0.3329  0.2545  0.1994
 6844SOL    HW120922   3.048   0.720   2.575  0.4662  0.2002  0.5034
 6844SOL    HW220923   2.927   0.630   2.588  0.2374  0.4005 -0.1927
 6845SOL     OW20924   4.193   4.502   5.978 -0.1433 -0.7979 -0.1615
 6845SOL    HW120925   4.215   4.410   5.964  0.2312 -0.9486  1.2552
 6845SOL    HW220926   4.238   4.526   6.059 -1.0417  0.3580  0.0335
 6846SOL     OW20927   5.001   6.554   4.925  0.1989 -0.4265  0.2188
 6846SOL    HW120928   4.965   6.535   4.839  0.8799 -0.8735  0.0213
 6846SOL    HW220929   5.095   6.539   4.916  0.3389 -0.0628  0.9272
 6847SOL     OW20930   2.006   0.422   4.409 -0.4046 -0.2183  0.0339
 6847SOL    HW120931   1.931   0.411   4.350 -0.5060  0.8127 -0.0411
 6847SOL    HW220932   2.046   0.335   4.412 -0.7213 -0.4249 -1.1225
 6848SOL     OW20933   4.219   6.269   5.861  0.2704  0.6350  0.0029
 6848SOL    HW120934   4.206   6.352   5.816  0.2047 -0.2084 -1.6059
 6848SOL    HW220935   4.177   6.204   5.804 -0.5196 -0.4003  1.6954
 6849SOL     OW20936   4.068   0.712   0.606  0.2716  1.3602  0.0939
 6849SOL    HW120937   4.059   0.765   0.685 -0.5514 -0.4725  1.2937
 6849SOL    HW220938   4.039   0.625   0.632  0.9245  0.4594 -1.9835
 6850SOL     OW20939   3.903   2.353   4.903  0.6918  0.3855 -0.4508
 6850SOL    HW120940   3.964   2.376   4.973  1.4096 -0.0204 -0.9281
 6850SOL    HW220941   3.832   2.416   4.911  1.7212  1.5934 -0.5951
 6851SOL     OW20942   0.860   1.591   2.768  0.0921  0.1344 -0.2997
 6851SOL    HW120943   0.949   1.562   2.749  0.6558  0.3620  1.7778
 6851SOL    HW220944   0.869   1.648   2.844 -1.3683  3.2673 -2.2891
 6852SOL     OW20945   1.371   2.881   6.786  0.3642  0.1675  0.0581
 6852SOL    HW120946   1.396   2.788   6.781  0.7082  0.2538  0.1807
 6852SOL    HW220947   1.402   2.909   6.872  1.1906  0.6769 -0.4083
 6853SOL     OW20948   0.652   2.513   4.972  0.2511 -0.1404  0.1717
 6853SOL    HW120949   0.744   2.537   4.969  0.5402 -1.1269  0.6024
 6853SOL    HW220950   0.620   2.548   5.055  0.2019  0.3101 -0.0355
 6854SOL     OW20951   4.233   2.585   1.860  0.2148  0.2638 -0.2217
 6854SOL    HW120952   4.206   2.651   1.796 -0.2053  0.0595 -0.2537
 6854SOL    HW220953   4.263   2.511   1.806  0.5638  0.3735 -0.1846
 6855SOL     OW20954   2.788   3.997   6.828  0.1264  0.4810 -0.4584
 6855SOL    HW120955   2.735   4.016   6.750 -0.2715  0.2647 -0.2431
 6855SOL    HW220956   2.810   4.083   6.864 -0.1541  0.5705 -0.4986
 6856SOL     OW20957   3.076   5.942   5.483  0.0726  0.5278 -0.0291
 6856SOL    HW120958   3.081   5.847   5.494 -0.8366  0.1611 -2.2113
 6856SOL    HW220959   2.998   5.968   5.532 -0.2925 -0.0403 -0.2894
 6857SOL     OW20960   5.920   3.197   4.348  0.1169  0.2321 -0.0606
 6857SOL    HW120961   5.939   3.279   4.302  0.0377  1.1300  1.4662
 6857SOL    HW220962   5.915   3.221   4.440 -0.8737 -1.3276  0.3335
 6858SOL     OW20963   0.113   3.278   5.648 -0.2988 -0.0305 -0.1020
 6858SOL    HW120964   0.099   3.372   5.662 -1.5745 -0.4023  1.4195
 6858SOL    HW220965   0.128   3.242   5.735  1.9426 -1.0285 -0.8167
 6859SOL     OW20966   1.911   4.755   6.050 -0.5674 -0.3533 -0.2341
 6859SOL    HW120967   1.903   4.833   5.994  0.4706 -0.1934 -0.1674
 6859SOL    HW220968   2.003   4.731   6.045 -0.2369  0.2052  2.1459
 6860SOL     OW20969   3.420   5.411   1.372  0.3245 -0.1609  0.2965
 6860SOL    HW120970   3.360   5.341   1.345 -0.1394 -0.2252  1.4411
 6860SOL    HW220971   3.475   5.426   1.295 -1.3806  0.1627 -0.9454
 6861SOL     OW20972   2.952   3.225   6.468  0.1837 -0.1478 -0.3302
 6861SOL    HW120973   2.911   3.245   6.383  1.8840  2.3676 -0.6708
 6861SOL    HW220974   2.915   3.289   6.528 -1.7879 -2.5567  1.2215
 6862SOL     OW20975   3.758   2.682   6.316 -0.5440  0.7036 -0.0013
 6862SOL    HW120976   3.798   2.637   6.241 -1.7188 -0.4936  0.0454
 6862SOL    HW220977   3.831   2.726   6.360  0.7108 -1.2436 -0.0109
 6863SOL     OW20978   5.486   3.515   5.862 -0.1746 -0.3831  0.1046
 6863SOL    HW120979   5.496   3.539   5.770 -0.5388 -0.1193  0.1333
 6863SOL    HW220980   5.477   3.598   5.908  2.4977 -0.3607  0.7047
 6864SOL     OW20981   5.683   6.834   1.260 -0.6739 -0.2360  0.1216
 6864SOL    HW120982   5.774   6.849   1.237 -0.1316 -0.1081  2.1862
 6864SOL    HW220983   5.659   6.754   1.212  0.5627 -0.3807 -0.2937
 6865SOL     OW20984   2.699   5.489   5.628  0.0432  0.0163 -0.1433
 6865SOL    HW120985   2.659   5.504   5.543  1.0414  0.7379 -0.5102
 6865SOL    HW220986   2.736   5.574   5.653  1.5532 -0.6524  0.0352
 6866SOL     OW20987   2.206   0.791   6.198  0.1516 -0.4481  0.1029
 6866SOL    HW120988   2.176   0.864   6.143 -0.9278 -0.7865  0.2254
 6866SOL    HW220989   2.283   0.825   6.242  1.9952 -0.6368 -2.7236
 6867SOL     OW20990   0.288   6.473   0.906  0.0931 -0.7574 -0.5488
 6867SOL    HW120991   0.277   6.544   0.843  1.1581 -0.8130 -0.8211
 6867SOL    HW220992   0.201   6.433   0.914 -1.1121  1.9583  1.3184
 6868SOL     OW20993   6.467   5.941   6.078 -0.2606  0.2129 -0.1538
 6868SOL    HW120994   6.487   5.848   6.067 -1.1303 -0.0006  0.0095
 6868SOL    HW220995   6.389   5.943   6.133 -0.4647  1.0311 -0.4516
 6869SOL     OW20996   5.041   3.572   4.083  0.8911 -0.3361 -0.0871
 6869SOL    HW120997   5.019   3.546   3.994 -0.0799  0.3657 -0.0691
 6869SOL    HW220998   5.041   3.491   4.133  0.9035 -0.6634 -0.6176
 6870SOL     OW20999   0.448   6.685   3.068 -0.9030 -0.0906  0.0290
 6870SOL    HW121000   0.360   6.650   3.085 -1.1103 -0.6345 -1.8457
 6870SOL    HW221001   0.459   6.674   2.973  0.6989  1.1306  0.0371
 6871SOL     OW21002   5.124   4.175   4.534 -0.3099  0.0270 -0.2354
 6871SOL    HW121003   5.188   4.236   4.570  0.6203 -1.0672  0.0014
 6871SOL    HW221004   5.094   4.216   4.453  1.0223  0.3620 -0.5824
 6872SOL     OW21005   4.118   5.513   0.701  0.2251  0.4597 -0.1025
 6872SOL    HW121006   4.030   5.548   0.713 -0.5918 -1.2284 -0.8121
 6872SOL    HW221007   4.106   5.418   0.695  1.8891  0.2927 -1.8810
 6873SOL     OW21008   2.477   2.962   1.621 -0.0466 -0.1549 -0.2457
 6873SOL    HW121009   2.439   2.961   1.533 -2.4719  0.0581  0.7046
 6873SOL    HW221010   2.548   2.899   1.617 -0.7497 -0.9121 -2.0990
 6874SOL     OW21011   6.688   3.812   3.751  0.3284 -0.4336  0.8467
 6874SOL    HW121012   6.664   3.837   3.840  0.0587 -1.8959  1.2174
 6874SOL    HW221013   6.640   3.730   3.736  3.0805 -2.1532  0.7095
 6875SOL     OW21014   1.863   4.331   2.949 -0.5082 -0.0258 -0.2927
 6875SOL    HW121015   1.777   4.356   2.984  0.2062 -0.1913  1.7417
 6875SOL    HW221016   1.900   4.276   3.017 -0.1947 -2.9947 -2.6750
 6876SOL     OW21017   1.913   6.153   6.228 -0.2440  0.6066  0.3427
 6876SOL    HW121018   1.874   6.235   6.200  2.8040  1.1946 -2.8725
 6876SOL    HW221019   1.979   6.178   6.293 -0.5961  0.4221  0.7821
 6877SOL     OW21020   4.932   6.815   5.909  0.2723 -0.2401 -0.1633
 6877SOL    HW121021   4.982   6.768   5.976  0.6250 -0.6420 -0.7041
 6877SOL    HW221022   4.841   6.798   5.931  0.3792 -0.1555  0.3663
 6878SOL     OW21023   6.063   6.357   5.101 -0.2058 -0.1762  0.7623
 6878SOL    HW121024   6.112   6.427   5.058 -0.2356  0.9852  2.5151
 6878SOL    HW221025   6.108   6.276   5.075 -0.7334  0.3405 -2.0726
 6879SOL     OW21026   6.806   3.355   4.937 -0.6804 -0.2126  0.1699
 6879SOL    HW121027   6.712   3.368   4.923 -0.3198  1.1373 -1.2637
 6879SOL    HW221028   6.845   3.441   4.921  0.5502  0.0604  3.7965
 6880SOL     OW21029   2.114   6.439   6.285 -0.5025 -0.5080 -0.0537
 6880SOL    HW121030   2.171   6.499   6.238  1.1839 -2.1100 -0.1907
 6880SOL    HW221031   2.099   6.481   6.370  1.2595 -0.2058  0.1515
 6881SOL     OW21032   0.323   4.501   2.305 -0.8863 -0.1419 -0.2383
 6881SOL    HW121033   0.258   4.475   2.239 -0.4801  1.0151 -1.1272
 6881SOL    HW221034   0.279   4.569   2.356 -0.6256  0.1289 -0.3757
 6882SOL     OW21035   3.909   0.907   6.203 -0.9789 -0.4061 -0.5979
 6882SOL    HW121036   3.916   0.930   6.111 -0.5188  0.4866 -0.3463
 6882SOL    HW221037   3.826   0.946   6.232 -1.4384 -1.2185 -0.7718
 6883SOL     OW21038   2.462   0.570   0.246  0.0914  0.0917  0.0087
 6883SOL    HW121039   2.522   0.613   0.185 -1.7780 -0.1299 -2.1480
 6883SOL    HW221040   2.380   0.619   0.236 -0.5441 -0.5987  1.6270
 6884SOL     OW21041   5.092   1.576   2.486 -0.2020 -0.0715  0.3675
 6884SOL    HW121042   5.159   1.512   2.464  2.2755  2.3443  0.3725
 6884SOL    HW221043   5.107   1.595   2.579 -0.7295  0.6629  0.3102
 6885SOL     OW21044   3.525   2.662   3.222  0.0400  0.0186  0.8195
 6885SOL    HW121045   3.606   2.616   3.202  0.2206  0.3261  0.8390
 6885SOL    HW221046   3.498   2.701   3.139  1.2668  2.0538  1.3083
 6886SOL     OW21047   5.385   3.127   5.239 -0.2960  0.0016 -0.6561
 6886SOL    HW121048   5.302   3.176   5.240 -0.9946 -1.1453 -0.1434
 6886SOL    HW221049   5.405   3.112   5.332  0.4331  0.1566 -0.7817
 6887SOL     OW21050   5.403   1.511   4.040  0.5151  0.1028  0.4265
 6887SOL    HW121051   5.359   1.547   4.117  0.3792  2.1317 -0.5331
 6887SOL    HW221052   5.485   1.477   4.074 -0.0155 -0.0429  1.6326
 6888SOL     OW21053   0.161   2.057   5.113 -0.3049  0.3864  0.1542
 6888SOL    HW121054   0.074   2.075   5.147 -0.6550 -0.4684 -0.2690
 6888SOL    HW221055   0.176   2.127   5.048 -0.7997  0.3560  0.0054
 6889SOL     OW21056   0.731   2.977   2.703  0.1849  0.6908  0.2332
 6889SOL    HW121057   0.811   3.013   2.741  0.0553  2.4636 -1.0620
 6889SOL    HW221058   0.662   3.003   2.764  0.2461  1.5850 -0.0780
 6890SOL     OW21059   5.747   6.570   4.955  0.0666 -0.2832  0.7039
 6890SOL    HW121060   5.675   6.526   5.000  0.1942  0.4751  1.6828
 6890SOL    HW221061   5.804   6.499   4.926 -1.7890 -1.0302 -1.4536
 6891SOL     OW21062   2.034   1.947   3.947 -0.6007  0.0491  0.2052
 6891SOL    HW121063   2.039   1.935   3.852  0.8442 -1.6465  0.4335
 6891SOL    HW221064   2.122   1.927   3.978 -0.3991  2.8288  1.7332
 6892SOL     OW21065   2.083   6.114   2.273 -0.2249 -0.4254 -0.2085
 6892SOL    HW121066   2.156   6.075   2.320 -0.0828 -0.9975 -0.8812
 6892SOL    HW221067   2.060   6.049   2.206 -1.7898 -0.5616  0.4267
 6893SOL     OW21068   5.477   3.726   2.546  0.3364  0.3302  0.5004
 6893SOL    HW121069   5.533   3.650   2.531  0.0377  0.3136 -0.6419
 6893SOL    HW221070   5.537   3.801   2.542  0.5964  0.1776  1.4072
 6894SOL     OW21071   6.762   1.086   4.194  0.1394 -0.0606  0.5460
 6894SOL    HW121072   6.758   1.032   4.273  0.5581 -1.3394 -0.2833
 6894SOL    HW221073   6.848   1.068   4.156 -0.3684 -0.1039 -0.6370
 6895SOL     OW21074   1.422   1.022   4.261 -0.0519  0.4276  0.7415
 6895SOL    HW121075   1.499   1.026   4.205  0.3423  0.2863  1.2632
 6895SOL    HW221076   1.371   1.099   4.237  0.4940  0.7937  0.7349
 6896SOL     OW21077   4.896   2.957   4.143  0.2731  0.0452 -0.2953
 6896SOL    HW121078   4.877   2.868   4.173  2.1700 -0.0402  0.8503
 6896SOL    HW221079   4.992   2.962   4.142  0.2171  1.8782 -0.9576
 6897SOL     OW21080   1.453   5.098   5.936  0.2143  0.0371  0.0485
 6897SOL    HW121081   1.524   5.161   5.951 -0.9734  1.8006 -1.2790
 6897SOL    HW221082   1.464   5.072   5.844 -1.0339  0.5889 -0.2676
 6898SOL     OW21083   3.803   0.763   2.260 -0.0895  0.2394  0.2744
 6898SOL    HW121084   3.785   0.850   2.294  0.0702  0.0806  0.7790
 6898SOL    HW221085   3.885   0.737   2.301 -0.2154 -0.2099  0.2550
 6899SOL     OW21086   3.406   5.117   5.845  0.1306 -0.2804  0.1985
 6899SOL    HW121087   3.466   5.052   5.807 -0.2710 -1.4538  1.4618
 6899SOL    HW221088   3.322   5.071   5.851  0.0241  0.0439  1.8480
 6900SOL     OW21089   4.118   1.485   3.317 -0.1586 -0.2253 -0.0386
 6900SOL    HW121090   4.197   1.535   3.299 -0.8793  1.1944  0.6430
 6900SOL    HW221091   4.145   1.418   3.380  0.1343  1.4072  1.6295
 6901SOL     OW21092   0.304   4.266   5.078  0.3589 -0.0007  0.2062
 6901SOL    HW121093   0.376   4.238   5.135 -0.2683 -0.5715  0.7290
 6901SOL    HW221094   0.242   4.308   5.137  0.9621  1.9685 -0.4624
 6902SOL     OW21095   3.740   1.928   2.413 -0.2478 -0.3665  0.4263
 6902SOL    HW121096   3.825   1.896   2.382  0.1653  2.0257 -1.1731
 6902SOL    HW221097   3.745   1.923   2.508  0.2859 -3.5196  0.3470
 6903SOL     OW21098   2.488   6.178   1.986  0.1060  0.0646  0.3809
 6903SOL    HW121099   2.581   6.196   1.969  0.1899  0.8265  1.5726
 6903SOL    HW221100   2.470   6.100   1.933  1.4684 -0.1990  0.2454
 6904SOL     OW21101   5.944   2.407   0.488 -0.8593  0.2283 -0.1207
 6904SOL    HW121102   5.962   2.463   0.412  0.4972 -0.5671 -0.4253
 6904SOL    HW221103   5.862   2.363   0.466 -0.4144 -0.0981 -1.2148
 6905SOL     OW21104   6.379   3.790   3.819 -0.4840  0.1324 -0.2080
 6905SOL    HW121105   6.364   3.698   3.798 -0.2222  0.2049 -0.7258
 6905SOL    HW221106   6.308   3.813   3.879  1.0926 -1.2028  2.3426
 6906SOL     OW21107   2.213   3.728   2.624 -0.6340 -0.3890  0.0340
 6906SOL    HW121108   2.196   3.654   2.566  1.8123 -1.7476  0.8899
 6906SOL    HW221109   2.239   3.799   2.566  1.8065 -1.7320 -0.6825
 6907SOL     OW21110   4.646   4.518   3.677 -0.0108 -0.1160  0.1803
 6907SOL    HW121111   4.586   4.444   3.685 -0.1962 -0.1629 -1.4376
 6907SOL    HW221112   4.589   4.593   3.657  0.3899 -0.0233 -0.6378
 6908SOL     OW21113   3.878   2.068   4.036 -0.0965  0.2149  0.2138
 6908SOL    HW121114   3.936   2.134   4.074  2.0071 -0.6378 -1.2964
 6908SOL    HW221115   3.860   2.008   4.108  1.7458 -0.0239  0.5313
 6909SOL     OW21116   5.395   0.882   0.524 -0.1426  0.2368 -0.3290
 6909SOL    HW121117   5.420   0.808   0.469 -1.8495 -0.2773 -0.4774
 6909SOL    HW221118   5.352   0.843   0.600  0.9606  1.0007  0.7258
 6910SOL     OW21119   4.601   5.331   3.839 -0.0745  0.0017  0.0043
 6910SOL    HW121120   4.551   5.400   3.883  1.5849  1.0576  0.3541
 6910SOL    HW221121   4.588   5.348   3.746 -1.0043 -0.2479  0.0803
 6911SOL     OW21122   6.064   4.838   3.257  0.0435 -0.2607  0.1760
 6911SOL    HW121123   6.071   4.750   3.293 -2.6889  0.0588  1.8174
 6911SOL    HW221124   6.084   4.896   3.331  1.6234  0.5488 -0.8295
 6912SOL     OW21125   6.423   2.281   5.139 -0.5442  0.5665  0.1584
 6912SOL    HW121126   6.331   2.304   5.132 -0.7168 -0.4861 -1.7766
 6912SOL    HW221127   6.446   2.299   5.230 -2.9015 -0.0585  0.9472
 6913SOL     OW21128   4.933   3.187   2.597  0.2002  0.3786 -0.0105
 6913SOL    HW121129   4.875   3.113   2.579  0.5029 -0.0146  0.6264
 6913SOL    HW221130   4.924   3.243   2.519  0.2429 -0.4952 -0.6616
 6914SOL     OW21131   3.260   5.832   4.912  0.2705  0.1447 -0.2208
 6914SOL    HW121132   3.269   5.750   4.864 -0.1531 -0.8732  1.3968
 6914SOL    HW221133   3.166   5.843   4.925  0.3804  0.4417  0.3345
 6915SOL     OW21134   0.235   5.312   3.236  0.1891 -1.0218 -0.4248
 6915SOL    HW121135   0.320   5.293   3.276 -0.1679  0.3927  1.1371
 6915SOL    HW221136   0.256   5.351   3.151  1.0471 -1.5585 -0.4683
 6916SOL     OW21137   0.734   5.915   3.723 -0.3970  0.2223 -0.0560
 6916SOL    HW121138   0.709   5.992   3.672 -2.6498  0.2358  0.9510
 6916SOL    HW221139   0.653   5.864   3.731 -0.1060  0.0523  3.1739
 6917SOL     OW21140   1.883   3.760   5.550  0.3906 -0.1085  0.1831
 6917SOL    HW121141   1.914   3.744   5.639 -0.1438 -0.8303  0.2428
 6917SOL    HW221142   1.859   3.674   5.516  2.2975 -0.1266 -1.3165
 6918SOL     OW21143   2.772   1.335   0.402 -0.7701 -0.0806 -0.0670
 6918SOL    HW121144   2.794   1.395   0.473 -1.1002  0.5738 -0.5066
 6918SOL    HW221145   2.852   1.330   0.349 -0.9132  0.4144 -0.3362
 6919SOL     OW21146   4.662   4.680   3.026 -0.2198 -0.1175  0.4453
 6919SOL    HW121147   4.632   4.598   3.064  1.0972  0.4717  2.9986
 6919SOL    HW221148   4.582   4.725   2.998 -1.0540 -1.6604  0.2791
 6920SOL     OW21149   6.758   3.435   0.049 -0.2112  0.0534 -0.2444
 6920SOL    HW121150   6.678   3.418   0.100 -0.1311 -0.7578 -0.3688
 6920SOL    HW221151   6.811   3.491   0.106 -1.0427  0.9631 -0.3339
 6921SOL     OW21152   4.770   4.422   4.412  0.2086  0.0168 -0.6755
 6921SOL    HW121153   4.735   4.346   4.458  2.0030 -0.0062  0.7295
 6921SOL    HW221154   4.719   4.426   4.331 -1.6112 -1.1858  0.3369
 6922SOL     OW21155   3.554   6.145   1.708 -0.3350  0.3123 -0.1546
 6922SOL    HW121156   3.589   6.197   1.781 -1.0979  1.5593 -0.6429
 6922SOL    HW221157   3.588   6.189   1.629 -1.4856  0.4266 -0.5957
 6923SOL     OW21158   2.121   6.287   4.017  0.1361  0.2073  0.3135
 6923SOL    HW121159   2.208   6.248   4.015  0.6372  1.1931  1.3588
 6923SOL    HW221160   2.134   6.371   4.062 -1.1899  0.7918 -0.3444
 6924SOL     OW21161   1.335   4.300   6.807  0.4240  0.2982 -0.4495
 6924SOL    HW121162   1.388   4.378   6.787  0.2634  0.9689  1.4646
 6924SOL    HW221163   1.382   4.258   6.879 -0.6863 -0.0961  0.0677
 6925SOL     OW21164   1.914   3.564   0.336 -0.1245 -0.0893  0.2489
 6925SOL    HW121165   2.007   3.544   0.347  0.1389  1.3925  0.9491
 6925SOL    HW221166   1.913   3.643   0.281 -0.9941 -0.3269 -0.0929
 6926SOL     OW21167   1.748   6.353   3.831 -0.4951  0.1067  0.2439
 6926SOL    HW121168   1.742   6.430   3.775 -0.2517 -0.7480 -1.0169
 6926SOL    HW221169   1.764   6.281   3.770 -1.2240 -1.0167  1.3263
 6927SOL     OW21170   6.467   2.075   3.066 -0.5133  0.2914  0.1386
 6927SOL    HW121171   6.516   2.044   3.142 -0.8435  0.1985  0.3164
 6927SOL    HW221172   6.431   1.996   3.026 -1.5507  0.4398  0.7265
 6928SOL     OW21173   3.825   1.204   6.689 -0.3293  0.0440 -0.0416
 6928SOL    HW121174   3.886   1.134   6.667  0.1800  0.5254 -0.1669
 6928SOL    HW221175   3.874   1.285   6.675 -0.6056  0.4072  1.0236
 6929SOL     OW21176   4.618   0.515   3.681  0.0354 -0.1440  0.0212
 6929SOL    HW121177   4.607   0.610   3.679  0.7783 -0.0319  0.7762
 6929SOL    HW221178   4.667   0.495   3.601 -1.7265 -0.1449 -1.1256
 6930SOL     OW21179   3.528   5.800   1.480 -0.4940  0.3625 -0.8352
 6930SOL    HW121180   3.557   5.818   1.569 -1.3007  0.7291 -0.6297
 6930SOL    HW221181   3.608   5.791   1.429  0.0573  3.5700 -0.7669
 6931SOL     OW21182   0.941   3.541   2.488  0.4174 -0.3012  0.2838
 6931SOL    HW121183   0.976   3.623   2.524  1.0310 -1.0935  1.5276
 6931SOL    HW221184   0.856   3.531   2.530  0.2077 -0.1766 -0.0960
 6932SOL     OW21185   5.333   3.283   0.763  0.1024  0.3592  0.0754
 6932SOL    HW121186   5.381   3.282   0.846  1.7917  0.7333 -0.8498
 6932SOL    HW221187   5.272   3.210   0.770  0.6003  0.0383  1.4340
 6933SOL     OW21188   0.074   0.575   0.161  0.0244 -0.4297 -0.2905
 6933SOL    HW121189   0.154   0.617   0.191  0.9684 -1.4317 -1.3183
 6933SOL    HW221190   0.009   0.598   0.228  1.8272 -1.9969  2.1788
 6934SOL     OW21191   6.051   6.473   5.350 -0.0897 -0.3060 -0.0310
 6934SOL    HW121192   6.047   6.452   5.256 -0.7121  0.9202 -0.3024
 6934SOL    HW221193   6.131   6.431   5.380  0.8167  0.3427 -1.4036
 6935SOL     OW21194   1.513   2.749   6.084  0.4480 -0.1590 -0.5195
 6935SOL    HW121195   1.509   2.742   5.989  1.2293 -0.6464 -0.5297
 6935SOL    HW221196   1.579   2.817   6.101  0.8566 -0.5930 -0.3317
 6936SOL     OW21197   3.524   4.860   3.347  0.3717  0.9406  0.0478
 6936SOL    HW121198   3.477   4.802   3.408  2.5298 -1.1236 -0.0918
 6936SOL    HW221199   3.502   4.826   3.260  1.3029  0.5745 -0.0565
 6937SOL     OW21200   2.702   4.241   5.339 -0.1272  0.2965 -0.2994
 6937SOL    HW121201   2.735   4.246   5.250  0.6538 -0.1192 -0.0429
 6937SOL    HW221202   2.609   4.221   5.329 -0.5824  2.4845 -1.0592
 6938SOL     OW21203   6.227   6.505   3.084  0.5079  0.5308  0.4478
 6938SOL    HW121204   6.188   6.487   2.999  1.1672  0.3132  0.1852
 6938SOL    HW221205   6.157   6.486   3.147 -0.4310  1.9910 -0.0986
 6939SOL     OW21206   4.021   3.510   1.386  0.7859  0.2070  0.3139
 6939SOL    HW121207   4.009   3.418   1.360  1.8627  0.5448 -1.5257
 6939SOL    HW221208   4.087   3.506   1.455  0.0515 -0.4752  0.9996
 6940SOL     OW21209   0.732   4.171   1.050 -0.0214  0.2699 -0.4503
 6940SOL    HW121210   0.658   4.155   1.109 -0.4799  1.0792 -0.8025
 6940SOL    HW221211   0.754   4.263   1.064  1.2550 -0.0803  0.0189
 6941SOL     OW21212   2.514   5.905   5.154  0.1796  0.3342 -0.0350
 6941SOL    HW121213   2.577   5.972   5.182  0.6708 -0.5038  0.9099
 6941SOL    HW221214   2.435   5.925   5.205  0.0381  0.7047 -0.3912
 6942SOL     OW21215   6.474   5.833   2.223  0.5496  0.6634 -0.0630
 6942SOL    HW121216   6.554   5.781   2.216  0.6018  0.7878 -0.4736
 6942SOL    HW221217   6.445   5.822   2.313  1.6963  1.5838  0.4530
 6943SOL     OW21218   2.647   5.763   2.812  0.3282  0.1304  0.3511
 6943SOL    HW121219   2.614   5.707   2.882 -0.2545 -1.1437 -0.8811
 6943SOL    HW221220   2.571   5.813   2.783  0.7625  1.3263  1.1866
 6944SOL     OW21221   3.726   3.264   2.580  0.3855 -0.4961 -0.3802
 6944SOL    HW121222   3.663   3.335   2.568  1.9387  1.2497  1.1460
 6944SOL    HW221223   3.697   3.221   2.661 -0.9626 -2.1396 -1.6707
 6945SOL     OW21224   4.761   4.781   3.986 -0.0301  0.2011  0.3155
 6945SOL    HW121225   4.801   4.866   4.006  0.6723 -0.0891  0.1773
 6945SOL    HW221226   4.752   4.781   3.891 -2.1160  1.0272  0.4779
 6946SOL     OW21227   6.726   6.764   2.305 -0.0199 -0.2669  0.1900
 6946SOL    HW121228   6.638   6.726   2.300 -0.3323  0.4902 -0.2893
 6946SOL    HW221229   6.720   6.828   2.376  0.0246  0.0610 -0.0963
 6947SOL     OW21230   4.413   4.142   3.539 -0.4921  0.1560 -0.4857
 6947SOL    HW121231   4.381   4.225   3.574 -0.0260  1.1871 -2.3747
 6947SOL    HW221232   4.509   4.150   3.542 -0.3788 -1.1555  1.1227
 6948SOL     OW21233   5.438   2.141   0.892  0.2659 -0.2668 -0.3764
 6948SOL    HW121234   5.443   2.141   0.796  0.7058 -2.5611 -0.4220
 6948SOL    HW221235   5.505   2.203   0.919 -0.2122  0.8115 -1.5328
 6949SOL     OW21236   2.117   2.512   1.259  0.3605  0.4671 -0.4288
 6949SOL    HW121237   2.163   2.567   1.323 -0.3192  0.4862  0.0509
 6949SOL    HW221238   2.092   2.572   1.189 -0.2188  0.7432  0.0069
 6950SOL     OW21239   0.142   2.746   5.041  0.2177  0.3106  0.6287
 6950SOL    HW121240   0.199   2.822   5.038  1.3006 -0.4459  1.2866
 6950SOL    HW221241   0.138   2.722   5.134  0.5446 -0.8889  0.3496
 6951SOL     OW21242   6.592   4.536   0.244  0.1262 -0.4363 -0.1478
 6951SOL    HW121243   6.499   4.518   0.255  0.2805 -1.1893  0.0165
 6951SOL    HW221244   6.602   4.555   0.151  0.2443 -3.4250 -0.8664
 6952SOL     OW21245   6.132   3.107   1.034 -0.9893  0.6683  0.1032
 6952SOL    HW121246   6.045   3.144   1.049 -0.4770  1.3133  1.7347
 6952SOL    HW221247   6.189   3.182   1.018 -0.6950  0.2610 -0.8444
 6953SOL     OW21248   3.773   3.947   2.156  0.3218 -0.0294 -0.2966
 6953SOL    HW121249   3.755   3.953   2.062  0.0291 -0.3411 -0.2622
 6953SOL    HW221250   3.806   4.034   2.180 -1.9885  0.8824 -0.1800
 6954SOL     OW21251   6.263   2.946   0.806  0.2482  0.0118 -0.4737
 6954SOL    HW121252   6.221   3.021   0.847  0.8636  0.3198 -0.3862
 6954SOL    HW221253   6.205   2.872   0.824 -0.1709  0.3986 -0.2345
 6955SOL     OW21254   3.612   6.288   4.482 -0.0710 -0.1956 -0.1253
 6955SOL    HW121255   3.562   6.206   4.477 -0.9619  0.2631  0.8665
 6955SOL    HW221256   3.565   6.349   4.425 -0.4149  0.1139  0.4778
 6956SOL     OW21257   2.340   1.565   0.962  0.1224  0.2354  0.1892
 6956SOL    HW121258   2.417   1.617   0.939  0.6967 -1.6101 -2.5534
 6956SOL    HW221259   2.371   1.506   1.031  0.3728  1.2797  0.9954
 6957SOL     OW21260   4.122   5.085   3.499 -0.1955 -0.5936 -0.4869
 6957SOL    HW121261   4.030   5.110   3.494 -0.5224 -1.3187  1.3264
 6957SOL    HW221262   4.170   5.165   3.477 -1.2522  0.4952  0.9681
 6958SOL     OW21263   4.463   0.282   5.911  0.1125  0.3408  0.1634
 6958SOL    HW121264   4.502   0.362   5.875 -3.0662  1.2600 -1.5465
 6958SOL    HW221265   4.369   0.293   5.900 -0.6127 -2.6734  2.0563
 6959SOL     OW21266   4.760   4.885   5.685 -0.2037 -0.1281  0.2227
 6959SOL    HW121267   4.681   4.938   5.677 -0.6618 -1.0219 -2.1135
 6959SOL    HW221268   4.728   4.798   5.710  0.1236 -0.2481  0.2255
 6960SOL     OW21269   4.284   4.964   4.805  0.1052 -0.2175  0.5315
 6960SOL    HW121270   4.316   4.874   4.795 -0.4872 -0.4942  1.0847
 6960SOL    HW221271   4.329   4.997   4.883 -1.8992 -1.0674  2.1386
 6961SOL     OW21272   6.363   0.161   0.611  0.0111  0.0514  0.1641
 6961SOL    HW121273   6.421   0.121   0.546  0.6535 -1.0013  1.3377
 6961SOL    HW221274   6.345   0.249   0.577 -0.5975 -0.8391 -1.9762
 6962SOL     OW21275   0.451   2.936   1.460  0.3397  0.0082 -1.1172
 6962SOL    HW121276   0.417   2.907   1.545  2.8499 -1.4197 -0.5109
 6962SOL    HW221277   0.376   2.932   1.402 -0.9602 -1.1304  0.5415
 6963SOL     OW21278   0.635   6.238   6.335  0.1349 -0.6960  0.3638
 6963SOL    HW121279   0.606   6.303   6.271  0.6506  0.3892  1.2004
 6963SOL    HW221280   0.594   6.157   6.307 -2.3375  0.4144  0.5307
 6964SOL     OW21281   4.327   5.178   2.444 -0.0745 -0.4812 -0.2893
 6964SOL    HW121282   4.366   5.264   2.457 -1.1112 -0.0918  0.3569
 6964SOL    HW221283   4.400   5.117   2.449  0.7290  0.3761 -1.1257
 6965SOL     OW21284   3.583   4.020   3.705 -0.2378 -0.3123  0.3394
 6965SOL    HW121285   3.564   4.109   3.735 -2.2247 -1.3905  2.6012
 6965SOL    HW221286   3.643   3.986   3.772  0.5777 -0.6800 -0.5618
 6966SOL     OW21287   4.210   1.527   0.635 -0.1829  0.4881 -0.3274
 6966SOL    HW121288   4.216   1.558   0.725 -0.1464  0.3513 -0.2818
 6966SOL    HW221289   4.299   1.536   0.601  0.4573 -1.9066  0.4713
 6967SOL     OW21290   1.471   1.027   1.140  0.4340  0.2284 -0.1502
 6967SOL    HW121291   1.551   1.080   1.144  1.6520 -1.5466  0.0280
 6967SOL    HW221292   1.481   0.964   1.211 -1.0451 -0.1585 -0.2630
 6968SOL     OW21293   2.913   4.656   3.066 -0.0889  0.1638 -0.1462
 6968SOL    HW121294   2.893   4.749   3.060 -2.0098 -0.1466  0.6687
 6968SOL    HW221295   2.847   4.614   3.010  0.2233 -0.7587  0.1624
 6969SOL     OW21296   1.445   4.832   5.211  0.2582 -0.0136  0.1771
 6969SOL    HW121297   1.473   4.845   5.121  0.8636 -0.3205  0.3163
 6969SOL    HW221298   1.408   4.916   5.238  0.5881  0.2406 -0.1742
 6970SOL     OW21299   3.989   0.806   4.926 -0.8585  0.0816  0.2340
 6970SOL    HW121300   3.960   0.719   4.898 -1.3480 -0.1785  1.5053
 6970SOL    HW221301   4.080   0.811   4.897  0.1778 -2.0624  2.6679
 6971SOL     OW21302   5.676   3.706   4.640 -0.4739  0.1557  0.1938
 6971SOL    HW121303   5.594   3.658   4.636 -1.0370  1.1524 -1.1600
 6971SOL    HW221304   5.663   3.781   4.582  0.6374  1.5303  1.6242
 6972SOL     OW21305   4.575   4.718   1.870 -0.0902 -0.6435  0.2178
 6972SOL    HW121306   4.635   4.779   1.915  0.2033  0.6216 -1.7706
 6972SOL    HW221307   4.632   4.659   1.822 -0.1554  2.1873 -3.8576
 6973SOL     OW21308   3.541   0.425   2.763 -0.1763  0.0735  0.0417
 6973SOL    HW121309   3.620   0.375   2.747 -0.1156  0.1894 -0.0165
 6973SOL    HW221310   3.516   0.401   2.853  0.2148  0.4386  0.2487
 6974SOL     OW21311   4.233   1.060   4.752 -0.0149  0.3346 -0.3226
 6974SOL    HW121312   4.321   1.034   4.727 -0.1235  0.1694 -0.5342
 6974SOL    HW221313   4.184   0.977   4.756  0.0081  0.3459  0.4683
 6975SOL     OW21314   6.335   1.740   1.105  0.3225  0.3325 -0.0682
 6975SOL    HW121315   6.269   1.809   1.107 -0.5063 -0.4231  2.6601
 6975SOL    HW221316   6.286   1.660   1.086  1.1225  0.2712 -2.1255
 6976SOL     OW21317   2.370   2.138   6.001 -0.5859  0.0068  0.2573
 6976SOL    HW121318   2.446   2.080   5.998 -0.2187  0.4353  0.9492
 6976SOL    HW221319   2.295   2.081   5.982 -0.1328 -0.5012 -0.0156
 6977SOL     OW21320   2.124   2.876   1.786 -0.5962  0.6193 -0.2754
 6977SOL    HW121321   2.066   2.845   1.856 -0.1283 -1.4036 -0.7260
 6977SOL    HW221322   2.210   2.884   1.827 -0.3842 -0.2778 -0.5273
 6978SOL     OW21323   4.005   5.672   6.522  0.5606  0.0910  0.5280
 6978SOL    HW121324   3.932   5.712   6.474  1.5930  0.4806 -0.7692
 6978SOL    HW221325   4.083   5.714   6.487  1.6649 -2.5497 -0.4259
 6979SOL     OW21326   4.515   2.277   1.813  0.0127 -0.0685  0.0698
 6979SOL    HW121327   4.609   2.260   1.822  0.2467  0.1428 -1.6273
 6979SOL    HW221328   4.501   2.357   1.863  0.7397 -0.1283  0.3804
 6980SOL     OW21329   3.039   2.410   0.492 -0.3984 -0.2812 -0.2725
 6980SOL    HW121330   2.967   2.350   0.511 -0.4139  0.3106  1.8045
 6980SOL    HW221331   3.006   2.465   0.421 -1.2783 -1.1698 -0.5852
 6981SOL     OW21332   0.832   0.142   5.622 -0.1342  0.3149  0.0586
 6981SOL    HW121333   0.778   0.080   5.572  2.6336 -2.1616 -0.1337
 6981SOL    HW221334   0.871   0.089   5.692  2.3938  1.7986 -0.0974
 6982SOL     OW21335   6.773   4.306   6.098 -0.4272 -0.0479  0.0192
 6982SOL    HW121336   6.860   4.343   6.113  0.1561 -1.1008 -0.6368
 6982SOL    HW221337   6.727   4.373   6.048  0.3224  0.1537 -0.4140
 6983SOL     OW21338   5.763   4.294   1.891  0.0172 -0.3592 -0.4091
 6983SOL    HW121339   5.786   4.203   1.875  0.5059 -0.1178 -1.1112
 6983SOL    HW221340   5.706   4.291   1.968 -0.0159 -1.2584 -0.4597
 6984SOL     OW21341   6.113   1.542   5.154  0.4720 -0.5889 -0.3670
 6984SOL    HW121342   6.093   1.449   5.141  1.7492 -0.9413  0.0885
 6984SOL    HW221343   6.207   1.549   5.137  0.3662  0.6505 -0.5293
 6985SOL     OW21344   4.336   5.963   0.018 -0.2967 -0.1950 -0.4352
 6985SOL    HW121345   4.339   5.968  -0.078  0.0135  1.1689 -0.3767
 6985SOL    HW221346   4.251   6.000   0.041 -0.1929 -0.1214 -0.1714
 6986SOL     OW21347   2.406   6.246   4.011  0.3451  0.1270  0.2722
 6986SOL    HW121348   2.426   6.293   4.092 -0.8242 -3.9456  3.3030
 6986SOL    HW221349   2.403   6.313   3.944  1.3284  3.8712  3.5908
 6987SOL     OW21350   1.524   5.690   2.789 -0.0058 -0.0497  0.4551
 6987SOL    HW121351   1.532   5.627   2.717 -0.7750 -1.0102  1.1762
 6987SOL    HW221352   1.499   5.772   2.747 -0.7334 -0.6745 -0.3590
 6988SOL     OW21353   4.815   2.112   6.539 -0.3850 -0.4404  0.0090
 6988SOL    HW121354   4.879   2.048   6.507  1.6638  0.7960  1.3615
 6988SOL    HW221355   4.843   2.195   6.500  0.0339  0.4518  2.0774
 6989SOL     OW21356   6.586   0.338   2.259  0.0670  0.4802 -0.4872
 6989SOL    HW121357   6.518   0.286   2.301  0.0364 -0.8981 -2.1199
 6989SOL    HW221358   6.565   0.335   2.165  2.2651  0.1069 -1.0404
 6990SOL     OW21359   5.541   1.522   0.868  0.0143  0.7053  0.4141
 6990SOL    HW121360   5.586   1.440   0.886 -2.2791 -0.2936  1.9987
 6990SOL    HW221361   5.482   1.534   0.942 -4.2263  0.5520 -2.6137
 6991SOL     OW21362   0.784   1.237   2.617  0.0497 -0.4327  0.3526
 6991SOL    HW121363   0.809   1.283   2.537 -0.5469 -3.3927 -1.6753
 6991SOL    HW221364   0.867   1.207   2.654  0.5271  2.6865  2.1371
 6992SOL     OW21365   5.024   1.149   0.483 -0.4312  0.0178 -0.7131
 6992SOL    HW121366   4.951   1.146   0.422 -0.9180 -1.1399 -0.1218
 6992SOL    HW221367   5.002   1.084   0.550 -0.3240  1.7949  1.1525
 6993SOL     OW21368   3.904   0.810   4.054  0.1184 -0.5393 -0.1494
 6993SOL    HW121369   3.890   0.799   4.148  0.4755  2.2462  0.2951
 6993SOL    HW221370   3.967   0.741   4.031 -0.0041 -1.2853  1.6188
 6994SOL     OW21371   2.061   3.773   2.312  0.7585 -0.5889  0.6175
 6994SOL    HW121372   2.010   3.719   2.373 -0.1753 -0.1177  0.2821
 6994SOL    HW221373   1.995   3.826   2.267  1.4258 -0.8482 -0.7257
 6995SOL     OW21374   1.708   3.121   3.338 -0.3543 -0.4814 -0.0993
 6995SOL    HW121375   1.744   3.137   3.425  2.2454 -0.1764 -1.1565
 6995SOL    HW221376   1.652   3.197   3.321  0.7082  0.4689  0.5288
 6996SOL     OW21377   5.062   1.156   4.902 -0.9584  0.0098  0.3114
 6996SOL    HW121378   5.083   1.203   4.982  1.6632  1.2731 -1.0129
 6996SOL    HW221379   5.074   1.063   4.924  1.7225  0.4386  0.9157
 6997SOL     OW21380   6.495   5.047   4.059 -0.2290 -0.2000  0.0760
 6997SOL    HW121381   6.443   5.052   4.139  0.4443  0.4620  0.4806
 6997SOL    HW221382   6.585   5.049   4.089  0.0338  0.2503 -0.7112
 6998SOL     OW21383   0.824   3.164   3.853  0.5347  0.4727 -0.0563
 6998SOL    HW121384   0.744   3.181   3.904  0.1909  0.6292 -0.6431
 6998SOL    HW221385   0.888   3.225   3.889  0.4088  0.3100  0.4560
 6999SOL     OW21386   2.660   1.660   1.632 -0.3033 -0.4857  0.2674
 6999SOL    HW121387   2.649   1.589   1.569 -0.1248 -0.0889 -0.2156
 6999SOL    HW221388   2.748   1.646   1.669 -0.0580 -0.2088 -0.2119
 7000SOL     OW21389   3.053   3.035   1.207  0.3563  0.1280 -0.2510
 7000SOL    HW121390   3.131   2.991   1.241 -0.0423 -0.4139 -0.0367
 7000SOL    HW221391   2.986   3.021   1.274 -0.2009 -0.2386 -0.8786
 7001SOL     OW21392   2.324   0.529   0.908  0.0414  0.4012  0.1185
 7001SOL    HW121393   2.357   0.445   0.876  0.5359  1.4631 -2.4084
 7001SOL    HW221394   2.403   0.579   0.930  0.0061  1.4727 -1.9757
 7002SOL     OW21395   6.327   5.987   1.096  0.3739  0.1704  0.2245
 7002SOL    HW121396   6.369   6.020   1.175 -0.0807  1.3262  0.0048
 7002SOL    HW221397   6.297   5.899   1.120 -0.3898  0.7608  1.5875
 7003SOL     OW21398   3.328   3.250   3.878 -0.0229 -0.5220  0.6737
 7003SOL    HW121399   3.282   3.239   3.795  0.3418 -1.9136  0.6392
 7003SOL    HW221400   3.317   3.166   3.923  0.4154 -0.0379  1.7112
 7004SOL     OW21401   4.647   2.693   4.083 -0.9124  0.1433  0.1797
 7004SOL    HW121402   4.660   2.757   4.012 -1.1844 -0.3277 -0.3077
 7004SOL    HW221403   4.641   2.609   4.038  1.4144 -0.5090  0.9566
 7005SOL     OW21404   2.780   4.573   0.075  0.2891 -0.5242 -0.6023
 7005SOL    HW121405   2.831   4.586   0.155  0.9704 -0.5242 -1.0370
 7005SOL    HW221406   2.689   4.580   0.104  0.4791 -1.9542  0.4456
 7006SOL     OW21407   1.238   6.016   2.807  0.4990 -0.0384  0.1460
 7006SOL    HW121408   1.329   5.995   2.828  0.1757 -1.5576  0.1754
 7006SOL    HW221409   1.238   6.027   2.711  0.2286 -3.1416 -0.3212
 7007SOL     OW21410   1.798   2.443   6.539  0.0903 -0.7978 -0.4455
 7007SOL    HW121411   1.775   2.432   6.631  0.0343 -0.2519 -0.3891
 7007SOL    HW221412   1.732   2.504   6.505  0.2260 -0.8441 -0.7934
 7008SOL     OW21413   3.170   6.427   5.119 -0.7708 -0.1985 -0.0282
 7008SOL    HW121414   3.248   6.409   5.068 -0.7028  2.2606 -0.9107
 7008SOL    HW221415   3.116   6.348   5.109  0.1591 -0.6377 -2.1304
 7009SOL     OW21416   4.981   5.010   1.079  1.0447 -0.1807 -0.2497
 7009SOL    HW121417   4.976   5.063   0.999  0.1864  0.4759  0.2237
 7009SOL    HW221418   5.009   5.072   1.146  2.1384 -0.8117 -0.0970
 7010SOL     OW21419   1.300   1.371   4.954  0.0716 -0.2548  0.6060
 7010SOL    HW121420   1.378   1.343   4.906 -0.2067  0.6862 -0.4674
 7010SOL    HW221421   1.231   1.373   4.887 -0.6839 -0.3251  1.3717
 7011SOL     OW21422   4.171   4.575   6.765 -0.3100 -0.2377 -0.2454
 7011SOL    HW121423   4.087   4.560   6.722 -1.5355 -1.1897  2.2849
 7011SOL    HW221424   4.190   4.667   6.746 -2.2133  0.1734 -0.4338
 7012SOL     OW21425   6.056   3.153   5.653 -0.2041 -0.1980  0.1466
 7012SOL    HW121426   6.112   3.123   5.581 -0.4880 -0.3152 -0.0267
 7012SOL    HW221427   5.979   3.190   5.610  0.7673  2.1740  0.2989
 7013SOL     OW21428   2.135   0.655   4.548 -0.0892  0.5097 -0.0088
 7013SOL    HW121429   2.104   0.623   4.463  1.1571  1.1506 -0.7414
 7013SOL    HW221430   2.060   0.646   4.606 -0.7911 -0.5058 -1.0291
 7014SOL     OW21431   0.907   0.920   5.524 -0.3254  0.3488  0.2649
 7014SOL    HW121432   0.904   1.016   5.533  0.7003  0.5473 -1.1226
 7014SOL    HW221433   0.871   0.904   5.436 -2.1972 -0.7065  1.1758
 7015SOL     OW21434   3.357   3.914   5.285 -0.1706  0.1053  0.1215
 7015SOL    HW121435   3.291   3.848   5.268 -0.0513 -0.1662  0.6815
 7015SOL    HW221436   3.334   3.987   5.228  0.4740 -0.9214 -1.5383
 7016SOL     OW21437   1.672   3.137   2.549 -0.4015  0.0904 -0.4262
 7016SOL    HW121438   1.707   3.107   2.632 -1.7780 -0.1511  0.0883
 7016SOL    HW221439   1.587   3.176   2.571 -0.8194 -0.0357 -1.7196
 7017SOL     OW21440   5.507   1.928   5.342 -0.0569  0.4524  0.5532
 7017SOL    HW121441   5.429   1.873   5.351 -0.2372  0.6695  0.3267
 7017SOL    HW221442   5.563   1.881   5.280 -0.9523  1.3455 -0.9803
 7018SOL     OW21443   1.548   4.573   2.425  0.1576  0.1569  0.1099
 7018SOL    HW121444   1.535   4.634   2.353 -1.2769  0.8865  0.9493
 7018SOL    HW221445   1.523   4.488   2.389 -1.1413  0.6086 -0.0803
 7019SOL     OW21446   2.289   4.666   5.622 -0.3750  0.0275 -0.8892
 7019SOL    HW121447   2.282   4.628   5.710 -1.0259  0.5723 -0.6971
 7019SOL    HW221448   2.382   4.689   5.614 -0.5228  1.1290  0.1637
 7020SOL     OW21449   4.347   0.112   2.853  0.5730 -0.1696 -0.0886
 7020SOL    HW121450   4.286   0.047   2.819 -0.6699 -0.0179  1.7073
 7020SOL    HW221451   4.292   0.172   2.904  1.7883  1.8394 -1.0092
 7021SOL     OW21452   3.151   0.651   4.069 -0.2631  0.0530  0.3322
 7021SOL    HW121453   3.119   0.575   4.021  0.7749 -0.3310  0.2176
 7021SOL    HW221454   3.111   0.726   4.025 -0.8113 -0.3943  0.0621
 7022SOL     OW21455   5.927   1.990   2.324  0.2484  0.3662 -0.0955
 7022SOL    HW121456   5.976   2.015   2.403  1.2898  2.1931 -1.2656
 7022SOL    HW221457   5.843   2.036   2.332 -0.0356 -0.2096  0.3652
 7023SOL     OW21458   3.201   0.724   5.598  0.0448  0.5996 -0.1617
 7023SOL    HW121459   3.274   0.769   5.641 -0.6120  0.0832  1.5814
 7023SOL    HW221460   3.227   0.632   5.597  0.3399  0.6730 -1.5458
 7024SOL     OW21461   1.096   3.521   0.295 -0.2515 -0.3645  0.1558
 7024SOL    HW121462   1.026   3.587   0.295 -0.3671 -0.4135  2.5340
 7024SOL    HW221463   1.081   3.469   0.374  0.8606 -2.1769 -0.7466
 7025SOL     OW21464   3.901   4.591   6.630 -0.0800 -0.5585 -0.8399
 7025SOL    HW121465   3.812   4.589   6.665  0.6901 -0.6265  1.2265
 7025SOL    HW221466   3.915   4.683   6.607 -0.5296 -0.4746 -0.7861
 7026SOL     OW21467   6.353   4.962   5.813 -0.0535  0.4907 -0.4073
 7026SOL    HW121468   6.367   4.900   5.741 -1.3440 -1.0508  0.6178
 7026SOL    HW221469   6.373   4.912   5.892 -2.6858  0.8349  0.5543
 7027SOL     OW21470   0.856   5.936   6.402  0.1420  0.2792  0.4352
 7027SOL    HW121471   0.917   5.993   6.449  2.3475 -0.6816 -1.0811
 7027SOL    HW221472   0.860   5.967   6.312  0.9203 -1.8012 -0.3053
 7028SOL     OW21473   5.678   1.822   0.751 -0.3332 -0.4586  0.4382
 7028SOL    HW121474   5.629   1.858   0.676 -0.7737 -1.1295  0.4017
 7028SOL    HW221475   5.662   1.728   0.747  0.6373 -0.6378  0.6694
 7029SOL     OW21476   0.370   4.860   5.276  0.2668 -0.0762 -0.2564
 7029SOL    HW121477   0.276   4.870   5.294  0.3706 -0.4513  0.5283
 7029SOL    HW221478   0.374   4.796   5.204 -0.0288 -1.3832  0.8437
 7030SOL     OW21479   0.084   4.002   5.580 -0.6199  0.0617 -0.4166
 7030SOL    HW121480   0.109   4.079   5.631 -1.9609  0.1367  0.1835
 7030SOL    HW221481   0.122   4.017   5.493 -0.3747  1.1170 -0.1412
 7031SOL     OW21482   3.530   3.620   5.908 -0.2914 -0.2291 -0.8178
 7031SOL    HW121483   3.585   3.542   5.914  2.0261  1.2371 -1.5340
 7031SOL    HW221484   3.581   3.682   5.856 -1.8637  1.9073 -0.0084
 7032SOL     OW21485   4.360   0.947   1.569 -0.1939  0.2916  0.2387
 7032SOL    HW121486   4.440   0.939   1.517  0.3961 -0.2520  1.2169
 7032SOL    HW221487   4.289   0.929   1.507  0.4250  0.8913 -0.6618
 7033SOL     OW21488   1.594   1.044   4.045 -0.5828  0.1496 -0.1459
 7033SOL    HW121489   1.532   1.069   3.977 -0.7873 -0.3174 -0.1391
 7033SOL    HW221490   1.590   0.948   4.047  1.6025 -0.0396 -1.5139
 7034SOL     OW21491   6.169   5.319   4.021  0.1981 -0.0209  0.1693
 7034SOL    HW121492   6.082   5.360   4.014  0.6821  0.9312 -0.3868
 7034SOL    HW221493   6.218   5.378   4.079  1.8366  1.8960 -2.9089
 7035SOL     OW21494   5.425   0.902   1.687  0.4608 -0.1418 -0.0440
 7035SOL    HW121495   5.487   0.975   1.690  2.3244 -1.7011  1.3235
 7035SOL    HW221496   5.412   0.878   1.779 -1.7811 -0.2253 -0.3309
 7036SOL     OW21497   5.382   1.720   1.018  0.5218 -0.6376 -0.5647
 7036SOL    HW121498   5.319   1.790   1.004 -1.5860 -2.2113  0.5487
 7036SOL    HW221499   5.333   1.639   1.002  2.4688 -1.9300 -0.4041
 7037SOL     OW21500   4.453   2.003   0.541 -0.1354 -0.3161 -0.1684
 7037SOL    HW121501   4.440   2.048   0.625 -1.7985  0.3083 -0.7120
 7037SOL    HW221502   4.377   2.028   0.489  0.2647 -1.6471 -1.4561
 7038SOL     OW21503   6.325   1.245   3.639 -0.4025 -0.1916  0.1061
 7038SOL    HW121504   6.381   1.268   3.565 -2.6344  0.8694 -1.3694
 7038SOL    HW221505   6.346   1.309   3.706  0.1793  0.1523 -0.3897
 7039SOL     OW21506   5.270   2.077   0.066  0.0939 -0.3008  0.4164
 7039SOL    HW121507   5.349   2.022   0.067  0.3955  0.0990  2.4004
 7039SOL    HW221508   5.206   2.028   0.119 -0.7414 -0.2426 -0.5127
 7040SOL     OW21509   5.828   0.209   3.914 -0.2968 -0.0849  0.0909
 7040SOL    HW121510   5.837   0.199   3.819 -2.0817 -0.3000 -0.0828
 7040SOL    HW221511   5.875   0.290   3.933 -0.2022  0.1496 -1.0314
 7041SOL     OW21512   0.798   5.946   0.858 -0.0389  0.4375  0.3359
 7041SOL    HW121513   0.736   5.873   0.856  0.8935 -0.4048  1.2941
 7041SOL    HW221514   0.837   5.946   0.770 -0.5781  0.2463  0.0961
 7042SOL     OW21515   5.830   4.225   4.106  0.0686  0.0391  0.3950
 7042SOL    HW121516   5.756   4.273   4.144 -0.9720 -0.7954 -0.5158
 7042SOL    HW221517   5.851   4.158   4.172 -0.8485 -0.5388  0.1260
 7043SOL     OW21518   4.797   1.559   1.037  0.3664  0.1176  0.0169
 7043SOL    HW121519   4.772   1.592   0.950 -2.5153  0.6947  0.9626
 7043SOL    HW221520   4.859   1.623   1.071 -0.7845  1.5134 -0.4440
 7044SOL     OW21521   2.418   1.668   0.373  0.0535  0.8175  0.1578
 7044SOL    HW121522   2.436   1.697   0.463 -0.0153  0.2346  0.3645
 7044SOL    HW221523   2.437   1.574   0.375  0.2743  0.8474 -0.4981
 7045SOL     OW21524   4.776   3.011   0.866  0.0431  0.5944  0.6507
 7045SOL    HW121525   4.792   3.074   0.796  0.0172 -0.2662 -0.1548
 7045SOL    HW221526   4.726   2.941   0.824 -0.8605  0.5457  1.7848
 7046SOL     OW21527   2.301   3.816   4.120 -0.0070 -0.6523  0.5282
 7046SOL    HW121528   2.311   3.735   4.170 -0.3591 -0.7344  0.4700
 7046SOL    HW221529   2.288   3.786   4.029  0.2873 -0.5156  0.4391
 7047SOL     OW21530   6.101   3.231   2.186  0.4656  0.6810  0.1500
 7047SOL    HW121531   6.145   3.220   2.271  1.5079 -1.5220 -0.5895
 7047SOL    HW221532   6.162   3.195   2.122 -1.9365 -1.6307 -1.0547
 7048SOL     OW21533   4.575   3.945   5.736  0.1899  0.2046  0.5937
 7048SOL    HW121534   4.624   4.026   5.722  0.1087  0.1198 -0.2211
 7048SOL    HW221535   4.638   3.887   5.779  0.6145  0.3131  0.1346
 7049SOL     OW21536   5.227   5.611   3.069  0.0599 -0.2680  0.0624
 7049SOL    HW121537   5.314   5.613   3.030 -0.8048 -0.9160 -2.0585
 7049SOL    HW221538   5.237   5.655   3.153  2.2112  0.5170 -0.5451
 7050SOL     OW21539   4.926   6.627   0.059 -0.4018 -0.3174 -0.2914
 7050SOL    HW121540   5.009   6.666   0.087 -0.2051 -1.2763  0.5153
 7050SOL    HW221541   4.950   6.574  -0.017 -0.5302  0.4644 -0.8940
 7051SOL     OW21542   4.504   5.759   4.105  0.1207  0.2277  0.0445
 7051SOL    HW121543   4.454   5.691   4.150  0.6185 -0.2668 -0.1369
 7051SOL    HW221544   4.495   5.836   4.162  1.4598 -0.6147  1.4867
 7052SOL     OW21545   6.208   2.997   3.618  0.0886 -0.2393  0.2311
 7052SOL    HW121546   6.221   3.084   3.657 -1.7629 -0.3528  1.2211
 7052SOL    HW221547   6.268   2.995   3.544  1.3116  1.2786  1.1152
 7053SOL     OW21548   1.565   0.325   6.303  0.4716  0.5374  0.2982
 7053SOL    HW121549   1.546   0.245   6.255  0.6525 -0.6855  2.1747
 7053SOL    HW221550   1.557   0.395   6.238 -3.0043 -0.5986 -0.7096
 7054SOL     OW21551   5.571   1.372   4.185 -0.1143  0.4736  0.1053
 7054SOL    HW121552   5.494   1.361   4.241  0.2765  0.2273  0.6030
 7054SOL    HW221553   5.597   1.283   4.163  0.7217  0.5113  0.9087
 7055SOL     OW21554   4.743   2.031   0.575  0.0313 -0.4180  0.6967
 7055SOL    HW121555   4.807   2.048   0.506  0.1310 -0.0108  0.8860
 7055SOL    HW221556   4.660   2.018   0.528  0.1249 -0.2834  0.4930
 7056SOL     OW21557   6.303   4.158   4.987  0.2311  0.4237  0.1263
 7056SOL    HW121558   6.306   4.224   5.056 -0.2112  0.7286 -0.1402
 7056SOL    HW221559   6.301   4.074   5.033  0.4907  0.6068  0.4701
 7057SOL     OW21560   1.431   2.323   5.456  0.0054 -0.1120  0.5995
 7057SOL    HW121561   1.475   2.346   5.537  1.4220 -0.1825 -0.1240
 7057SOL    HW221562   1.501   2.313   5.392 -0.8734 -2.0991 -0.1617
 7058SOL     OW21563   0.377   3.620   5.718 -0.1195  0.0865 -0.2993
 7058SOL    HW121564   0.397   3.712   5.734  1.1401  0.0432 -1.4610
 7058SOL    HW221565   0.355   3.615   5.625 -4.0037 -0.2001  0.4817
 7059SOL     OW21566   5.533   2.368   5.089  0.2367  0.3247 -0.0617
 7059SOL    HW121567   5.544   2.376   5.184 -2.5438  0.4878  0.3231
 7059SOL    HW221568   5.501   2.453   5.061 -0.2931 -0.1383 -0.9085
 7060SOL     OW21569   4.393   2.783   5.514  0.0837 -0.3565 -0.2759
 7060SOL    HW121570   4.431   2.863   5.548 -0.5671 -0.5185  0.8521
 7060SOL    HW221571   4.311   2.771   5.562 -1.5231  0.0484 -2.7341
 7061SOL     OW21572   3.032   6.072   0.029 -0.6349 -0.4317  0.7565
 7061SOL    HW121573   3.053   5.979   0.035  2.9925  0.1031 -0.9548
 7061SOL    HW221574   2.992   6.082  -0.058  1.5279 -0.1156 -0.2659
 7062SOL     OW21575   1.984   6.699   4.124  0.5274  0.3603  0.1652
 7062SOL    HW121576   1.921   6.743   4.067 -0.5988 -1.5321 -0.1484
 7062SOL    HW221577   2.045   6.655   4.065 -0.2445 -1.0517  0.3531
 7063SOL     OW21578   5.877   6.663   5.928 -0.7452 -0.6836  0.1734
 7063SOL    HW121579   5.790   6.625   5.945 -1.8054  1.0171 -1.1201
 7063SOL    HW221580   5.864   6.719   5.852  1.3350  0.2578  0.4496
 7064SOL     OW21581   3.084   5.914   0.578  0.2281 -0.4905 -0.4560
 7064SOL    HW121582   3.148   5.974   0.615 -1.4831 -0.5557  2.9488
 7064SOL    HW221583   3.028   5.969   0.524  0.8651  0.2514 -0.3822
 7065SOL     OW21584   0.198   2.580   1.400 -0.3678  0.1789 -0.2966
 7065SOL    HW121585   0.242   2.497   1.381 -0.0093 -0.4481  2.8086
 7065SOL    HW221586   0.249   2.645   1.351  0.2340 -1.2163 -1.6295
 7066SOL     OW21587   1.260   0.232   6.464  0.0385 -0.4675  0.3588
 7066SOL    HW121588   1.166   0.224   6.480 -0.6758  2.0624 -1.8810
 7066SOL    HW221589   1.292   0.142   6.462 -2.2662 -1.3751  1.4483
 7067SOL     OW21590   5.695   5.612   1.127  0.5584  0.1844  0.7209
 7067SOL    HW121591   5.711   5.644   1.038 -1.1538  0.2233  0.3995
 7067SOL    HW221592   5.686   5.692   1.179 -1.4715  0.2515  0.3343
 7068SOL     OW21593   3.356   1.082   3.028 -0.3659  0.5523  0.0406
 7068SOL    HW121594   3.416   1.007   3.030 -0.1669  0.7074 -0.0749
 7068SOL    HW221595   3.386   1.139   3.098 -0.9668  0.1855  0.6117
 7069SOL     OW21596   6.671   6.274   0.134 -0.9907 -0.4278  0.1080
 7069SOL    HW121597   6.644   6.202   0.078 -1.8919 -1.5214  1.8447
 7069SOL    HW221598   6.766   6.266   0.141 -0.3793  1.5625 -3.5502
 7070SOL     OW21599   3.280   6.137   0.884 -0.3271  0.1146  0.2457
 7070SOL    HW121600   3.257   6.070   0.948  0.3731 -0.4171 -0.0461
 7070SOL    HW221601   3.375   6.146   0.891 -0.4345  1.2710  0.4618
 7071SOL     OW21602   3.841   1.080   4.050  0.1892  0.2655  0.1374
 7071SOL    HW121603   3.856   0.986   4.058  1.2890  0.3990 -0.1578
 7071SOL    HW221604   3.878   1.103   3.965  2.4621  1.4000  1.3234
 7072SOL     OW21605   3.984   0.386   2.791 -0.2867  0.0688 -0.1070
 7072SOL    HW121606   3.937   0.460   2.830 -0.2634 -0.2807  0.5958
 7072SOL    HW221607   4.076   0.413   2.791 -0.4253  0.5812 -1.0955
 7073SOL     OW21608   0.854   1.590   6.380 -0.6295  0.4692 -0.3066
 7073SOL    HW121609   0.764   1.561   6.360  0.3794 -0.9491 -3.4212
 7073SOL    HW221610   0.894   1.515   6.423 -0.5975  0.6405 -0.0399
 7074SOL     OW21611   4.909   6.605   2.149 -0.1253 -0.0568 -0.1036
 7074SOL    HW121612   4.995   6.589   2.112 -0.2180  2.2847 -1.5414
 7074SOL    HW221613   4.878   6.683   2.104 -3.1165 -0.9520  0.2095
 7075SOL     OW21614   2.379   3.067   5.935 -0.1707 -0.0932 -0.0804
 7075SOL    HW121615   2.337   3.135   5.988  1.0309 -0.0808  0.9425
 7075SOL    HW221616   2.378   2.989   5.991 -2.3980 -1.2449 -1.6120
 7076SOL     OW21617   3.915   2.401   4.610  1.1550  0.8511 -0.0972
 7076SOL    HW121618   3.845   2.363   4.663  0.7539  1.1029 -0.4405
 7076SOL    HW221619   3.960   2.326   4.572  1.0444  0.6893  0.0889
 7077SOL     OW21620   2.516   4.254   0.150 -0.1585  0.5004 -0.0811
 7077SOL    HW121621   2.470   4.226   0.070  0.5733 -1.0090 -0.0023
 7077SOL    HW221622   2.603   4.279   0.120 -0.3005  1.2467  0.0859
 7078SOL     OW21623   4.582   1.480   3.410 -0.0689 -0.0625  0.1994
 7078SOL    HW121624   4.560   1.527   3.490 -0.3924  4.6828 -2.3368
 7078SOL    HW221625   4.508   1.420   3.397 -0.8276  0.2640  2.5108
 7079SOL     OW21626   0.451   2.662   2.079 -0.0432  0.4136  0.1487
 7079SOL    HW121627   0.443   2.728   2.148 -1.6489  1.8489 -1.3159
 7079SOL    HW221628   0.387   2.689   2.013  1.4571 -0.8620 -1.9371
 7080SOL     OW21629   1.741   1.261   1.280 -0.1892  0.0498  0.1434
 7080SOL    HW121630   1.672   1.230   1.339  0.1214  1.2751  1.1868
 7080SOL    HW221631   1.714   1.350   1.256  0.3214  0.0163 -0.5767
 7081SOL     OW21632   1.316   6.013   1.243  0.1624 -0.1506  0.2558
 7081SOL    HW121633   1.327   6.089   1.185  2.2917 -0.1988  0.5134
 7081SOL    HW221634   1.288   6.051   1.327 -0.6550  0.1366 -0.1317
 7082SOL     OW21635   5.521   4.866   5.067  0.6825 -0.0952 -0.0790
 7082SOL    HW121636   5.550   4.871   5.158 -0.4084 -0.7578  0.3321
 7082SOL    HW221637   5.433   4.828   5.073 -0.7203  2.6964 -1.1600
 7083SOL     OW21638   1.276   4.142   1.613 -0.6019  0.4840 -0.0997
 7083SOL    HW121639   1.248   4.223   1.655 -0.3449  1.0738 -1.0363
 7083SOL    HW221640   1.196   4.106   1.574 -0.4588  1.0627 -0.9477
 7084SOL     OW21641   4.158   0.103   5.594  0.7619 -0.3929 -0.3234
 7084SOL    HW121642   4.225   0.039   5.571 -0.0139 -0.6555 -1.9654
 7084SOL    HW221643   4.153   0.162   5.519 -0.0325  0.3094  0.2605
 7085SOL     OW21644   2.416   5.771   0.859 -0.1607 -0.1554 -0.2955
 7085SOL    HW121645   2.340   5.717   0.838  0.8794 -0.7212 -3.0621
 7085SOL    HW221646   2.390   5.860   0.833 -0.9756  0.3083  1.8945
 7086SOL     OW21647   3.426   0.218   4.465 -0.3313  0.1116 -0.1973
 7086SOL    HW121648   3.354   0.178   4.514  0.5536 -1.4144 -0.0897
 7086SOL    HW221649   3.503   0.169   4.491  0.9616  2.3432  0.4462
 7087SOL     OW21650   6.477   5.252   6.402  0.1525 -0.0399  0.3972
 7087SOL    HW121651   6.405   5.277   6.460 -0.7859  0.6413 -0.9950
 7087SOL    HW221652   6.481   5.156   6.409 -0.6414 -0.0585  0.7890
 7088SOL     OW21653   4.546   5.486   0.777  0.6035  0.2690  0.3483
 7088SOL    HW121654   4.577   5.452   0.861  2.3526 -2.0424 -1.1065
 7088SOL    HW221655   4.528   5.578   0.794 -0.3429 -0.3777  3.5413
 7089SOL     OW21656   6.777   2.874   2.592  0.5921 -0.0525  0.2362
 7089SOL    HW121657   6.734   2.804   2.641  0.1729  0.4549  0.5992
 7089SOL    HW221658   6.863   2.882   2.633 -0.3682  1.5632  2.1066
 7090SOL     OW21659   2.176   0.508   3.306  0.1222  0.2506 -0.4511
 7090SOL    HW121660   2.160   0.592   3.263 -0.6233  0.1928 -0.2945
 7090SOL    HW221661   2.093   0.486   3.347 -0.1269 -1.2392 -1.6623
 7091SOL     OW21662   3.501   6.704   4.759  0.2155 -0.9230  0.2886
 7091SOL    HW121663   3.461   6.655   4.831 -1.4466  0.4511  0.3688
 7091SOL    HW221664   3.486   6.796   4.782  0.5158 -0.4359 -1.3431
 7092SOL     OW21665   4.502   1.549   3.683  0.1581 -0.0647 -0.2258
 7092SOL    HW121666   4.416   1.571   3.719  0.5089  0.8748  0.0636
 7092SOL    HW221667   4.516   1.458   3.709 -0.7903 -0.2630 -0.3687
 7093SOL     OW21668   2.394   1.484   3.420 -0.0407  0.5027 -0.1319
 7093SOL    HW121669   2.399   1.538   3.499 -2.1585 -0.5027  0.7515
 7093SOL    HW221670   2.398   1.546   3.347  1.8807  1.4511  0.7234
 7094SOL     OW21671   6.732   4.341   5.516 -0.4950  0.1107 -0.3013
 7094SOL    HW121672   6.815   4.315   5.555 -0.7289 -0.6972 -0.3260
 7094SOL    HW221673   6.666   4.317   5.581 -0.9087 -1.4625 -1.2324
 7095SOL     OW21674   2.273   0.694   4.840 -0.1090 -0.5653 -0.2254
 7095SOL    HW121675   2.258   0.629   4.772 -1.5183 -0.0938 -0.3897
 7095SOL    HW221676   2.274   0.778   4.794 -1.0501 -0.2462  0.3254
 7096SOL     OW21677   0.395   2.103   6.450  0.7675  0.2166  0.4901
 7096SOL    HW121678   0.456   2.175   6.465  0.7655  0.1746  0.7104
 7096SOL    HW221679   0.450   2.027   6.431  0.7442  0.5082 -0.8223
 7097SOL     OW21680   3.355   4.022   1.770  0.3743  0.2934 -0.7285
 7097SOL    HW121681   3.359   3.993   1.861 -0.6721  0.1925 -0.7039
 7097SOL    HW221682   3.430   3.980   1.728  0.2819 -0.4771 -0.1389
 7098SOL     OW21683   4.680   6.761   0.080  0.0336  0.0357 -0.8032
 7098SOL    HW121684   4.771   6.732   0.079  0.0417  0.0181 -0.0259
 7098SOL    HW221685   4.654   6.759  -0.012  1.4766  2.1803 -1.3324
 7099SOL     OW21686   6.542   3.135   0.855  0.4377  0.4542 -0.1764
 7099SOL    HW121687   6.556   3.045   0.885  1.7323  0.5145 -0.5735
 7099SOL    HW221688   6.463   3.163   0.901 -1.6587 -1.8036 -2.1039
 7100SOL     OW21689   4.010   1.678   4.075 -0.2095 -0.0758 -0.3028
 7100SOL    HW121690   3.931   1.710   4.117 -0.0064  0.1059 -0.0507
 7100SOL    HW221691   4.063   1.643   4.147 -0.1445 -0.3754 -0.4924
 7101SOL     OW21692   2.547   0.902   4.388 -0.5106 -0.4651  0.1718
 7101SOL    HW121693   2.479   0.851   4.431 -0.6316 -0.8828 -0.4944
 7101SOL    HW221694   2.627   0.850   4.398 -0.8950 -1.5051 -1.6967
 7102SOL     OW21695   3.356   0.919   0.469  0.7376 -0.1500 -0.0102
 7102SOL    HW121696   3.394   0.833   0.489  0.9627  0.1008  0.6320
 7102SOL    HW221697   3.356   0.922   0.373 -1.4334 -1.8451 -0.1586
 7103SOL     OW21698   6.182   2.018   5.175  0.2500 -0.0790  1.0110
 7103SOL    HW121699   6.124   1.942   5.184 -0.6635  0.5848  0.8555
 7103SOL    HW221700   6.136   2.076   5.114  1.1532  0.3963  0.7699
 7104SOL     OW21701   6.652   3.452   5.799  0.4825  0.0442 -0.2452
 7104SOL    HW121702   6.729   3.476   5.746  0.4962 -1.1098 -0.7897
 7104SOL    HW221703   6.662   3.358   5.814 -1.4103 -0.3777 -1.3279
 7105SOL     OW21704   1.792   4.554   3.734  0.0384 -0.1147  0.4300
 7105SOL    HW121705   1.815   4.461   3.737  1.8471  0.3160  1.6797
 7105SOL    HW221706   1.730   4.567   3.806  1.8410  0.0827  2.0345
 7106SOL     OW21707   0.736   5.729   4.756  0.7175  0.2823  0.2646
 7106SOL    HW121708   0.704   5.789   4.689 -0.7910  0.1684  0.8508
 7106SOL    HW221709   0.727   5.642   4.717 -0.6066  0.1792  0.7572
 7107SOL     OW21710   4.826   2.065   2.779  0.2565 -0.0333 -0.2455
 7107SOL    HW121711   4.891   2.133   2.794 -0.4436  0.4027  1.0030
 7107SOL    HW221712   4.836   2.041   2.687  1.6054  0.6004 -0.2834
 7108SOL     OW21713   1.700   1.458   5.225  0.0640 -0.6996 -0.2805
 7108SOL    HW121714   1.772   1.496   5.275 -0.9391 -0.3018  0.9070
 7108SOL    HW221715   1.743   1.408   5.155  1.4653 -0.0221  0.0625
 7109SOL     OW21716   6.519   6.299   5.585  0.0919 -0.4702  0.6820
 7109SOL    HW121717   6.563   6.353   5.519 -0.7300  0.2447  0.6962
 7109SOL    HW221718   6.479   6.362   5.645 -0.8236 -1.0853  0.7488
 7110SOL     OW21719   0.674   5.005   0.045 -1.6112  0.1993 -0.4420
 7110SOL    HW121720   0.725   4.930   0.076 -0.0749  1.3838  0.0630
 7110SOL    HW221721   0.691   5.074   0.109 -1.2728  1.6153 -1.9717
 7111SOL     OW21722   4.994   0.415   3.571  0.0163  0.0768 -0.1980
 7111SOL    HW121723   5.072   0.359   3.581  0.1993  0.4340  0.4049
 7111SOL    HW221724   5.029   0.504   3.562 -0.3066  0.1845 -0.4225
 7112SOL     OW21725   2.839   3.000   2.185 -0.1105 -0.2956  0.0222
 7112SOL    HW121726   2.776   3.048   2.239  0.4690 -1.1157  1.4674
 7112SOL    HW221727   2.855   2.919   2.232  0.9305 -0.7556 -1.0621
 7113SOL     OW21728   3.338   2.106   6.248 -0.0682  0.3024 -0.0303
 7113SOL    HW121729   3.413   2.166   6.236 -0.2702  0.5562 -0.0408
 7113SOL    HW221730   3.305   2.092   6.159 -0.1526  0.3480 -0.0063
 7114SOL     OW21731   1.448   1.751   3.318 -0.2569  0.3793 -0.6102
 7114SOL    HW121732   1.537   1.762   3.352 -0.5703  2.1648 -0.2316
 7114SOL    HW221733   1.416   1.671   3.358  0.8060  0.3085  0.1269
 7115SOL     OW21734   4.562   6.764   3.468 -0.3078 -0.0684 -0.4520
 7115SOL    HW121735   4.626   6.826   3.431  1.1043 -1.1647  0.0283
 7115SOL    HW221736   4.544   6.703   3.396  0.3193 -0.5850 -0.1918
 7116SOL     OW21737   0.842   0.388   1.991 -0.4102 -0.1953 -0.3569
 7116SOL    HW121738   0.787   0.362   1.918  0.4622  0.2543 -1.1962
 7116SOL    HW221739   0.871   0.477   1.969 -2.4733  1.1650  1.9170
 7117SOL     OW21740   2.981   2.822   5.865 -0.3203 -0.4252  0.1280
 7117SOL    HW121741   2.960   2.829   5.771 -0.0621 -0.1778  0.0869
 7117SOL    HW221742   2.896   2.806   5.907 -0.7531  1.3831  0.0504
 7118SOL     OW21743   1.126   0.692   3.125  0.0581  0.6333 -0.1951
 7118SOL    HW121744   1.057   0.636   3.088 -0.0911  1.4865 -1.2812
 7118SOL    HW221745   1.207   0.656   3.088  0.2913 -0.6598  1.4490
 7119SOL     OW21746   4.680   0.110   3.315 -0.5922 -0.2508  0.3008
 7119SOL    HW121747   4.639   0.194   3.294 -0.1338  0.1151  0.8451
 7119SOL    HW221748   4.767   0.133   3.345  0.4393 -1.0811 -1.8411
 7120SOL     OW21749   4.314   2.200   3.189 -0.1974 -0.5137 -0.4272
 7120SOL    HW121750   4.312   2.293   3.213 -0.1596 -0.2099 -1.5191
 7120SOL    HW221751   4.293   2.153   3.270 -1.4686  0.4937 -0.1351
 7121SOL     OW21752   0.770   1.063   2.216 -0.1351 -0.6342  0.1276
 7121SOL    HW121753   0.859   1.028   2.214 -0.3775 -1.2719 -1.9714
 7121SOL    HW221754   0.774   1.141   2.160 -0.9388 -0.7813 -0.1385
 7122SOL     OW21755   2.826   5.410   2.482 -0.0319 -0.1072 -0.0781
 7122SOL    HW121756   2.915   5.398   2.515 -1.1890 -1.0557  3.0370
 7122SOL    HW221757   2.795   5.322   2.465 -0.7588  0.1334 -0.0295
 7123SOL     OW21758   3.432   0.456   4.008  0.0417 -0.2499  0.3828
 7123SOL    HW121759   3.374   0.505   3.950  0.9734  2.2849  1.4671
 7123SOL    HW221760   3.512   0.508   4.011  0.4062 -0.8360  3.0879
 7124SOL     OW21761   3.450   2.739   3.459  0.8084 -0.3323  0.6135
 7124SOL    HW121762   3.523   2.799   3.473  1.2049 -0.7693  0.4255
 7124SOL    HW221763   3.470   2.695   3.376 -0.8423  1.2604 -0.7258
 7125SOL     OW21764   5.222   5.835   6.497  0.0795  0.2745  0.1663
 7125SOL    HW121765   5.140   5.790   6.477  1.1177 -0.9926 -1.5457
 7125SOL    HW221766   5.246   5.804   6.585 -1.1859  0.5933  0.6475
 7126SOL     OW21767   4.612   2.790   0.779 -0.8700  0.0102  0.3042
 7126SOL    HW121768   4.582   2.838   0.701  0.9548 -0.4677 -0.7496
 7126SOL    HW221769   4.590   2.698   0.761 -1.7192  0.0561  1.0175
 7127SOL     OW21770   5.637   4.690   6.494  0.9827 -0.0659 -0.0014
 7127SOL    HW121771   5.664   4.685   6.586  0.3701  0.2965  0.2032
 7127SOL    HW221772   5.629   4.784   6.476  1.6981 -0.1076 -0.6105
 7128SOL     OW21773   2.459   3.681   5.839  0.5145  0.1943  0.5020
 7128SOL    HW121774   2.489   3.771   5.824 -1.4563  0.9787  0.8775
 7128SOL    HW221775   2.451   3.644   5.751 -2.2833  1.7343 -0.0257
 7129SOL     OW21776   0.762   0.296   0.582 -0.1532  0.2371  0.2378
 7129SOL    HW121777   0.728   0.324   0.497 -3.6074 -0.9076  1.0394
 7129SOL    HW221778   0.799   0.375   0.620  1.5019  0.7750 -2.2551
 7130SOL     OW21779   2.731   2.414   3.612 -0.2508 -0.2502 -0.2634
 7130SOL    HW121780   2.662   2.473   3.584 -0.7178 -0.6507  0.0248
 7130SOL    HW221781   2.687   2.331   3.629  0.0538 -0.1292  1.3108
 7131SOL     OW21782   0.747   2.195   6.766 -0.0391  0.2416  0.0555
 7131SOL    HW121783   0.775   2.281   6.796 -0.1092  0.6793 -1.0863
 7131SOL    HW221784   0.823   2.159   6.721 -0.8636  0.9488 -2.0366
 7132SOL     OW21785   4.972   5.997   5.977  0.0041  0.6801  0.0315
 7132SOL    HW121786   5.008   6.010   6.065  3.0957 -1.4954 -0.7357
 7132SOL    HW221787   4.931   5.911   5.981  1.7656 -0.2559 -1.0246
 7133SOL     OW21788   3.998   1.611   3.820  0.1428 -0.3112  1.0278
 7133SOL    HW121789   3.983   1.697   3.781  0.1424 -1.0478 -0.6362
 7133SOL    HW221790   4.020   1.631   3.912  0.2464  1.4552  0.6636
 7134SOL     OW21791   6.405   1.050   6.257  0.3128  0.0422 -0.2411
 7134SOL    HW121792   6.332   1.070   6.316 -0.0173  0.1589 -0.6858
 7134SOL    HW221793   6.472   1.116   6.278  0.8823 -0.9403  1.1686
 7135SOL     OW21794   1.373   5.483   5.866  0.0829 -0.1774  0.1816
 7135SOL    HW121795   1.289   5.436   5.864 -0.0683  0.0633 -2.0734
 7135SOL    HW221796   1.350   5.573   5.843  0.9327 -0.0691 -0.2554
 7136SOL     OW21797   6.036   4.809   4.766 -0.0143 -0.1208  0.4483
 7136SOL    HW121798   6.089   4.729   4.762  1.7949  1.0487 -0.4981
 7136SOL    HW221799   5.952   4.781   4.800  0.8838 -2.2675  1.0396
 7137SOL     OW21800   3.069   6.157   2.392  0.1571 -0.1059 -0.0977
 7137SOL    HW121801   3.001   6.153   2.459 -1.3689 -2.8837 -1.6322
 7137SOL    HW221802   3.135   6.095   2.420  0.8501  0.7188  0.1327
 7138SOL     OW21803   2.583   5.698   4.982 -0.2102  0.0882 -0.5453
 7138SOL    HW121804   2.504   5.647   4.968 -0.3345  0.1026  0.0563
 7138SOL    HW221805   2.557   5.765   5.045  0.8577 -1.4241  1.6553
 7139SOL     OW21806   5.625   1.802   1.043  0.5190 -0.4269  0.0070
 7139SOL    HW121807   5.650   1.803   0.951  0.2040 -0.9506 -0.0836
 7139SOL    HW221808   5.534   1.772   1.044  0.1118  0.7810  0.3989
 7140SOL     OW21809   2.473   1.496   2.644  0.0864 -0.1980  0.3750
 7140SOL    HW121810   2.539   1.426   2.640 -1.7614 -1.9887 -2.0629
 7140SOL    HW221811   2.422   1.477   2.722 -0.4712 -1.7092 -0.3303
 7141SOL     OW21812   5.086   5.590   4.225 -0.4932  0.1187  0.8214
 7141SOL    HW121813   5.027   5.517   4.209 -1.7541  1.0982  0.9073
 7141SOL    HW221814   5.127   5.569   4.309 -3.3261  1.0302  2.5716
 7142SOL     OW21815   1.307   3.744   2.968  0.0119  0.3795  0.6781
 7142SOL    HW121816   1.371   3.814   2.963  0.8347 -0.3960 -0.2389
 7142SOL    HW221817   1.225   3.783   2.937  0.4333  0.9556  0.2767
 7143SOL     OW21818   4.272   5.181   1.094  0.6328  0.0925 -0.0217
 7143SOL    HW121819   4.354   5.185   1.144  1.8182  0.6359 -1.8949
 7143SOL    HW221820   4.284   5.245   1.024 -0.5477 -1.2928 -1.5541
 7144SOL     OW21821   0.900   6.331   3.218 -0.1377  0.4233  0.5411
 7144SOL    HW121822   0.849   6.261   3.178 -0.6676  0.4140  1.2268
 7144SOL    HW221823   0.981   6.334   3.167  0.0208 -0.8903  0.6992
 7145SOL     OW21824   1.454   2.550   1.716 -0.7837 -0.2611  0.3708
 7145SOL    HW121825   1.540   2.582   1.745 -2.0800  2.4294  1.6415
 7145SOL    HW221826   1.453   2.568   1.622  1.1735 -3.3731 -0.3782
 7146SOL     OW21827   3.403   0.637   3.788  0.5758 -0.2799 -0.7226
 7146SOL    HW121828   3.434   0.655   3.699  2.9030 -0.9191 -0.1088
 7146SOL    HW221829   3.481   0.641   3.842 -0.6783 -0.6048  1.2116
 7147SOL     OW21830   0.375   0.111   5.651 -0.7957 -0.5820  0.6833
 7147SOL    HW121831   0.415   0.055   5.718 -0.6012 -0.9754  0.2466
 7147SOL    HW221832   0.431   0.188   5.647  0.3961 -1.4649 -0.4672
 7148SOL     OW21833   6.612   3.779   0.798  0.2091 -0.1560  0.1533
 7148SOL    HW121834   6.650   3.704   0.845  0.0554 -1.0861 -1.1683
 7148SOL    HW221835   6.553   3.740   0.734 -0.3947  1.1377 -0.1065
 7149SOL     OW21836   0.777   4.692   2.904 -0.3833 -0.4034 -0.2055
 7149SOL    HW121837   0.804   4.622   2.845 -0.2308 -0.0315 -0.5791
 7149SOL    HW221838   0.682   4.685   2.908 -0.3196 -1.1909  0.4609
 7150SOL     OW21839   1.358   4.274   0.557 -0.5293  0.2949 -0.2189
 7150SOL    HW121840   1.324   4.194   0.516  0.1018 -0.2316  0.2634
 7150SOL    HW221841   1.416   4.313   0.492  0.8765 -0.8102  0.3211
 7151SOL     OW21842   0.310   2.077   0.255 -0.4312 -0.4223 -0.4200
 7151SOL    HW121843   0.306   2.167   0.289  1.7196  0.2560 -1.7710
 7151SOL    HW221844   0.265   2.082   0.170 -1.6762 -1.0355  0.1687
 7152SOL     OW21845   0.531   2.315   3.181  0.1315  0.4656  0.4358
 7152SOL    HW121846   0.586   2.262   3.238  0.8497  0.4546 -0.2630
 7152SOL    HW221847   0.442   2.287   3.201  0.4449 -0.3015  0.7800
 7153SOL     OW21848   3.069   4.597   3.546 -0.0453 -0.0436  0.3969
 7153SOL    HW121849   3.019   4.580   3.467  1.2489  0.5053 -0.5798
 7153SOL    HW221850   3.004   4.597   3.616 -1.2346 -0.4375 -0.6682
 7154SOL     OW21851   6.482   6.652   3.975  0.2916  0.0793 -0.2132
 7154SOL    HW121852   6.568   6.649   3.932 -0.0151 -1.2934 -0.7745
 7154SOL    HW221853   6.463   6.560   3.995 -0.2435  0.5421  1.5386
 7155SOL     OW21854   5.799   0.191   2.330 -0.9088  0.2188  0.3190
 7155SOL    HW121855   5.864   0.121   2.319  0.7134  1.5026  1.2836
 7155SOL    HW221856   5.797   0.235   2.245  0.7068  1.1152  0.6889
 7156SOL     OW21857   1.946   0.578   5.066 -0.7080  0.4306  0.4503
 7156SOL    HW121858   1.961   0.491   5.028 -0.1508 -0.3310  2.2937
 7156SOL    HW221859   1.865   0.569   5.116 -0.4210  0.8482  0.9991
 7157SOL     OW21860   6.177   3.775   3.989 -0.6689 -0.2496  0.0753
 7157SOL    HW121861   6.123   3.740   4.061  0.4703 -2.9070 -0.2388
 7157SOL    HW221862   6.115   3.786   3.917 -0.9566 -3.1465 -0.2434
 7158SOL     OW21863   3.659   3.582   3.014 -0.2818  0.5152 -0.7553
 7158SOL    HW121864   3.679   3.571   2.921 -0.2961  1.7136 -0.9191
 7158SOL    HW221865   3.690   3.670   3.034 -0.4968  0.3506  0.3229
 7159SOL     OW21866   2.125   1.389   3.018 -0.4124  0.5673  0.2991
 7159SOL    HW121867   2.075   1.470   3.030 -2.0265 -0.3487  0.0192
 7159SOL    HW221868   2.107   1.363   2.928  1.1832  0.5827 -0.0489
 7160SOL     OW21869   4.777   5.341   6.221 -0.7146  0.1910 -0.1169
 7160SOL    HW121870   4.855   5.374   6.175 -0.4915 -0.8722 -0.5425
 7160SOL    HW221871   4.711   5.333   6.152 -0.3385 -1.5367 -0.3220
 7161SOL     OW21872   1.509   0.007   4.167  0.1088  0.1690 -0.0470
 7161SOL    HW121873   1.600  -0.022   4.166 -0.1676 -0.7221 -0.5047
 7161SOL    HW221874   1.510   0.086   4.221  1.3491  0.8826 -1.0536
 7162SOL     OW21875   1.831   2.214   3.802  0.0938  0.1005  0.0192
 7162SOL    HW121876   1.873   2.210   3.889 -0.7454  1.0997  0.4969
 7162SOL    HW221877   1.739   2.233   3.821 -0.1862 -0.1054 -1.0845
 7163SOL     OW21878   3.879   5.772   6.253 -0.2736  0.0847  0.0777
 7163SOL    HW121879   3.784   5.778   6.256 -0.3480  0.4301 -1.7531
 7163SOL    HW221880   3.905   5.829   6.180  1.3455  0.1077  0.6206
 7164SOL     OW21881   4.338   3.088   3.176 -0.0922 -0.3365 -0.1439
 7164SOL    HW121882   4.337   3.165   3.120  0.2019 -0.9688 -1.0429
 7164SOL    HW221883   4.248   3.077   3.205 -0.5838 -0.8860 -1.7636
 7165SOL     OW21884   4.505   3.639   4.150 -0.1069  0.2894 -0.2369
 7165SOL    HW121885   4.533   3.727   4.178 -0.1455  0.2123  0.0512
 7165SOL    HW221886   4.568   3.580   4.191 -2.0800 -0.0979  2.5834
 7166SOL     OW21887   3.606   6.801   5.209  0.3251  0.8897 -1.2642
 7166SOL    HW121888   3.543   6.870   5.188 -0.7481  0.4427  0.2780
 7166SOL    HW221889   3.606   6.798   5.305  0.1209 -1.4315 -1.2942
 7167SOL     OW21890   2.726   3.285   2.641  0.1747  0.2228  0.1915
 7167SOL    HW121891   2.761   3.245   2.561 -1.1000  0.4341 -0.4986
 7167SOL    HW221892   2.745   3.378   2.632  0.6992  0.1488  0.4994
 7168SOL     OW21893   6.160   2.137   0.580  0.4958 -0.3912  0.5022
 7168SOL    HW121894   6.193   2.127   0.491 -0.2728  0.0768  0.1557
 7168SOL    HW221895   6.205   2.069   0.630 -1.3827 -2.8194 -0.8867
 7169SOL     OW21896   3.359   1.006   3.510  0.2840 -0.2174  0.0734
 7169SOL    HW121897   3.390   1.087   3.470 -1.6346 -0.3085 -1.7798
 7169SOL    HW221898   3.279   0.986   3.463 -0.9067 -1.6100  2.5239
 7170SOL     OW21899   1.236   1.144   1.038  0.1122 -0.6128 -0.1995
 7170SOL    HW121900   1.241   1.160   0.944 -0.1421  0.4388 -0.0468
 7170SOL    HW221901   1.317   1.099   1.059  1.0540  0.8205 -0.6217
 7171SOL     OW21902   0.429   2.298   5.738 -0.4449  0.3702 -0.3743
 7171SOL    HW121903   0.462   2.280   5.650 -0.6805  0.4218 -0.4734
 7171SOL    HW221904   0.508   2.310   5.791 -0.2961 -0.2496 -0.4519
 7172SOL     OW21905   0.417   1.090   5.650  0.1374  0.1301 -0.6098
 7172SOL    HW121906   0.340   1.115   5.701  0.6314 -1.3720  0.9620
 7172SOL    HW221907   0.426   1.159   5.585 -0.8991  1.8251  0.9439
 7173SOL     OW21908   0.784   4.882   3.851 -0.0359 -0.0434 -0.1096
 7173SOL    HW121909   0.808   4.908   3.940  0.8031  0.4618 -0.4714
 7173SOL    HW221910   0.791   4.962   3.799  0.4786 -0.5245 -0.8171
 7174SOL     OW21911   6.500   4.907   2.160 -0.1362 -0.1723  0.0208
 7174SOL    HW121912   6.452   4.979   2.201  0.5798  0.0235  0.5240
 7174SOL    HW221913   6.526   4.850   2.232  0.6003 -0.1456 -0.2126
 7175SOL     OW21914   0.584   1.825   4.265 -0.2752  1.4288  0.1979
 7175SOL    HW121915   0.617   1.814   4.355 -1.0239  0.0572  0.3188
 7175SOL    HW221916   0.568   1.736   4.234 -0.8998  1.9360 -0.9762
 7176SOL     OW21917   3.091   0.595   1.849  0.4775  0.0633  0.4248
 7176SOL    HW121918   3.114   0.592   1.756  1.3472  2.2754  0.5014
 7176SOL    HW221919   2.995   0.595   1.851  0.4253  1.4799 -0.5990
 7177SOL     OW21920   1.037   1.615   1.949 -0.0758  0.6004 -0.5343
 7177SOL    HW121921   1.132   1.600   1.947 -0.0331  0.7321  0.1799
 7177SOL    HW221922   1.004   1.571   1.871  0.2661 -1.7334  0.5366
 7178SOL     OW21923   2.805   5.296   0.210  0.4330 -0.3111  0.6973
 7178SOL    HW121924   2.725   5.293   0.157  0.2633 -0.7245  0.9741
 7178SOL    HW221925   2.876   5.282   0.148  0.2785 -0.1165  0.4767
 7179SOL     OW21926   6.592   4.400   5.218 -0.2143  0.6687  0.2279
 7179SOL    HW121927   6.541   4.474   5.186  0.6613  0.9969 -0.4210
 7179SOL    HW221928   6.683   4.423   5.200  0.0601 -0.6755 -0.2286
 7180SOL     OW21929   4.354   2.183   4.006 -0.5220  0.1066 -0.4313
 7180SOL    HW121930   4.395   2.255   4.055  0.5939 -0.0123 -1.1390
 7180SOL    HW221931   4.337   2.221   3.919 -0.4421 -0.3199 -0.6333
 7181SOL     OW21932   6.010   6.229   3.765  0.2664  0.8560 -0.1431
 7181SOL    HW121933   5.925   6.273   3.774 -0.1784  0.1998 -1.0332
 7181SOL    HW221934   6.075   6.298   3.781 -0.4162  1.1665  1.4929
 7182SOL     OW21935   5.294   6.067   3.907  0.3374  0.2646  0.2477
 7182SOL    HW121936   5.320   6.156   3.883 -0.6007  0.5289  0.1910
 7182SOL    HW221937   5.339   6.052   3.991  0.7946  0.6499  0.0782
 7183SOL     OW21938   5.109   4.658   4.224  0.1426 -0.4540 -0.2298
 7183SOL    HW121939   5.167   4.666   4.148 -1.1467 -1.1296 -1.3270
 7183SOL    HW221940   5.032   4.711   4.201 -0.9287 -1.8797 -0.0787
 7184SOL     OW21941   6.253   1.501   3.439 -0.6576 -0.2185  0.4226
 7184SOL    HW121942   6.198   1.530   3.512  0.2902  0.0077  1.0795
 7184SOL    HW221943   6.211   1.421   3.407 -1.3505 -0.0587  0.9169
 7185SOL     OW21944   5.089   6.280   4.731 -0.5500 -0.5216  0.0346
 7185SOL    HW121945   5.052   6.264   4.817 -0.2600 -0.2325  0.2139
 7185SOL    HW221946   5.141   6.360   4.741 -1.6675  0.3577 -0.7376
 7186SOL     OW21947   3.162   2.794   1.488 -0.0262  0.7210 -0.0249
 7186SOL    HW121948   3.201   2.713   1.520  0.9857 -0.0358 -2.9087
 7186SOL    HW221949   3.209   2.863   1.535  0.7508 -0.2953  0.7354
 7187SOL     OW21950   1.277   5.519   6.275 -0.0277  0.6378  0.0019
 7187SOL    HW121951   1.325   5.436   6.281  1.5941  1.4182 -1.4766
 7187SOL    HW221952   1.195   5.495   6.230  0.4429 -0.1732 -0.4536
 7188SOL     OW21953   0.826   3.348   5.070 -0.1958  0.5682  0.0559
 7188SOL    HW121954   0.880   3.382   5.141 -0.1157  0.9814 -0.1989
 7188SOL    HW221955   0.885   3.292   5.019 -0.5212 -0.6066  0.9165
 7189SOL     OW21956   3.409   6.550   5.610  0.1882 -0.4946  0.0150
 7189SOL    HW121957   3.384   6.536   5.701  0.2350  1.1457  0.2945
 7189SOL    HW221958   3.340   6.505   5.560 -1.3019  0.7998  0.8319
 7190SOL     OW21959   3.100   0.506   2.122  0.1761 -0.5086  0.2772
 7190SOL    HW121960   3.167   0.556   2.169  2.6553 -0.6471 -2.7289
 7190SOL    HW221961   3.094   0.550   2.036 -2.3587 -1.5890 -0.1827
 7191SOL     OW21962   0.381   4.724   3.707 -0.5796 -0.1743 -0.2773
 7191SOL    HW121963   0.447   4.695   3.771 -0.3580 -0.4180 -0.6126
 7191SOL    HW221964   0.361   4.646   3.656 -0.0585  0.2337 -1.1184
 7192SOL     OW21965   6.025   5.495   5.849 -0.2996 -0.5663  0.2833
 7192SOL    HW121966   6.090   5.553   5.890 -0.5219  1.4367 -2.0036
 7192SOL    HW221967   5.948   5.503   5.906  0.4560 -0.5730  1.3482
 7193SOL     OW21968   4.935   4.768   1.628 -0.4005 -0.1641  0.2042
 7193SOL    HW121969   5.022   4.766   1.668 -0.9466  4.1587  2.1571
 7193SOL    HW221970   4.883   4.709   1.683  1.0069 -2.1559 -0.4804
 7194SOL     OW21971   6.824   5.338   0.185 -0.1689 -0.4592  0.3130
 7194SOL    HW121972   6.907   5.347   0.232 -0.2120 -0.4653  0.3913
 7194SOL    HW221973   6.849   5.328   0.093 -0.1003 -0.0195  0.2841
 7195SOL     OW21974   1.115   2.939   6.692  0.3535 -0.2917  0.0078
 7195SOL    HW121975   1.208   2.924   6.707  0.0724 -2.4444 -0.1101
 7195SOL    HW221976   1.071   2.897   6.766 -0.5753 -0.5428 -0.6682
 7196SOL     OW21977   4.768   3.891   4.745  0.1839  0.6956 -0.2345
 7196SOL    HW121978   4.738   3.849   4.665  0.0948  1.8684 -0.8463
 7196SOL    HW221979   4.860   3.868   4.751 -0.0034 -0.0743 -0.2235
 7197SOL     OW21980   6.585   6.243   2.491  0.3244 -0.4603 -0.1696
 7197SOL    HW121981   6.618   6.243   2.401 -0.9077 -0.1720 -0.6430
 7197SOL    HW221982   6.583   6.151   2.516 -0.1507 -0.6236 -0.7676
 7198SOL     OW21983   6.561   6.133   0.807  0.3933 -0.8425 -0.5631
 7198SOL    HW121984   6.473   6.103   0.830  0.4070  0.7025  1.9559
 7198SOL    HW221985   6.560   6.142   0.712 -2.6765  0.5382 -0.5196
 7199SOL     OW21986   5.316   0.624   6.543 -0.0379 -0.2495  0.0731
 7199SOL    HW121987   5.298   0.530   6.532 -1.7967  0.2129 -1.5636
 7199SOL    HW221988   5.403   0.635   6.504  0.0265 -1.1443 -0.0755
 7200SOL     OW21989   6.787   5.628   6.475 -0.2135 -0.2110  0.8238
 7200SOL    HW121990   6.819   5.609   6.563 -1.2055 -1.6586  0.9115
 7200SOL    HW221991   6.759   5.543   6.441 -0.3344  0.4058 -0.6963
 7201SOL     OW21992   5.252   2.858   6.299  0.2636  0.8097  0.0807
 7201SOL    HW121993   5.221   2.932   6.248 -1.6437 -0.4686 -0.7276
 7201SOL    HW221994   5.175   2.829   6.348  0.7486 -1.0494 -0.1685
 7202SOL     OW21995   5.123   4.067   4.939 -0.4172 -0.1339 -0.0091
 7202SOL    HW121996   5.200   4.075   4.995 -1.5756 -0.3090  1.6825
 7202SOL    HW221997   5.049   4.086   4.997 -1.6514  0.1863 -1.6147
 7203SOL     OW21998   2.622   0.088   0.201  0.0985 -0.2069 -0.5046
 7203SOL    HW121999   2.686   0.066   0.269 -1.5417 -1.5635  0.6870
 7203SOL    HW222000   2.675   0.099   0.122  1.8843 -0.4809  0.5717
 7204SOL     OW22001   0.187   4.064   0.229  0.0913  0.5621  0.4917
 7204SOL    HW122002   0.199   4.151   0.267  0.9863  0.7427 -0.1779
 7204SOL    HW222003   0.204   4.076   0.135  1.2125 -0.5183  0.5254
 7205SOL     OW22004   5.197   5.055   5.376  0.1566 -0.0773  0.2918
 7205SOL    HW122005   5.251   5.135   5.379 -0.4509  0.3433  0.2694
 7205SOL    HW222006   5.168   5.043   5.467  0.1137 -0.1733  0.2649
 7206SOL     OW22007   1.324   3.696   0.300 -0.5675  0.3833 -0.0990
 7206SOL    HW122008   1.363   3.632   0.241  2.1102  1.1035  0.7191
 7206SOL    HW222009   1.230   3.682   0.293 -0.1988 -1.5811 -2.1878
 7207SOL     OW22010   4.389   1.735   2.273 -0.2335 -0.2188  0.5372
 7207SOL    HW122011   4.326   1.729   2.202 -1.8356  0.6830  1.8303
 7207SOL    HW222012   4.361   1.810   2.325  2.1143  0.4406  0.9862
 7208SOL     OW22013   5.687   0.844   0.658 -0.1325  0.4344  0.2533
 7208SOL    HW122014   5.723   0.772   0.606  0.4071 -0.2228  1.4863
 7208SOL    HW222015   5.659   0.802   0.739 -1.9227  1.2645  0.0969
 7209SOL     OW22016   0.725   4.545   6.673  0.0618  0.0164 -0.0558
 7209SOL    HW122017   0.702   4.605   6.602 -0.2745 -0.3428 -0.2554
 7209SOL    HW222018   0.759   4.467   6.628 -1.2667 -0.6917  0.1179
 7210SOL     OW22019   4.505   4.641   0.738  0.5975  0.1055  0.3795
 7210SOL    HW122020   4.525   4.718   0.791  0.7432 -0.2962  0.9086
 7210SOL    HW222021   4.574   4.638   0.672  2.1143 -1.0421  1.9385
 7211SOL     OW22022   6.326   5.482   4.199  0.1940 -0.1426  0.3143
 7211SOL    HW122023   6.359   5.539   4.268 -0.9721 -1.3750  1.9780
 7211SOL    HW222024   6.306   5.400   4.243 -3.0064 -0.1897 -0.9336
 7212SOL     OW22025   2.593   4.371   5.973 -0.2639 -0.6647  0.2310
 7212SOL    HW122026   2.648   4.433   6.020  1.4938 -1.4096 -0.7321
 7212SOL    HW222027   2.546   4.324   6.042  0.7495 -0.3944  1.1417
 7213SOL     OW22028   3.510   3.724   6.633 -0.1464  0.1552  0.1287
 7213SOL    HW122029   3.499   3.629   6.630 -2.3362  0.3695 -0.8490
 7213SOL    HW222030   3.493   3.752   6.543  0.9259  1.4479  0.3034
 7214SOL     OW22031   5.405   1.809   3.848  0.1868  0.4490  0.1826
 7214SOL    HW122032   5.448   1.838   3.928 -1.7844 -0.9254  1.8242
 7214SOL    HW222033   5.342   1.743   3.876 -2.2385  1.5506 -2.1828
 7215SOL     OW22034   6.515   6.374   0.932  0.0243 -0.7049  0.5854
 7215SOL    HW122035   6.560   6.291   0.912  1.0029 -0.4940  1.8017
 7215SOL    HW222036   6.437   6.347   0.981 -0.9254 -1.0330 -1.0284
 7216SOL     OW22037   2.753   5.301   5.090 -0.0609  0.0686  0.2708
 7216SOL    HW122038   2.795   5.271   5.171 -0.0581  0.1354  0.2941
 7216SOL    HW222039   2.684   5.360   5.120  0.0884  0.2738  0.2129
 7217SOL     OW22040   3.789   1.696   6.750  0.4718 -0.4003  0.1441
 7217SOL    HW122041   3.738   1.618   6.727  0.8397 -0.4407 -0.5481
 7217SOL    HW222042   3.790   1.696   6.846  1.1238 -1.6944  0.1686
 7218SOL     OW22043   6.039   1.556   2.028 -0.0255 -0.2336  0.1135
 7218SOL    HW122044   5.968   1.613   2.057  0.4426  0.4247  0.0059
 7218SOL    HW222045   6.018   1.536   1.937 -0.2372 -0.3064  0.1779
 7219SOL     OW22046   4.570   0.778   5.981  0.4527 -0.2637 -0.1058
 7219SOL    HW122047   4.500   0.720   5.951 -0.4099  1.9357 -2.7761
 7219SOL    HW222048   4.528   0.835   6.045  0.3108 -0.2416 -0.2164
 7220SOL     OW22049   0.974   5.030   1.633  0.4511 -0.5077  0.3886
 7220SOL    HW122050   0.884   5.062   1.624 -0.1362 -1.7704  1.5770
 7220SOL    HW222051   1.017   5.096   1.687 -0.0739 -0.4793  0.7766
 7221SOL     OW22052   0.642   0.272   4.817  0.7475 -0.3757 -0.1839
 7221SOL    HW122053   0.665   0.182   4.793  1.4778 -0.5927  1.1849
 7221SOL    HW222054   0.585   0.263   4.894 -0.5929  0.3071 -1.0473
 7222SOL     OW22055   1.036   5.447   1.855  0.1618  0.2205 -0.6338
 7222SOL    HW122056   1.080   5.365   1.877  0.1915 -0.2567 -2.3172
 7222SOL    HW222057   1.086   5.515   1.900  3.1700 -0.1959 -3.0248
 7223SOL     OW22058   5.153   1.676   1.217  0.2458 -0.1231 -0.5671
 7223SOL    HW122059   5.101   1.719   1.149  1.6576  0.0041 -1.5914
 7223SOL    HW222060   5.216   1.742   1.245 -0.5242 -0.0527  1.1561
 7224SOL     OW22061   5.468   1.253   2.120  0.3265  0.2658 -0.3062
 7224SOL    HW122062   5.377   1.227   2.104  0.2259  1.5438 -2.1124
 7224SOL    HW222063   5.515   1.170   2.129 -1.2916 -0.4789  3.0651
 7225SOL     OW22064   6.323   0.938   6.632  0.5412  0.0730  0.0615
 7225SOL    HW122065   6.306   0.960   6.723  0.3332  0.6593 -0.1210
 7225SOL    HW222066   6.296   0.846   6.624  1.7253 -0.3716  0.9010
 7226SOL     OW22067   3.934   5.694   2.118  0.2894  0.0797  0.2439
 7226SOL    HW122068   3.890   5.762   2.067 -1.1209 -0.7922  0.2183
 7226SOL    HW222069   3.873   5.619   2.114  0.7600 -0.4353  2.1030
 7227SOL     OW22070   4.347   3.017   5.677 -0.2056  0.4600  0.3585
 7227SOL    HW122071   4.267   3.055   5.640  1.0699  4.7067  1.3857
 7227SOL    HW222072   4.341   3.035   5.771  0.9889 -1.2054  0.7967
 7228SOL     OW22073   4.867   4.709   0.189  0.1382  0.2957 -0.0755
 7228SOL    HW122074   4.907   4.627   0.219 -0.1453 -0.3692 -1.4460
 7228SOL    HW222075   4.852   4.696   0.095  0.7708  2.1963 -0.4938
 7229SOL     OW22076   4.757   5.889   6.578 -0.5425  0.0787 -0.0949
 7229SOL    HW122077   4.742   5.958   6.642  0.5068  1.5211 -1.3121
 7229SOL    HW222078   4.747   5.932   6.493  1.3221 -0.9545 -0.9138
 7230SOL     OW22079   1.816   0.827   4.527 -0.0788 -0.4851  0.7113
 7230SOL    HW122080   1.881   0.872   4.474 -0.4569  1.0106  1.4623
 7230SOL    HW222081   1.744   0.890   4.535 -1.8484 -2.2255 -0.4685
 7231SOL     OW22082   1.021   1.225   1.469  0.8237  0.2984 -0.0396
 7231SOL    HW122083   0.980   1.171   1.402  0.1460  1.1639 -0.3331
 7231SOL    HW222084   0.986   1.192   1.551 -0.8715  1.3281 -0.3070
 7232SOL     OW22085   1.720   5.725   1.799  0.0841 -0.6131 -0.1165
 7232SOL    HW122086   1.812   5.727   1.826  0.5874 -2.1023 -1.5223
 7232SOL    HW222087   1.678   5.665   1.860 -0.7542  2.3758  2.4951
 7233SOL     OW22088   2.143   1.860   3.139  0.5966 -0.5970  0.9706
 7233SOL    HW122089   2.231   1.891   3.157  1.9817 -4.5313  1.8969
 7233SOL    HW222090   2.090   1.896   3.210  1.8342  0.3393  1.4422
 7234SOL     OW22091   1.556   0.753   6.488 -0.2180 -0.6630 -0.3096
 7234SOL    HW122092   1.546   0.717   6.576  0.0083 -0.6689 -0.2870
 7234SOL    HW222093   1.642   0.723   6.459 -0.1018 -0.2822 -0.3579
 7235SOL     OW22094   3.078   5.783   2.800 -0.8992 -0.2710  0.3645
 7235SOL    HW122095   3.073   5.756   2.891  2.6525 -1.6127  0.3527
 7235SOL    HW222096   3.098   5.702   2.752  0.6215  0.8600 -1.0535
 7236SOL     OW22097   1.706   2.858   1.791  0.5050 -0.1764  0.6487
 7236SOL    HW122098   1.718   2.780   1.738 -0.3386 -1.4671  2.2569
 7236SOL    HW222099   1.640   2.909   1.744  1.7633  0.0946 -0.9171
 7237SOL     OW22100   0.463   6.733   5.832  0.1212  0.3405 -0.2859
 7237SOL    HW122101   0.474   6.654   5.779  1.1645 -0.9695  1.8034
 7237SOL    HW222102   0.457   6.702   5.922 -1.9207  2.4842  0.4343
 7238SOL     OW22103   0.305   3.574   3.802  0.1414 -0.1457  1.0247
 7238SOL    HW122104   0.280   3.547   3.890 -1.7485  0.4101  0.7006
 7238SOL    HW222105   0.273   3.504   3.745 -2.6833  1.4842  0.4154
 7239SOL     OW22106   3.569   1.387   4.844 -0.7145 -0.1997  0.5564
 7239SOL    HW122107   3.556   1.421   4.932 -1.0749  0.3849  0.2866
 7239SOL    HW222108   3.539   1.458   4.787 -1.0773 -0.8152 -0.0275
 7240SOL     OW22109   3.174   3.125   2.212 -0.3686 -0.0399  0.0545
 7240SOL    HW122110   3.089   3.113   2.254 -1.1709  0.1869 -1.4114
 7240SOL    HW222111   3.209   3.037   2.204 -0.1790 -0.0782  1.2205
 7241SOL     OW22112   1.713   1.119   3.147 -0.5654 -0.3233  0.1195
 7241SOL    HW122113   1.802   1.140   3.178  0.0303  1.3231 -2.3720
 7241SOL    HW222114   1.665   1.097   3.226  2.0723 -1.3634  1.5656
 7242SOL     OW22115   5.110   5.487   1.417 -0.0082 -0.2458  0.2669
 7242SOL    HW122116   5.180   5.512   1.478 -0.0140 -1.0400  0.6168
 7242SOL    HW222117   5.110   5.556   1.350  1.8436 -0.7966 -0.3507
 7243SOL     OW22118   6.560   5.209   1.824 -0.1283 -0.4745  0.5807
 7243SOL    HW122119   6.564   5.149   1.750 -1.5584  0.3195 -0.1755
 7243SOL    HW222120   6.514   5.286   1.791 -1.4049 -0.3631  2.4434
 7244SOL     OW22121   3.029   0.926   0.161 -0.4536 -0.3067  0.0436
 7244SOL    HW122122   2.961   0.933   0.094  0.8947  0.0273 -1.3671
 7244SOL    HW222123   3.008   0.847   0.210 -1.3935 -0.6424 -0.8791
 7245SOL     OW22124   4.757   3.427   3.662  0.5768 -0.4327 -0.0513
 7245SOL    HW122125   4.678   3.421   3.607  1.2853 -2.2667 -0.9249
 7245SOL    HW222126   4.828   3.442   3.600  1.0175  0.6757  0.6865
 7246SOL     OW22127   0.846   2.847   0.554 -0.3195  0.3469  0.0629
 7246SOL    HW122128   0.757   2.832   0.586 -0.1098  1.3739  1.2123
 7246SOL    HW222129   0.840   2.928   0.504  0.0948  0.7825  0.7130
 7247SOL     OW22130   1.046   0.388   2.560 -0.2927  0.3196 -0.5517
 7247SOL    HW122131   1.068   0.313   2.504 -0.0674  0.9621 -1.3474
 7247SOL    HW222132   1.008   0.349   2.638 -0.1142 -0.6318 -0.9212
 7248SOL     OW22133   4.856   4.281   6.419 -0.4930  0.0767  0.5101
 7248SOL    HW122134   4.893   4.217   6.358  1.7946  0.0446  1.8252
 7248SOL    HW222135   4.863   4.240   6.505 -3.0640  0.3783  0.9521
 7249SOL     OW22136   6.264   0.112   4.561  0.3731  0.0377  0.0213
 7249SOL    HW122137   6.228   0.147   4.480  2.2486  0.9683 -0.4853
 7249SOL    HW222138   6.230   0.023   4.567 -1.5748  0.6996 -0.6003
 7250SOL     OW22139   5.195   3.340   5.303  0.0889 -0.0687 -0.4386
 7250SOL    HW122140   5.168   3.356   5.393 -0.9029 -0.1188 -0.7128
 7250SOL    HW222141   5.264   3.404   5.286 -0.2609  0.4569  0.1040
 7251SOL     OW22142   2.723   0.311   1.377  0.3589 -0.5162  0.0315
 7251SOL    HW122143   2.641   0.274   1.407  0.3556  1.1365  2.3071
 7251SOL    HW222144   2.702   0.402   1.354  1.5842  0.0740  1.1053
 7252SOL     OW22145   5.937   3.460   2.512 -0.2021 -0.1341  0.4018
 7252SOL    HW122146   5.983   3.506   2.582  1.4634 -1.8332  0.4915
 7252SOL    HW222147   5.993   3.471   2.436  0.6137 -2.5564  0.5972
 7253SOL     OW22148   6.626   5.293   1.010 -0.0127 -0.1034 -0.3641
 7253SOL    HW122149   6.577   5.361   0.964 -0.6267  0.3304  0.8718
 7253SOL    HW222150   6.686   5.341   1.068  0.4883 -0.6215 -0.4454
 7254SOL     OW22151   4.274   0.906   1.195 -0.5043  0.0994  0.2458
 7254SOL    HW122152   4.252   0.841   1.129 -1.0222 -0.9202  1.3778
 7254SOL    HW222153   4.319   0.857   1.263  1.3928  1.3877  0.0069
 7255SOL     OW22154   5.316   5.598   5.523  0.3275 -0.2203  0.4012
 7255SOL    HW122155   5.349   5.667   5.580  1.1101 -1.8512  2.0136
 7255SOL    HW222156   5.394   5.565   5.477  0.2681 -1.1502  0.9372
 7256SOL     OW22157   6.252   5.626   3.003  0.4017  0.5029  0.9176
 7256SOL    HW122158   6.323   5.590   3.057 -0.4981 -1.5249  0.8280
 7256SOL    HW222159   6.260   5.579   2.920 -1.6277 -0.5106  1.2494
 7257SOL     OW22160   0.670   6.658   3.570  0.1252 -0.4050 -0.1052
 7257SOL    HW122161   0.617   6.586   3.604 -0.0744  0.1686  0.8640
 7257SOL    HW222162   0.627   6.683   3.488 -2.3926  1.3284  1.5785
 7258SOL     OW22163   4.683   4.196   5.793  0.0480  0.4773 -0.0183
 7258SOL    HW122164   4.639   4.239   5.719 -0.7939  1.6423  1.1137
 7258SOL    HW222165   4.763   4.248   5.807 -0.4154  1.0251  0.6534
 7259SOL     OW22166   0.891   3.757   3.355 -0.6026 -0.3402  0.1304
 7259SOL    HW122167   0.859   3.720   3.438  1.1493  0.6227  1.3072
 7259SOL    HW222168   0.940   3.835   3.381 -0.4289  0.2734 -1.8818
 7260SOL     OW22169   1.614   2.215   0.911 -0.0289 -0.3822  0.4765
 7260SOL    HW122170   1.681   2.157   0.948 -0.6604  0.3067  2.8659
 7260SOL    HW222171   1.534   2.190   0.957 -0.5595  1.5258  0.6549
 7261SOL     OW22172   3.295   5.713   1.229  0.0128  0.1214  0.4982
 7261SOL    HW122173   3.301   5.718   1.324  0.6154  0.3498  0.4510
 7261SOL    HW222174   3.385   5.697   1.200 -0.4061 -1.5509  0.0586
 7262SOL     OW22175   2.092   6.471   4.880  0.2114 -0.1098  0.0780
 7262SOL    HW122176   2.181   6.483   4.845 -0.4850  0.8145 -1.5226
 7262SOL    HW222177   2.062   6.388   4.843 -0.5424  0.8903 -1.6786
 7263SOL     OW22178   3.434   1.035   1.733 -0.6877 -0.1440 -0.8596
 7263SOL    HW122179   3.374   1.089   1.785  1.0942  0.2766  0.8883
 7263SOL    HW222180   3.464   0.967   1.793 -0.0430 -0.8396 -1.9254
 7264SOL     OW22181   5.896   2.470   5.551  0.6581  0.8007 -0.3021
 7264SOL    HW122182   5.898   2.405   5.480 -0.0378 -0.3079  0.6650
 7264SOL    HW222183   5.927   2.422   5.628  0.8094  1.8238  0.2903
 7265SOL     OW22184   2.268   1.046   2.562  0.5593  0.1812  0.3651
 7265SOL    HW122185   2.185   1.001   2.549  0.5429 -0.0502  1.1954
 7265SOL    HW222186   2.294   1.075   2.475 -0.4069  0.2813  0.0970
 7266SOL     OW22187   4.313   0.270   2.272 -0.2262 -0.4566  0.4525
 7266SOL    HW122188   4.271   0.354   2.292 -1.2790 -1.4960  2.8404
 7266SOL    HW222189   4.242   0.213   2.244  0.2240 -1.0781  0.5490
 7267SOL     OW22190   4.443   5.069   4.049  0.2033  0.5930  0.1127
 7267SOL    HW122191   4.432   5.102   3.960 -0.0889  0.8584  0.2450
 7267SOL    HW222192   4.422   5.144   4.105 -0.9078  0.0577  0.4279
 7268SOL     OW22193   0.544   5.232   3.781 -0.1253 -0.1714  0.5391
 7268SOL    HW122194   0.550   5.234   3.686 -2.1492 -0.1602  0.3678
 7268SOL    HW222195   0.622   5.280   3.811  0.0306  0.6828 -1.1252
 7269SOL     OW22196   4.296   5.972   2.313  0.0402  0.3818 -0.5674
 7269SOL    HW122197   4.284   5.878   2.301 -0.3789  0.7659 -4.2433
 7269SOL    HW222198   4.390   5.986   2.301  0.0010  0.4991 -0.7439
 7270SOL     OW22199   4.379   2.603   5.254  0.2553 -0.2606  0.4238
 7270SOL    HW122200   4.286   2.620   5.239  0.5850  0.3372 -1.1937
 7270SOL    HW222201   4.402   2.658   5.329 -0.4046  0.5970  0.0083
 7271SOL     OW22202   3.491   6.191   0.111 -0.0182  0.1983 -0.1318
 7271SOL    HW122203   3.419   6.219   0.167 -0.3571 -0.5612 -0.1802
 7271SOL    HW222204   3.531   6.273   0.082  0.6936  0.6065  1.8737
 7272SOL     OW22205   1.915   3.791   3.583 -0.8414 -0.2358 -0.4379
 7272SOL    HW122206   1.864   3.724   3.628  0.0871  0.2381  1.4325
 7272SOL    HW222207   2.006   3.764   3.595 -0.4866  0.9580 -0.2591
 7273SOL     OW22208   1.583   5.444   1.584 -0.0569  0.1174 -0.1738
 7273SOL    HW122209   1.573   5.539   1.594  0.4065  0.1943 -0.4313
 7273SOL    HW222210   1.496   5.409   1.601 -0.4035  0.6516 -0.8042
 7274SOL     OW22211   4.024   0.109   1.417  0.2781  0.1307  0.5779
 7274SOL    HW122212   3.952   0.066   1.463  0.9378 -1.9959 -0.2354
 7274SOL    HW222213   4.003   0.098   1.324  0.8335  0.9635  0.3437
 7275SOL     OW22214   5.234   4.625   5.078 -0.0605  0.2411 -0.2225
 7275SOL    HW122215   5.205   4.682   5.149 -0.0433  0.3869 -0.3321
 7275SOL    HW222216   5.192   4.661   5.000  0.1708  0.2698 -0.3344
 7276SOL     OW22217   1.190   0.778   6.257  0.3914 -0.5450 -0.0634
 7276SOL    HW122218   1.098   0.751   6.264  0.1617 -0.0450 -0.9603
 7276SOL    HW222219   1.186   0.873   6.248  1.1956 -0.0952  3.1327
 7277SOL     OW22220   3.009   6.343   2.222  0.0443  0.1337  0.1571
 7277SOL    HW122221   2.920   6.366   2.194 -0.1337 -2.6513 -1.9319
 7277SOL    HW222222   2.995   6.276   2.290  0.5186 -0.5939 -0.4534
 7278SOL     OW22223   5.873   2.474   4.531 -0.0361 -0.0075  0.3995
 7278SOL    HW122224   5.940   2.405   4.532  0.1019 -0.0302 -2.4026
 7278SOL    HW222225   5.902   2.534   4.462 -1.6141  1.3680  0.8754
 7279SOL     OW22226   4.242   2.765   4.453 -0.0481  0.5755 -0.0983
 7279SOL    HW122227   4.322   2.818   4.457  0.1275  0.3006  0.0961
 7279SOL    HW222228   4.271   2.678   4.479 -0.6755  0.7810  1.3679
 7280SOL     OW22229   4.503   4.522   3.246 -0.2638  0.2144  0.4697
 7280SOL    HW122230   4.565   4.525   3.319 -1.2816  0.5516  1.3375
 7280SOL    HW222231   4.433   4.581   3.271 -0.6783  0.2733 -0.7571
 7281SOL     OW22232   5.287   1.788   5.428  0.2711 -0.2279 -0.5882
 7281SOL    HW122233   5.192   1.775   5.433  0.1080  1.0352  0.2467
 7281SOL    HW222234   5.311   1.819   5.516  1.4746 -0.6001 -0.7691
 7282SOL     OW22235   6.680   4.101   1.921 -0.3178 -0.3315  0.0054
 7282SOL    HW122236   6.735   4.134   1.992  0.7402 -0.9228 -0.5097
 7282SOL    HW222237   6.601   4.155   1.925 -0.0237  0.0575  1.2294
 7283SOL     OW22238   0.530   4.850   2.243 -0.1529 -0.0079  0.3193
 7283SOL    HW122239   0.446   4.827   2.203  0.0047  0.4635 -0.3036
 7283SOL    HW222240   0.580   4.768   2.242 -0.9216 -0.5244  1.5503
 7284SOL     OW22241   2.536   3.249   5.273 -0.1683 -0.4243  0.3603
 7284SOL    HW122242   2.579   3.334   5.262 -1.0699 -0.0154 -0.0744
 7284SOL    HW222243   2.486   3.257   5.354 -1.2323 -0.1039 -0.3104
 7285SOL     OW22244   4.631   3.414   0.777 -0.3803  0.4261 -1.1320
 7285SOL    HW122245   4.669   3.461   0.852  0.5226 -0.4708 -0.9957
 7285SOL    HW222246   4.681   3.446   0.702 -1.0838  1.1034 -1.3223
 7286SOL     OW22247   6.670   4.337   6.715  0.0750  0.1925 -0.0101
 7286SOL    HW122248   6.728   4.412   6.731 -0.1043  0.0856  1.2715
 7286SOL    HW222249   6.725   4.261   6.731  0.0378  0.0564 -0.5161
 7287SOL     OW22250   0.104   5.882   3.606 -0.1420 -0.0837  0.6002
 7287SOL    HW122251   0.155   5.803   3.588 -0.8412 -0.9946  2.2984
 7287SOL    HW222252   0.123   5.902   3.698  0.8031  2.3657 -0.0607
 7288SOL     OW22253   1.666   6.033   4.973 -0.1476 -0.0877 -0.0242
 7288SOL    HW122254   1.732   6.095   5.002  0.0076 -0.8416  1.3443
 7288SOL    HW222255   1.606   6.084   4.919  1.2009  0.7357 -0.7690
 7289SOL     OW22256   6.144   1.467   3.142  0.0539  0.7166  0.0547
 7289SOL    HW122257   6.058   1.437   3.172  0.0131  1.4791  0.7143
 7289SOL    HW222258   6.203   1.397   3.169 -0.0882  1.0521  1.2972
 7290SOL     OW22259   5.020   1.906   5.436 -0.1955  0.4495 -0.4575
 7290SOL    HW122260   5.019   1.906   5.532  2.6852  0.3175 -0.3388
 7290SOL    HW222261   4.963   1.979   5.412 -2.0205 -0.3106  1.2656
 7291SOL     OW22262   1.888   2.021   5.558  0.0681  0.6027 -0.2607
 7291SOL    HW122263   1.925   2.107   5.574  0.6762  0.2168  0.4183
 7291SOL    HW222264   1.926   1.964   5.625 -1.0414 -0.0000 -0.1096
 7292SOL     OW22265   2.346   1.679   3.896  0.3110 -0.3137 -0.1574
 7292SOL    HW122266   2.415   1.645   3.954  2.0020  2.2245 -0.5391
 7292SOL    HW222267   2.297   1.740   3.951  0.1727  0.0404 -0.6708
 7293SOL     OW22268   0.324   5.458   5.753  0.5149 -0.0192  0.1930
 7293SOL    HW122269   0.339   5.520   5.682  2.0330  0.4921  0.9242
 7293SOL    HW222270   0.322   5.372   5.710  0.6463  0.3384 -0.5482
 7294SOL     OW22271   3.867   2.987   5.653  0.7163  0.2678  0.2069
 7294SOL    HW122272   3.809   2.945   5.716  0.1590 -1.7369 -1.5206
 7294SOL    HW222273   3.809   3.033   5.592  0.7472 -1.9903 -1.7031
 7295SOL     OW22274   3.007   6.246   2.760  0.1578  0.2481  0.4306
 7295SOL    HW122275   3.056   6.180   2.809  1.5511  0.7270 -0.2559
 7295SOL    HW222276   2.952   6.195   2.700  0.4116 -0.2958  0.6512
 7296SOL     OW22277   2.835   2.453   5.929  0.5329 -0.1759  0.0681
 7296SOL    HW122278   2.809   2.364   5.952  1.1039 -0.3197  0.1725
 7296SOL    HW222279   2.910   2.442   5.870  0.1424  0.2235 -0.5160
 7297SOL     OW22280   6.707   4.539   0.695 -0.5391  0.3406  0.7007
 7297SOL    HW122281   6.652   4.462   0.680 -1.5660  1.1670  0.0390
 7297SOL    HW222282   6.672   4.579   0.774 -0.2285  0.3087  0.8535
 7298SOL     OW22283   5.916   4.072   0.987  0.2282 -0.1584  0.6843
 7298SOL    HW122284   5.870   3.990   0.972 -0.0204 -0.2416  1.8183
 7298SOL    HW222285   5.881   4.132   0.921 -0.3375 -0.6671  0.5159
 7299SOL     OW22286   6.297   0.393   2.625  0.0379  0.2488 -0.1209
 7299SOL    HW122287   6.235   0.353   2.564 -1.0397  2.2032 -0.3824
 7299SOL    HW222288   6.280   0.487   2.619  0.9427  0.6177  2.0658
 7300SOL     OW22289   4.947   2.951   3.057  0.3297  0.2441  0.0800
 7300SOL    HW122290   4.971   3.042   3.039 -0.9633  0.3387 -1.3950
 7300SOL    HW222291   4.948   2.909   2.972 -0.1621 -0.8549  0.5965
 7301SOL     OW22292   3.596   6.081   0.577 -0.3865 -0.1259  0.9323
 7301SOL    HW122293   3.653   6.007   0.559  0.9827  0.1443  3.6268
 7301SOL    HW222294   3.511   6.055   0.541 -0.4881 -3.8987  3.3767
 7302SOL     OW22295   5.427   0.196   0.660 -0.0316  0.5195 -0.1818
 7302SOL    HW122296   5.489   0.265   0.635  0.0433  0.7013  0.4913
 7302SOL    HW222297   5.431   0.193   0.756  0.0641 -0.5142 -0.2031
 7303SOL     OW22298   6.043   6.204   0.115  0.4611  0.3531 -0.0855
 7303SOL    HW122299   6.127   6.212   0.068  0.6059  1.0275  0.2756
 7303SOL    HW222300   6.066   6.218   0.207  0.1973 -1.0948  0.2231
 7304SOL     OW22301   3.523   5.737   3.674 -0.0108 -0.0682 -0.1603
 7304SOL    HW122302   3.471   5.802   3.628 -0.7557 -0.6978 -0.2191
 7304SOL    HW222303   3.485   5.733   3.762  2.0237  1.8717  0.9296
 7305SOL     OW22304   1.054   0.990   5.932 -0.2506 -0.8363  0.2015
 7305SOL    HW122305   1.080   1.019   6.019 -2.5597  1.1939  0.3151
 7305SOL    HW222306   1.087   1.057   5.873  0.1476 -1.5103 -0.3643
 7306SOL     OW22307   1.380   2.501   4.775  0.2735 -0.7071 -0.0722
 7306SOL    HW122308   1.413   2.473   4.861 -0.1622 -0.4819  0.1695
 7306SOL    HW222309   1.288   2.475   4.775  0.0072  0.2173 -0.0668
 7307SOL     OW22310   4.199   6.285   2.531  0.1412 -0.4344  0.5341
 7307SOL    HW122311   4.292   6.293   2.553  0.6548  0.1374 -1.5750
 7307SOL    HW222312   4.170   6.375   2.516 -0.4557 -0.6859  0.1327
 7308SOL     OW22313   1.560   0.620   6.749  0.0056  0.5410 -0.4059
 7308SOL    HW122314   1.572   0.542   6.695 -2.6456  0.0242 -0.3741
 7308SOL    HW222315   1.502   0.591   6.820 -0.4059  2.3588  0.0495
 7309SOL     OW22316   6.765   6.548   0.931 -0.0362 -1.1328  0.1332
 7309SOL    HW122317   6.723   6.616   0.879  0.7090  0.1691  1.1866
 7309SOL    HW222318   6.764   6.470   0.875 -2.4012 -0.7352 -0.4607
 7310SOL     OW22319   3.853   1.467   1.520  0.3111  0.0805 -0.6121
 7310SOL    HW122320   3.841   1.491   1.612  0.6210 -0.3147 -0.4629
 7310SOL    HW222321   3.888   1.546   1.479  3.3735 -0.6362  0.3126
 7311SOL     OW22322   4.898   5.500   6.644  0.3177 -0.0110  0.1647
 7311SOL    HW122323   4.988   5.470   6.638  0.2606 -0.0008 -1.0340
 7311SOL    HW222324   4.846   5.427   6.609 -0.1130  0.1227  0.5144
 7312SOL     OW22325   4.140   0.695   1.989 -0.2472  0.1275 -0.0929
 7312SOL    HW122326   4.169   0.740   1.910  0.3792 -0.7068 -0.3473
 7312SOL    HW222327   4.213   0.702   2.050 -0.6793  0.6583  0.3820
 7313SOL     OW22328   1.863   0.596   1.318  0.0142 -0.5052 -0.0675
 7313SOL    HW122329   1.906   0.592   1.403  1.0729  0.3270 -0.5380
 7313SOL    HW222330   1.784   0.542   1.328  0.3018 -0.7030  1.3199
 7314SOL     OW22331   0.164   3.796   2.811  0.2708  0.8432  0.2021
 7314SOL    HW122332   0.195   3.745   2.886  2.4829 -0.0439 -1.2220
 7314SOL    HW222333   0.195   3.885   2.829  1.3946  0.4991  0.0631
 7315SOL     OW22334   0.787   4.339   5.786 -0.3747 -0.6255  0.5404
 7315SOL    HW122335   0.843   4.405   5.745  0.2046 -1.7334 -0.5223
 7315SOL    HW222336   0.832   4.256   5.769 -2.4905 -1.6055 -0.6647
 7316SOL     OW22337   2.731   2.656   0.063  0.0622 -0.0213 -0.6280
 7316SOL    HW122338   2.689   2.572   0.081 -0.1639  0.2435  0.1137
 7316SOL    HW222339   2.767   2.646  -0.025 -1.5811 -0.2437 -1.3120
 7317SOL     OW22340   0.441   3.844   2.454  0.1933 -0.2582 -0.5502
 7317SOL    HW122341   0.488   3.820   2.374 -0.4529  0.9921 -1.3366
 7317SOL    HW222342   0.497   3.908   2.497  1.7057 -2.6500  1.3219
 7318SOL     OW22343   6.639   3.731   5.381  0.0303 -0.2850 -0.6976
 7318SOL    HW122344   6.655   3.642   5.350 -0.8054 -0.6559 -0.0998
 7318SOL    HW222345   6.615   3.780   5.302 -0.7528 -0.8949 -0.8460
 7319SOL     OW22346   6.195   5.321   5.154 -0.5656 -0.4993 -0.1423
 7319SOL    HW122347   6.137   5.372   5.210 -1.1207 -0.8512 -0.3907
 7319SOL    HW222348   6.253   5.386   5.114 -1.9814  0.1071 -1.3250
 7320SOL     OW22349   4.440   6.711   1.716  0.2514 -0.3038 -0.1705
 7320SOL    HW122350   4.423   6.620   1.693  0.2937 -0.1692 -0.7645
 7320SOL    HW222351   4.364   6.759   1.682  1.6649  0.2923 -2.7410
 7321SOL     OW22352   3.418   6.201   3.288  0.1333  0.2038 -0.0402
 7321SOL    HW122353   3.401   6.231   3.199 -2.3457 -3.0244 -0.8350
 7321SOL    HW222354   3.345   6.236   3.340 -1.5096 -2.2809 -0.5187
 7322SOL     OW22355   5.299   4.540   3.922  0.2030  0.1946 -0.0455
 7322SOL    HW122356   5.270   4.493   3.844  0.4392  1.9679 -1.2693
 7322SOL    HW222357   5.243   4.618   3.926  0.9759  0.7404  0.8757
 7323SOL     OW22358   6.776   6.327   6.237  0.0471 -0.0761  0.1860
 7323SOL    HW122359   6.771   6.231   6.234  0.2444 -0.0954  0.3835
 7323SOL    HW222360   6.731   6.356   6.158 -1.3508 -0.2808  0.8624
 7324SOL     OW22361   2.936   1.909   2.073  0.1216  0.0490 -0.3455
 7324SOL    HW122362   2.852   1.932   2.112  0.3879  0.4162  0.0100
 7324SOL    HW222363   2.915   1.892   1.981 -0.6768 -1.8319  0.1523
 7325SOL     OW22364   6.502   4.293   1.947 -0.3538  0.2097  0.0747
 7325SOL    HW122365   6.547   4.369   1.909 -0.4620  0.6269  0.7830
 7325SOL    HW222366   6.446   4.329   2.015 -1.5705 -0.3413 -0.6057
 7326SOL     OW22367   6.730   3.897   6.178 -0.0536  0.2694  0.2081
 7326SOL    HW122368   6.641   3.877   6.149  0.3242 -1.1459 -0.0283
 7326SOL    HW222369   6.723   3.984   6.218 -2.0852 -0.8231  2.4938
 7327SOL     OW22370   5.564   0.222   1.164  0.0266 -0.1031  1.0339
 7327SOL    HW122371   5.604   0.145   1.204 -1.3027 -1.5273 -0.2582
 7327SOL    HW222372   5.537   0.277   1.238 -0.1437 -1.4842  2.0164
 7328SOL     OW22373   5.964   6.094   3.429  0.3298  0.6275 -0.8963
 7328SOL    HW122374   5.882   6.048   3.448  0.1748  1.2117 -0.0936
 7328SOL    HW222375   6.031   6.045   3.477  0.3370  0.5618 -0.9749
 7329SOL     OW22376   5.842   4.806   0.703  0.5275 -0.0041 -0.0678
 7329SOL    HW122377   5.780   4.878   0.691 -0.2753 -0.4628  1.0556
 7329SOL    HW222378   5.928   4.846   0.693  0.1400  1.3464  1.4416
 7330SOL     OW22379   0.616   6.640   3.893  0.0554 -0.0319 -0.0017
 7330SOL    HW122380   0.620   6.672   3.803 -0.2421  0.5502  0.1858
 7330SOL    HW222381   0.547   6.573   3.891 -2.0427  1.9695  0.3510
 7331SOL     OW22382   0.962   2.144   5.598 -0.0360 -0.4845  0.2359
 7331SOL    HW122383   0.873   2.124   5.625  0.5065 -0.1670  2.4766
 7331SOL    HW222384   1.009   2.061   5.604  0.3321 -0.2135  1.4294
 7332SOL     OW22385   3.273   6.138   1.783  0.4547  0.2093 -0.0477
 7332SOL    HW122386   3.367   6.157   1.777 -0.2161  4.0829 -4.7686
 7332SOL    HW222387   3.237   6.210   1.834 -0.1955 -0.1367 -0.0022
 7333SOL     OW22388   2.598   6.092   3.058  0.1380 -0.1571  0.3952
 7333SOL    HW122389   2.533   6.150   3.098 -0.0475  0.0013 -0.1165
 7333SOL    HW222390   2.640   6.048   3.131  1.4584  1.8407  0.9162
 7334SOL     OW22391   0.601   2.901   3.281  0.2156 -0.8904 -0.1395
 7334SOL    HW122392   0.568   2.960   3.348  0.5782 -1.1547  0.2748
 7334SOL    HW222393   0.649   2.957   3.221 -2.5991 -0.1503 -1.8886
 7335SOL     OW22394   0.351   0.832   5.552  0.1995 -0.5273 -0.3447
 7335SOL    HW122395   0.378   0.916   5.588  1.2188 -1.2483  0.6486
 7335SOL    HW222396   0.303   0.854   5.473  0.9302  0.9631 -0.4089
 7336SOL     OW22397   1.396   4.261   2.646 -0.6460 -0.7876 -0.3256
 7336SOL    HW122398   1.368   4.232   2.732 -1.0153 -0.6479 -0.3952
 7336SOL    HW222399   1.491   4.269   2.653 -0.7992  0.6003  0.4961
 7337SOL     OW22400   3.175   1.637   2.497  0.3592  0.9558  0.1849
 7337SOL    HW122401   3.162   1.676   2.410 -0.0984 -2.3875 -1.3789
 7337SOL    HW222402   3.245   1.691   2.536 -0.0331  3.1214 -1.8400
 7338SOL     OW22403   0.035   2.847   3.806 -0.5182  0.1655 -0.0952
 7338SOL    HW122404  -0.001   2.929   3.839 -1.1001  0.0556 -0.4500
 7338SOL    HW222405   0.067   2.868   3.719 -1.7779 -0.2584 -0.6808
 7339SOL     OW22406   5.259   2.331   2.929 -0.0497  0.1829  0.1817
 7339SOL    HW122407   5.311   2.251   2.919  0.3303  0.0300  2.6196
 7339SOL    HW222408   5.309   2.384   2.991 -1.0989  1.5965 -0.1384
 7340SOL     OW22409   0.937   0.690   2.446  0.0839  0.2182 -0.5855
 7340SOL    HW122410   0.852   0.735   2.441 -1.1408 -1.7728  0.9206
 7340SOL    HW222411   0.915   0.597   2.435  1.7798 -0.5385  1.7747
 7341SOL     OW22412   1.019   1.701   3.552 -0.3400  0.4513  0.0036
 7341SOL    HW122413   1.029   1.671   3.642 -0.3382 -0.3830 -0.2609
 7341SOL    HW222414   0.943   1.759   3.554 -1.0897 -0.5167  0.3270
 7342SOL     OW22415   5.161   1.982   2.480 -0.1774 -0.3723 -0.5005
 7342SOL    HW122416   5.143   2.075   2.486  0.6640 -0.0776 -2.0787
 7342SOL    HW222417   5.109   1.952   2.406  1.6265 -0.5689 -1.7519
 7343SOL     OW22418   5.953   4.848   1.707  0.0815 -0.5097  0.4678
 7343SOL    HW122419   6.035   4.872   1.664  1.3729 -4.4147  0.3168
 7343SOL    HW222420   5.900   4.809   1.638 -0.1068 -1.8181  1.2978
 7344SOL     OW22421   2.341   5.342   2.831  0.2532 -0.0013  0.4594
 7344SOL    HW122422   2.416   5.315   2.779 -0.4905 -0.4896 -0.4048
 7344SOL    HW222423   2.378   5.393   2.903  1.2256  2.7046 -1.7550
 7345SOL     OW22424   4.992   1.537   1.837 -0.0275  0.1787 -0.1642
 7345SOL    HW122425   4.927   1.471   1.860  0.4063 -0.3388 -0.4035
 7345SOL    HW222426   5.022   1.513   1.749 -1.2745  1.8199 -1.1015
 7346SOL     OW22427   0.912   5.903   6.759  0.0724  0.1195 -0.0221
 7346SOL    HW122428   0.869   5.899   6.673  0.6407  0.3134 -0.3165
 7346SOL    HW222429   0.877   5.983   6.799  0.3747  0.4340 -0.3793
 7347SOL     OW22430   4.678   0.424   5.006 -1.0602  0.2280  0.0315
 7347SOL    HW122431   4.720   0.338   5.011 -0.9615  0.3258  0.9603
 7347SOL    HW222432   4.733   0.473   4.944 -1.3364 -0.4876 -0.8039
 7348SOL     OW22433   3.256   3.686   2.816 -0.5632  0.4732 -0.1307
 7348SOL    HW122434   3.193   3.619   2.789 -0.6232  0.8812 -1.0586
 7348SOL    HW222435   3.337   3.662   2.772  0.0041 -0.1486  1.2012
 7349SOL     OW22436   4.205   0.527   2.359 -1.0544  0.1732 -0.7383
 7349SOL    HW122437   4.118   0.566   2.360 -1.1120  0.0440 -0.6733
 7349SOL    HW222438   4.254   0.579   2.295 -1.0625  0.4952 -0.4868
 7350SOL     OW22439   1.719   2.880   1.092 -0.3575  0.5125  0.3415
 7350SOL    HW122440   1.748   2.805   1.040  1.2415  1.4443 -0.1749
 7350SOL    HW222441   1.793   2.940   1.090 -0.6920  1.0867  2.7658
 7351SOL     OW22442   0.626   5.609   1.259 -0.0276 -0.4575  0.8849
 7351SOL    HW122443   0.631   5.702   1.283 -1.2219  0.1857 -1.0508
 7351SOL    HW222444   0.540   5.581   1.290  0.1039 -0.7670  0.9729
 7352SOL     OW22445   6.662   6.317   5.978  0.5309  0.0321  0.2152
 7352SOL    HW122446   6.743   6.286   5.938  0.2515  0.9233 -1.1055
 7352SOL    HW222447   6.597   6.251   5.954  0.1837  0.9760 -1.5956
 7353SOL     OW22448   5.043   6.234   5.522  0.8437 -0.5423  0.3414
 7353SOL    HW122449   5.074   6.270   5.439 -0.6469  0.7715  0.3000
 7353SOL    HW222450   5.120   6.237   5.579  1.6213 -0.4811 -0.6757
 7354SOL     OW22451   5.191   3.567   0.688 -0.2677  0.6017 -0.0808
 7354SOL    HW122452   5.284   3.566   0.662  0.0917 -2.0300  1.0336
 7354SOL    HW222453   5.193   3.547   0.782 -2.0052 -0.5669 -0.2650
 7355SOL     OW22454   3.765   6.376   3.875 -1.2126 -0.1910 -0.2752
 7355SOL    HW122455   3.773   6.395   3.968 -0.0773 -1.3128 -0.1194
 7355SOL    HW222456   3.674   6.348   3.864 -0.9355 -1.6567  0.8312
 7356SOL     OW22457   6.358   1.655   0.320 -0.0067  0.6113  0.2022
 7356SOL    HW122458   6.434   1.660   0.378  0.9808 -1.5180 -0.7887
 7356SOL    HW222459   6.288   1.619   0.375  0.8393 -1.1082  0.2197
 7357SOL     OW22460   6.293   5.941   1.536  0.2221 -0.0059  0.2724
 7357SOL    HW122461   6.287   6.002   1.609 -0.4504  1.2998 -0.8391
 7357SOL    HW222462   6.350   5.984   1.473  1.3733 -1.4313  0.2841
 7358SOL     OW22463   5.973   3.112   6.681 -0.2981 -0.0261 -0.5284
 7358SOL    HW122464   6.003   3.184   6.625  2.4336  0.5368  1.3753
 7358SOL    HW222465   5.952   3.155   6.764  0.3078 -1.2694  0.2998
 7359SOL     OW22466   1.789   6.607   4.546 -0.4579 -0.3994  0.7462
 7359SOL    HW122467   1.773   6.627   4.453  0.0091  1.9758  1.1096
 7359SOL    HW222468   1.725   6.539   4.567 -1.6004  0.0764 -0.9480
 7360SOL     OW22469   2.432   2.333   6.681 -0.1365 -0.3029  0.0912
 7360SOL    HW122470   2.379   2.393   6.734  1.2391  0.7268  0.3615
 7360SOL    HW222471   2.368   2.279   6.635 -1.4209  0.8088  0.4984
 7361SOL     OW22472   4.877   6.209   2.614 -0.1799 -0.2657  0.0925
 7361SOL    HW122473   4.925   6.279   2.660 -1.3862  0.7222 -0.0917
 7361SOL    HW222474   4.902   6.129   2.659  2.4469  0.0409 -0.6467
 7362SOL     OW22475   5.234   1.096   0.738 -0.3114  0.0153  0.3000
 7362SOL    HW122476   5.232   1.178   0.688 -0.0036 -0.2854 -0.2090
 7362SOL    HW222477   5.143   1.082   0.763 -0.3098  0.7031  0.7014
 7363SOL     OW22478   5.726   2.725   2.555 -0.3877 -0.1487  0.2601
 7363SOL    HW122479   5.663   2.667   2.512 -0.6809  0.3305  0.0269
 7363SOL    HW222480   5.698   2.813   2.530  0.9604  0.0481 -0.6535
 7364SOL     OW22481   4.964   3.116   1.334 -0.1853 -0.3070 -0.7642
 7364SOL    HW122482   4.904   3.054   1.294 -3.3018  2.1997 -0.3380
 7364SOL    HW222483   4.908   3.184   1.371  2.9071  1.7539  0.5700
 7365SOL     OW22484   1.344   6.204   0.317 -0.2089 -0.5657  0.1053
 7365SOL    HW122485   1.403   6.267   0.275  0.0144 -0.7130  0.1952
 7365SOL    HW222486   1.394   6.122   0.318 -0.6833 -0.8694 -0.4647
 7366SOL     OW22487   6.100   0.825   5.724  0.0504  0.3103  0.0947
 7366SOL    HW122488   6.027   0.777   5.762 -0.3224  0.2360 -0.6887
 7366SOL    HW222489   6.108   0.789   5.635  2.0926 -0.8617  0.6840
 7367SOL     OW22490   4.175   3.825   4.225  0.9110 -0.3038  0.5726
 7367SOL    HW122491   4.204   3.799   4.313 -0.3072  1.2385  1.4964
 7367SOL    HW222492   4.249   3.874   4.189  2.0436 -2.3407  0.0408
 7368SOL     OW22493   0.810   0.531   5.768 -0.3123 -0.1485 -0.1714
 7368SOL    HW122494   0.795   0.520   5.675  0.7362 -0.8593 -0.2791
 7368SOL    HW222495   0.844   0.620   5.776  1.4109 -0.7185 -0.7418
 7369SOL     OW22496   0.710   4.305   1.389  0.4614 -0.0859 -0.1771
 7369SOL    HW122497   0.644   4.367   1.359  0.3842 -0.0658  0.0376
 7369SOL    HW222498   0.665   4.249   1.452  0.6450 -0.0805 -0.0396
 7370SOL     OW22499   6.282   1.982   0.951 -0.2398 -0.6867  0.1152
 7370SOL    HW122500   6.313   1.896   0.921  0.5759 -0.4304  0.1972
 7370SOL    HW222501   6.207   1.962   1.007 -0.1309 -1.3433  0.0398
 7371SOL     OW22502   4.771   4.146   1.366 -0.0079 -0.3765  0.2867
 7371SOL    HW122503   4.718   4.068   1.382  0.7992 -1.8783 -3.3713
 7371SOL    HW222504   4.825   4.154   1.444 -2.4068 -1.4239  2.2009
 7372SOL     OW22505   5.681   1.324   6.220  0.1029  0.1455  0.5198
 7372SOL    HW122506   5.645   1.245   6.260 -2.7883  0.8774 -0.4545
 7372SOL    HW222507   5.745   1.292   6.157  1.7040 -1.1867  2.6622
 7373SOL     OW22508   1.500   6.172   4.807 -0.2116  0.3571 -0.0808
 7373SOL    HW122509   1.418   6.126   4.827  1.1375 -1.8082  0.7613
 7373SOL    HW222510   1.495   6.187   4.713 -0.6876 -1.6867 -0.4458
 7374SOL     OW22511   4.114   4.069   5.386  0.2112  0.9730  0.0078
 7374SOL    HW122512   4.042   4.063   5.449 -1.5624  4.0482 -1.5324
 7374SOL    HW222513   4.192   4.080   5.440 -0.6469 -0.6228  1.6943
 7375SOL     OW22514   1.648   4.512   1.858 -0.1867  0.2772 -0.2328
 7375SOL    HW122515   1.742   4.518   1.873 -0.0706 -0.7766 -0.4711
 7375SOL    HW222516   1.628   4.586   1.800  0.8027 -0.4426 -1.5523
 7376SOL     OW22517   4.147   1.170   5.185  0.3678 -0.6624  0.2771
 7376SOL    HW122518   4.131   1.199   5.095  2.0448  0.3109  0.2454
 7376SOL    HW222519   4.158   1.075   5.178  0.9522 -0.5408 -0.6394
 7377SOL     OW22520   2.997   5.696   3.579 -0.2135  0.7253  0.5054
 7377SOL    HW122521   2.907   5.724   3.590 -0.5773  0.4593 -1.4399
 7377SOL    HW222522   3.049   5.775   3.594 -0.8891  1.2526  0.1525
 7378SOL     OW22523   3.573   6.810   0.801  0.2212  0.2263 -0.4035
 7378SOL    HW122524   3.485   6.829   0.831  0.3289  0.4393 -0.2211
 7378SOL    HW222525   3.577   6.715   0.795  0.2791  0.1716  0.4868
 7379SOL     OW22526   2.230   3.770   4.877  0.1797  1.0046 -0.2586
 7379SOL    HW122527   2.184   3.708   4.934 -0.2057  0.5171 -1.0882
 7379SOL    HW222528   2.316   3.731   4.864 -0.5811 -0.2191 -2.0727
 7380SOL     OW22529   5.912   0.245   0.072  0.2448  0.2041  0.4483
 7380SOL    HW122530   5.916   0.264   0.166 -0.6571 -1.4478  0.8767
 7380SOL    HW222531   5.847   0.305   0.038  1.7439  1.9470  0.5223
 7381SOL     OW22532   0.435   1.605   4.486  0.5463 -0.4670 -0.0769
 7381SOL    HW122533   0.473   1.655   4.558  0.3173 -0.0449 -0.2490
 7381SOL    HW222534   0.486   1.524   4.484  2.0871  0.4629 -0.8858
 7382SOL     OW22535   4.026   1.235   1.363  0.3155  0.5110  0.3317
 7382SOL    HW122536   3.931   1.244   1.353  0.5257  1.5619 -1.0116
 7382SOL    HW222537   4.046   1.278   1.446 -0.4653 -0.4126  1.0138
 7383SOL     OW22538   1.089   3.717   0.113 -0.5461 -0.5839 -0.5746
 7383SOL    HW122539   1.131   3.633   0.133 -0.0096 -0.2368 -0.2044
 7383SOL    HW222540   1.107   3.731   0.020 -1.2016 -1.1838 -0.8007
 7384SOL     OW22541   3.320   4.256   2.228 -0.3827 -0.5683 -0.5960
 7384SOL    HW122542   3.321   4.349   2.203 -1.6022 -0.5884 -0.7398
 7384SOL    HW222543   3.377   4.253   2.305 -0.3563  0.3112 -0.5612
 7385SOL     OW22544   3.705   2.222   5.081 -0.2065 -0.2743 -0.2118
 7385SOL    HW122545   3.642   2.173   5.028  0.3023 -1.2515  0.0635
 7385SOL    HW222546   3.790   2.197   5.045  0.0670  0.4310 -0.0696
 7386SOL     OW22547   5.743   3.576   1.372 -0.6311 -0.0902  0.3371
 7386SOL    HW122548   5.723   3.652   1.318  1.1791  0.6949  0.6957
 7386SOL    HW222549   5.776   3.613   1.454 -1.9436 -1.2683  1.4545
 7387SOL     OW22550   6.705   0.811   2.122 -0.2537  1.2846  0.2360
 7387SOL    HW122551   6.757   0.848   2.194 -0.7508  0.6956  0.9073
 7387SOL    HW222552   6.662   0.735   2.160  0.6955  0.0357 -1.1055
 7388SOL     OW22553   3.559   3.114   5.588  0.7770  0.1725  0.1618
 7388SOL    HW122554   3.542   3.202   5.554 -1.9476 -0.3088  0.0176
 7388SOL    HW222555   3.559   3.058   5.510  0.4626 -0.1866  0.4156
 7389SOL     OW22556   2.457   3.215   2.422  0.7520 -0.0709  0.7466
 7389SOL    HW122557   2.486   3.302   2.394 -0.5188  0.4587  0.9945
 7389SOL    HW222558   2.379   3.198   2.370  0.6326 -0.7986  1.1530
 7390SOL     OW22559   3.747   3.334   3.410 -0.2086  0.2487 -0.1970
 7390SOL    HW122560   3.777   3.338   3.320  1.6989 -1.8204  0.2745
 7390SOL    HW222561   3.658   3.371   3.408 -0.2377  0.1608 -2.8957
 7391SOL     OW22562   4.552   6.095   4.991 -0.1099 -0.0178  0.5617
 7391SOL    HW122563   4.635   6.046   4.995  0.3589  0.4785 -1.7319
 7391SOL    HW222564   4.578   6.185   4.971 -1.2195 -0.0878 -1.4180
 7392SOL     OW22565   6.148   5.820   3.152  0.3254 -0.1378 -0.1895
 7392SOL    HW122566   6.169   5.888   3.088 -0.7901 -0.0176 -0.4453
 7392SOL    HW222567   6.185   5.740   3.115  3.0722  0.5113  0.8538
 7393SOL     OW22568   0.650   0.208   6.237  0.0979 -0.2323  0.0054
 7393SOL    HW122569   0.681   0.268   6.304  0.2852 -0.8146  0.4519
 7393SOL    HW222570   0.580   0.255   6.193 -2.5099 -1.0812  2.8959
 7394SOL     OW22571   4.452   6.733   4.825 -0.3885 -0.5433  0.2383
 7394SOL    HW122572   4.460   6.667   4.756 -1.6008  1.1974 -1.6584
 7394SOL    HW222573   4.358   6.745   4.837 -0.2857 -1.7990  3.3076
 7395SOL     OW22574   0.735   0.715   6.722  0.1051 -0.4124  0.0125
 7395SOL    HW122575   0.661   0.691   6.666  0.5882 -0.1849 -0.7530
 7395SOL    HW222576   0.741   0.810   6.715  1.1802 -0.5189 -0.9048
 7396SOL     OW22577   2.353   0.430   5.598 -0.0405 -0.0067  0.3192
 7396SOL    HW122578   2.411   0.448   5.525  0.9224  0.1001  1.0949
 7396SOL    HW222579   2.272   0.400   5.557  0.2575  0.6598 -0.8044
 7397SOL     OW22580   5.346   4.226   5.971 -0.2422  0.9074  0.9219
 7397SOL    HW122581   5.397   4.286   6.026  0.1576  2.8808 -1.4633
 7397SOL    HW222582   5.259   4.266   5.966 -1.6504 -1.4824  3.4433
 7398SOL     OW22583   2.654   1.428   1.477  0.2097  0.3411  0.0002
 7398SOL    HW122584   2.608   1.351   1.509 -0.4631 -0.2899 -2.2554
 7398SOL    HW222585   2.627   1.435   1.385  1.3500  2.4516 -0.2366
 7399SOL     OW22586   0.076   6.599   3.023 -0.1718 -0.0779  0.2614
 7399SOL    HW122587   0.158   6.605   2.974 -0.1244  0.1514  0.3662
 7399SOL    HW222588   0.028   6.528   2.981  0.1194 -0.2725  0.2563
 7400SOL     OW22589   0.620   0.743   3.197 -0.0990 -0.2167  0.0811
 7400SOL    HW122590   0.545   0.782   3.240 -0.7849  1.4660 -2.3926
 7400SOL    HW222591   0.696   0.782   3.240 -0.7439  1.3163 -0.1050
 7401SOL     OW22592   4.893   4.820   2.994  0.2844  0.0157 -0.0778
 7401SOL    HW122593   4.808   4.777   2.987  0.0140  0.4353  0.5116
 7401SOL    HW222594   4.955   4.749   3.007  0.1309 -0.3519 -1.2652
 7402SOL     OW22595   1.672   0.856   4.954 -0.4958  0.2515 -0.5975
 7402SOL    HW122596   1.761   0.867   4.922  0.8476  0.5481  2.9275
 7402SOL    HW222597   1.629   0.940   4.937  0.2458  0.5067 -1.2466
 7403SOL     OW22598   4.216   1.028   4.443  0.2605  0.0418  0.3455
 7403SOL    HW122599   4.185   1.063   4.359  0.3053 -0.0177  0.3041
 7403SOL    HW222600   4.268   0.951   4.420 -1.6252 -1.3535  0.5470
 7404SOL     OW22601   1.127   3.411   5.409 -0.4008 -0.1015  0.3643
 7404SOL    HW122602   1.107   3.324   5.374 -0.6102  0.9875 -2.5039
 7404SOL    HW222603   1.210   3.400   5.455  0.0584 -1.6255 -0.7610
 7405SOL     OW22604   1.705   0.592   0.269  0.8593  0.2690 -0.3773
 7405SOL    HW122605   1.692   0.629   0.357  2.5575 -0.7133  0.3502
 7405SOL    HW222606   1.618   0.592   0.230  0.1605  1.3358  1.0663
 7406SOL     OW22607   1.801   0.705   2.772  0.1920 -0.0626  0.3937
 7406SOL    HW122608   1.842   0.777   2.820  0.5002 -0.3972  0.6319
 7406SOL    HW222609   1.862   0.632   2.780  0.8716  0.2375 -1.5932
 7407SOL     OW22610   4.913   2.175   4.635  0.2767 -0.0978  0.7009
 7407SOL    HW122611   5.006   2.184   4.612  0.6274  0.4062  2.1926
 7407SOL    HW222612   4.893   2.083   4.617  0.4677  0.2399 -1.5848
 7408SOL     OW22613   4.547   2.200   6.233 -0.0178 -0.0231  0.0137
 7408SOL    HW122614   4.597   2.179   6.154 -0.0441  0.7732 -0.2260
 7408SOL    HW222615   4.551   2.295   6.239 -1.5362  0.0607 -0.0219
 7409SOL     OW22616   5.800   4.290   6.192  0.1552 -0.3725 -0.2756
 7409SOL    HW122617   5.804   4.312   6.285  0.2620 -1.9259  0.1142
 7409SOL    HW222618   5.788   4.195   6.191  1.4889 -0.5536 -1.8746
 7410SOL     OW22619   3.191   2.515   5.530 -0.1082  0.0928  0.3346
 7410SOL    HW122620   3.118   2.469   5.571  1.4612 -0.0256  3.2639
 7410SOL    HW222621   3.243   2.447   5.489 -0.9648  0.0371 -0.6941
 7411SOL     OW22622   4.132   5.242   0.638  0.1375  0.0749  0.8315
 7411SOL    HW122623   4.225   5.222   0.635  0.2034  0.4338 -2.1429
 7411SOL    HW222624   4.089   5.157   0.646  0.6982 -0.1918  1.0490
 7412SOL     OW22625   6.275   5.841   3.421  0.7335 -0.3291  0.2691
 7412SOL    HW122626   6.212   5.831   3.350  0.8675  0.3622  0.0455
 7412SOL    HW222627   6.360   5.822   3.380  0.9538  1.2639 -0.0788
 7413SOL     OW22628   5.897   2.587   6.657 -0.1181  0.4740  0.2488
 7413SOL    HW122629   5.887   2.669   6.609 -1.8235  0.6729  0.8901
 7413SOL    HW222630   5.964   2.606   6.723  0.5037  0.9092 -0.4862
 7414SOL     OW22631   3.051   2.635   4.152 -0.5104 -0.0152  0.1713
 7414SOL    HW122632   3.078   2.676   4.070 -0.0416  0.5437  0.5990
 7414SOL    HW222633   3.032   2.545   4.128  0.1354  0.0031 -0.4619
 7415SOL     OW22634   0.338   4.797   3.981  0.1873  0.6307 -0.0474
 7415SOL    HW122635   0.245   4.774   3.979 -0.0744  1.6424 -0.2710
 7415SOL    HW222636   0.362   4.806   3.888  0.0115  2.1699  0.0203
 7416SOL     OW22637   5.552   0.605   3.625 -0.3546 -0.0652  0.4583
 7416SOL    HW122638   5.576   0.538   3.689 -1.3557  0.8915  1.8723
 7416SOL    HW222639   5.595   0.576   3.544 -0.2854 -2.1051  1.1544
 7417SOL     OW22640   5.280   2.169   5.599 -0.8849  0.2526 -0.4464
 7417SOL    HW122641   5.300   2.092   5.652 -2.5769 -0.3146 -0.5731
 7417SOL    HW222642   5.225   2.137   5.528 -1.0062  1.4632 -0.9370
 7418SOL     OW22643   6.220   2.141   2.724  0.0061 -0.0781  0.5741
 7418SOL    HW122644   6.222   2.205   2.652  0.1372 -1.8931 -1.1128
 7418SOL    HW222645   6.143   2.088   2.707 -0.9971  0.5258  2.8335
 7419SOL     OW22646   0.082   1.018   1.954 -0.1641 -0.9628  0.3790
 7419SOL    HW122647   0.059   1.099   1.907 -1.1521 -0.9526  0.8485
 7419SOL    HW222648   0.123   1.048   2.035 -1.5437 -0.8767  1.0752
 7420SOL     OW22649   6.607   4.475   5.955  0.3671 -0.9387  0.2970
 7420SOL    HW122650   6.517   4.475   5.923  0.6184 -0.3332 -0.4345
 7420SOL    HW222651   6.660   4.484   5.876  1.1605 -3.0077  0.5265
 7421SOL     OW22652   4.201   3.885   0.439  0.0479 -0.2931 -0.1525
 7421SOL    HW122653   4.286   3.888   0.483  0.3190 -0.7230 -0.6416
 7421SOL    HW222654   4.170   3.976   0.440  0.0854 -0.2749  0.8438
 7422SOL     OW22655   6.637   1.741   4.459 -0.4748 -0.7626  0.4093
 7422SOL    HW122656   6.602   1.652   4.457 -1.2177 -0.5019 -2.0294
 7422SOL    HW222657   6.696   1.745   4.383  0.0846  0.6301  0.8799
 7423SOL     OW22658   0.742   3.108   4.339  0.2128  0.2317  0.7511
 7423SOL    HW122659   0.648   3.098   4.320 -0.2962  3.0867  1.2777
 7423SOL    HW222660   0.766   3.027   4.385 -1.8922 -0.7124  0.3161
 7424SOL     OW22661   1.560   0.196   3.045 -0.2374  0.4527  0.4239
 7424SOL    HW122662   1.640   0.246   3.032 -1.7001  2.6601 -0.6897
 7424SOL    HW222663   1.500   0.229   2.978 -2.0146 -1.3051  1.0532
 7425SOL     OW22664   5.626   0.580   4.067  0.0753  0.2533 -0.0095
 7425SOL    HW122665   5.619   0.550   4.157 -1.9534  0.1163 -0.1741
 7425SOL    HW222666   5.541   0.619   4.048  0.5141  0.4050 -1.8137
 7426SOL     OW22667   2.479   6.496   3.103  0.1528 -0.2316  0.0833
 7426SOL    HW122668   2.445   6.461   3.021  0.5610 -1.7696  0.5296
 7426SOL    HW222669   2.555   6.547   3.078 -0.1415 -0.0983 -0.5576
 7427SOL     OW22670   5.503   3.106   5.496 -0.5684 -0.3955 -0.2506
 7427SOL    HW122671   5.473   3.103   5.587  0.8081 -1.6923  0.1988
 7427SOL    HW222672   5.595   3.132   5.502 -0.0646 -1.8594 -1.1403
 7428SOL     OW22673   4.644   0.855   6.480  0.5658  1.0377 -0.5174
 7428SOL    HW122674   4.606   0.876   6.565  0.2942 -1.8773  0.1657
 7428SOL    HW222675   4.716   0.918   6.470  1.4555  0.6654  2.5145
 7429SOL     OW22676   4.413   4.018   2.153  0.1607 -0.6754 -0.2804
 7429SOL    HW122677   4.354   4.058   2.089  0.3605 -1.5237 -1.0364
 7429SOL    HW222678   4.501   4.037   2.120  0.2633 -1.2903 -0.3898
 7430SOL     OW22679   0.739   1.252   3.676 -0.4611  0.0383  0.0297
 7430SOL    HW122680   0.802   1.205   3.620 -1.1152 -1.1962  0.3131
 7430SOL    HW222681   0.751   1.344   3.651 -0.2236 -0.3985 -1.6421
 7431SOL     OW22682   5.458   0.062   2.635  0.6449  0.3208 -1.1068
 7431SOL    HW122683   5.410   0.057   2.552  1.5707 -2.7699 -1.5788
 7431SOL    HW222684   5.499  -0.023   2.644  0.8736  0.6590  2.4126
 7432SOL     OW22685   0.005   0.826   3.590 -0.5825  0.3626 -0.1606
 7432SOL    HW122686   0.077   0.785   3.542 -0.2079 -0.2848  0.9069
 7432SOL    HW222687  -0.071   0.817   3.532 -0.7199 -2.6248  0.2976
 7433SOL     OW22688   3.722   3.336   3.133  0.1129 -0.4065  0.3962
 7433SOL    HW122689   3.785   3.291   3.076  1.4808  1.5448  0.2673
 7433SOL    HW222690   3.708   3.421   3.090 -1.1397 -0.0537  1.4497
 7434SOL     OW22691   6.797   6.641   1.190 -0.1421 -0.2644  0.1556
 7434SOL    HW122692   6.859   6.711   1.169  0.9991 -1.3468 -0.2593
 7434SOL    HW222693   6.767   6.609   1.105 -1.5768  0.4876  0.3618
 7435SOL     OW22694   1.795   5.559   0.675 -0.0743 -0.3501 -0.4534
 7435SOL    HW122695   1.799   5.503   0.753 -0.6304 -0.0833 -0.2309
 7435SOL    HW222696   1.731   5.517   0.618 -1.5857  0.7956  0.3254
 7436SOL     OW22697   6.303   6.175   4.141 -0.1444 -0.0291 -0.2517
 7436SOL    HW122698   6.378   6.148   4.193  0.8909  1.1828 -1.0698
 7436SOL    HW222699   6.284   6.264   4.171  0.9777  1.0172 -2.4154
 7437SOL     OW22700   5.706   5.175   3.824 -0.2374  0.3604 -0.0292
 7437SOL    HW122701   5.777   5.230   3.857  0.6274 -1.3176  1.0045
 7437SOL    HW222702   5.746   5.090   3.807 -1.6702 -0.1777 -0.9926
 7438SOL     OW22703   4.347   2.127   2.045  0.5020 -0.2106  0.0920
 7438SOL    HW122704   4.366   2.195   2.109  1.8999  0.2630 -0.7990
 7438SOL    HW222705   4.397   2.151   1.967 -1.3735 -0.5929 -1.3326
 7439SOL     OW22706   3.444   5.172   3.877 -0.0692  0.4317 -0.0148
 7439SOL    HW122707   3.405   5.221   3.805  0.6110  0.7519 -0.1758
 7439SOL    HW222708   3.375   5.165   3.942 -0.5728  0.4752 -0.5392
 7440SOL     OW22709   3.086   6.648   5.649  0.4454 -0.2852 -0.1997
 7440SOL    HW122710   3.130   6.612   5.726  0.1804  0.6004  0.3847
 7440SOL    HW222711   3.122   6.599   5.575 -0.3061 -2.1110  0.5981
 7441SOL     OW22712   2.465   4.404   0.501 -0.1666  0.0797 -0.1496
 7441SOL    HW122713   2.531   4.464   0.467  1.4553 -1.8213 -0.5176
 7441SOL    HW222714   2.406   4.460   0.552 -0.2307  2.3572 -2.5114
 7442SOL     OW22715   0.212   3.609   0.837  0.4090  0.2029  0.4705
 7442SOL    HW122716   0.254   3.694   0.843 -1.0131  0.9508  0.2602
 7442SOL    HW222717   0.210   3.577   0.927  1.5983  0.0336  0.4577
 7443SOL     OW22718   3.521   3.703   5.528  0.1736  0.2004  0.3349
 7443SOL    HW122719   3.604   3.658   5.545 -0.1045 -0.2172  0.6122
 7443SOL    HW222720   3.492   3.669   5.443 -1.2710 -2.0917  1.6351
 7444SOL     OW22721   3.534   2.546   4.935  0.0177 -0.0743 -0.2402
 7444SOL    HW122722   3.612   2.512   4.978  0.3572  1.9174  0.8742
 7444SOL    HW222723   3.568   2.608   4.869 -0.5788 -1.0980 -1.5524
 7445SOL     OW22724   1.191   3.344   5.048 -0.1072 -0.4764 -0.5045
 7445SOL    HW122725   1.166   3.426   5.090  1.1393  0.1602 -0.9553
 7445SOL    HW222726   1.134   3.338   4.971 -1.3596 -0.9049  0.4145
 7446SOL     OW22727   6.448   2.544   4.554 -0.3891  0.1914  0.1535
 7446SOL    HW122728   6.477   2.469   4.501 -0.9483  1.0216 -1.3822
 7446SOL    HW222729   6.508   2.545   4.628  0.9714 -0.5266 -0.8843
 7447SOL     OW22730   4.561   4.676   5.095  0.6566 -0.1276 -0.1038
 7447SOL    HW122731   4.481   4.651   5.047  0.0388  0.7456  0.4330
 7447SOL    HW222732   4.629   4.679   5.028 -0.2824  1.5525 -1.0773
 7448SOL     OW22733   2.659   3.551   1.869 -0.6901  0.5677 -0.1417
 7448SOL    HW122734   2.615   3.610   1.931 -1.9416 -1.9431  1.5601
 7448SOL    HW222735   2.589   3.523   1.810 -0.1568  0.6290 -0.8098
 7449SOL     OW22736   4.022   5.060   5.516 -0.1822 -0.0715  0.2806
 7449SOL    HW122737   3.958   5.096   5.577 -0.7237  1.6795 -1.2018
 7449SOL    HW222738   3.972   5.000   5.460  0.0179 -0.6161  0.6786
 7450SOL     OW22739   1.437   3.245   3.789  0.1906 -0.3507 -0.3359
 7450SOL    HW122740   1.406   3.213   3.873 -0.7167 -1.2476 -0.9856
 7450SOL    HW222741   1.361   3.236   3.731  1.2267 -1.1901 -1.6194
 7451SOL     OW22742   2.515   4.541   0.193 -0.1985 -0.2727 -0.1178
 7451SOL    HW122743   2.502   4.567   0.284 -1.3720 -0.3161 -0.2551
 7451SOL    HW222744   2.501   4.446   0.193  1.5485 -0.5597 -0.0564
 7452SOL     OW22745   6.428   0.446   3.066 -0.2861 -0.3724 -0.3675
 7452SOL    HW122746   6.347   0.490   3.039 -1.7721 -2.5501  0.2956
 7452SOL    HW222747   6.480   0.441   2.986  0.1068  2.7064 -0.4301
 7453SOL     OW22748   3.510   2.783   6.222 -0.2069 -0.2832 -0.0048
 7453SOL    HW122749   3.593   2.762   6.265 -0.5303  0.1129  0.8386
 7453SOL    HW222750   3.525   2.867   6.180 -0.1576 -0.2454  0.0879
 7454SOL     OW22751   2.866   5.039   5.569 -0.3150 -0.1870 -0.7743
 7454SOL    HW122752   2.806   4.993   5.511 -1.0307  0.8775 -0.9185
 7454SOL    HW222753   2.831   5.024   5.657 -0.4254 -0.0972 -0.8025
 7455SOL     OW22754   4.644   3.718   4.559 -0.1422  0.0233  0.2972
 7455SOL    HW122755   4.560   3.673   4.557 -0.8907  1.1839 -3.7223
 7455SOL    HW222756   4.705   3.656   4.518  0.8968 -0.5021  2.4834
 7456SOL     OW22757   5.992   6.713   5.544 -0.4658  0.3119 -0.4643
 7456SOL    HW122758   5.974   6.626   5.580  0.5253  0.1659 -0.2972
 7456SOL    HW222759   5.906   6.756   5.540 -0.9449 -0.6356 -0.4591
 7457SOL     OW22760   1.150   4.783   6.662 -0.1404  0.5359  0.1482
 7457SOL    HW122761   1.201   4.772   6.742  1.3535 -1.7335 -0.9977
 7457SOL    HW222762   1.079   4.719   6.669 -0.3929  0.7820 -0.0893
 7458SOL     OW22763   6.615   6.016   5.299 -0.1089  0.0889 -0.1079
 7458SOL    HW122764   6.646   5.960   5.370  2.1829 -0.3071 -1.3190
 7458SOL    HW222765   6.552   5.961   5.251  0.7440 -0.8209 -0.2220
 7459SOL     OW22766   0.952   4.692   1.654  0.0448 -0.3386 -0.4939
 7459SOL    HW122767   0.956   4.645   1.571 -0.5696  0.1366 -0.8065
 7459SOL    HW222768   0.949   4.785   1.629  2.3970 -0.0370  0.1329
 7460SOL     OW22769   1.085   4.500   0.458  0.3180 -0.1396  0.6303
 7460SOL    HW122770   1.129   4.445   0.394  0.5876 -1.1892  1.6779
 7460SOL    HW222771   1.129   4.480   0.541 -1.3908 -0.4343  1.5250
 7461SOL     OW22772   1.231   1.930   0.846  0.0050  0.3313 -0.2558
 7461SOL    HW122773   1.193   2.002   0.797  1.4227  1.9283  0.8413
 7461SOL    HW222774   1.211   1.951   0.938  2.8683  0.9881  0.3359
 7462SOL     OW22775   0.378   1.467   0.922  0.3147  0.1908  0.1006
 7462SOL    HW122776   0.294   1.488   0.964  0.3571  3.0428 -1.0339
 7462SOL    HW222777   0.354   1.430   0.837  0.2088 -0.1627  0.2845
 7463SOL     OW22778   0.204   5.445   6.006  0.4919 -0.2555 -0.2371
 7463SOL    HW122779   0.212   5.446   5.910 -1.1805 -3.1925 -0.5384
 7463SOL    HW222780   0.247   5.363   6.033  0.6669  0.3732  1.5138
 7464SOL     OW22781   0.137   4.460   0.678 -0.3031  0.1091 -0.4779
 7464SOL    HW122782   0.145   4.384   0.735 -0.5018  0.3466 -0.1301
 7464SOL    HW222783   0.043   4.476   0.673 -0.2342  0.6343 -0.1464
 7465SOL     OW22784   5.672   2.443   6.684  1.0834  0.1910  0.2107
 7465SOL    HW122785   5.730   2.519   6.669  0.6372  0.3483 -0.7496
 7465SOL    HW222786   5.692   2.416   6.774  2.0562  0.7571  0.1808
 7466SOL     OW22787   4.594   2.787   1.506 -0.4074 -0.3217 -0.2422
 7466SOL    HW122788   4.574   2.734   1.429 -0.2205  0.4546 -0.8411
 7466SOL    HW222789   4.561   2.874   1.485  1.1818  0.3416 -0.1824
 7467SOL     OW22790   1.311   1.954   2.225  0.0706  0.0251 -0.6974
 7467SOL    HW122791   1.262   1.872   2.230 -2.0441  1.1360 -1.7654
 7467SOL    HW222792   1.341   1.959   2.134  1.0509 -0.0070 -0.3879
 7468SOL     OW22793   5.031   6.739   5.324 -0.2112 -0.2255  0.0165
 7468SOL    HW122794   4.952   6.697   5.358 -0.5618  0.1604 -0.3040
 7468SOL    HW222795   5.020   6.831   5.345 -0.0973 -0.0909 -0.5019
 7469SOL     OW22796   6.446   1.326   3.131 -0.6480 -0.0535  0.8943
 7469SOL    HW122797   6.451   1.376   3.212  1.7094  1.6961 -0.1967
 7469SOL    HW222798   6.461   1.236   3.157 -0.5566  0.3908  2.4642
 7470SOL     OW22799   2.832   5.598   0.194  0.1293 -0.2833  0.1938
 7470SOL    HW122800   2.859   5.507   0.210  0.2761  0.0203  1.9205
 7470SOL    HW222801   2.738   5.592   0.179 -0.0076 -0.6591  1.1244
 7471SOL     OW22802   4.827   3.175   4.375  0.3042 -0.4752 -0.2072
 7471SOL    HW122803   4.841   3.089   4.334 -1.0930 -1.1800  0.7327
 7471SOL    HW222804   4.734   3.194   4.360  0.6515  1.0175 -0.6279
 7472SOL     OW22805   3.675   6.043   6.757  0.1360 -0.1590 -0.1630
 7472SOL    HW122806   3.719   6.039   6.842  0.0843 -2.1539 -0.1983
 7472SOL    HW222807   3.582   6.055   6.779 -0.0154 -1.7232  0.1195
 7473SOL     OW22808   3.263   5.253   5.365 -0.0964  0.2317  0.0480
 7473SOL    HW122809   3.320   5.197   5.417 -0.4141 -0.2705 -0.1377
 7473SOL    HW222810   3.246   5.329   5.421  0.4574  0.2138  0.2403
 7474SOL     OW22811   2.402   1.835   5.162  0.1486  0.5192  0.4679
 7474SOL    HW122812   2.351   1.861   5.085 -0.4460  2.1294  1.3552
 7474SOL    HW222813   2.340   1.839   5.235  0.7260 -0.8902  1.0627
 7475SOL     OW22814   2.775   2.292   5.418 -0.0932 -0.2507  0.4407
 7475SOL    HW122815   2.698   2.298   5.475 -0.1588 -0.0762  0.3340
 7475SOL    HW222816   2.750   2.340   5.339 -0.5853 -1.8142 -0.3847
 7476SOL     OW22817   4.174   3.287   2.873 -0.1040 -0.2330 -0.0927
 7476SOL    HW122818   4.110   3.345   2.914 -0.7243  0.0001 -1.3232
 7476SOL    HW222819   4.126   3.206   2.855  0.8310 -1.2847  1.8535
 7477SOL     OW22820   1.748   2.921   6.115  0.3603  0.5844  0.0375
 7477SOL    HW122821   1.776   2.990   6.054  2.3471  0.6691  0.9839
 7477SOL    HW222822   1.830   2.884   6.148 -0.6161 -2.5595 -0.7534
 7478SOL     OW22823   0.180   6.232   2.300  0.5243  0.2112  0.3487
 7478SOL    HW122824   0.156   6.187   2.219  0.2023  2.0067 -0.6120
 7478SOL    HW222825   0.136   6.317   2.293  0.6058  0.4598  2.3626
 7479SOL     OW22826   5.819   0.000   4.569 -0.1014 -0.5684 -0.4864
 7479SOL    HW122827   5.901  -0.049   4.572  0.5508  0.4515 -0.8119
 7479SOL    HW222828   5.779  -0.024   4.485 -0.5682 -1.6999  0.0371
 7480SOL     OW22829   6.090   4.598   3.391  0.2791 -0.3829  0.3664
 7480SOL    HW122830   6.034   4.564   3.461 -0.3993  0.2626  0.1482
 7480SOL    HW222831   6.168   4.629   3.437 -1.2795  2.5606  1.2349
 7481SOL     OW22832   0.043   0.944   6.132  0.4314  0.1939 -0.4903
 7481SOL    HW122833  -0.003   0.875   6.179 -1.2986  0.7522 -1.2640
 7481SOL    HW222834   0.079   0.901   6.054  0.1348 -0.0229 -0.5093
 7482SOL     OW22835   2.031   0.509   5.799  0.4833  0.5609 -0.5172
 7482SOL    HW122836   1.950   0.463   5.822 -0.0422  0.7286 -1.9451
 7482SOL    HW222837   2.063   0.464   5.721  0.3769  2.1106 -1.4897
 7483SOL     OW22838   5.704   2.782   1.672  0.2582  0.0540 -0.4101
 7483SOL    HW122839   5.787   2.815   1.638 -0.8988  0.1253 -3.4757
 7483SOL    HW222840   5.657   2.860   1.701  0.2922  0.2942 -1.0032
 7484SOL     OW22841   4.758   4.843   1.113  0.3858  0.5437  0.4216
 7484SOL    HW122842   4.745   4.780   1.043  0.2408 -0.9626  1.7344
 7484SOL    HW222843   4.840   4.887   1.092  0.6901 -0.3654 -0.3433
 7485SOL     OW22844   2.127   0.758   3.774 -0.0206  0.3937 -0.0574
 7485SOL    HW122845   2.208   0.795   3.737  2.0774 -2.8519  0.8894
 7485SOL    HW222846   2.077   0.730   3.698  1.3141 -0.5269 -0.6383
 7486SOL     OW22847   6.297   1.345   4.809 -0.0492 -0.0013  0.5250
 7486SOL    HW122848   6.256   1.358   4.724  0.2863 -1.1809  0.1664
 7486SOL    HW222849   6.223   1.328   4.868 -0.2279  0.0640  0.3233
 7487SOL     OW22850   4.478   1.346   4.899  0.4683 -0.0179  0.0541
 7487SOL    HW122851   4.489   1.275   4.962 -0.2169 -0.3078 -0.1508
 7487SOL    HW222852   4.518   1.312   4.818 -0.8880 -0.6371 -0.3749
 7488SOL     OW22853   4.587   2.569   4.303 -0.0375 -0.2963  0.1278
 7488SOL    HW122854   4.673   2.572   4.346  0.5219  0.2853 -0.9736
 7488SOL    HW222855   4.604   2.599   4.213 -1.6738  1.6116  0.3706
 7489SOL     OW22856   5.381   1.521   5.433 -0.3632 -0.3890 -0.3134
 7489SOL    HW122857   5.366   1.615   5.430  0.9925 -0.1393 -0.0580
 7489SOL    HW222858   5.382   1.494   5.341 -2.1625 -0.4314 -0.3544
 7490SOL     OW22859   3.435   6.367   5.027 -0.3310  0.1621  0.2351
 7490SOL    HW122860   3.506   6.414   5.072 -1.4081  1.6164  0.5052
 7490SOL    HW222861   3.469   6.351   4.939  0.2442  1.0757  0.2730
 7491SOL     OW22862   0.745   6.788   2.239  0.4932  0.4620 -0.4659
 7491SOL    HW122863   0.733   6.854   2.171 -1.5443  0.4572 -0.1901
 7491SOL    HW222864   0.761   6.838   2.319 -0.0409  0.5870 -0.4363
 7492SOL     OW22865   6.697   6.282   5.249  0.3515 -0.4223  0.0543
 7492SOL    HW122866   6.758   6.319   5.313 -0.0019 -0.1884  0.2662
 7492SOL    HW222867   6.659   6.207   5.294  1.4603 -1.3746 -0.5744
 7493SOL     OW22868   5.986   1.936   6.254  0.6054  0.0558 -0.3431
 7493SOL    HW122869   6.034   1.858   6.225 -1.8608 -1.0321 -1.8043
 7493SOL    HW222870   5.935   1.963   6.177 -3.4053 -0.7223  1.7549
 7494SOL     OW22871   4.543   6.741   2.112  0.7436 -0.3011  0.0256
 7494SOL    HW122872   4.461   6.758   2.067  0.5633  1.8039  1.0373
 7494SOL    HW222873   4.591   6.683   2.053 -1.6395 -2.0614 -0.3492
 7495SOL     OW22874   4.003   2.102   4.823 -0.2796  0.3161 -0.0306
 7495SOL    HW122875   3.970   2.187   4.852 -0.2685 -0.0694  1.1824
 7495SOL    HW222876   4.038   2.118   4.736 -1.0303  1.3672 -0.1568
 7496SOL     OW22877   4.174   6.519   1.462  0.0852 -0.1582 -0.4714
 7496SOL    HW122878   4.241   6.576   1.425  0.8687  0.1063  1.2371
 7496SOL    HW222879   4.143   6.467   1.388  2.7387 -0.8517 -1.2291
 7497SOL     OW22880   6.675   3.374   1.443  0.2251 -0.1785  0.0511
 7497SOL    HW122881   6.754   3.323   1.426  0.5726  0.0702  0.8550
 7497SOL    HW222882   6.693   3.459   1.404  0.4983 -0.0174  0.5156
 7498SOL     OW22883   4.562   1.143   6.600 -0.5431 -0.1571 -0.3503
 7498SOL    HW122884   4.523   1.086   6.666 -1.3023 -0.0171 -0.6597
 7498SOL    HW222885   4.565   1.229   6.642 -1.3738  0.0111 -0.6137
 7499SOL     OW22886   1.701   4.090   2.404  0.2225 -0.0350 -0.2670
 7499SOL    HW122887   1.769   4.070   2.339  1.1087 -0.9434  0.9091
 7499SOL    HW222888   1.620   4.093   2.353  0.9431 -0.3432 -1.4739
 7500SOL     OW22889   4.128   6.186   1.438  0.2782 -0.5350  0.4612
 7500SOL    HW122890   4.221   6.169   1.423  0.5545  0.3531  1.0730
 7500SOL    HW222891   4.098   6.111   1.490  1.1024  0.0187  1.8084
 7501SOL     OW22892   4.378   0.354   0.817  0.6938 -0.0603 -0.0777
 7501SOL    HW122893   4.316   0.302   0.869 -0.8024  0.8598 -0.8844
 7501SOL    HW222894   4.460   0.350   0.867  0.0664 -1.5080  0.8957
 7502SOL     OW22895   3.705   0.477   1.381  0.2017 -0.1317 -0.4302
 7502SOL    HW122896   3.757   0.404   1.412 -0.8465 -0.8444 -0.2773
 7502SOL    HW222897   3.744   0.502   1.297  1.1181 -0.2675 -0.0464
 7503SOL     OW22898   2.394   0.728   4.533 -0.2507 -0.2820 -0.3040
 7503SOL    HW122899   2.429   0.674   4.604 -1.8233  0.2215  0.9167
 7503SOL    HW222900   2.306   0.692   4.517  0.7910 -1.7927 -3.5550
 7504SOL     OW22901   3.281   1.966   3.585 -0.5648 -0.1976  0.3190
 7504SOL    HW122902   3.241   2.051   3.567 -0.2453 -0.2964 -0.9382
 7504SOL    HW222903   3.211   1.915   3.626 -2.2680 -0.7673 -2.9015
 7505SOL     OW22904   2.808   2.364   1.314 -0.2697  0.2763  0.4857
 7505SOL    HW122905   2.771   2.285   1.354  0.2128 -0.0914  0.2149
 7505SOL    HW222906   2.755   2.379   1.235 -1.2810  1.0530  1.2750
 7506SOL     OW22907   5.362   5.757   5.948  0.5169 -0.4170  0.8929
 7506SOL    HW122908   5.414   5.695   5.898 -1.4255 -0.3678 -1.3591
 7506SOL    HW222909   5.408   5.841   5.939  2.5294 -1.1749  2.9972
 7507SOL     OW22910   5.515   2.480   2.054  0.8139  0.5973 -0.2265
 7507SOL    HW122911   5.524   2.388   2.030  2.4271  0.6370  0.1468
 7507SOL    HW222912   5.567   2.527   1.990  0.5688  1.1958  0.0053
 7508SOL     OW22913   6.306   0.701   6.585 -0.2118  0.6180 -0.2970
 7508SOL    HW122914   6.229   0.650   6.558 -0.6871  0.9411  0.4232
 7508SOL    HW222915   6.361   0.638   6.632 -0.0521  0.3960 -0.7776
 7509SOL     OW22916   5.043   1.676   6.519  0.1146  0.1451 -0.2605
 7509SOL    HW122917   4.950   1.699   6.510  0.4210  1.5346 -0.1198
 7509SOL    HW222918   5.055   1.658   6.612  0.4906  2.4995  0.2045
 7510SOL     OW22919   1.624   3.588   3.068  0.1033  0.3097  0.1247
 7510SOL    HW122920   1.607   3.504   3.111 -1.5747  0.1784 -0.7083
 7510SOL    HW222921   1.634   3.565   2.975 -0.8369  1.0590 -0.1769
 7511SOL     OW22922   3.670   5.941   5.002 -0.0543  0.7484 -0.5794
 7511SOL    HW122923   3.703   6.021   5.043 -1.8752  0.7710  0.9718
 7511SOL    HW222924   3.748   5.889   4.984  1.0775  2.3737 -0.5844
 7512SOL     OW22925   2.227   3.134   2.977  0.0974  0.0668  0.1770
 7512SOL    HW122926   2.287   3.083   3.032  1.4810  2.7813  1.3549
 7512SOL    HW222927   2.272   3.217   2.964 -2.1564  1.1133 -1.4465
 7513SOL     OW22928   6.740   4.909   0.328  0.2818 -0.5140  0.0338
 7513SOL    HW122929   6.731   4.888   0.421  0.5814 -1.3546 -0.1102
 7513SOL    HW222930   6.827   4.877   0.305  0.1483 -0.4531 -0.5689
 7514SOL     OW22931   1.280   3.366   1.122  0.2417  0.6365 -0.9588
 7514SOL    HW122932   1.261   3.387   1.214 -1.6626 -0.2687 -1.0944
 7514SOL    HW222933   1.358   3.312   1.125  1.1252  1.8881 -0.0326
 7515SOL     OW22934   1.570   2.307   1.322  0.1395  0.4576  0.4938
 7515SOL    HW122935   1.608   2.372   1.262  0.9012 -0.6846 -0.3140
 7515SOL    HW222936   1.624   2.229   1.310 -1.2013 -0.5738  0.8811
 7516SOL     OW22937   1.798   3.894   3.934 -0.3150 -0.5118  0.1390
 7516SOL    HW122938   1.794   3.955   4.007 -2.4823  0.2503 -0.5615
 7516SOL    HW222939   1.769   3.810   3.971  0.0758 -0.5001  0.4815
 7517SOL     OW22940   4.311   6.786   1.989 -0.3620 -0.1962  0.7734
 7517SOL    HW122941   4.324   6.786   1.894  0.4954 -0.4794  0.8803
 7517SOL    HW222942   4.223   6.822   2.001 -0.3169  0.2430 -0.1042
 7518SOL     OW22943   1.725   0.275   4.350 -0.6792 -0.3989 -0.1938
 7518SOL    HW122944   1.753   0.197   4.397  0.7738  0.0231 -0.3197
 7518SOL    HW222945   1.654   0.311   4.403 -0.2447 -0.8969  0.7375
 7519SOL     OW22946   4.994   3.238   3.044 -0.5249  0.2249  0.2843
 7519SOL    HW122947   5.082   3.262   3.072 -0.4661  0.2739  0.0618
 7519SOL    HW222948   4.937   3.267   3.115 -0.1300 -2.2380  1.7295
 7520SOL     OW22949   3.989   0.670   2.439 -0.2114 -0.6345 -0.1119
 7520SOL    HW122950   3.907   0.639   2.476 -0.2138  0.7347  1.1389
 7520SOL    HW222951   4.019   0.738   2.500  1.0882 -0.0611 -1.3171
 7521SOL     OW22952   1.123   6.427   1.180  0.1898 -0.4051 -0.0724
 7521SOL    HW122953   1.139   6.496   1.116 -3.9470  0.7764 -0.1067
 7521SOL    HW222954   1.126   6.346   1.128 -1.5406  0.3956 -1.5315
 7522SOL     OW22955   6.729   4.341   2.403  0.6831  0.1923 -0.2903
 7522SOL    HW122956   6.809   4.298   2.433  1.1195  0.2372 -1.3344
 7522SOL    HW222957   6.689   4.377   2.482  2.1845  0.9834  0.1339
 7523SOL     OW22958   1.015   1.677   6.668 -0.4515 -0.2471  0.1805
 7523SOL    HW122959   1.076   1.698   6.598  0.3610 -0.8817  0.6769
 7523SOL    HW222960   1.046   1.728   6.743  0.3793 -1.6834  0.8467
 7524SOL     OW22961   1.042   0.188   2.118 -0.4527 -0.4754  0.3779
 7524SOL    HW122962   1.094   0.153   2.046  1.3202  2.2016  0.2024
 7524SOL    HW222963   0.975   0.243   2.076 -0.1687  0.1490  0.7200
 7525SOL     OW22964   3.130   0.957   5.853  0.2813  0.3716 -0.1262
 7525SOL    HW122965   3.138   1.052   5.850 -0.4894  0.4485  0.0288
 7525SOL    HW222966   3.087   0.939   5.937  2.0503 -0.2484  0.7032
 7526SOL     OW22967   4.759   6.254   0.294 -0.2001  0.3286  0.3997
 7526SOL    HW122968   4.684   6.196   0.282  0.0124 -0.1751  1.4094
 7526SOL    HW222969   4.734   6.335   0.249 -1.2228  0.0645  0.4730
 7527SOL     OW22970   3.797   2.899   1.461 -0.3567 -0.2859 -0.1413
 7527SOL    HW122971   3.836   2.972   1.510 -0.3911 -0.0984 -0.3893
 7527SOL    HW222972   3.739   2.856   1.524 -0.4822  0.0171 -0.0485
 7528SOL     OW22973   4.465   1.774   0.402  0.3814 -0.0541 -0.6712
 7528SOL    HW122974   4.459   1.846   0.465  1.4632 -0.3905 -0.1600
 7528SOL    HW222975   4.519   1.708   0.446  0.6554 -0.5470 -1.7156
 7529SOL     OW22976   5.313   6.059   0.578  0.5080  0.1638 -0.3952
 7529SOL    HW122977   5.284   6.137   0.625 -1.8025 -0.7931 -0.0980
 7529SOL    HW222978   5.299   6.079   0.486 -1.8737 -0.4926 -0.2323
 7530SOL     OW22979   2.809   3.881   2.024 -0.1161  0.1412  0.0644
 7530SOL    HW122980   2.875   3.948   2.005  0.8668 -0.9208 -0.4241
 7530SOL    HW222981   2.788   3.894   2.116  0.1502  1.0279  0.0150
 7531SOL     OW22982   6.661   5.587   5.392 -0.3557 -0.4485 -0.0374
 7531SOL    HW122983   6.654   5.677   5.423 -1.4064 -1.0391  1.5421
 7531SOL    HW222984   6.601   5.537   5.448  0.2269 -2.1401 -0.8486
 7532SOL     OW22985   5.005   5.174   4.851 -0.4167 -0.1005 -0.4295
 7532SOL    HW122986   4.968   5.193   4.766 -2.5342  0.4795  0.5684
 7532SOL    HW222987   4.955   5.099   4.883 -0.5511  0.5087  0.8412
 7533SOL     OW22988   1.100   3.320   3.931  0.0710 -0.3315 -0.0655
 7533SOL    HW122989   1.076   3.280   4.015 -0.4675 -0.0683 -0.0900
 7533SOL    HW222990   1.118   3.246   3.874  0.6498 -0.5107  0.3396
 7534SOL     OW22991   3.101   3.196   3.042  0.4983  0.1154 -0.7203
 7534SOL    HW122992   3.089   3.250   3.120  2.3665 -0.4182 -0.0115
 7534SOL    HW222993   3.029   3.221   2.984  0.4059  2.1992  0.2197
 7535SOL     OW22994   2.509   3.143   3.955 -0.2769 -0.2058 -0.8677
 7535SOL    HW122995   2.419   3.114   3.968  0.6238 -3.1668 -0.5162
 7535SOL    HW222996   2.531   3.116   3.866  1.0583 -2.0466 -0.0382
 7536SOL     OW22997   3.282   5.902   3.094  0.0013 -0.3685 -0.2464
 7536SOL    HW122998   3.368   5.862   3.079 -0.2886 -1.6152  1.1554
 7536SOL    HW222999   3.280   5.918   3.189 -0.6388  1.3059 -0.5123
 7537SOL     OW23000   6.645   5.604   0.450 -0.0215 -0.3601  0.1293
 7537SOL    HW123001   6.722   5.662   0.457 -0.3181 -0.0074  0.5395
 7537SOL    HW223002   6.678   5.518   0.477  0.7861 -0.7380 -1.8711
 7538SOL     OW23003   1.163   5.060   6.041  0.2110  0.0863  0.1177
 7538SOL    HW123004   1.230   5.097   5.983 -0.7426 -0.5171 -1.4133
 7538SOL    HW223005   1.213   5.025   6.115  1.4471  1.0220 -0.2442
 7539SOL     OW23006   2.855   3.234   2.402 -0.0602  0.6256  0.3973
 7539SOL    HW123007   2.938   3.278   2.419  0.8919 -0.3772 -1.3491
 7539SOL    HW223008   2.827   3.267   2.317 -0.6495 -0.2186  0.2443
 7540SOL     OW23009   3.981   6.777   0.821  0.4281 -0.3002  0.1844
 7540SOL    HW123010   3.916   6.800   0.754  0.0066 -1.5488  0.1347
 7540SOL    HW223011   3.930   6.742   0.893  0.7293  2.6329  1.9625
 7541SOL     OW23012   3.428   4.864   6.459  0.4305 -0.4515  0.1386
 7541SOL    HW123013   3.334   4.857   6.443  0.3541  1.6372 -0.6349
 7541SOL    HW223014   3.469   4.820   6.384  0.0936 -1.1103  0.3314
 7542SOL     OW23015   4.666   5.221   4.925  0.6363 -0.1653  0.3235
 7542SOL    HW123016   4.584   5.177   4.949  0.8159 -1.2738 -0.9984
 7542SOL    HW223017   4.721   5.151   4.889  2.2373  0.5243  1.2948
 7543SOL     OW23018   4.201   5.989   0.731  0.3183 -0.0480  0.3964
 7543SOL    HW123019   4.127   6.036   0.692  1.1287  1.2190  0.3356
 7543SOL    HW223020   4.203   6.019   0.822  1.2674  0.6172  0.1775
 7544SOL     OW23021   3.958   5.517   2.722  0.8011 -0.3023 -0.1918
 7544SOL    HW123022   4.021   5.529   2.651 -0.9724  1.0476 -1.6505
 7544SOL    HW223023   3.934   5.606   2.748 -1.1542 -0.7390 -0.3299
 7545SOL     OW23024   6.692   5.181   4.236  0.3603 -0.4039  0.3011
 7545SOL    HW123025   6.732   5.262   4.205  0.6383  0.2826  2.3188
 7545SOL    HW223026   6.646   5.206   4.316 -0.6264 -2.0020  0.2735
 7546SOL     OW23027   1.224   4.909   2.934 -0.5926  0.0587 -0.1021
 7546SOL    HW123028   1.196   4.997   2.907 -1.7841  0.3640  1.9578
 7546SOL    HW223029   1.143   4.858   2.935  0.1248 -1.1783 -1.5020
 7547SOL     OW23030   6.345   0.391   6.333  0.0874 -0.0879 -0.4164
 7547SOL    HW123031   6.370   0.420   6.245  0.2651 -1.9197 -1.0145
 7547SOL    HW223032   6.255   0.359   6.323 -0.8695  2.0774  0.6844
 7548SOL     OW23033   6.181   6.677   2.479  0.0395 -0.8546  0.0310
 7548SOL    HW123034   6.209   6.763   2.513  0.2587 -0.3095 -1.4296
 7548SOL    HW223035   6.230   6.614   2.531 -0.0659 -0.0987  1.0892
 7549SOL     OW23036   6.013   4.378   0.635 -0.3315 -0.3007  0.0841
 7549SOL    HW123037   5.940   4.433   0.606  0.6649  0.5599 -0.8680
 7549SOL    HW223038   5.974   4.292   0.647 -1.7716  0.4052  0.8415
 7550SOL     OW23039   1.790   2.838   3.493 -0.3850 -0.1110  0.1236
 7550SOL    HW123040   1.856   2.906   3.483 -1.1275  0.7225  0.6906
 7550SOL    HW223041   1.706   2.885   3.489 -0.9364 -1.1038 -0.2926
 7551SOL     OW23042   3.153   1.445   6.578  0.2665  0.1503 -0.4018
 7551SOL    HW123043   3.074   1.500   6.577  0.1541 -0.0175 -0.9645
 7551SOL    HW223044   3.196   1.464   6.494  0.1479 -0.7403 -0.6679
 7552SOL     OW23045   5.993   4.347   6.011  0.7194 -0.0900 -0.0164
 7552SOL    HW123046   6.036   4.411   6.068  1.0306 -0.2272 -0.0938
 7552SOL    HW223047   5.937   4.296   6.070  0.5504  0.1874  0.0608
 7553SOL     OW23048   1.553   4.321   3.616 -0.1087 -1.0642  0.4667
 7553SOL    HW123049   1.546   4.291   3.526  1.6379 -1.8968  0.5645
 7553SOL    HW223050   1.597   4.249   3.662  1.1647  0.2981  1.4553
 7554SOL     OW23051   1.724   2.639   1.629  0.3283  0.0906 -0.1442
 7554SOL    HW123052   1.795   2.686   1.585 -2.7101  2.8625 -2.7065
 7554SOL    HW223053   1.708   2.563   1.574  1.4198 -0.7220  0.6204
 7555SOL     OW23054   0.107   1.081   2.235  0.0631  0.5532  0.2905
 7555SOL    HW123055   0.108   1.163   2.284  2.9240  1.2982 -0.8508
 7555SOL    HW223056   0.153   1.019   2.292  0.3039  0.4851  0.0222
 7556SOL     OW23057   4.521   2.535   1.875  0.1292 -0.2730  0.4244
 7556SOL    HW123058   4.576   2.513   1.950  0.0398  0.3392  0.6747
 7556SOL    HW223059   4.466   2.607   1.906 -0.7153 -0.7779  0.1372
 7557SOL     OW23060   0.565   3.407   0.725  0.0795 -0.3549  0.3164
 7557SOL    HW123061   0.577   3.410   0.820 -1.2920 -1.1011  0.5358
 7557SOL    HW223062   0.470   3.406   0.713  0.2359 -0.1881 -1.0741
 7558SOL     OW23063   0.533   2.370   0.991 -0.8123 -0.6720  0.3470
 7558SOL    HW123064   0.554   2.278   0.973  0.2053 -0.3632 -0.1130
 7558SOL    HW223065   0.606   2.401   1.044 -0.1819  0.3575 -1.0554
 7559SOL     OW23066   5.428   6.571   6.368  0.3130  0.3813  0.0075
 7559SOL    HW123067   5.506   6.543   6.415  2.0003  0.8963 -2.2690
 7559SOL    HW223068   5.408   6.657   6.404  1.3458  0.6198  0.0452
 7560SOL     OW23069   5.913   2.969   1.588  0.9069 -0.5662 -0.0803
 7560SOL    HW123070   5.943   3.052   1.624 -1.5603  1.4981 -2.2863
 7560SOL    HW223071   5.960   2.961   1.504 -1.8236  0.9764 -1.9313
 7561SOL     OW23072   0.988   5.044   5.437 -0.2596  0.5924  0.0664
 7561SOL    HW123073   1.013   5.020   5.347 -0.0368  1.6211 -0.1668
 7561SOL    HW223074   0.896   5.068   5.431 -0.7492 -1.0595  0.4885
 7562SOL     OW23075   1.082   3.825   2.805 -0.0891  0.3497  0.0618
 7562SOL    HW123076   1.026   3.900   2.783 -0.1977  0.0158 -0.8402
 7562SOL    HW223077   1.081   3.771   2.726  1.7273  0.4678 -0.0777
 7563SOL     OW23078   0.057   1.235   3.422 -0.2008  0.2083 -0.1393
 7563SOL    HW123079   0.075   1.319   3.464  0.5660  0.3451 -0.7040
 7563SOL    HW223080  -0.003   1.257   3.350 -0.5936  0.1571  0.1748
 7564SOL     OW23081   1.272   4.555   3.418  0.7040  0.4388  0.2453
 7564SOL    HW123082   1.206   4.568   3.350  0.3479  2.1697  0.8959
 7564SOL    HW223083   1.224   4.518   3.492  0.8240 -0.0466  0.0872
 7565SOL     OW23084   4.904   1.189   5.308  0.0299  0.1153 -0.1825
 7565SOL    HW123085   4.875   1.249   5.240  1.0084 -0.0998 -0.8097
 7565SOL    HW223086   4.881   1.102   5.275 -0.6964  0.0835  0.3792
 7566SOL     OW23087   6.697   2.380   1.244 -0.0348  0.3388  0.0559
 7566SOL    HW123088   6.613   2.387   1.291 -0.5529  0.4548 -0.8647
 7566SOL    HW223089   6.682   2.312   1.179  0.7786 -0.0382  0.2573
 7567SOL     OW23090   5.651   5.924   2.114 -0.3850 -0.4517  0.3731
 7567SOL    HW123091   5.745   5.923   2.134 -0.2365  0.2346 -0.2405
 7567SOL    HW223092   5.645   5.968   2.029 -1.2288 -0.8643  0.2090
 7568SOL     OW23093   0.571   1.362   1.430  0.2496  0.5291 -0.5031
 7568SOL    HW123094   0.509   1.391   1.362 -0.2774 -2.8122 -1.6541
 7568SOL    HW223095   0.657   1.375   1.390  0.1300  1.5118 -0.4816
 7569SOL     OW23096   3.679   2.380   3.515 -0.4294 -0.0002 -0.0416
 7569SOL    HW123097   3.688   2.304   3.572  1.3764 -0.3806 -0.7721
 7569SOL    HW223098   3.584   2.391   3.504 -0.9131  0.6596  3.7137
 7570SOL     OW23099   2.891   6.254   5.872 -0.1833 -0.3694  0.1911
 7570SOL    HW123100   2.861   6.324   5.930 -1.2551 -0.1026 -0.6557
 7570SOL    HW223101   2.975   6.227   5.908  0.5317  1.7487  0.2108
 7571SOL     OW23102   4.472   6.540   5.303  0.0030 -1.0660  0.2333
 7571SOL    HW123103   4.525   6.460   5.301  1.7397 -0.2310  4.0142
 7571SOL    HW223104   4.535   6.609   5.325 -2.2229  0.4529  2.2581
 7572SOL     OW23105   3.958   5.330   3.196 -0.0882  0.3853  0.0516
 7572SOL    HW123106   3.978   5.414   3.238  0.0655 -0.4573  1.7527
 7572SOL    HW223107   3.941   5.270   3.269  2.2175 -1.6985 -0.9687
 7573SOL     OW23108   4.516   3.147   4.731  0.2845 -0.5110  0.1747
 7573SOL    HW123109   4.540   3.237   4.710 -0.6603 -0.8029 -2.7485
 7573SOL    HW223110   4.599   3.099   4.734  0.6877  0.1482 -0.1908
 7574SOL     OW23111   3.329   5.073   1.425  0.3161  0.2476  0.1007
 7574SOL    HW123112   3.339   5.114   1.511 -1.0726  1.5311 -0.3127
 7574SOL    HW223113   3.287   5.140   1.372  0.1964 -0.9045 -1.3035
 7575SOL     OW23114   4.279   3.282   2.619  0.3086 -0.1569 -0.1336
 7575SOL    HW123115   4.251   3.289   2.711  0.4617  0.2671 -0.1156
 7575SOL    HW223116   4.371   3.259   2.624 -0.3067 -2.9586 -0.1945
 7576SOL     OW23117   0.358   0.278   6.833 -0.0645  0.3835 -0.1173
 7576SOL    HW123118   0.281   0.323   6.801 -0.0492  0.1071 -0.5553
 7576SOL    HW223119   0.359   0.195   6.786 -0.6153 -0.4985  1.3665
 7577SOL     OW23120   5.041   5.465   1.982  0.2866  0.1394  0.3914
 7577SOL    HW123121   5.082   5.438   1.900 -0.2854 -0.1881  0.2084
 7577SOL    HW223122   4.948   5.475   1.961  0.0908 -0.1902  1.0589
 7578SOL     OW23123   0.548   1.764   3.690  0.0337  0.1637  0.1421
 7578SOL    HW123124   0.620   1.806   3.736  1.4638  0.4912 -2.2476
 7578SOL    HW223125   0.589   1.697   3.635 -1.9296 -2.6986  1.8773
 7579SOL     OW23126   0.633   0.710   5.584  0.4052  0.4097 -0.2667
 7579SOL    HW123127   0.549   0.721   5.539  0.0239  1.4388  0.6623
 7579SOL    HW223128   0.698   0.719   5.514 -0.0957  3.5332 -0.4819
 7580SOL     OW23129   1.020   3.812   2.261 -0.0295  0.1265  0.2843
 7580SOL    HW123130   1.035   3.891   2.209  1.2918 -0.3714 -0.1324
 7580SOL    HW223131   1.052   3.741   2.206  0.4901 -0.5190  1.3910
 7581SOL     OW23132   0.191   5.748   5.198  0.2969 -0.2751 -0.8361
 7581SOL    HW123133   0.279   5.721   5.171  0.6300 -2.2481  1.8120
 7581SOL    HW223134   0.206   5.821   5.258  0.2512 -1.2783  0.4257
 7582SOL     OW23135   6.158   1.826   2.717 -0.8726  0.2719  0.2528
 7582SOL    HW123136   6.131   1.797   2.804 -0.4339 -0.6319  0.1048
 7582SOL    HW223137   6.236   1.775   2.698  0.6465  2.4284  0.4276
 7583SOL     OW23138   1.273   0.629   3.871 -0.1507  0.1783 -0.0253
 7583SOL    HW123139   1.267   0.604   3.963 -1.1361  0.9207  0.1408
 7583SOL    HW223140   1.312   0.554   3.827  1.1855  0.1538  1.1323
 7584SOL     OW23141   2.944   2.162   4.396 -0.2814 -0.3265  0.1354
 7584SOL    HW123142   2.913   2.223   4.462  1.3015  0.2019  0.4346
 7584SOL    HW223143   2.919   2.076   4.429  1.8895 -0.2219  2.3015
 7585SOL     OW23144   1.923   0.238   3.614  0.1635  0.0117  0.0519
 7585SOL    HW123145   1.907   0.284   3.531  2.5359  0.2831 -0.3231
 7585SOL    HW223146   1.920   0.308   3.679 -0.1171  0.0571 -0.0066
 7586SOL     OW23147   5.036   1.223   1.189  0.4901  0.7523 -0.3707
 7586SOL    HW123148   4.970   1.159   1.161  0.6018  0.3101  0.3423
 7586SOL    HW223149   5.110   1.170   1.218  0.3515  1.1643  0.8083
 7587SOL     OW23150   1.740   1.386   0.584 -0.2002 -0.6773 -0.0907
 7587SOL    HW123151   1.830   1.355   0.580 -0.4432 -1.6334  1.2067
 7587SOL    HW223152   1.692   1.325   0.527  0.0513  0.2055 -1.2725
 7588SOL     OW23153   2.789   5.537   5.311  0.4010  0.0139 -0.1966
 7588SOL    HW123154   2.838   5.506   5.387  1.0305 -0.6675 -0.8599
 7588SOL    HW223155   2.697   5.534   5.339  0.3578 -2.8706 -0.3149
 7589SOL     OW23156   1.474   0.055   3.592 -0.2541 -0.0333 -0.2474
 7589SOL    HW123157   1.519   0.136   3.616  0.0611 -0.7824  1.8870
 7589SOL    HW223158   1.389   0.060   3.636 -0.0775 -1.0072  0.2499
 7590SOL     OW23159   5.681   1.896   5.569  0.1208  0.7440  0.6295
 7590SOL    HW123160   5.696   1.990   5.580 -0.3292  0.8151  0.6365
 7590SOL    HW223161   5.601   1.890   5.518 -0.1072  0.3592  1.0201
 7591SOL     OW23162   0.990   2.633   3.184 -0.0676  0.5611 -0.4295
 7591SOL    HW123163   1.085   2.632   3.193 -0.0145  0.5601 -0.9906
 7591SOL    HW223164   0.968   2.550   3.142 -0.4012  0.1830  0.4568
 7592SOL     OW23165   4.531   0.083   4.223  0.2371  0.3013  0.2352
 7592SOL    HW123166   4.524   0.130   4.140 -0.4904 -2.0569 -1.1354
 7592SOL    HW223167   4.625   0.078   4.240  0.4258  0.2738 -0.7699
 7593SOL     OW23168   2.880   2.372   2.747  0.0894  0.3507  0.2519
 7593SOL    HW123169   2.807   2.315   2.772 -1.4688  1.5973 -1.2196
 7593SOL    HW223170   2.847   2.460   2.761  2.4817  0.9985  2.5550
 7594SOL     OW23171   5.655   5.213   0.211 -0.3481 -0.6651  0.0914
 7594SOL    HW123172   5.612   5.146   0.158 -0.0882 -0.3003 -0.5835
 7594SOL    HW223173   5.655   5.291   0.156  0.3064 -0.3990  0.4610
 7595SOL     OW23174   6.784   0.331   0.328 -0.3934  0.0759  0.5760
 7595SOL    HW123175   6.832   0.251   0.308 -0.3103  0.2138  0.2193
 7595SOL    HW223176   6.750   0.361   0.244  0.2481  0.8471  0.5752
 7596SOL     OW23177   2.552   1.831   5.680 -0.4147  0.7640 -0.3105
 7596SOL    HW123178   2.515   1.880   5.753  2.3392  1.2259  0.8672
 7596SOL    HW223179   2.552   1.740   5.709 -1.3275  0.6294 -0.6754
 7597SOL     OW23180   3.240   5.766   1.514 -0.5158 -0.4716 -0.1144
 7597SOL    HW123181   3.331   5.767   1.543  0.3280 -0.1514 -2.4895
 7597SOL    HW223182   3.190   5.798   1.589  1.4118  0.0169  1.0303
 7598SOL     OW23183   3.189   3.380   3.484  0.2708  0.1197  0.2019
 7598SOL    HW123184   3.246   3.446   3.524 -0.1244  0.4158  0.2866
 7598SOL    HW223185   3.201   3.302   3.539 -0.7695  0.7173  1.3201
 7599SOL     OW23186   5.812   0.127   4.815 -0.5750  0.5290 -0.0064
 7599SOL    HW123187   5.769   0.206   4.782  1.4527  0.7558 -2.4257
 7599SOL    HW223188   5.801   0.063   4.745  0.3461 -0.3545  0.6401
 7600SOL     OW23189   6.124   5.086   5.645 -0.4247  0.0131 -0.0818
 7600SOL    HW123190   6.126   5.020   5.576  0.9502  1.1211 -1.1713
 7600SOL    HW223191   6.179   5.049   5.714 -0.6935 -0.5167 -0.1432
 7601SOL     OW23192   6.052   5.838   4.395 -0.5278 -0.1566 -1.0363
 7601SOL    HW123193   6.098   5.843   4.311 -0.0797  0.6460 -0.7529
 7601SOL    HW223194   6.052   5.927   4.428  0.0961 -0.5915  0.2314
 7602SOL     OW23195   1.975   1.538   5.270 -0.2778 -0.3907  0.9136
 7602SOL    HW123196   2.014   1.459   5.307  1.5743  0.4919  0.9796
 7602SOL    HW223197   2.023   1.553   5.189  1.5378  2.1981  2.2900
 7603SOL     OW23198   0.616   1.037   3.354  0.2022 -0.0616  0.2368
 7603SOL    HW123199   0.698   0.990   3.369 -0.3203 -1.2121 -0.4276
 7603SOL    HW223200   0.548   0.975   3.381 -0.4454  1.0638  1.2632
 7604SOL     OW23201   0.147   3.296   2.124 -0.0512 -0.1558 -0.2224
 7604SOL    HW123202   0.070   3.274   2.071  0.7002  0.1110 -1.4621
 7604SOL    HW223203   0.197   3.215   2.129 -0.3131 -0.2889  0.4571
 7605SOL     OW23204   3.906   0.157   6.412 -0.4157  0.2300 -0.1815
 7605SOL    HW123205   3.991   0.195   6.433 -0.0768  0.4102 -1.7654
 7605SOL    HW223206   3.910   0.068   6.448  0.2838  0.3844  0.1255
 7606SOL     OW23207   2.875   5.073   6.113  0.1592 -0.2853 -0.2060
 7606SOL    HW123208   2.928   5.018   6.170 -2.1044 -1.1767  1.1122
 7606SOL    HW223209   2.875   5.159   6.155 -0.1715 -0.5187  0.2732
 7607SOL     OW23210   5.169   6.131   1.312 -0.0494 -0.6263  0.2432
 7607SOL    HW123211   5.155   6.150   1.404 -2.3650 -0.1678 -0.1302
 7607SOL    HW223212   5.154   6.037   1.304  0.5073 -0.7288  0.3811
 7608SOL     OW23213   2.203   2.277   1.167 -0.7666 -0.2710 -0.2148
 7608SOL    HW123214   2.185   2.363   1.206  1.6293  0.5307 -0.7111
 7608SOL    HW223215   2.157   2.279   1.083  0.9431  1.4152 -1.1745
 7609SOL     OW23216   4.816   5.837   0.586 -0.4702 -0.1263  0.0412
 7609SOL    HW123217   4.813   5.765   0.523 -0.0760 -0.5254  0.4743
 7609SOL    HW223218   4.909   5.853   0.601 -0.5600 -0.3779  0.9045
 7610SOL     OW23219   3.123   4.775   0.015 -0.4028  0.9164 -0.2645
 7610SOL    HW123220   3.144   4.745   0.103  0.9966  1.2299 -0.4667
 7610SOL    HW223221   3.054   4.715  -0.015 -0.1197  0.1212  0.6331
 7611SOL     OW23222   6.418   3.125   3.452  0.0812 -0.0098  0.3021
 7611SOL    HW123223   6.423   3.200   3.511 -0.5518 -0.4846  0.9714
 7611SOL    HW223224   6.498   3.076   3.469 -0.1232 -0.1714  0.8066
 7612SOL     OW23225   6.043   0.786   1.099 -0.4900  0.2165 -0.1970
 7612SOL    HW123226   6.123   0.807   1.051 -0.2667  0.5279  0.3015
 7612SOL    HW223227   6.067   0.712   1.154 -0.7764 -0.2111 -0.6398
 7613SOL     OW23228   1.689   6.655   5.230 -0.1264 -0.3759  0.3833
 7613SOL    HW123229   1.615   6.697   5.187  0.4139  0.9369  0.6905
 7613SOL    HW223230   1.749   6.633   5.158  0.1012  0.4521  0.3036
 7614SOL     OW23231   4.751   5.707   0.997 -0.3744 -0.5432 -0.2333
 7614SOL    HW123232   4.672   5.730   0.948  0.5985  1.3160 -1.0170
 7614SOL    HW223233   4.730   5.725   1.088 -0.1088  2.4181 -0.6732
 7615SOL     OW23234   0.402   1.946   4.458 -0.4582 -0.3929  0.5782
 7615SOL    HW123235   0.423   1.928   4.366  0.2315 -0.3266  0.7189
 7615SOL    HW223236   0.470   1.901   4.508 -0.7803 -0.3594  1.0557
 7616SOL     OW23237   2.598   4.442   1.763  0.3732 -0.1686  0.0949
 7616SOL    HW123238   2.509   4.468   1.739 -0.5035 -1.8394  1.3116
 7616SOL    HW223239   2.621   4.498   1.837  0.9184  1.2178 -1.0867
 7617SOL     OW23240   6.180   0.578   1.268  0.2670 -0.0720 -0.1150
 7617SOL    HW123241   6.154   0.543   1.353  2.2665 -0.0435  0.5634
 7617SOL    HW223242   6.174   0.503   1.208  0.4451 -0.5164  0.4129
 7618SOL     OW23243   1.477   4.397   4.589  0.2268 -0.1554 -0.3316
 7618SOL    HW123244   1.513   4.351   4.514  1.1021  1.2784 -0.8266
 7618SOL    HW223245   1.553   4.418   4.643 -0.4510 -1.9238  1.4589
 7619SOL     OW23246   5.866   1.107   5.175  0.1079  0.4982 -0.2116
 7619SOL    HW123247   5.917   1.181   5.209 -0.3045  0.1689  1.1528
 7619SOL    HW223248   5.800   1.148   5.119  0.4547  1.0948 -0.1918
 7620SOL     OW23249   0.629   3.854   2.105  0.4063  0.3317  0.0571
 7620SOL    HW123250   0.684   3.820   2.176 -0.6469  0.7941  1.1360
 7620SOL    HW223251   0.674   3.933   2.076  1.3912 -0.4264 -0.5255
 7621SOL     OW23252   2.580   0.228   1.044 -0.5525  0.4438 -0.6674
 7621SOL    HW123253   2.507   0.217   1.104  0.2358  0.4347  0.3063
 7621SOL    HW223254   2.652   0.179   1.083  0.9915  3.1765  0.1939
 7622SOL     OW23255   5.040   4.748   6.165 -0.0318 -0.3264  0.1812
 7622SOL    HW123256   4.955   4.746   6.121  0.4703  0.2078 -0.8481
 7622SOL    HW223257   5.078   4.832   6.139  0.8856 -0.6419  0.4885
 7623SOL     OW23258   6.237   5.702   6.441 -0.4796  0.0997  0.0396
 7623SOL    HW123259   6.296   5.643   6.394  0.3990 -0.1577  1.3998
 7623SOL    HW223260   6.184   5.644   6.497 -0.8243  0.4621  0.0953
 7624SOL     OW23261   6.542   0.868   1.917  0.1230 -0.0556 -0.1105
 7624SOL    HW123262   6.615   0.851   1.976 -0.0242  2.0820  0.7792
 7624SOL    HW223263   6.582   0.882   1.832  0.5928 -0.4371  0.0461
 7625SOL     OW23264   1.803   1.096   5.335  0.2849  0.1489 -0.1819
 7625SOL    HW123265   1.792   1.005   5.305  0.0314 -0.5225  1.8006
 7625SOL    HW223266   1.733   1.144   5.290  0.5361 -0.5845 -1.4102
 7626SOL     OW23267   1.364   2.733   5.391 -0.1518 -0.1700 -0.4123
 7626SOL    HW123268   1.290   2.692   5.436  0.7577 -2.7374 -1.0835
 7626SOL    HW223269   1.398   2.797   5.454 -0.7138 -1.5636  1.4102
 7627SOL     OW23270   0.218   0.751   1.142  0.4266  0.2469 -0.1400
 7627SOL    HW123271   0.161   0.727   1.068  0.4696  0.8455 -0.3679
 7627SOL    HW223272   0.294   0.791   1.101  0.1269  1.2505  0.2620
 7628SOL     OW23273   0.308   1.853   6.031 -0.1911 -0.0526  0.1521
 7628SOL    HW123274   0.341   1.921   6.090 -1.2990  0.2252  0.4871
 7628SOL    HW223275   0.235   1.814   6.079 -1.1397  0.1881 -1.0389
 7629SOL     OW23276   1.405   6.699   0.217  0.9476  0.2614 -0.1374
 7629SOL    HW123277   1.439   6.654   0.294  2.5805 -1.4033 -1.7247
 7629SOL    HW223278   1.390   6.789   0.247  1.4684 -0.3328  2.1092
 7630SOL     OW23279   5.424   4.200   3.018  0.3121 -0.1600  0.3170
 7630SOL    HW123280   5.429   4.150   2.937  0.1782  1.1045 -0.5186
 7630SOL    HW223281   5.360   4.269   2.998 -1.0320 -0.8312  2.0783
 7631SOL     OW23282   0.635   4.196   3.257  0.0132  0.4645  0.7065
 7631SOL    HW123283   0.587   4.116   3.278 -1.3836  1.5897  2.0192
 7631SOL    HW223284   0.724   4.179   3.288 -0.2267 -0.6019  0.8695
 7632SOL     OW23285   0.348   5.627   4.268 -0.1126 -0.6643 -0.6248
 7632SOL    HW123286   0.277   5.563   4.280  0.2166 -1.0463 -0.6949
 7632SOL    HW223287   0.428   5.575   4.270  0.4072  0.0925  2.4461
 7633SOL     OW23288   2.425   4.199   5.296 -0.2293 -0.1631 -0.3927
 7633SOL    HW123289   2.348   4.252   5.317 -1.8207 -1.4031 -2.6036
 7633SOL    HW223290   2.413   4.118   5.346 -0.0318 -0.1034 -0.2485
 7634SOL     OW23291   4.729   1.761   0.059  0.4406 -0.0843  0.1307
 7634SOL    HW123292   4.824   1.756   0.046  0.6398  0.5574  1.2323
 7634SOL    HW223293   4.704   1.674   0.090  0.1747 -1.2004 -2.8933
 7635SOL     OW23294   2.708   6.153   0.788 -0.1326 -0.2398  0.4503
 7635SOL    HW123295   2.695   6.058   0.789 -0.8080 -0.1931 -1.1056
 7635SOL    HW223296   2.800   6.165   0.812  0.3536 -1.3972 -0.7243
 7636SOL     OW23297   5.282   6.505   6.654 -0.2743 -0.0643  0.0424
 7636SOL    HW123298   5.334   6.458   6.589 -0.4100 -2.2006  1.3862
 7636SOL    HW223299   5.346   6.556   6.704  0.1224 -0.2429 -0.2834
 7637SOL     OW23300   2.278   1.184   1.434 -0.0797 -0.2715 -0.5785
 7637SOL    HW123301   2.183   1.178   1.425 -0.0238  0.0155 -1.4239
 7637SOL    HW223302   2.311   1.100   1.402 -0.1349 -1.1627  1.5346
 7638SOL     OW23303   6.548   6.014   2.627 -0.4525 -0.1102  0.0999
 7638SOL    HW123304   6.631   5.993   2.670 -0.6659 -2.5870 -0.5313
 7638SOL    HW223305   6.481   5.994   2.692 -0.6406 -0.4889 -0.2083
 7639SOL     OW23306   4.834   5.020   6.363  0.2816  0.7672 -0.4255
 7639SOL    HW123307   4.880   5.099   6.392  1.3955  0.3220 -0.9137
 7639SOL    HW223308   4.842   5.022   6.268 -0.6494  0.6234 -0.5150
 7640SOL     OW23309   1.122   1.384   1.137 -1.0950 -0.0733  0.4189
 7640SOL    HW123310   1.162   1.309   1.092 -0.4167  0.7105 -0.3255
 7640SOL    HW223311   1.045   1.405   1.083 -1.6785 -0.6510  1.0132
 7641SOL     OW23312   1.188   2.457   2.545  0.2426 -0.0852  0.1826
 7641SOL    HW123313   1.149   2.371   2.557 -0.2822  0.2464  0.9214
 7641SOL    HW223314   1.250   2.446   2.472 -2.0485 -0.3411 -1.8321
 7642SOL     OW23315   0.931   5.372   1.626 -0.2290  0.1815  0.0832
 7642SOL    HW123316   0.928   5.457   1.582  0.8651  0.6168  0.8146
 7642SOL    HW223317   0.982   5.387   1.705 -1.8467 -0.6606  1.3555
 7643SOL     OW23318   2.970   4.529   6.685  0.3056  0.3052  0.0557
 7643SOL    HW123319   2.893   4.536   6.742 -0.1915 -0.4904 -0.5066
 7643SOL    HW223320   2.934   4.526   6.596  1.0860  1.9154 -0.3640
 7644SOL     OW23321   1.299   2.876   1.397  0.1175 -0.2258 -0.2664
 7644SOL    HW123322   1.387   2.911   1.387  0.4812 -1.0816 -0.1398
 7644SOL    HW223323   1.254   2.939   1.452  0.9591 -0.2940  0.5191
 7645SOL     OW23324   1.041   3.510   3.345  0.1937 -0.0227 -0.1629
 7645SOL    HW123325   1.089   3.501   3.262  2.4876  0.5558  1.0416
 7645SOL    HW223326   1.028   3.604   3.356 -1.7576 -0.1792 -0.6969
 7646SOL     OW23327   4.834   2.468   4.132  0.0603 -0.2798 -0.1174
 7646SOL    HW123328   4.904   2.440   4.190  1.8120 -0.6837 -2.2938
 7646SOL    HW223329   4.821   2.561   4.153 -0.9173 -0.8950  2.3474
 7647SOL     OW23330   4.843   3.589   4.406  0.4708 -0.4024 -0.0730
 7647SOL    HW123331   4.859   3.676   4.368  2.2765 -1.0253 -0.8889
 7647SOL    HW223332   4.887   3.592   4.491 -0.8668 -0.0258  0.6313
 7648SOL     OW23333   0.478   4.696   5.915  0.7875  0.5788  0.2467
 7648SOL    HW123334   0.399   4.744   5.941  0.6493  0.1344  0.6774
 7648SOL    HW223335   0.466   4.680   5.821 -0.3451 -0.7453  0.5801
 7649SOL     OW23336   1.137   5.667   5.335  0.5551 -0.2324  0.0087
 7649SOL    HW123337   1.169   5.591   5.287  0.6008  0.2043 -0.6670
 7649SOL    HW223338   1.044   5.674   5.310 -0.5329 -2.2346  2.9039
 7650SOL     OW23339   4.042   1.905   3.156 -0.2208  0.0606 -0.4504
 7650SOL    HW123340   4.030   1.843   3.228 -1.7013 -1.1373 -1.6481
 7650SOL    HW223341   4.132   1.893   3.128  0.1340 -0.0126  0.6850
 7651SOL     OW23342   6.768   1.969   3.548 -0.6470  0.1706 -0.4374
 7651SOL    HW123343   6.834   1.924   3.495 -1.2110 -0.0120 -1.0023
 7651SOL    HW223344   6.695   1.982   3.488 -0.6065  1.5960 -0.2138
 7652SOL     OW23345   1.516   2.499   4.260  0.3745 -0.2212  0.2800
 7652SOL    HW123346   1.497   2.589   4.236 -0.0678 -0.3750  0.0407
 7652SOL    HW223347   1.431   2.456   4.265  0.5155 -0.4212  1.2490
 7653SOL     OW23348   3.685   1.711   5.372 -0.5257  0.1753 -0.0620
 7653SOL    HW123349   3.709   1.631   5.419  0.6805  0.7929  0.4177
 7653SOL    HW223350   3.597   1.732   5.404 -1.2243 -1.3981 -0.8316
 7654SOL     OW23351   4.884   4.154   6.669  0.5403 -0.6059  0.5540
 7654SOL    HW123352   4.933   4.118   6.743 -0.6846 -2.0994  0.6866
 7654SOL    HW223353   4.798   4.113   6.675  0.1290 -0.0886 -1.2084
 7655SOL     OW23354   2.840   2.726   1.859 -0.2800  0.0812 -0.4724
 7655SOL    HW123355   2.801   2.649   1.900  1.0830 -1.1989 -1.5039
 7655SOL    HW223356   2.924   2.737   1.903 -1.2356  2.1583  0.9731
 7656SOL     OW23357   5.239   4.556   6.196 -0.3770 -0.3359 -0.4802
 7656SOL    HW123358   5.161   4.610   6.203  1.2693  2.0391  1.6177
 7656SOL    HW223359   5.210   4.468   6.218 -2.3766  0.5596  0.7756
 7657SOL     OW23360   1.569   6.589   4.807  0.6157  0.3535 -0.1874
 7657SOL    HW123361   1.605   6.542   4.882 -0.8800  0.1118  0.4039
 7657SOL    HW223362   1.592   6.535   4.732  0.2841 -0.5208  0.3242
 7658SOL     OW23363   4.839   3.256   4.057 -0.0474  0.2174  0.3166
 7658SOL    HW123364   4.852   3.165   4.084  0.6521  0.4000  0.6282
 7658SOL    HW223365   4.928   3.291   4.047 -0.2294  0.2122 -2.0508
 7659SOL     OW23366   6.072   4.482   1.833 -0.3230  0.0626  0.5421
 7659SOL    HW123367   6.072   4.471   1.738  0.1557  0.3798  0.4962
 7659SOL    HW223368   6.022   4.408   1.867  0.6180 -0.7989  0.1129
 7660SOL     OW23369   0.769   4.765   3.592 -0.2692  0.1891 -0.2544
 7660SOL    HW123370   0.748   4.782   3.684  0.2384 -0.4024 -0.0238
 7660SOL    HW223371   0.811   4.846   3.562 -1.7408  0.9438 -0.3948
 7661SOL     OW23372   0.637   4.509   1.643 -0.1984 -0.1763  0.3217
 7661SOL    HW123373   0.636   4.605   1.647  1.4051 -0.0494 -1.1757
 7661SOL    HW223374   0.563   4.487   1.587 -0.1068  0.2369  0.0311
 7662SOL     OW23375   3.458   0.466   2.091 -0.0190 -0.1750 -0.3075
 7662SOL    HW123376   3.434   0.380   2.055  0.5117 -0.2566 -0.4676
 7662SOL    HW223377   3.553   0.464   2.097 -0.0782 -0.0864  0.9033
 7663SOL     OW23378   1.816   2.090   0.498 -0.4271 -0.1234 -0.2495
 7663SOL    HW123379   1.822   1.995   0.484 -0.6190  0.0700 -1.8785
 7663SOL    HW223380   1.890   2.125   0.449  0.0062  0.5461  0.8607
 7664SOL     OW23381   0.450   5.249   1.602 -0.3879  0.1256  0.2323
 7664SOL    HW123382   0.424   5.222   1.690  2.5084 -1.7033  0.6885
 7664SOL    HW223383   0.378   5.221   1.546 -2.1622  1.0537  1.9281
 7665SOL     OW23384   1.755   4.341   5.093  0.5308 -0.0097  0.2739
 7665SOL    HW123385   1.745   4.436   5.084 -0.6942 -0.1136  0.3847
 7665SOL    HW223386   1.711   4.304   5.017  1.3543 -0.4964  0.0131
 7666SOL     OW23387   4.775   5.620   1.585 -0.1590  0.4796 -0.2010
 7666SOL    HW123388   4.783   5.699   1.638  1.3373  0.2272 -0.0055
 7666SOL    HW223389   4.694   5.632   1.537  0.1517  2.2687 -0.3606
 7667SOL     OW23390   0.612   4.506   5.119 -0.2199  0.4684 -0.3052
 7667SOL    HW123391   0.520   4.533   5.125 -0.7316 -1.3698  1.1615
 7667SOL    HW223392   0.621   4.471   5.030 -1.0970  0.2394 -0.3151
 7668SOL     OW23393   4.915   0.481   2.358  0.1423 -0.0201  0.1418
 7668SOL    HW123394   4.908   0.400   2.307 -1.4780 -0.6810  1.3174
 7668SOL    HW223395   5.009   0.492   2.371  0.4903 -0.8430 -1.3666
 7669SOL     OW23396   1.064   2.593   0.207  0.3144  0.2078  0.2535
 7669SOL    HW123397   1.138   2.532   0.204  0.5725  0.4804  0.8737
 7669SOL    HW223398   1.063   2.624   0.298 -0.5755  0.1934  0.2569
 7670SOL     OW23399   4.516   3.580   5.745  0.1355  0.4076 -0.3755
 7670SOL    HW123400   4.514   3.485   5.758 -0.1618  0.0948 -2.3845
 7670SOL    HW223401   4.547   3.615   5.828 -2.0843 -1.2639  1.2731
 7671SOL     OW23402   5.652   0.643   2.084  0.3182  0.1787  0.8502
 7671SOL    HW123403   5.647   0.580   2.157  1.1756 -2.9855 -1.6076
 7671SOL    HW223404   5.744   0.667   2.079  0.1217  1.0695  1.2774
 7672SOL     OW23405   0.287   0.346   6.538 -0.6392 -0.2125 -0.8575
 7672SOL    HW123406   0.281   0.430   6.494 -1.1003 -0.0477 -0.4873
 7672SOL    HW223407   0.365   0.353   6.593 -0.1104 -0.3882 -1.5564
 7673SOL     OW23408   4.456   4.724   1.100 -0.4093 -0.0508 -0.0503
 7673SOL    HW123409   4.369   4.726   1.060 -0.1938  0.0065 -0.5247
 7673SOL    HW223410   4.512   4.771   1.038 -0.0117 -0.2009  0.1895
 7674SOL     OW23411   4.910   3.453   3.427 -0.3325 -0.5731 -0.3418
 7674SOL    HW123412   4.837   3.495   3.381 -0.4071 -1.2570 -0.8712
 7674SOL    HW223413   4.981   3.517   3.422 -0.8836  0.1084  0.1882
 7675SOL     OW23414   3.345   6.714   2.289 -0.3735 -0.1630 -0.1398
 7675SOL    HW123415   3.345   6.797   2.336 -1.1252 -0.1428 -0.1593
 7675SOL    HW223416   3.253   6.696   2.272 -0.2356 -1.0935  0.0264
 7676SOL     OW23417   0.631   6.162   3.641 -0.0545 -0.3234 -0.3539
 7676SOL    HW123418   0.578   6.228   3.686 -0.5365 -1.2632  0.4899
 7676SOL    HW223419   0.701   6.212   3.600  0.1509  0.6339  1.0869
 7677SOL     OW23420   2.133   4.758   6.653  0.4151 -0.6514 -0.0134
 7677SOL    HW123421   2.167   4.706   6.726  1.2037  1.8168  1.4604
 7677SOL    HW223422   2.067   4.814   6.691  2.8074  2.7570 -0.4474
 7678SOL     OW23423   6.284   1.581   4.030  0.2909  0.2859 -0.2129
 7678SOL    HW123424   6.207   1.630   4.060 -1.8910 -2.1854 -1.3529
 7678SOL    HW223425   6.302   1.519   4.100  1.1390  0.6690 -0.0703
 7679SOL     OW23426   3.353   0.997   0.884 -0.3349 -0.0233 -0.3701
 7679SOL    HW123427   3.424   0.976   0.824 -1.4303  1.3067 -2.2611
 7679SOL    HW223428   3.278   1.013   0.826 -1.7893  0.0379  1.4607
 7680SOL     OW23429   0.300   6.509   4.829  0.3821 -0.2136 -0.2591
 7680SOL    HW123430   0.379   6.493   4.778  0.2254 -0.8861 -0.3000
 7680SOL    HW223431   0.330   6.508   4.920  0.4065 -0.5663 -0.2699
 7681SOL     OW23432   4.763   4.924   3.325  0.1601  0.1304  0.2216
 7681SOL    HW123433   4.816   4.954   3.251 -0.6567 -0.7961 -0.7629
 7681SOL    HW223434   4.786   4.984   3.396  0.3201  1.6143 -1.0224
 7682SOL     OW23435   5.147   4.382   5.860  0.1527  0.1666 -0.0507
 7682SOL    HW123436   5.172   4.464   5.903  0.3036  0.1486 -0.1034
 7682SOL    HW223437   5.178   4.391   5.770 -0.0072  0.1317 -0.1102
 7683SOL     OW23438   3.041   0.432   5.882  0.2288  0.3219 -0.0373
 7683SOL    HW123439   3.009   0.512   5.840  0.8140  0.4456 -0.2594
 7683SOL    HW223440   2.962   0.382   5.901 -0.0452  0.1047 -1.5944
 7684SOL     OW23441   5.799   2.773   6.306 -0.0606 -0.2270 -0.0622
 7684SOL    HW123442   5.704   2.779   6.289  0.0630 -0.4432 -0.8805
 7684SOL    HW223443   5.839   2.799   6.223  0.6064  0.2754  0.4187
 7685SOL     OW23444   1.469   4.374   2.282 -0.3625 -0.6434  0.4348
 7685SOL    HW123445   1.377   4.377   2.256 -0.1750 -1.5297 -0.3993
 7685SOL    HW223446   1.487   4.280   2.295 -0.0005 -0.3739  2.1998
 7686SOL     OW23447   0.460   5.070   6.719  0.1751 -0.4644  0.0136
 7686SOL    HW123448   0.529   5.051   6.783  0.3908  0.2378 -0.0004
 7686SOL    HW223449   0.507   5.093   6.639 -0.0042  1.8212  0.5033
 7687SOL     OW23450   3.600   6.229   2.012  0.0478 -0.5497  0.0822
 7687SOL    HW123451   3.517   6.213   2.057 -0.2425  1.3651  0.3401
 7687SOL    HW223452   3.662   6.169   2.053 -0.8218 -0.7346  1.1685
 7688SOL     OW23453   5.819   4.662   5.326  0.2970 -0.1096  0.3810
 7688SOL    HW123454   5.825   4.748   5.367  0.3249  0.8684 -1.5862
 7688SOL    HW223455   5.738   4.665   5.275 -1.0182 -2.1573  2.1594
 7689SOL     OW23456   5.182   2.872   1.275 -0.2514  0.0913  0.0220
 7689SOL    HW123457   5.104   2.921   1.248 -0.5101  0.0111  0.6035
 7689SOL    HW223458   5.229   2.931   1.334  0.9929  0.7717 -1.5716
 7690SOL     OW23459   4.045   2.372   3.110 -0.8565  0.2242 -0.4180
 7690SOL    HW123460   4.107   2.382   3.038  0.7964 -0.2896  0.8629
 7690SOL    HW223461   4.060   2.448   3.166 -1.6091  0.2433 -0.2254
 7691SOL     OW23462   6.565   0.837   5.852 -0.0242  0.0857  0.5320
 7691SOL    HW123463   6.661   0.832   5.851 -0.1095 -2.3776  0.6432
 7691SOL    HW223464   6.541   0.837   5.944 -0.1655 -1.6896  0.5325
 7692SOL     OW23465   6.607   5.856   1.468 -0.2857 -0.1992  0.4814
 7692SOL    HW123466   6.695   5.840   1.503 -0.2249 -0.1901  0.3326
 7692SOL    HW223467   6.622   5.897   1.383 -0.4001 -1.9840 -0.4478
 7693SOL     OW23468   4.020   6.826   5.982 -0.4130 -0.4965  0.5181
 7693SOL    HW123469   3.966   6.891   6.027 -0.0971 -2.5138  4.2443
 7693SOL    HW223470   4.110   6.853   6.000 -0.2713 -0.9720  0.5531
 7694SOL     OW23471   6.685   4.823   0.576 -0.2052 -0.4904  0.1261
 7694SOL    HW123472   6.628   4.865   0.640 -1.0839  0.6895 -1.3522
 7694SOL    HW223473   6.663   4.730   0.581 -1.5558 -0.1776  0.2823
 7695SOL     OW23474   2.140   2.183   4.278 -0.7679 -0.4172 -0.0593
 7695SOL    HW123475   2.183   2.245   4.337 -0.1265 -1.0096  0.1063
 7695SOL    HW223476   2.047   2.193   4.297 -0.6647  0.3804  0.0751
 7696SOL     OW23477   0.116   4.890   0.604  0.0533  0.4426  0.4498
 7696SOL    HW123478   0.143   4.823   0.666 -0.0649 -0.6038 -0.6067
 7696SOL    HW223479   0.030   4.860   0.572  0.1671  0.8954 -0.3108
 7697SOL     OW23480   6.686   4.225   3.819 -0.0107 -0.5057 -0.0501
 7697SOL    HW123481   6.645   4.306   3.850 -0.4247 -1.0581  0.8843
 7697SOL    HW223482   6.613   4.171   3.788  0.2719 -0.5034 -0.7380
 7698SOL     OW23483   6.222   5.089   6.630  0.1035 -0.0505 -0.2841
 7698SOL    HW123484   6.149   5.149   6.615 -1.3197 -0.7402  3.0742
 7698SOL    HW223485   6.237   5.048   6.544 -3.9313 -0.3547 -1.0283
 7699SOL     OW23486   5.038   4.748   1.286 -0.8413 -0.4737 -0.0579
 7699SOL    HW123487   5.104   4.690   1.323 -0.4019 -1.1330 -1.7597
 7699SOL    HW223488   5.061   4.835   1.318  0.2191 -0.8460  0.2331
 7700SOL     OW23489   0.289   3.360   0.679 -0.9152  0.0649  0.3622
 7700SOL    HW123490   0.245   3.437   0.717  0.3759  0.8335  0.3451
 7700SOL    HW223491   0.234   3.336   0.605 -1.1811  1.1745  0.1827
 7701SOL     OW23492   6.645   2.770   2.312  0.0811 -0.1672  0.7329
 7701SOL    HW123493   6.715   2.780   2.248  0.7117  1.0737  1.5812
 7701SOL    HW223494   6.565   2.793   2.264  0.4498  0.0264  0.2009
 7702SOL     OW23495   5.950   3.557   2.927  0.1184  0.4155  0.0932
 7702SOL    HW123496   5.974   3.579   2.837  1.9575 -0.2346  0.3939
 7702SOL    HW223497   5.855   3.565   2.929  0.0723  0.7045 -1.8304
 7703SOL     OW23498   0.738   1.109   1.529 -0.6885 -0.0677 -0.5279
 7703SOL    HW123499   0.733   1.042   1.460 -0.8686  0.1757 -0.7570
 7703SOL    HW223500   0.659   1.162   1.515  0.1837  1.0822 -1.2846
 7704SOL     OW23501   5.445   4.569   0.269 -0.5226  0.2312  0.1184
 7704SOL    HW123502   5.403   4.536   0.190  2.1978 -0.3260 -1.2451
 7704SOL    HW223503   5.376   4.613   0.317 -2.2169  1.1233 -2.8618
 7705SOL     OW23504   2.624   4.735   4.112 -0.2491 -0.1732  0.3019
 7705SOL    HW123505   2.588   4.647   4.102  1.1542 -0.7867  0.5337
 7705SOL    HW223506   2.599   4.761   4.201  0.3557 -0.8197  0.6632
 7706SOL     OW23507   1.014   2.637   0.464 -0.1811  0.1006 -0.3415
 7706SOL    HW123508   0.958   2.712   0.484 -1.3641 -0.3043 -1.9224
 7706SOL    HW223509   0.955   2.562   0.468  0.2577 -0.3661 -1.8240
 7707SOL     OW23510   5.011   1.889   4.388 -0.0772  0.2579  0.0285
 7707SOL    HW123511   4.940   1.898   4.452 -0.0656 -1.5005  0.3549
 7707SOL    HW223512   4.967   1.876   4.304 -0.1319  0.0290  0.0922
 7708SOL     OW23513   0.346   0.550   0.834  0.3958 -0.1437 -0.0569
 7708SOL    HW123514   0.436   0.527   0.811  1.2198  1.3812  1.4158
 7708SOL    HW223515   0.338   0.642   0.810 -0.3560  0.0719  0.9505
 7709SOL     OW23516   6.385   4.461   4.186 -0.2023  0.4952 -0.0757
 7709SOL    HW123517   6.429   4.453   4.271 -0.0293 -0.6968 -0.2649
 7709SOL    HW223518   6.380   4.371   4.153 -0.7118  0.8910 -1.1067
 7710SOL     OW23519   4.941   0.501   5.116  0.1964 -0.1232  0.0672
 7710SOL    HW123520   5.006   0.571   5.113  0.5083 -0.4173 -2.2214
 7710SOL    HW223521   4.955   0.452   5.035 -1.8320 -1.1543  0.2690
 7711SOL     OW23522   3.222   6.152   5.400  0.3550 -0.1701 -0.3889
 7711SOL    HW123523   3.184   6.070   5.432  0.5421  0.2503  0.9330
 7711SOL    HW223524   3.288   6.124   5.336 -1.2159 -0.9460 -1.7654
 7712SOL     OW23525   6.556   5.946   1.723  0.3137 -0.1758  0.0852
 7712SOL    HW123526   6.462   5.959   1.736  0.2892  0.0171 -0.2557
 7712SOL    HW223527   6.563   5.900   1.639  0.5502  0.4186 -0.2295
 7713SOL     OW23528   2.475   2.756   4.173  0.3742 -0.0708  0.4866
 7713SOL    HW123529   2.554   2.706   4.155  0.3600 -0.4977  1.5338
 7713SOL    HW223530   2.468   2.758   4.268 -0.5415  0.4891  0.4294
 7714SOL     OW23531   3.231   4.199   5.916 -0.3943 -0.5314 -0.5500
 7714SOL    HW123532   3.323   4.175   5.912  0.0635  1.1301 -1.0475
 7714SOL    HW223533   3.232   4.294   5.933 -2.0457 -0.8516  1.8913
 7715SOL     OW23534   2.878   3.547   4.686  0.1546  0.3642 -0.0576
 7715SOL    HW123535   2.948   3.600   4.725  0.2739 -1.5292  2.5980
 7715SOL    HW223536   2.814   3.611   4.655  1.7997  2.0937 -0.0916
 7716SOL     OW23537   4.102   6.224   3.941  0.3975 -0.2053  0.0302
 7716SOL    HW123538   4.145   6.309   3.931  0.1323 -0.0470  0.2448
 7716SOL    HW223539   4.173   6.164   3.966  0.6957 -0.1780 -0.7069
 7717SOL     OW23540   6.461   4.577   1.623 -0.1540  0.4306 -0.2675
 7717SOL    HW123541   6.533   4.559   1.683 -1.7452 -0.8082  1.4002
 7717SOL    HW223542   6.443   4.671   1.635 -0.0994  0.3171  0.8455
 7718SOL     OW23543   4.888   4.439   2.454  0.0905  0.1373  0.4804
 7718SOL    HW123544   4.904   4.346   2.438  1.7711  0.1747  1.6084
 7718SOL    HW223545   4.930   4.455   2.539  1.3247  2.2965 -0.4834
 7719SOL     OW23546   0.535   4.526   0.598 -0.2232  0.5162 -0.1898
 7719SOL    HW123547   0.476   4.541   0.524  0.2700 -0.6717 -0.8450
 7719SOL    HW223548   0.592   4.455   0.570  1.8878  1.9517  0.2110
 7720SOL     OW23549   6.171   1.662   6.480  0.1623  0.4709 -0.4493
 7720SOL    HW123550   6.266   1.657   6.471  0.0302 -0.2939 -1.5683
 7720SOL    HW223551   6.143   1.722   6.411 -0.1164  1.3311  0.3828
 7721SOL     OW23552   3.805   0.474   0.946 -0.1040 -0.0090 -0.2944
 7721SOL    HW123553   3.753   0.394   0.959  0.5534 -0.5435 -0.8751
 7721SOL    HW223554   3.804   0.517   1.032 -0.1911 -0.8107  0.1172
 7722SOL     OW23555   6.326   2.668   2.617 -0.0145  0.6250 -0.1634
 7722SOL    HW123556   6.374   2.625   2.687 -0.6744 -0.1782 -0.1896
 7722SOL    HW223557   6.381   2.742   2.592 -0.3657  1.6741  2.0349
 7723SOL     OW23558   3.867   6.552   1.037  0.3732  0.1803  0.2387
 7723SOL    HW123559   3.916   6.471   1.023  0.0949  0.1335 -0.5169
 7723SOL    HW223560   3.821   6.538   1.120 -1.9556 -1.6301 -1.2556
 7724SOL     OW23561   4.054   5.959   4.259  0.2711  0.7951 -0.2140
 7724SOL    HW123562   4.144   5.925   4.263  0.2068  0.6369  3.1022
 7724SOL    HW223563   4.000   5.883   4.238  0.6210 -0.1073  1.8990
 7725SOL     OW23564   2.467   4.335   3.756 -0.1779 -0.3387 -0.5399
 7725SOL    HW123565   2.439   4.388   3.831  0.9519 -1.0260  0.4091
 7725SOL    HW223566   2.445   4.388   3.680  1.3466  1.7863  0.3614
 7726SOL     OW23567   4.918   2.140   0.071 -0.6010  0.0441 -0.5057
 7726SOL    HW123568   4.946   2.078   0.005 -1.3469  0.6382 -1.3953
 7726SOL    HW223569   4.981   2.212   0.064 -1.9099  1.0982 -2.0860
 7727SOL     OW23570   4.401   2.605   4.825 -0.0450  0.1970  0.0248
 7727SOL    HW123571   4.448   2.603   4.909  1.9549 -0.1608 -1.0537
 7727SOL    HW223572   4.374   2.696   4.815  1.9930  0.8490 -0.0987
 7728SOL     OW23573   4.291   6.639   0.031 -0.2121  0.3943  0.2929
 7728SOL    HW123574   4.298   6.545   0.047 -1.7873  0.0513 -0.7648
 7728SOL    HW223575   4.314   6.650  -0.062  1.7692  1.3430  0.8373
 7729SOL     OW23576   0.048   0.732   4.653  0.3964 -0.4576  0.1060
 7729SOL    HW123577  -0.035   0.747   4.698 -1.3209 -0.8188 -2.6650
 7729SOL    HW223578   0.109   0.795   4.691 -1.7051  1.2200  0.8778
 7730SOL     OW23579   5.999   0.164   2.646 -0.6229 -0.1652 -0.1652
 7730SOL    HW123580   5.999   0.120   2.731 -0.8451  1.6054  0.7948
 7730SOL    HW223581   5.913   0.205   2.640  0.2627  1.8296 -0.0609
 7731SOL     OW23582   0.488   4.982   3.619  0.4365 -0.8006  0.3983
 7731SOL    HW123583   0.458   4.895   3.646 -0.4510 -0.7504 -0.4028
 7731SOL    HW223584   0.457   5.040   3.689  0.2875 -1.0096  0.5075
 7732SOL     OW23585   6.834   3.947   1.735  0.4079  0.0475 -0.2259
 7732SOL    HW123586   6.782   3.977   1.809 -1.6042  0.1364 -1.6069
 7732SOL    HW223587   6.802   3.998   1.660  2.1715 -0.2384 -1.2529
 7733SOL     OW23588   0.883   0.410   3.666  0.3510  0.2170 -0.1807
 7733SOL    HW123589   0.913   0.495   3.633 -1.3992  2.0367  2.5589
 7733SOL    HW223590   0.838   0.430   3.747  0.1464 -3.4379  0.7723
 7734SOL     OW23591   5.818   0.993   3.820 -0.2654  0.3864  0.3123
 7734SOL    HW123592   5.909   0.997   3.849  0.6935  0.3873 -2.3551
 7734SOL    HW223593   5.777   0.928   3.876  1.6815 -0.4261  0.8696
 7735SOL     OW23594   0.633   4.036   2.449 -0.1497 -0.5124 -0.0229
 7735SOL    HW123595   0.685   3.966   2.411 -0.3100 -1.6318  1.6794
 7735SOL    HW223596   0.658   4.115   2.400  0.8161 -1.5612 -1.2813
 7736SOL     OW23597   4.768   2.218   1.891 -0.0553 -0.6322  1.0090
 7736SOL    HW123598   4.812   2.301   1.908 -0.6886  0.0082 -0.3157
 7736SOL    HW223599   4.821   2.176   1.823 -0.3409 -0.8108  0.8918
 7737SOL     OW23600   3.299   5.580   4.786  0.2600  0.7081  0.2222
 7737SOL    HW123601   3.247   5.538   4.718  1.5454  0.1348 -0.4380
 7737SOL    HW223602   3.246   5.572   4.865 -0.7406  0.3458 -0.4659
 7738SOL     OW23603   3.634   2.867   3.953 -0.5017 -0.7099  0.0906
 7738SOL    HW123604   3.662   2.933   3.888 -0.5725  0.8903  1.6110
 7738SOL    HW223605   3.716   2.830   3.986 -0.4524 -1.2305 -0.5997
 7739SOL     OW23606   0.360   6.673   4.176  0.0698  0.3844  0.5951
 7739SOL    HW123607   0.273   6.708   4.157  0.7034  2.2404  0.9132
 7739SOL    HW223608   0.366   6.593   4.123 -2.0299 -0.1305  1.0379
 7740SOL     OW23609   2.724   2.162   5.943 -0.0970  0.0740 -0.4918
 7740SOL    HW123610   2.752   2.128   5.858 -0.8057 -0.1071 -0.6598
 7740SOL    HW223611   2.784   2.122   6.006 -1.0631 -1.7299 -0.6494
 7741SOL     OW23612   6.653   4.023   0.705 -0.4716  0.8404  0.1863
 7741SOL    HW123613   6.567   4.061   0.721 -0.0817  0.8205  2.7257
 7741SOL    HW223614   6.652   3.941   0.754  0.8305  0.6016 -0.1527
 7742SOL     OW23615   6.316   2.355   1.505  0.1758  0.0281 -0.2232
 7742SOL    HW123616   6.369   2.416   1.454  0.1661  0.2274  0.0045
 7742SOL    HW223617   6.370   2.276   1.513  0.4000  0.2018 -0.0583
 7743SOL     OW23618   2.762   0.430   6.375  0.8292 -0.7010 -0.2987
 7743SOL    HW123619   2.735   0.391   6.291  2.1914  0.4231 -1.3089
 7743SOL    HW223620   2.730   0.520   6.371  1.4822 -0.4430  0.0943
 7744SOL     OW23621   6.693   1.668   2.616  0.8096  0.2752  0.5977
 7744SOL    HW123622   6.726   1.756   2.602 -1.4362  1.5644  2.7709
 7744SOL    HW223623   6.671   1.664   2.709 -1.5749 -1.6929  0.0693
 7745SOL     OW23624   6.333   6.385   1.852  0.2513 -0.1666 -0.2382
 7745SOL    HW123625   6.356   6.386   1.945  0.7150  0.9682 -0.3548
 7745SOL    HW223626   6.267   6.453   1.843  1.1689  0.6501 -0.9692
 7746SOL     OW23627   1.843   0.718   6.045  0.3931  0.1892  0.6639
 7746SOL    HW123628   1.796   0.649   5.998  1.3823 -0.7061  0.9418
 7746SOL    HW223629   1.903   0.670   6.102 -0.5288  1.2396  2.6026
 7747SOL     OW23630   1.373   4.523   6.416  0.2672 -0.4202  0.1859
 7747SOL    HW123631   1.305   4.458   6.436  0.0518 -0.5208 -0.8333
 7747SOL    HW223632   1.383   4.518   6.321  0.9480  0.3528  0.2129
 7748SOL     OW23633   5.517   4.666   4.047  0.0293 -0.7913  0.8881
 7748SOL    HW123634   5.444   4.611   4.016 -1.2248  1.2235  0.0698
 7748SOL    HW223635   5.493   4.755   4.020  1.9523  0.1928  2.2145
 7749SOL     OW23636   5.536   1.849   4.518  0.1977  0.0462 -0.4382
 7749SOL    HW123637   5.515   1.929   4.567  0.4909  0.3506 -0.8054
 7749SOL    HW223638   5.599   1.803   4.573 -1.0991 -0.6917  0.4995
 7750SOL     OW23639   0.451   4.665   4.693 -0.6539 -0.2303 -0.4847
 7750SOL    HW123640   0.496   4.743   4.726 -1.8644  0.7747 -1.1297
 7750SOL    HW223641   0.505   4.592   4.722  0.8163  0.8717 -0.3361
 7751SOL     OW23642   4.229   4.211   0.276  0.6662 -0.1978 -0.1218
 7751SOL    HW123643   4.195   4.225   0.188  0.7559 -1.6795 -0.4023
 7751SOL    HW223644   4.320   4.185   0.263 -0.1238 -3.5640  0.1420
 7752SOL     OW23645   1.288   3.291   6.344  0.0231  0.2293  0.4545
 7752SOL    HW123646   1.203   3.317   6.308 -0.2462  0.5627  1.2918
 7752SOL    HW223647   1.348   3.362   6.318 -0.2801  0.7250  1.0727
 7753SOL     OW23648   1.807   0.538   0.784 -0.0901  0.8197 -0.0704
 7753SOL    HW123649   1.885   0.593   0.790 -0.0013  0.8759 -1.3395
 7753SOL    HW223650   1.816   0.475   0.855  0.7619  1.2569  0.2273
 7754SOL     OW23651   0.570   6.038   5.176 -0.4734  0.2821 -0.0110
 7754SOL    HW123652   0.617   6.043   5.259  1.1674 -2.0703 -0.6733
 7754SOL    HW223653   0.478   6.032   5.200 -0.0302 -0.3517  1.6403
 7755SOL     OW23654   5.803   0.119   5.330  0.9088  0.2661 -0.1885
 7755SOL    HW123655   5.724   0.090   5.376 -0.6850 -0.5209 -3.1853
 7755SOL    HW223656   5.773   0.192   5.276  2.7114  1.2145  0.0302
 7756SOL     OW23657   3.089   3.271   1.877  0.4162 -0.5265 -0.5599
 7756SOL    HW123658   3.105   3.177   1.890 -0.5857 -0.7772 -0.9688
 7756SOL    HW223659   2.994   3.279   1.885  0.5057  0.4728 -0.4626
 7757SOL     OW23660   1.523   6.004   3.641  0.4523 -0.7480  0.1520
 7757SOL    HW123661   1.607   6.034   3.675 -0.2072 -0.0536  1.2333
 7757SOL    HW223662   1.521   6.033   3.550  0.5288  1.0844  0.7004
 7758SOL     OW23663   2.988   1.658   4.080 -0.3078 -0.4041  0.5894
 7758SOL    HW123664   3.040   1.730   4.046 -0.4957 -0.3259  0.4631
 7758SOL    HW223665   2.969   1.604   4.003  1.7629 -1.8496  1.0097
 7759SOL     OW23666   3.591   2.725   5.927 -0.1457 -0.3466  0.2621
 7759SOL    HW123667   3.508   2.705   5.884 -0.3505  0.0619  0.4622
 7759SOL    HW223668   3.597   2.663   5.999 -0.1425 -0.5583  0.0821
 7760SOL     OW23669   3.904   5.079   1.578  0.2682  0.4060  0.0510
 7760SOL    HW123670   3.886   5.129   1.657  1.3203  0.6613  0.1483
 7760SOL    HW223671   3.819   5.047   1.549 -0.5681  2.8439 -0.4079
 7761SOL     OW23672   0.266   0.585   5.691 -0.0615 -0.0640 -0.1016
 7761SOL    HW123673   0.319   0.582   5.770  1.2200 -0.2939 -0.9307
 7761SOL    HW223674   0.285   0.672   5.654 -2.2717  0.9077  0.8769
 7762SOL     OW23675   3.178   0.031   3.649 -0.1615 -0.3169 -0.5329
 7762SOL    HW123676   3.167  -0.048   3.597 -0.7982 -0.6765  0.1169
 7762SOL    HW223677   3.167   0.103   3.587 -1.1312 -0.7318 -0.8613
 7763SOL     OW23678   4.220   1.547   5.849 -0.6076 -0.3482 -0.3484
 7763SOL    HW123679   4.275   1.624   5.869 -1.7280  0.4757 -0.3610
 7763SOL    HW223680   4.211   1.548   5.754  0.1130 -1.0316 -0.4329
 7764SOL     OW23681   1.695   4.263   1.810  0.2944  0.2773 -0.1220
 7764SOL    HW123682   1.663   4.346   1.845  1.2979  0.8177 -0.4350
 7764SOL    HW223683   1.624   4.201   1.825 -0.5661  1.2482 -0.0903
 7765SOL     OW23684   1.435   6.406   1.459 -0.3077  0.2595  0.0721
 7765SOL    HW123685   1.391   6.487   1.483 -1.6225 -0.4869  0.2938
 7765SOL    HW223686   1.528   6.429   1.456 -0.6190  1.6758  0.4650
 7766SOL     OW23687   2.137   6.761   0.261 -0.2933  0.0458 -0.3891
 7766SOL    HW123688   2.151   6.849   0.295 -1.8738 -0.5479  2.0437
 7766SOL    HW223689   2.222   6.718   0.270 -0.2964  0.3728  1.5506
 7767SOL     OW23690   6.738   5.991   6.683  0.0826 -0.2336  0.4722
 7767SOL    HW123691   6.723   6.068   6.627  0.6079 -0.5763 -0.1493
 7767SOL    HW223692   6.829   5.967   6.667  0.1280 -0.5682  1.2003
 7768SOL     OW23693   6.514   3.281   6.371 -0.2795  0.6783 -0.1347
 7768SOL    HW123694   6.547   3.192   6.381 -0.2232  0.9472  3.4564
 7768SOL    HW223695   6.422   3.270   6.348  0.0932 -0.2257 -1.3151
 7769SOL     OW23696   1.042   0.477   3.391 -0.5280 -0.4784  1.0657
 7769SOL    HW123697   1.055   0.455   3.299  1.4004 -1.5392  1.5491
 7769SOL    HW223698   1.017   0.394   3.432  2.3416 -0.9458  2.1007
 7770SOL     OW23699   3.492   1.197   3.372  0.2377 -0.1011 -0.1591
 7770SOL    HW123700   3.530   1.126   3.319 -0.0409  0.7081 -1.4686
 7770SOL    HW223701   3.566   1.254   3.391  0.0731  0.3854 -0.9492
 7771SOL     OW23702   0.165   5.577   4.978  0.0063 -0.4305  0.0845
 7771SOL    HW123703   0.182   5.620   5.062 -1.4989  1.2546 -0.4111
 7771SOL    HW223704   0.225   5.503   4.977  1.4407  0.6175  1.7907
 7772SOL     OW23705   1.282   1.253   1.561  0.3816 -0.3640 -0.1673
 7772SOL    HW123706   1.253   1.238   1.650 -1.7028  2.5719 -0.2016
 7772SOL    HW223707   1.205   1.235   1.507  1.3464 -1.2275 -1.3191
 7773SOL     OW23708   4.554   0.349   4.026  0.3078  0.0322 -0.1594
 7773SOL    HW123709   4.535   0.441   4.044 -0.9579 -0.1787 -0.3319
 7773SOL    HW223710   4.646   0.348   4.002  0.2966  1.2844 -0.3221
 7774SOL     OW23711   2.641   1.242   3.655  0.3067 -0.1198 -0.0617
 7774SOL    HW123712   2.617   1.287   3.736  1.7496  0.1941  0.2282
 7774SOL    HW223713   2.558   1.227   3.610 -0.4122  0.8041  0.9003
 7775SOL     OW23714   0.553   3.043   6.705  0.5140  0.2083  0.6548
 7775SOL    HW123715   0.586   3.021   6.617  0.3261  0.8003  0.4339
 7775SOL    HW223716   0.630   3.076   6.751  1.2481 -2.5137  1.5881
 7776SOL     OW23717   1.177   4.507   2.308  0.4171 -0.0288 -0.0524
 7776SOL    HW123718   1.217   4.452   2.376  0.3714  0.3517  0.2890
 7776SOL    HW223719   1.083   4.505   2.328 -0.0034 -2.2399 -1.8049
 7777SOL     OW23720   4.173   5.395   5.722 -0.2066  0.0108  0.3992
 7777SOL    HW123721   4.083   5.367   5.709  0.5293 -2.3333 -0.1489
 7777SOL    HW223722   4.212   5.393   5.634 -0.0014  2.7367  0.3206
 7778SOL     OW23723   2.536   1.891   2.963  0.6891 -0.5960  0.1317
 7778SOL    HW123724   2.443   1.915   2.958  0.3343 -1.5043  1.6796
 7778SOL    HW223725   2.548   1.826   2.894 -0.1454 -1.3416  0.6526
 7779SOL     OW23726   2.005   4.774   2.062 -0.0359 -0.3205  0.1815
 7779SOL    HW123727   2.003   4.830   1.984  0.5334  1.9229  1.6551
 7779SOL    HW223728   2.091   4.789   2.100 -0.2493 -1.4708  1.1599
 7780SOL     OW23729   1.897   0.832   5.273 -0.2781  0.3743 -0.7821
 7780SOL    HW123730   1.865   0.769   5.337 -1.2247 -0.0684 -1.6476
 7780SOL    HW223731   1.953   0.781   5.214  1.3612  0.9670  0.1943
 7781SOL     OW23732   4.988   0.956   0.657  0.2070 -0.4766  0.3589
 7781SOL    HW123733   4.898   0.964   0.688  0.5284 -1.6350  1.6555
 7781SOL    HW223734   4.990   0.872   0.612  1.0387 -1.2556  1.8054
 7782SOL     OW23735   2.044   6.192   6.456  0.0483  0.4906  0.0130
 7782SOL    HW123736   2.010   6.183   6.545 -0.4979 -1.7755 -0.3613
 7782SOL    HW223737   2.134   6.223   6.467  0.0069  0.1720  1.3579
 7783SOL     OW23738   2.930   5.235   1.089 -0.9054  0.6504  0.3649
 7783SOL    HW123739   2.883   5.305   1.043 -1.5653  0.1622  0.2738
 7783SOL    HW223740   3.016   5.232   1.047 -0.7129  1.6853  0.6594
 7784SOL     OW23741   0.976   2.953   5.983 -0.2905 -0.5439 -0.1497
 7784SOL    HW123742   1.046   3.017   5.994 -1.1237  0.4311 -0.3911
 7784SOL    HW223743   1.003   2.878   6.036 -0.1241  0.6644  1.5457
 7785SOL     OW23744   0.249   5.246   3.561  0.0094 -0.0487  0.0735
 7785SOL    HW123745   0.304   5.324   3.558 -0.4682  0.2921 -2.2772
 7785SOL    HW223746   0.244   5.223   3.654  1.4892  1.7504  0.6595
 7786SOL     OW23747   2.777   6.589   0.111 -0.0878 -0.1099  0.1755
 7786SOL    HW123748   2.863   6.547   0.103  0.2652  0.7452 -0.7183
 7786SOL    HW223749   2.727   6.530   0.168  1.5010  0.0394  1.8158
 7787SOL     OW23750   0.863   5.662   3.087  0.4449 -0.2213 -0.2270
 7787SOL    HW123751   0.953   5.646   3.059  0.1645 -0.0125 -1.2768
 7787SOL    HW223752   0.870   5.731   3.152  0.9637  0.4930 -1.0227
 7788SOL     OW23753   0.544   3.826   0.540 -0.1065 -0.3898 -0.0309
 7788SOL    HW123754   0.517   3.844   0.450 -0.0756 -0.5807 -0.0767
 7788SOL    HW223755   0.490   3.885   0.593 -0.7126 -0.8710 -0.1119
 7789SOL     OW23756   4.633   2.319   2.703  0.2251  0.0985 -0.9355
 7789SOL    HW123757   4.680   2.260   2.644  0.2630 -0.3799 -0.4340
 7789SOL    HW223758   4.616   2.397   2.650  1.5714  0.2783 -1.1288
 7790SOL     OW23759   0.770   1.208   5.881 -0.7181 -0.0656 -0.9824
 7790SOL    HW123760   0.689   1.257   5.890 -0.7575 -0.2800  0.0123
 7790SOL    HW223761   0.752   1.143   5.813 -1.1260  0.3845 -1.3043
 7791SOL     OW23762   6.668   3.721   3.075 -0.1900  0.0287  0.0035
 7791SOL    HW123763   6.693   3.748   3.163 -2.6156  0.6244  0.5778
 7791SOL    HW223764   6.598   3.657   3.088 -1.9667  1.5523 -1.4362
 7792SOL     OW23765   1.479   1.994   1.728  0.0088  0.1133 -0.0575
 7792SOL    HW123766   1.523   1.966   1.648  0.6500  0.8001  0.0514
 7792SOL    HW223767   1.484   2.089   1.727  0.6800  0.1111  1.1676
 7793SOL     OW23768   3.112   0.091   1.044 -0.1779 -0.2252 -0.2421
 7793SOL    HW123769   3.043   0.027   1.027 -0.8539 -0.1913  2.0407
 7793SOL    HW223770   3.079   0.143   1.117  0.4458  2.6340 -1.8396
 7794SOL     OW23771   1.693   0.764   5.678 -0.0809  0.4438  0.0098
 7794SOL    HW123772   1.648   0.731   5.756 -1.1060  1.4692 -0.1277
 7794SOL    HW223773   1.625   0.767   5.611 -0.1669  3.1550  0.1187
 7795SOL     OW23774   2.939   6.732   0.592 -0.1409  0.5347  0.4787
 7795SOL    HW123775   2.892   6.652   0.569  0.0460  0.7650 -0.7807
 7795SOL    HW223776   2.964   6.720   0.684 -0.1062 -0.8468  0.3023
 7796SOL     OW23777   4.468   3.983   2.407 -0.5235 -0.8229  0.6305
 7796SOL    HW123778   4.556   3.946   2.403 -0.0239  0.0976  2.1212
 7796SOL    HW223779   4.444   3.997   2.315  1.2371 -0.3024  0.2028
 7797SOL     OW23780   2.050   3.508   6.448  0.3115 -0.1580  0.2148
 7797SOL    HW123781   2.033   3.428   6.498 -0.1926 -0.7521 -0.8690
 7797SOL    HW223782   1.969   3.523   6.400  1.2434 -0.3951 -1.4881
 7798SOL     OW23783   6.026   5.342   0.465 -0.1422 -0.0524 -0.3632
 7798SOL    HW123784   5.972   5.266   0.443 -0.6702  0.7873 -2.1694
 7798SOL    HW223785   6.105   5.331   0.411 -0.8428  1.3495 -1.7594
 7799SOL     OW23786   3.907   3.231   1.363 -0.2097 -0.1938  0.0574
 7799SOL    HW123787   3.894   3.183   1.444  0.4489  0.3070  0.4665
 7799SOL    HW223788   3.989   3.197   1.328 -0.5277 -0.4631 -0.4536
 7800SOL     OW23789   5.933   1.771   0.406  0.4989  0.3351  0.0937
 7800SOL    HW123790   5.909   1.842   0.466  1.1457  1.8199 -1.3241
 7800SOL    HW223791   5.849   1.740   0.370 -0.1273 -1.9709  3.1064
 7801SOL     OW23792   2.764   6.296   3.853 -0.4862 -0.0075 -0.1605
 7801SOL    HW123793   2.844   6.338   3.821 -0.3486  0.6042  0.9202
 7801SOL    HW223794   2.700   6.368   3.860 -0.2809  0.0629  1.6142
 7802SOL     OW23795   2.877   3.974   2.687  0.7815  0.1952 -0.1364
 7802SOL    HW123796   2.892   3.905   2.751  2.2489  0.8443  0.2729
 7802SOL    HW223797   2.933   3.950   2.613  1.3637  0.9449  0.0382
 7803SOL     OW23798   5.637   3.366   2.778 -0.0251 -0.1569 -0.1130
 7803SOL    HW123799   5.629   3.394   2.869 -1.1831  0.3517 -0.3450
 7803SOL    HW223800   5.695   3.290   2.781  1.3319  0.8522  0.8318
 7804SOL     OW23801   6.074   3.418   3.496 -0.3020 -0.9116  0.0850
 7804SOL    HW123802   6.006   3.441   3.432 -1.1424 -0.1531  1.1992
 7804SOL    HW223803   6.151   3.398   3.444 -0.8184  0.1743 -1.1534
 7805SOL     OW23804   5.658   2.558   1.439  0.2678  0.0601  0.1816
 7805SOL    HW123805   5.698   2.609   1.509 -0.1138  1.2177 -0.4120
 7805SOL    HW223806   5.570   2.594   1.429  0.0770 -0.5383 -0.4437
 7806SOL     OW23807   0.162   4.538   6.499 -0.2684  0.1179  0.3933
 7806SOL    HW123808   0.237   4.496   6.540 -0.3310 -0.1625  0.2269
 7806SOL    HW223809   0.090   4.524   6.560 -0.2497  0.1340  0.4189
 7807SOL     OW23810   4.145   0.948   3.951 -0.2192  0.1469  0.0859
 7807SOL    HW123811   4.115   0.857   3.957  0.7250 -0.2200 -0.4350
 7807SOL    HW223812   4.129   0.973   3.860 -1.5782  0.9234  0.5168
 7808SOL     OW23813   2.696   5.218   4.160  0.5322  0.1414  0.0177
 7808SOL    HW123814   2.720   5.264   4.241 -1.3791 -0.6512  1.1124
 7808SOL    HW223815   2.759   5.145   4.155 -0.0112 -0.4768  1.4591
 7809SOL     OW23816   4.490   5.500   3.640 -0.4607 -0.2219 -0.1730
 7809SOL    HW123817   4.576   5.533   3.615  0.1260 -0.2013  1.7600
 7809SOL    HW223818   4.432   5.527   3.568  0.6481  1.9466 -0.3282
 7810SOL     OW23819   5.919   5.953   0.204  0.7376  0.0806 -0.0643
 7810SOL    HW123820   5.941   6.017   0.136  1.4198 -1.1305 -1.0394
 7810SOL    HW223821   5.853   5.897   0.163  0.5941 -0.2046  0.5547
 7811SOL     OW23822   6.080   5.558   6.617  0.1568  0.4098  0.1079
 7811SOL    HW123823   6.024   5.613   6.672 -1.3514 -0.4086 -0.5355
 7811SOL    HW223824   6.164   5.554   6.664  0.1817  2.8751  0.3628
 7812SOL     OW23825   1.611   3.762   0.342 -0.4563 -0.0731  0.2233
 7812SOL    HW123826   1.573   3.720   0.418 -1.1426  1.3157  0.6792
 7812SOL    HW223827   1.650   3.843   0.375  1.6003 -0.7089 -0.4808
 7813SOL     OW23828   2.963   2.878   4.636  0.5324  0.3553  0.3295
 7813SOL    HW123829   2.963   2.969   4.607  1.9320  0.6297  1.0972
 7813SOL    HW223830   3.055   2.851   4.630 -0.0329 -1.4651 -1.2141
 7814SOL     OW23831   6.220   1.628   5.919  0.0211  0.2015 -0.4295
 7814SOL    HW123832   6.180   1.714   5.928  1.8113  1.2379 -1.8297
 7814SOL    HW223833   6.151   1.573   5.881 -1.1449  0.9706  0.5123
 7815SOL     OW23834   4.233   0.455   3.309  0.1680 -0.5101  0.2957
 7815SOL    HW123835   4.184   0.525   3.265  1.7613  0.2104 -0.4138
 7815SOL    HW223836   4.167   0.407   3.358 -1.3197  0.1166 -1.0061
 7816SOL     OW23837   0.498   3.651   6.640  0.0020  0.4763 -0.0307
 7816SOL    HW123838   0.451   3.573   6.609 -1.1143  0.6814  1.0736
 7816SOL    HW223839   0.453   3.724   6.597 -0.0047  0.6120  0.2080
 7817SOL     OW23840   3.923   4.638   4.650  0.5781  0.4819 -0.1325
 7817SOL    HW123841   3.942   4.731   4.642  0.8186  0.3792 -0.8602
 7817SOL    HW223842   3.994   4.602   4.703 -0.1680  0.9081  1.2200
 7818SOL     OW23843   3.819   2.738   4.433 -0.1906 -0.9196  0.2592
 7818SOL    HW123844   3.725   2.722   4.423 -0.5488  1.2158 -0.4515
 7818SOL    HW223845   3.856   2.718   4.346 -0.3464  0.1417 -0.0713
 7819SOL     OW23846   3.576   3.388   1.201 -0.1064  0.3599 -0.2172
 7819SOL    HW123847   3.519   3.317   1.232 -0.3309  0.0848 -1.2083
 7819SOL    HW223848   3.656   3.344   1.172  0.2561  0.6525  0.3198
 7820SOL     OW23849   0.562   0.675   4.790  0.6593  0.2188 -0.7054
 7820SOL    HW123850   0.546   0.768   4.805  0.4006 -0.0015  0.4999
 7820SOL    HW223851   0.486   0.631   4.829  0.0175 -0.4411 -2.5900
 7821SOL     OW23852   5.263   2.130   1.469  0.1206 -0.0936  0.2657
 7821SOL    HW123853   5.350   2.099   1.444 -0.3978 -0.5278 -1.1098
 7821SOL    HW223854   5.276   2.222   1.494  1.1040 -0.4095  0.9759
 7822SOL     OW23855   3.374   1.717   6.595  0.1748  0.4549  0.1958
 7822SOL    HW123856   3.309   1.660   6.635 -1.4268  0.3846 -2.2928
 7822SOL    HW223857   3.452   1.662   6.586 -0.6014 -0.6451 -0.0566
 7823SOL     OW23858   6.466   1.356   2.196 -0.8631 -0.3756 -0.2637
 7823SOL    HW123859   6.442   1.409   2.120 -0.8954 -0.0541 -0.0324
 7823SOL    HW223860   6.528   1.291   2.162  0.8694  1.1542 -0.1514
 7824SOL     OW23861   4.775   4.244   2.899  0.1451  0.2872  0.2734
 7824SOL    HW123862   4.760   4.236   2.993 -2.7284  1.4151 -0.0011
 7824SOL    HW223863   4.731   4.168   2.861 -1.3489  1.3899 -0.3040
 7825SOL     OW23864   5.679   6.365   0.671  0.0540 -0.3074 -0.1570
 7825SOL    HW123865   5.724   6.342   0.589  1.2226  0.4597  0.2466
 7825SOL    HW223866   5.588   6.377   0.645  0.3890 -0.1590 -1.3401
 7826SOL     OW23867   0.535   3.349   2.631  0.1495  0.5028 -0.0225
 7826SOL    HW123868   0.448   3.379   2.605  0.6803  0.6504 -1.7571
 7826SOL    HW223869   0.521   3.304   2.715 -1.5328  0.7967 -0.1158
 7827SOL     OW23870   3.920   4.762   5.569 -0.0152  0.3558 -0.1447
 7827SOL    HW123871   3.954   4.672   5.567  0.1423  0.2323  2.7207
 7827SOL    HW223872   3.968   4.803   5.641 -1.3452  2.1931 -0.2426
 7828SOL     OW23873   0.585   3.543   0.043 -0.0743  0.2718  0.4042
 7828SOL    HW123874   0.517   3.611   0.043 -1.9671 -1.3659  3.4077
 7828SOL    HW223875   0.562   3.487  -0.030  1.3726  2.5429 -1.9760
 7829SOL     OW23876   5.107   0.159   3.874  0.1737  0.0684 -0.1064
 7829SOL    HW123877   5.104   0.073   3.916  1.0220 -0.2677 -0.7065
 7829SOL    HW223878   5.168   0.148   3.801  0.0506  1.0997 -0.3811
 7830SOL     OW23879   6.283   3.413   3.286  0.3082 -0.2921  0.1719
 7830SOL    HW123880   6.253   3.485   3.230  1.7701  0.6851  0.5754
 7830SOL    HW223881   6.237   3.336   3.252 -0.2089  0.5674 -1.2088
 7831SOL     OW23882   1.245   5.376   2.131  0.2342  0.1810 -0.6971
 7831SOL    HW123883   1.208   5.293   2.098 -0.7338  0.5672 -0.6236
 7831SOL    HW223884   1.331   5.381   2.091 -0.1410 -0.3207 -1.6103
 7832SOL     OW23885   3.096   1.984   2.767 -0.0283 -0.1630  0.0927
 7832SOL    HW123886   3.007   2.002   2.798  0.2152 -0.4293  0.9946
 7832SOL    HW223887   3.152   2.014   2.838  0.6873  1.1959 -1.0018
 7833SOL     OW23888   1.624   5.314   4.009  0.0292  0.4689  0.3302
 7833SOL    HW123889   1.714   5.345   4.003 -0.2663  1.1604 -1.1401
 7833SOL    HW223890   1.595   5.307   3.918 -0.6447 -2.0764  0.6713
 7834SOL     OW23891   1.719   6.039   0.728  0.2901  0.6337  0.4732
 7834SOL    HW123892   1.767   5.966   0.689 -0.7067 -1.2579  2.5223
 7834SOL    HW223893   1.728   6.111   0.666 -1.0204 -2.0066 -3.0675
 7835SOL     OW23894   5.269   6.491   1.868  0.0373 -0.5865  0.5676
 7835SOL    HW123895   5.316   6.496   1.785 -0.9030  0.7181  0.0769
 7835SOL    HW223896   5.282   6.401   1.898  0.7642 -0.9529 -0.7680
 7836SOL     OW23897   4.252   0.805   4.856 -0.5868  0.1655  0.4383
 7836SOL    HW123898   4.339   0.810   4.896 -0.4151 -0.8723  0.2303
 7836SOL    HW223899   4.270   0.786   4.764 -1.0234  0.1190  0.3628
 7837SOL     OW23900   3.476   5.008   4.281 -0.7439 -0.3029 -0.5363
 7837SOL    HW123901   3.430   5.089   4.306 -0.1972  0.6014 -2.3387
 7837SOL    HW223902   3.566   5.035   4.265 -0.4522 -1.3567 -0.7534
 7838SOL     OW23903   6.700   6.518   5.789 -0.1967  0.0209  0.1313
 7838SOL    HW123904   6.780   6.567   5.805 -1.2575  1.8224  0.1852
 7838SOL    HW223905   6.684   6.471   5.871 -0.8235  2.1460  1.3158
 7839SOL     OW23906   0.545   1.368   2.665  1.0819  0.3740 -0.2274
 7839SOL    HW123907   0.630   1.333   2.636  1.7058  2.7123 -1.4803
 7839SOL    HW223908   0.482   1.335   2.601  1.5688  1.0356 -1.0722
 7840SOL     OW23909   6.145   5.151   2.380 -0.7821 -0.1198 -0.1157
 7840SOL    HW123910   6.115   5.062   2.395  0.4335 -0.5802 -0.2619
 7840SOL    HW223911   6.230   5.140   2.336 -0.3898  1.0969  0.3025
 7841SOL     OW23912   5.502   0.134   5.523  0.5903 -0.4982 -0.4059
 7841SOL    HW123913   5.424   0.184   5.501 -0.7094 -2.8530 -1.5253
 7841SOL    HW223914   5.550   0.190   5.584 -1.3943  1.4874 -0.5418
 7842SOL     OW23915   2.560   6.530   3.628  0.3306 -0.1028 -0.1889
 7842SOL    HW123916   2.649   6.566   3.632 -1.0351  3.4960  2.4350
 7842SOL    HW223917   2.535   6.515   3.719 -1.9836 -0.4695 -0.8136
 7843SOL     OW23918   5.030   3.475   6.642  0.1306  0.3825 -0.3549
 7843SOL    HW123919   4.955   3.533   6.657  0.1629  0.6600 -1.1847
 7843SOL    HW223920   5.017   3.443   6.553  0.1984 -0.7763  0.0476
 7844SOL     OW23921   4.513   4.941   0.855 -0.3423 -0.1468  0.4655
 7844SOL    HW123922   4.600   4.912   0.827 -1.0231  0.3287 -2.4573
 7844SOL    HW223923   4.527   5.031   0.887  0.3665 -0.4334  0.9980
 7845SOL     OW23924   6.607   1.121   2.141 -0.2028  0.8186  0.0146
 7845SOL    HW123925   6.562   1.037   2.139 -1.4266  1.1977  3.5451
 7845SOL    HW223926   6.694   1.102   2.175  0.2281  0.7692 -1.0989
 7846SOL     OW23927   1.222   2.504   5.345 -0.0608  0.2851  0.2706
 7846SOL    HW123928   1.155   2.436   5.353 -2.4277  2.1508 -1.9334
 7846SOL    HW223929   1.304   2.461   5.370 -1.6584 -2.8766  0.4791
 7847SOL     OW23930   4.044   3.150   5.267  0.1251 -0.2507  0.2680
 7847SOL    HW123931   4.082   3.235   5.248  0.2757 -0.2008  0.7762
 7847SOL    HW223932   4.116   3.088   5.257  0.0839 -0.2832  0.1741
 7848SOL     OW23933   2.895   4.565   6.375  0.6119 -0.3649 -0.2934
 7848SOL    HW123934   2.834   4.632   6.407 -0.2398 -0.9138 -0.7461
 7848SOL    HW223935   2.933   4.604   6.296 -0.3425 -0.6303 -0.9085
 7849SOL     OW23936   3.529   6.536   6.059 -0.1384 -0.3137  0.0814
 7849SOL    HW123937   3.534   6.459   6.002 -1.2107 -0.5563  0.3077
 7849SOL    HW223938   3.536   6.500   6.147  0.0392 -0.0743  0.1651
 7850SOL     OW23939   5.545   1.927   0.562  0.2787 -0.7042  0.5869
 7850SOL    HW123940   5.590   1.972   0.491  2.2249 -1.4532  1.2884
 7850SOL    HW223941   5.471   1.984   0.583 -0.5173 -0.5593 -2.1345
 7851SOL     OW23942   6.217   0.965   2.448 -0.1868  0.1092 -0.3049
 7851SOL    HW123943   6.245   0.973   2.356  2.3048 -0.9034  0.2772
 7851SOL    HW223944   6.276   1.022   2.496  1.8442 -2.9019  1.1249
 7852SOL     OW23945   2.787   4.809   4.809  0.1641  0.3135 -0.2634
 7852SOL    HW123946   2.719   4.858   4.855 -0.9257 -1.8384  0.5700
 7852SOL    HW223947   2.868   4.855   4.831 -0.6762  1.1858  1.2220
 7853SOL     OW23948   1.114   2.083   2.803 -0.1089  0.4538  1.0733
 7853SOL    HW123949   1.176   2.074   2.876  0.5668  0.1624  0.4758
 7853SOL    HW223950   1.081   1.994   2.789  2.9476 -0.4437 -1.6885
 7854SOL     OW23951   4.342   5.589   3.837 -0.5042 -0.0574 -0.2216
 7854SOL    HW123952   4.366   5.671   3.794 -0.4967 -0.2482 -0.5895
 7854SOL    HW223953   4.375   5.521   3.777 -4.6796 -0.4449 -2.4758
 7855SOL     OW23954   0.610   6.790   5.517  0.0105  0.0269 -0.2159
 7855SOL    HW123955   0.539   6.727   5.503 -0.1995  0.5727 -1.8745
 7855SOL    HW223956   0.567   6.876   5.516  0.2103  0.2542  2.6227
 7856SOL     OW23957   3.956   2.615   5.655  0.8002 -0.2553 -0.0291
 7856SOL    HW123958   3.939   2.564   5.735 -0.3633 -0.1286 -0.1710
 7856SOL    HW223959   3.869   2.631   5.618  1.2929  0.1033 -1.0722
 7857SOL     OW23960   3.168   4.219   1.814 -0.7281 -0.0528 -0.0571
 7857SOL    HW123961   3.245   4.169   1.786 -0.7296 -0.4921  0.6809
 7857SOL    HW223962   3.183   4.307   1.781 -0.1591 -0.2609 -0.3705
 7858SOL     OW23963   4.667   0.294   1.750 -0.0464  0.1785 -0.3255
 7858SOL    HW123964   4.627   0.275   1.665 -1.7544  0.8876  0.2710
 7858SOL    HW223965   4.754   0.328   1.730 -0.6260  0.8352 -1.8100
 7859SOL     OW23966   4.583   3.270   5.334 -0.0056 -0.4119 -0.1399
 7859SOL    HW123967   4.532   3.201   5.290  1.0302 -1.1152 -0.2932
 7859SOL    HW223968   4.547   3.274   5.422 -0.3509 -0.8679 -0.2555
 7860SOL     OW23969   6.394   5.377   2.107  0.2570  0.0220  0.4129
 7860SOL    HW123970   6.384   5.460   2.059  2.4660 -0.0725 -0.3321
 7860SOL    HW223971   6.356   5.311   2.049  1.0285  0.1799 -0.2918
 7861SOL     OW23972   1.838   1.429   2.837  0.0940 -0.2287  0.0184
 7861SOL    HW123973   1.779   1.504   2.837  0.5064  0.1169  1.0518
 7861SOL    HW223974   1.919   1.461   2.798  0.4560  0.0415  0.9544
 7862SOL     OW23975   3.590   0.143   0.569  0.6867  0.3667  0.0812
 7862SOL    HW123976   3.561   0.127   0.659 -0.2554 -1.8682 -0.5717
 7862SOL    HW223977   3.685   0.132   0.573  1.0360  3.0149  1.2796
 7863SOL     OW23978   6.691   4.569   2.256 -0.0617  0.5056 -0.1304
 7863SOL    HW123979   6.619   4.568   2.193 -1.1241 -0.1833  1.0333
 7863SOL    HW223980   6.691   4.481   2.294  0.7059  0.8204  0.6408
 7864SOL     OW23981   4.629   1.856   5.353 -0.4862  0.3974 -0.2644
 7864SOL    HW123982   4.637   1.764   5.380 -2.7995  0.7597  2.1115
 7864SOL    HW223983   4.538   1.864   5.323 -0.4565  2.0065 -0.0171
 7865SOL     OW23984   0.541   6.671   1.524 -0.3129 -0.1065 -0.2608
 7865SOL    HW123985   0.589   6.752   1.544 -2.7011  1.8014 -1.6398
 7865SOL    HW223986   0.545   6.664   1.428  0.6761 -2.2344 -0.1085
 7866SOL     OW23987   4.275   4.390   3.096 -0.5901 -0.4743 -0.3034
 7866SOL    HW123988   4.217   4.455   3.057  0.2047 -0.2011 -1.0708
 7866SOL    HW223989   4.360   4.433   3.100  0.2662 -1.8585 -2.0410
 7867SOL     OW23990   6.632   2.295   3.640 -0.1497 -0.2856  0.0116
 7867SOL    HW123991   6.538   2.311   3.634 -0.1793  0.1472  1.3204
 7867SOL    HW223992   6.640   2.221   3.700  0.3458 -0.1701  0.0924
 7868SOL     OW23993   5.472   4.038   2.817 -0.1543 -0.1919  0.2649
 7868SOL    HW123994   5.381   4.015   2.799 -1.1067  3.1939  0.0605
 7868SOL    HW223995   5.521   3.997   2.746 -1.6776 -1.1169 -0.3135
 7869SOL     OW23996   1.160   5.976   3.220 -0.1683  0.3405  0.2856
 7869SOL    HW123997   1.215   5.901   3.243 -0.0963 -0.3165 -1.8543
 7869SOL    HW223998   1.214   6.052   3.239 -0.4123 -0.0273  2.9649
 7870SOL     OW23999   3.814   6.388   1.262  0.2116  0.3950 -0.0972
 7870SOL    HW124000   3.770   6.442   1.328 -0.3944  0.7006 -0.7352
 7870SOL    HW224001   3.766   6.305   1.265  0.8865  0.0232  0.6037
 7871SOL     OW24002   0.597   3.413   4.852 -0.0800 -0.4158  0.5746
 7871SOL    HW124003   0.633   3.420   4.940  0.9034  1.8813  0.0697
 7871SOL    HW224004   0.672   3.392   4.797 -0.4646 -0.6760  0.1411
 7872SOL     OW24005   0.927   1.451   0.934  0.2737  0.0884 -0.2265
 7872SOL    HW124006   0.861   1.507   0.893  0.1095  0.9067  1.0876
 7872SOL    HW224007   1.006   1.505   0.936  0.5404 -0.2967 -0.3311
 7873SOL     OW24008   5.122   2.393   2.142 -0.9728 -0.9124  0.6529
 7873SOL    HW124009   5.106   2.350   2.226  0.3921  0.0492  1.4463
 7873SOL    HW224010   5.209   2.364   2.117 -0.6174  0.2464  0.4960
 7874SOL     OW24011   4.652   1.795   2.016  0.4093 -0.0990 -0.3926
 7874SOL    HW124012   4.692   1.845   2.087  1.9379 -0.7658 -0.7441
 7874SOL    HW224013   4.635   1.860   1.947 -0.9662  0.5284  0.4809
 7875SOL     OW24014   6.191   4.447   2.841  0.1433  0.2418  0.4842
 7875SOL    HW124015   6.161   4.538   2.841 -1.6540 -0.3308  0.6117
 7875SOL    HW224016   6.286   4.454   2.855  0.3786  2.1923 -1.4733
 7876SOL     OW24017   3.622   5.030   0.773 -0.3130 -0.5657  0.2587
 7876SOL    HW124018   3.624   5.117   0.813 -1.2682 -0.7011  0.6320
 7876SOL    HW224019   3.649   5.044   0.682 -0.7880  0.1709  0.2297
 7877SOL     OW24020   4.742   0.436   2.546  0.0188 -0.7040  0.1455
 7877SOL    HW124021   4.800   0.469   2.478 -0.1312  0.5027  0.5879
 7877SOL    HW224022   4.745   0.340   2.535  1.8467 -0.6637 -0.0090
 7878SOL     OW24023   4.913   2.465   1.972 -0.1955  0.2235 -0.1572
 7878SOL    HW124024   4.984   2.445   2.033 -1.6144 -1.6146  0.9929
 7878SOL    HW224025   4.947   2.439   1.886 -0.1458 -2.6366  0.6393
 7879SOL     OW24026   5.292   4.105   6.380 -0.0125 -0.2525  0.2236
 7879SOL    HW124027   5.299   4.010   6.387  0.1257 -0.2487  0.1464
 7879SOL    HW224028   5.225   4.130   6.444 -0.2560 -0.4314  0.0422
 7880SOL     OW24029   4.843   4.255   4.095  0.0075  0.0743  0.4148
 7880SOL    HW124030   4.854   4.259   4.000 -1.0279  1.2344  0.3108
 7880SOL    HW224031   4.828   4.163   4.114 -3.5361  0.1702 -1.0671
 7881SOL     OW24032   4.072   0.934   5.438 -0.1988 -0.1473 -0.6723
 7881SOL    HW124033   4.038   0.881   5.366 -0.2683 -0.0442 -0.7157
 7881SOL    HW224034   4.015   1.011   5.440  0.3350  0.2626 -1.0559
 7882SOL     OW24035   6.237   6.354   2.843  0.2698 -0.8196  0.1379
 7882SOL    HW124036   6.156   6.354   2.794  0.2284  2.9171 -0.0500
 7882SOL    HW224037   6.296   6.410   2.793  1.7210 -0.4980  2.0740
 7883SOL     OW24038   4.755   1.340   1.956  1.0448  0.2167  0.4775
 7883SOL    HW124039   4.666   1.374   1.953  0.5048 -1.1418  0.5929
 7883SOL    HW224040   4.761   1.279   1.883  1.0030 -1.6831  1.9558
 7884SOL     OW24041   5.648   1.053   3.567 -0.2675  0.6051 -0.1928
 7884SOL    HW124042   5.701   1.056   3.647  1.5617  0.2020 -1.3148
 7884SOL    HW224043   5.577   0.992   3.588  1.0873 -0.7572  0.6398
 7885SOL     OW24044   2.391   1.297   6.075 -0.3958 -0.3983 -0.5746
 7885SOL    HW124045   2.362   1.381   6.111 -0.9763  0.0304 -1.9848
 7885SOL    HW224046   2.378   1.235   6.146  0.0973  0.6959  0.5192
 7886SOL     OW24047   4.859   3.632   5.733 -0.4580 -0.3698  0.3207
 7886SOL    HW124048   4.871   3.567   5.664  0.5189  0.6975 -0.5403
 7886SOL    HW224049   4.858   3.581   5.814 -0.8275 -1.5590 -0.4096
 7887SOL     OW24050   4.136   6.612   3.387 -0.5075 -0.6252  0.3002
 7887SOL    HW124051   4.159   6.705   3.384  0.4702 -0.6902  3.0861
 7887SOL    HW224052   4.041   6.611   3.402 -0.3507 -0.0199  1.4122
 7888SOL     OW24053   3.232   1.992   2.309  0.8112 -0.1818  0.6869
 7888SOL    HW124054   3.239   2.022   2.218 -0.8082  0.1777  0.6568
 7888SOL    HW224055   3.219   1.897   2.302  1.3836 -0.2590  0.5888
 7889SOL     OW24056   2.049   4.770   1.702 -0.3752 -0.2157 -0.1014
 7889SOL    HW124057   1.959   4.761   1.670 -0.1975  0.0575 -0.7012
 7889SOL    HW224058   2.072   4.861   1.683 -0.3359  0.0226  1.0319
 7890SOL     OW24059   5.194   2.868   5.677 -0.0693 -0.2132 -0.1677
 7890SOL    HW124060   5.203   2.882   5.771  0.1348 -0.2078 -0.1855
 7890SOL    HW224061   5.200   2.774   5.666  2.2389 -0.1033 -0.3809
 7891SOL     OW24062   6.730   0.541   1.970 -0.0732  0.2763  0.2208
 7891SOL    HW124063   6.751   0.485   2.045 -0.2027  1.2875  1.0421
 7891SOL    HW224064   6.763   0.627   1.995  0.1238  0.5724 -1.0148
 7892SOL     OW24065   0.038   4.827   2.721 -0.2948 -0.2513  0.1832
 7892SOL    HW124066  -0.037   4.769   2.708  1.1180 -2.1835  0.2180
 7892SOL    HW224067   0.078   4.797   2.802  0.9847  0.2053 -0.2574
 7893SOL     OW24068   5.854   3.325   5.763  0.5801 -0.1110 -0.1876
 7893SOL    HW124069   5.939   3.338   5.804  0.5527 -1.2168  0.2723
 7893SOL    HW224070   5.798   3.292   5.833  0.3758 -1.4995 -0.9450
 7894SOL     OW24071   3.550   6.078   4.746 -0.7894 -0.1547  0.0517
 7894SOL    HW124072   3.560   6.021   4.822 -2.0000 -1.7859 -0.9452
 7894SOL    HW224073   3.524   6.162   4.784  0.0017 -0.5170  1.5050
 7895SOL     OW24074   3.685   0.965   4.797 -0.2214  0.0547 -0.3764
 7895SOL    HW124075   3.711   0.886   4.749 -0.1559  0.8333 -1.6455
 7895SOL    HW224076   3.762   0.986   4.850 -0.4716 -1.0948  0.4895
 7896SOL     OW24077   6.514   6.664   2.877 -0.6124  0.1335  0.0302
 7896SOL    HW124078   6.561   6.582   2.866 -1.2912 -0.0565 -1.7242
 7896SOL    HW224079   6.482   6.661   2.967  0.5790 -0.8510  0.4538
 7897SOL     OW24080   3.653   3.024   0.808  0.4760 -0.8095  0.4242
 7897SOL    HW124081   3.575   3.054   0.761  1.6684  2.8760  0.5385
 7897SOL    HW224082   3.695   2.963   0.747 -1.1705 -0.9235 -0.6655
 7898SOL     OW24083   6.422   5.496   0.594  0.4908 -0.0159 -0.3212
 7898SOL    HW124084   6.506   5.527   0.561 -0.1767 -0.8162 -2.9721
 7898SOL    HW224085   6.358   5.529   0.532 -1.1231 -0.0743  1.2178
 7899SOL     OW24086   4.646   4.428   0.868 -1.0939  0.1854 -0.1265
 7899SOL    HW124087   4.586   4.485   0.820 -0.9023 -1.4395 -2.4908
 7899SOL    HW224088   4.600   4.344   0.872 -0.2043 -0.2869  0.7454
 7900SOL     OW24089   5.682   3.809   1.960 -0.3737  0.5448 -0.0365
 7900SOL    HW124090   5.709   3.717   1.961  0.7055  0.8163 -1.2282
 7900SOL    HW224091   5.639   3.822   2.044 -1.8144 -1.4146 -0.3805
 7901SOL     OW24092   0.248   1.421   4.732 -0.0057  0.8652 -0.4526
 7901SOL    HW124093   0.335   1.457   4.749 -0.3069  0.8697  1.1634
 7901SOL    HW224094   0.188   1.494   4.747 -0.2351  1.4485 -3.5113
 7902SOL     OW24095   4.783   3.022   0.359  0.0991 -0.5703  0.2706
 7902SOL    HW124096   4.789   2.926   0.363  0.4127 -0.5910 -0.5407
 7902SOL    HW224097   4.833   3.046   0.281 -0.9113  0.1781 -0.1634
 7903SOL     OW24098   4.056   2.208   0.101 -0.5172 -0.0193 -0.1701
 7903SOL    HW124099   4.027   2.166   0.020  0.4431  1.3104 -1.2654
 7903SOL    HW224100   4.106   2.284   0.071 -0.1601  0.5228  1.6911
 7904SOL     OW24101   0.526   5.640   2.627 -0.0032 -0.0571  0.5070
 7904SOL    HW124102   0.610   5.616   2.665  0.6025  1.4409  0.2046
 7904SOL    HW224103   0.543   5.723   2.582 -1.1209 -0.8203 -1.4528
 7905SOL     OW24104   1.168   5.552   4.756 -0.1373  0.1609  0.8177
 7905SOL    HW124105   1.172   5.579   4.847 -2.0640  0.5916  0.8188
 7905SOL    HW224106   1.111   5.475   4.755  0.1916 -0.0945  0.0149
 7906SOL     OW24107   2.662   1.406   0.890 -0.0707  0.2193 -0.5255
 7906SOL    HW124108   2.673   1.501   0.893 -0.6793  0.3035 -0.8525
 7906SOL    HW224109   2.711   1.378   0.813  1.6317  0.0367  0.5706
 7907SOL     OW24110   4.411   3.369   0.491 -0.5548  0.7415  0.1660
 7907SOL    HW124111   4.465   3.393   0.566 -0.7224 -0.8353  0.8068
 7907SOL    HW224112   4.468   3.315   0.436 -1.1712 -0.1058  0.3529
 7908SOL     OW24113   0.548   1.372   5.015 -0.0917 -0.3718 -0.0867
 7908SOL    HW124114   0.546   1.405   4.925  2.7605 -0.9998 -0.4827
 7908SOL    HW224115   0.604   1.434   5.062 -2.3404  0.5277  1.6121
 7909SOL     OW24116   0.403   6.077   3.512  0.3567 -0.0626  0.3169
 7909SOL    HW124117   0.323   6.090   3.564  0.2471  0.6429 -0.0095
 7909SOL    HW224118   0.474   6.091   3.574  0.2427 -1.4951  0.8026
 7910SOL     OW24119   5.943   6.484   0.049  0.2452  0.2328 -0.5622
 7910SOL    HW124120   5.977   6.401   0.082 -0.0689 -0.1864 -1.2735
 7910SOL    HW224121   6.013   6.547   0.068  1.4402 -0.6045 -1.9523
 7911SOL     OW24122   5.588   6.010   0.548  0.6591 -0.2905  0.3539
 7911SOL    HW124123   5.500   6.002   0.586  0.9743 -0.5693  1.0439
 7911SOL    HW224124   5.590   6.097   0.509  0.0106 -0.3557  0.1534
 7912SOL     OW24125   0.587   0.748   6.312 -0.6530 -0.1987 -0.3399
 7912SOL    HW124126   0.562   0.738   6.404 -0.2386 -1.1373 -0.3163
 7912SOL    HW224127   0.631   0.833   6.309 -0.5425 -0.2202  0.3685
 7913SOL     OW24128   0.279   5.606   3.654  0.4144 -0.1804  0.1188
 7913SOL    HW124129   0.231   5.587   3.735  0.5971 -0.9295  0.0579
 7913SOL    HW224130   0.214   5.594   3.585  0.3922 -0.0432  0.1147
 7914SOL     OW24131   6.206   4.924   5.176  0.3089 -0.1206  0.4588
 7914SOL    HW124132   6.280   4.959   5.225 -0.2569  0.2588  1.0601
 7914SOL    HW224133   6.133   4.927   5.238  0.2855 -2.6410  0.6426
 7915SOL     OW24134   0.609   6.541   4.179  0.3868 -0.5846  0.4377
 7915SOL    HW124135   0.680   6.561   4.118  0.0433 -1.6539 -0.3496
 7915SOL    HW224136   0.565   6.625   4.192 -0.4903 -0.5537 -2.0656
 7916SOL     OW24137   1.461   0.066   3.271  0.5948 -0.1881 -0.0788
 7916SOL    HW124138   1.510   0.109   3.201 -0.5246 -0.2182 -0.9197
 7916SOL    HW224139   1.477   0.119   3.349  2.2291 -0.4113 -0.2308
 7917SOL     OW24140   0.463   3.716   4.844  0.4936  0.0427 -0.0070
 7917SOL    HW124141   0.502   3.653   4.906 -1.6553 -1.2450  0.1245
 7917SOL    HW224142   0.436   3.790   4.899  1.0973  0.1608  0.1472
 7918SOL     OW24143   0.547   1.782   0.905 -0.5512  0.4868  0.3990
 7918SOL    HW124144   0.507   1.738   0.830  2.2665  1.4117 -1.8245
 7918SOL    HW224145   0.549   1.874   0.881 -0.0811  0.8937  1.8840
 7919SOL     OW24146   0.068   5.556   3.823  0.1100 -0.8761 -0.5411
 7919SOL    HW124147   0.024   5.479   3.788  0.1227 -0.2746 -1.9553
 7919SOL    HW224148  -0.004   5.617   3.841  0.1670 -0.8869 -0.2765
 7920SOL     OW24149   2.932   5.225   4.911  0.0162 -0.0525  0.1761
 7920SOL    HW124150   2.847   5.252   4.945 -0.4296  1.7039 -2.0937
 7920SOL    HW224151   2.996   5.267   4.968 -0.6845  1.4634 -0.1019
 7921SOL     OW24152   1.280   5.921   5.243 -0.0890 -0.0822  0.6500
 7921SOL    HW124153   1.248   5.917   5.153 -0.4773  0.8895  0.7381
 7921SOL    HW224154   1.223   5.860   5.291  0.5544 -1.1205  0.1292
 7922SOL     OW24155   3.892   6.068   6.073 -0.1390  0.8676  0.0647
 7922SOL    HW124156   3.836   6.116   6.135 -0.2986  0.6675  0.0775
 7922SOL    HW224157   3.872   6.106   5.988 -0.6613  0.4648  0.0019
 7923SOL     OW24158   6.064   4.374   3.999  0.1947 -0.2197 -0.3321
 7923SOL    HW124159   5.973   4.342   4.004  0.6840 -1.8994 -1.1421
 7923SOL    HW224160   6.105   4.344   4.080  0.8803 -2.5899 -1.4637
 7924SOL     OW24161   1.703   1.829   6.106  0.3544  0.1107  0.1183
 7924SOL    HW124162   1.660   1.745   6.092  1.0861 -0.2184 -0.1958
 7924SOL    HW224163   1.754   1.818   6.186 -0.6693  0.7234  0.8841
 7925SOL     OW24164   0.994   5.797   1.298  0.4740 -0.2472  0.3158
 7925SOL    HW124165   1.088   5.787   1.285  0.8059 -1.3254  2.8701
 7925SOL    HW224166   0.955   5.729   1.243  1.0954  0.6605 -1.3109
 7926SOL     OW24167   3.578   0.939   3.246  0.4687 -0.4762  0.5554
 7926SOL    HW124168   3.510   0.872   3.240  0.2286 -0.2644  0.8368
 7926SOL    HW224169   3.660   0.891   3.247  0.2444 -0.8741  2.4648
 7927SOL     OW24170   3.706   3.358   6.552 -0.5397 -0.5432 -0.2042
 7927SOL    HW124171   3.749   3.443   6.547 -0.3001 -0.6265  0.3068
 7927SOL    HW224172   3.768   3.297   6.511 -0.2254 -0.6378  0.3912
 7928SOL     OW24173   3.260   5.684   5.235  0.3129 -0.4972 -0.4309
 7928SOL    HW124174   3.337   5.627   5.230 -0.5667 -1.6661 -1.3576
 7928SOL    HW224175   3.293   5.771   5.211  1.3566 -0.9612 -0.7310
 7929SOL     OW24176   5.695   1.241   1.929 -0.0283  0.2291 -0.3178
 7929SOL    HW124177   5.641   1.244   2.008  2.1276 -1.6504  1.3867
 7929SOL    HW224178   5.777   1.284   1.955 -0.0878  1.6975 -2.3436
 7930SOL     OW24179   6.753   2.973   2.026 -0.1570 -0.0779  0.0438
 7930SOL    HW124180   6.801   2.893   2.004 -0.5295 -1.1024  2.6016
 7930SOL    HW224181   6.664   2.943   2.044 -0.8063  1.2367 -0.8947
 7931SOL     OW24182   4.622   6.595   1.386  0.0366 -0.2204 -0.0412
 7931SOL    HW124183   4.622   6.503   1.360 -2.4385 -0.1821 -0.4299
 7931SOL    HW224184   4.713   6.614   1.408  0.7178 -2.5737 -0.5643
 7932SOL     OW24185   6.541   4.418   3.929 -0.2342  0.3306  0.1710
 7932SOL    HW124186   6.519   4.335   3.972  0.5135  0.4985  0.8895
 7932SOL    HW224187   6.508   4.485   3.988 -0.4420  0.5555 -0.1964
 7933SOL     OW24188   2.529   3.823   2.541  0.1457 -0.1416 -0.7062
 7933SOL    HW124189   2.459   3.852   2.483 -0.2998 -0.9948 -0.6019
 7933SOL    HW224190   2.585   3.769   2.486  1.5245  1.6228 -1.1608
 7934SOL     OW24191   1.310   5.780   4.276 -0.1220 -0.1895  0.3262
 7934SOL    HW124192   1.314   5.694   4.316  1.0498 -1.0439 -1.5104
 7934SOL    HW224193   1.218   5.791   4.250 -0.4627 -0.4702  1.3891
 7935SOL     OW24194   6.784   1.597   2.976 -0.3476  0.3592  0.3290
 7935SOL    HW124195   6.857   1.627   2.922 -0.0262 -1.2162 -0.1868
 7935SOL    HW224196   6.788   1.650   3.055  3.2328 -1.5373  1.6559
 7936SOL     OW24197   5.036   4.679   3.704 -0.2162 -0.1647  0.0945
 7936SOL    HW124198   5.037   4.605   3.644  0.0618 -0.7007  0.7424
 7936SOL    HW224199   5.079   4.750   3.656  1.4655 -1.0477  0.2198
 7937SOL     OW24200   0.168   5.320   6.775  0.0215 -0.2518  0.8767
 7937SOL    HW124201   0.190   5.234   6.741 -0.2775 -0.1102  0.3308
 7937SOL    HW224202   0.253   5.365   6.782  0.2787 -0.8507  1.9225
 7938SOL     OW24203   1.830   2.525   4.278  0.8998 -0.0387  0.4418
 7938SOL    HW124204   1.738   2.498   4.274  1.1563 -0.7542 -2.1630
 7938SOL    HW224205   1.827   2.617   4.302 -0.5741  0.2364 -0.6589
 7939SOL     OW24206   1.340   2.027   0.139  0.2642 -0.7223  0.0131
 7939SOL    HW124207   1.264   2.071   0.176  0.0910 -0.9692 -0.0488
 7939SOL    HW224208   1.414   2.060   0.190  0.1177 -0.4697  0.0613
 7940SOL     OW24209   3.068   3.489   5.534 -0.4742 -0.7083  0.4012
 7940SOL    HW124210   3.107   3.577   5.535 -0.2606 -0.7642 -0.9486
 7940SOL    HW224211   3.114   3.442   5.604 -0.2762  0.1132  0.8399
 7941SOL     OW24212   4.594   4.354   4.776  0.0925  0.4680  0.6251
 7941SOL    HW124213   4.618   4.268   4.810 -0.5081 -0.6202 -1.4942
 7941SOL    HW224214   4.668   4.379   4.720 -0.4655  0.5056 -0.1160
 7942SOL     OW24215   0.193   5.008   3.426  0.1434  0.2447 -0.2342
 7942SOL    HW124216   0.264   4.966   3.377 -0.0239  0.9553 -1.1083
 7942SOL    HW224217   0.231   5.090   3.457  0.3308 -0.3074  1.0842
 7943SOL     OW24218   4.900   5.100   5.585  0.3998 -0.3358 -0.4165
 7943SOL    HW124219   4.836   5.037   5.618 -0.0801 -0.0455 -0.7764
 7943SOL    HW224220   4.984   5.069   5.619  0.0457 -0.6044  0.2349
 7944SOL     OW24221   3.229   6.056   2.602  0.0932  0.4125 -0.5446
 7944SOL    HW124222   3.315   6.098   2.603 -0.1503  0.9326 -0.9835
 7944SOL    HW224223   3.196   6.069   2.691  0.0747  1.0545 -0.6369
 7945SOL     OW24224   5.901   3.182   0.365  0.3043  0.6766  0.3262
 7945SOL    HW124225   5.879   3.161   0.274  0.6694  0.1055  0.3596
 7945SOL    HW224226   5.837   3.134   0.417  1.6835 -1.1844  0.4301
 7946SOL     OW24227   4.898   0.765   2.344 -0.1931 -0.2155 -0.0190
 7946SOL    HW124228   4.813   0.783   2.384 -0.4530 -0.9878 -0.2033
 7946SOL    HW224229   4.898   0.670   2.331  1.1702 -0.3903  1.0576
 7947SOL     OW24230   3.745   6.740   6.703  0.0386  0.0998  0.3496
 7947SOL    HW124231   3.730   6.674   6.770  0.1122 -1.2144 -0.8749
 7947SOL    HW224232   3.669   6.799   6.710 -0.6190 -0.7643  0.7377
 7948SOL     OW24233   6.157   0.684   0.745  0.3686 -0.1578  0.0302
 7948SOL    HW124234   6.145   0.728   0.829  1.1201  0.0597  0.0262
 7948SOL    HW224235   6.217   0.612   0.764 -0.9286 -1.2896  0.0628
 7949SOL     OW24236   4.050   1.792   1.085 -0.5618  0.2421 -0.3977
 7949SOL    HW124237   3.996   1.797   1.006  1.0070 -2.9866 -1.8684
 7949SOL    HW224238   4.137   1.770   1.054  0.3099 -0.4179  2.2042
 7950SOL     OW24239   5.978   3.778   4.171  0.2870  0.0111  0.1627
 7950SOL    HW124240   5.910   3.777   4.103  0.9799  0.1011 -0.5501
 7950SOL    HW224241   5.984   3.869   4.198  0.6452  0.1277 -0.3097
 7951SOL     OW24242   1.130   5.606   5.041 -0.0691 -0.1690 -0.1956
 7951SOL    HW124243   1.048   5.655   5.034 -0.4955 -0.7002  0.9187
 7951SOL    HW224244   1.176   5.646   5.115  0.5624 -0.0576 -0.6365
 7952SOL     OW24245   2.981   4.710   5.880  0.7957  0.0852 -0.5259
 7952SOL    HW124246   3.041   4.680   5.812  0.0002 -2.3376 -0.2559
 7952SOL    HW224247   2.898   4.722   5.835  0.7542  0.4629 -0.3494
 7953SOL     OW24248   0.052   3.144   0.204  0.2804 -0.5655  0.7571
 7953SOL    HW124249   0.141   3.128   0.175  0.3201  1.9922 -0.8178
 7953SOL    HW224250   0.042   3.239   0.202 -2.0190 -0.6776  2.3855
 7954SOL     OW24251   4.680   2.123   5.053  0.1652  0.3334 -0.5244
 7954SOL    HW124252   4.698   2.175   5.132  0.2943 -0.6316  0.1073
 7954SOL    HW224253   4.760   2.073   5.039 -0.9128 -1.9179  0.6729
 7955SOL     OW24254   1.316   1.594   4.411  0.4271  0.1869 -0.4240
 7955SOL    HW124255   1.334   1.658   4.342  0.0519  1.5712  0.7049
 7955SOL    HW224256   1.222   1.601   4.426  0.3741 -0.6912 -0.3381
 7956SOL     OW24257   1.054   5.333   3.081  0.5673  0.2023 -0.2330
 7956SOL    HW124258   1.133   5.285   3.057 -0.4565 -1.3832 -0.5308
 7956SOL    HW224259   1.078   5.425   3.067  1.8745 -0.3201 -1.7924
 7957SOL     OW24260   5.895   0.479   6.441 -0.1699  0.2671 -0.1489
 7957SOL    HW124261   5.842   0.489   6.362 -0.2424 -1.0504 -0.2883
 7957SOL    HW224262   5.983   0.506   6.414 -0.1989 -0.1589 -0.6794
 7958SOL     OW24263   5.726   0.353   0.398  0.5505 -0.0773  0.5368
 7958SOL    HW124264   5.689   0.344   0.310  0.0224 -0.0207  0.7477
 7958SOL    HW224265   5.812   0.392   0.384  0.6344 -0.4451  0.0152
 7959SOL     OW24266   3.526   4.603   6.269  0.0801  0.1610  0.5909
 7959SOL    HW124267   3.608   4.594   6.316  0.7086 -1.8585 -0.7451
 7959SOL    HW224268   3.464   4.548   6.317  0.1936 -0.2983  0.2246
 7960SOL     OW24269   5.212   0.424   4.102  0.0291  0.2160  0.1029
 7960SOL    HW124270   5.242   0.337   4.130 -0.3554  0.0821  0.0976
 7960SOL    HW224271   5.258   0.439   4.019 -2.1469 -1.2731 -1.4694
 7961SOL     OW24272   3.539   6.490   3.475 -0.5508 -0.0598  0.5703
 7961SOL    HW124273   3.612   6.462   3.530 -0.2077 -0.0187  0.1413
 7961SOL    HW224274   3.569   6.476   3.386  0.4059  3.2947  0.1968
 7962SOL     OW24275   4.767   0.512   0.304 -0.0482  0.0462 -0.0137
 7962SOL    HW124276   4.839   0.498   0.243  1.1021 -0.8314  1.4768
 7962SOL    HW224277   4.755   0.607   0.306  0.9279  0.1869 -0.4223
 7963SOL     OW24278   0.346   1.772   5.762 -0.3328 -0.6681  0.3401
 7963SOL    HW124279   0.342   1.788   5.856 -0.2970  0.2728  0.1911
 7963SOL    HW224280   0.263   1.805   5.729 -0.8925 -2.1647  0.1928
 7964SOL     OW24281   2.403   2.615   2.211  0.3617 -0.1045  0.3108
 7964SOL    HW124282   2.328   2.660   2.249 -1.4437 -1.1467 -1.7429
 7964SOL    HW224283   2.466   2.684   2.191 -1.2814  1.2153 -0.5379
 7965SOL     OW24284   2.154   5.650   0.960  0.2318 -0.3713 -0.3569
 7965SOL    HW124285   2.197   5.585   1.017  1.5215  1.5573  1.0138
 7965SOL    HW224286   2.131   5.601   0.881 -1.8180 -3.2583  1.8195
 7966SOL     OW24287   6.658   6.347   4.202 -0.3401 -0.2215 -0.0565
 7966SOL    HW124288   6.601   6.294   4.258 -3.4251  2.4189 -0.4473
 7966SOL    HW224289   6.677   6.425   4.254  1.7940 -0.3495 -0.5455
 7967SOL     OW24290   1.725   2.756   0.076  0.4871 -0.2859  0.3224
 7967SOL    HW124291   1.659   2.706   0.125 -1.1202  0.8937 -0.5267
 7967SOL    HW224292   1.706   2.738  -0.016  1.4891 -0.0655  0.0587
 7968SOL     OW24293   1.169   1.187   0.714  0.0563 -0.1837 -0.1272
 7968SOL    HW124294   1.246   1.157   0.665  0.1468  0.8148 -0.6112
 7968SOL    HW224295   1.185   1.279   0.730 -0.6916 -0.1481  0.4520
 7969SOL     OW24296   4.279   3.746   5.654 -0.0760  0.6562  0.6242
 7969SOL    HW124297   4.297   3.837   5.633  1.2147  0.4958  0.9579
 7969SOL    HW224298   4.361   3.713   5.689 -0.3583 -0.7957 -0.0167
 7970SOL     OW24299   1.481   3.082   5.808 -0.0232  0.1444 -0.1735
 7970SOL    HW124300   1.447   3.064   5.895 -0.8564  1.7191 -0.1548
 7970SOL    HW224301   1.527   3.165   5.816 -0.0920  0.3024 -1.2314
 7971SOL     OW24302   2.543   4.761   1.363  0.1909 -0.3121  0.0561
 7971SOL    HW124303   2.538   4.848   1.403  0.8002  0.5451 -1.6111
 7971SOL    HW224304   2.466   4.715   1.397  0.2985  0.5766  1.6102
 7972SOL     OW24305   5.371   0.510   1.776  0.2359 -0.4749  0.2794
 7972SOL    HW124306   5.432   0.562   1.829  0.1977  0.2982 -0.4071
 7972SOL    HW224307   5.428   0.453   1.724  0.3671  0.0177 -0.1251
 7973SOL     OW24308   5.809   2.527   5.087  0.4578  0.5506 -0.7002
 7973SOL    HW124309   5.798   2.484   5.002 -1.6242  0.0943 -0.2593
 7973SOL    HW224310   5.731   2.583   5.095  0.5024  0.4067  0.9871
 7974SOL     OW24311   2.453   0.502   2.729 -0.6066  0.5133 -0.3084
 7974SOL    HW124312   2.530   0.468   2.775 -0.9024  1.2295  0.7408
 7974SOL    HW224313   2.431   0.433   2.666  0.9899  0.3595 -0.7659
 7975SOL     OW24314   1.479   5.045   1.551 -0.8189 -0.4230  0.1603
 7975SOL    HW124315   1.537   5.020   1.479  0.1354 -1.0880  1.1185
 7975SOL    HW224316   1.447   5.132   1.527  3.5923  1.8277  1.2207
 7976SOL     OW24317   5.350   5.268   1.982  0.8296  0.2460 -0.1711
 7976SOL    HW124318   5.441   5.255   2.008  0.2273  0.3286  2.1872
 7976SOL    HW224319   5.326   5.354   2.019 -0.2299  0.1823 -0.6658
 7977SOL     OW24320   4.744   0.879   1.934 -0.0262 -0.4494 -0.4768
 7977SOL    HW124321   4.752   0.785   1.954  1.8684 -0.1201  0.5066
 7977SOL    HW224322   4.819   0.898   1.878  0.8012  0.8614  0.9935
 7978SOL     OW24323   5.926   1.152   4.725  0.1566 -0.2509 -0.3878
 7978SOL    HW124324   5.879   1.167   4.644  2.7353 -0.6329 -2.0834
 7978SOL    HW224325   5.897   1.066   4.754 -0.7404 -0.1431 -0.9275
 7979SOL     OW24326   4.364   4.131   2.880 -0.1762 -0.5772 -0.0324
 7979SOL    HW124327   4.451   4.148   2.917 -0.1769  0.3025 -0.4127
 7979SOL    HW224328   4.381   4.086   2.798 -0.1180 -1.0461  0.2286
 7980SOL     OW24329   5.722   0.041   3.297  0.3037  0.1170 -0.1194
 7980SOL    HW124330   5.781   0.113   3.319  0.0584 -0.4403  2.8108
 7980SOL    HW224331   5.636   0.071   3.326 -0.0853 -0.7196 -0.3894
 7981SOL     OW24332   3.059   0.754   1.414 -0.0163 -0.1469  0.0644
 7981SOL    HW124333   3.049   0.843   1.448  0.7860  0.3107 -0.8488
 7981SOL    HW224334   3.053   0.764   1.319  2.8006 -0.6319 -0.2417
 7982SOL     OW24335   4.960   5.578   2.458  0.6014  0.6639 -0.2096
 7982SOL    HW124336   5.019   5.561   2.385  0.6901 -0.9341  0.1777
 7982SOL    HW224337   5.018   5.590   2.533  0.6864 -4.4808  0.9520
 7983SOL     OW24338   3.700   2.100   0.028  0.0440  0.3827  0.2691
 7983SOL    HW124339   3.734   2.045  -0.042  2.5837  2.9530 -0.6867
 7983SOL    HW224340   3.744   2.068   0.107  1.1571  0.7274 -0.1991
 7984SOL     OW24341   2.072   1.322   5.934  0.0464 -0.1199 -0.3192
 7984SOL    HW124342   2.068   1.260   6.007 -0.1727 -0.4180 -0.5821
 7984SOL    HW224343   1.996   1.300   5.880 -0.4030  0.8067 -0.0786
 7985SOL     OW24344   1.041   4.420   6.309  0.3236  0.0432  0.1958
 7985SOL    HW124345   1.103   4.365   6.356 -1.4232 -1.8470  0.4707
 7985SOL    HW224346   1.075   4.423   6.219  1.4813  0.1818  0.6233
 7986SOL     OW24347   1.399   5.708   6.111  0.3022  0.2793  0.4921
 7986SOL    HW124348   1.351   5.690   6.030  1.1989 -2.6814  0.5088
 7986SOL    HW224349   1.364   5.646   6.174  2.0785  0.0578  1.3305
 7987SOL     OW24350   4.540   1.113   5.015  0.2819  0.2946  0.1043
 7987SOL    HW124351   4.500   1.123   5.102 -1.0155  3.4345 -0.7139
 7987SOL    HW224352   4.634   1.116   5.031  0.0722  0.0651  1.4818
 7988SOL     OW24353   2.549   4.652   6.698  0.0626 -0.2555 -0.5418
 7988SOL    HW124354   2.526   4.560   6.713  0.4723 -0.3142 -0.2637
 7988SOL    HW224355   2.489   4.701   6.754 -1.1896 -0.2636 -1.8112
 7989SOL     OW24356   2.056   0.939   5.495  0.3497 -0.0032  0.0301
 7989SOL    HW124357   2.046   0.857   5.543 -0.5621 -0.1579 -0.3946
 7989SOL    HW224358   2.002   0.927   5.417 -1.0945  1.5782  0.7268
 7990SOL     OW24359   5.641   2.975   4.946  0.3057 -0.2855  0.0607
 7990SOL    HW124360   5.722   2.980   4.895 -0.5488 -1.2385 -1.4655
 7990SOL    HW224361   5.622   3.065   4.970 -0.5496  0.6058 -3.4787
 7991SOL     OW24362   1.298   3.821   0.528  0.8675 -0.7462  0.1400
 7991SOL    HW124363   1.205   3.810   0.508  0.3183  1.4573  1.1493
 7991SOL    HW224364   1.343   3.802   0.446 -0.6280 -0.2182 -0.8443
 7992SOL     OW24365   2.960   4.601   4.012 -0.0863  0.3807  0.5157
 7992SOL    HW124366   3.026   4.602   4.082  0.6614  0.3958 -0.1751
 7992SOL    HW224367   2.980   4.522   3.962  0.0139  0.8911 -0.2590
 7993SOL     OW24368   0.644   2.539   2.716 -0.1642 -0.7965  0.0322
 7993SOL    HW124369   0.682   2.513   2.632 -1.3602 -0.4013 -0.6628
 7993SOL    HW224370   0.580   2.606   2.693 -0.9142 -1.0847  1.1920
 7994SOL     OW24371   5.109   1.123   5.904 -0.0320  0.7390  0.1753
 7994SOL    HW124372   5.024   1.115   5.948  0.4138  1.6530  1.2575
 7994SOL    HW224373   5.088   1.114   5.811 -1.1439 -0.2455  0.4903
 7995SOL     OW24374   5.960   0.469   3.543  0.0050 -0.0222  0.1532
 7995SOL    HW124375   5.970   0.562   3.563 -1.8521 -0.2798  2.9315
 7995SOL    HW224376   6.042   0.428   3.571  0.8190  0.7326 -1.0634
 7996SOL     OW24377   1.048   0.437   6.237  0.1858 -0.0309 -0.1194
 7996SOL    HW124378   1.122   0.434   6.177 -0.1367  0.1110 -0.5300
 7996SOL    HW224379   0.984   0.494   6.194 -0.7681 -1.3045 -0.4561
 7997SOL     OW24380   2.166   5.758   5.103 -0.1359  0.1715 -0.1848
 7997SOL    HW124381   2.163   5.846   5.141 -1.6518  0.3496 -0.6313
 7997SOL    HW224382   2.167   5.773   5.009  0.9985 -0.2919 -0.2561
 7998SOL     OW24383   1.565   2.851   2.791 -0.1320 -0.1852  0.3604
 7998SOL    HW124384   1.542   2.932   2.838  0.4111  0.4668 -0.4768
 7998SOL    HW224385   1.523   2.860   2.706 -0.4770 -1.0217  0.4338
 7999SOL     OW24386   2.913   2.785   3.150  0.4602 -0.3855  0.1482
 7999SOL    HW124387   3.007   2.782   3.167  0.4196 -0.9090  0.2720
 7999SOL    HW224388   2.898   2.874   3.116  1.0878 -0.4906 -0.4175
 8000SOL     OW24389   3.147   0.832   3.700  0.1717  0.1349  0.4896
 8000SOL    HW124390   3.140   0.852   3.607 -0.5148  2.1219  0.9215
 8000SOL    HW224391   3.183   0.743   3.703  3.0702  1.0976 -1.6175
 8001SOL     OW24392   2.238   3.196   5.228  0.2742  0.3031 -0.2583
 8001SOL    HW124393   2.283   3.255   5.289  1.4942 -1.0769  0.2503
 8001SOL    HW224394   2.308   3.160   5.174 -0.3308 -1.1664 -0.1105
 8002SOL     OW24395   1.249   5.743   1.250 -0.1097 -0.2645  0.0647
 8002SOL    HW124396   1.307   5.670   1.229 -0.6456 -0.1680 -1.9977
 8002SOL    HW224397   1.306   5.820   1.243  0.3582 -0.4156  1.8313
 8003SOL     OW24398   5.595   2.300   5.881  0.1318  0.1918 -0.0945
 8003SOL    HW124399   5.601   2.266   5.970  2.5226  0.4323 -0.1114
 8003SOL    HW224400   5.536   2.375   5.888 -0.3590 -0.2830  1.1108
 8004SOL     OW24401   5.962   5.336   0.033  0.1483 -0.3664  0.4266
 8004SOL    HW124402   6.001   5.257   0.071  1.0650  0.2452  0.7939
 8004SOL    HW224403   6.016   5.407   0.065 -1.8381  0.6459  1.6875
 8005SOL     OW24404   2.823   4.565   3.676  0.3436 -0.0915  0.2898
 8005SOL    HW124405   2.806   4.513   3.755  0.8626  1.1585  1.2514
 8005SOL    HW224406   2.821   4.656   3.706 -1.0832  0.4970 -1.4605
 8006SOL     OW24407   6.182   0.280   6.077  0.0489 -0.0319 -0.7634
 8006SOL    HW124408   6.181   0.221   6.002 -0.3697 -0.6949 -0.2413
 8006SOL    HW224409   6.271   0.315   6.079  0.7459 -1.7587 -0.2094
 8007SOL     OW24410   4.853   0.204   2.978 -0.7580  0.1134  0.2431
 8007SOL    HW124411   4.885   0.280   2.929 -1.0705 -0.1486 -0.3874
 8007SOL    HW224412   4.763   0.226   3.002 -1.0151 -0.2426 -0.3638
 8008SOL     OW24413   1.768   3.228   6.789 -0.8358 -0.2652 -0.4735
 8008SOL    HW124414   1.686   3.190   6.820 -2.3082  2.7054 -0.3938
 8008SOL    HW224415   1.745   3.316   6.760  1.7551 -0.3977 -3.5493
 8009SOL     OW24416   6.718   4.628   6.165 -0.2605  0.6269 -0.6109
 8009SOL    HW124417   6.774   4.680   6.107  2.4709 -2.3324 -0.9550
 8009SOL    HW224418   6.647   4.597   6.108  1.5759 -1.0417 -2.1452
 8010SOL     OW24419   5.864   5.684   3.680 -0.1918 -0.2624 -0.7670
 8010SOL    HW124420   5.892   5.775   3.695 -0.7066 -0.0104 -1.2799
 8010SOL    HW224421   5.918   5.655   3.606 -0.1906 -0.2955 -0.7531
 8011SOL     OW24422   1.768   4.094   5.506  0.2007  0.1171  0.4370
 8011SOL    HW124423   1.725   4.049   5.434  3.3067 -1.8398 -0.3432
 8011SOL    HW224424   1.801   4.175   5.467  0.7123 -0.2980  0.0011
 8012SOL     OW24425   6.562   3.168   3.205  0.2924 -0.8452  0.0335
 8012SOL    HW124426   6.500   3.157   3.276  0.2257 -0.6105  0.0144
 8012SOL    HW224427   6.561   3.085   3.158 -2.3441  0.1045 -1.8253
 8013SOL     OW24428   2.873   6.471   1.115  0.1034  0.3918 -0.1140
 8013SOL    HW124429   2.786   6.452   1.080  0.5339  1.5171 -1.8941
 8013SOL    HW224430   2.919   6.387   1.114 -0.4017  0.1229 -0.7964
 8014SOL     OW24431   0.595   4.872   2.639  0.2447  0.1147 -0.1083
 8014SOL    HW124432   0.565   4.918   2.718 -2.0188  0.0259 -0.8489
 8014SOL    HW224433   0.658   4.932   2.599  0.3791  0.7729  1.0172
 8015SOL     OW24434   1.969   2.409   2.772 -0.2227  0.0756 -0.0856
 8015SOL    HW124435   1.925   2.340   2.723  0.0296  0.4496 -0.8580
 8015SOL    HW224436   1.899   2.470   2.796 -0.5083 -0.6182  0.9326
 8016SOL     OW24437   5.276   0.792   2.173 -0.3641 -0.5312 -0.5051
 8016SOL    HW124438   5.335   0.794   2.098 -0.3980 -1.8326 -0.5925
 8016SOL    HW224439   5.188   0.791   2.135 -0.3857 -0.9377 -0.4507
 8017SOL     OW24440   2.062   2.233   5.539  0.6259 -0.1427 -0.3975
 8017SOL    HW124441   2.087   2.239   5.447  0.3401  0.0467 -0.4650
 8017SOL    HW224442   2.140   2.260   5.587  0.2182  1.5484 -0.6365
 8018SOL     OW24443   2.490   1.553   5.778  0.0708 -0.6950  0.0409
 8018SOL    HW124444   2.459   1.559   5.868 -0.7713  1.3950 -0.3297
 8018SOL    HW224445   2.419   1.508   5.732 -0.6816  0.5251 -0.0373
 8019SOL     OW24446   6.834   3.622   4.472 -0.0062  0.5948 -0.0486
 8019SOL    HW124447   6.743   3.599   4.488  0.0315 -0.1314 -0.8353
 8019SOL    HW224448   6.831   3.681   4.397  0.1203  1.1621  0.3808
 8020SOL     OW24449   6.499   4.858   4.520 -0.1216  0.5361 -0.0202
 8020SOL    HW124450   6.435   4.881   4.588 -0.2368  0.5940 -0.1482
 8020SOL    HW224451   6.581   4.895   4.551 -0.2910  1.0736 -0.1974
 8021SOL     OW24452   1.364   1.482   3.380 -0.2399 -0.3258 -0.3329
 8021SOL    HW124453   1.270   1.501   3.375 -0.0513  0.8420  0.1657
 8021SOL    HW224454   1.380   1.419   3.310 -1.4192 -0.6419 -0.3404
 8022SOL     OW24455   6.547   0.777   1.363  0.0941 -0.5124 -0.1088
 8022SOL    HW124456   6.504   0.817   1.288 -0.1997 -1.8454 -0.6820
 8022SOL    HW224457   6.633   0.819   1.367 -0.1685  0.0940 -0.7231
 8023SOL     OW24458   6.692   4.983   6.383  0.6061 -0.2955 -0.2700
 8023SOL    HW124459   6.736   4.901   6.406 -0.7658 -0.6792  1.1070
 8023SOL    HW224460   6.750   5.051   6.417  0.8338 -0.7433  0.2527
 8024SOL     OW24461   0.719   5.261   1.748 -0.0066  0.3324  0.0092
 8024SOL    HW124462   0.728   5.270   1.843  0.4090 -1.0021  0.1180
 8024SOL    HW224463   0.806   5.281   1.713  0.1416 -0.2720  0.0160
 8025SOL     OW24464   6.691   5.363   3.908  0.3438 -0.1130 -0.3089
 8025SOL    HW124465   6.736   5.346   3.826 -0.4130  1.0159 -0.9802
 8025SOL    HW224466   6.600   5.335   3.893  0.2154  0.0223  0.1732
 8026SOL     OW24467   4.037   6.479   2.824  0.3959  0.2569 -0.5567
 8026SOL    HW124468   4.089   6.429   2.888 -1.0090 -0.8771 -0.2591
 8026SOL    HW224469   4.063   6.442   2.739  0.0185 -0.3799 -0.4024
 8027SOL     OW24470   4.280   3.465   5.913  0.4483  0.2241 -0.3408
 8027SOL    HW124471   4.216   3.532   5.936  0.7335  0.3391  0.1119
 8027SOL    HW224472   4.259   3.443   5.822 -0.6180 -0.1651 -0.0179
 8028SOL     OW24473   4.557   3.367   1.432  0.4969 -0.1742  0.2360
 8028SOL    HW124474   4.585   3.276   1.426  1.7291  0.1151  1.1458
 8028SOL    HW224475   4.614   3.405   1.499  0.6154  1.4930 -0.7656
 8029SOL     OW24476   5.471   4.290   4.853 -0.4457 -0.1018  0.2225
 8029SOL    HW124477   5.379   4.264   4.850  0.0394 -1.8861 -2.1946
 8029SOL    HW224478   5.471   4.382   4.827 -1.5483 -0.1503 -0.0032
 8030SOL     OW24479   3.897   0.206   6.154  0.6027 -0.2229  0.4732
 8030SOL    HW124480   3.823   0.267   6.157  1.2179  0.5546  0.4468
 8030SOL    HW224481   3.909   0.178   6.245 -0.6337 -1.5139  0.2698
 8031SOL     OW24482   0.940   0.118   4.127 -0.1086 -0.2028 -0.5799
 8031SOL    HW124483   0.990   0.115   4.045  1.5509  1.5584  0.2867
 8031SOL    HW224484   1.002   0.151   4.192 -1.2798 -1.8492  1.5013
 8032SOL     OW24485   0.063   0.958   3.160  0.8064  0.3648 -0.6227
 8032SOL    HW124486   0.107   0.958   3.245  0.8149 -0.6724 -0.6040
 8032SOL    HW224487   0.093   1.038   3.117 -0.5721  1.8232  1.0123
 8033SOL     OW24488   5.394   4.129   4.442  0.3769  0.5252 -0.2260
 8033SOL    HW124489   5.366   4.201   4.499 -0.1068  0.1783 -0.0170
 8033SOL    HW224490   5.489   4.138   4.438  0.3104  1.2574 -0.3123
 8034SOL     OW24491   2.901   4.923   2.782  0.1758 -0.4488 -0.1208
 8034SOL    HW124492   2.983   4.890   2.745  0.2144 -1.4078  0.7843
 8034SOL    HW224493   2.837   4.911   2.711  0.8606  0.6552 -0.9683
 8035SOL     OW24494   4.582   3.809   2.696  0.1949  1.0142  0.1680
 8035SOL    HW124495   4.522   3.828   2.624  1.5117 -1.9931 -1.9072
 8035SOL    HW224496   4.529   3.761   2.759 -0.3687  1.3917 -0.0150
 8036SOL     OW24497   6.379   0.968   4.617  0.1421 -0.1589 -0.4428
 8036SOL    HW124498   6.299   0.963   4.668  1.3272  3.0635  2.0604
 8036SOL    HW224499   6.351   0.994   4.529 -1.5556  1.0337  0.4188
 8037SOL     OW24500   0.302   1.349   0.117 -0.3555  0.0225 -0.4548
 8037SOL    HW124501   0.309   1.389   0.030 -1.1013  0.0897 -0.4873
 8037SOL    HW224502   0.311   1.421   0.178 -0.1284  0.0156 -0.4777
 8038SOL     OW24503   0.729   3.279   1.433  0.4337 -0.3063  0.2113
 8038SOL    HW124504   0.642   3.308   1.461 -0.7067 -1.9223 -1.4669
 8038SOL    HW224505   0.746   3.327   1.352  1.7102  0.9372  1.1607
 8039SOL     OW24506   1.451   5.018   5.638 -0.0180  0.2251 -0.6411
 8039SOL    HW124507   1.368   5.018   5.591  0.2932  0.8927 -1.1940
 8039SOL    HW224508   1.507   4.959   5.588 -0.0776 -0.0538 -0.3890
 8040SOL     OW24509   4.191   0.329   5.919 -0.0473 -0.0028  0.1200
 8040SOL    HW124510   4.178   0.247   5.967  0.9428  0.2611  0.8806
 8040SOL    HW224511   4.205   0.395   5.987  1.2266  0.4132 -0.5060
 8041SOL     OW24512   2.696   2.314   4.631 -0.2507  0.4738  0.3301
 8041SOL    HW124513   2.676   2.252   4.700  1.0301 -0.6421 -0.2452
 8041SOL    HW224514   2.774   2.360   4.662  2.8734 -2.7623 -1.8161
 8042SOL     OW24515   3.900   6.410   6.457 -0.1224 -0.0446  0.5999
 8042SOL    HW124516   3.928   6.322   6.431  3.9193  1.2928 -0.4069
 8042SOL    HW224517   3.881   6.403   6.550  0.4758 -1.9141  0.6274
 8043SOL     OW24518   5.069   0.093   4.417  0.6732 -0.3085 -0.7646
 8043SOL    HW124519   5.127   0.104   4.342  4.0016 -3.4821  1.0170
 8043SOL    HW224520   5.127   0.070   4.490 -2.4369  1.3249  2.5767
 8044SOL     OW24521   4.396   1.286   0.699 -0.4642 -0.0017  0.0732
 8044SOL    HW124522   4.393   1.377   0.730 -2.3032 -0.3643  1.1122
 8044SOL    HW224523   4.382   1.293   0.604 -0.1989  0.8187  0.0868
 8045SOL     OW24524   6.475   0.381   2.029 -0.1777  0.1850 -0.2124
 8045SOL    HW124525   6.457   0.378   1.935  1.2531 -0.6920 -0.4893
 8045SOL    HW224526   6.408   0.440   2.064 -1.4709 -0.3959 -1.5907
 8046SOL     OW24527   6.396   4.084   6.179 -0.3638  0.7960 -0.1415
 8046SOL    HW124528   6.333   4.027   6.223 -0.4006  0.9080 -0.0494
 8046SOL    HW224529   6.447   4.025   6.124  0.2647  0.5238  0.7226
 8047SOL     OW24530   3.708   1.398   1.313 -0.5072  0.0732  0.4808
 8047SOL    HW124531   3.768   1.436   1.377  1.7289 -0.3649 -1.2448
 8047SOL    HW224532   3.663   1.474   1.274 -1.4694  0.3746  2.1109
 8048SOL     OW24533   0.296   2.127   4.748 -0.2252  0.2088 -0.1153
 8048SOL    HW124534   0.350   2.190   4.795 -2.4864  1.6254  0.7654
 8048SOL    HW224535   0.301   2.047   4.801 -1.4924  1.3095  1.8140
 8049SOL     OW24536   6.798   4.604   5.084  0.0603 -0.1074 -0.0813
 8049SOL    HW124537   6.809   4.592   4.989 -0.5488  0.5648 -0.2486
 8049SOL    HW224538   6.846   4.685   5.103 -1.6499  0.9759 -0.2211
 8050SOL     OW24539   1.970   5.506   3.086  0.1826 -0.1628  0.4125
 8050SOL    HW124540   1.900   5.443   3.068 -2.3362  2.6205 -0.1650
 8050SOL    HW224541   1.938   5.559   3.159  1.5167  1.4254 -0.0826
 8051SOL     OW24542   4.518   2.572   0.393 -0.2868  0.5847 -0.5772
 8051SOL    HW124543   4.558   2.658   0.381  1.7395 -0.5108 -2.6066
 8051SOL    HW224544   4.475   2.554   0.309  0.6640 -0.9462 -0.7783
 8052SOL     OW24545   4.135   4.523   5.715 -0.3151 -0.1176  0.4264
 8052SOL    HW124546   4.157   4.526   5.808 -1.3716  0.3375  0.6742
 8052SOL    HW224547   4.053   4.474   5.712  0.3085 -1.1787 -0.4030
 8053SOL     OW24548   4.071   6.155   4.693 -0.2905 -0.5832  0.5354
 8053SOL    HW124549   4.019   6.181   4.616 -0.2804  0.0595  0.7411
 8053SOL    HW224550   4.008   6.151   4.764 -0.5684 -2.5792  0.2267
 8054SOL     OW24551   6.345   2.412   0.385  0.4306 -0.1190  0.1120
 8054SOL    HW124552   6.303   2.333   0.351  0.4550 -0.2775  0.4464
 8054SOL    HW224553   6.274   2.464   0.422  0.5882 -0.6665  1.2310
 8055SOL     OW24554   0.577   3.285   6.271  0.0966 -0.5262 -0.3656
 8055SOL    HW124555   0.596   3.242   6.354  0.2891  0.1180 -0.0661
 8055SOL    HW224556   0.537   3.368   6.296  1.6701  0.4192 -0.8649
 8056SOL     OW24557   0.027   5.560   6.727 -0.3354 -0.0563 -0.3097
 8056SOL    HW124558   0.039   5.616   6.803 -0.5544 -1.2439  0.6289
 8056SOL    HW224559   0.070   5.478   6.750  1.5746  0.2817 -2.3789
 8057SOL     OW24560   5.505   3.225   4.996 -0.1438 -0.3984  0.1815
 8057SOL    HW124561   5.458   3.251   4.916 -0.7309 -0.5195  0.4829
 8057SOL    HW224562   5.436   3.211   5.061  0.0998 -2.7437  0.0425
 8058SOL     OW24563   3.973   1.325   4.150 -0.2789  0.1198  0.1774
 8058SOL    HW124564   3.917   1.399   4.175  0.4114  1.3693 -1.6516
 8058SOL    HW224565   3.914   1.251   4.142 -1.0321  0.5062  1.8776
 8059SOL     OW24566   4.423   4.694   3.547  0.0456 -0.3790 -0.1574
 8059SOL    HW124567   4.372   4.674   3.469 -1.0931 -1.1885  0.7574
 8059SOL    HW224568   4.405   4.786   3.564 -0.2017 -0.3629 -0.4960
 8060SOL     OW24569   3.352   3.789   6.044 -0.2643  0.2400  0.0933
 8060SOL    HW124570   3.382   3.858   6.102 -0.1138  0.8372 -0.6809
 8060SOL    HW224571   3.431   3.756   6.003 -0.4340  0.2684 -0.2610
 8061SOL     OW24572   2.928   3.958   3.985  0.5397  0.5515  0.3473
 8061SOL    HW124573   2.940   3.957   3.890  2.5328  3.5948  0.4259
 8061SOL    HW224574   2.849   4.010   4.000  0.9213  1.1466  0.3427
 8062SOL     OW24575   2.209   3.522   1.543  0.0327  0.1805 -0.8719
 8062SOL    HW124576   2.214   3.434   1.583 -0.8878 -0.2298 -1.6346
 8062SOL    HW224577   2.298   3.538   1.510  0.4950  0.0121  0.2357
 8063SOL     OW24578   6.729   3.157   1.065 -0.1830  1.0689 -0.2500
 8063SOL    HW124579   6.680   3.203   0.997 -0.4642 -0.8015 -1.3758
 8063SOL    HW224580   6.685   3.073   1.074  1.5407  0.1674  0.2448
 8064SOL     OW24581   5.456   1.534   0.536  0.0844 -0.3421 -0.2431
 8064SOL    HW124582   5.423   1.602   0.476  1.2531 -0.4713 -1.0693
 8064SOL    HW224583   5.518   1.484   0.483  0.5709 -0.9466  0.8724
 8065SOL     OW24584   1.430   1.581   6.567  0.5885  0.0029 -0.4978
 8065SOL    HW124585   1.345   1.624   6.564  0.7921  0.4948  0.4731
 8065SOL    HW224586   1.459   1.579   6.475 -1.1306 -1.5747 -1.0732
 8066SOL     OW24587   0.586   2.038   2.257  0.1690  0.6435 -0.4650
 8066SOL    HW124588   0.623   1.999   2.178  0.2200  2.5855 -1.4630
 8066SOL    HW224589   0.608   2.131   2.251 -0.3681  0.9575  1.5386
 8067SOL     OW24590   5.586   6.102   0.852 -0.3576  0.0976  1.2234
 8067SOL    HW124591   5.595   6.186   0.896  0.3635  1.4439 -1.2973
 8067SOL    HW224592   5.672   6.086   0.813 -1.1360 -0.6144 -0.2772
 8068SOL     OW24593   3.086   1.644   4.594  0.6177  0.4191 -0.3052
 8068SOL    HW124594   2.996   1.611   4.593 -0.6691  3.4297  1.8609
 8068SOL    HW224595   3.104   1.668   4.503 -1.0144  0.3629 -0.6735
 8069SOL     OW24596   6.347   6.797   5.031 -0.7469  0.6276  0.3062
 8069SOL    HW124597   6.362   6.875   4.977  0.7069  0.3632  0.3005
 8069SOL    HW224598   6.433   6.756   5.038 -1.2868 -0.3720  1.2544
 8070SOL     OW24599   2.444   1.486   4.555 -0.3298 -0.1130 -0.1559
 8070SOL    HW124600   2.497   1.427   4.502  0.4816  1.1086 -0.7706
 8070SOL    HW224601   2.501   1.512   4.627 -1.4794 -1.8878  1.5079
 8071SOL     OW24602   1.693   6.467   1.431  0.0816  0.2609  0.2986
 8071SOL    HW124603   1.697   6.553   1.471  2.3813  0.8057 -0.9665
 8071SOL    HW224604   1.773   6.460   1.379  0.5613 -3.0804  1.2268
 8072SOL     OW24605   4.951   4.074   6.260 -0.1915 -0.3573 -0.0296
 8072SOL    HW124606   5.026   4.036   6.306  1.1299  2.3399  0.2209
 8072SOL    HW224607   4.957   4.038   6.171  1.4897 -0.1428 -0.0322
 8073SOL     OW24608   4.668   2.808   4.886 -0.2955  0.0850 -0.1312
 8073SOL    HW124609   4.604   2.752   4.929  0.1041  0.7728  1.4006
 8073SOL    HW224610   4.690   2.761   4.805 -0.9388 -1.3018  0.4727
 8074SOL     OW24611   3.004   0.925   4.025 -0.4525  0.3020  0.7396
 8074SOL    HW124612   3.061   0.995   4.055 -0.4570  0.5873  0.0895
 8074SOL    HW224613   2.953   0.963   3.954  0.0062 -0.5391 -0.0655
 8075SOL     OW24614   4.548   3.649   3.871 -0.4250  0.0170  0.1831
 8075SOL    HW124615   4.560   3.653   3.965  2.8262  0.8317 -0.1596
 8075SOL    HW224616   4.563   3.557   3.848  0.0767  0.0536  0.3523
 8076SOL     OW24617   5.301   5.127   0.259  0.1182 -0.0427 -0.0153
 8076SOL    HW124618   5.314   5.032   0.255 -1.2625 -0.5282  3.3485
 8076SOL    HW224619   5.213   5.140   0.224  0.1080 -0.0814 -0.0050
 8077SOL     OW24620   5.889   6.735   2.367  0.0117  0.5412  0.4830
 8077SOL    HW124621   5.969   6.710   2.413 -0.1999  0.7971  0.9982
 8077SOL    HW224622   5.895   6.691   2.282  0.3776  0.0155  0.7787
 8078SOL     OW24623   4.186   4.203   3.262  0.1141  0.2306  0.8443
 8078SOL    HW124624   4.206   4.287   3.221 -0.6616 -0.2057 -0.4850
 8078SOL    HW224625   4.249   4.196   3.335  0.9604  1.4161  0.2590
 8079SOL     OW24626   0.587   4.898   3.160  0.1331  0.0329  0.3931
 8079SOL    HW124627   0.669   4.848   3.168  1.2377  0.9118 -3.3436
 8079SOL    HW224628   0.606   4.981   3.203  0.1101 -0.8006  2.1002
 8080SOL     OW24629   2.693   3.454   5.924  0.0589 -1.0955  0.0107
 8080SOL    HW124630   2.643   3.488   5.999 -0.5081 -1.5183 -0.1749
 8080SOL    HW224631   2.631   3.454   5.852  0.9182  0.4512 -0.7835
 8081SOL     OW24632   2.404   5.453   5.767  0.4808 -0.1108 -0.3444
 8081SOL    HW124633   2.437   5.491   5.848 -0.3266 -0.3369  0.1043
 8081SOL    HW224634   2.474   5.395   5.737  1.5066  1.3008 -0.7575
 8082SOL     OW24635   6.529   3.003   3.909 -0.4368 -0.3459  0.9074
 8082SOL    HW124636   6.584   2.936   3.950 -0.1576 -0.7292 -0.0471
 8082SOL    HW224637   6.448   2.958   3.886 -0.2464 -0.3694  0.2580
 8083SOL     OW24638   2.559   5.392   1.924 -0.7021 -0.1847 -0.2140
 8083SOL    HW124639   2.541   5.485   1.906  1.1873 -0.1825 -2.5963
 8083SOL    HW224640   2.477   5.359   1.959 -2.1497  1.9184 -1.3391
 8084SOL     OW24641   1.866   1.714   3.889 -0.6496 -0.0760  0.2567
 8084SOL    HW124642   1.902   1.683   3.806  1.5284 -0.1414  1.1584
 8084SOL    HW224643   1.895   1.805   3.897 -1.8407  0.3050  0.4192
 8085SOL     OW24644   6.665   3.029   3.529 -0.1480  0.6003  0.2457
 8085SOL    HW124645   6.753   3.064   3.513 -0.6449  1.3410 -1.0912
 8085SOL    HW224646   6.667   2.942   3.488  0.1306  0.3825  0.7188
 8086SOL     OW24647   0.602   5.444   0.902  0.2587 -0.5393 -0.0991
 8086SOL    HW124648   0.613   5.363   0.852 -0.8819 -0.4403 -0.5356
 8086SOL    HW224649   0.591   5.415   0.993  4.4867 -0.6456  0.6122
 8087SOL     OW24650   4.280   2.885   0.777  0.3662 -0.1163 -0.2780
 8087SOL    HW124651   4.347   2.894   0.710  1.9333  1.8896  1.4482
 8087SOL    HW224652   4.239   2.972   0.782  0.6146 -0.0641  1.6283
 8088SOL     OW24653   5.212   0.176   2.953  0.1259  0.1350  0.2079
 8088SOL    HW124654   5.295   0.223   2.960 -0.4398  1.1222  0.4589
 8088SOL    HW224655   5.148   0.242   2.926 -0.1263 -1.0784 -2.5564
 8089SOL     OW24656   6.035   1.307   2.090 -0.0386 -0.5980 -0.0441
 8089SOL    HW124657   6.062   1.281   2.178 -1.2689 -0.9743  0.2399
 8089SOL    HW224658   6.044   1.402   2.089  1.1091 -0.6982  0.0877
 8090SOL     OW24659   2.540   4.967   6.365 -0.2788 -0.3107  0.1990
 8090SOL    HW124660   2.560   5.017   6.286  0.2528  0.6605  0.9233
 8090SOL    HW224661   2.595   5.006   6.433 -1.3360 -0.5595  1.2404
 8091SOL     OW24662   4.519   2.044   2.845  0.3064 -0.7039  0.0332
 8091SOL    HW124663   4.611   2.039   2.818 -0.0800  0.6978 -1.7787
 8091SOL    HW224664   4.474   2.079   2.768 -1.3223  1.2853  1.7879
 8092SOL     OW24665   0.268   1.010   2.703  0.2348 -0.0696 -0.0956
 8092SOL    HW124666   0.343   1.036   2.757 -0.6474  0.9794  0.6635
 8092SOL    HW224667   0.192   1.041   2.752 -0.7411 -1.6291 -0.5650
 8093SOL     OW24668   2.308   0.220   6.318 -0.1020 -0.0859 -0.3932
 8093SOL    HW124669   2.232   0.257   6.362  0.2418  0.3618 -0.1621
 8093SOL    HW224670   2.320   0.134   6.357  0.3612  0.4132  0.5914
 8094SOL     OW24671   2.833   0.923   6.794 -0.1027 -0.0661  0.0496
 8094SOL    HW124672   2.889   0.858   6.749  1.4082 -0.0063  1.7166
 8094SOL    HW224673   2.838   1.000   6.738  0.8701 -0.3186 -0.2487
 8095SOL     OW24674   0.133   6.091   2.085 -0.4440  0.4034  0.1138
 8095SOL    HW124675   0.069   6.070   2.017  0.9741  2.5554 -2.0670
 8095SOL    HW224676   0.194   6.017   2.085  0.8342  1.3141 -2.7352
 8096SOL     OW24677   0.017   1.438   5.738 -0.4482  0.5453 -0.0209
 8096SOL    HW124678  -0.006   1.522   5.698 -1.4366 -0.2135 -1.1188
 8096SOL    HW224679  -0.031   1.437   5.821 -0.3373  1.0963  0.0585
 8097SOL     OW24680   6.660   1.339   5.557 -0.3032 -0.3125 -0.1018
 8097SOL    HW124681   6.574   1.326   5.597 -0.2240 -0.6688 -0.0462
 8097SOL    HW224682   6.696   1.415   5.604 -0.0753 -0.9267  0.7496
 8098SOL     OW24683   5.260   3.748   5.113 -0.1513  0.3018  0.3328
 8098SOL    HW124684   5.262   3.706   5.027  1.4601 -0.0077  0.4881
 8098SOL    HW224685   5.174   3.791   5.117 -0.9788 -1.1828 -0.6814
 8099SOL     OW24686   2.355   4.486   4.543  0.1315  0.4433 -0.1823
 8099SOL    HW124687   2.445   4.473   4.574 -0.1367  0.3693  0.5628
 8099SOL    HW224688   2.304   4.419   4.588 -0.1223 -0.2799 -1.4658
 8100SOL     OW24689   6.069   6.830   2.900  0.0125 -0.0145 -0.5002
 8100SOL    HW124690   6.148   6.803   2.946  0.0142  1.0665  0.1744
 8100SOL    HW224691   5.998   6.786   2.946  0.1618 -0.4560 -0.6849
 8101SOL     OW24692   3.792   4.835   0.241  0.7394 -0.1345  0.6689
 8101SOL    HW124693   3.735   4.845   0.165 -0.2252 -3.9094  0.6776
 8101SOL    HW224694   3.872   4.880   0.217 -0.0189 -0.0441 -2.0141
 8102SOL     OW24695   1.534   3.467   2.453  0.3859  0.1521  0.6947
 8102SOL    HW124696   1.495   3.546   2.489  1.3209  0.0628  1.9701
 8102SOL    HW224697   1.627   3.488   2.444  0.6918 -0.8581  1.2796
 8103SOL     OW24698   6.540   2.319   4.419  0.5144 -0.3424 -0.1357
 8103SOL    HW124699   6.513   2.249   4.361 -0.7725  0.1349 -0.1373
 8103SOL    HW224700   6.601   2.277   4.480  0.3378 -1.2864 -0.5904
 8104SOL     OW24701   2.756   4.792   2.182  0.3681 -0.0785  0.7200
 8104SOL    HW124702   2.745   4.751   2.268  1.4687  0.2827  1.0441
 8104SOL    HW224703   2.684   4.855   2.177 -0.5556 -1.0973  0.7640
 8105SOL     OW24704   5.810   2.749   4.724  0.2719  0.2023 -0.2842
 8105SOL    HW124705   5.738   2.700   4.683 -0.2187  0.2718  0.4820
 8105SOL    HW224706   5.881   2.745   4.660 -0.3004 -0.1563 -0.9087
 8106SOL     OW24707   6.395   1.569   5.629 -0.2015 -0.1832  0.4778
 8106SOL    HW124708   6.358   1.646   5.586 -0.6324 -0.3010  0.6349
 8106SOL    HW224709   6.343   1.560   5.709 -0.0926 -0.5864  0.5008
 8107SOL     OW24710   6.199   1.130   5.128 -0.0249  0.1774 -0.0682
 8107SOL    HW124711   6.112   1.152   5.096 -0.1149  0.1142  0.1317
 8107SOL    HW224712   6.204   1.169   5.215 -0.2492 -0.7181  0.3568
 8108SOL     OW24713   3.084   3.019   5.077  0.3537  0.1805 -0.0513
 8108SOL    HW124714   3.136   2.964   5.018  1.6298  2.4149 -1.1437
 8108SOL    HW224715   3.007   3.044   5.026  0.1635  0.0432  0.1655
 8109SOL     OW24716   4.699   2.585   1.663  0.0261  0.2708 -0.4717
 8109SOL    HW124717   4.633   2.593   1.732 -1.0700 -1.6933 -1.2191
 8109SOL    HW224718   4.662   2.630   1.588 -0.4427 -0.7001 -0.8441
 8110SOL     OW24719   5.551   2.080   1.514 -0.8217 -0.1218 -0.1905
 8110SOL    HW124720   5.598   2.009   1.558  0.4603  0.7900 -0.0263
 8110SOL    HW224721   5.538   2.049   1.425 -2.7045 -1.6517  0.5422
 8111SOL     OW24722   4.149   3.337   6.754  0.2229 -0.0482 -0.3940
 8111SOL    HW124723   4.101   3.299   6.828  0.7438  0.2507  0.0976
 8111SOL    HW224724   4.108   3.423   6.741  0.3016  0.0035 -0.2946
 8112SOL     OW24725   0.664   2.129   0.959  0.1420  0.3720  0.5102
 8112SOL    HW124726   0.758   2.132   0.971  0.0139  0.9336  1.4661
 8112SOL    HW224727   0.652   2.085   0.874  1.2868  1.4463 -0.2417
 8113SOL     OW24728   4.639   4.263   5.329 -0.0166 -0.1451  0.7939
 8113SOL    HW124729   4.694   4.292   5.257  0.0396  1.6232  1.4925
 8113SOL    HW224730   4.579   4.199   5.290  0.1055  0.6668 -0.7882
 8114SOL     OW24731   5.620   5.983   4.585  0.3174  0.0557 -0.6030
 8114SOL    HW124732   5.697   5.931   4.606  0.4522  0.4287 -0.1308
 8114SOL    HW224733   5.602   5.965   4.493 -1.5388 -3.3077  0.2490
 8115SOL     OW24734   2.670   0.486   3.770 -0.3845 -0.2383 -0.2414
 8115SOL    HW124735   2.759   0.521   3.775 -0.5263 -0.0271  0.9676
 8115SOL    HW224736   2.665   0.447   3.682  0.4869  0.8336 -0.7881
 8116SOL     OW24737   2.109   1.629   5.867 -0.0180 -0.7390  0.2712
 8116SOL    HW124738   2.158   1.585   5.936 -0.2661 -2.9937 -0.9274
 8116SOL    HW224739   2.126   1.578   5.788  0.0975  1.6466 -1.3480
 8117SOL     OW24740   2.496   1.766   2.735 -0.2513 -0.0817 -0.0924
 8117SOL    HW124741   2.575   1.761   2.681 -0.7307 -0.4284 -0.7880
 8117SOL    HW224742   2.472   1.674   2.751 -1.2129 -0.0152 -0.9738
 8118SOL     OW24743   0.968   4.641   6.453  0.1213 -0.1333 -0.0846
 8118SOL    HW124744   0.999   4.581   6.385  0.9310  1.7037 -1.4286
 8118SOL    HW224745   0.909   4.701   6.408  0.0558  0.6592  1.0086
 8119SOL     OW24746   3.836   4.912   4.867  0.2669  0.1108  0.0086
 8119SOL    HW124747   3.783   4.992   4.873  0.3869  0.2597 -0.8143
 8119SOL    HW224748   3.883   4.920   4.784 -2.1535 -2.2550 -1.8027
 8120SOL     OW24749   5.692   3.530   0.373 -0.2966 -0.3245 -0.5140
 8120SOL    HW124750   5.682   3.469   0.300  1.9044 -0.8763 -0.4286
 8120SOL    HW224751   5.609   3.526   0.420 -0.1252 -3.6131 -0.2750
 8121SOL     OW24752   1.001   6.555   1.746  0.0341 -0.1795  0.2903
 8121SOL    HW124753   1.013   6.518   1.658 -0.2374 -0.9252  0.5608
 8121SOL    HW224754   0.955   6.488   1.794  1.5485 -0.4379  1.4713
 8122SOL     OW24755   5.823   3.717   4.858 -0.1660  0.0433  0.1000
 8122SOL    HW124756   5.908   3.707   4.815 -0.3031 -0.1370 -0.1347
 8122SOL    HW224757   5.759   3.695   4.789 -0.3535 -1.9558  0.8490
 8123SOL     OW24758   0.288   1.481   5.907  0.3115  0.2263 -0.1403
 8123SOL    HW124759   0.286   1.534   5.828 -0.3880  0.9401  0.3421
 8123SOL    HW224760   0.200   1.444   5.914  0.3251  0.2728  0.3653
 8124SOL     OW24761   3.334   0.891   3.881  0.3238  0.0163  0.7653
 8124SOL    HW124762   3.263   0.904   3.818  1.2650  0.2529 -0.2739
 8124SOL    HW224763   3.351   0.796   3.879  2.3963  0.3582 -1.6848
 8125SOL     OW24764   4.323   2.903   2.878 -0.0550  0.6061 -0.1271
 8125SOL    HW124765   4.358   2.833   2.823  0.8140  0.3189  0.7558
 8125SOL    HW224766   4.395   2.965   2.886 -0.5932  1.2653 -0.3311
 8126SOL     OW24767   2.464   1.711   3.659 -0.3350  0.5348 -0.3532
 8126SOL    HW124768   2.538   1.661   3.694 -0.9667  0.0337  0.2890
 8126SOL    HW224769   2.395   1.700   3.724 -1.3073  0.1725 -1.4184
 8127SOL     OW24770   5.633   2.155   6.132  0.6976 -0.2237 -0.2023
 8127SOL    HW124771   5.632   2.064   6.161  3.0949 -0.8903 -1.8504
 8127SOL    HW224772   5.659   2.205   6.209  1.1123 -1.1695  0.2845
 8128SOL     OW24773   1.805   0.959   3.772  0.5030 -0.2765  0.0286
 8128SOL    HW124774   1.851   0.973   3.855 -0.4822 -1.1936  0.7512
 8128SOL    HW224775   1.811   1.044   3.727 -0.5899  0.8465  1.8669
 8129SOL     OW24776   4.413   0.669   3.401  0.4409  0.4189  0.5431
 8129SOL    HW124777   4.319   0.650   3.394  0.8617 -1.3503 -0.9060
 8129SOL    HW224778   4.440   0.688   3.312  1.6652 -0.1178  0.7918
 8130SOL     OW24779   6.330   3.098   5.083 -0.1229 -0.6879  0.2968
 8130SOL    HW124780   6.267   3.050   5.137  0.5552 -1.1213  0.7334
 8130SOL    HW224781   6.333   3.186   5.120  0.2620 -0.9546  0.9212
 8131SOL     OW24782   1.552   5.659   0.838  0.3648 -0.5656 -0.3568
 8131SOL    HW124783   1.598   5.577   0.858  1.2538  0.2382  1.0711
 8131SOL    HW224784   1.603   5.726   0.883  0.6230  1.0281 -2.8270
 8132SOL     OW24785   4.102   4.016   5.685  0.0466  0.4234 -0.4726
 8132SOL    HW124786   4.093   4.009   5.780 -0.4365 -0.1782 -0.5571
 8132SOL    HW224787   4.149   4.098   5.671  1.6864 -0.3235  0.3610
 8133SOL     OW24788   0.499   2.812   5.556  0.3277 -0.2959  0.3612
 8133SOL    HW124789   0.549   2.760   5.619  0.7265  0.4273  0.6522
 8133SOL    HW224790   0.409   2.810   5.590  0.6196  0.4606  1.2100
 8134SOL     OW24791   6.574   5.462   2.300 -0.2986 -0.7502  0.5514
 8134SOL    HW124792   6.504   5.451   2.235  0.6445  0.6061 -0.7520
 8134SOL    HW224793   6.636   5.392   2.279  0.7790  0.6303 -1.1205
 8135SOL     OW24794   5.567   5.556   4.965  0.0647 -0.8929  0.3522
 8135SOL    HW124795   5.559   5.468   4.929 -1.5693 -1.2759  1.5330
 8135SOL    HW224796   5.555   5.614   4.890 -1.8322 -1.6761 -0.0094
 8136SOL     OW24797   3.965   6.452   5.661 -0.1769  0.0523 -0.7573
 8136SOL    HW124798   3.920   6.535   5.677  0.9301  0.7330 -1.1283
 8136SOL    HW224799   3.937   6.426   5.573 -0.7168 -0.1012 -0.5448
 8137SOL     OW24800   1.006   2.537   4.014  0.1748 -0.5674 -0.2442
 8137SOL    HW124801   0.987   2.630   4.025 -2.4589 -0.9466 -1.0136
 8137SOL    HW224802   1.022   2.505   4.103  0.4259  0.4480  0.0938
 8138SOL     OW24803   4.984   3.797   3.762 -0.2476  0.2437 -0.0384
 8138SOL    HW124804   4.985   3.705   3.788  2.8625 -0.7403 -2.9590
 8138SOL    HW224805   5.058   3.836   3.809 -1.2036  1.1723  0.7476
 8139SOL     OW24806   2.638   3.681   4.622 -0.3860 -0.2533 -0.2196
 8139SOL    HW124807   2.593   3.765   4.614 -1.2213 -0.7411 -0.7448
 8139SOL    HW224808   2.600   3.641   4.700  0.0158 -0.1423  0.0334
 8140SOL     OW24809   2.190   5.210   0.788 -0.1222 -0.0174  0.0938
 8140SOL    HW124810   2.241   5.203   0.707  0.1709 -0.5981  0.3213
 8140SOL    HW224811   2.166   5.303   0.793  2.8081  0.8120  1.1004
 8141SOL     OW24812   1.783   6.499   6.455  0.3518  0.4050  0.3669
 8141SOL    HW124813   1.817   6.432   6.396  0.0996  0.9069 -0.3563
 8141SOL    HW224814   1.745   6.565   6.398  1.4197  1.6408  1.0343
 8142SOL     OW24815   0.677   0.055   1.552 -0.5175  0.0186 -0.3289
 8142SOL    HW124816   0.736   0.029   1.623 -0.1932  0.1045 -0.5701
 8142SOL    HW224817   0.724   0.122   1.504 -1.2016  0.7999  0.0573
 8143SOL     OW24818   3.575   2.607   1.616  0.3072  0.4544 -0.7349
 8143SOL    HW124819   3.640   2.549   1.657 -0.5364 -1.9216 -2.5084
 8143SOL    HW224820   3.584   2.690   1.663  3.2873 -0.3367  0.3497
 8144SOL     OW24821   5.025   5.423   0.269 -0.0705 -0.0770 -0.5521
 8144SOL    HW124822   4.933   5.428   0.245 -0.3445 -1.0599  0.2121
 8144SOL    HW224823   5.028   5.457   0.359  0.0174 -1.5954  0.0460
 8145SOL     OW24824   1.822   4.061   6.266  0.4617 -0.0490 -0.0189
 8145SOL    HW124825   1.780   4.147   6.269 -0.0658 -0.2220 -1.5179
 8145SOL    HW224826   1.755   4.001   6.299 -0.7569 -0.3882 -2.8564
 8146SOL     OW24827   1.776   1.512   1.996 -0.1652  0.3282  0.3308
 8146SOL    HW124828   1.794   1.440   1.935  0.4790  1.9814 -1.5231
 8146SOL    HW224829   1.784   1.471   2.083 -2.3194 -2.3876 -0.5987
 8147SOL     OW24830   3.113   4.669   0.397 -0.5110 -0.5213  0.5695
 8147SOL    HW124831   3.205   4.645   0.406 -0.9715 -1.8583  1.9958
 8147SOL    HW224832   3.100   4.740   0.460 -0.3923 -0.1103  0.1362
 8148SOL     OW24833   0.586   2.721   3.585 -0.2040 -0.2335  0.0313
 8148SOL    HW124834   0.515   2.697   3.645  2.5259 -2.8763  2.5058
 8148SOL    HW224835   0.564   2.677   3.503 -0.4755 -2.8895  1.4133
 8149SOL     OW24836   3.482   1.332   1.086 -0.1254 -0.0111 -0.1729
 8149SOL    HW124837   3.469   1.347   0.993 -2.5347  1.7989  0.3844
 8149SOL    HW224838   3.531   1.408   1.116 -0.1460 -0.1461  0.2109
 8150SOL     OW24839   5.056   5.433   3.183  0.3183 -0.1766  0.1911
 8150SOL    HW124840   5.116   5.503   3.157  2.0654 -0.3197  3.3674
 8150SOL    HW224841   5.078   5.361   3.124  0.0970  1.1790 -1.6211
 8151SOL     OW24842   3.612   1.496   5.738  0.0578  0.4120  0.0708
 8151SOL    HW124843   3.562   1.476   5.658 -0.2145 -1.5757  0.6749
 8151SOL    HW224844   3.613   1.591   5.743  0.0380  0.5932 -2.2751
 8152SOL     OW24845   1.002   1.762   6.216 -0.4576 -0.0305 -0.5579
 8152SOL    HW124846   0.991   1.702   6.143  0.2039 -0.1557 -0.5563
 8152SOL    HW224847   0.959   1.718   6.290 -2.6066  0.8290 -1.2233
 8153SOL     OW24848   0.678   1.521   0.172 -0.1903  0.4192  0.1129
 8153SOL    HW124849   0.606   1.534   0.233 -1.4660 -2.6371 -0.5692
 8153SOL    HW224850   0.638   1.526   0.085 -0.0166 -2.7515 -0.2626
 8154SOL     OW24851   2.794   4.199   2.322  0.1527  0.3596 -0.0597
 8154SOL    HW124852   2.726   4.171   2.384  1.0387 -0.6792  0.4852
 8154SOL    HW224853   2.845   4.264   2.370  0.1425  0.4124 -0.1202
 8155SOL     OW24854   0.506   3.740   3.227 -0.2439  0.3590 -0.4009
 8155SOL    HW124855   0.448   3.684   3.177  0.2040 -2.1799  1.7209
 8155SOL    HW224856   0.592   3.730   3.186  0.0508 -1.4303  0.5590
 8156SOL     OW24857   6.239   4.940   3.449  0.2448  0.4448 -0.2578
 8156SOL    HW124858   6.320   4.975   3.413 -0.8410  2.0984 -1.2469
 8156SOL    HW224859   6.210   5.006   3.513 -1.2196  0.8178 -1.2494
 8157SOL     OW24860   1.132   2.091   1.334  0.2893  0.3962  0.2710
 8157SOL    HW124861   1.116   2.185   1.344  0.9011  0.3949  1.4110
 8157SOL    HW224862   1.111   2.053   1.419 -1.6124 -0.7804 -0.6581
 8158SOL     OW24863   3.210   2.459   6.207  0.8326 -0.3681  0.1189
 8158SOL    HW124864   3.200   2.445   6.301 -2.2517  0.9570  0.1029
 8158SOL    HW224865   3.143   2.404   6.167 -0.3426  1.7139 -0.9834
 8159SOL     OW24866   1.743   4.664   5.642  0.0069  0.1996 -0.1045
 8159SOL    HW124867   1.834   4.644   5.620 -0.0807  0.3707 -0.6360
 8159SOL    HW224868   1.692   4.604   5.588 -0.1809 -0.9785  1.3192
 8160SOL     OW24869   2.589   6.347   6.696 -0.3207 -0.0858 -0.6000
 8160SOL    HW124870   2.588   6.257   6.664 -0.5571 -0.1025 -0.5431
 8160SOL    HW224871   2.506   6.358   6.741 -0.7501  0.4858 -1.5000
 8161SOL     OW24872   5.525   1.334   2.457 -0.0651  0.5949  0.1915
 8161SOL    HW124873   5.545   1.427   2.452  1.2470  0.4050  1.2835
 8161SOL    HW224874   5.607   1.290   2.435 -0.1317 -0.2705  1.5332
 8162SOL     OW24875   4.884   2.900   5.638 -0.0304  0.1920 -0.0427
 8162SOL    HW124876   4.908   2.952   5.562  0.1960  0.5137  0.2471
 8162SOL    HW224877   4.901   2.957   5.713 -1.4261  0.3308  0.1977
 8163SOL     OW24878   3.483   1.015   6.705  0.0897  0.7555 -0.1552
 8163SOL    HW124879   3.555   1.036   6.645  1.1211 -0.7218  0.5210
 8163SOL    HW224880   3.460   0.925   6.684  2.2641 -0.8275  3.3113
 8164SOL     OW24881   4.207   5.495   0.418 -0.3151  0.1245  0.2401
 8164SOL    HW124882   4.300   5.516   0.428 -0.5909  2.3874 -1.2138
 8164SOL    HW224883   4.177   5.475   0.507  1.7795 -1.9291  0.5746
 8165SOL     OW24884   3.374   6.056   3.902  0.1497  0.4915 -0.0028
 8165SOL    HW124885   3.466   6.028   3.896 -0.2055 -0.5431 -1.3986
 8165SOL    HW224886   3.330   5.982   3.944 -0.0735  0.9039  0.4859
 8166SOL     OW24887   6.018   0.215   0.453 -0.2727 -0.7703 -0.2926
 8166SOL    HW124888   5.935   0.172   0.432 -0.3755 -0.4479 -0.5479
 8166SOL    HW224889   6.012   0.301   0.412 -0.2447 -0.3406  0.5847
 8167SOL     OW24890   6.748   3.482   6.367 -0.2211  0.0427 -0.0759
 8167SOL    HW124891   6.751   3.545   6.438  1.3016  0.5480 -0.5585
 8167SOL    HW224892   6.673   3.426   6.388  0.4878 -0.1533  2.2002
 8168SOL     OW24893   4.824   3.785   2.931  0.0972  0.7941 -0.0664
 8168SOL    HW124894   4.888   3.824   2.872  0.2971  0.7831  0.1378
 8168SOL    HW224895   4.876   3.727   2.987 -0.2180  0.1287 -0.4573
 8169SOL     OW24896   6.548   6.611   3.543 -0.1485  0.0123 -0.1555
 8169SOL    HW124897   6.602   6.630   3.466  1.6372  0.0438  1.0210
 8169SOL    HW224898   6.464   6.652   3.525 -0.6065 -1.9549 -3.0602
 8170SOL     OW24899   3.729   5.131   4.239 -0.2931  0.2400  0.1350
 8170SOL    HW124900   3.726   5.165   4.149  1.5160  0.6796  0.1983
 8170SOL    HW224901   3.812   5.082   4.243 -0.4233  0.1033  1.5166
 8171SOL     OW24902   5.538   3.452   3.065 -0.6139 -0.0286  0.2507
 8171SOL    HW124903   5.606   3.500   3.111 -0.2349  0.3843 -0.7050
 8171SOL    HW224904   5.456   3.485   3.102 -0.3286  0.5457  0.3806
 8172SOL     OW24905   2.549   3.831   5.256  0.3631 -0.1127  0.3222
 8172SOL    HW124906   2.644   3.835   5.241  0.5261  1.1162  1.4628
 8172SOL    HW224907   2.533   3.899   5.321 -1.1646 -1.0269  0.9379
 8173SOL     OW24908   6.540   5.080   6.794 -0.0918 -0.0806  0.0674
 8173SOL    HW124909   6.634   5.063   6.795 -0.2332 -0.9015 -0.0645
 8173SOL    HW224910   6.500   4.996   6.774 -1.0375 -0.4720  3.0866
 8174SOL     OW24911   4.833   3.299   1.964  0.4307 -0.5021 -0.1401
 8174SOL    HW124912   4.752   3.251   1.946  0.3227  0.0686 -1.2995
 8174SOL    HW224913   4.820   3.385   1.924  0.4877  0.6802  2.2011
 8175SOL     OW24914   1.211   1.701   5.474  0.0471  0.3855  0.1164
 8175SOL    HW124915   1.255   1.727   5.555  2.5237  0.6920 -1.2254
 8175SOL    HW224916   1.219   1.605   5.473  2.2600  0.5203 -0.8583
 8176SOL     OW24917   3.423   1.860   0.078  0.1517 -0.2373 -0.8058
 8176SOL    HW124918   3.504   1.839   0.125 -0.0967  0.0561 -0.2427
 8176SOL    HW224919   3.452   1.881  -0.011  0.8449  1.1623 -0.2736
 8177SOL     OW24920   4.925   6.378   5.162 -0.5353  0.1230  0.4625
 8177SOL    HW124921   4.950   6.461   5.122 -1.3519  0.3696  0.4395
 8177SOL    HW224922   5.008   6.338   5.188 -0.0831  0.5807 -0.2346
 8178SOL     OW24923   1.343   1.170   2.670  0.2755  0.1214  0.1338
 8178SOL    HW124924   1.374   1.260   2.679  1.6732 -0.1327 -1.5030
 8178SOL    HW224925   1.250   1.174   2.690  0.3367  1.9128  0.2213
 8179SOL     OW24926   0.820   4.428   6.036  0.9145 -0.0863 -0.4712
 8179SOL    HW124927   0.800   4.391   5.949  1.6202  1.3661 -1.2961
 8179SOL    HW224928   0.762   4.503   6.043 -1.3545 -1.8862  1.6896
 8180SOL     OW24929   4.993   3.357   4.975 -0.2403 -0.6899 -0.9384
 8180SOL    HW124930   5.016   3.291   4.909 -0.8528 -2.0931  0.2061
 8180SOL    HW224931   4.998   3.310   5.058  2.6067  1.5147  0.3252
 8181SOL     OW24932   2.533   5.859   4.435 -0.3389  0.8133 -0.5461
 8181SOL    HW124933   2.527   5.783   4.493 -1.8151  0.3713 -1.2226
 8181SOL    HW224934   2.626   5.879   4.431 -0.2313  1.5840  2.8988
 8182SOL     OW24935   2.054   1.384   6.308  0.1679 -0.1409 -0.2064
 8182SOL    HW124936   1.976   1.329   6.306 -0.3938  0.2759  3.4216
 8182SOL    HW224937   2.031   1.460   6.254 -0.5861 -1.4841 -1.8820
 8183SOL     OW24938   6.798   3.198   6.135  0.2303 -0.0960  0.0531
 8183SOL    HW124939   6.820   3.268   6.197  0.0454 -0.8187  0.9668
 8183SOL    HW224940   6.858   3.210   6.062  1.5196 -0.1492  1.0740
 8184SOL     OW24941   2.422   6.461   0.754  0.2043  0.2541  0.2393
 8184SOL    HW124942   2.483   6.534   0.751  1.2092 -0.5975 -1.1094
 8184SOL    HW224943   2.456   6.403   0.822  0.2265  0.3484  0.3082
 8185SOL     OW24944   6.108   1.548   0.436  0.0328 -0.2404  0.1926
 8185SOL    HW124945   6.096   1.544   0.530 -0.2642  3.0824  0.4393
 8185SOL    HW224946   6.059   1.626   0.409  0.0314 -1.1326 -2.7263
 8186SOL     OW24947   5.751   2.069   4.541  0.3852 -0.3925  0.2085
 8186SOL    HW124948   5.676   2.054   4.599  0.0888 -2.3432 -0.6113
 8186SOL    HW224949   5.827   2.065   4.598  0.0154 -1.0585  0.6657
 8187SOL     OW24950   6.092   3.043   2.661 -0.5014  0.2089 -0.2798
 8187SOL    HW124951   6.034   3.053   2.585  0.0874 -0.1687 -0.7859
 8187SOL    HW224952   6.138   3.127   2.667  0.7409 -0.3403 -1.4400
 8188SOL     OW24953   0.011   2.336   5.591 -0.0194  0.3422  0.1065
 8188SOL    HW124954   0.083   2.373   5.641  0.5683 -0.5325 -0.0713
 8188SOL    HW224955   0.049   2.259   5.548 -1.7290 -1.8496  2.2528
 8189SOL     OW24956   1.571   0.813   1.278  0.2341 -0.4757 -0.2037
 8189SOL    HW124957   1.665   0.795   1.284  0.1892 -0.2821  1.5971
 8189SOL    HW224958   1.529   0.734   1.311 -0.2102 -0.2209 -0.1541
 8190SOL     OW24959   5.007   3.058   2.102 -0.5558 -0.4237 -0.3800
 8190SOL    HW124960   5.042   2.971   2.080 -2.1122 -1.2604  0.3321
 8190SOL    HW224961   4.924   3.040   2.146 -0.6363  1.4217  0.2929
 8191SOL     OW24962   0.566   4.129   3.814  0.4517 -0.2112  0.1968
 8191SOL    HW124963   0.627   4.159   3.747 -1.0925  0.2511 -1.0600
 8191SOL    HW224964   0.508   4.069   3.768 -1.2134  0.8214  0.8545
 8192SOL     OW24965   0.050   6.312   0.797  0.7362  0.0845  0.3982
 8192SOL    HW124966   0.056   6.225   0.758  0.8667  0.0793  0.4288
 8192SOL    HW224967   0.084   6.371   0.730  0.7428  0.1008  0.4158
 8193SOL     OW24968   1.166   0.968   3.249  0.5138  0.3403  0.2184
 8193SOL    HW124969   1.171   1.018   3.168 -0.3262 -0.1703 -0.1657
 8193SOL    HW224970   1.114   0.891   3.226  1.0884 -0.2974  0.9997
 8194SOL     OW24971   3.040   2.217   0.722  0.1395 -0.3229  0.2886
 8194SOL    HW124972   3.127   2.188   0.694  1.0346  1.8536  0.5680
 8194SOL    HW224973   3.037   2.309   0.695 -0.9023  0.4874  2.9012
 8195SOL     OW24974   4.379   2.789   1.970  0.2591 -0.5961 -0.1594
 8195SOL    HW124975   4.360   2.789   2.063 -1.6319  1.4107 -0.4328
 8195SOL    HW224976   4.297   2.760   1.929  1.5116 -2.9104 -1.2095
 8196SOL     OW24977   0.776   3.694   3.109  0.2590 -0.0343  0.1964
 8196SOL    HW124978   0.854   3.652   3.073 -0.4803 -0.7641 -0.6313
 8196SOL    HW224979   0.800   3.718   3.198  2.2196  1.9373 -0.7603
 8197SOL     OW24980   1.256   0.809   6.553  0.0438  0.1184  0.0016
 8197SOL    HW124981   1.295   0.833   6.637  0.2760  3.0974 -0.8337
 8197SOL    HW224982   1.162   0.806   6.571  0.1903 -0.8683  0.6829
 8198SOL     OW24983   2.548   4.322   2.309 -0.0464 -0.1489 -0.5145
 8198SOL    HW124984   2.633   4.281   2.289  1.2463  2.2715 -0.3472
 8198SOL    HW224985   2.570   4.410   2.341 -2.5255 -0.2888  1.9739
 8199SOL     OW24986   6.588   4.429   3.145  0.1950  0.2306 -0.1050
 8199SOL    HW124987   6.561   4.354   3.199  0.9370 -0.2915 -0.4365
 8199SOL    HW224988   6.676   4.451   3.176 -0.2286  1.3284  0.3548
 8200SOL     OW24989   4.341   0.300   1.683 -0.3039  0.1930 -0.1686
 8200SOL    HW124990   4.267   0.360   1.675  1.3581  2.2704 -1.0430
 8200SOL    HW224991   4.395   0.339   1.752  0.8998 -0.1864 -0.8730
 8201SOL     OW24992   2.627   5.282   6.834 -0.1640 -0.3134  0.1481
 8201SOL    HW124993   2.704   5.328   6.799 -0.7371 -0.5571 -1.5291
 8201SOL    HW224994   2.561   5.351   6.843 -0.1574 -0.3294  0.3162
 8202SOL     OW24995   3.098   5.379   6.289 -0.6660  0.3100  0.2381
 8202SOL    HW124996   3.136   5.326   6.358 -0.3073 -1.8171 -1.4921
 8202SOL    HW224997   3.157   5.454   6.281 -1.0398  0.9370  2.5460
 8203SOL     OW24998   3.524   0.731   1.410  0.7110 -0.2155  0.2408
 8203SOL    HW124999   3.562   0.644   1.396  0.6792 -0.5139  1.9127
 8203SOL    HW225000   3.600   0.789   1.414  0.7801 -0.2860  0.0058
 8204SOL     OW25001   2.933   2.463   1.793  0.0632 -0.0679 -0.6090
 8204SOL    HW125002   2.995   2.535   1.808 -0.6127  0.8661 -2.0882
 8204SOL    HW225003   2.941   2.409   1.872  1.3549  1.0543  0.0907
 8205SOL     OW25004   6.652   2.423   1.749 -0.2717  0.3555  0.5860
 8205SOL    HW125005   6.616   2.511   1.764  2.5739  1.3738  2.2319
 8205SOL    HW225006   6.697   2.431   1.664  0.1285  0.5780  0.8127
 8206SOL     OW25007   0.565   0.922   2.348  0.7637  0.0334  0.4096
 8206SOL    HW125008   0.637   0.956   2.295 -0.4446  0.6483 -0.8998
 8206SOL    HW225009   0.565   0.977   2.426  2.4413 -0.7501  1.0156
 8207SOL     OW25010   2.871   0.583   1.594 -0.8879  0.3213 -0.3599
 8207SOL    HW125011   2.832   0.646   1.655 -0.2788 -0.1786  0.5761
 8207SOL    HW225012   2.935   0.634   1.544 -0.0288  0.3624  0.7488
 8208SOL     OW25013   1.165   3.041   1.555  0.1757  0.7963  0.0298
 8208SOL    HW125014   1.091   2.982   1.570 -0.5268  1.8670  1.0098
 8208SOL    HW225015   1.126   3.128   1.556  1.3880  1.3609  0.1057
 8209SOL     OW25016   1.021   1.909   1.567 -0.3135  0.2954  0.4305
 8209SOL    HW125017   0.951   1.846   1.583 -0.0897 -0.0431  0.0667
 8209SOL    HW225018   1.087   1.890   1.634 -0.4761  0.4829  0.6459
 8210SOL     OW25019   6.535   1.823   2.909 -0.5361  0.2670 -0.3240
 8210SOL    HW125020   6.590   1.747   2.928 -0.8473 -0.1515 -1.0471
 8210SOL    HW225021   6.464   1.817   2.973 -0.7658 -0.2755 -0.6185
 8211SOL     OW25022   1.341   1.884   5.317 -0.2696  0.6290  0.6452
 8211SOL    HW125023   1.284   1.826   5.369  0.7850 -0.2528  0.8558
 8211SOL    HW225024   1.314   1.972   5.341 -3.1031  0.3082 -0.9330
 8212SOL     OW25025   4.758   4.484   6.057 -0.2087 -0.2061  0.7889
 8212SOL    HW125026   4.812   4.409   6.030  0.1210  0.4329 -0.3756
 8212SOL    HW225027   4.753   4.539   5.979 -0.8398  0.7598  1.4974
 8213SOL     OW25028   4.959   3.792   5.169 -0.2538  0.6410 -0.0364
 8213SOL    HW125029   4.909   3.733   5.226 -1.1121 -0.1938 -1.5643
 8213SOL    HW225030   4.906   3.871   5.165 -0.3853  0.5581  0.0289
 8214SOL     OW25031   3.031   3.323   5.076  0.5796 -0.3089 -0.1525
 8214SOL    HW125032   3.120   3.356   5.063  0.5844 -0.4043 -0.3706
 8214SOL    HW225033   3.043   3.231   5.099  0.5831 -0.0713  0.8124
 8215SOL     OW25034   2.826   4.859   6.739  0.7687 -0.0023 -0.2733
 8215SOL    HW125035   2.782   4.774   6.742  1.4028 -0.3560 -0.7411
 8215SOL    HW225036   2.758   4.920   6.712  0.3558 -0.3966 -0.1371
 8216SOL     OW25037   4.393   3.178   6.787  0.0144  0.6912  0.2853
 8216SOL    HW125038   4.449   3.197   6.711 -1.6748  0.5671 -1.0483
 8216SOL    HW225039   4.332   3.252   6.790 -2.1700 -0.9849 -0.6656
 8217SOL     OW25040   4.188   1.841   2.815 -0.6552  0.4680  0.0277
 8217SOL    HW125041   4.240   1.849   2.895  1.6571  1.0060 -1.4546
 8217SOL    HW225042   4.229   1.770   2.766 -0.7272  1.5086 -1.5985
 8218SOL     OW25043   6.699   3.460   5.321 -0.1323  0.6381 -0.0074
 8218SOL    HW125044   6.711   3.366   5.308  0.6659  0.8822 -1.2698
 8218SOL    HW225045   6.783   3.490   5.356  0.4292  1.2081 -1.7508
 8219SOL     OW25046   2.140   4.003   5.817  0.6032  0.3957 -0.6865
 8219SOL    HW125047   2.044   4.006   5.810  0.5029  2.8160  0.5581
 8219SOL    HW225048   2.156   3.972   5.906  0.9185  1.3868 -0.3893
 8220SOL     OW25049   1.624   3.531   1.550  0.0741  0.2245 -0.2967
 8220SOL    HW125050   1.618   3.444   1.512 -1.1670  0.4983 -0.7641
 8220SOL    HW225051   1.615   3.517   1.645  1.4297 -0.2838 -0.2241
 8221SOL     OW25052   0.640   3.614   6.061  0.1830 -0.0321  0.5153
 8221SOL    HW125053   0.689   3.531   6.064 -0.5053 -0.4124  1.4933
 8221SOL    HW225054   0.638   3.644   6.151 -1.0672  0.1612  0.4374
 8222SOL     OW25055   4.713   0.622   0.902  0.4513 -0.0764  0.2153
 8222SOL    HW125056   4.685   0.589   0.817  3.0188  0.5814 -0.9849
 8222SOL    HW225057   4.632   0.633   0.952 -1.4911  1.9865 -3.0102
 8223SOL     OW25058   0.756   0.427   6.387  0.4024  0.0208  0.5127
 8223SOL    HW125059   0.758   0.452   6.294  1.2206 -0.1537  0.4791
 8223SOL    HW225060   0.835   0.466   6.424  1.5901 -2.2573  0.5159
 8224SOL     OW25061   3.289   6.427   2.732 -0.2397 -0.6088 -0.2331
 8224SOL    HW125062   3.248   6.428   2.646  0.8707 -1.6755 -0.7918
 8224SOL    HW225063   3.247   6.356   2.779 -2.1735  1.1184  0.8286
 8225SOL     OW25064   6.767   2.854   0.332 -0.3333  0.3345  0.6293
 8225SOL    HW125065   6.703   2.806   0.384  0.8900 -0.8267  1.1339
 8225SOL    HW225066   6.846   2.801   0.337  0.3120  1.0801 -1.0174
 8226SOL     OW25067   6.046   2.461   2.122 -0.2652  0.3854  0.5184
 8226SOL    HW125068   6.004   2.375   2.112 -0.1602  0.2804  0.9775
 8226SOL    HW225069   6.003   2.516   2.057 -0.5862  0.0798  0.4678
 8227SOL     OW25070   3.142   4.142   6.825  0.1960  0.0174  0.3570
 8227SOL    HW125071   3.143   4.047   6.823 -1.5551 -0.0125 -0.2484
 8227SOL    HW225072   3.212   4.165   6.886  0.6154 -1.6413  0.5490
 8228SOL     OW25073   1.181   1.605   4.751  0.1853  1.0620 -0.2331
 8228SOL    HW125074   1.155   1.604   4.659 -0.5375 -0.5047 -0.0478
 8228SOL    HW225075   1.276   1.612   4.750  0.2865 -0.1832 -1.1484
 8229SOL     OW25076   3.167   4.999   4.227  0.1886 -0.2076 -0.1691
 8229SOL    HW125077   3.153   4.930   4.291 -1.4770  0.2752  0.0396
 8229SOL    HW225078   3.122   5.075   4.263 -0.3463  0.2158 -1.6494
 8230SOL     OW25079   4.795   0.596   1.396 -0.1734 -0.4656 -0.0373
 8230SOL    HW125080   4.847   0.618   1.473  1.4225 -1.6055 -0.7346
 8230SOL    HW225081   4.833   0.514   1.363 -1.2347 -0.3686 -1.6515
 8231SOL     OW25082   5.406   0.059   1.807 -0.3977 -0.6380 -0.0237
 8231SOL    HW125083   5.348   0.017   1.872 -1.3838 -0.1258 -0.5436
 8231SOL    HW225084   5.353   0.130   1.771 -0.1089 -1.2963 -1.8542
 8232SOL     OW25085   1.577   5.602   3.859  0.7480  0.1281  0.2409
 8232SOL    HW125086   1.571   5.661   3.934  1.5877  1.8935 -1.0104
 8232SOL    HW225087   1.663   5.562   3.866  0.2958 -0.7383  0.9308
 8233SOL     OW25088   3.289   3.587   5.655 -0.0596  0.0123  0.1779
 8233SOL    HW125089   3.378   3.620   5.643 -0.0726  0.5309  1.3954
 8233SOL    HW225090   3.300   3.504   5.701 -0.2034 -0.0599  0.0856
 8234SOL     OW25091   3.964   2.276   1.849 -0.4799 -0.5122 -0.1937
 8234SOL    HW125092   3.918   2.355   1.878 -0.3825 -0.2385 -0.7864
 8234SOL    HW225093   3.990   2.233   1.931 -0.3676  0.1604  0.1333
 8235SOL     OW25094   4.783   3.563   1.857  0.0438  0.4390  0.5451
 8235SOL    HW125095   4.766   3.612   1.937  0.3984  1.1183  0.2114
 8235SOL    HW225096   4.711   3.587   1.798  0.8863  1.5710 -0.0678
 8236SOL     OW25097   1.978   2.995   5.561 -0.2604 -0.3920 -0.8785
 8236SOL    HW125098   1.992   2.901   5.552 -0.3320 -0.3246 -1.7295
 8236SOL    HW225099   1.918   3.018   5.490 -0.4557  0.2548 -0.5177
 8237SOL     OW25100   2.690   1.902   1.229 -0.1217  0.3941  0.2895
 8237SOL    HW125101   2.610   1.871   1.273  0.1418 -0.7190  0.0244
 8237SOL    HW225102   2.741   1.822   1.215  0.9683  1.0780  0.3124
 8238SOL     OW25103   3.874   3.853   3.073  0.1842 -0.1483  0.3493
 8238SOL    HW125104   3.922   3.906   3.137  2.5077 -0.6581 -0.8567
 8238SOL    HW225105   3.923   3.771   3.068 -0.4802 -0.4746 -1.3971
 8239SOL     OW25106   5.462   1.414   6.400  0.1737  0.1076  0.1299
 8239SOL    HW125107   5.434   1.492   6.352  0.9692 -0.6426 -1.6450
 8239SOL    HW225108   5.549   1.395   6.365  1.1988  0.0108  2.5469
 8240SOL     OW25109   0.511   3.003   3.554 -0.2089 -0.0629  0.0875
 8240SOL    HW125110   0.449   3.014   3.627  0.5502  0.6826  0.6455
 8240SOL    HW225111   0.544   2.914   3.564 -1.2487 -0.4975 -0.2671
 8241SOL     OW25112   2.894   2.403   0.013 -0.6089 -0.3150  0.5057
 8241SOL    HW125113   2.816   2.348   0.016 -0.1564 -0.9310  1.4260
 8241SOL    HW225114   2.956   2.353  -0.040 -1.3133  0.8486 -1.5113
 8242SOL     OW25115   4.651   4.423   4.170  0.1536  0.4227  0.3085
 8242SOL    HW125116   4.573   4.389   4.126  0.0056  1.9410 -0.6587
 8242SOL    HW225117   4.718   4.356   4.156 -0.0069  0.6588 -1.8868
 8243SOL     OW25118   4.929   0.339   1.583  0.1868  0.1854  0.7750
 8243SOL    HW125119   5.014   0.340   1.538 -1.2958  1.9489 -2.2838
 8243SOL    HW225120   4.910   0.246   1.596  1.9185 -0.2828  0.2325
 8244SOL     OW25121   6.681   2.440   6.802 -0.6768  0.1426 -0.1054
 8244SOL    HW125122   6.593   2.410   6.826 -1.4339  0.9888 -1.6636
 8244SOL    HW225123   6.740   2.375   6.842 -2.0917 -1.6188 -0.7199
 8245SOL     OW25124   5.420   0.317   5.219  0.2361 -0.0568 -0.7602
 8245SOL    HW125125   5.330   0.301   5.247 -0.1335 -1.3459 -2.5272
 8245SOL    HW225126   5.452   0.384   5.280 -0.6623 -2.1505  2.2706
 8246SOL     OW25127   3.421   3.731   4.940 -0.0011  0.1357 -0.1360
 8246SOL    HW125128   3.412   3.826   4.948  0.4455  0.2117 -0.5072
 8246SOL    HW225129   3.355   3.696   5.000 -0.4741  0.6760 -0.3304
 8247SOL     OW25130   1.145   2.147   0.678  0.1647 -0.0525 -0.3754
 8247SOL    HW125131   1.190   2.180   0.600  1.4369 -1.4072 -0.2771
 8247SOL    HW225132   1.159   2.214   0.745  1.2673 -0.0052 -0.6303
 8248SOL     OW25133   1.991   5.872   4.064  0.2490 -0.3308  0.5029
 8248SOL    HW125134   1.928   5.944   4.062 -0.2004 -0.7174  0.5617
 8248SOL    HW225135   2.056   5.895   3.997  0.8141  0.7596  1.3844
 8249SOL     OW25136   0.874   2.580   1.311  0.9869 -0.8425  0.6744
 8249SOL    HW125137   0.937   2.641   1.348  1.4708 -1.5091  0.9673
 8249SOL    HW225138   0.789   2.612   1.340  1.2964 -0.8255  1.5938
 8250SOL     OW25139   4.587   4.658   5.879  0.0425 -0.0882 -0.2703
 8250SOL    HW125140   4.585   4.663   5.783  0.6849  1.5462 -0.2322
 8250SOL    HW225141   4.517   4.597   5.901  0.3465 -1.0550 -1.8007
 8251SOL     OW25142   0.857   2.950   0.833 -0.1337  0.2646 -0.1549
 8251SOL    HW125143   0.845   2.882   0.767  0.2871  0.1980 -0.1611
 8251SOL    HW225144   0.943   2.987   0.815 -0.8955  1.7124 -0.9923
 8252SOL     OW25145   2.131   4.344   6.267 -0.1391  0.1205 -0.0859
 8252SOL    HW125146   2.081   4.347   6.349  0.5003 -2.8899  0.5615
 8252SOL    HW225147   2.066   4.363   6.199 -0.8811  1.8206  1.0404
 8253SOL     OW25148   2.919   6.118   0.272 -0.2578 -0.3936  0.4437
 8253SOL    HW125149   2.959   6.131   0.186 -0.4061  1.1823  0.5833
 8253SOL    HW225150   2.861   6.043   0.261 -2.4107  1.4262 -1.6350
 8254SOL     OW25151   4.292   5.216   4.698 -0.2955  0.2183 -0.2017
 8254SOL    HW125152   4.293   5.127   4.731  0.6126 -0.3792 -1.7168
 8254SOL    HW225153   4.354   5.263   4.753  0.7563 -0.6139 -0.6344
 8255SOL     OW25154   2.534   5.134   0.897  0.2853 -0.7528 -0.2882
 8255SOL    HW125155   2.559   5.107   0.808 -0.2741 -0.2981 -0.5906
 8255SOL    HW225156   2.438   5.134   0.896  0.2686 -1.4890  0.5520
 8256SOL     OW25157   2.098   1.341   1.010  0.2573  0.0297 -0.2286
 8256SOL    HW125158   2.191   1.319   1.019  0.2993  0.3233  0.0831
 8256SOL    HW225159   2.062   1.270   0.958  0.1223 -1.4684  1.7807
 8257SOL     OW25160   4.475   1.550   0.751  0.6530  0.3730  0.3439
 8257SOL    HW125161   4.543   1.602   0.709  1.1550  1.5334  2.4563
 8257SOL    HW225162   4.457   1.595   0.833 -0.8901 -1.2952  1.0003
 8258SOL     OW25163   4.818   2.087   5.365  0.3509  0.0136  0.6817
 8258SOL    HW125164   4.781   2.000   5.352  3.1433 -1.2407  0.3857
 8258SOL    HW225165   4.744   2.147   5.355 -1.4016 -2.2171 -0.5497
 8259SOL     OW25166   4.616   1.954   0.230  0.0566  0.1955  0.5621
 8259SOL    HW125167   4.670   1.884   0.193  3.0403  0.9820  2.9438
 8259SOL    HW225168   4.564   1.911   0.297  1.6389  0.0699  1.7895
 8260SOL     OW25169   3.180   6.720   6.577 -0.3811  0.2483  0.6909
 8260SOL    HW125170   3.254   6.667   6.607 -1.6243 -2.1694 -0.2560
 8260SOL    HW225171   3.162   6.688   6.489 -1.7040  1.7652  0.3713
 8261SOL     OW25172   4.107   3.061   4.768 -0.2694  0.0765  0.4034
 8261SOL    HW125173   4.061   3.144   4.782 -0.6494  0.0314 -0.5382
 8261SOL    HW225174   4.056   3.016   4.701 -1.0017 -1.6557  2.0223
 8262SOL     OW25175   5.744   4.431   3.876  0.1392 -0.1491 -0.1704
 8262SOL    HW125176   5.758   4.526   3.865  1.1580 -0.3594 -0.7981
 8262SOL    HW225177   5.691   4.406   3.800  0.0975 -0.1286 -0.1481
 8263SOL     OW25178   4.915   5.400   4.301 -0.6976 -0.6241 -0.3944
 8263SOL    HW125179   4.903   5.438   4.388 -0.3642 -1.5431  0.0614
 8263SOL    HW225180   4.827   5.383   4.270 -0.7929 -2.0619  0.5737
 8264SOL     OW25181   4.981   1.765   5.177 -0.0585  0.3350  0.4045
 8264SOL    HW125182   4.990   1.784   5.270 -0.8781  1.0871  0.3477
 8264SOL    HW225183   5.068   1.780   5.140  0.1340  0.6033  0.9594
 8265SOL     OW25184   0.551   6.549   4.699 -0.3579 -0.0753 -0.6749
 8265SOL    HW125185   0.632   6.521   4.741 -0.5697 -1.9138 -1.4225
 8265SOL    HW225186   0.577   6.578   4.612 -0.4081  0.0529 -0.6473
 8266SOL     OW25187   5.393   1.872   6.597 -0.0212 -0.4748  0.3323
 8266SOL    HW125188   5.480   1.834   6.585  0.5072  0.3971  1.2379
 8266SOL    HW225189   5.395   1.910   6.685 -0.9709  0.4430 -0.0101
 8267SOL     OW25190   0.852   6.330   1.154  0.1970  0.5283  0.4964
 8267SOL    HW125191   0.900   6.330   1.071 -0.5730 -0.1889  0.0240
 8267SOL    HW225192   0.906   6.279   1.214 -0.2928 -0.9659 -0.2597
 8268SOL     OW25193   4.425   1.216   4.198  0.1949  0.1700 -0.2128
 8268SOL    HW125194   4.399   1.294   4.246 -1.8498  0.0889 -1.1079
 8268SOL    HW225195   4.343   1.175   4.172  1.2305 -1.7945 -0.5639
 8269SOL     OW25196   2.965   3.401   4.048  0.4746  0.2040 -0.1320
 8269SOL    HW125197   2.932   3.465   4.111 -0.7222 -0.6951  0.1942
 8269SOL    HW225198   2.898   3.398   3.980 -0.3193 -1.8325  0.6534
 8270SOL     OW25199   2.179   2.680   5.163 -0.5000  0.4052  0.1425
 8270SOL    HW125200   2.270   2.689   5.137  0.3714 -1.1456  2.3546
 8270SOL    HW225201   2.157   2.589   5.144 -0.7444  0.0578  1.8730
 8271SOL     OW25202   4.413   0.359   4.722  0.3707 -0.1276  0.2184
 8271SOL    HW125203   4.432   0.391   4.634  1.9971 -0.7599  0.3018
 8271SOL    HW225204   4.491   0.309   4.747 -0.7485 -1.4022  1.3468
 8272SOL     OW25205   0.460   4.403   4.340  0.1066  0.4405  0.0733
 8272SOL    HW125206   0.418   4.344   4.277 -0.2304 -3.1248  3.2832
 8272SOL    HW225207   0.393   4.468   4.359 -0.0315  1.2108 -2.5606
 8273SOL     OW25208   0.724   1.864   3.859 -0.3318 -0.1891 -0.0776
 8273SOL    HW125209   0.799   1.813   3.888 -0.4307  0.1086  0.7197
 8273SOL    HW225210   0.716   1.935   3.923 -1.3080 -0.2411 -0.1181
 8274SOL     OW25211   6.793   5.916   0.113 -0.0305 -0.0078  0.0663
 8274SOL    HW125212   6.830   5.832   0.085 -0.5154 -0.2504  0.1402
 8274SOL    HW225213   6.737   5.943   0.040  1.4188  1.0904 -0.6953
 8275SOL     OW25214   4.918   2.521   2.818 -0.5781 -0.5307  0.1257
 8275SOL    HW125215   4.972   2.495   2.892  0.3354  0.4986 -0.1498
 8275SOL    HW225216   4.843   2.462   2.821 -0.4210 -0.6903  1.6973
 8276SOL     OW25217   5.186   5.466   4.819 -0.0095 -0.4048 -0.0255
 8276SOL    HW125218   5.159   5.412   4.745  1.4930 -0.0672 -0.8706
 8276SOL    HW225219   5.231   5.540   4.778  0.8824 -0.2305  1.2331
 8277SOL     OW25220   5.055   5.220   5.185  0.0396  0.0961 -0.2885
 8277SOL    HW125221   5.107   5.170   5.248  0.3013  0.4196 -0.2421
 8277SOL    HW225222   5.112   5.226   5.108  0.2978  0.9070 -0.0515
 8278SOL     OW25223   0.530   4.693   5.634 -0.3607 -0.1009  0.1294
 8278SOL    HW125224   0.538   4.624   5.568  0.2504  1.5311 -1.6206
 8278SOL    HW225225   0.619   4.705   5.667 -0.0904  1.0550 -0.9398
 8279SOL     OW25226   6.220   1.156   1.360 -0.1496  0.0122 -0.7450
 8279SOL    HW125227   6.309   1.158   1.323 -0.6078 -1.0391 -1.9772
 8279SOL    HW225228   6.232   1.137   1.453  0.9139 -0.0351 -0.8847
 8280SOL     OW25229   4.021   6.101   0.533  0.0750  0.7537  0.1694
 8280SOL    HW125230   3.999   6.026   0.478 -0.7672  1.3773 -0.3641
 8280SOL    HW225231   4.112   6.121   0.512 -0.2024  0.9089 -0.9183
 8281SOL     OW25232   2.890   5.134   0.588  0.3115  0.1138 -0.4658
 8281SOL    HW125233   2.870   5.227   0.595  1.9954  0.3919  1.7046
 8281SOL    HW225234   2.945   5.127   0.510 -0.1225  0.8676 -0.8505
 8282SOL     OW25235   6.369   2.027   4.992 -0.0212  0.1650  0.0218
 8282SOL    HW125236   6.327   1.996   5.072 -1.2746 -0.7915 -0.9656
 8282SOL    HW225237   6.326   1.979   4.922  0.1838  1.8635 -1.3382
 8283SOL     OW25238   1.491   5.453   1.971  0.2913  0.4549 -1.0377
 8283SOL    HW125239   1.434   5.481   1.900  0.2132  0.2603 -1.0526
 8283SOL    HW225240   1.547   5.386   1.932 -0.0551  0.0248 -0.8036
 8284SOL     OW25241   3.829   6.062   0.151  0.3629 -0.1494 -0.2191
 8284SOL    HW125242   3.797   6.146   0.186 -0.4452 -0.6487  0.2723
 8284SOL    HW225243   3.924   6.073   0.147  0.1882  1.2012 -1.2480
 8285SOL     OW25244   2.330   3.009   1.042 -0.7223 -0.9111  0.0343
 8285SOL    HW125245   2.294   3.058   1.116  0.8015  0.1705  0.0937
 8285SOL    HW225246   2.420   2.990   1.068 -0.3806 -1.1344 -1.2608
 8286SOL     OW25247   5.487   5.878   2.339  0.2076  0.2605 -0.2260
 8286SOL    HW125248   5.548   5.934   2.386  0.7213 -1.5146  1.3678
 8286SOL    HW225249   5.537   5.849   2.262  0.5588  0.6488 -0.1483
 8287SOL     OW25250   6.466   1.143   2.506 -0.3856  0.0389 -0.5898
 8287SOL    HW125251   6.553   1.154   2.545 -0.2295 -1.1906 -0.5468
 8287SOL    HW225252   6.410   1.204   2.555  0.2190 -0.0062  0.1771
 8288SOL     OW25253   3.144   2.626   4.836 -0.2005  0.4984 -0.0785
 8288SOL    HW125254   3.152   2.561   4.906  0.7466 -0.9953 -1.4947
 8288SOL    HW225255   3.055   2.616   4.804 -0.1249  0.0279 -0.1521
 8289SOL     OW25256   0.001   5.865   2.384  0.4714  0.0772 -0.5780
 8289SOL    HW125257  -0.053   5.805   2.331 -0.0607  1.0412 -1.1691
 8289SOL    HW225258   0.089   5.857   2.347  0.1648  0.5100 -1.4330
 8290SOL     OW25259   5.620   5.679   6.350  0.1122 -0.3573 -0.0029
 8290SOL    HW125260   5.693   5.726   6.389 -0.2084 -0.8830  1.2917
 8290SOL    HW225261   5.653   5.590   6.335  0.3070 -0.1044 -1.2033
 8291SOL     OW25262   5.842   6.398   0.384 -0.2633 -0.1054  0.2844
 8291SOL    HW125263   5.933   6.386   0.354  0.4359 -0.6591  2.4302
 8291SOL    HW225264   5.791   6.407   0.303  1.6572 -0.0483 -0.9903
 8292SOL     OW25265   3.133   3.607   6.143 -0.1579 -0.6541  0.8761
 8292SOL    HW125266   3.063   3.647   6.092 -0.7061  0.5931  2.4862
 8292SOL    HW225267   3.209   3.663   6.127  0.1704 -1.3262  0.0374
 8293SOL     OW25268   5.458   3.566   0.559  0.0072  0.0908  0.3100
 8293SOL    HW125269   5.450   3.626   0.485  2.6974 -0.2977 -0.4306
 8293SOL    HW225270   5.512   3.614   0.622  0.1113 -0.6177  0.7698
 8294SOL     OW25271   0.447   5.146   0.235  0.3858 -0.4347  0.1908
 8294SOL    HW125272   0.495   5.224   0.264  0.3100  0.2206 -1.3379
 8294SOL    HW225273   0.404   5.113   0.314 -0.1869  1.5082  0.7451
 8295SOL     OW25274   4.226   0.612   4.489  0.1134 -0.1323  0.1323
 8295SOL    HW125275   4.157   0.672   4.516  0.0999  0.3231 -0.8613
 8295SOL    HW225276   4.306   0.650   4.524 -0.1631 -0.8966  1.6711
 8296SOL     OW25277   5.031   4.507   3.492 -0.6003  0.0987  0.0045
 8296SOL    HW125278   5.089   4.458   3.434  0.7884  1.3245  0.2926
 8296SOL    HW225279   4.995   4.576   3.436 -2.1790 -0.9146 -0.2839
 8297SOL     OW25280   0.997   4.831   1.071  0.0739  0.1478 -0.5662
 8297SOL    HW125281   1.064   4.813   1.006 -1.3189 -3.8567 -1.1560
 8297SOL    HW225282   1.045   4.865   1.147  2.8727 -2.4933 -0.9430
 8298SOL     OW25283   5.159   0.443   1.933  0.2266  0.2085 -0.0393
 8298SOL    HW125284   5.194   0.482   2.013 -0.2235  0.4894  0.0246
 8298SOL    HW225285   5.232   0.443   1.872  0.3915  0.6096  0.1524
 8299SOL     OW25286   1.402   1.822   5.643  0.1010 -0.2321  0.2094
 8299SOL    HW125287   1.441   1.741   5.674 -0.2038 -0.7051 -0.6136
 8299SOL    HW225288   1.474   1.885   5.641  0.0492 -0.0426  2.2767
 8300SOL     OW25289   2.388   4.093   2.925  0.0512  0.4640 -0.3978
 8300SOL    HW125290   2.392   4.146   2.846 -1.0180  1.3444  0.1099
 8300SOL    HW225291   2.383   4.003   2.893 -0.2702  0.8023 -1.3332
 8301SOL     OW25292   2.072   6.201   5.984  0.3115  0.0602 -0.0081
 8301SOL    HW125293   2.154   6.233   6.022  0.7571 -1.7392  0.6370
 8301SOL    HW225294   2.019   6.174   6.059 -1.1013  1.5874 -0.3822
 8302SOL     OW25295   6.126   0.371   4.386  0.4700 -0.2800 -0.2997
 8302SOL    HW125296   6.172   0.333   4.311 -0.6180  0.0904 -1.1921
 8302SOL    HW225297   6.174   0.451   4.405 -0.3564  0.6477 -1.8921
 8303SOL     OW25298   3.709   2.409   1.032 -0.2315 -0.0974 -0.7442
 8303SOL    HW125299   3.753   2.492   1.013  1.2953 -0.7414 -0.1615
 8303SOL    HW225300   3.654   2.393   0.955  0.0153  1.0727 -1.1873
 8304SOL     OW25301   3.557   1.651   1.698 -0.1504 -0.5754  0.6211
 8304SOL    HW125302   3.611   1.572   1.706 -0.5526 -0.9286 -0.1039
 8304SOL    HW225303   3.593   1.711   1.764  0.0157 -1.4436  1.3455
 8305SOL     OW25304   6.637   4.525   1.852  0.4276 -0.3798 -0.0427
 8305SOL    HW125305   6.597   4.610   1.869 -0.5086 -0.4735 -1.5751
 8305SOL    HW225306   6.730   4.539   1.869  0.1880  0.7530  0.4248
 8306SOL     OW25307   4.635   4.347   6.517  0.4648  0.0920 -0.2522
 8306SOL    HW125308   4.720   4.336   6.475 -0.1540 -0.5076 -1.4028
 8306SOL    HW225309   4.614   4.261   6.554  0.1063  0.0790 -0.4762
 8307SOL     OW25310   2.956   2.070   1.316  0.3988 -0.2678 -0.3501
 8307SOL    HW125311   3.001   2.036   1.238  1.2419 -1.0789  0.4659
 8307SOL    HW225312   2.866   2.038   1.307  1.2956 -3.4692  0.7173
 8308SOL     OW25313   3.702   0.083   1.017  0.2026 -0.5827 -0.0215
 8308SOL    HW125314   3.683   0.056   0.927  0.3991 -0.0418 -0.2307
 8308SOL    HW225315   3.669   0.173   1.022  1.0797 -0.2590  0.1387
 8309SOL     OW25316   4.616   2.263   5.338  0.3435 -0.3291  0.6015
 8309SOL    HW125317   4.528   2.236   5.315 -0.3216  0.8378  1.6440
 8309SOL    HW225318   4.605   2.350   5.378  1.8440 -0.5694  1.6297
 8310SOL     OW25319   2.536   1.417   0.321 -0.0548 -0.1650  0.0067
 8310SOL    HW125320   2.480   1.344   0.294  0.2865 -1.4455  2.4344
 8310SOL    HW225321   2.622   1.376   0.335  0.6711  1.1245 -0.5526
 8311SOL     OW25322   0.536   4.966   6.176 -0.0187  0.1422 -0.7469
 8311SOL    HW125323   0.541   5.041   6.235 -0.8736  0.0481 -0.5499
 8311SOL    HW225324   0.613   4.913   6.198 -0.7944 -0.3373  0.8935
 8312SOL     OW25325   6.690   2.242   6.257 -0.0344  0.0103 -0.2860
 8312SOL    HW125326   6.665   2.230   6.349  0.7989 -1.2345 -0.1934
 8312SOL    HW225327   6.648   2.169   6.211 -2.2102  1.8112 -1.2951
 8313SOL     OW25328   3.950   0.250   3.713  0.2159 -0.0031 -0.0917
 8313SOL    HW125329   3.925   0.164   3.745 -0.5196  0.7243  1.3892
 8313SOL    HW225330   4.028   0.273   3.764  0.1150  0.4081 -0.1192
 8314SOL     OW25331   1.838   5.288   3.634  0.3934  0.2501  0.5731
 8314SOL    HW125332   1.750   5.281   3.671  0.3670  1.2350  0.7344
 8314SOL    HW225333   1.846   5.381   3.611  1.3721  0.1527  0.5075
 8315SOL     OW25334   5.401   4.702   6.833  0.5250  0.8858  0.4873
 8315SOL    HW125335   5.361   4.696   6.746  1.0239  1.0194  0.2463
 8315SOL    HW225336   5.494   4.713   6.816  0.7148  0.2161  1.0558
 8316SOL     OW25337   2.009   0.473   2.814 -0.0682 -0.2118  0.5643
 8316SOL    HW125338   2.042   0.494   2.726 -0.9188 -1.9692 -0.2390
 8316SOL    HW225339   2.088   0.467   2.868  0.7397 -1.4686 -0.6684
 8317SOL     OW25340   3.408   5.533   0.064  0.5249 -0.2918 -0.3096
 8317SOL    HW125341   3.441   5.612   0.107  0.5945  0.1345 -1.1248
 8317SOL    HW225342   3.447   5.535  -0.023  1.4564 -1.8346  0.0303
 8318SOL     OW25343   3.162   2.671   5.317  0.0249 -0.1109 -0.2561
 8318SOL    HW125344   3.214   2.636   5.244 -1.6605 -0.7883 -1.1894
 8318SOL    HW225345   3.184   2.614   5.391  1.6774  0.5195 -0.2149
 8319SOL     OW25346   0.413   5.908   3.311 -0.1951 -0.1467  0.6201
 8319SOL    HW125347   0.477   5.855   3.359  1.0231  1.3799  0.7294
 8319SOL    HW225348   0.400   5.986   3.365 -2.3750 -0.5119  0.7223
 8320SOL     OW25349   6.024   6.516   3.294 -0.1591  0.3363 -0.0258
 8320SOL    HW125350   5.989   6.585   3.350  0.2949  0.5537 -0.0100
 8320SOL    HW225351   6.008   6.435   3.343 -2.5776  0.1812 -0.9486
 8321SOL     OW25352   2.959   5.034   1.288  0.1475  0.1186 -1.0018
 8321SOL    HW125353   2.871   5.068   1.272  0.5664  0.8253 -1.8723
 8321SOL    HW225354   2.993   5.089   1.358  0.7418  1.4038 -2.2562
 8322SOL     OW25355   1.969   5.114   2.127 -0.2552 -0.1651 -0.3260
 8322SOL    HW125356   1.983   5.194   2.177 -0.2574  0.0214 -0.6215
 8322SOL    HW225357   1.875   5.099   2.132 -0.3333  0.1579 -0.7298
 8323SOL     OW25358   4.724   6.519   0.198  0.0368  0.4144  0.1728
 8323SOL    HW125359   4.662   6.592   0.204  0.3089  0.7845 -1.2269
 8323SOL    HW225360   4.803   6.558   0.160  1.1050 -0.0825  1.7651
 8324SOL     OW25361   0.405   5.848   6.627 -0.1692 -1.1417 -0.7306
 8324SOL    HW125362   0.489   5.842   6.582 -1.3195 -0.0542 -3.2662
 8324SOL    HW225363   0.419   5.807   6.712  3.1092 -0.2675 -0.7374
 8325SOL     OW25364   6.008   3.206   1.705  0.6345 -0.0277  0.1962
 8325SOL    HW125365   5.950   3.283   1.707  0.6608 -0.0221  0.9351
 8325SOL    HW225366   6.000   3.168   1.792 -0.5675 -1.7622 -0.6240
 8326SOL     OW25367   4.645   3.376   4.834 -0.4227  0.0800  0.1039
 8326SOL    HW125368   4.736   3.390   4.810 -0.1032  1.8772  2.0791
 8326SOL    HW225369   4.647   3.302   4.895 -0.3067  0.0546  0.0690
 8327SOL     OW25370   3.975   1.198   1.716 -0.3865  0.3611  0.1735
 8327SOL    HW125371   3.897   1.148   1.692 -0.4278  0.2458  0.5378
 8327SOL    HW225372   4.014   1.149   1.788  1.1289 -0.6665 -1.2657
 8328SOL     OW25373   5.132   6.084   4.542 -0.0550 -0.2606  0.3140
 8328SOL    HW125374   5.134   6.165   4.592 -1.6368 -0.3912  0.6593
 8328SOL    HW225375   5.124   6.015   4.608  2.5916 -0.8587  0.1125
 8329SOL     OW25376   4.406   2.355   6.706  0.1678  0.2060  0.0566
 8329SOL    HW125377   4.455   2.279   6.676  0.3159  0.4504 -0.3269
 8329SOL    HW225378   4.417   2.355   6.801 -0.9002 -0.9928  0.2185
 8330SOL     OW25379   1.178   3.157   5.737  0.1829 -0.7497 -0.4504
 8330SOL    HW125380   1.152   3.150   5.829 -0.3292 -0.3764 -0.5685
 8330SOL    HW225381   1.272   3.135   5.738  0.3029 -0.2406  0.2340
 8331SOL     OW25382   1.070   3.611   5.137 -0.3611  0.6507 -0.5786
 8331SOL    HW125383   1.030   3.652   5.060  1.0118  0.2170 -1.5564
 8331SOL    HW225384   0.996   3.588   5.193 -1.4181  0.7286 -1.8962
 8332SOL     OW25385   3.828   3.550   2.519  0.1913 -0.2614 -0.0595
 8332SOL    HW125386   3.808   3.623   2.460  0.5184  0.7821  1.0700
 8332SOL    HW225387   3.822   3.472   2.464 -1.9747  0.4183 -0.9035
 8333SOL     OW25388   5.199   4.658   6.643  0.3380 -0.2090 -0.2076
 8333SOL    HW125389   5.137   4.637   6.573  0.4329  0.7185 -0.5801
 8333SOL    HW225390   5.157   4.623   6.722 -0.1219 -0.6023 -0.6146
 8334SOL     OW25391   0.909   1.637   3.797 -0.2146 -0.3761 -0.6636
 8334SOL    HW125392   0.885   1.557   3.844  0.0983 -0.2920 -0.3546
 8334SOL    HW225393   0.841   1.648   3.731 -1.5603  0.3738  0.7859
 8335SOL     OW25394   2.446   2.754   5.768  0.2185 -0.0913  0.2858
 8335SOL    HW125395   2.515   2.690   5.750  2.1285  1.4503  1.7058
 8335SOL    HW225396   2.449   2.814   5.693  0.9256  0.3581  0.6619
 8336SOL     OW25397   3.897   4.818   2.631  0.1584 -0.5136  0.2826
 8336SOL    HW125398   3.875   4.759   2.560 -0.1193  0.9994 -0.9420
 8336SOL    HW225399   3.849   4.899   2.611  0.2792  0.0361  2.0492
 8337SOL     OW25400   6.645   4.494   4.650  0.4456 -0.3551  0.1357
 8337SOL    HW125401   6.677   4.491   4.559 -0.3116  1.9967 -0.2689
 8337SOL    HW225402   6.723   4.510   4.702  0.8964 -1.7655 -0.0396
 8338SOL     OW25403   0.774   0.613   6.169  0.2653  0.1067 -0.9601
 8338SOL    HW125404   0.745   0.601   6.078 -2.4641 -0.2654 -0.1550
 8338SOL    HW225405   0.695   0.644   6.215  0.5309 -2.9223  1.9331
 8339SOL     OW25406   0.344   0.493   3.321 -0.0140  0.2918 -0.3095
 8339SOL    HW125407   0.420   0.452   3.362 -0.0144 -0.0839 -0.6684
 8339SOL    HW225408   0.286   0.420   3.300  0.2024  0.4105 -1.4079
 8340SOL     OW25409   4.775   0.783   4.418  0.6778  0.2463 -0.2253
 8340SOL    HW125410   4.869   0.769   4.433  0.5660  0.2077  0.4551
 8340SOL    HW225411   4.736   0.779   4.505  0.0342  0.2156 -0.5129
 8341SOL     OW25412   1.423   5.162   3.479  0.1727 -0.3453 -0.1679
 8341SOL    HW125413   1.434   5.146   3.572  2.2066 -0.9221 -0.4578
 8341SOL    HW225414   1.339   5.123   3.457 -0.9832  0.9684  1.6424
 8342SOL     OW25415   6.640   4.406   2.653 -0.2318 -0.2994 -0.0535
 8342SOL    HW125416   6.688   4.399   2.736  1.6406  0.3486 -1.0377
 8342SOL    HW225417   6.615   4.499   2.648 -0.8720 -0.4599  0.0442
 8343SOL     OW25418   1.913   1.775   2.877 -0.3517  0.0812 -0.3161
 8343SOL    HW125419   2.000   1.776   2.838 -0.8980 -0.7066 -1.6119
 8343SOL    HW225420   1.860   1.723   2.817 -1.3376 -0.8471  1.2838
 8344SOL     OW25421   2.361   6.816   6.460 -0.6113 -0.5144  0.1549
 8344SOL    HW125422   2.290   6.854   6.511 -1.8934 -2.2608 -0.2367
 8344SOL    HW225423   2.406   6.757   6.520 -0.4841 -0.6029 -0.0261
 8345SOL     OW25424   0.476   0.564   0.498 -0.0018 -0.2854  0.1539
 8345SOL    HW125425   0.385   0.584   0.475 -0.6172 -0.3092  2.3099
 8345SOL    HW225426   0.469   0.491   0.561  1.4802 -0.0310  0.6438
 8346SOL     OW25427   2.481   4.973   1.126 -0.0675 -0.0167 -0.8347
 8346SOL    HW125428   2.559   4.930   1.159  0.3613  0.2409 -1.4867
 8346SOL    HW225429   2.509   5.016   1.045 -1.0180 -0.4132 -1.4029
 8347SOL     OW25430   0.910   0.792   6.327 -0.0202 -0.5306  0.0692
 8347SOL    HW125431   0.862   0.743   6.260  0.8488 -1.8430  0.3702
 8347SOL    HW225432   0.845   0.852   6.364 -0.5309  0.1827 -1.8861
 8348SOL     OW25433   3.934   6.693   3.765 -0.1793 -0.2500 -0.3669
 8348SOL    HW125434   3.862   6.752   3.788 -0.9285 -0.7474 -1.3493
 8348SOL    HW225435   4.013   6.748   3.772 -0.4326 -0.0738  2.1771
 8349SOL     OW25436   0.083   1.193   4.665 -0.5807 -1.0375 -1.0575
 8349SOL    HW125437   0.008   1.208   4.722 -0.6335  0.0540 -1.3816
 8349SOL    HW225438   0.132   1.275   4.668  0.9942 -1.9643 -0.3022
 8350SOL     OW25439   4.090   0.028   2.288 -0.0583  0.8387  0.3486
 8350SOL    HW125440   4.007   0.043   2.333  0.0217 -1.9293  1.6540
 8350SOL    HW225441   4.150  -0.001   2.358  1.4393  0.9131 -0.8596
 8351SOL     OW25442   3.396   1.557   0.290  0.2994 -0.1442  0.1153
 8351SOL    HW125443   3.355   1.641   0.312  0.3217 -0.3480  0.9741
 8351SOL    HW225444   3.328   1.507   0.246  0.0253  0.0009  0.3746
 8352SOL     OW25445   0.219   2.638   1.906 -0.2862 -0.4763  0.7672
 8352SOL    HW125446   0.216   2.586   1.826  0.0253  0.0199  0.4197
 8352SOL    HW225447   0.210   2.729   1.875  1.3339 -0.1608  1.1300
 8353SOL     OW25448   4.014   3.699   3.636  0.0085  0.1951  0.2046
 8353SOL    HW125449   3.995   3.606   3.630 -0.5734  0.2994  0.4163
 8353SOL    HW225450   4.022   3.717   3.729 -0.9026  0.5505  0.2281
 8354SOL     OW25451   5.033   0.846   0.074  0.4433 -0.4843 -0.6909
 8354SOL    HW125452   5.067   0.768   0.030  1.2465  0.0271 -1.0148
 8354SOL    HW225453   5.110   0.900   0.090 -0.0373  0.0235 -0.0157
 8355SOL     OW25454   4.252   6.646   4.132 -0.1214 -0.5703 -0.2695
 8355SOL    HW125455   4.250   6.592   4.053  0.3822 -0.2187 -0.5267
 8355SOL    HW225456   4.211   6.729   4.105 -0.2348 -0.5615 -0.0746
 8356SOL     OW25457   4.406   3.555   2.030 -0.1844  0.4493  0.7004
 8356SOL    HW125458   4.391   3.609   2.108  2.4259  1.1806  0.7701
 8356SOL    HW225459   4.437   3.616   1.963  1.3058 -0.6821  0.2978
 8357SOL     OW25460   5.437   0.523   0.717  0.0124  0.2777  0.0862
 8357SOL    HW125461   5.424   0.614   0.689  0.4272  0.8717  1.7010
 8357SOL    HW225462   5.464   0.530   0.809 -0.2817 -1.5031  0.3434
 8358SOL     OW25463   6.724   6.062   6.209 -0.4086 -0.2677  0.5514
 8358SOL    HW125464   6.775   5.986   6.238  1.2146  0.1397 -1.0465
 8358SOL    HW225465   6.664   6.027   6.143 -1.5219 -0.5634  1.6781
 8359SOL     OW25466   6.123   4.893   2.042  0.3114  0.4297 -1.0127
 8359SOL    HW125467   6.131   4.885   2.137  2.1106 -1.2051 -1.2247
 8359SOL    HW225468   6.106   4.986   2.026 -1.0810  0.5478  0.9344
 8360SOL     OW25469   6.624   1.348   6.638  0.7821  0.0101 -0.5535
 8360SOL    HW125470   6.574   1.267   6.649  0.7159  0.1599  0.3407
 8360SOL    HW225471   6.694   1.324   6.577  0.9426 -0.8101 -0.0670
 8361SOL     OW25472   5.410   5.413   5.824  0.2624 -0.2251  0.1951
 8361SOL    HW125473   5.464   5.416   5.904  1.6656 -0.7826 -0.6944
 8361SOL    HW225474   5.460   5.463   5.760 -0.8208  0.1608 -0.3683
 8362SOL     OW25475   1.408   4.423   1.917  0.5093 -0.1819 -0.1488
 8362SOL    HW125476   1.500   4.429   1.891  1.1394  0.0013  1.9411
 8362SOL    HW225477   1.376   4.513   1.916  0.1639 -0.3003 -1.4052
 8363SOL     OW25478   4.932   4.537   0.458 -0.0911  0.2089 -0.6072
 8363SOL    HW125479   4.966   4.497   0.379 -1.2048 -1.1358 -0.4458
 8363SOL    HW225480   4.970   4.486   0.530 -0.1422  0.5671 -0.3191
 8364SOL     OW25481   2.259   2.274   3.835  0.3017 -0.2292 -0.9249
 8364SOL    HW125482   2.305   2.199   3.798  0.2193 -0.0436 -1.4075
 8364SOL    HW225483   2.192   2.235   3.891  0.5123 -0.5091 -0.8630
 8365SOL     OW25484   2.668   4.563   4.835  0.0066  0.2983  0.2335
 8365SOL    HW125485   2.716   4.646   4.835  1.1636 -0.3434 -0.6489
 8365SOL    HW225486   2.707   4.513   4.907  1.7456 -0.7818 -1.3713
 8366SOL     OW25487   5.574   6.071   5.260 -0.1330 -0.2194 -0.5028
 8366SOL    HW125488   5.662   6.092   5.227 -0.8946 -0.1345 -2.6356
 8366SOL    HW225489   5.519   6.140   5.225 -1.4370 -1.5584 -1.1683
 8367SOL     OW25490   1.775   2.449   1.191  0.7289  0.1941 -0.2699
 8367SOL    HW125491   1.700   2.483   1.142  1.7993 -1.2258 -3.1156
 8367SOL    HW225492   1.842   2.434   1.124  2.6022 -1.1649  1.7850
 8368SOL     OW25493   4.116   5.849   1.537 -0.3532 -0.4288  0.1204
 8368SOL    HW125494   4.187   5.853   1.600 -0.0756  1.9991 -0.2299
 8368SOL    HW225495   4.074   5.765   1.553  0.7441 -0.6279  2.3529
 8369SOL     OW25496   5.252   3.021   5.919  0.0553  0.3267 -0.5481
 8369SOL    HW125497   5.343   3.045   5.899 -0.2309  1.5950 -0.3899
 8369SOL    HW225498   5.243   3.038   6.012 -0.8679  1.9919 -0.9209
 8370SOL     OW25499   5.597   0.256   5.987  0.3850  0.3697  1.3653
 8370SOL    HW125500   5.526   0.222   5.931  0.6610  0.1056  1.1705
 8370SOL    HW225501   5.582   0.215   6.072 -0.6379  1.5680  1.7909
 8371SOL     OW25502   3.166   6.743   2.031 -0.3132  0.4761  0.0814
 8371SOL    HW125503   3.101   6.695   2.083 -1.1306  0.9634 -0.4582
 8371SOL    HW225504   3.114   6.784   1.962  0.6753  0.2907 -0.7907
 8372SOL     OW25505   5.849   4.155   2.257  0.0251 -0.1045  0.2333
 8372SOL    HW125506   5.896   4.235   2.282 -0.4358 -0.1028  1.1322
 8372SOL    HW225507   5.820   4.171   2.167  0.4834  0.4802  0.1821
 8373SOL     OW25508   2.553   2.471   6.297 -0.4389  0.4620  0.2334
 8373SOL    HW125509   2.552   2.380   6.324 -4.6489  0.4658  0.7258
 8373SOL    HW225510   2.642   2.486   6.264  0.5888 -3.5669  0.7468
 8374SOL     OW25511   6.084   0.227   4.785 -0.1433 -0.1213  0.0546
 8374SOL    HW125512   6.136   0.168   4.730  0.6709 -1.4137  2.1127
 8374SOL    HW225513   6.000   0.183   4.795  0.0195 -0.3169  0.5623
 8375SOL     OW25514   6.053   1.930   1.062 -0.4339  0.3840 -0.0461
 8375SOL    HW125515   6.006   1.940   0.980 -0.0096  0.8365 -0.2355
 8375SOL    HW225516   5.990   1.888   1.121 -0.4820 -0.6699 -0.8273
 8376SOL     OW25517   4.947   3.070   6.434 -0.5657  0.3297 -0.2472
 8376SOL    HW125518   5.035   3.043   6.462 -0.5847  0.5789  0.0667
 8376SOL    HW225519   4.941   3.042   6.343 -0.5027 -0.4939 -0.0025
 8377SOL     OW25520   5.405   1.634   2.977  0.5550 -0.3446  0.2305
 8377SOL    HW125521   5.348   1.630   3.055 -1.0764 -0.5741 -0.9218
 8377SOL    HW225522   5.438   1.724   2.976  1.1190 -0.5110  1.5236
 8378SOL     OW25523   1.978   6.378   4.357 -0.2714  0.5684  0.3280
 8378SOL    HW125524   1.894   6.406   4.320  0.5618  3.4281  0.3343
 8378SOL    HW225525   1.978   6.283   4.349 -3.0869  0.5651 -0.5512
 8379SOL     OW25526   3.020   0.039   5.989 -0.5363 -0.0942 -0.1117
 8379SOL    HW125527   3.013   0.076   5.901 -0.2759 -1.1504 -0.5987
 8379SOL    HW225528   2.954  -0.030   5.991  0.3706 -0.9820  0.0297
 8380SOL     OW25529   2.065   4.869   2.977 -0.1697  0.2199 -1.0217
 8380SOL    HW125530   2.094   4.868   2.886 -3.2226 -0.1331 -2.0961
 8380SOL    HW225531   2.040   4.778   2.995  1.2912  0.0657  0.5700
 8381SOL     OW25532   2.428   5.268   3.094  0.1778  0.2971 -0.7243
 8381SOL    HW125533   2.343   5.243   3.129 -0.2653 -1.0427 -2.5696
 8381SOL    HW225534   2.485   5.194   3.115  0.8043  1.0141  0.1556
 8382SOL     OW25535   4.316   4.690   3.282 -0.1351 -0.1855  0.0412
 8382SOL    HW125536   4.222   4.707   3.281 -0.0149  0.4753 -0.3251
 8382SOL    HW225537   4.352   4.751   3.218  0.4273 -1.1371 -0.5573
 8383SOL     OW25538   3.286   3.155   3.607  0.4760 -0.0465  0.4742
 8383SOL    HW125539   3.248   3.070   3.626  0.2884 -0.2022 -0.5419
 8383SOL    HW225540   3.378   3.137   3.587  0.6214  0.0931  0.9789
 8384SOL     OW25541   5.156   5.893   1.884 -0.0578 -0.0874  0.1503
 8384SOL    HW125542   5.235   5.947   1.888  0.9849 -1.5159 -0.4041
 8384SOL    HW225543   5.136   5.887   1.791 -1.6080  1.3137  0.3558
 8385SOL     OW25544   6.164   1.932   3.757  0.2052 -0.1171 -0.8514
 8385SOL    HW125545   6.259   1.944   3.766  0.8859 -4.6305  0.1444
 8385SOL    HW225546   6.153   1.904   3.666  0.0542 -0.8842 -0.6036
 8386SOL     OW25547   1.857   6.595   5.013 -0.4549 -0.1612  0.0097
 8386SOL    HW125548   1.897   6.518   4.971 -3.2934 -1.9973  0.3389
 8386SOL    HW225549   1.846   6.658   4.941  1.3375 -0.2872 -0.4130
 8387SOL     OW25550   5.201   5.757   6.769  0.1878  0.0827 -0.5422
 8387SOL    HW125551   5.113   5.785   6.744 -0.6388 -1.4008  0.5132
 8387SOL    HW225552   5.186   5.681   6.826  2.1485  0.0032 -0.0767
 8388SOL     OW25553   4.321   6.812   4.520 -0.2467  0.6285  0.1576
 8388SOL    HW125554   4.275   6.743   4.472 -0.3764  0.8400 -0.0254
 8388SOL    HW225555   4.412   6.783   4.522  0.7873  2.6762 -4.1956
 8389SOL     OW25556   4.027   1.644   0.474  0.5885 -0.4383 -0.6073
 8389SOL    HW125557   3.947   1.617   0.518  0.7855  1.2285  0.8516
 8389SOL    HW225558   4.098   1.609   0.529  0.8391  0.5084 -0.3101
 8390SOL     OW25559   4.511   0.452   1.998  0.4396 -0.4615 -0.2160
 8390SOL    HW125560   4.514   0.357   1.988  1.3738 -0.2830 -2.2582
 8390SOL    HW225561   4.540   0.486   1.913 -3.1581  1.7185 -0.7599
 8391SOL     OW25562   1.963   3.663   4.862  0.8859 -0.3598 -0.3193
 8391SOL    HW125563   2.022   3.669   4.937  1.1026 -1.2497 -0.4083
 8391SOL    HW225564   1.889   3.612   4.894  0.9479 -0.6882 -0.6848
 8392SOL     OW25565   4.115   3.979   5.965 -0.1588  0.1645 -0.2614
 8392SOL    HW125566   4.051   3.914   5.996 -0.1895  0.3271  0.0218
 8392SOL    HW225567   4.200   3.941   5.986 -0.1056 -0.6329 -1.7797
 8393SOL     OW25568   3.047   4.341   0.199 -0.3720  0.4342 -0.0164
 8393SOL    HW125569   3.042   4.269   0.262 -0.6162  0.6535  0.2199
 8393SOL    HW225570   3.138   4.344   0.171 -0.7828 -1.4965 -1.8221
 8394SOL     OW25571   2.645   3.237   4.356 -0.0572 -0.6369  0.3075
 8394SOL    HW125572   2.672   3.230   4.265 -0.4529 -3.0730  0.2980
 8394SOL    HW225573   2.555   3.270   4.353  0.3852  0.5638 -0.0790
 8395SOL     OW25574   1.022   3.187   3.077 -0.1056  0.1340 -0.4412
 8395SOL    HW125575   1.058   3.144   3.155  0.8163  1.2160 -0.2570
 8395SOL    HW225576   1.021   3.280   3.099 -0.7644  0.3609 -1.3648
 8396SOL     OW25577   0.457   4.787   0.710  0.3769 -0.5238 -0.3776
 8396SOL    HW125578   0.447   4.853   0.642 -0.3035 -0.2883 -0.0513
 8396SOL    HW225579   0.496   4.712   0.664  0.1591 -0.2818 -0.9714
 8397SOL     OW25580   1.284   0.069   0.565  0.2622  0.1311 -0.0379
 8397SOL    HW125581   1.350   0.092   0.630 -0.3427  0.8646  0.3185
 8397SOL    HW225582   1.259   0.152   0.525 -2.2044  0.2339  1.5228
 8398SOL     OW25583   5.334   5.304   5.013 -0.2449  0.0587  0.0548
 8398SOL    HW125584   5.292   5.365   4.952 -1.7267 -1.2981 -0.3265
 8398SOL    HW225585   5.317   5.218   4.977  0.2952 -0.6980  1.5258
 8399SOL     OW25586   4.194   2.787   3.837  0.0698 -0.5598  0.2184
 8399SOL    HW125587   4.194   2.709   3.781  2.5976  0.2207 -1.0367
 8399SOL    HW225588   4.124   2.842   3.803  0.6702 -0.7088 -1.3354
 8400SOL     OW25589   5.886   3.082   6.040 -0.2899  0.7108 -0.0868
 8400SOL    HW125590   5.869   2.989   6.023  1.6206  0.4220 -0.6367
 8400SOL    HW225591   5.865   3.094   6.133 -2.1212  0.1541 -0.3826
 8401SOL     OW25592   0.601   1.942   6.407  0.2063  0.4147 -0.0996
 8401SOL    HW125593   0.612   1.864   6.461 -1.9634  0.8259  1.0738
 8401SOL    HW225594   0.636   1.918   6.322 -3.7074 -3.3194 -1.0123
 8402SOL     OW25595   1.487   5.727   3.645 -0.1616  0.0064 -0.2511
 8402SOL    HW125596   1.512   5.817   3.667  1.3810 -0.3614 -0.4147
 8402SOL    HW225597   1.512   5.676   3.722 -2.9213 -0.0447  0.7159
 8403SOL     OW25598   5.774   2.171   4.101  0.3789 -0.2443 -0.4771
 8403SOL    HW125599   5.735   2.239   4.156  0.6798 -0.8723  0.5561
 8403SOL    HW225600   5.772   2.207   4.013 -1.0217  0.4033 -0.2117
 8404SOL     OW25601   1.347   4.680   0.010 -0.2904  0.4578 -0.2125
 8404SOL    HW125602   1.342   4.769   0.043  0.4946  0.7252 -0.7908
 8404SOL    HW225603   1.276   4.633   0.055  0.2451  0.9900  1.2261
 8405SOL     OW25604   3.274   4.839   5.550  0.2282  0.1889 -0.3621
 8405SOL    HW125605   3.246   4.777   5.617 -1.0789 -0.5790 -1.5697
 8405SOL    HW225606   3.310   4.785   5.480  2.2458  1.0167 -0.0324
 8406SOL     OW25607   0.785   3.821   4.461  0.3892 -0.0135  0.1612
 8406SOL    HW125608   0.765   3.748   4.519  0.6898  0.5281  0.9547
 8406SOL    HW225609   0.721   3.812   4.390 -0.4451 -0.2765  0.9185
 8407SOL     OW25610   5.361   6.464   4.559 -0.0205 -0.3985  0.6025
 8407SOL    HW125611   5.275   6.504   4.555  1.0122  1.9684  0.1502
 8407SOL    HW225612   5.395   6.490   4.645  0.7179 -0.1949  0.2587
 8408SOL     OW25613   1.973   6.773   6.426  0.2416 -0.2756  0.2026
 8408SOL    HW125614   1.898   6.744   6.374 -2.1146  0.6026  2.9006
 8408SOL    HW225615   2.016   6.692   6.454 -1.0445 -0.8844  0.4667
 8409SOL     OW25616   1.573   2.278   3.931  0.3792  0.4584  0.4283
 8409SOL    HW125617   1.499   2.223   3.904  0.6346  1.1744 -1.9771
 8409SOL    HW225618   1.556   2.363   3.891  3.4402  0.0822 -2.0539
 8410SOL     OW25619   6.573   1.614   4.713 -0.3254 -0.0425  0.4395
 8410SOL    HW125620   6.500   1.594   4.655  1.4092 -0.7117 -1.6315
 8410SOL    HW225621   6.603   1.701   4.686 -0.4658  0.3210  1.4191
 8411SOL     OW25622   1.809   5.124   0.708 -0.1717 -0.0429  0.3339
 8411SOL    HW125623   1.842   5.211   0.734  0.0755 -0.4368  1.4052
 8411SOL    HW225624   1.716   5.126   0.730 -0.0021 -0.3094  1.1214
 8412SOL     OW25625   4.827   5.746   2.780 -0.2467 -0.1584 -0.1167
 8412SOL    HW125626   4.815   5.775   2.690 -0.0127  1.6250  0.3676
 8412SOL    HW225627   4.880   5.666   2.774  1.2072  0.8410 -1.4980
 8413SOL     OW25628   0.161   2.926   6.404  0.3662  0.2652 -0.2999
 8413SOL    HW125629   0.205   2.847   6.374  0.6458  0.3880 -0.2121
 8413SOL    HW225630   0.150   2.914   6.498 -0.1190  0.0751 -0.3739
 8414SOL     OW25631   5.708   3.421   6.735 -0.4629  0.1372  0.8381
 8414SOL    HW125632   5.763   3.491   6.771  1.9257 -1.6126  0.8587
 8414SOL    HW225633   5.690   3.449   6.645 -0.2004  1.1289  1.0831
 8415SOL     OW25634   1.874   2.368   5.229  0.0093 -0.0248 -0.1026
 8415SOL    HW125635   1.954   2.376   5.177  1.7111  1.2618  2.4656
 8415SOL    HW225636   1.880   2.440   5.292 -0.4258 -2.9573  3.6611
 8416SOL     OW25637   4.039   2.608   1.356  0.3603 -0.3372  0.0288
 8416SOL    HW125638   4.041   2.542   1.286  0.1996 -0.9090  0.5543
 8416SOL    HW225639   4.119   2.592   1.405  0.5339  0.1466 -0.0963
 8417SOL     OW25640   4.746   0.401   3.430  0.5615  0.2327 -0.1136
 8417SOL    HW125641   4.821   0.386   3.487  0.4309  0.6552  0.1729
 8417SOL    HW225642   4.784   0.431   3.348  0.6364  2.4145  0.6689
 8418SOL     OW25643   5.426   5.771   4.078  0.1988 -0.0325  0.2979
 8418SOL    HW125644   5.477   5.771   3.997  1.5499 -0.3410  1.1264
 8418SOL    HW225645   5.387   5.684   4.082  0.3413 -0.1052  0.1104
 8419SOL     OW25646   5.686   4.533   4.398  0.7264  0.1801 -0.1275
 8419SOL    HW125647   5.776   4.504   4.415  0.9469  0.3767 -0.8818
 8419SOL    HW225648   5.666   4.497   4.312  0.2971  0.6253 -0.2147
 8420SOL     OW25649   5.923   6.719   3.449 -0.1585  0.3745 -0.2000
 8420SOL    HW125650   5.937   6.805   3.489 -0.1843  0.3560 -0.1518
 8420SOL    HW225651   5.831   6.721   3.420  0.0935  0.7069 -1.0211
 8421SOL     OW25652   4.940   5.832   6.793  0.4882  0.0418  0.0544
 8421SOL    HW125653   4.859   5.804   6.750  0.8198  0.6109 -0.9865
 8421SOL    HW225654   4.913   5.860   6.880 -0.8350  2.3151 -0.9939
 8422SOL     OW25655   6.301   0.699   2.596  0.5280  0.5263  0.5038
 8422SOL    HW125656   6.396   0.689   2.605  0.5176 -0.2907 -0.1030
 8422SOL    HW225657   6.287   0.793   2.592  1.3843  0.6444 -0.0598
 8423SOL     OW25658   6.777   5.149   2.855 -0.1650 -0.2063  0.0591
 8423SOL    HW125659   6.711   5.100   2.806 -1.1956  1.9052 -0.7956
 8423SOL    HW225660   6.821   5.203   2.789 -2.4836  3.7306  1.3872
 8424SOL     OW25661   0.540   3.892   5.549  0.4161 -0.6732 -0.0521
 8424SOL    HW125662   0.566   3.800   5.551 -0.1111 -0.8100  0.6957
 8424SOL    HW225663   0.450   3.892   5.581  1.3052  0.3950  2.7496
 8425SOL     OW25664   6.125   1.134   2.934 -0.0727 -0.3896 -0.7696
 8425SOL    HW125665   6.033   1.108   2.929  0.5272 -2.9418 -0.3492
 8425SOL    HW225666   6.172   1.065   2.886  1.6802  0.4263 -0.3211
 8426SOL     OW25667   0.691   3.851   0.883 -0.3029 -0.2109  0.1108
 8426SOL    HW125668   0.721   3.776   0.831 -1.5732 -0.4244 -0.3531
 8426SOL    HW225669   0.696   3.925   0.823 -2.5591 -0.6000 -0.6486
 8427SOL     OW25670   6.204   0.490   5.550 -0.0260 -0.2670  0.2975
 8427SOL    HW125671   6.246   0.416   5.506  1.6108  0.7060  0.1595
 8427SOL    HW225672   6.201   0.465   5.642 -1.5992 -1.4446 -0.0337
 8428SOL     OW25673   1.352   6.556   4.961  0.0134  0.0574 -0.0896
 8428SOL    HW125674   1.406   6.589   4.890  0.3169  0.0934  0.1605
 8428SOL    HW225675   1.338   6.463   4.939 -0.4333  0.2216 -0.5316
 8429SOL     OW25676   5.905   5.663   6.782  0.5457  0.5021 -0.2872
 8429SOL    HW125677   5.827   5.709   6.811 -0.1242  0.2569 -1.6383
 8429SOL    HW225678   5.967   5.673   6.855 -1.0501 -0.1135  1.2443
 8430SOL     OW25679   5.441   5.326   6.296  0.9488  0.1186 -0.1426
 8430SOL    HW125680   5.369   5.387   6.279  0.8235  0.1779  0.5497
 8430SOL    HW225681   5.400   5.252   6.342  1.0189 -0.7235 -1.4052
 8431SOL     OW25682   0.921   0.634   0.541 -0.0562  0.1220  0.3143
 8431SOL    HW125683   0.845   0.679   0.504  0.2021  0.3917  0.1038
 8431SOL    HW225684   0.898   0.621   0.633 -0.2692  0.3939  0.3031
 8432SOL     OW25685   0.820   4.724   2.431  0.0985  0.0750 -0.3306
 8432SOL    HW125686   0.798   4.735   2.524 -1.6164  1.1400 -0.8150
 8432SOL    HW225687   0.788   4.804   2.390  1.2071 -0.2041 -1.7978
 8433SOL     OW25688   5.403   0.007   1.338 -0.1188  0.4317 -0.0985
 8433SOL    HW125689   5.491   0.033   1.364  0.4718  0.7013 -2.2366
 8433SOL    HW225690   5.413  -0.081   1.301 -1.3859 -1.1298  2.8471
 8434SOL     OW25691   6.549   5.794   6.642  0.6448 -0.0170  0.0492
 8434SOL    HW125692   6.619   5.854   6.666 -0.5834  2.3788 -2.0007
 8434SOL    HW225693   6.578   5.754   6.560  1.4745 -2.4320  1.4033
 8435SOL     OW25694   2.341   5.660   0.022  0.5448  0.0711  0.4181
 8435SOL    HW125695   2.309   5.737   0.068 -1.9656 -1.3152  1.1993
 8435SOL    HW225696   2.294   5.659  -0.061  0.9969 -0.3230  0.1554
 8436SOL     OW25697   4.868   6.218   3.282  0.9247  0.6013 -0.2754
 8436SOL    HW125698   4.943   6.159   3.291 -0.3040 -0.8526  1.0820
 8436SOL    HW225699   4.886   6.288   3.345  0.5494 -0.4536  1.0598
 8437SOL     OW25700   2.607   5.372   2.694  0.2114  0.1945 -0.2362
 8437SOL    HW125701   2.702   5.377   2.688  0.4176  0.3254  2.1284
 8437SOL    HW225702   2.575   5.448   2.646  1.3260  0.5133 -0.4876
 8438SOL     OW25703   0.200   6.760   5.534 -0.3217 -0.9540 -0.0847
 8438SOL    HW125704   0.141   6.726   5.601  0.1416 -1.6547 -0.0137
 8438SOL    HW225705   0.242   6.836   5.574 -2.3119  0.5541 -0.6877
 8439SOL     OW25706   1.569   0.837   3.765 -0.1054 -0.1213  0.4275
 8439SOL    HW125707   1.563   0.803   3.854 -0.1151  0.1368  0.5280
 8439SOL    HW225708   1.646   0.893   3.765 -1.0530  1.2466  0.7564
 8440SOL     OW25709   6.464   0.907   0.315  0.8007  0.3921 -0.1756
 8440SOL    HW125710   6.401   0.906   0.387  1.0343  0.7199  0.0388
 8440SOL    HW225711   6.541   0.950   0.352  0.8643  0.7079 -0.6721
 8441SOL     OW25712   2.765   2.030   5.727 -0.4719 -0.1678  0.2892
 8441SOL    HW125713   2.691   1.987   5.684 -1.0888 -0.1822  1.3359
 8441SOL    HW225714   2.820   2.061   5.655 -2.8240  2.2272 -0.6385
 8442SOL     OW25715   5.261   6.478   4.867 -0.1382  0.3640  0.1572
 8442SOL    HW125716   5.334   6.539   4.863  1.3168 -1.2571  0.7646
 8442SOL    HW225717   5.302   6.392   4.882 -2.1545 -0.6238  0.3505
 8443SOL     OW25718   3.949   4.982   4.161  0.2550 -0.0044  0.3107
 8443SOL    HW125719   3.989   5.002   4.076 -1.9264 -1.3204 -1.1194
 8443SOL    HW225720   3.968   4.889   4.176  0.4208  0.1557  1.1821
 8444SOL     OW25721   0.359   4.942   0.475  0.4872  0.3494 -0.6768
 8444SOL    HW125722   0.368   4.900   0.390  0.2387 -1.3795  0.1165
 8444SOL    HW225723   0.272   4.917   0.506  1.3078 -0.7047  0.9164
 8445SOL     OW25724   0.099   1.729   3.437 -0.2012 -0.0785 -0.2070
 8445SOL    HW125725   0.132   1.738   3.526 -0.6959  0.0198 -0.0305
 8445SOL    HW225726   0.157   1.665   3.396  0.9286  0.9376 -0.2532
 8446SOL     OW25727   3.189   1.645   1.959 -0.2528  0.5510  0.1028
 8446SOL    HW125728   3.259   1.668   2.020 -0.1154 -1.5863  0.8576
 8446SOL    HW225729   3.218   1.679   1.875  1.0266  0.9075  0.6646
 8447SOL     OW25730   5.126   3.873   6.797  0.2252  0.4566 -0.5150
 8447SOL    HW125731   5.202   3.816   6.802 -0.5476 -0.8176 -2.1366
 8447SOL    HW225732   5.074   3.837   6.725 -0.9582  2.4423 -0.7335
 8448SOL     OW25733   1.933   6.631   1.986 -0.7119 -0.8071 -0.1787
 8448SOL    HW125734   1.897   6.608   1.900  0.6664 -1.3385 -0.6335
 8448SOL    HW225735   1.892   6.569   2.046 -0.3234 -1.6349 -0.7401
 8449SOL     OW25736   3.149   4.181   4.634 -0.0125 -0.3479 -0.4526
 8449SOL    HW125737   3.147   4.188   4.730 -0.1940  0.7274 -0.5134
 8449SOL    HW225738   3.150   4.087   4.616 -1.1757 -0.5753  0.5841
 8450SOL     OW25739   3.032   1.496   3.641  0.4268  0.0767  0.6776
 8450SOL    HW125740   3.001   1.433   3.576 -0.7413  0.5997  0.7104
 8450SOL    HW225741   3.098   1.548   3.595 -0.8654  0.8800 -0.3148
 8451SOL     OW25742   4.969   4.506   2.942 -0.0499  0.6361  0.2089
 8451SOL    HW125743   4.879   4.513   2.974  0.0496 -2.1172  1.3642
 8451SOL    HW225744   4.973   4.422   2.897  1.9373  0.6955  0.1634
 8452SOL     OW25745   5.185   2.496   0.956 -0.8939 -0.2955  0.2717
 8452SOL    HW125746   5.111   2.527   1.008 -0.0393  2.1457  0.1587
 8452SOL    HW225747   5.174   2.401   0.953 -2.2313 -0.3285  2.9673
 8453SOL     OW25748   3.698   4.821   5.879  0.3600 -0.5429  0.1490
 8453SOL    HW125749   3.786   4.790   5.899  0.3429  0.2699  1.6840
 8453SOL    HW225750   3.702   4.916   5.895 -0.8390 -0.5285  0.5090
 8454SOL     OW25751   5.196   4.179   2.067  0.2524 -0.3043 -0.6066
 8454SOL    HW125752   5.215   4.273   2.066  3.6233 -0.8567  0.3760
 8454SOL    HW225753   5.192   4.154   1.975  3.6436  0.1735 -1.0000
 8455SOL     OW25754   5.369   1.138   5.394  0.1124  0.0625  0.4026
 8455SOL    HW125755   5.447   1.088   5.422  0.4109  0.8732  1.0531
 8455SOL    HW225756   5.355   1.201   5.465 -0.9225  0.1691  0.1082
 8456SOL     OW25757   4.556   0.028   1.337 -0.4808  0.3212  0.1208
 8456SOL    HW125758   4.488  -0.023   1.380  0.4939  0.2248  1.6177
 8456SOL    HW225759   4.615  -0.037   1.299 -0.8834  0.3976 -0.6576
 8457SOL     OW25760   6.754   4.401   1.602  0.0324  0.3489 -0.2658
 8457SOL    HW125761   6.708   4.322   1.574  0.3822  0.2912 -0.6777
 8457SOL    HW225762   6.751   4.397   1.698 -0.5347  0.1813 -0.2876
 8458SOL     OW25763   3.797   0.211   4.088 -0.4173  0.2400 -0.1222
 8458SOL    HW125764   3.845   0.230   4.169 -1.2335 -1.0089  0.6939
 8458SOL    HW225765   3.706   0.199   4.117 -0.7425 -0.0574 -1.2429
 8459SOL     OW25766   0.248   1.803   1.738  0.0514  0.1881 -0.4510
 8459SOL    HW125767   0.307   1.860   1.688  0.9226  1.4497  1.8519
 8459SOL    HW225768   0.251   1.838   1.827 -2.8991 -0.7700  0.1357
 8460SOL     OW25769   4.339   3.765   2.181  0.2830  0.3367  0.1909
 8460SOL    HW125770   4.244   3.765   2.195  0.0352  1.7422 -1.2281
 8460SOL    HW225771   4.363   3.857   2.186  1.6633 -0.0457  0.9539
 8461SOL     OW25772   4.002   4.262   1.690  0.1957  0.7244  0.1654
 8461SOL    HW125773   4.008   4.243   1.784  1.2708 -1.4603 -0.2792
 8461SOL    HW225774   4.080   4.315   1.672  0.3282  0.6182  0.4152
 8462SOL     OW25775   6.187   5.891   5.747 -0.2361 -0.1237  0.0319
 8462SOL    HW125776   6.228   5.911   5.662  0.7296  0.4892  0.6207
 8462SOL    HW225777   6.124   5.962   5.760  1.0372  0.9259  0.7216
 8463SOL     OW25778   5.453   4.681   1.249  0.7465 -0.1277  0.0612
 8463SOL    HW125779   5.502   4.694   1.330  0.2963 -0.9768  0.4801
 8463SOL    HW225780   5.496   4.606   1.207 -0.8090 -1.6056  0.9660
 8464SOL     OW25781   6.387   0.513   4.703 -0.2284 -0.2740  0.1644
 8464SOL    HW125782   6.399   0.422   4.731 -0.5681 -0.5057 -0.4326
 8464SOL    HW225783   6.419   0.565   4.777 -2.4958 -0.8488  1.6269
 8465SOL     OW25784   2.776   2.709   4.742 -0.4426 -0.4830 -0.2483
 8465SOL    HW125785   2.725   2.666   4.674  0.8014 -1.9722 -0.2804
 8465SOL    HW225786   2.841   2.760   4.694 -1.0077  0.3174 -0.1848
 8466SOL     OW25787   4.313   3.685   4.568 -0.4548  0.2415  0.0968
 8466SOL    HW125788   4.373   3.613   4.551 -0.2304  0.5349 -0.3967
 8466SOL    HW225789   4.228   3.642   4.581 -0.2764 -0.1282  0.0666
 8467SOL     OW25790   2.355   0.579   6.160  0.0575  0.1033 -0.2355
 8467SOL    HW125791   2.288   0.645   6.172  1.4858  1.9536 -1.7679
 8467SOL    HW225792   2.352   0.558   6.066  0.7938 -0.6646 -0.1023
 8468SOL     OW25793   4.291   1.288   3.809  0.3338  0.0391  0.2048
 8468SOL    HW125794   4.338   1.227   3.752 -0.9545  2.0840 -3.3472
 8468SOL    HW225795   4.359   1.327   3.864  1.8027 -1.3956 -0.5215
 8469SOL     OW25796   0.723   0.427   2.738 -0.4197 -0.4574  0.1032
 8469SOL    HW125797   0.739   0.439   2.644  0.7583 -0.3944  0.3070
 8469SOL    HW225798   0.703   0.514   2.771 -0.3345 -0.4010  0.0045
 8470SOL     OW25799   4.523   3.142   4.274 -0.1880 -0.6938  0.3463
 8470SOL    HW125800   4.519   3.136   4.179  0.5031  2.1168  0.0729
 8470SOL    HW225801   4.540   3.052   4.303  2.0650 -1.2507 -2.3516
 8471SOL     OW25802   2.205   0.550   2.207  0.2304 -0.2464 -0.1148
 8471SOL    HW125803   2.291   0.581   2.236 -0.3877  0.1505  1.4283
 8471SOL    HW225804   2.144   0.586   2.272 -1.0212 -1.1099 -0.7715
 8472SOL     OW25805   0.874   4.988   3.340  0.0678 -0.2957 -0.1363
 8472SOL    HW125806   0.856   4.905   3.296  1.5169 -0.4078 -0.5613
 8472SOL    HW225807   0.800   5.000   3.399  0.9369 -3.1467  1.7859
 8473SOL     OW25808   0.890   5.428   2.307  0.0401 -0.1824 -0.2097
 8473SOL    HW125809   0.846   5.369   2.246  0.6236  0.4143 -1.2302
 8473SOL    HW225810   0.943   5.485   2.252  0.5128  0.4403  0.8524
 8474SOL     OW25811   3.239   4.481   1.740 -0.3119  0.3000  0.8763
 8474SOL    HW125812   3.321   4.522   1.714 -1.6171  1.6730 -1.3774
 8474SOL    HW225813   3.173   4.551   1.731 -2.2341 -1.5712 -0.5388
 8475SOL     OW25814   3.541   4.358   4.389 -0.4525  0.3162  0.3528
 8475SOL    HW125815   3.623   4.368   4.342 -0.1090  0.0976  0.9024
 8475SOL    HW225816   3.494   4.290   4.340 -0.1486  0.1703  0.2591
 8476SOL     OW25817   4.609   5.586   4.948  0.4365  0.3772  0.5697
 8476SOL    HW125818   4.559   5.528   5.005  2.4689 -2.1448 -0.0119
 8476SOL    HW225819   4.694   5.595   4.992  0.5970  1.8913  0.0001
 8477SOL     OW25820   0.040   4.894   5.116  0.9880 -0.2292  0.0977
 8477SOL    HW125821  -0.051   4.923   5.103  0.6722 -1.3799 -0.3845
 8477SOL    HW225822   0.091   4.949   5.057  0.8043  1.3871  1.3737
 8478SOL     OW25823   6.660   0.917   1.653 -0.0273 -0.3650  0.0626
 8478SOL    HW125824   6.665   1.000   1.604 -1.3638 -0.0545  0.4262
 8478SOL    HW225825   6.745   0.876   1.637  0.0286  0.2721 -1.5576
 8479SOL     OW25826   4.100   0.876   4.630 -0.2338  0.5160  0.0332
 8479SOL    HW125827   4.155   0.937   4.581 -1.5043 -0.1135 -2.3418
 8479SOL    HW225828   4.012   0.913   4.623 -0.8295 -0.9348 -0.3776
 8480SOL     OW25829   6.652   5.716   3.080  0.0175  0.1447  0.6062
 8480SOL    HW125830   6.604   5.720   2.997 -0.5347  2.6292  0.9716
 8480SOL    HW225831   6.716   5.787   3.074  0.5924 -0.2307  1.9486
 8481SOL     OW25832   3.740   4.567   1.215  0.4330 -0.0735 -0.2464
 8481SOL    HW125833   3.746   4.662   1.223  0.9493 -0.0394 -1.0283
 8481SOL    HW225834   3.830   4.537   1.210  0.3122 -0.7078  1.0005
 8482SOL     OW25835   5.284   4.393   5.628 -0.0512 -0.4968 -0.1302
 8482SOL    HW125836   5.232   4.383   5.548 -0.2591 -0.8449  0.0453
 8482SOL    HW225837   5.367   4.350   5.609 -0.4063 -1.3198  0.1202
 8483SOL     OW25838   4.854   2.003   1.189  0.4111  0.1851  0.2429
 8483SOL    HW125839   4.762   2.011   1.167  0.8231  2.3682 -1.0774
 8483SOL    HW225840   4.861   2.036   1.279  0.0122  0.9049  0.0163
 8484SOL     OW25841   4.988   4.000   0.726  0.7113  0.1898 -0.2974
 8484SOL    HW125842   5.069   3.969   0.684 -0.1015  0.8181 -2.4353
 8484SOL    HW225843   4.949   4.059   0.662 -1.5155 -0.1796  0.6550
 8485SOL     OW25844   0.618   5.816   1.610 -0.4914 -0.0754  0.2288
 8485SOL    HW125845   0.703   5.804   1.652 -0.3698  0.8498  0.2786
 8485SOL    HW225846   0.594   5.907   1.630 -0.5005  0.3505 -1.5416
 8486SOL     OW25847   2.578   1.044   4.802 -1.0997 -0.0467 -0.5177
 8486SOL    HW125848   2.594   0.950   4.801  0.4149  0.1710  0.3640
 8486SOL    HW225849   2.534   1.062   4.718 -3.0324 -1.7556  0.0406
 8487SOL     OW25850   1.768   1.543   1.203 -0.0808  0.3106 -0.2369
 8487SOL    HW125851   1.795   1.544   1.295  1.9743  2.5198 -0.7750
 8487SOL    HW225852   1.708   1.616   1.195  0.5843  0.8023 -0.8421
 8488SOL     OW25853   4.417   5.244   0.672 -0.4409 -0.5037  0.5389
 8488SOL    HW125854   4.463   5.325   0.695  0.1237 -1.2224  2.0608
 8488SOL    HW225855   4.421   5.191   0.751 -2.4188 -1.2923  0.1648
 8489SOL     OW25856   0.508   3.167   1.207 -0.5521  0.7378  0.1578
 8489SOL    HW125857   0.433   3.107   1.206 -1.6309  1.7847  3.4324
 8489SOL    HW225858   0.569   3.130   1.144 -1.8907 -2.7896  0.6838
 8490SOL     OW25859   0.568   1.466   2.054  0.1293 -0.2567 -0.1459
 8490SOL    HW125860   0.476   1.450   2.034  0.7082 -2.5823 -1.2739
 8490SOL    HW225861   0.617   1.415   1.989  2.2116 -0.5695  1.5281
 8491SOL     OW25862   4.302   4.345   6.796 -0.2292  0.2015 -0.1095
 8491SOL    HW125863   4.269   4.435   6.798 -0.4620  0.1154 -0.1057
 8491SOL    HW225864   4.226   4.291   6.818  0.3485  0.1227  1.8188
 8492SOL     OW25865   2.571   6.508   3.926 -0.2892  0.3759  0.1917
 8492SOL    HW125866   2.557   6.494   4.020 -0.6222  0.1985  0.1186
 8492SOL    HW225867   2.627   6.586   3.921 -0.2216  0.3524  0.5373
 8493SOL     OW25868   3.283   5.215   6.830  0.2724 -0.4459  0.0371
 8493SOL    HW125869   3.236   5.132   6.840  1.1302 -1.1054 -1.1791
 8493SOL    HW225870   3.279   5.255   6.917 -0.0757 -1.8006  0.6732
 8494SOL     OW25871   6.088   5.981   0.402  0.1212  0.7535 -0.4255
 8494SOL    HW125872   6.162   5.941   0.356 -0.4286  0.4955 -1.1015
 8494SOL    HW225873   6.013   5.966   0.345 -0.4976  0.8356  0.3432
 8495SOL     OW25874   1.892   4.337   2.208  0.0142  0.5380 -0.5747
 8495SOL    HW125875   1.853   4.359   2.293 -1.0283 -0.6838 -0.7087
 8495SOL    HW225876   1.887   4.418   2.158 -2.0021  0.5593 -0.4330
 8496SOL     OW25877   1.391   6.136   5.378  0.2700 -0.8881  0.1281
 8496SOL    HW125878   1.395   6.212   5.320  0.6352 -0.3640  0.8189
 8496SOL    HW225879   1.363   6.064   5.322  0.9728 -0.4724 -0.7778
 8497SOL     OW25880   0.840   1.332   2.370 -0.0917 -0.1121  0.7882
 8497SOL    HW125881   0.825   1.244   2.335 -2.2099  0.4611  0.0976
 8497SOL    HW225882   0.880   1.380   2.298  1.6270 -0.5949  1.3526
 8498SOL     OW25883   2.855   4.219   1.764  0.9232  0.3907  0.1350
 8498SOL    HW125884   2.829   4.288   1.703 -0.0493 -0.8222 -0.8682
 8498SOL    HW225885   2.909   4.264   1.829  1.8657  1.7584 -1.5157
 8499SOL     OW25886   0.250   1.861   4.806 -0.1914  0.2042 -0.1996
 8499SOL    HW125887   0.279   1.841   4.717  0.5070  0.2318  0.0164
 8499SOL    HW225888   0.180   1.798   4.823 -1.8549  1.5790 -1.5524
 8500SOL     OW25889   2.310   2.386   2.012  0.3173 -0.0925 -0.2556
 8500SOL    HW125890   2.256   2.426   1.944 -0.2357  1.3685  0.9774
 8500SOL    HW225891   2.335   2.459   2.069  0.6109 -1.2728  1.2022
 8501SOL     OW25892   4.741   4.572   4.889 -0.4221  0.4259 -0.8783
 8501SOL    HW125893   4.698   4.492   4.859 -0.0847 -1.5775  3.2473
 8501SOL    HW225894   4.831   4.545   4.908 -0.8388  1.0842  2.6011
 8502SOL     OW25895   3.995   4.548   1.247  0.0972  0.7525 -0.3206
 8502SOL    HW125896   4.020   4.634   1.213  2.2918 -0.0300 -0.8806
 8502SOL    HW225897   4.070   4.521   1.300 -1.2589 -0.1315  1.2360
 8503SOL     OW25898   6.730   6.730   0.650 -0.7021  0.2535  0.2571
 8503SOL    HW125899   6.820   6.698   0.647 -0.7547  0.1367 -1.9832
 8503SOL    HW225900   6.694   6.707   0.564 -2.1974  2.2127  0.3033
 8504SOL     OW25901   3.022   1.703   2.743 -0.1830  0.3446  0.1745
 8504SOL    HW125902   3.086   1.675   2.677  0.3272 -0.0116  0.8098
 8504SOL    HW225903   3.037   1.798   2.751  0.1068  0.3004  0.1608
 8505SOL     OW25904   4.316   6.017   1.999  0.3572 -0.4128  0.0967
 8505SOL    HW125905   4.369   5.945   1.964 -0.2793 -1.7065  1.6198
 8505SOL    HW225906   4.313   5.999   2.093 -2.2400 -0.0416  0.1424
 8506SOL     OW25907   6.454   3.792   0.018  0.2907  0.0935 -0.3620
 8506SOL    HW125908   6.516   3.855  -0.020  2.0401 -0.2686  1.6698
 8506SOL    HW225909   6.410   3.840   0.088 -1.6265  0.2711 -1.6298
 8507SOL     OW25910   0.629   2.377   5.917  0.4240  0.2926  0.1111
 8507SOL    HW125911   0.662   2.433   5.987  0.9754  0.0327  0.0643
 8507SOL    HW225912   0.646   2.288   5.948  0.6940  0.1768 -0.3586
 8508SOL     OW25913   4.314   3.632   6.545 -0.3342  0.4682  0.2986
 8508SOL    HW125914   4.377   3.628   6.473 -0.3392  2.3546  0.1205
 8508SOL    HW225915   4.236   3.671   6.506  0.0056  2.4819  1.4866
 8509SOL     OW25916   0.138   1.052   4.047  0.8717  0.4030 -0.1479
 8509SOL    HW125917   0.190   0.972   4.034  1.2970  0.7311 -0.4799
 8509SOL    HW225918   0.099   1.070   3.962 -0.6384 -0.4127  0.3328
 8510SOL     OW25919   3.493   5.405   1.076  0.0415 -0.0823 -0.5068
 8510SOL    HW125920   3.406   5.368   1.060  0.5827 -1.2810 -0.7796
 8510SOL    HW225921   3.542   5.386   0.996  0.4770  0.8492 -0.4723
 8511SOL     OW25922   1.088   0.167   5.553 -0.4242  0.0449  0.5994
 8511SOL    HW125923   0.997   0.179   5.582 -0.9345 -0.0229 -0.9041
 8511SOL    HW225924   1.114   0.254   5.522  0.4613  0.3601  2.1301
 8512SOL     OW25925   4.307   6.377   3.811 -0.6910 -0.1767 -0.0860
 8512SOL    HW125926   4.396   6.411   3.818 -1.3534  1.6227 -0.0601
 8512SOL    HW225927   4.291   6.372   3.717 -0.3217 -1.2243 -0.1074
 8513SOL     OW25928   2.635   1.497   3.041 -0.6434  0.2539  0.0389
 8513SOL    HW125929   2.562   1.513   2.980 -0.6008 -1.7400 -0.6139
 8513SOL    HW225930   2.711   1.537   2.998 -0.8005 -0.2977 -0.7846
 8514SOL     OW25931   3.888   4.633   2.414  0.0851  0.0647 -0.0636
 8514SOL    HW125932   3.856   4.655   2.326 -1.6638  1.1710  0.7945
 8514SOL    HW225933   3.912   4.541   2.408  0.5737  0.2592 -1.8384
 8515SOL     OW25934   2.117   4.965   6.253 -0.3529  0.1294  0.1685
 8515SOL    HW125935   2.064   4.918   6.317 -0.5248  1.5164  1.0931
 8515SOL    HW225936   2.143   4.899   6.189 -0.5527 -1.1980  1.4303
 8516SOL     OW25937   2.707   0.877   1.424 -0.1776 -0.0524  0.2718
 8516SOL    HW125938   2.790   0.923   1.421  0.6174 -1.2142  2.2966
 8516SOL    HW225939   2.658   0.920   1.493 -1.4133  0.7784 -1.0641
 8517SOL     OW25940   6.827   2.482   2.189 -0.4312 -0.5874  0.4235
 8517SOL    HW125941   6.868   2.410   2.237  0.3996 -0.2200  0.2801
 8517SOL    HW225942   6.753   2.442   2.145  0.0844 -1.3830  0.2563
 8518SOL     OW25943   0.335   3.191   3.420  0.0749 -0.0702 -0.0469
 8518SOL    HW125944   0.355   3.282   3.440  1.0402 -0.4352  0.6937
 8518SOL    HW225945   0.400   3.140   3.468  0.2289 -1.1235 -1.3028
 8519SOL     OW25946   3.250   5.815   4.031 -0.4187 -0.0830  0.0715
 8519SOL    HW125947   3.238   5.765   3.950  2.1821  0.5142 -0.7790
 8519SOL    HW225948   3.298   5.755   4.089 -0.2824  0.2638  0.3213
 8520SOL     OW25949   6.272   2.540   5.409 -0.2276  0.0296  0.2370
 8520SOL    HW125950   6.264   2.596   5.485  1.3319  0.3852  0.1641
 8520SOL    HW225951   6.328   2.589   5.349 -1.7397 -0.0582 -1.3350
 8521SOL     OW25952   4.726   1.590   5.907  0.3072 -0.2816  0.5500
 8521SOL    HW125953   4.676   1.525   5.955 -0.9940  0.5522  0.3707
 8521SOL    HW225954   4.800   1.542   5.871 -0.1151 -1.4515  1.2000
 8522SOL     OW25955   5.978   5.274   6.192 -0.1969 -0.4852  0.3777
 8522SOL    HW125956   6.014   5.279   6.103  1.0509 -1.3487  0.7976
 8522SOL    HW225957   6.012   5.352   6.236  1.4896 -1.4158  0.8433
 8523SOL     OW25958   3.532   0.113   5.707  0.4054 -0.0316  0.0481
 8523SOL    HW125959   3.516   0.202   5.736  0.4416 -0.1973  0.5758
 8523SOL    HW225960   3.520   0.059   5.785  0.8158 -0.4438 -0.1693
 8524SOL     OW25961   1.564   4.595   5.223  0.2850  0.4585  0.1791
 8524SOL    HW125962   1.632   4.624   5.162  0.6520  1.0243  0.8359
 8524SOL    HW225963   1.512   4.674   5.240 -1.4797 -0.2897 -1.4712
 8525SOL     OW25964   0.399   1.569   5.548  0.1521  0.4950  0.0247
 8525SOL    HW125965   0.344   1.626   5.603 -0.9743  0.7937 -1.3546
 8525SOL    HW225966   0.393   1.608   5.461 -0.0132 -1.2802 -0.8032
 8526SOL     OW25967   5.347   0.409   3.836 -0.7801  0.0459  0.2135
 8526SOL    HW125968   5.443   0.416   3.834 -0.8182  0.4227 -0.9530
 8526SOL    HW225969   5.324   0.370   3.752 -1.6083 -0.8113  0.8221
 8527SOL     OW25970   4.768   4.567   1.717  0.1675 -0.3712 -0.3860
 8527SOL    HW125971   4.847   4.514   1.727 -1.0126 -2.3316 -0.9030
 8527SOL    HW225972   4.748   4.562   1.623  0.5099  1.7862 -0.6178
 8528SOL     OW25973   1.498   4.238   3.358  0.1427 -0.2646  0.3862
 8528SOL    HW125974   1.510   4.239   3.263  3.0035 -2.9748  0.5821
 8528SOL    HW225975   1.442   4.161   3.374  0.6232 -0.5081  0.9351
 8529SOL     OW25976   2.519   1.716   6.601  0.2848  0.3367  0.5262
 8529SOL    HW125977   2.606   1.753   6.608  0.5056 -0.1262  0.2769
 8529SOL    HW225978   2.529   1.624   6.628 -0.1915  0.3676  0.8442
 8530SOL     OW25979   4.313   5.995   5.587 -0.6598  0.0308 -0.2044
 8530SOL    HW125980   4.356   5.999   5.672 -2.5564  0.5855  0.7852
 8530SOL    HW225981   4.380   5.963   5.527  1.2845  1.4361  1.1057
 8531SOL     OW25982   0.259   4.994   2.510 -0.2099  0.0072  0.4403
 8531SOL    HW125983   0.260   5.049   2.431  4.3904 -0.9309 -0.4685
 8531SOL    HW225984   0.336   5.022   2.559 -1.3281 -1.4102  3.2344
 8532SOL     OW25985   6.492   2.879   2.100 -0.0132 -0.0708  0.8742
 8532SOL    HW125986   6.436   2.810   2.064  0.7188 -0.9059  1.3097
 8532SOL    HW225987   6.446   2.960   2.079 -1.1758 -0.7154  0.8459
 8533SOL     OW25988   3.005   6.697   3.443  0.3280 -0.3247  0.0411
 8533SOL    HW125989   3.055   6.755   3.385 -0.9054  0.6719 -0.0881
 8533SOL    HW225990   3.058   6.618   3.450  1.5421  0.3904 -0.6858
 8534SOL     OW25991   1.821   6.565   3.671  0.0447 -0.0628  0.1390
 8534SOL    HW125992   1.881   6.515   3.616  1.8133  0.5194  1.4450
 8534SOL    HW225993   1.800   6.643   3.620 -2.3714 -1.7859 -1.7224
 8535SOL     OW25994   3.410   5.058   6.129 -0.1944  0.2657  0.3425
 8535SOL    HW125995   3.458   4.976   6.115 -0.6692  0.0830 -0.2685
 8535SOL    HW225996   3.402   5.096   6.041  0.3029  1.1280  0.6671
 8536SOL     OW25997   4.244   3.022   6.410  0.2650 -0.3726 -0.2253
 8536SOL    HW125998   4.179   3.088   6.433  2.3057  0.9402  2.1993
 8536SOL    HW225999   4.259   2.974   6.492  4.2761  1.2131  0.1797
 8537SOL     OW26000   2.661   2.237   2.832 -0.3309 -0.3054  0.3328
 8537SOL    HW126001   2.590   2.279   2.784  0.5824 -0.0049 -0.7859
 8537SOL    HW226002   2.650   2.267   2.922 -0.9637  0.6292 -0.0434
 8538SOL     OW26003   4.769   3.383   1.047 -0.0872 -0.1068  0.1541
 8538SOL    HW126004   4.852   3.369   1.002 -0.1462  1.5849 -0.5515
 8538SOL    HW226005   4.780   3.466   1.094 -1.2858  0.0153  0.2577
 8539SOL     OW26006   4.321   0.545   3.770 -0.6339 -0.3153 -0.0414
 8539SOL    HW126007   4.401   0.496   3.751  0.1018  1.1398 -0.9016
 8539SOL    HW226008   4.343   0.636   3.748 -2.4583  0.1489 -0.1101
 8540SOL     OW26009   4.293   4.746   5.655  0.4837 -0.3261  0.1362
 8540SOL    HW126010   4.249   4.661   5.647  2.1959 -1.6932  3.3350
 8540SOL    HW226011   4.231   4.801   5.703  0.5497 -0.8482  0.8404
 8541SOL     OW26012   6.476   1.938   2.648  0.3299 -0.3578  0.1948
 8541SOL    HW126013   6.393   1.972   2.679  1.4682  1.5139  1.4084
 8541SOL    HW226014   6.517   1.899   2.725  1.2859  0.3102  0.0502
 8542SOL     OW26015   5.370   1.037   3.327 -0.5783  0.0404  0.1281
 8542SOL    HW126016   5.392   1.127   3.301  1.0028 -0.8472 -1.9411
 8542SOL    HW226017   5.311   1.047   3.401  2.0421  2.8029  2.1054
 8543SOL     OW26018   3.154   2.588   3.333  0.4835  0.1525  0.1613
 8543SOL    HW126019   3.189   2.648   3.268 -2.4138  0.5948 -1.1450
 8543SOL    HW226020   3.194   2.503   3.312  0.3821  0.5042 -1.5430
 8544SOL     OW26021   0.789   0.074   2.485 -0.3667  0.3872  0.5913
 8544SOL    HW126022   0.840   0.018   2.544 -2.1974 -2.1370 -0.0156
 8544SOL    HW226023   0.731   0.124   2.543  0.0721  0.3492  1.0701
 8545SOL     OW26024   1.779   2.041   0.123 -0.1439  0.2249 -0.0046
 8545SOL    HW126025   1.720   2.072   0.054  0.7123  0.5786 -0.5928
 8545SOL    HW226026   1.729   1.974   0.169  0.1382 -1.9450 -2.6101
 8546SOL     OW26027   3.485   1.834   1.107 -0.0177  0.1036  0.1231
 8546SOL    HW126028   3.550   1.862   1.043  0.7421 -2.6567 -0.4670
 8546SOL    HW226029   3.507   1.881   1.187  1.0751  1.1689 -0.7702
 8547SOL     OW26030   6.127   5.449   1.662  0.0812  0.0388 -0.1635
 8547SOL    HW126031   6.217   5.465   1.690 -0.2181  0.8837  0.3654
 8547SOL    HW226032   6.129   5.455   1.567  0.2899  1.7441 -0.0751
 8548SOL     OW26033   1.985   4.761   0.355  0.3622  0.3848 -0.1508
 8548SOL    HW126034   1.906   4.752   0.409  0.2041 -0.1430 -0.4568
 8548SOL    HW226035   2.018   4.848   0.375 -0.3693  0.6630 -0.1061
 8549SOL     OW26036   5.474   6.698   1.026 -0.3134 -0.1773  0.2253
 8549SOL    HW126037   5.452   6.786   1.056 -0.7272  0.0300 -0.6525
 8549SOL    HW226038   5.447   6.696   0.934  0.9563 -0.7653 -0.1612
 8550SOL     OW26039   4.825   3.945   2.600 -0.1151 -0.8084 -0.5632
 8550SOL    HW126040   4.894   3.950   2.667  0.3927 -0.1914 -1.1103
 8550SOL    HW226041   4.746   3.921   2.648  0.1500  0.0206  0.3306
 8551SOL     OW26042   5.189   2.319   0.496 -0.2182  0.4078  0.2180
 8551SOL    HW126043   5.273   2.365   0.502  1.2486 -1.6499 -2.6269
 8551SOL    HW226044   5.141   2.364   0.427 -0.6003  0.2582  0.3799
 8552SOL     OW26045   0.076   3.577   4.805 -0.7255  0.1066 -0.1599
 8552SOL    HW126046   0.026   3.654   4.777  2.1570  2.0528 -0.2693
 8552SOL    HW226047   0.107   3.537   4.724 -2.3606 -1.4010 -0.1177
 8553SOL     OW26048   5.874   4.750   2.187 -0.0336 -0.2079  0.1358
 8553SOL    HW126049   5.903   4.740   2.096 -1.0352 -1.9145 -0.0279
 8553SOL    HW226050   5.806   4.683   2.198 -1.9695  1.8321  1.3136
 8554SOL     OW26051   3.482   5.651   6.029 -0.0581 -0.0812 -0.0980
 8554SOL    HW126052   3.412   5.703   5.991 -3.1228 -1.8797  2.6567
 8554SOL    HW226053   3.469   5.563   5.994  1.9501 -0.1646 -0.8064
 8555SOL     OW26054   5.778   1.276   5.964 -0.2696  0.3048 -0.1218
 8555SOL    HW126055   5.846   1.265   5.898 -1.7395  0.1220 -1.6824
 8555SOL    HW226056   5.724   1.349   5.931 -1.5195 -0.3404  0.4203
 8556SOL     OW26057   4.393   3.994   0.061  0.5923 -0.1672  0.3524
 8556SOL    HW126058   4.393   3.960  -0.029  0.4084  1.7018 -0.4129
 8556SOL    HW226059   4.315   3.957   0.101 -0.6286  0.7932 -1.0356
 8557SOL     OW26060   5.798   5.021   2.175 -0.1385 -0.1554 -0.1353
 8557SOL    HW126061   5.732   5.036   2.242  0.4461 -1.4010  0.7578
 8557SOL    HW226062   5.814   4.927   2.177 -0.3390 -0.3003 -2.2830
 8558SOL     OW26063   1.136   0.314   1.607  0.1771  0.1183 -0.3269
 8558SOL    HW126064   1.199   0.357   1.550 -0.8971  0.4920 -1.2746
 8558SOL    HW226065   1.120   0.377   1.677  0.7994  0.0397 -0.1081
 8559SOL     OW26066   6.626   4.234   4.432  0.5585  0.2197 -0.6631
 8559SOL    HW126067   6.673   4.312   4.406  1.6306 -0.1928 -0.0436
 8559SOL    HW226068   6.664   4.210   4.517  0.6446 -1.2728 -1.0853
 8560SOL     OW26069   2.552   1.295   2.382 -0.1929 -0.2555 -0.0629
 8560SOL    HW126070   2.612   1.330   2.448  1.3287 -1.6727 -0.6181
 8560SOL    HW226071   2.582   1.332   2.299 -1.4123  0.6523 -0.1234
 8561SOL     OW26072   4.062   3.072   3.225 -0.3110 -0.1546 -0.3360
 8561SOL    HW126073   4.003   3.051   3.297 -1.1726  0.7352 -0.7650
 8561SOL    HW226074   4.045   3.005   3.159 -0.7856  0.0397 -0.4163
 8562SOL     OW26075   5.122   4.903   3.592  0.3604  0.1114 -0.0166
 8562SOL    HW126076   5.200   4.892   3.538 -0.8583  0.4466 -1.9556
 8562SOL    HW226077   5.077   4.978   3.553 -1.0531 -0.2228  0.9098
 8563SOL     OW26078   1.071   0.431   4.002  0.1435 -0.1095  0.0696
 8563SOL    HW126079   1.117   0.353   3.972 -0.4829 -1.0487  1.4419
 8563SOL    HW226080   0.987   0.428   3.957  0.5659  0.4467 -0.7900
 8564SOL     OW26081   1.034   2.335   4.191 -0.1092  0.7309 -0.4103
 8564SOL    HW126082   0.972   2.278   4.145  0.4905 -1.2897  1.1277
 8564SOL    HW226083   1.109   2.279   4.209  0.1656  1.7433  1.9599
 8565SOL     OW26084   0.822   1.759   1.685  0.6406 -0.0580  0.4163
 8565SOL    HW126085   0.822   1.822   1.758  1.6806  0.5470 -0.0819
 8565SOL    HW226086   0.733   1.724   1.684 -0.4548  2.5328 -0.2343
 8566SOL     OW26087   5.177   4.744   2.073  0.3811 -0.3857  0.4144
 8566SOL    HW126088   5.177   4.837   2.049 -1.6775 -0.0719  1.3498
 8566SOL    HW226089   5.105   4.706   2.022  2.6576 -2.0778 -1.7788
 8567SOL     OW26090   6.264   5.261   4.330  0.1478 -0.3336  0.3279
 8567SOL    HW126091   6.173   5.241   4.350  0.5087 -0.2775  2.2144
 8567SOL    HW226092   6.302   5.176   4.304 -0.4114 -0.3633 -0.4181
 8568SOL     OW26093   3.411   6.209   5.655  0.8037  0.5506 -0.6653
 8568SOL    HW126094   3.498   6.191   5.621  1.1292 -0.8268  0.7517
 8568SOL    HW226095   3.352   6.186   5.584  1.5529  0.1879 -1.1842
 8569SOL     OW26096   5.577   1.791   1.656 -0.2601  0.1994 -0.0783
 8569SOL    HW126097   5.665   1.802   1.694 -0.2540 -0.4784  0.1020
 8569SOL    HW226098   5.568   1.697   1.642  0.1794  0.4953 -2.8360
 8570SOL     OW26099   6.300   5.429   2.803 -0.2251  0.0214  0.0376
 8570SOL    HW126100   6.308   5.341   2.839 -3.0281  0.1202  1.1616
 8570SOL    HW226101   6.243   5.419   2.726  1.2299  0.6026 -1.1803
 8571SOL     OW26102   0.352   4.002   2.104 -0.0788  0.0604 -0.2568
 8571SOL    HW126103   0.329   4.040   2.019 -0.5108  0.9457  0.2307
 8571SOL    HW226104   0.447   4.009   2.108 -0.2120  2.5765  0.4267
 8572SOL     OW26105   6.446   6.426   5.209  0.9403  0.1789 -0.0147
 8572SOL    HW126106   6.530   6.406   5.251 -0.3715 -2.7129  1.5284
 8572SOL    HW226107   6.433   6.353   5.148  0.0146  1.1670 -1.0337
 8573SOL     OW26108   1.832   3.444   5.516  0.6468 -0.4566 -0.7970
 8573SOL    HW126109   1.904   3.402   5.469 -1.3701 -3.1084 -1.7446
 8573SOL    HW226110   1.783   3.491   5.448  1.1518  0.9419 -0.2339
 8574SOL     OW26111   3.704   5.674   2.483 -0.1807  0.3588  0.7003
 8574SOL    HW126112   3.790   5.642   2.455  0.8506  1.9859  1.8268
 8574SOL    HW226113   3.722   5.758   2.525 -2.3142  0.6465  1.1606
 8575SOL     OW26114   5.605   4.627   0.992 -0.0392  0.0959  0.9894
 8575SOL    HW126115   5.512   4.616   0.973 -0.1793  1.1652  0.9706
 8575SOL    HW226116   5.640   4.671   0.914  0.6255 -0.8989  0.7136
 8576SOL     OW26117   6.335   0.596   2.087 -0.5131  0.1410 -0.1220
 8576SOL    HW126118   6.358   0.641   2.006 -0.2814 -0.9953 -0.6983
 8576SOL    HW226119   6.326   0.667   2.151 -0.6728  1.0549 -1.1161
 8577SOL     OW26120   0.179   5.167   1.425  0.3373 -0.2606 -0.4616
 8577SOL    HW126121   0.097   5.118   1.415  0.1271 -0.8148  2.7988
 8577SOL    HW226122   0.240   5.124   1.367 -1.4292 -0.3960 -2.3243
 8578SOL     OW26123   1.849   3.162   2.332 -0.0413 -0.0467  0.1434
 8578SOL    HW126124   1.775   3.128   2.383 -1.5960  1.2162 -1.1940
 8578SOL    HW226125   1.820   3.158   2.241  1.3415  0.9867 -0.3786
 8579SOL     OW26126   0.739   0.040   0.518 -0.1756 -0.4433  0.0961
 8579SOL    HW126127   0.748   0.130   0.548  0.4222 -0.4365 -0.0951
 8579SOL    HW226128   0.678   0.045   0.444 -0.0092 -0.1747 -0.0215
 8580SOL     OW26129   0.105   0.521   1.759 -0.1561  0.4064  0.0837
 8580SOL    HW126130   0.083   0.437   1.800 -2.1060  1.0378  0.4127
 8580SOL    HW226131   0.070   0.587   1.819 -0.7296  1.4016 -1.2954
 8581SOL     OW26132   1.109   0.911   1.947 -0.2565 -0.5644 -0.0503
 8581SOL    HW126133   1.159   0.845   1.995  1.2666  0.6364  0.0594
 8581SOL    HW226134   1.113   0.882   1.855  1.7547  0.1433 -0.2347
 8582SOL     OW26135   6.419   2.399   5.882 -0.6156  0.2203  0.1031
 8582SOL    HW126136   6.439   2.401   5.788  1.4743 -1.4470  0.4390
 8582SOL    HW226137   6.461   2.477   5.918  1.5127 -0.8477  0.0852
 8583SOL     OW26138   5.710   5.616   4.252 -0.2844 -0.1472  0.4932
 8583SOL    HW126139   5.619   5.631   4.225 -0.2254  0.3928  0.5730
 8583SOL    HW226140   5.704   5.560   4.329 -0.5674  0.1900  0.7162
 8584SOL     OW26141   4.476   6.464   6.034  0.4946  0.0583  0.1280
 8584SOL    HW126142   4.385   6.437   6.049  0.7182  0.0003  1.5014
 8584SOL    HW226143   4.471   6.559   6.024  0.1109 -0.0996 -1.3764
 8585SOL     OW26144   4.207   6.791   1.001  0.0256  0.2124  0.2761
 8585SOL    HW126145   4.120   6.772   0.967 -0.3898  2.1051  0.1329
 8585SOL    HW226146   4.264   6.726   0.960 -1.2605 -0.8082  0.0702
 8586SOL     OW26147   1.577   4.532   4.313  0.2735 -0.3915 -0.3794
 8586SOL    HW126148   1.543   4.618   4.291  1.0398  1.0065  3.2287
 8586SOL    HW226149   1.502   4.473   4.304 -0.7756  0.9877 -1.0104
 8587SOL     OW26150   0.580   5.728   6.214 -0.1410  0.7392 -0.0053
 8587SOL    HW126151   0.539   5.689   6.291  0.1430  0.5358  0.0445
 8587SOL    HW226152   0.515   5.716   6.144  0.0266 -0.0399 -0.0463
 8588SOL     OW26153   3.531   2.116   3.920  0.6547  0.0598 -0.1456
 8588SOL    HW126154   3.483   2.043   3.959 -0.9288  0.9482 -0.3529
 8588SOL    HW226155   3.619   2.109   3.958  0.1636 -1.1538  0.8708
 8589SOL     OW26156   2.879   5.675   3.105 -0.6888 -0.5119  0.3741
 8589SOL    HW126157   2.840   5.610   3.047  0.8517 -1.9824  0.9121
 8589SOL    HW226158   2.972   5.653   3.107  0.2273  2.6572 -0.6156
 8590SOL     OW26159   6.704   3.421   3.771  0.0892  0.5206 -0.0539
 8590SOL    HW126160   6.743   3.439   3.857  0.4181  0.4228 -0.1795
 8590SOL    HW226161   6.742   3.488   3.714 -1.0232  1.3186  0.1180
 8591SOL     OW26162   5.515   0.819   5.667 -0.0378  0.1245  0.3223
 8591SOL    HW126163   5.500   0.890   5.729  1.0220 -1.0625  2.0130
 8591SOL    HW226164   5.610   0.815   5.656 -0.0446 -1.2384  0.5379
 8592SOL     OW26165   6.255   2.273   2.011  0.3316  0.3485  0.3407
 8592SOL    HW126166   6.210   2.347   2.051  1.0058  1.2090 -0.4620
 8592SOL    HW226167   6.311   2.312   1.944 -0.2496 -0.9714 -0.9814
 8593SOL     OW26168   1.593   4.281   0.847 -0.5943 -0.0347 -0.2247
 8593SOL    HW126169   1.580   4.307   0.756  0.2004 -0.6952 -0.5386
 8593SOL    HW226170   1.562   4.190   0.851 -0.0255 -0.2229  0.0037
 8594SOL     OW26171   0.456   2.303   4.920 -0.0421  0.3526  0.1288
 8594SOL    HW126172   0.510   2.227   4.897 -0.4716  0.2814 -0.6957
 8594SOL    HW226173   0.507   2.378   4.889 -0.4511  0.2792 -0.7448
 8595SOL     OW26174   1.270   4.117   4.984 -0.6128  0.1594  0.0264
 8595SOL    HW126175   1.217   4.196   4.990 -1.5056 -0.4091 -0.1174
 8595SOL    HW226176   1.261   4.089   4.892 -1.0053 -0.5768  0.2837
 8596SOL     OW26177   2.134   3.976   1.883 -0.7651  0.1369  0.8304
 8596SOL    HW126178   2.064   4.029   1.921 -0.2646 -0.8601  3.2788
 8596SOL    HW226179   2.101   3.887   1.887 -1.1818  0.0385 -2.3192
 8597SOL     OW26180   6.249   1.072   6.004 -0.0264 -0.8091  0.2171
 8597SOL    HW126181   6.334   1.082   5.961 -0.2262 -0.9038 -0.2035
 8597SOL    HW226182   6.271   1.044   6.093  0.3585 -2.0390 -0.2401
 8598SOL     OW26183   6.321   3.763   1.080 -0.6398  0.2150  0.0654
 8598SOL    HW126184   6.285   3.846   1.047  0.1218  0.0404 -1.2467
 8598SOL    HW226185   6.246   3.719   1.120 -0.6892  2.3954  2.6828
 8599SOL     OW26186   6.097   1.925   5.890  0.3318 -0.6040  0.5408
 8599SOL    HW126187   6.049   1.997   5.932  1.2446  0.5565 -0.3189
 8599SOL    HW226188   6.136   1.965   5.812  0.0940 -2.2705 -0.4966
 8600SOL     OW26189   5.790   5.889   0.420 -0.1257 -0.3371  0.1656
 8600SOL    HW126190   5.711   5.943   0.421 -1.0556 -1.4083 -2.7383
 8600SOL    HW226191   5.841   5.923   0.346  1.3230 -0.7629  0.9322
 8601SOL     OW26192   3.617   0.008   1.923 -0.1906  0.0403  0.1244
 8601SOL    HW126193   3.617  -0.026   2.012  0.4873 -2.4167 -0.7551
 8601SOL    HW226194   3.708   0.001   1.894 -0.7557 -1.3007 -1.4842
 8602SOL     OW26195   3.391   4.950   5.195  0.6845 -0.2906  0.0742
 8602SOL    HW126196   3.377   5.042   5.171  2.9092 -0.0504 -0.5761
 8602SOL    HW226197   3.312   4.926   5.243 -0.2147  1.7851 -0.2176
 8603SOL     OW26198   3.609   5.829   2.146 -0.4731 -0.0861 -0.0350
 8603SOL    HW126199   3.629   5.831   2.052 -0.2018 -0.5816  0.0062
 8603SOL    HW226200   3.678   5.881   2.186 -0.3493 -0.2179 -0.0739
 8604SOL     OW26201   5.625   3.685   2.877 -0.1996  0.5681 -0.5545
 8604SOL    HW126202   5.575   3.607   2.852  1.0203  0.1180 -1.7487
 8604SOL    HW226203   5.587   3.712   2.960 -2.2996  0.1865 -1.3416
 8605SOL     OW26204   3.486   4.790   6.085  0.0619  0.4157 -0.0668
 8605SOL    HW126205   3.504   4.714   6.140  0.0247 -0.4813 -1.2477
 8605SOL    HW226206   3.530   4.770   6.002 -1.6815  0.7014 -1.1085
 8606SOL     OW26207   5.307   1.311   3.878 -0.0862 -0.0155 -0.3346
 8606SOL    HW126208   5.317   1.393   3.927 -0.5246 -0.2051  0.0811
 8606SOL    HW226209   5.226   1.273   3.912 -0.7380  0.1530 -1.6458
 8607SOL     OW26210   4.325   1.778   1.312  0.4119 -0.3279  0.1000
 8607SOL    HW126211   4.355   1.734   1.233  0.7466 -0.0700  0.0806
 8607SOL    HW226212   4.275   1.853   1.280  0.1346 -0.4982  0.1331
 8608SOL     OW26213   6.289   4.831   0.142  0.8824 -0.1566  0.3546
 8608SOL    HW126214   6.243   4.912   0.162  1.1137  0.3787 -1.1427
 8608SOL    HW226215   6.370   4.836   0.193  0.8163  0.4730  0.4037
 8609SOL     OW26216   1.714   1.854   3.082 -0.6348  0.9042 -0.4221
 8609SOL    HW126217   1.663   1.790   3.130 -0.1767  0.8615  0.0237
 8609SOL    HW226218   1.776   1.802   3.031 -1.8561  0.8932 -1.9721
 8610SOL     OW26219   2.244   1.395   5.687 -0.2030  0.1092  0.2548
 8610SOL    HW126220   2.203   1.348   5.760  2.5333 -3.1013 -0.0007
 8610SOL    HW226221   2.252   1.328   5.618  2.8826  1.2410 -0.6222
 8611SOL     OW26222   2.410   5.223   5.394  0.3268 -0.1662  0.4132
 8611SOL    HW126223   2.333   5.279   5.398  1.2958  1.2044  0.7587
 8611SOL    HW226224   2.391   5.150   5.453 -0.8741 -0.1145  0.1133
 8612SOL     OW26225   3.040   0.122   6.267  0.2758 -0.5669 -0.5074
 8612SOL    HW126226   3.049   0.092   6.176 -1.4842 -1.7675 -0.3362
 8612SOL    HW226227   2.955   0.087   6.295  0.4624  0.3977  1.3761
 8613SOL     OW26228   3.449   2.654   3.807  0.2143  0.4462  0.2972
 8613SOL    HW126229   3.513   2.719   3.776  1.0803 -0.6293 -0.2493
 8613SOL    HW226230   3.500   2.593   3.859 -0.1708 -0.9645 -0.9271
 8614SOL     OW26231   0.484   2.392   2.132 -0.0669  0.2160 -0.3463
 8614SOL    HW126232   0.478   2.482   2.101  0.6564  0.4271  0.1210
 8614SOL    HW226233   0.478   2.339   2.052  1.0129  0.7299 -0.7884
 8615SOL     OW26234   3.751   2.896   2.456 -0.1004  0.0150 -0.5438
 8615SOL    HW126235   3.682   2.867   2.516 -0.5477 -2.6318 -2.1548
 8615SOL    HW226236   3.703   2.918   2.375  0.7789 -0.2724 -1.1569
 8616SOL     OW26237   0.074   5.272   2.649 -0.3588  0.1434 -0.4227
 8616SOL    HW126238   0.042   5.219   2.575 -1.6741  1.1660 -0.6244
 8616SOL    HW226239   0.099   5.355   2.610 -1.5182  0.8698  0.3254
 8617SOL     OW26240   0.348   3.752   1.215  0.1363  0.2191 -0.1009
 8617SOL    HW126241   0.383   3.696   1.285  0.1543 -0.0170 -0.2975
 8617SOL    HW226242   0.254   3.738   1.219  0.0085  1.1349  0.6705
 8618SOL     OW26243   1.427   1.262   3.185  0.0753  0.1898 -0.6740
 8618SOL    HW126244   1.504   1.289   3.135  0.4503 -0.2371 -0.3319
 8618SOL    HW226245   1.461   1.208   3.256 -0.5867 -0.5455 -0.8941
 8619SOL     OW26246   1.705   3.974   1.833  0.4952 -0.6023 -0.1955
 8619SOL    HW126247   1.773   3.998   1.895 -0.2335  3.4127 -0.7099
 8619SOL    HW226248   1.745   3.985   1.747 -0.0440 -0.8533 -0.4871
 8620SOL     OW26249   0.629   1.784   0.035 -0.2806 -0.3883 -0.2822
 8620SOL    HW126250   0.601   1.760   0.123  0.9218  0.4707  0.3616
 8620SOL    HW226251   0.560   1.842   0.003 -0.9334 -1.0391 -0.0919
 8621SOL     OW26252   4.058   5.413   0.193 -0.4758  0.0417 -0.5616
 8621SOL    HW126253   4.024   5.375   0.274  2.2037  0.2205  0.7587
 8621SOL    HW226254   4.044   5.507   0.202 -2.1641 -0.0777 -1.3859
 8622SOL     OW26255   0.084   6.595   3.320  0.2318 -0.0641 -0.0164
 8622SOL    HW126256   0.091   6.590   3.224  1.3503  0.5747  0.0197
 8622SOL    HW226257   0.026   6.670   3.335  1.0982  0.6525 -0.1841
 8623SOL     OW26258   6.240   3.313   4.405 -0.0879  0.0733  0.5663
 8623SOL    HW126259   6.188   3.384   4.442 -1.0668 -0.7522  0.8116
 8623SOL    HW226260   6.253   3.337   4.313 -0.9568  0.2718  0.4871
 8624SOL     OW26261   1.134   2.848   3.586 -0.5022  0.2786 -0.3313
 8624SOL    HW126262   1.177   2.778   3.538 -1.0649 -0.4297  0.1639
 8624SOL    HW226263   1.042   2.843   3.558 -0.9721 -0.5592  1.2340
 8625SOL     OW26264   5.270   0.533   2.248 -1.1265 -0.6598  0.5481
 8625SOL    HW126265   5.265   0.627   2.232  0.2817 -0.4347  1.2707
 8625SOL    HW226266   5.232   0.522   2.335  0.7000 -0.4109  1.4327
 8626SOL     OW26267   4.977   5.863   5.058  0.1517  0.1750  0.0452
 8626SOL    HW126268   4.988   5.857   5.153  1.8199  0.3634 -0.0929
 8626SOL    HW226269   4.967   5.772   5.030  1.1935 -0.0339  0.2827
 8627SOL     OW26270   2.003   0.048   3.806 -0.1028  0.6760  0.6434
 8627SOL    HW126271   1.994   0.118   3.742 -2.5660  0.8842  1.1198
 8627SOL    HW226272   2.050  -0.021   3.760  0.6424  1.8750 -0.4625
 8628SOL     OW26273   6.021   3.709   1.824 -0.0715 -0.5317  0.2349
 8628SOL    HW126274   6.067   3.767   1.885 -0.9780  0.5405 -0.0661
 8628SOL    HW226275   5.956   3.664   1.879  1.5216 -2.3536  0.7415
 8629SOL     OW26276   2.944   2.543   0.268 -0.0808 -0.5054 -0.0752
 8629SOL    HW126277   2.859   2.575   0.240  0.5107  2.0697  0.7958
 8629SOL    HW226278   2.990   2.523   0.186 -0.6187  0.6367 -0.6822
 8630SOL     OW26279   2.492   5.616   6.019 -0.0087  0.0946  0.0534
 8630SOL    HW126280   2.424   5.666   6.064 -0.8487  0.3170 -1.4074
 8630SOL    HW226281   2.533   5.678   5.960  1.0389 -0.2113  0.4313
 8631SOL     OW26282   1.637   0.589   4.558 -0.1354  0.5532  0.3274
 8631SOL    HW126283   1.655   0.672   4.512 -0.3518 -0.3986 -1.5592
 8631SOL    HW226284   1.657   0.608   4.650  0.4975  2.4972 -0.1644
 8632SOL     OW26285   6.604   2.047   5.369  0.1974  0.2662  0.4011
 8632SOL    HW126286   6.615   1.956   5.397  0.2083  0.1481  0.0233
 8632SOL    HW226287   6.511   2.066   5.382  0.1982  0.2022  0.4940
 8633SOL     OW26288   0.454   1.998   1.768  0.1579 -0.5629 -0.0884
 8633SOL    HW126289   0.506   1.946   1.829  0.3568  0.8700  1.0240
 8633SOL    HW226290   0.515   2.063   1.734 -0.8992  1.4478  1.5869
 8634SOL     OW26291   4.546   4.283   2.703 -0.2415 -0.3214  0.0398
 8634SOL    HW126292   4.501   4.364   2.727 -1.6851 -1.0000 -0.2658
 8634SOL    HW226293   4.619   4.277   2.764  0.4353  1.6420 -0.4783
 8635SOL     OW26294   1.532   6.065   5.620 -0.7039 -0.8566  0.1621
 8635SOL    HW126295   1.486   6.089   5.539  0.8176  0.8840 -0.2711
 8635SOL    HW226296   1.612   6.118   5.618 -0.7418 -0.5481  2.9643
 8636SOL     OW26297   5.874   4.559   2.950 -0.0651  0.1829 -0.0315
 8636SOL    HW126298   5.953   4.563   3.005  0.6119 -2.4075 -0.6985
 8636SOL    HW226299   5.813   4.619   2.993  2.5160  3.0684 -0.0245
 8637SOL     OW26300   2.342   3.710   4.528  0.1230 -0.1944  0.2033
 8637SOL    HW126301   2.412   3.647   4.546  0.6149 -0.1067 -1.2323
 8637SOL    HW226302   2.379   3.795   4.554  0.6055 -0.1379 -0.6247
 8638SOL     OW26303   4.868   6.019   1.298 -0.2947 -0.3912  0.2660
 8638SOL    HW126304   4.840   6.107   1.324 -0.7638  0.4099 -2.5799
 8638SOL    HW226305   4.789   5.966   1.303 -0.6320  0.0199 -0.5121
 8639SOL     OW26306   1.939   1.079   4.000 -0.1953 -0.3552  0.1585
 8639SOL    HW126307   1.920   1.160   4.047  0.2472  0.1832 -0.5624
 8639SOL    HW226308   1.946   1.012   4.068 -0.2395  0.2768  0.7924
 8640SOL     OW26309   0.794   5.678   5.534  0.7034 -0.4170  0.1934
 8640SOL    HW126310   0.804   5.660   5.441  0.8651 -1.3551  0.3831
 8640SOL    HW226311   0.738   5.608   5.566 -1.6156  1.3671  0.3092
 8641SOL     OW26312   0.031   5.424   2.197 -0.4367  0.4480  0.4369
 8641SOL    HW126313   0.110   5.395   2.152 -0.2653 -2.2849  2.2654
 8641SOL    HW226314  -0.032   5.442   2.128 -0.1581 -3.3833 -1.0343
 8642SOL     OW26315   4.044   5.246   4.545  0.1307 -0.2477  0.1077
 8642SOL    HW126316   4.083   5.267   4.630  0.6790 -0.6084 -0.0510
 8642SOL    HW226317   4.082   5.161   4.521  0.0340 -0.1187 -0.5241
 8643SOL     OW26318   5.717   5.989   4.982 -0.2503  0.2727 -0.2012
 8643SOL    HW126319   5.794   5.957   4.935 -0.1848  0.1873 -0.0390
 8643SOL    HW226320   5.749   6.065   5.030 -1.0869  2.5551 -2.9862
 8644SOL     OW26321   6.704   1.188   1.559  0.5017 -0.3927  0.1629
 8644SOL    HW126322   6.724   1.155   1.472 -0.5305 -0.1101 -0.2059
 8644SOL    HW226323   6.776   1.248   1.579  2.5303 -2.9115  0.9482
 8645SOL     OW26324   3.988   6.199   0.901  0.3523 -0.3076  0.8593
 8645SOL    HW126325   4.016   6.239   0.984  0.7666  0.3753  0.4008
 8645SOL    HW226326   4.053   6.229   0.837 -0.4553 -0.1242  0.1143
 8646SOL     OW26327   6.546   3.304   4.350 -0.4971  0.5624  0.5003
 8646SOL    HW126328   6.461   3.324   4.389 -0.6687 -0.0824  0.4671
 8646SOL    HW226329   6.610   3.335   4.415 -0.6393  3.7276 -0.6910
 8647SOL     OW26330   1.131   6.768   4.349 -0.1846  0.8259 -0.3658
 8647SOL    HW126331   1.079   6.844   4.324 -0.4689  0.1731 -1.8788
 8647SOL    HW226332   1.184   6.749   4.272  1.3189  0.6359  0.6614
 8648SOL     OW26333   6.193   1.114   6.444  0.0041  0.5387 -0.1955
 8648SOL    HW126334   6.209   1.204   6.474 -0.6255  0.4011  0.5869
 8648SOL    HW226335   6.210   1.060   6.521  0.3333 -0.0163 -0.6527
 8649SOL     OW26336   3.522   4.019   2.725  0.2953 -0.2557 -0.1870
 8649SOL    HW126337   3.608   3.991   2.755 -0.9261 -3.6833  0.6341
 8649SOL    HW226338   3.464   4.004   2.800 -1.0919  1.9767 -0.7031
 8650SOL     OW26339   4.123   4.088   3.020  0.4961  0.3622 -0.0747
 8650SOL    HW126340   4.202   4.097   2.967 -0.0046  0.3279 -0.8461
 8650SOL    HW226341   4.152   4.104   3.109  1.5220 -0.3672 -0.2538
 8651SOL     OW26342   1.641   1.836   0.258 -0.5271 -0.8461  0.3869
 8651SOL    HW126343   1.642   1.784   0.338 -0.2564 -0.8634  0.3731
 8651SOL    HW226344   1.687   1.782   0.193 -0.8294 -0.8731  0.1941
 8652SOL     OW26345   5.241   6.622   1.448  0.5480  0.4039  0.0470
 8652SOL    HW126346   5.296   6.681   1.396  1.3683  1.0744  1.6172
 8652SOL    HW226347   5.170   6.597   1.389  1.2742  1.3818 -1.2841
 8653SOL     OW26348   1.255   6.496   2.662 -0.0179 -0.1616 -0.5388
 8653SOL    HW126349   1.187   6.453   2.611 -0.0786 -2.0270  0.9836
 8653SOL    HW226350   1.212   6.521   2.744  0.6167  0.6548 -0.4404
 8654SOL     OW26351   5.404   2.583   2.761 -0.2194  0.4239 -0.2833
 8654SOL    HW126352   5.333   2.604   2.822  0.4641  1.1405  0.2875
 8654SOL    HW226353   5.480   2.629   2.795  0.9355 -1.5554 -0.0214
 8655SOL     OW26354   1.978   2.793   6.186  0.2760 -0.2690 -0.2555
 8655SOL    HW126355   1.996   2.772   6.277 -0.1392  0.4422 -0.0026
 8655SOL    HW226356   1.967   2.708   6.144 -1.5728 -0.6112  0.7872
 8656SOL     OW26357   0.342   1.045   4.922  0.3106  0.0332 -0.1459
 8656SOL    HW126358   0.275   1.102   4.960  1.1361 -0.3439  2.0399
 8656SOL    HW226359   0.421   1.065   4.973  0.7951 -2.5110  0.2060
 8657SOL     OW26360   1.129   6.584   0.769 -0.1049  0.1723 -0.4917
 8657SOL    HW126361   1.194   6.608   0.703 -0.2146  1.3821 -0.1993
 8657SOL    HW226362   1.046   6.609   0.730 -0.6097 -2.6507 -1.4446
 8658SOL     OW26363   1.218   1.341   3.575  0.0058  0.5363  0.0227
 8658SOL    HW126364   1.153   1.375   3.514  1.0448  3.1627  0.2345
 8658SOL    HW226365   1.302   1.365   3.536  0.7469  0.1386  1.3139
 8659SOL     OW26366   1.249   1.059   4.826 -0.1604 -0.3597  0.1185
 8659SOL    HW126367   1.244   0.974   4.784 -0.1031 -0.1369 -0.3426
 8659SOL    HW226368   1.319   1.105   4.780  0.6246 -0.4967  1.1509
 8660SOL     OW26369   0.558   2.464   3.831 -0.1924  0.2644  0.1422
 8660SOL    HW126370   0.546   2.545   3.780  0.3228  0.6635  0.6451
 8660SOL    HW226371   0.650   2.466   3.857 -0.5113  0.2009  1.3220
 8661SOL     OW26372   0.606   0.580   3.530  0.2986 -0.2439  0.4157
 8661SOL    HW126373   0.530   0.577   3.587 -0.4144 -1.1765 -0.5637
 8661SOL    HW226374   0.632   0.673   3.530 -1.2296  0.2162  0.2485
 8662SOL     OW26375   3.739   2.045   3.371 -0.4488  0.7221  0.2281
 8662SOL    HW126376   3.687   2.116   3.410 -0.6566  1.5953 -1.5217
 8662SOL    HW226377   3.795   2.089   3.307 -0.1897 -0.6393 -0.5209
 8663SOL     OW26378   2.346   2.600   1.792  0.1502 -0.0665 -0.0432
 8663SOL    HW126379   2.256   2.615   1.821 -0.8735  0.0825 -3.0060
 8663SOL    HW226380   2.364   2.672   1.732  0.8663 -2.0913 -2.4001
 8664SOL     OW26381   4.999   1.640   3.009  0.0773 -0.2496 -0.5230
 8664SOL    HW126382   4.931   1.574   2.998  0.1571 -0.7663  1.5738
 8664SOL    HW226383   4.954   1.724   2.997 -0.6932 -0.6129 -0.2257
 8665SOL     OW26384   5.510   0.555   5.638  0.1818 -0.2065 -0.0067
 8665SOL    HW126385   5.481   0.539   5.548 -2.0720  1.1388  0.3986
 8665SOL    HW226386   5.489   0.647   5.654 -1.5983 -0.9441  2.5752
 8666SOL     OW26387   3.778   2.286   4.296  0.2170  0.1746 -0.0695
 8666SOL    HW126388   3.872   2.283   4.277 -0.2353 -1.5001 -2.7202
 8666SOL    HW226389   3.750   2.371   4.263  0.7120  0.5006  0.3272
 8667SOL     OW26390   4.136   1.788   1.553  0.0636  0.3534  0.0606
 8667SOL    HW126391   4.208   1.785   1.616  1.5801  0.5832 -1.5551
 8667SOL    HW226392   4.170   1.741   1.477 -2.3876 -1.5475  0.0361
 8668SOL     OW26393   3.299   0.997   0.198  0.8053 -0.2106 -0.2371
 8668SOL    HW126394   3.311   1.078   0.150  0.0839  0.2252  0.3061
 8668SOL    HW226395   3.215   0.963   0.169  1.0315 -0.6904 -0.3473
 8669SOL     OW26396   1.340   2.121   6.169  0.0945 -0.1162  0.4135
 8669SOL    HW126397   1.426   2.112   6.127 -0.0404  1.0723 -0.1392
 8669SOL    HW226398   1.285   2.055   6.126  0.3099  0.1939 -0.3462
 8670SOL     OW26399   3.977   0.058   4.547 -0.7009  0.7095  0.0843
 8670SOL    HW126400   4.018   0.114   4.613  0.1426  0.2905 -0.0774
 8670SOL    HW226401   4.050   0.016   4.502 -1.3087 -0.0444 -0.2140
 8671SOL     OW26402   2.258   4.595   1.708  0.3354 -0.1596  0.1600
 8671SOL    HW126403   2.183   4.653   1.720  1.4588  1.3897  0.0524
 8671SOL    HW226404   2.333   4.646   1.739  1.3863 -1.5580  0.0275
 8672SOL     OW26405   4.613   4.240   0.602  0.4427  0.0278 -0.1672
 8672SOL    HW126406   4.611   4.147   0.581 -0.8782 -0.1278  0.5055
 8672SOL    HW226407   4.705   4.259   0.621  0.7076 -1.1766 -0.1576
 8673SOL     OW26408   6.039   1.194   5.606  0.1424 -0.3255 -0.2224
 8673SOL    HW126409   5.953   1.223   5.638 -0.4144 -2.7578  0.7138
 8673SOL    HW226410   6.089   1.174   5.685  1.7734  1.3900 -0.7386
 8674SOL     OW26411   6.401   2.649   0.194 -0.1718  0.3325  0.2546
 8674SOL    HW126412   6.341   2.587   0.236 -1.2323  1.0965 -0.0673
 8674SOL    HW226413   6.399   2.625   0.102 -1.8796  1.7904 -0.1561
 8675SOL     OW26414   0.668   5.525   6.504 -0.8829 -0.4941 -0.0408
 8675SOL    HW126415   0.692   5.567   6.587  0.1174 -1.0093 -0.0497
 8675SOL    HW226416   0.751   5.517   6.457 -1.2851 -1.1528 -0.6547
 8676SOL     OW26417   1.011   2.584   4.570  0.9615 -0.1993 -0.3692
 8676SOL    HW126418   0.937   2.608   4.514 -0.8478 -1.1562  1.4905
 8676SOL    HW226419   1.029   2.663   4.621  2.9825  0.8604 -2.5318
 8677SOL     OW26420   0.612   2.586   1.681  0.3025  0.6691 -0.1970
 8677SOL    HW126421   0.654   2.548   1.758  3.0316  2.4097 -0.7172
 8677SOL    HW226422   0.676   2.575   1.611 -0.8331  1.9083 -1.4903
 8678SOL     OW26423   4.488   2.647   3.666 -0.0575 -0.0874 -0.4746
 8678SOL    HW126424   4.504   2.622   3.757 -0.4219 -1.9698 -0.8768
 8678SOL    HW226425   4.566   2.696   3.640 -0.2030  0.9856  0.9998
 8679SOL     OW26426   1.391   1.876   0.650 -0.4859  0.2622  0.2743
 8679SOL    HW126427   1.333   1.889   0.725  1.2400 -0.8442  1.8743
 8679SOL    HW226428   1.452   1.949   0.652 -0.7931  0.5508 -0.4344
 8680SOL     OW26429   2.215   1.626   5.459  0.5198  0.1732  0.1195
 8680SOL    HW126430   2.293   1.594   5.413  0.7128  0.9069 -0.0854
 8680SOL    HW226431   2.170   1.547   5.488 -0.1470 -0.3526 -2.1764
 8681SOL     OW26432   3.775   3.437   5.329 -0.5854  0.2347 -0.1868
 8681SOL    HW126433   3.854   3.386   5.309 -0.6085  0.3409 -0.5613
 8681SOL    HW226434   3.800   3.492   5.403 -0.1232  0.6774 -0.6590
 8682SOL     OW26435   5.220   0.597   3.155  0.0134  0.0144  0.1799
 8682SOL    HW126436   5.152   0.589   3.089  0.0754  0.9262 -0.0049
 8682SOL    HW226437   5.172   0.620   3.235 -0.0852 -1.3002  0.5245
 8683SOL     OW26438   6.660   1.013   3.349  0.2862  0.1100  0.0199
 8683SOL    HW126439   6.626   0.924   3.359  0.1185  0.0676 -0.8067
 8683SOL    HW226440   6.747   1.000   3.311  1.9445  0.1450  3.4738
 8684SOL     OW26441   6.214   2.705   5.608  0.6321 -0.5451 -0.2904
 8684SOL    HW126442   6.274   2.745   5.672  0.1097  1.4923 -0.9957
 8684SOL    HW226443   6.127   2.728   5.640  0.3713  0.9168 -1.9343
 8685SOL     OW26444   3.807   0.070   5.036 -0.2039  0.0530 -0.0961
 8685SOL    HW126445   3.864   0.127   5.088  1.1176  0.9534 -2.3846
 8685SOL    HW226446   3.741   0.039   5.098  1.7515  0.3500  2.2845
 8686SOL     OW26447   2.172   3.808   5.401  0.0329  0.1621 -0.2095
 8686SOL    HW126448   2.140   3.848   5.320 -1.0586 -1.0861 -0.4314
 8686SOL    HW226449   2.092   3.791   5.451  0.6388  0.1375  0.7721
 8687SOL     OW26450   3.390   2.925   0.145  0.0025  0.7474  0.5536
 8687SOL    HW126451   3.335   2.851   0.173  0.1766  0.6373  0.6039
 8687SOL    HW226452   3.439   2.892   0.070 -0.7475  1.1668 -0.1310
 8688SOL     OW26453   1.416   6.601   2.407 -0.6392 -0.0661  0.4610
 8688SOL    HW126454   1.433   6.507   2.407 -1.1669 -0.1822 -0.8543
 8688SOL    HW226455   1.458   6.633   2.487 -0.7704 -1.4667  1.1233
 8689SOL     OW26456   4.828   0.336   6.242 -0.0689  0.3871  1.0933
 8689SOL    HW126457   4.821   0.402   6.311 -0.4950  0.9314  0.5437
 8689SOL    HW226458   4.835   0.387   6.161  0.9178 -0.2294  0.7672
 8690SOL     OW26459   2.539   5.516   3.774 -0.5447  0.1901 -0.0492
 8690SOL    HW126460   2.543   5.590   3.834  0.5390  2.7017 -2.9606
 8690SOL    HW226461   2.464   5.534   3.718 -1.4027 -1.9567  0.3291
 8691SOL     OW26462   4.916   1.766   1.983  0.5091 -0.4217  0.7938
 8691SOL    HW126463   4.982   1.816   1.935 -0.6826  0.1436 -0.2991
 8691SOL    HW226464   4.927   1.676   1.951  1.4037 -0.5338  1.3730
 8692SOL     OW26465   5.644   0.415   3.791  0.4647  0.1792  0.0595
 8692SOL    HW126466   5.723   0.466   3.811  1.3886 -1.5693  1.0981
 8692SOL    HW226467   5.674   0.346   3.732 -0.5045  0.0605 -0.3145
 8693SOL     OW26468   4.619   0.869   0.688  0.3460 -0.4499 -0.0257
 8693SOL    HW126469   4.669   0.790   0.669  0.7440 -0.2099  0.0236
 8693SOL    HW226470   4.556   0.841   0.755  0.8827 -0.5787  0.4313
 8694SOL     OW26471   4.882   6.312   0.933  0.5257 -0.1444  0.2182
 8694SOL    HW126472   4.928   6.361   0.865  0.2234  0.1532  0.2239
 8694SOL    HW226473   4.929   6.229   0.939  0.9603  0.0920  0.1135
 8695SOL     OW26474   5.370   5.069   6.799 -0.4823 -0.3277  0.0331
 8695SOL    HW126475   5.377   5.012   6.723  0.8240 -0.5303  0.2705
 8695SOL    HW226476   5.331   5.014   6.867  0.4215 -0.8483  0.1488
 8696SOL     OW26477   4.423   2.369   0.203  0.1505  0.5397 -0.0268
 8696SOL    HW126478   4.445   2.279   0.180 -1.4102  0.2479 -0.4848
 8696SOL    HW226479   4.382   2.363   0.289 -2.4992  0.4071 -1.2274
 8697SOL     OW26480   2.100   5.167   6.054 -0.1510  0.6106  0.5587
 8697SOL    HW126481   2.099   5.101   6.124  1.8257 -1.4354 -1.1481
 8697SOL    HW226482   2.138   5.245   6.095  1.3650 -0.6582  1.7036
 8698SOL     OW26483   6.443   4.508   6.744 -0.1067  0.4308  0.2513
 8698SOL    HW126484   6.517   4.454   6.715 -0.2725  0.6736 -0.6619
 8698SOL    HW226485   6.367   4.471   6.698 -0.3244  1.0476  0.1040
 8699SOL     OW26486   2.274   1.162   3.720 -0.0034  0.0583  0.0064
 8699SOL    HW126487   2.309   1.073   3.722 -0.4523 -0.1120  0.7006
 8699SOL    HW226488   2.267   1.187   3.812 -1.5277  0.1556 -0.1145
 8700SOL     OW26489   2.620   6.189   5.817  0.3058  0.1569  0.6901
 8700SOL    HW126490   2.707   6.230   5.819  0.9001 -0.9980 -0.0500
 8700SOL    HW226491   2.566   6.245   5.873  1.3195  1.3583  0.5254
 8701SOL     OW26492   1.657   3.951   5.269 -0.6917 -0.2738 -0.2261
 8701SOL    HW126493   1.618   3.885   5.326  0.9078  0.7445  2.2027
 8701SOL    HW226494   1.584   4.010   5.247 -1.4738 -1.0609  0.1792
 8702SOL     OW26495   2.181   0.846   1.349  0.2918  0.1522 -0.1079
 8702SOL    HW126496   2.150   0.842   1.439 -0.2325 -3.1802 -0.3107
 8702SOL    HW226497   2.105   0.877   1.299  0.7305  2.4913  0.5638
 8703SOL     OW26498   0.252   3.481   2.835  0.2745 -0.3565  0.2292
 8703SOL    HW126499   0.163   3.508   2.859 -0.3914 -1.9422 -0.2698
 8703SOL    HW226500   0.250   3.475   2.739  2.2393  3.7287 -0.2859
 8704SOL     OW26501   0.963   4.978   0.558 -0.3326  0.1962 -0.5090
 8704SOL    HW126502   1.053   4.947   0.552  0.0600  1.5346 -2.0727
 8704SOL    HW226503   0.910   4.904   0.528  0.2469 -0.4903  0.1207
 8705SOL     OW26504   6.447   4.974   6.480 -0.1949  0.2192  0.1051
 8705SOL    HW126505   6.433   4.927   6.563 -0.9125  0.6237  0.2238
 8705SOL    HW226506   6.537   4.953   6.456 -0.3019 -0.7294  0.4647
 8706SOL     OW26507   6.692   6.526   0.437 -0.6364  0.4695  0.6389
 8706SOL    HW126508   6.771   6.489   0.476 -0.3086  1.9921  1.4874
 8706SOL    HW226509   6.620   6.488   0.488 -0.5333 -1.3039 -0.4492
 8707SOL     OW26510   3.295   0.810   6.321  0.0688  0.1348 -0.3554
 8707SOL    HW126511   3.324   0.798   6.230 -0.9526  0.7637 -0.7825
 8707SOL    HW226512   3.240   0.733   6.338 -2.2824  1.4874 -1.3596
 8708SOL     OW26513   5.185   5.192   3.081 -0.4651 -0.6600 -0.1110
 8708SOL    HW126514   5.175   5.153   2.994 -1.7966 -1.1559  0.2389
 8708SOL    HW226515   5.112   5.155   3.132 -0.3097  0.4139  0.9220
 8709SOL     OW26516   2.592   2.977   5.326 -0.1475 -0.0470 -0.6058
 8709SOL    HW126517   2.675   3.019   5.345  0.4366 -0.6394 -1.7156
 8709SOL    HW226518   2.539   3.046   5.286  0.5381 -0.1367 -1.7311
 8710SOL     OW26519   1.378   0.306   2.820  0.4903  0.0354  0.2097
 8710SOL    HW126520   1.318   0.261   2.761 -0.0379  1.3882 -0.3287
 8710SOL    HW226521   1.444   0.345   2.762 -0.0952  1.4690  0.4546
 8711SOL     OW26522   4.735   3.788   5.926  0.1394 -0.3880  0.4236
 8711SOL    HW126523   4.674   3.730   5.972 -0.1515 -1.0088 -0.7137
 8711SOL    HW226524   4.782   3.731   5.865  1.1559  0.2605  0.5820
 8712SOL     OW26525   5.256   4.437   2.072  0.7030  0.4612 -0.3241
 8712SOL    HW126526   5.211   4.511   2.111  2.1124  0.5761  1.1915
 8712SOL    HW226527   5.348   4.465   2.067  0.7908 -0.0405 -2.6000
 8713SOL     OW26528   3.573   5.869   1.737  0.8631  0.3340 -0.3393
 8713SOL    HW126529   3.493   5.844   1.784  0.5868 -2.4576 -2.0543
 8713SOL    HW226530   3.562   5.963   1.721 -1.9396  0.1255 -0.2507
 8714SOL     OW26531   6.688   0.446   6.260 -0.1592 -0.0922 -0.9015
 8714SOL    HW126532   6.749   0.401   6.202 -1.6903 -2.4039 -0.8336
 8714SOL    HW226533   6.684   0.391   6.338  0.0196  1.6971  0.4571
 8715SOL     OW26534   0.677   0.071   5.888 -0.0597  0.0922  0.2286
 8715SOL    HW126535   0.589   0.040   5.864  0.2569 -1.8473  1.3655
 8715SOL    HW226536   0.736   0.003   5.854  0.8776  0.6258  0.7669
 8716SOL     OW26537   6.667   2.772   4.683  0.2498 -0.5738 -0.2777
 8716SOL    HW126538   6.594   2.788   4.623 -1.3560 -1.1987  1.3764
 8716SOL    HW226539   6.737   2.829   4.652 -0.1780 -1.4541 -3.1719
 8717SOL     OW26540   6.170   4.254   1.116 -0.0289  0.3591 -0.6072
 8717SOL    HW126541   6.170   4.286   1.026  1.0854 -1.0951 -1.1476
 8717SOL    HW226542   6.260   4.227   1.132 -0.5975 -1.1169  0.3079
 8718SOL     OW26543   3.842   5.456   5.422 -0.4869  0.3546 -0.3445
 8718SOL    HW126544   3.851   5.546   5.390  0.4709  0.4196  0.0754
 8718SOL    HW226545   3.783   5.414   5.360 -1.0504  1.3041 -0.4806
 8719SOL     OW26546   0.882   3.482   5.328  0.0069  0.0331  0.2108
 8719SOL    HW126547   0.951   3.472   5.394  0.9575 -0.5637 -0.8381
 8719SOL    HW226548   0.801   3.488   5.379  0.7477 -0.0537  1.4424
 8720SOL     OW26549   0.316   1.274   4.018 -0.0789 -0.1030  0.1840
 8720SOL    HW126550   0.241   1.320   3.980  0.7614 -0.5392 -2.1602
 8720SOL    HW226551   0.289   1.182   4.020  1.0806 -0.6140 -2.7911
 8721SOL     OW26552   5.997   0.713   3.274  0.6156 -0.3321 -0.3376
 8721SOL    HW126553   6.084   0.743   3.301  1.4856 -2.7592 -0.1903
 8721SOL    HW226554   6.013   0.629   3.232 -1.7215 -1.0795  0.1317
 8722SOL     OW26555   2.402   2.804   4.439 -0.5389  0.4017  0.3417
 8722SOL    HW126556   2.411   2.863   4.514 -0.6378  0.4015  0.3532
 8722SOL    HW226557   2.309   2.807   4.416 -0.1563  2.1396 -1.1819
 8723SOL     OW26558   1.206   2.320   5.000  0.0413  0.2747 -0.1134
 8723SOL    HW126559   1.186   2.403   5.044  1.3669  0.1881  0.7289
 8723SOL    HW226560   1.159   2.325   4.917 -1.9758  0.7620  0.9906
 8724SOL     OW26561   1.616   2.727   3.039 -0.1720 -0.1162 -0.0019
 8724SOL    HW126562   1.581   2.737   2.950 -0.9441 -1.7870  0.0523
 8724SOL    HW226563   1.664   2.808   3.056  2.8695 -0.9800 -3.1905
 8725SOL     OW26564   2.744   3.557   3.262  0.2412 -0.3148 -0.3243
 8725SOL    HW126565   2.709   3.560   3.351 -0.7852  0.2039 -0.7315
 8725SOL    HW226566   2.829   3.601   3.268  0.2326 -0.3896  0.4177
 8726SOL     OW26567   5.915   4.878   4.501 -0.0829 -0.1830 -0.1965
 8726SOL    HW126568   5.875   4.956   4.539 -0.9863 -1.0375  0.6577
 8726SOL    HW226569   5.957   4.834   4.574 -1.8253 -1.8362 -0.0881
 8727SOL     OW26570   1.400   1.101   6.042  0.5740  0.1250 -0.0930
 8727SOL    HW126571   1.488   1.137   6.041  1.2483 -1.2483  1.9462
 8727SOL    HW226572   1.342   1.176   6.030  1.9826  1.2953  0.2374
 8728SOL     OW26573   3.206   2.685   3.910 -0.4920 -0.2815 -0.1673
 8728SOL    HW126574   3.285   2.682   3.857  0.4912 -1.7243  1.2703
 8728SOL    HW226575   3.137   2.653   3.852 -0.3429  2.0755 -1.8045
 8729SOL     OW26576   4.229   1.636   0.005  0.4609 -0.2353  0.0654
 8729SOL    HW126577   4.208   1.684  -0.075 -1.0274 -1.1541 -0.1332
 8729SOL    HW226578   4.216   1.544  -0.019  0.6678 -0.5638  1.1697
 8730SOL     OW26579   0.037   2.386   4.809  0.1867 -0.2981 -0.6431
 8730SOL    HW126580   0.113   2.357   4.859  1.0438  0.1124 -1.6677
 8730SOL    HW226581   0.067   2.464   4.762 -0.3836 -0.9935 -2.2478
 8731SOL     OW26582   0.386   5.500   1.378 -0.0674  0.2947 -0.3474
 8731SOL    HW126583   0.347   5.513   1.464 -1.1072  2.4915 -1.0664
 8731SOL    HW226584   0.450   5.430   1.390 -2.3167 -1.5846  1.4992
 8732SOL     OW26585   5.883   2.553   4.219  0.0150  0.3130  0.0038
 8732SOL    HW126586   5.815   2.486   4.226 -0.5407  0.5137 -2.3751
 8732SOL    HW226587   5.945   2.517   4.155 -0.7460  2.3280 -1.9895
 8733SOL     OW26588   0.066   3.869   5.973  0.1733 -0.1454 -0.5777
 8733SOL    HW126589   0.099   3.780   5.982  0.3742  0.0449  0.8754
 8733SOL    HW226590  -0.007   3.874   6.036 -0.3578  0.4808 -1.2234
 8734SOL     OW26591   3.474   4.413   4.757  0.2861 -0.4956 -0.6525
 8734SOL    HW126592   3.405   4.386   4.696  0.3627  0.6518 -1.2665
 8734SOL    HW226593   3.472   4.509   4.755  2.3801 -0.4293 -1.2457
 8735SOL     OW26594   1.528   4.579   3.053 -0.0613  0.1374 -0.0221
 8735SOL    HW126595   1.543   4.491   3.088  0.9307  0.6079  0.7597
 8735SOL    HW226596   1.503   4.563   2.961  1.0331 -0.9185 -0.1621
 8736SOL     OW26597   1.694   6.733   1.548  0.2622  0.2443  0.3285
 8736SOL    HW126598   1.730   6.797   1.609  2.4582  0.0507 -0.6386
 8736SOL    HW226599   1.681   6.782   1.467 -1.7440  0.2861  0.6221
 8737SOL     OW26600   2.681   2.653   4.487 -0.3882  0.0448  0.3803
 8737SOL    HW126601   2.736   2.654   4.408  0.1721  0.8542  0.7674
 8737SOL    HW226602   2.610   2.713   4.468 -0.2198  0.2870  0.5092
 8738SOL     OW26603   5.241   3.882   5.604  0.0057 -0.2686 -0.0449
 8738SOL    HW126604   5.153   3.912   5.581 -0.1022 -0.8715 -0.4411
 8738SOL    HW226605   5.266   3.825   5.532  0.7483 -0.0586  0.0437
 8739SOL     OW26606   3.765   5.646   4.854  0.1441 -0.5344  0.2073
 8739SOL    HW126607   3.807   5.681   4.775 -2.6732  2.8506 -0.0575
 8739SOL    HW226608   3.816   5.683   4.926 -1.0184  1.9376 -0.1195
 8740SOL     OW26609   2.241   3.155   2.282 -0.0945 -0.5851 -0.0687
 8740SOL    HW126610   2.224   3.114   2.198  1.8122 -0.4445 -0.5688
 8740SOL    HW226611   2.179   3.228   2.287 -0.8956 -1.2027 -0.8953
 8741SOL     OW26612   2.369   5.413   3.999  0.5321 -0.1898  0.2682
 8741SOL    HW126613   2.414   5.431   3.916  1.4835 -1.5469  0.4553
 8741SOL    HW226614   2.375   5.495   4.048  1.7526  0.0305 -0.2099
 8742SOL     OW26615   2.981   0.437   0.096  0.5080 -0.0295 -0.3702
 8742SOL    HW126616   2.914   0.438   0.027 -0.1301 -0.6922  0.2242
 8742SOL    HW226617   3.049   0.496   0.064 -0.5449  0.9957 -0.8164
 8743SOL     OW26618   4.327   2.942   6.652  0.5140 -0.2900 -0.1013
 8743SOL    HW126619   4.258   2.878   6.668 -0.2775  0.4832 -0.3182
 8743SOL    HW226620   4.334   2.992   6.733  1.3000 -0.7978  0.1524
 8744SOL     OW26621   4.269   6.102   0.405  1.0667 -0.1945  0.2743
 8744SOL    HW126622   4.333   6.141   0.465  1.3985  1.2051 -0.9350
 8744SOL    HW226623   4.282   6.008   0.415  2.2040  0.0289  1.2393
 8745SOL     OW26624   3.195   3.795   1.753  0.1599  0.6153  0.1061
 8745SOL    HW126625   3.243   3.739   1.692 -0.0068 -1.2184  1.5513
 8745SOL    HW226626   3.225   3.884   1.733  1.6280 -0.1264 -1.2458
 8746SOL     OW26627   4.249   0.480   2.775 -0.0894 -0.2608  0.4851
 8746SOL    HW126628   4.273   0.466   2.867 -0.2283  0.1849  0.5942
 8746SOL    HW226629   4.300   0.416   2.726 -0.5300 -0.9678  0.9335
 8747SOL     OW26630   3.349   0.071   6.458  0.3407 -0.2081 -0.0347
 8747SOL    HW126631   3.401  -0.008   6.440 -0.1908 -0.6460  0.3036
 8747SOL    HW226632   3.282   0.041   6.519  1.3774  0.9632  1.7820
 8748SOL     OW26633   3.809   6.648   4.454  0.6376  0.0569 -0.1573
 8748SOL    HW126634   3.901   6.670   4.471  1.0774 -1.1343 -0.8230
 8748SOL    HW226635   3.810   6.609   4.367 -0.8301  1.8011 -1.0024
 8749SOL     OW26636   3.719   5.677   5.289  0.2937  0.0855  0.5313
 8749SOL    HW126637   3.633   5.636   5.297  1.0041 -1.9899 -1.5386
 8749SOL    HW226638   3.741   5.672   5.196  3.3555 -1.0467  1.1725
 8750SOL     OW26639   2.077   5.298   1.483  0.2493  0.1777  0.2489
 8750SOL    HW126640   2.086   5.389   1.457 -1.3891  0.1492 -0.5616
 8750SOL    HW226641   1.983   5.284   1.488  0.4888 -1.1288  1.6425
 8751SOL     OW26642   4.768   3.357   6.221 -0.9267 -0.2332  0.6009
 8751SOL    HW126643   4.755   3.274   6.175  0.8559 -0.4888  0.4692
 8751SOL    HW226644   4.862   3.361   6.237 -1.2748  0.6514  2.7519
 8752SOL     OW26645   6.286   6.197   4.646  0.3146  0.2432  0.5205
 8752SOL    HW126646   6.278   6.287   4.676 -0.2031  0.3892 -0.0215
 8752SOL    HW226647   6.354   6.201   4.578  1.2913 -0.0363  1.4666
 8753SOL     OW26648   2.499   4.455   4.099  0.2741  0.7042  0.1909
 8753SOL    HW126649   2.417   4.472   4.052  1.1779  2.2830 -0.8845
 8753SOL    HW226650   2.482   4.373   4.147 -2.2842  1.5399  0.8830
 8754SOL     OW26651   3.807   1.476   4.357 -0.2198  0.1318 -0.1058
 8754SOL    HW126652   3.738   1.417   4.327  0.2941 -0.4223 -0.2067
 8754SOL    HW226653   3.772   1.515   4.437 -0.4493 -0.5142  0.1100
 8755SOL     OW26654   5.521   4.423   1.163  0.6395 -0.4518  0.1421
 8755SOL    HW126655   5.570   4.349   1.199  1.3044 -1.3522 -2.3705
 8755SOL    HW226656   5.468   4.385   1.093 -3.1233  0.6355  2.1186
 8756SOL     OW26657   2.652   5.333   4.599  0.2373  0.5364  0.3161
 8756SOL    HW126658   2.618   5.248   4.625  1.2227 -0.1519 -0.5570
 8756SOL    HW226659   2.696   5.366   4.677 -1.5438  1.0263  1.1710
 8757SOL     OW26660   5.985   2.557   6.323 -0.3944 -0.4884 -0.2963
 8757SOL    HW126661   5.960   2.533   6.412 -1.8314 -1.7519 -0.9740
 8757SOL    HW226662   5.947   2.644   6.309  1.6273  0.6563  0.9665
 8758SOL     OW26663   1.793   6.085   1.287 -0.1832  0.4019 -0.3095
 8758SOL    HW126664   1.721   6.079   1.349 -0.7458 -0.3537 -1.0063
 8758SOL    HW226665   1.751   6.091   1.201  0.5808  0.9235 -0.6610
 8759SOL     OW26666   5.880   0.758   2.522  0.2764  0.0206 -0.2707
 8759SOL    HW126667   5.908   0.719   2.440  1.6063  0.7840 -0.2111
 8759SOL    HW226668   5.944   0.728   2.586 -0.8030 -0.6482  0.5173
 8760SOL     OW26669   6.827   5.412   5.532  0.1656 -0.2773 -0.3878
 8760SOL    HW126670   6.773   5.470   5.479 -0.9642 -1.0794 -0.1663
 8760SOL    HW226671   6.897   5.467   5.566 -2.0793  1.5284  1.6399
 8761SOL     OW26672   2.222   4.798   4.967 -0.3515 -0.4662  0.3450
 8761SOL    HW126673   2.184   4.746   5.037 -1.2683  2.2589  2.0271
 8761SOL    HW226674   2.314   4.809   4.992  0.0277 -1.7169 -0.3740
 8762SOL     OW26675   4.544   4.635   5.615 -0.1384  0.1302 -0.2288
 8762SOL    HW126676   4.454   4.669   5.619  0.2298  1.0587  1.8005
 8762SOL    HW226677   4.564   4.631   5.522 -2.3027 -0.1902 -0.7413
 8763SOL     OW26678   6.490   1.034   3.130 -0.0039  0.3925  0.6102
 8763SOL    HW126679   6.532   1.019   3.214 -0.0477  0.5546  0.6616
 8763SOL    HW226680   6.558   1.074   3.076 -0.5637  2.2411  1.2218
 8764SOL     OW26681   3.613   3.588   1.833 -0.2156  0.0804 -0.5065
 8764SOL    HW126682   3.708   3.593   1.832 -0.2112  0.1231 -0.1031
 8764SOL    HW226683   3.593   3.510   1.781  0.1044 -0.7034  0.5025
 8765SOL     OW26684   2.823   5.042   1.643  0.7927 -0.1260 -0.0153
 8765SOL    HW126685   2.763   5.095   1.695 -2.3694 -0.2558 -3.1278
 8765SOL    HW226686   2.878   5.106   1.598 -0.7110  0.4276 -1.1645
 8766SOL     OW26687   5.418   6.745   0.726 -0.6001 -0.2958  0.5343
 8766SOL    HW126688   5.463   6.814   0.677  1.0428 -1.2281  0.6522
 8766SOL    HW226689   5.332   6.782   0.745 -1.1074  0.3646 -2.4478
 8767SOL     OW26690   0.673   1.716   6.590 -0.5514  0.1310 -0.1861
 8767SOL    HW126691   0.667   1.730   6.685  0.3841  0.8534 -0.2180
 8767SOL    HW226692   0.765   1.695   6.575 -0.9135 -1.0974 -0.8063
 8768SOL     OW26693   5.996   3.274   2.939  0.4119 -0.0683  0.3259
 8768SOL    HW126694   5.991   3.252   2.846  0.4107 -1.5617  0.6630
 8768SOL    HW226695   5.999   3.370   2.940  1.4766 -0.0335 -1.2616
 8769SOL     OW26696   0.170   3.511   4.061 -0.2703  0.1857 -0.0209
 8769SOL    HW126697   0.077   3.491   4.059 -0.4377  0.9258  0.0470
 8769SOL    HW226698   0.174   3.606   4.078  0.4897  0.1510  0.0311
 8770SOL     OW26699   6.399   3.602   2.543  0.2807 -0.4436  0.0109
 8770SOL    HW126700   6.448   3.563   2.470 -0.2993 -1.9893  0.4002
 8770SOL    HW226701   6.405   3.696   2.528  0.2123 -0.7065 -2.0192
 8771SOL     OW26702   0.784   1.275   3.218  0.3563  0.6726 -0.3260
 8771SOL    HW126703   0.711   1.251   3.275 -0.5143  1.0912 -1.2319
 8771SOL    HW226704   0.861   1.238   3.261 -0.0980  1.9129  1.6877
 8772SOL     OW26705   3.096   0.943   2.700 -0.2071  0.0157 -0.0092
 8772SOL    HW126706   3.035   0.869   2.696 -0.6754  0.4338 -1.7606
 8772SOL    HW226707   3.089   0.976   2.789 -0.8428 -1.3450  0.4705
 8773SOL     OW26708   0.165   5.988   0.814 -0.0512 -0.6927  0.2511
 8773SOL    HW126709   0.193   5.964   0.726 -0.3543 -1.8946  0.4613
 8773SOL    HW226710   0.075   5.955   0.821 -2.4160  4.4691 -0.9978
 8774SOL     OW26711   5.003   3.641   3.104 -0.1341 -0.0850 -0.1143
 8774SOL    HW126712   5.068   3.591   3.053  0.8136 -0.0675  1.0277
 8774SOL    HW226713   4.943   3.575   3.137  0.3514 -0.3342  0.2952
 8775SOL     OW26714   5.617   1.180   6.650  0.5742  0.0992  0.2414
 8775SOL    HW126715   5.545   1.190   6.712  1.0893  2.0587  0.6081
 8775SOL    HW226716   5.695   1.204   6.701  1.3234 -0.6480 -0.5200
 8776SOL     OW26717   2.461   3.547   0.145 -0.1417 -0.1030  0.1562
 8776SOL    HW126718   2.478   3.477   0.082 -0.3990 -0.9814  1.0466
 8776SOL    HW226719   2.508   3.623   0.109  0.0741 -0.6992 -0.8613
 8777SOL     OW26720   0.217   5.134   4.717  0.0404 -0.0685  0.3674
 8777SOL    HW126721   0.170   5.194   4.775  0.7972 -0.4360  1.3967
 8777SOL    HW226722   0.163   5.128   4.639 -1.4748 -0.2374  1.3857
 8778SOL     OW26723   4.926   1.280   6.157 -0.0522  0.0270  0.0409
 8778SOL    HW126724   5.015   1.308   6.180  0.5076 -2.6368  1.5558
 8778SOL    HW226725   4.879   1.280   6.241 -0.8921 -0.4899 -0.4197
 8779SOL     OW26726   0.270   5.202   6.083 -0.3127  0.7032  0.1459
 8779SOL    HW126727   0.317   5.121   6.106  0.8708  0.7541 -1.8269
 8779SOL    HW226728   0.182   5.189   6.119  0.0940 -1.0769  0.6413
 8780SOL     OW26729   2.997   0.665   0.270  0.1827 -0.4046  0.0264
 8780SOL    HW126730   2.954   0.614   0.202 -1.2155 -0.0968  0.6530
 8780SOL    HW226731   3.065   0.607   0.304  0.2850 -0.8958 -0.9894
 8781SOL     OW26732   6.615   0.040   0.876  0.4138 -0.7628  0.0410
 8781SOL    HW126733   6.651  -0.014   0.805  0.8058  0.6964 -0.9052
 8781SOL    HW226734   6.690   0.069   0.926  0.3736  0.1772 -0.4083
 8782SOL     OW26735   4.307   4.353   3.660  0.0692 -0.0685 -0.3892
 8782SOL    HW126736   4.216   4.322   3.657  0.7552 -2.2094 -0.7421
 8782SOL    HW226737   4.300   4.443   3.692 -2.1370 -0.3167  0.0237
 8783SOL     OW26738   3.964   6.265   3.184  0.5016  0.1728 -0.1161
 8783SOL    HW126739   3.984   6.326   3.114  0.3797  0.9183  0.4851
 8783SOL    HW226740   4.010   6.184   3.160 -0.6511 -0.0604 -1.7558
 8784SOL     OW26741   6.152   3.775   1.419 -0.1121  0.2708 -0.2532
 8784SOL    HW126742   6.162   3.851   1.363  2.1248  0.4843  0.3204
 8784SOL    HW226743   6.241   3.738   1.425 -1.2795 -3.0378 -1.3876
 8785SOL     OW26744   2.666   3.701   3.790  0.2922  0.0403  0.4367
 8785SOL    HW126745   2.690   3.722   3.881  0.5405 -1.4434  0.7345
 8785SOL    HW226746   2.737   3.645   3.759  0.7749  1.4117 -1.0632
 8786SOL     OW26747   2.489   6.305   4.395  0.8502  0.0588  0.1890
 8786SOL    HW126748   2.399   6.325   4.420 -0.3813 -2.0173 -2.1568
 8786SOL    HW226749   2.520   6.243   4.461  0.7958  1.1701  1.2939
 8787SOL     OW26750   4.078   0.703   2.849 -0.3992  0.1223 -0.1444
 8787SOL    HW126751   4.163   0.714   2.806 -0.4433 -0.3782 -0.3635
 8787SOL    HW226752   4.019   0.676   2.778 -0.2223 -1.8890  0.4255
 8788SOL     OW26753   5.315   5.685   4.704  0.4282 -0.0780 -0.2942
 8788SOL    HW126754   5.363   5.753   4.750 -1.1750  0.4275  0.6942
 8788SOL    HW226755   5.312   5.715   4.613 -1.3362  1.8734  0.3340
 8789SOL     OW26756   4.479   4.963   5.304 -0.9065 -0.4992 -0.1613
 8789SOL    HW126757   4.390   4.944   5.333 -1.1947 -1.1234 -1.4173
 8789SOL    HW226758   4.519   4.877   5.290 -0.5153 -0.2206 -0.8222
 8790SOL     OW26759   6.145   5.790   0.047 -0.5326  1.1490  0.1070
 8790SOL    HW126760   6.110   5.865   0.095  0.3504  1.9428 -0.4322
 8790SOL    HW226761   6.196   5.830  -0.024  2.3047  0.1082  1.4305
 8791SOL     OW26762   4.637   1.751   4.764  0.3347 -0.2090 -0.5949
 8791SOL    HW126763   4.572   1.721   4.700 -0.2304  0.3325 -0.2836
 8791SOL    HW226764   4.587   1.764   4.844  0.8157  0.2839 -0.3718
 8792SOL     OW26765   0.364   0.572   5.958 -0.5364 -0.0292 -0.7157
 8792SOL    HW126766   0.455   0.600   5.969 -0.4470 -0.6405  0.3220
 8792SOL    HW226767   0.360   0.488   6.004 -1.6247 -0.0057 -0.7473
 8793SOL     OW26768   0.716   2.387   3.512 -0.4874  0.4193 -0.2086
 8793SOL    HW126769   0.645   2.441   3.477 -1.6336 -0.7412  0.2697
 8793SOL    HW226770   0.782   2.451   3.538 -1.7546  1.6114  0.2467
 8794SOL     OW26771   3.801   0.566   5.325 -0.3466  0.0001 -0.4882
 8794SOL    HW126772   3.772   0.582   5.415 -2.3213 -2.0702 -0.6747
 8794SOL    HW226773   3.756   0.633   5.273 -0.2967  0.3352 -0.1019
 8795SOL     OW26774   4.455   1.361   1.367  0.5111 -0.0710  0.5154
 8795SOL    HW126775   4.448   1.270   1.336  1.7011 -0.4725  1.3340
 8795SOL    HW226776   4.510   1.404   1.302 -0.8448  0.3580 -0.4006
 8796SOL     OW26777   6.189   5.858   4.175  0.1657 -0.2823 -0.3964
 8796SOL    HW126778   6.267   5.911   4.158  1.0103 -1.4664 -0.3889
 8796SOL    HW226779   6.206   5.776   4.128 -0.1520 -1.3476  1.2683
 8797SOL     OW26780   6.145   5.273   2.623  0.6202  0.1692  0.0645
 8797SOL    HW126781   6.116   5.241   2.538 -0.2014 -1.3181  0.8633
 8797SOL    HW226782   6.134   5.199   2.682  0.7016  1.3058  1.5744
 8798SOL     OW26783   5.046   4.775   2.589 -0.3040 -0.1696  0.0958
 8798SOL    HW126784   5.067   4.840   2.656 -1.0710  0.5815 -0.3863
 8798SOL    HW226785   4.953   4.787   2.571 -0.1526 -0.4963 -0.9665
 8799SOL     OW26786   4.767   2.339   4.871 -0.1427 -0.1919 -0.2521
 8799SOL    HW126787   4.762   2.255   4.917 -0.3243  1.0209  2.0869
 8799SOL    HW226788   4.791   2.402   4.938  2.1779  1.3542 -2.3384
 8800SOL     OW26789   0.143   3.287   2.406 -0.2641  0.5133  0.7100
 8800SOL    HW126790   0.148   3.302   2.311  1.7900 -0.2622  0.6489
 8800SOL    HW226791   0.083   3.213   2.415  0.4041 -0.1476 -0.1062
 8801SOL     OW26792   1.499   2.208   3.174  0.1773  0.2091 -0.1363
 8801SOL    HW126793   1.508   2.303   3.171 -1.4087  0.3832 -0.1380
 8801SOL    HW226794   1.589   2.176   3.174  0.7754  1.7344  0.7925
 8802SOL     OW26795   2.037   0.148   3.143 -0.4728  0.2338 -0.3088
 8802SOL    HW126796   2.025   0.101   3.061 -1.8497  1.5361 -0.8890
 8802SOL    HW226797   1.962   0.124   3.196  0.0371 -0.0342  0.3124
 8803SOL     OW26798   3.526   2.081   2.284  0.2306 -0.1206  0.1874
 8803SOL    HW126799   3.598   2.027   2.316 -0.8905 -0.9233  1.4896
 8803SOL    HW226800   3.511   2.050   2.195  1.4495  0.0382 -0.0939
 8804SOL     OW26801   3.451   1.658   2.147  0.3587 -0.3493 -0.2833
 8804SOL    HW126802   3.423   1.566   2.145  0.5579 -0.4478  0.6512
 8804SOL    HW226803   3.462   1.677   2.241 -0.1955  0.7872 -0.4270
 8805SOL     OW26804   1.880   3.337   5.774 -0.3719  0.8981 -0.2148
 8805SOL    HW126805   1.869   3.384   5.691 -0.1203  1.1384 -0.1118
 8805SOL    HW226806   1.794   3.298   5.790 -0.1511  0.0190 -1.0916
 8806SOL     OW26807   0.504   4.552   2.094  0.0635  0.5828  0.0420
 8806SOL    HW126808   0.452   4.503   2.157 -1.5529  2.4088  0.2243
 8806SOL    HW226809   0.440   4.592   2.035  1.4431  0.4372 -1.6224
 8807SOL     OW26810   1.081   1.497   2.653 -0.3954 -0.0901  0.0823
 8807SOL    HW126811   1.049   1.406   2.655  0.5167 -0.4477 -0.7249
 8807SOL    HW226812   1.176   1.488   2.650 -0.2475  0.9315  1.2528
 8808SOL     OW26813   5.589   6.807   3.618 -0.0566 -0.2069 -0.5122
 8808SOL    HW126814   5.497   6.806   3.591 -0.6323 -1.8749  1.2672
 8808SOL    HW226815   5.602   6.723   3.661  2.0052  0.4668  0.3018
 8809SOL     OW26816   5.868   4.101   2.659 -0.5668 -0.3429  0.2000
 8809SOL    HW126817   5.948   4.136   2.698  0.1247 -0.8928 -0.6710
 8809SOL    HW226818   5.833   4.040   2.725  0.1064 -0.6082  0.3165
 8810SOL     OW26819   1.939   0.587   1.046  0.0134  0.1054  0.2466
 8810SOL    HW126820   1.990   0.507   1.060 -2.3556 -1.3540  0.9928
 8810SOL    HW226821   1.905   0.609   1.133  0.2491  1.7276 -0.0277
 8811SOL     OW26822   1.953   1.688   3.522  0.5318  0.5000  0.8714
 8811SOL    HW126823   2.033   1.739   3.535  2.2629 -1.9880  0.6095
 8811SOL    HW226824   1.978   1.619   3.461 -1.4493 -1.1554  1.8091
 8812SOL     OW26825   1.759   3.307   1.003 -0.1670 -0.9809 -0.3491
 8812SOL    HW126826   1.730   3.398   1.001  0.4344 -0.7618  0.3511
 8812SOL    HW226827   1.690   3.259   0.959 -1.1478 -0.3615  0.4645
 8813SOL     OW26828   4.814   6.229   4.954 -0.4190  0.0846 -0.1517
 8813SOL    HW126829   4.772   6.287   4.890 -0.5377 -0.0698 -0.2147
 8813SOL    HW226830   4.862   6.288   5.012  0.2523  0.1796 -0.7866
 8814SOL     OW26831   4.720   5.989   2.839 -0.2859 -0.1849 -0.0312
 8814SOL    HW126832   4.786   5.921   2.832 -0.8579 -0.7438 -0.0490
 8814SOL    HW226833   4.770   6.068   2.861  0.6024 -0.1730 -1.9013
 8815SOL     OW26834   6.644   4.288   0.414 -0.2810  0.2501 -0.4177
 8815SOL    HW126835   6.597   4.310   0.494  0.1114  1.7685 -0.5837
 8815SOL    HW226836   6.608   4.346   0.347  0.7449  0.3546 -0.9023
 8816SOL     OW26837   2.765   0.571   6.759  0.2152 -0.3360 -0.2001
 8816SOL    HW126838   2.694   0.543   6.701 -1.2591  3.5002 -0.5170
 8816SOL    HW226839   2.723   0.628   6.823  2.4663 -1.1612  2.1942
 8817SOL     OW26840   0.199   2.318   5.021  0.3807 -0.1789 -0.1787
 8817SOL    HW126841   0.293   2.334   5.005 -0.2091  1.9963 -2.0765
 8817SOL    HW226842   0.183   2.353   5.108  1.1900  0.1399 -0.1483
 8818SOL     OW26843   6.394   0.788   3.035 -0.5401  0.5841  0.1468
 8818SOL    HW126844   6.437   0.862   3.079  0.1664  0.2288  0.0641
 8818SOL    HW226845   6.463   0.722   3.027 -1.0364  0.1106 -0.2372
 8819SOL     OW26846   0.476   3.987   3.324 -0.0753  0.3118 -0.7228
 8819SOL    HW126847   0.408   4.019   3.265 -2.4669 -0.8015  1.2376
 8819SOL    HW226848   0.485   3.895   3.302 -0.9021 -0.0821  0.4756
 8820SOL     OW26849   2.735   3.201   4.106 -0.9135 -0.2553 -0.3014
 8820SOL    HW126850   2.661   3.188   4.047 -0.7827  0.7479 -0.6989
 8820SOL    HW226851   2.809   3.163   4.060 -0.9331 -0.0545 -0.5012
 8821SOL     OW26852   4.969   2.919   1.053  0.1401  0.3082 -0.0546
 8821SOL    HW126853   4.900   2.922   0.987 -1.0909 -1.3673  1.0764
 8821SOL    HW226854   5.015   2.837   1.036  0.1561  0.1296  0.7972
 8822SOL     OW26855   3.687   1.863   6.090 -0.0642  0.0364 -0.6853
 8822SOL    HW126856   3.705   1.888   6.000 -0.0200  0.8180 -0.4766
 8822SOL    HW226857   3.670   1.947   6.134 -0.8566 -0.3978 -0.1432
 8823SOL     OW26858   3.612   1.774   3.207 -0.4376 -0.2693  0.2562
 8823SOL    HW126859   3.603   1.679   3.214 -0.3984 -0.2019  1.3809
 8823SOL    HW226860   3.661   1.799   3.286 -1.7112  0.8526  0.7181
 8824SOL     OW26861   6.228   6.611   2.042 -0.0341 -0.8573 -0.3860
 8824SOL    HW126862   6.239   6.569   2.127 -1.4858  0.6689  0.6210
 8824SOL    HW226863   6.135   6.604   2.022 -0.0786  0.5672 -0.8519
 8825SOL     OW26864   2.552   0.872   2.483  0.1987  0.1134 -0.3037
 8825SOL    HW126865   2.642   0.861   2.451  0.2332 -1.1658  0.1992
 8825SOL    HW226866   2.562   0.898   2.574  0.0556 -0.5996 -0.0829
 8826SOL     OW26867   1.182   5.992   6.537 -0.0788 -0.2102 -0.2308
 8826SOL    HW126868   1.199   5.905   6.502  0.6471  0.2142 -0.9729
 8826SOL    HW226869   1.174   5.979   6.632 -1.0200 -1.2248 -0.4362
 8827SOL     OW26870   2.835   5.966   2.214  0.4649  0.3701 -0.5090
 8827SOL    HW126871   2.826   5.999   2.124 -1.2225  0.3287 -0.3806
 8827SOL    HW226872   2.800   6.036   2.269  1.3725  0.3443  0.1219
 8828SOL     OW26873   3.010   3.899   4.964 -0.3559  0.2599  0.7163
 8828SOL    HW126874   3.009   3.896   5.060 -1.1729 -0.0943  0.7006
 8828SOL    HW226875   3.049   3.985   4.943 -0.6620  0.5619  1.3619
 8829SOL     OW26876   5.729   0.247   2.602  0.4067 -0.3376 -0.2927
 8829SOL    HW126877   5.636   0.259   2.621  0.4376 -0.6517  0.0538
 8829SOL    HW226878   5.732   0.234   2.507  0.0102 -1.1563 -0.1997
 8830SOL     OW26879   5.429   2.381   5.589  0.3311  0.1835  0.5889
 8830SOL    HW126880   5.356   2.322   5.609 -2.0613  2.7365  0.2046
 8830SOL    HW226881   5.458   2.413   5.674 -1.2390  1.5092  0.6810
 8831SOL     OW26882   3.105   0.584   5.209  0.2825  0.1351  0.0229
 8831SOL    HW126883   3.167   0.518   5.177 -2.4025 -2.5642  0.0213
 8831SOL    HW226884   3.059   0.614   5.130 -0.8734 -0.5779  0.4154
 8832SOL     OW26885   4.375   4.472   4.944  0.0358 -0.8516  0.0645
 8832SOL    HW126886   4.369   4.474   5.040 -0.8973 -0.8776  0.0226
 8832SOL    HW226887   4.460   4.433   4.926  1.2578  1.2393  0.8751
 8833SOL     OW26888   5.003   4.916   2.247 -0.2168  0.1618 -0.4447
 8833SOL    HW126889   5.071   4.981   2.227 -1.0749  0.7331 -1.6506
 8833SOL    HW226890   4.952   4.956   2.318 -0.2672  0.4689 -0.6517
 8834SOL     OW26891   2.596   4.175   5.729  0.0119  0.2128 -0.6079
 8834SOL    HW126892   2.521   4.215   5.683  0.3647  1.5784 -0.0384
 8834SOL    HW226893   2.614   4.234   5.801 -0.1407 -1.5882  0.9800
 8835SOL     OW26894   0.038   6.345   5.607  0.7833 -0.4552 -0.2403
 8835SOL    HW126895  -0.038   6.383   5.650  0.8382 -1.3121  0.6290
 8835SOL    HW226896   0.054   6.403   5.533  1.3813  1.7724  1.5109
 8836SOL     OW26897   5.128   1.874   3.551 -0.4312 -0.2183  0.1650
 8836SOL    HW126898   5.111   1.862   3.645 -1.8898 -0.9094 -0.1602
 8836SOL    HW226899   5.080   1.953   3.528  1.7614  1.2640  0.4223
 8837SOL     OW26900   1.227   2.061   6.672  0.8421  0.2483 -0.7405
 8837SOL    HW126901   1.279   2.071   6.592  1.3294  1.5423 -0.2958
 8837SOL    HW226902   1.282   2.007   6.729  0.5887 -0.4912 -1.1824
 8838SOL     OW26903   0.953   5.844   3.507  0.2622 -0.1242 -0.1412
 8838SOL    HW126904   1.023   5.909   3.512  0.6281 -0.4577 -0.8340
 8838SOL    HW226905   0.904   5.856   3.589  0.5910  0.7110 -0.0537
 8839SOL     OW26906   6.258   4.760   2.825 -0.4355 -0.5185 -0.1984
 8839SOL    HW126907   6.288   4.723   2.908 -0.9105  0.3245  0.3741
 8839SOL    HW226908   6.336   4.760   2.769  0.0962 -0.3454  0.5251
 8840SOL     OW26909   3.714   0.521   0.076 -0.0336 -0.6330 -0.0763
 8840SOL    HW126910   3.647   0.589   0.067  0.8817  0.3711  0.4711
 8840SOL    HW226911   3.797   0.570   0.083  0.7063 -1.8264 -0.2747
 8841SOL     OW26912   4.776   2.909   2.515 -0.0803 -0.2345 -0.6202
 8841SOL    HW126913   4.716   2.844   2.552 -1.4276  0.8543 -0.7659
 8841SOL    HW226914   4.863   2.872   2.527 -0.7854 -1.9537 -0.5166
 8842SOL     OW26915   0.445   1.702   5.248  0.6032 -0.1078 -0.2571
 8842SOL    HW126916   0.428   1.749   5.166  1.1772 -0.9176 -0.8554
 8842SOL    HW226917   0.509   1.756   5.294  2.2141 -0.8657 -1.4986
 8843SOL     OW26918   2.205   2.789   2.309 -0.2322  0.2625  0.0888
 8843SOL    HW126919   2.261   2.867   2.298  1.5105 -0.9605 -0.0727
 8843SOL    HW226920   2.118   2.819   2.281  0.3340  2.2112  0.2397
 8844SOL     OW26921   2.303   2.019   2.790  0.3161  0.2700  0.5012
 8844SOL    HW126922   2.270   2.105   2.814 -0.2709 -0.3062  1.8255
 8844SOL    HW226923   2.398   2.032   2.780  0.3128  0.9562  1.2385
 8845SOL     OW26924   2.062   4.921   0.084 -0.0549  0.3691 -0.7378
 8845SOL    HW126925   2.110   5.004   0.081  1.1284 -0.0708  2.4564
 8845SOL    HW226926   2.067   4.893   0.175 -0.5527 -3.1676 -1.6424
 8846SOL     OW26927   5.517   1.215   4.775  0.2888  0.0623  0.0580
 8846SOL    HW126928   5.433   1.183   4.742  1.3831 -3.8121  0.5347
 8846SOL    HW226929   5.578   1.203   4.703  0.9314  0.2850  0.5495
 8847SOL     OW26930   1.694   4.676   6.180  0.4809 -0.5425  0.4275
 8847SOL    HW126931   1.766   4.715   6.131  0.4932 -1.1196 -0.0176
 8847SOL    HW226932   1.671   4.743   6.245 -0.3610  0.7576 -1.1332
 8848SOL     OW26933   1.742   1.889   5.828  0.1072 -0.4882  0.1657
 8848SOL    HW126934   1.830   1.855   5.812 -0.3909 -2.6058  1.5783
 8848SOL    HW226935   1.727   1.874   5.921 -0.8623  2.1195  0.5054
 8849SOL     OW26936   2.065   2.464   4.403 -0.2695 -0.4090 -0.0279
 8849SOL    HW126937   2.043   2.532   4.467  0.7150 -3.2093  3.6234
 8849SOL    HW226938   1.980   2.431   4.373 -1.0192 -1.5966  2.9945
 8850SOL     OW26939   0.949   0.149   6.183  1.0235  0.2856  0.4772
 8850SOL    HW126940   1.040   0.172   6.196  0.7589  1.3095  0.6039
 8850SOL    HW226941   0.915   0.216   6.124  0.4038 -0.2014  0.2580
 8851SOL     OW26942   1.987   5.913   6.066 -0.1881  0.5194 -0.3701
 8851SOL    HW126943   1.891   5.920   6.060 -0.1349  0.8337 -0.9904
 8851SOL    HW226944   2.014   5.890   5.977  0.3036  0.3095 -0.1653
 8852SOL     OW26945   0.868   4.298   3.840  0.5154 -0.4844 -0.5097
 8852SOL    HW126946   0.825   4.277   3.756  1.8899  0.8998 -1.6008
 8852SOL    HW226947   0.946   4.243   3.841  1.8456  1.2824 -1.3789
 8853SOL     OW26948   1.936   5.382   6.276 -0.3697 -0.3406 -0.0727
 8853SOL    HW126949   1.891   5.410   6.196 -1.8612 -1.8251  0.1990
 8853SOL    HW226950   2.024   5.419   6.268 -1.9095  3.8710 -0.0251
 8854SOL     OW26951   5.002   2.618   2.272  0.0042 -0.3321  0.1584
 8854SOL    HW126952   5.077   2.562   2.248 -1.5945 -1.7141 -1.9510
 8854SOL    HW226953   4.930   2.557   2.287 -1.0686  1.0334  0.7653
 8855SOL     OW26954   0.123   2.640   4.759 -0.0184  0.1819 -0.1149
 8855SOL    HW126955   0.170   2.670   4.837  0.2840  0.7258 -0.4960
 8855SOL    HW226956   0.162   2.691   4.688 -0.3965 -0.2034 -0.5964
 8856SOL     OW26957   2.791   6.414   4.329  0.1478  0.0020 -0.8586
 8856SOL    HW126958   2.814   6.348   4.264 -1.9625 -1.2414 -0.4321
 8856SOL    HW226959   2.696   6.413   4.332  0.1460 -0.2082  2.4684
 8857SOL     OW26960   0.113   1.389   6.653  0.1260 -0.0767 -0.1562
 8857SOL    HW126961   0.104   1.474   6.695 -0.2447  0.9322 -2.1545
 8857SOL    HW226962   0.170   1.405   6.579 -0.1335 -1.5251 -0.7046
 8858SOL     OW26963   3.312   5.147   2.375  0.0350  0.6209 -0.1952
 8858SOL    HW126964   3.326   5.240   2.363  0.3010  0.7672  1.0814
 8858SOL    HW226965   3.362   5.125   2.453 -0.6433 -0.4271 -0.0323
 8859SOL     OW26966   0.381   0.077   1.339 -0.1657  0.5459 -0.2672
 8859SOL    HW126967   0.360  -0.008   1.301  0.4708 -0.0009  0.5830
 8859SOL    HW226968   0.474   0.089   1.323 -0.2499  1.0922 -0.3840
 8860SOL     OW26969   2.272   0.052   2.403 -0.1568  0.2222  0.0538
 8860SOL    HW126970   2.264   0.144   2.430  0.5511  0.6076 -0.9747
 8860SOL    HW226971   2.250   0.053   2.309 -0.5407 -0.7328  0.1179
 8861SOL     OW26972   3.791   5.269   6.263 -0.1549  0.0118  0.2341
 8861SOL    HW126973   3.844   5.345   6.286 -1.1330  0.9156 -0.3850
 8861SOL    HW226974   3.706   5.306   6.239 -0.9958 -1.3750  0.9677
 8862SOL     OW26975   1.888   3.981   2.834 -0.0884  0.4041  0.4664
 8862SOL    HW126976   1.852   3.893   2.835 -0.7517  0.6714  0.4484
 8862SOL    HW226977   1.910   4.000   2.925  1.3088 -0.2746  0.2983
 8863SOL     OW26978   0.607   3.101   6.093  0.1185  0.3441 -0.3822
 8863SOL    HW126979   0.524   3.055   6.080 -0.8177  2.4102 -2.3603
 8863SOL    HW226980   0.590   3.162   6.165  0.0202  0.5193 -0.5526
 8864SOL     OW26981   1.363   1.472   2.591  0.1620  0.4198  0.1804
 8864SOL    HW126982   1.386   1.551   2.542 -0.8590 -0.5687 -2.0369
 8864SOL    HW226983   1.435   1.411   2.574 -0.1981  0.0691 -0.0972
 8865SOL     OW26984   2.550   4.998   1.995  0.0479  0.0172  0.4184
 8865SOL    HW126985   2.636   5.038   2.000 -0.0466  0.2104  0.5320
 8865SOL    HW226986   2.523   4.988   2.087 -0.0936  0.0536  0.3817
 8866SOL     OW26987   2.423   2.354   1.725 -0.1880 -0.0335  0.1513
 8866SOL    HW126988   2.513   2.352   1.693  0.3016 -0.6092  1.4890
 8866SOL    HW226989   2.405   2.447   1.742 -0.0818  0.1541 -0.7296
 8867SOL     OW26990   3.647   4.970   6.605  0.7155  0.1936 -0.0933
 8867SOL    HW126991   3.596   4.916   6.544  1.1604  1.1647 -1.3507
 8867SOL    HW226992   3.732   4.980   6.562  1.0147  0.9460  0.6651
 8868SOL     OW26993   4.500   2.037   4.428  0.1592  0.4144 -0.0248
 8868SOL    HW126994   4.429   2.049   4.366  0.4508 -2.2187 -0.9889
 8868SOL    HW226995   4.462   2.057   4.513 -1.1851  0.8544 -0.7108
 8869SOL     OW26996   6.451   4.297   1.659  0.0209  0.0351  0.6746
 8869SOL    HW126997   6.438   4.390   1.640  1.5897  0.2136  0.3048
 8869SOL    HW226998   6.449   4.292   1.754  3.3649  1.1256  0.9543
 8870SOL     OW26999   3.583   4.738   4.797  0.5722  0.2270 -0.0106
 8870SOL    HW127000   3.522   4.805   4.768  0.3186  0.2617  0.6036
 8870SOL    HW227001   3.667   4.784   4.807  0.4326  0.4213  0.2667
 8871SOL     OW27002   0.498   2.465   0.156 -0.2229  0.2165 -0.9730
 8871SOL    HW127003   0.552   2.505   0.225 -0.1555 -0.1012 -0.8395
 8871SOL    HW227004   0.528   2.374   0.152  0.4958  0.4918 -2.1494
 8872SOL     OW27005   2.261   5.839   1.930  0.2384 -0.2658 -0.2435
 8872SOL    HW127006   2.354   5.832   1.906  0.6754 -0.5540  1.4251
 8872SOL    HW227007   2.249   5.774   1.999 -0.4405  1.8018  1.7046
 8873SOL     OW27008   2.542   3.423   5.665 -0.0473  0.2655 -0.1271
 8873SOL    HW127009   2.480   3.351   5.654  0.0407 -0.0260  1.1301
 8873SOL    HW227010   2.626   3.386   5.638  0.0090 -0.1300  0.5815
 8874SOL     OW27011   1.145   2.903   0.517 -0.2578 -0.5143  0.2543
 8874SOL    HW127012   1.146   2.982   0.570  1.2240 -0.4538  0.1839
 8874SOL    HW227013   1.064   2.858   0.541  0.2094 -0.3269  2.3074
 8875SOL     OW27014   6.149   4.644   3.942  0.1569 -0.8719  0.5866
 8875SOL    HW127015   6.111   4.577   3.999 -1.5123 -2.2548 -1.9904
 8875SOL    HW227016   6.200   4.595   3.878  0.8060  0.5318 -0.0124
 8876SOL     OW27017   3.891   6.692   2.787  0.6532  0.1963  0.5433
 8876SOL    HW127018   3.956   6.623   2.797 -0.6002 -0.9828  0.7323
 8876SOL    HW227019   3.846   6.671   2.705  0.8583  1.3316  0.1092
 8877SOL     OW27020   2.593   5.070   6.119  0.1849  0.0907  0.2285
 8877SOL    HW127021   2.684   5.088   6.095  0.2521 -0.9686 -0.4082
 8877SOL    HW227022   2.550   5.052   6.035  0.0638 -2.1797  0.7238
 8878SOL     OW27023   3.975   2.770   0.144 -0.6381  0.2847 -0.5520
 8878SOL    HW127024   4.022   2.783   0.226  1.2562 -0.1634 -1.4934
 8878SOL    HW227025   3.907   2.838   0.144 -0.7187  0.2600  1.3739
 8879SOL     OW27026   1.649   5.791   0.060  0.2020  0.0256 -0.1753
 8879SOL    HW127027   1.681   5.876   0.090  0.7870 -0.0858 -0.4599
 8879SOL    HW227028   1.727   5.748   0.025 -0.3113 -0.1774 -1.0873
 8880SOL     OW27029   2.331   6.062   6.828 -0.0300 -0.4002  0.2392
 8880SOL    HW127030   2.407   6.092   6.878  0.1428  0.2993 -0.4227
 8880SOL    HW227031   2.283   6.006   6.888 -0.1506  0.8895  1.3780
 8881SOL     OW27032   4.908   1.064   3.930 -0.3843  0.3747 -0.1983
 8881SOL    HW127033   4.947   1.061   3.842 -1.4962  0.5721 -0.7192
 8881SOL    HW227034   4.946   0.989   3.976 -0.6823 -0.4365 -1.2425
 8882SOL     OW27035   0.418   5.888   4.335  0.1384  0.2795  0.4155
 8882SOL    HW127036   0.403   5.794   4.323  2.2339 -0.1972  1.2067
 8882SOL    HW227037   0.340   5.918   4.382 -0.8556 -0.9180 -0.3955
 8883SOL     OW27038   1.519   0.589   1.433  0.8875  0.2290  0.6269
 8883SOL    HW127039   1.567   0.650   1.488  2.5342 -2.3307  2.2234
 8883SOL    HW227040   1.513   0.509   1.485  0.2754 -1.5381 -1.9680
 8884SOL     OW27041   3.636   4.243   6.375  0.0693 -0.2255 -0.6795
 8884SOL    HW127042   3.648   4.150   6.354  0.4189 -0.0339 -1.3624
 8884SOL    HW227043   3.564   4.271   6.319  0.8726  0.2420 -1.4957
 8885SOL     OW27044   4.469   6.649   1.082  0.3838  0.2021 -0.2381
 8885SOL    HW127045   4.442   6.563   1.050 -1.0616  0.7741 -0.6300
 8885SOL    HW227046   4.437   6.653   1.172  0.3223  0.3815 -0.2674
 8886SOL     OW27047   4.908   1.297   3.274  0.1313  0.2779  0.3201
 8886SOL    HW127048   4.926   1.304   3.368  0.8899 -0.7020  0.2650
 8886SOL    HW227049   4.887   1.386   3.247 -4.0433  0.0749  2.1527
 8887SOL     OW27050   5.334   4.198   1.637 -0.2211  0.2116 -0.2088
 8887SOL    HW127051   5.277   4.186   1.561 -0.7243  0.9810  0.0307
 8887SOL    HW227052   5.296   4.272   1.684  0.4122  0.1071  0.4935
 8888SOL     OW27053   0.681   3.324   3.175 -0.0299 -0.0503  0.2172
 8888SOL    HW127054   0.695   3.230   3.174 -0.7189 -0.1728  1.2231
 8888SOL    HW227055   0.695   3.351   3.084  1.2556 -0.9461  0.1091
 8889SOL     OW27056   4.573   2.851   4.349 -0.4026 -0.3321  0.0998
 8889SOL    HW127057   4.568   2.774   4.293  0.6385  0.4383 -1.1082
 8889SOL    HW227058   4.643   2.831   4.412 -1.6146 -1.2211  1.2094
 8890SOL     OW27059   3.431   1.536   2.721 -0.3197  0.3622  0.4995
 8890SOL    HW127060   3.505   1.591   2.696 -0.6703  0.8721  0.5797
 8890SOL    HW227061   3.404   1.569   2.807 -0.1338 -0.3419  0.8349
 8891SOL     OW27062   3.289   1.060   4.114  0.3168  0.1427 -0.5021
 8891SOL    HW127063   3.295   0.990   4.049  0.0090 -1.3043  0.9735
 8891SOL    HW227064   3.377   1.068   4.150  0.5550  1.1407 -1.2415
 8892SOL     OW27065   2.012   4.590   5.592 -0.1988  0.1402  0.0223
 8892SOL    HW127066   2.099   4.628   5.609  1.1949 -2.9091  0.2670
 8892SOL    HW227067   1.995   4.534   5.667 -2.6414  0.9466  0.1509
 8893SOL     OW27068   6.047   0.707   2.722 -0.4623 -0.3804  0.4019
 8893SOL    HW127069   6.056   0.786   2.776  0.3344  0.6603 -1.1911
 8893SOL    HW227070   6.127   0.704   2.670 -2.3361  0.2595 -2.7744
 8894SOL     OW27071   4.899   1.591   4.103  0.3876  0.3122  0.0383
 8894SOL    HW127072   4.951   1.532   4.157  0.6797  1.6171  1.2612
 8894SOL    HW227073   4.830   1.623   4.163  0.7157  1.7919 -0.3335
 8895SOL     OW27074   1.135   4.017   1.191 -0.0416 -0.0779 -0.1948
 8895SOL    HW127075   1.057   3.998   1.138  0.3685 -0.8808 -0.5257
 8895SOL    HW227076   1.112   3.987   1.278 -0.5791  0.8989  0.0135
 8896SOL     OW27077   0.909   5.083   3.068 -0.1994 -0.2205 -0.3817
 8896SOL    HW127078   0.964   5.160   3.057  1.1244 -1.3355 -1.8942
 8896SOL    HW227079   0.900   5.073   3.163  0.6291  1.0656 -0.1566
 8897SOL     OW27080   4.045   2.834   1.958  0.4552  0.6871  0.1216
 8897SOL    HW127081   3.962   2.804   1.995  1.9655 -0.5916  2.7667
 8897SOL    HW227082   4.059   2.920   1.997  0.3070  0.9881 -0.4776
 8898SOL     OW27083   0.014   0.842   5.778 -0.0780 -0.2830 -0.4016
 8898SOL    HW127084  -0.042   0.918   5.763  1.1625  0.7106 -0.2187
 8898SOL    HW227085   0.013   0.795   5.694 -1.0953 -0.2384 -0.4218
 8899SOL     OW27086   2.228   5.583   6.409 -0.6874 -0.1571  0.0038
 8899SOL    HW127087   2.190   5.667   6.384  0.3392  0.3987  0.2299
 8899SOL    HW227088   2.219   5.581   6.504 -1.7034 -0.8193 -0.0907
 8900SOL     OW27089   4.786   6.516   3.296  0.4771  0.1702  0.3589
 8900SOL    HW127090   4.864   6.570   3.307  0.2880  0.1203  2.3551
 8900SOL    HW227091   4.785   6.492   3.203  1.5049  2.1484 -0.2090
 8901SOL     OW27092   3.157   3.273   1.294  0.0995  0.0631  0.1429
 8901SOL    HW127093   3.225   3.246   1.356  1.7733 -0.1832 -1.7302
 8901SOL    HW227094   3.134   3.193   1.247 -0.6247  0.3809 -0.0521
 8902SOL     OW27095   4.126   3.784   0.949  0.3862  0.0311  0.0336
 8902SOL    HW127096   4.116   3.822   0.862  0.4477  2.1291  0.8787
 8902SOL    HW227097   4.190   3.714   0.937  1.5509  1.2553 -1.3725
 8903SOL     OW27098   0.021   5.131   5.480 -0.3633  0.9288 -0.5783
 8903SOL    HW127099   0.021   5.227   5.486 -2.8434  1.2018 -2.9189
 8903SOL    HW227100  -0.072   5.108   5.474  0.2298 -1.5229 -1.3764
 8904SOL     OW27101   6.089   6.172   3.029  0.2078  0.2106  0.0569
 8904SOL    HW127102   6.059   6.117   2.957  1.3241 -1.7687  1.0315
 8904SOL    HW227103   6.139   6.242   2.986 -1.6146  0.8051 -1.2298
 8905SOL     OW27104   0.533   1.311   4.249 -0.0424  0.3819  0.5981
 8905SOL    HW127105   0.548   1.216   4.249  1.9121  0.6488 -0.2890
 8905SOL    HW227106   0.439   1.320   4.233  0.1657 -1.4367 -2.5199
 8906SOL     OW27107   1.416   5.663   1.499  0.2934 -0.4813 -0.0321
 8906SOL    HW127108   1.393   5.613   1.420 -0.5900  0.7061 -0.5467
 8906SOL    HW227109   1.503   5.698   1.481  1.1723 -2.2448  0.5613
 8907SOL     OW27110   2.204   2.505   2.675 -0.0050  1.1045  0.2396
 8907SOL    HW127111   2.214   2.499   2.580 -1.1854 -1.0684  0.1790
 8907SOL    HW227112   2.111   2.487   2.690  0.0065  2.1705  1.7661
 8908SOL     OW27113   5.485   2.321   2.421  0.4367 -0.1279 -0.5818
 8908SOL    HW127114   5.494   2.307   2.516  0.5918 -2.6908 -0.8919
 8908SOL    HW227115   5.461   2.413   2.412  0.5367  0.2143  1.9354
 8909SOL     OW27116   5.488   2.362   0.482  0.2965  0.0861 -0.3160
 8909SOL    HW127117   5.492   2.388   0.574 -0.5039  0.3806 -0.3566
 8909SOL    HW227118   5.506   2.268   0.484 -2.2959 -0.4709  0.4587
 8910SOL     OW27119   2.667   2.904   2.716 -0.0847 -0.0254 -0.2197
 8910SOL    HW127120   2.615   2.864   2.646  1.5373  0.4445 -1.7585
 8910SOL    HW227121   2.757   2.891   2.689  0.5699  1.1405  1.2666
 8911SOL     OW27122   3.719   0.883   1.425 -0.4030  0.1484 -0.1967
 8911SOL    HW127123   3.753   0.914   1.509 -0.2995 -0.0359 -0.1701
 8911SOL    HW227124   3.701   0.963   1.376  0.6603  0.2445 -0.4435
 8912SOL     OW27125   0.989   5.631   0.518  0.0847 -0.0453  0.1907
 8912SOL    HW127126   0.921   5.566   0.499 -1.2770  2.1055 -3.3863
 8912SOL    HW227127   1.062   5.606   0.461 -0.4138  1.3292 -1.1417
 8913SOL     OW27128   0.661   3.405   3.458 -0.0494  0.5275 -1.0286
 8913SOL    HW127129   0.671   3.378   3.367 -0.6440 -1.8087 -0.4740
 8913SOL    HW227130   0.701   3.334   3.508  0.6577  1.9685  0.5587
 8914SOL     OW27131   3.085   5.478   1.551 -0.2733 -0.1358 -0.3760
 8914SOL    HW127132   3.014   5.524   1.506 -1.5683 -0.0037  1.6694
 8914SOL    HW227133   3.164   5.529   1.530 -0.8866  0.1560 -2.0913
 8915SOL     OW27134   5.273   5.951   0.139  0.2548  0.5032 -0.9136
 8915SOL    HW127135   5.264   5.912   0.052 -1.3774 -0.4057 -0.3927
 8915SOL    HW227136   5.262   5.877   0.199 -0.5258  1.3843  0.0643
 8916SOL     OW27137   1.033   6.447   1.502 -0.6601  0.0260 -0.4787
 8916SOL    HW127138   1.002   6.368   1.457  0.5660 -1.0272  0.4637
 8916SOL    HW227139   1.099   6.484   1.444  1.3906 -1.6865  0.6087
 8917SOL     OW27140   1.962   3.546   4.221  0.7676  0.1846  0.0334
 8917SOL    HW127141   1.917   3.626   4.247  1.8129  0.4521  1.1289
 8917SOL    HW227142   1.934   3.480   4.285  2.4074  0.5297  1.1642
 8918SOL     OW27143   1.104   4.003   2.068  0.4250  1.0324 -0.0096
 8918SOL    HW127144   1.154   4.000   1.987 -1.7724  0.5857 -1.4432
 8918SOL    HW227145   1.052   4.083   2.062 -1.7868 -0.3138 -0.4394
 8919SOL     OW27146   4.651   6.129   1.084  0.0036  0.9050 -0.3010
 8919SOL    HW127147   4.736   6.126   1.040  0.4854 -0.9240  0.6632
 8919SOL    HW227148   4.668   6.169   1.169 -0.2389  1.1976 -0.3881
 8920SOL     OW27149   6.748   3.976   1.094 -0.0693 -0.4697 -0.0360
 8920SOL    HW127150   6.841   3.968   1.071  0.3095 -2.9341  1.8453
 8920SOL    HW227151   6.748   3.996   1.188 -1.5343  3.2088 -0.6490
 8921SOL     OW27152   1.851   5.960   6.726 -0.1315 -0.3216  0.1084
 8921SOL    HW127153   1.902   5.894   6.679  1.5227 -0.0732  1.4564
 8921SOL    HW227154   1.788   5.992   6.661  1.6531 -0.4073 -1.7597
 8922SOL     OW27155   4.040   4.691   3.368  0.0975  0.1383  0.2404
 8922SOL    HW127156   3.996   4.722   3.289 -1.1347 -0.4751  0.6570
 8922SOL    HW227157   4.034   4.595   3.362  0.8711  0.0582  0.6106
 8923SOL     OW27158   4.003   3.335   0.788  0.2046  0.3625  0.5150
 8923SOL    HW127159   3.932   3.338   0.853  0.6346 -0.3601  1.0311
 8923SOL    HW227160   3.967   3.285   0.715  0.0478  0.3314  0.6127
 8924SOL     OW27161   5.077   3.833   6.363  0.5365  0.2188 -0.0206
 8924SOL    HW127162   5.097   3.772   6.292  1.8572  0.3899  0.1814
 8924SOL    HW227163   5.158   3.839   6.413  0.7523  2.8107 -0.5335
 8925SOL     OW27164   1.606   3.845   6.026 -0.4147  0.5448 -0.7455
 8925SOL    HW127165   1.656   3.903   5.969 -0.0005  2.9371  1.8237
 8925SOL    HW227166   1.516   3.855   5.997 -0.0392  0.4822 -1.9628
 8926SOL     OW27167   5.582   5.607   1.710 -0.5911 -0.0447 -0.4899
 8926SOL    HW127168   5.652   5.546   1.731 -0.0265  0.4552 -0.8900
 8926SOL    HW227169   5.570   5.659   1.789 -0.3842 -0.0091 -0.4824
 8927SOL     OW27170   1.505   4.129   4.823  0.1285 -0.1048  0.2535
 8927SOL    HW127171   1.577   4.167   4.771 -0.6608  1.3813  0.1813
 8927SOL    HW227172   1.484   4.197   4.887 -2.3456  0.2660 -0.8278
 8928SOL     OW27173   2.111   3.785   2.965  0.5337  0.2479  0.1036
 8928SOL    HW127174   2.131   3.737   3.045 -2.8977  2.6180  2.7072
 8928SOL    HW227175   2.155   3.869   2.976  0.4581  0.3997 -0.7334
 8929SOL     OW27176   4.455   0.365   5.558  0.1742 -0.0420  0.1014
 8929SOL    HW127177   4.505   0.367   5.476 -0.1909 -0.9164 -0.1507
 8929SOL    HW227178   4.364   0.371   5.530  0.0654  0.0248  0.4727
 8930SOL     OW27179   6.543   3.018   2.781 -0.0693 -0.3858  0.1930
 8930SOL    HW127180   6.555   3.074   2.704 -0.8752 -0.8755 -0.3089
 8930SOL    HW227181   6.457   2.977   2.767 -1.6970  1.8182  2.8262
 8931SOL     OW27182   0.930   4.320   0.717 -0.2636  0.1619 -0.3651
 8931SOL    HW127183   0.969   4.251   0.770 -0.8322  0.6879  0.7714
 8931SOL    HW227184   0.911   4.277   0.633 -0.2040 -0.9438  0.1632
 8932SOL     OW27185   5.446   3.888   4.653 -0.7044 -0.3514 -0.1449
 8932SOL    HW127186   5.416   3.826   4.587  0.5065  0.8764 -1.9494
 8932SOL    HW227187   5.438   3.974   4.611  2.8024  0.2661  0.1061
 8933SOL     OW27188   3.601   2.896   5.374  0.2310  0.4572 -0.1991
 8933SOL    HW127189   3.551   2.879   5.294 -0.6149 -0.7787  0.5547
 8933SOL    HW227190   3.645   2.813   5.393 -1.5561 -0.1059  1.9191
 8934SOL     OW27191   0.241   5.564   1.157  0.1017 -0.0757 -0.3307
 8934SOL    HW127192   0.287   5.530   1.234 -0.0951  0.0584 -0.1550
 8934SOL    HW227193   0.167   5.505   1.145  1.7317 -1.9276 -2.1851
 8935SOL     OW27194   2.689   2.623   5.750  0.1309 -0.2090 -0.5142
 8935SOL    HW127195   2.741   2.639   5.671  1.6222  1.0618  0.6639
 8935SOL    HW227196   2.705   2.531   5.771 -0.3236 -0.5712 -1.7107
 8936SOL     OW27197   2.827   4.271   0.062 -0.0975  0.6368  0.2585
 8936SOL    HW127198   2.805   4.345   0.006  0.6719  0.9407  0.3360
 8936SOL    HW227199   2.921   4.282   0.081 -0.0769 -0.0996  0.6509
 8937SOL     OW27200   3.359   2.855   1.141 -0.4744  0.1543  0.1298
 8937SOL    HW127201   3.421   2.835   1.211  1.1856 -1.6540 -1.7377
 8937SOL    HW227202   3.317   2.772   1.120 -3.4286  1.2610  1.1138
 8938SOL     OW27203   0.454   1.583   6.106 -0.2461  0.4442 -0.3938
 8938SOL    HW127204   0.382   1.529   6.073 -0.2916 -0.2449  0.8091
 8938SOL    HW227205   0.431   1.672   6.078 -0.9517  0.0682 -1.0461
 8939SOL     OW27206   3.899   2.827   4.052  0.6005  0.3852  0.1783
 8939SOL    HW127207   3.994   2.829   4.059  0.6818  0.9363 -0.8666
 8939SOL    HW227208   3.874   2.740   4.082  1.5375 -0.1904 -0.6761
 8940SOL     OW27209   4.180   6.706   6.480 -0.8767  0.2234  0.5584
 8940SOL    HW127210   4.110   6.736   6.539 -1.1795 -0.6306  0.6566
 8940SOL    HW227211   4.187   6.612   6.498  0.9074  0.4358  1.1773
 8941SOL     OW27212   0.289   4.065   1.842  0.2608  0.1057  0.3986
 8941SOL    HW127213   0.335   3.997   1.791  0.8366  0.4479  0.4535
 8941SOL    HW227214   0.198   4.035   1.845  0.4408 -0.4873  0.1222
 8942SOL     OW27215   6.040   0.874   0.537 -0.2116 -0.7648  0.0197
 8942SOL    HW127216   6.075   0.963   0.541  0.0757 -0.7848 -1.3362
 8942SOL    HW227217   6.058   0.837   0.623  0.5736  0.1595  0.2775
 8943SOL     OW27218   0.213   0.279   5.405 -0.0147  0.0554 -0.5880
 8943SOL    HW127219   0.184   0.282   5.496 -1.6134 -3.2739 -0.8151
 8943SOL    HW227220   0.302   0.244   5.409 -0.0293  0.0512 -0.2778
 8944SOL     OW27221   3.901   2.515   5.916 -0.2809  0.2539 -0.1331
 8944SOL    HW127222   3.827   2.473   5.959 -0.0068 -0.3101 -0.2054
 8944SOL    HW227223   3.943   2.566   5.985 -1.1460  1.1495 -0.2512
 8945SOL     OW27224   6.670   2.524   4.242  0.4184 -0.0883  0.2677
 8945SOL    HW127225   6.612   2.592   4.210  1.1175 -0.4209 -1.8649
 8945SOL    HW227226   6.611   2.452   4.267 -0.1506  0.1132 -0.4808
 8946SOL     OW27227   6.727   5.496   4.994 -0.6209 -0.1384 -0.1033
 8946SOL    HW127228   6.762   5.443   4.922  0.0450 -0.9751  0.8103
 8946SOL    HW227229   6.805   5.522   5.044 -0.9885  1.2492 -0.2160
 8947SOL     OW27230   6.296   2.518   4.143  0.2458  0.6012 -0.1493
 8947SOL    HW127231   6.339   2.446   4.188 -2.2941 -1.4518 -0.7674
 8947SOL    HW227232   6.355   2.540   4.071  0.5710 -1.7337 -0.6771
 8948SOL     OW27233   6.432   6.612   1.068  0.0988 -0.6230 -0.1782
 8948SOL    HW127234   6.480   6.566   1.000  1.5582 -0.5304  0.7488
 8948SOL    HW227235   6.340   6.592   1.051  0.5069 -1.4153 -1.5575
 8949SOL     OW27236   0.766   6.131   3.111 -0.3760  0.3393  0.0979
 8949SOL    HW127237   0.840   6.093   3.063 -0.6970 -2.1054  1.3439
 8949SOL    HW227238   0.731   6.058   3.163 -2.4585  1.8883  1.0501
 8950SOL     OW27239   4.191   6.554   2.568 -0.4730 -0.2256 -0.3570
 8950SOL    HW127240   4.205   6.627   2.628 -0.2087 -0.9796  0.5302
 8950SOL    HW227241   4.132   6.589   2.502 -0.1164  0.8763 -0.1221
 8951SOL     OW27242   0.390   3.456   1.235  0.7288  0.2716  0.0507
 8951SOL    HW127243   0.457   3.388   1.245  1.0184  0.7064  1.2227
 8951SOL    HW227244   0.396   3.508   1.315  0.1530  1.3696 -0.5894
 8952SOL     OW27245   3.739   4.066   5.745 -0.3060 -0.2331 -0.8703
 8952SOL    HW127246   3.718   4.061   5.838 -1.0923  1.0497 -0.9560
 8952SOL    HW227247   3.680   4.132   5.710  0.5639 -0.0670 -2.1143
 8953SOL     OW27248   0.778   0.389   6.713  0.3694  0.0237 -0.5176
 8953SOL    HW127249   0.792   0.482   6.696  0.6774  0.4664  1.8458
 8953SOL    HW227250   0.852   0.346   6.671  2.9028  1.3331  2.1892
 8954SOL     OW27251   2.357   3.654   6.077  0.2094  0.0062 -0.9396
 8954SOL    HW127252   2.393   3.660   5.988 -1.1488  2.2005 -1.4232
 8954SOL    HW227253   2.269   3.692   6.069 -1.5573 -3.3460  0.5565
 8955SOL     OW27254   2.717   2.824   1.628  0.3603  0.1737  0.1008
 8955SOL    HW127255   2.754   2.796   1.711  0.0501  0.1344  0.2293
 8955SOL    HW227256   2.705   2.743   1.578 -2.1877 -0.1968  1.1455
 8956SOL     OW27257   5.955   1.810   3.539  0.1617 -0.3923 -0.1704
 8956SOL    HW127258   5.869   1.803   3.582  0.8656  0.8158  1.5406
 8956SOL    HW227259   5.959   1.901   3.509  0.4942 -0.6965 -1.0838
 8957SOL     OW27260   5.451   5.575   2.648 -0.0260  0.2846 -0.6906
 8957SOL    HW127261   5.484   5.517   2.717 -1.6480 -0.0972 -0.1922
 8957SOL    HW227262   5.430   5.517   2.575  0.0796  0.4781 -0.8773
 8958SOL     OW27263   5.232   5.529   0.151 -0.2229 -0.3233 -0.0781
 8958SOL    HW127264   5.284   5.464   0.103 -1.4688 -1.3064 -0.1186
 8958SOL    HW227265   5.164   5.479   0.194 -0.3970  0.8098  1.0191
 8959SOL     OW27266   3.043   4.088   5.666  0.1348  0.1048  0.2190
 8959SOL    HW127267   2.957   4.045   5.666  0.2172 -0.3141 -3.0622
 8959SOL    HW227268   3.089   4.049   5.740 -1.4166 -2.1092  0.1205
 8960SOL     OW27269   1.264   2.622   3.508  0.2435  0.2264  1.0155
 8960SOL    HW127270   1.343   2.650   3.554  0.9299 -0.4495  0.2796
 8960SOL    HW227271   1.243   2.536   3.545  0.2517  0.1007  0.7296
 8961SOL     OW27272   2.343   1.956   1.481 -1.0349  0.2774 -0.2449
 8961SOL    HW127273   2.309   1.877   1.441 -1.1604  0.1430  0.1313
 8961SOL    HW227274   2.268   1.998   1.521 -0.6733 -0.3161  1.0878
 8962SOL     OW27275   6.016   2.770   4.554  0.0505 -0.1137 -0.1544
 8962SOL    HW127276   6.033   2.845   4.612  0.4652  1.2045 -1.9165
 8962SOL    HW227277   6.035   2.802   4.466  1.6699 -2.7110 -0.8692
 8963SOL     OW27278   3.418   5.494   2.135 -0.4909 -0.2261  0.3951
 8963SOL    HW127279   3.494   5.503   2.193  0.0890 -1.6291 -0.0867
 8963SOL    HW227280   3.356   5.559   2.166 -0.4769 -1.3301  3.0233
 8964SOL     OW27281   2.743   0.827   0.372  0.0542  0.5809  0.2660
 8964SOL    HW127282   2.696   0.789   0.446  1.8605  1.0821  1.7727
 8964SOL    HW227283   2.805   0.758   0.346 -0.3728  0.5187 -0.6012
 8965SOL     OW27284   0.256   6.493   0.353 -0.1466  0.2176  0.1284
 8965SOL    HW127285   0.293   6.406   0.366  0.3989 -0.3644 -3.9019
 8965SOL    HW227286   0.330   6.553   0.358  0.5880 -0.3286 -2.6268
 8966SOL     OW27287   5.995   4.053   1.571  0.4018 -0.3490 -0.2050
 8966SOL    HW127288   6.080   4.075   1.606  0.0509  1.3973 -0.3879
 8966SOL    HW227289   5.938   4.045   1.647  0.2130  0.8472 -0.2160
 8967SOL     OW27290   3.209   6.147   0.621  0.1136 -0.3242 -0.1728
 8967SOL    HW127291   3.152   6.223   0.606 -1.2699 -1.1530  0.7277
 8967SOL    HW227292   3.250   6.164   0.706 -0.1253 -0.5411 -0.0139
 8968SOL     OW27293   1.983   5.887   5.773 -0.2189 -0.0254 -0.7473
 8968SOL    HW127294   1.901   5.871   5.726 -1.1227  1.1137  0.3507
 8968SOL    HW227295   2.039   5.813   5.750 -2.1532 -1.7512 -0.1982
 8969SOL     OW27296   4.611   0.774   2.384 -0.1911 -0.4446  0.7344
 8969SOL    HW127297   4.549   0.845   2.398 -0.7132 -0.4255 -1.3503
 8969SOL    HW227298   4.557   0.695   2.386  0.1268 -0.6484  1.4196
 8970SOL     OW27299   2.080   3.078   0.502 -0.0348  0.6093  0.1896
 8970SOL    HW127300   2.142   3.014   0.468 -0.1192  1.0578 -0.8275
 8970SOL    HW227301   2.097   3.157   0.451 -1.8567  0.5625 -0.5518
 8971SOL     OW27302   1.167   1.097   6.633 -0.0339  0.4544 -0.4036
 8971SOL    HW127303   1.201   1.012   6.659 -0.7708  0.5665  1.0421
 8971SOL    HW227304   1.243   1.145   6.601  0.5062 -0.5060 -0.5723
 8972SOL     OW27305   5.027   3.303   5.756 -0.6224 -0.3631  0.1588
 8972SOL    HW127306   4.982   3.338   5.679 -0.1778 -1.3267 -0.5641
 8972SOL    HW227307   5.117   3.291   5.728 -0.0822  0.7228  1.3241
 8973SOL     OW27308   3.075   4.908   0.602 -0.1283 -0.0184 -0.0952
 8973SOL    HW127309   3.097   4.970   0.533  1.6860 -0.5494 -0.0590
 8973SOL    HW227310   3.087   4.956   0.683 -0.7833  0.1703 -0.1044
 8974SOL     OW27311   6.735   5.378   6.357  0.0529  0.0535 -0.6378
 8974SOL    HW127312   6.767   5.291   6.380 -0.5808 -0.0363 -0.0819
 8974SOL    HW227313   6.641   5.366   6.342 -0.0547  0.6612 -0.4644
 8975SOL     OW27314   6.210   6.168   0.569  0.5513 -0.2949  0.7352
 8975SOL    HW127315   6.215   6.140   0.660  1.0491 -0.8688  0.5412
 8975SOL    HW227316   6.154   6.102   0.526  1.1543 -0.6121  0.4203
 8976SOL     OW27317   5.423   0.896   4.602 -0.2779  0.1036  0.1245
 8976SOL    HW127318   5.465   0.848   4.673 -1.1212 -0.1760  0.4430
 8976SOL    HW227319   5.368   0.961   4.645  0.3949  0.9826 -0.3020
 8977SOL     OW27320   5.981   4.438   6.384  0.1480  0.5143 -0.3480
 8977SOL    HW127321   5.897   4.419   6.426  0.0845 -1.3464 -1.1906
 8977SOL    HW227322   6.034   4.359   6.399  2.5643  2.3865  1.9201
 8978SOL     OW27323   6.277   0.785   3.383  0.7179  0.0550  0.0154
 8978SOL    HW127324   6.254   0.840   3.458  0.9393  0.3349 -0.1169
 8978SOL    HW227325   6.280   0.846   3.309  0.9014 -0.1472 -0.1459
 8979SOL     OW27326   6.820   2.092   3.098  0.8840  0.2084 -0.2343
 8979SOL    HW127327   6.837   2.176   3.057 -1.4406  1.5504  1.3430
 8979SOL    HW227328   6.742   2.059   3.054  1.6720 -1.0934 -0.7246
 8980SOL     OW27329   6.344   2.912   4.874 -0.1008 -1.0822 -0.2800
 8980SOL    HW127330   6.341   2.948   4.785  1.8353 -1.6050 -0.6209
 8980SOL    HW227331   6.337   2.988   4.931 -2.1135 -0.8075 -0.8366
 8981SOL     OW27332   5.929   1.807   5.463  0.0631  0.5065 -0.1115
 8981SOL    HW127333   5.928   1.900   5.484 -0.2826 -0.0081  2.5798
 8981SOL    HW227334   5.852   1.772   5.509  0.9096 -1.2870  0.0174
 8982SOL     OW27335   4.450   6.210   0.589  0.2133 -0.5739 -0.2618
 8982SOL    HW127336   4.457   6.224   0.684 -0.3173  0.4381 -0.3649
 8982SOL    HW227337   4.464   6.296   0.551 -1.2803 -0.6375 -1.0184
 8983SOL     OW27338   0.055   5.628   4.529 -0.0307  0.3515 -0.1241
 8983SOL    HW127339   0.133   5.673   4.561 -1.4603  1.4247  2.1035
 8983SOL    HW227340  -0.001   5.698   4.495 -1.0788 -0.0572  0.6937
 8984SOL     OW27341   0.336   2.488   1.673 -0.2517  0.7730  0.5532
 8984SOL    HW127342   0.288   2.493   1.590 -1.5804  1.5150  1.3380
 8984SOL    HW227343   0.424   2.518   1.651 -0.3845  0.2620 -0.7365
 8985SOL     OW27344   6.615   5.003   5.125  0.1194  0.2700 -0.3125
 8985SOL    HW127345   6.547   5.069   5.129  0.4746  0.7571 -1.7353
 8985SOL    HW227346   6.624   4.982   5.032  2.3370  0.6932 -0.2544
 8986SOL     OW27347   3.129   2.827   0.801 -0.2428  0.5462  0.6284
 8986SOL    HW127348   3.092   2.892   0.861 -1.7712  0.0108  0.2932
 8986SOL    HW227349   3.224   2.838   0.810 -0.4612  1.7874  1.6957
 8987SOL     OW27350   3.651   4.615   5.107  0.0147 -0.0036  0.4882
 8987SOL    HW127351   3.605   4.660   5.036 -0.6659 -0.0015  0.9177
 8987SOL    HW227352   3.726   4.573   5.065 -0.0493  0.4849 -0.1257
 8988SOL     OW27353   6.779   0.515   1.181 -0.2671  0.2651  0.2185
 8988SOL    HW127354   6.785   0.437   1.235  1.3570  0.2166  0.0132
 8988SOL    HW227355   6.793   0.588   1.242 -1.1547  0.3822  0.3015
 8989SOL     OW27356   5.225   4.135   3.709  0.0311  0.0756 -0.2452
 8989SOL    HW127357   5.305   4.097   3.672 -1.6217 -2.0627 -1.8484
 8989SOL    HW227358   5.205   4.079   3.785 -0.9731 -0.6680 -1.0300
 8990SOL     OW27359   5.907   0.631   0.462  0.5419 -0.3648  0.5622
 8990SOL    HW127360   5.883   0.601   0.550  1.3876  1.2010  1.3559
 8990SOL    HW227361   5.963   0.707   0.476 -2.9512  2.9259 -1.2728
 8991SOL     OW27362   4.001   0.818   0.850  0.3494 -0.4157 -0.4735
 8991SOL    HW127363   4.024   0.895   0.797  1.4763  0.5158  1.2812
 8991SOL    HW227364   3.910   0.833   0.876  0.4742  0.2081 -0.3695
 8992SOL     OW27365   4.317   2.553   5.862 -0.4555  0.3106 -0.2517
 8992SOL    HW127366   4.318   2.606   5.942 -0.5331  2.3996 -1.5543
 8992SOL    HW227367   4.410   2.539   5.841 -0.4358 -0.3816  0.2669
 8993SOL     OW27368   1.951   2.435   5.677 -0.1507 -0.2085 -0.7115
 8993SOL    HW127369   1.977   2.526   5.663  0.9808 -0.2918  0.6606
 8993SOL    HW227370   2.021   2.384   5.637  1.2595 -0.4301  1.8209
 8994SOL     OW27371   4.657   2.468   0.037 -0.1610  0.0592 -0.2892
 8994SOL    HW127372   4.634   2.523   0.112 -0.0371  0.7503 -0.7524
 8994SOL    HW227373   4.642   2.378   0.068  0.2545  0.3119  0.6835
 8995SOL     OW27374   4.103   2.293   0.348  0.0227  0.3257 -0.2228
 8995SOL    HW127375   4.066   2.265   0.265  0.4634  0.0030 -0.3155
 8995SOL    HW227376   4.147   2.215   0.382 -2.6953 -0.4831  1.7787
 8996SOL     OW27377   6.792   5.759   5.102  0.4000 -0.2717 -0.0713
 8996SOL    HW127378   6.876   5.739   5.142  0.8130 -1.9558 -1.6387
 8996SOL    HW227379   6.801   5.731   5.011 -1.5560  0.3808 -0.5283
 8997SOL     OW27380   1.350   5.443   0.111 -0.2699  0.2757  0.0277
 8997SOL    HW127381   1.278   5.457   0.049 -0.6285 -1.3628  0.0178
 8997SOL    HW227382   1.358   5.348   0.116  0.5008  0.4020  1.6575
 8998SOL     OW27383   2.558   2.856   4.869  0.8857 -0.0047  0.5719
 8998SOL    HW127384   2.525   2.932   4.821  0.0702 -0.1967  0.8175
 8998SOL    HW227385   2.635   2.828   4.820 -0.4841 -0.8228 -1.2255
 8999SOL     OW27386   3.076   3.231   5.363  0.1471  0.2953  0.2537
 8999SOL    HW127387   3.127   3.182   5.428 -0.0697 -0.6557 -0.2791
 8999SOL    HW227388   3.064   3.318   5.403  1.6076  0.3314  0.6652
 9000SOL     OW27389   1.156   0.654   2.632  0.1927  0.1037 -0.4363
 9000SOL    HW127390   1.073   0.685   2.594 -0.4722  0.0855  0.9612
 9000SOL    HW227391   1.148   0.559   2.634 -0.3315  0.1602  0.9331
 9001SOL     OW27392   5.176   4.253   6.603  0.0972 -0.4380 -0.1588
 9001SOL    HW127393   5.145   4.202   6.678  1.7064 -0.7258  0.3568
 9001SOL    HW227394   5.246   4.307   6.639 -0.8770  1.4029 -0.9274
 9002SOL     OW27395   1.624   6.793   0.053 -0.0362  0.6138  0.7463
 9002SOL    HW127396   1.682   6.725   0.017  0.5797  0.3156  2.2378
 9002SOL    HW227397   1.558   6.745   0.102 -0.9055  1.0160  0.0074
 9003SOL     OW27398   4.444   3.945   3.297  0.5449 -0.2136 -0.2228
 9003SOL    HW127399   4.479   4.032   3.317  0.6118 -0.3805  0.4104
 9003SOL    HW227400   4.364   3.939   3.351  0.2026 -0.3058 -0.7313
 9004SOL     OW27401   1.434   0.609   0.266  0.2807 -1.0114  0.1936
 9004SOL    HW127402   1.416   0.570   0.351  0.8812 -1.2580  0.2157
 9004SOL    HW227403   1.360   0.582   0.211 -0.1322 -0.8104  0.6423
 9005SOL     OW27404   6.497   2.738   0.777  0.0291 -0.4421  0.5527
 9005SOL    HW127405   6.422   2.797   0.768  0.6037  0.5015  1.5594
 9005SOL    HW227406   6.474   2.681   0.850 -0.0604 -0.7136  0.3116
 9006SOL     OW27407   6.729   0.195   5.668  0.3919  0.5406  0.8920
 9006SOL    HW127408   6.712   0.213   5.761  2.6434 -2.6947  2.1305
 9006SOL    HW227409   6.820   0.221   5.655  0.6229 -0.5719  0.1049
 9007SOL     OW27410   0.446   2.322   1.881  0.3987 -0.3839  0.2346
 9007SOL    HW127411   0.506   2.260   1.840 -0.2018 -1.4293  0.8765
 9007SOL    HW227412   0.414   2.376   1.809 -1.5949 -2.9642 -0.9783
 9008SOL     OW27413   5.758   3.148   3.991 -0.2877 -0.0372 -0.0402
 9008SOL    HW127414   5.848   3.117   3.994 -0.2580  0.0738  0.3482
 9008SOL    HW227415   5.763   3.235   3.952 -0.3119 -0.3130 -0.6648
 9009SOL     OW27416   3.835   1.934   0.200 -0.4594 -0.0110  0.7671
 9009SOL    HW127417   3.874   1.916   0.286 -1.9300 -2.0044  1.0861
 9009SOL    HW227418   3.908   1.923   0.139  0.0504 -1.1894  1.5488
 9010SOL     OW27419   4.580   2.889   5.949 -0.3713 -0.7955 -0.0010
 9010SOL    HW127420   4.598   2.801   5.982 -1.0099 -1.1484 -0.5796
 9010SOL    HW227421   4.573   2.879   5.854  1.4410  0.2170 -0.2948
 9011SOL     OW27422   4.643   4.653   6.546  0.7838  0.2147 -0.9492
 9011SOL    HW127423   4.710   4.654   6.478  2.9092  0.4900  0.9953
 9011SOL    HW227424   4.635   4.560   6.571  0.9799  0.2574 -0.7166
 9012SOL     OW27425   6.406   5.794   2.500  0.3227  0.3983  0.5342
 9012SOL    HW127426   6.316   5.807   2.530  0.1583  1.2413 -0.2564
 9012SOL    HW227427   6.459   5.850   2.557  0.3118  0.1195  0.8185
 9013SOL     OW27428   0.960   2.106   2.189 -0.4757  0.5120 -0.1700
 9013SOL    HW127429   0.969   2.075   2.279 -1.8480  1.0207  0.1653
 9013SOL    HW227430   0.956   2.026   2.136 -0.4302  0.1895  0.3085
 9014SOL     OW27431   1.122   6.169   0.181  0.2776 -0.1793 -1.0543
 9014SOL    HW127432   1.201   6.195   0.228  0.6702 -0.1016 -1.7375
 9014SOL    HW227433   1.154   6.114   0.109 -0.0700  1.3999 -2.4948
 9015SOL     OW27434   4.073   5.451   5.158  0.1381 -0.1065  0.2165
 9015SOL    HW127435   4.067   5.368   5.205 -2.4304  0.3373  0.8360
 9015SOL    HW227436   4.125   5.508   5.216  0.2507 -0.7068  0.7096
 9016SOL     OW27437   6.153   3.440   0.605 -0.2747 -0.2550 -0.1267
 9016SOL    HW127438   6.240   3.450   0.565 -0.7561 -2.8112 -2.0157
 9016SOL    HW227439   6.097   3.409   0.534 -2.1746 -1.0404  1.6278
 9017SOL     OW27440   5.254   0.047   3.280 -0.0817  0.2184 -0.1200
 9017SOL    HW127441   5.326   0.019   3.224  1.5940 -0.7917  2.3894
 9017SOL    HW227442   5.232   0.135   3.249  1.1100 -0.0816 -1.9622
 9018SOL     OW27443   2.714   6.580   2.944 -0.3072 -0.4096  0.1186
 9018SOL    HW127444   2.697   6.648   2.878 -1.4518 -0.4823  0.3303
 9018SOL    HW227445   2.785   6.617   2.997 -0.0344  0.0644 -0.5593
 9019SOL     OW27446   5.762   1.604   2.302 -0.4541  0.3424  0.6534
 9019SOL    HW127447   5.722   1.583   2.386 -0.3633 -1.6259  0.2549
 9019SOL    HW227448   5.705   1.562   2.237  2.3564 -3.1099  0.0831
 9020SOL     OW27449   2.763   4.029   3.307  0.5240 -0.8215  0.2127
 9020SOL    HW127450   2.825   4.052   3.237 -0.1681  0.2115 -0.0758
 9020SOL    HW227451   2.685   3.999   3.261  0.6236 -1.6568  0.5732
 9021SOL     OW27452   5.621   3.735   0.155 -0.0328  0.2990  0.2768
 9021SOL    HW127453   5.566   3.764   0.082  0.5966  0.0976 -0.2896
 9021SOL    HW227454   5.582   3.652   0.182 -1.9302  1.6765  2.0022
 9022SOL     OW27455   4.897   4.687   3.333  0.8992 -0.0318 -0.2101
 9022SOL    HW127456   4.839   4.612   3.344  1.0980 -0.0841  0.5520
 9022SOL    HW227457   4.842   4.763   3.353  0.9773 -0.0529  0.0955
 9023SOL     OW27458   6.498   2.882   2.506 -0.2706  0.0738 -0.2899
 9023SOL    HW127459   6.561   2.842   2.446 -0.6719  0.5743 -1.0557
 9023SOL    HW227460   6.538   2.965   2.530 -0.2238 -0.0177 -0.0435
 9024SOL     OW27461   6.529   5.964   3.878 -0.0130 -0.4303 -0.1097
 9024SOL    HW127462   6.577   6.046   3.890 -0.1098 -0.3361 -0.3638
 9024SOL    HW227463   6.451   5.989   3.828  0.5433 -0.8657 -1.2311
 9025SOL     OW27464   6.373   1.452   5.129 -0.3108  0.4334  0.4499
 9025SOL    HW127465   6.430   1.457   5.052 -0.0271  2.2536  0.7254
 9025SOL    HW227466   6.407   1.378   5.180 -0.5290 -0.8180 -1.1591
 9026SOL     OW27467   6.573   1.336   1.105  0.2867 -0.7570 -0.4165
 9026SOL    HW127468   6.664   1.326   1.077  0.5306  1.9527 -0.8830
 9026SOL    HW227469   6.529   1.377   1.031  0.1671  3.4828  1.6924
 9027SOL     OW27470   3.435   2.042   3.181 -0.3132 -0.2762  0.1051
 9027SOL    HW127471   3.499   2.102   3.220  1.5457 -1.2281 -1.2662
 9027SOL    HW227472   3.489   1.980   3.131 -2.2514 -2.1014  0.1440
 9028SOL     OW27473   6.066   2.482   4.016  0.2858  0.1355 -0.1695
 9028SOL    HW127474   6.078   2.393   3.983 -0.3893  0.0836 -0.2900
 9028SOL    HW227475   6.152   2.507   4.050  0.9430  0.0916 -1.7190
 9029SOL     OW27476   6.227   1.369   6.579 -0.4061  0.0253 -0.0785
 9029SOL    HW127477   6.162   1.412   6.523 -0.2758  0.0763 -0.1910
 9029SOL    HW227478   6.308   1.418   6.565 -0.2919 -0.1648 -0.0954
 9030SOL     OW27479   6.781   4.714   1.388  0.3142 -0.1340  0.0875
 9030SOL    HW127480   6.752   4.652   1.321 -0.4755 -1.1056  1.2839
 9030SOL    HW227481   6.700   4.753   1.422  0.6557 -0.0522  0.8409
 9031SOL     OW27482   0.304   6.583   2.837 -0.0866 -0.3893 -1.1265
 9031SOL    HW127483   0.347   6.502   2.809  0.1813  0.0124 -1.9259
 9031SOL    HW227484   0.331   6.648   2.772  1.1887  0.7958  0.4740
 9032SOL     OW27485   0.103   3.820   0.176  0.0574 -0.0374 -0.2133
 9032SOL    HW127486   0.091   3.772   0.258 -2.0328 -2.0966 -1.5915
 9032SOL    HW227487   0.121   3.910   0.203 -0.8932 -0.5615  2.4885
 9033SOL     OW27488   0.120   2.586   3.131 -0.1835 -0.2540 -0.3291
 9033SOL    HW127489   0.057   2.641   3.084 -0.6995  0.1736  0.8231
 9033SOL    HW227490   0.206   2.614   3.099 -0.5102  0.2641 -0.7589
 9034SOL     OW27491   1.529   0.345   4.551  0.3208 -0.6260  0.4431
 9034SOL    HW127492   1.458   0.341   4.487  0.7849 -1.3126 -0.0461
 9034SOL    HW227493   1.560   0.436   4.546 -1.1906 -0.0286  1.4261
 9035SOL     OW27494   0.995   5.293   0.301 -0.3686 -0.4518  0.0713
 9035SOL    HW127495   0.910   5.314   0.340  0.8551  0.4517  2.5083
 9035SOL    HW227496   1.045   5.375   0.308 -0.0380 -0.1169 -3.7948
 9036SOL     OW27497   3.178   4.797   3.184  0.1049 -0.4217  0.1929
 9036SOL    HW127498   3.109   4.862   3.193 -0.3251 -0.9158  0.5676
 9036SOL    HW227499   3.136   4.723   3.140  0.6635 -0.3357 -0.4943
 9037SOL     OW27500   1.517   2.469   2.745 -0.4118 -0.4313  0.3169
 9037SOL    HW127501   1.437   2.416   2.741 -0.3242 -0.6988  1.5424
 9037SOL    HW227502   1.573   2.423   2.807  0.3993  0.1522  0.0344
 9038SOL     OW27503   1.873   2.136   4.305 -0.0437 -0.2899 -0.0275
 9038SOL    HW127504   1.860   2.120   4.399  2.8138  1.3445  0.7482
 9038SOL    HW227505   1.784   2.148   4.271 -1.1424 -0.4419  2.5462
 9039SOL     OW27506   1.667   0.755   0.516 -0.3398 -0.1046 -0.4836
 9039SOL    HW127507   1.669   0.847   0.542  0.8775 -0.1102 -0.4871
 9039SOL    HW227508   1.595   0.718   0.566 -0.2420  0.6484  0.2494
 9040SOL     OW27509   6.515   2.157   1.475  0.4659  0.1480  0.1316
 9040SOL    HW127510   6.601   2.115   1.481  0.9167  1.1881  1.2775
 9040SOL    HW227511   6.476   2.120   1.395  2.8490  1.2694 -1.6756
 9041SOL     OW27512   1.496   6.067   2.933  0.0656  0.2187  0.3364
 9041SOL    HW127513   1.568   6.020   2.892 -0.3781  0.1725 -0.4132
 9041SOL    HW227514   1.484   6.145   2.879 -2.0663 -1.0062 -1.0945
 9042SOL     OW27515   4.953   3.773   6.588  0.4292 -0.4034 -0.1941
 9042SOL    HW127516   4.862   3.753   6.564  0.9056 -1.5126 -1.1930
 9042SOL    HW227517   4.989   3.819   6.513  0.6016  0.3763  0.3532
 9043SOL     OW27518   3.467   0.066   2.865 -0.2940  0.8347  0.2619
 9043SOL    HW127519   3.386   0.034   2.826 -0.4273  2.8421 -1.2497
 9043SOL    HW227520   3.530   0.068   2.793  0.5138  1.2169  0.9631
 9044SOL     OW27521   4.853   0.572   4.035  0.4782 -0.0785 -0.2607
 9044SOL    HW127522   4.764   0.604   4.018  1.2117  2.4789  0.2031
 9044SOL    HW227523   4.867   0.504   3.969 -1.3619  0.3612 -1.1776
 9045SOL     OW27524   1.055   3.281   3.502 -0.1846 -0.4111 -0.0633
 9045SOL    HW127525   1.082   3.354   3.446 -0.3915 -2.9828 -3.8689
 9045SOL    HW227526   0.972   3.309   3.540 -0.1820  1.3938 -1.2526
 9046SOL     OW27527   0.549   3.202   0.282 -0.1388 -0.6232 -0.7884
 9046SOL    HW127528   0.478   3.264   0.266 -0.8069 -1.9582 -3.5850
 9046SOL    HW227529   0.604   3.245   0.348 -2.6078  1.1868  0.2362
 9047SOL     OW27530   1.281   0.523   6.119  0.4910  0.1114 -0.3405
 9047SOL    HW127531   1.294   0.503   6.026  1.0174 -0.2858 -0.1888
 9047SOL    HW227532   1.220   0.597   6.119 -0.7151 -0.8548 -0.9463
 9048SOL     OW27533   2.762   0.793   3.137 -0.0871  0.7220 -0.0962
 9048SOL    HW127534   2.767   0.749   3.052  0.9243 -0.4901  0.5736
 9048SOL    HW227535   2.708   0.735   3.191  0.3499  0.8401  0.4712
 9049SOL     OW27536   3.360   5.270   2.678  0.5991  0.4953  0.0529
 9049SOL    HW127537   3.351   5.317   2.761  1.6843 -0.6707  0.8863
 9049SOL    HW227538   3.270   5.263   2.644 -0.1388 -0.5486  2.0438
 9050SOL     OW27539   5.225   2.240   1.847  0.7398  0.5220 -0.7509
 9050SOL    HW127540   5.307   2.193   1.864  0.1284 -0.5084 -0.5272
 9050SOL    HW227541   5.253   2.325   1.812  1.8930 -0.0112 -1.2066
 9051SOL     OW27542   0.633   2.218   5.575  0.2741  0.5086  0.0263
 9051SOL    HW127543   0.639   2.212   5.479  0.4024 -0.4613  0.0831
 9051SOL    HW227544   0.699   2.157   5.607 -0.2774  0.2605  0.7274
 9052SOL     OW27545   3.456   1.384   1.504 -0.6593  0.3144  0.3490
 9052SOL    HW127546   3.530   1.341   1.460 -0.7664 -0.9667  1.3634
 9052SOL    HW227547   3.389   1.392   1.436  0.0207  0.4990 -0.3104
 9053SOL     OW27548   6.566   3.721   5.817 -0.1110  0.1931 -0.1044
 9053SOL    HW127549   6.639   3.749   5.763  0.7496 -1.2845  0.2453
 9053SOL    HW227550   6.576   3.626   5.825 -0.1709  0.3188  2.6245
 9054SOL     OW27551   3.865   2.586   2.892  0.2441  0.3618  0.1164
 9054SOL    HW127552   3.891   2.500   2.859  0.1185 -0.5222  2.1544
 9054SOL    HW227553   3.944   2.639   2.884  0.8278 -0.4380  0.3504
 9055SOL     OW27554   4.259   2.542   1.531  0.1968  0.1014  0.1397
 9055SOL    HW127555   4.346   2.503   1.525  0.8664  1.5388  0.2192
 9055SOL    HW227556   4.204   2.471   1.566  1.8765 -0.0643  2.7793
 9056SOL     OW27557   3.072   0.179   3.843 -1.0468  0.4489  0.4291
 9056SOL    HW127558   3.108   0.104   3.795 -0.9943  1.5219 -1.2928
 9056SOL    HW227559   3.026   0.140   3.917  0.4571 -1.1780  0.5774
 9057SOL     OW27560   4.188   4.156   0.536 -0.4853  0.2151 -0.0982
 9057SOL    HW127561   4.212   4.191   0.450 -0.8375 -0.1917 -0.3642
 9057SOL    HW227562   4.179   4.234   0.591 -3.0456  0.7268 -1.1102
 9058SOL     OW27563   5.371   0.367   6.800  0.4643  0.2406 -0.2819
 9058SOL    HW127564   5.402   0.455   6.821 -1.1748  0.7490  0.1420
 9058SOL    HW227565   5.361   0.367   6.704 -0.0892  0.7158 -0.2273
 9059SOL     OW27566   1.691   4.255   0.065 -0.3444 -0.3320  0.1320
 9059SOL    HW127567   1.707   4.242  -0.029 -1.2443 -0.2480 -0.0395
 9059SOL    HW227568   1.711   4.347   0.080 -1.6260  0.0294 -0.2917
 9060SOL     OW27569   3.113   1.500   2.219  0.0679 -0.1730  0.3343
 9060SOL    HW127570   3.120   1.507   2.124 -0.5795  0.9412  0.3532
 9060SOL    HW227571   3.196   1.461   2.246  0.3600 -0.2797 -0.6627
 9061SOL     OW27572   2.538   6.294   3.280  0.3065 -0.2814  0.1261
 9061SOL    HW127573   2.598   6.338   3.340 -0.6551  0.0694  0.8651
 9061SOL    HW227574   2.511   6.363   3.219  0.4301 -0.3646 -0.0217
 9062SOL     OW27575   2.762   3.360   2.167  0.0641  0.1568  0.2866
 9062SOL    HW127576   2.678   3.401   2.148  0.1418  0.9154  1.4849
 9062SOL    HW227577   2.800   3.342   2.081 -0.6160  1.2756 -0.2657
 9063SOL     OW27578   5.474   5.195   3.686  0.2711  0.0314 -0.2028
 9063SOL    HW127579   5.420   5.128   3.728  0.8145 -0.8077 -0.8068
 9063SOL    HW227580   5.560   5.186   3.727  0.3102  0.4760 -0.1763
 9064SOL     OW27581   4.453   5.816   3.729 -0.5239  0.0200  0.4095
 9064SOL    HW127582   4.521   5.860   3.780 -0.9430  0.7746  0.3308
 9064SOL    HW227583   4.476   5.834   3.638 -0.9228  0.4359  0.3856
 9065SOL     OW27584   0.045   1.620   4.793 -0.4788 -0.5069 -0.0393
 9065SOL    HW127585  -0.003   1.701   4.774  0.0159  0.0544  1.0839
 9065SOL    HW227586  -0.015   1.569   4.848 -0.3900 -0.4850  0.0759
 9066SOL     OW27587   4.179   3.205   1.981 -0.2017 -0.0450  0.8616
 9066SOL    HW127588   4.112   3.138   1.966 -1.4951  1.4684 -0.5885
 9066SOL    HW227589   4.157   3.242   2.066 -1.7425  0.9450  0.0799
 9067SOL     OW27590   2.581   1.383   3.901 -0.5897 -0.3231  0.1315
 9067SOL    HW127591   2.572   1.450   3.969  0.8229 -2.0400  2.1087
 9067SOL    HW227592   2.675   1.368   3.894 -0.7638 -0.8007 -1.6222
 9068SOL     OW27593   3.874   2.643   0.993 -0.5797  0.4230  0.7139
 9068SOL    HW127594   3.937   2.664   0.924 -1.0589 -1.2976 -0.3013
 9068SOL    HW227595   3.896   2.703   1.064  1.2930  0.8099 -0.1312
 9069SOL     OW27596   1.469   4.359   4.991 -0.1251  0.3836  0.2262
 9069SOL    HW127597   1.433   4.443   4.963 -1.3750 -0.3836 -0.5836
 9069SOL    HW227598   1.401   4.322   5.048  0.0092 -0.4546 -0.1405
 9070SOL     OW27599   3.828   5.792   3.442  0.7411 -0.0772  0.4964
 9070SOL    HW127600   3.749   5.831   3.404  0.6739 -1.2743 -0.6888
 9070SOL    HW227601   3.818   5.698   3.427  2.2748 -0.2800  0.5460
 9071SOL     OW27602   0.347   5.253   0.628  0.2380 -0.2636  0.6447
 9071SOL    HW127603   0.279   5.251   0.695  0.3755  0.2014  0.8032
 9071SOL    HW227604   0.380   5.164   0.625  0.8827 -0.0942  1.8792
 9072SOL     OW27605   2.164   2.049   6.642  0.1405 -0.5957 -0.6011
 9072SOL    HW127606   2.126   2.123   6.688  1.3595  0.9801 -2.0270
 9072SOL    HW227607   2.104   1.977   6.660 -0.8171  0.5797  1.2261
 9073SOL     OW27608   5.071   1.245   2.473 -0.0053 -0.3502  0.0060
 9073SOL    HW127609   5.015   1.299   2.417  0.5035 -0.7966 -0.9688
 9073SOL    HW227610   5.038   1.156   2.461  0.2276 -0.4704  0.2672
 9074SOL     OW27611   5.184   5.257   4.568 -0.6725  0.7109 -0.7733
 9074SOL    HW127612   5.234   5.175   4.566 -0.3282  0.9185 -0.6552
 9074SOL    HW227613   5.101   5.233   4.611 -1.3054  0.0285 -2.3092
 9075SOL     OW27614   5.846   5.349   2.747  0.0831 -0.2578  0.1545
 9075SOL    HW127615   5.847   5.255   2.763  1.8831 -0.1966  0.5836
 9075SOL    HW227616   5.813   5.388   2.828  1.6876 -0.4140  0.9252
 9076SOL     OW27617   4.887   4.669   0.884 -0.5059 -0.7246  0.8347
 9076SOL    HW127618   4.858   4.750   0.842 -0.0788  0.3442  2.5051
 9076SOL    HW227619   4.982   4.669   0.875 -0.6291 -2.1190 -0.9575
 9077SOL     OW27620   6.003   1.610   5.722 -0.0648  0.0468  0.3635
 9077SOL    HW127621   5.925   1.659   5.747 -0.4611 -0.3182 -0.1612
 9077SOL    HW227622   6.033   1.652   5.641  1.1673  1.1705  1.3435
 9078SOL     OW27623   6.319   0.027   3.803  0.1889 -0.2757  0.0865
 9078SOL    HW127624   6.357  -0.056   3.832 -0.0931 -0.1676  0.7902
 9078SOL    HW227625   6.379   0.094   3.835  0.6608 -0.2188 -0.8802
 9079SOL     OW27626   2.505   0.227   5.734  0.1756 -0.3901  0.2620
 9079SOL    HW127627   2.437   0.290   5.709 -0.6062 -1.2743  0.1196
 9079SOL    HW227628   2.584   0.259   5.690 -0.4656 -0.1452 -0.7496
 9080SOL     OW27629   4.636   6.443   1.682  0.0476  0.1976 -0.2886
 9080SOL    HW127630   4.683   6.424   1.601  0.3731  0.6479 -0.2084
 9080SOL    HW227631   4.544   6.440   1.658  0.1420  0.2910 -0.6685
 9081SOL     OW27632   3.777   5.133   0.568  0.2280  0.3268 -0.9021
 9081SOL    HW127633   3.835   5.151   0.493  1.5025  0.5842  0.1082
 9081SOL    HW227634   3.744   5.219   0.594 -0.3777  0.2147 -1.2815
 9082SOL     OW27635   5.857   0.388   4.301  0.4624  0.2179 -0.1921
 9082SOL    HW127636   5.833   0.301   4.268  1.6376 -0.8773  1.6520
 9082SOL    HW227637   5.945   0.376   4.338  0.0152  1.7906  1.5291
 9083SOL     OW27638   5.152   2.797   3.773 -0.2901  0.3834  0.7146
 9083SOL    HW127639   5.146   2.878   3.722  0.1867  1.0035  1.6097
 9083SOL    HW227640   5.235   2.758   3.746 -0.3764  0.3398  0.5055
 9084SOL     OW27641   4.973   2.130   3.129  0.0610  0.2738  0.2933
 9084SOL    HW127642   5.056   2.148   3.174  0.3321 -1.0086  0.3502
 9084SOL    HW227643   4.914   2.199   3.160  1.0937  1.2196  0.2410
 9085SOL     OW27644   4.064   6.311   1.702  0.3288  0.3900 -0.5374
 9085SOL    HW127645   4.077   6.298   1.608 -0.6218 -1.9650 -0.4205
 9085SOL    HW227646   3.969   6.309   1.714  0.4718 -1.8881  0.7058
 9086SOL     OW27647   2.827   2.882   5.612 -0.4844 -0.0978 -0.1021
 9086SOL    HW127648   2.833   2.921   5.525  2.5261 -0.0884  0.0227
 9086SOL    HW227649   2.787   2.951   5.667  0.8842  1.2678 -0.7535
 9087SOL     OW27650   4.913   1.084   6.795  0.1413  0.1367 -0.1928
 9087SOL    HW127651   4.922   1.053   6.705  1.7361 -1.1715  0.3605
 9087SOL    HW227652   4.945   1.012   6.848 -2.1354  0.2959  1.5415
 9088SOL     OW27653   3.124   5.476   2.737  0.2085  0.2452 -0.4731
 9088SOL    HW127654   3.172   5.474   2.820  1.0932 -2.2016 -0.9364
 9088SOL    HW227655   3.039   5.437   2.757  0.8937 -1.5858 -0.8864
 9089SOL     OW27656   5.567   3.857   3.287 -0.0368 -0.2371  0.0792
 9089SOL    HW127657   5.590   3.900   3.370 -0.4359 -1.6411  0.9661
 9089SOL    HW227658   5.471   3.848   3.291 -0.1512  0.4285 -0.9266
 9090SOL     OW27659   2.367   2.216   3.206 -0.1038 -0.6312 -0.6828
 9090SOL    HW127660   2.360   2.123   3.185 -1.9682 -1.2488  2.1728
 9090SOL    HW227661   2.289   2.255   3.167  0.7504 -0.1568 -2.0069
 9091SOL     OW27662   5.599   1.901   2.471 -0.7320 -0.2682  0.4140
 9091SOL    HW127663   5.668   1.842   2.502 -0.5845  0.4636  1.5245
 9091SOL    HW227664   5.645   1.984   2.452 -1.3772  0.4288  1.7815
 9092SOL     OW27665   5.744   4.368   2.569  0.6799 -0.1175 -0.4370
 9092SOL    HW127666   5.686   4.376   2.645 -0.6323  1.9057 -1.5388
 9092SOL    HW227667   5.776   4.278   2.572 -0.6069 -0.5727  1.5958
 9093SOL     OW27668   1.295   0.955   5.246  0.3602  0.5771 -0.0026
 9093SOL    HW127669   1.260   0.897   5.314  1.0145 -0.6165 -0.6316
 9093SOL    HW227670   1.327   0.894   5.178  1.0605  1.6923 -0.6987
 9094SOL     OW27671   4.153   5.228   1.331 -0.1827 -0.3182 -0.2091
 9094SOL    HW127672   4.165   5.236   1.236 -0.7632  1.7517 -0.1601
 9094SOL    HW227673   4.231   5.182   1.361 -0.0636 -1.1573 -1.6862
 9095SOL     OW27674   3.644   2.582   2.690 -0.1356 -0.2190  0.3751
 9095SOL    HW127675   3.728   2.579   2.735 -0.5801  0.2483  1.2657
 9095SOL    HW227676   3.589   2.519   2.737 -0.6506  0.3869  0.6001
 9096SOL     OW27677   4.990   0.275   3.232  0.0450  0.1310 -0.1769
 9096SOL    HW127678   4.964   0.219   3.158 -0.8215 -0.2145  0.3746
 9096SOL    HW227679   4.961   0.363   3.206 -0.0896  0.0445 -0.3252
 9097SOL     OW27680   1.483   4.400   4.017  0.2437  0.4157  0.9283
 9097SOL    HW127681   1.531   4.317   4.019  0.0493  0.3220  1.8855
 9097SOL    HW227682   1.421   4.394   4.090 -0.9149  0.7300 -0.0011
 9098SOL     OW27683   3.435   3.765   3.946 -0.1072 -0.1540 -0.1296
 9098SOL    HW127684   3.413   3.856   3.966  2.5839  0.3163  1.1171
 9098SOL    HW227685   3.368   3.714   3.990 -2.4535  1.1431 -1.9049
 9099SOL     OW27686   3.175   0.420   2.680  0.6669  0.2063  0.1075
 9099SOL    HW127687   3.106   0.456   2.735  0.9263 -1.8801  1.9645
 9099SOL    HW227688   3.250   0.477   2.695  0.7517 -0.3282  2.0597
 9100SOL     OW27689   1.910   4.956   6.692 -0.2565 -0.2114 -0.2529
 9100SOL    HW127690   1.958   4.956   6.775 -2.0479  3.8218  1.0574
 9100SOL    HW227691   1.962   5.012   6.635  0.8328 -2.7623 -1.9564
 9101SOL     OW27692   4.086   5.312   5.405 -0.2588 -0.2022 -0.0231
 9101SOL    HW127693   4.074   5.220   5.431 -0.1850 -0.6024 -1.3254
 9101SOL    HW227694   4.001   5.353   5.424 -1.2440 -1.2002 -1.9254
 9102SOL     OW27695   4.154   0.764   3.365  0.5246  0.0765  0.3745
 9102SOL    HW127696   4.124   0.719   3.287  0.8117 -0.1603  0.3960
 9102SOL    HW227697   4.082   0.756   3.427  0.3715  0.0982  0.1970
 9103SOL     OW27698   5.836   3.608   0.050 -0.3545  0.1260  0.2555
 9103SOL    HW127699   5.884   3.689   0.033 -0.8582  0.7365  1.6009
 9103SOL    HW227700   5.760   3.635   0.102 -0.9515 -1.1106  0.0623
 9104SOL     OW27701   4.107   1.199   2.969 -0.2508 -0.4460  0.5318
 9104SOL    HW127702   4.100   1.240   2.883 -0.8540 -1.8909 -0.1343
 9104SOL    HW227703   4.017   1.176   2.993  0.0337 -1.1215  1.0066
 9105SOL     OW27704   3.124   5.685   5.482  0.2547  0.4421  0.3198
 9105SOL    HW127705   3.177   5.710   5.406 -0.7765  0.7565 -0.3222
 9105SOL    HW227706   3.159   5.600   5.510 -1.1716 -1.1887 -2.3656
 9106SOL     OW27707   1.285   5.627   3.846  0.1966 -0.0202  0.1685
 9106SOL    HW127708   1.270   5.721   3.850  1.1026  0.1797 -0.7367
 9106SOL    HW227709   1.380   5.618   3.835  0.3239 -1.0938  1.7754
 9107SOL     OW27710   3.215   5.910   3.394  0.0780 -0.5102  0.2357
 9107SOL    HW127711   3.174   5.995   3.405 -0.1802 -0.6317  0.2107
 9107SOL    HW227712   3.260   5.894   3.477 -1.5309 -1.2408  1.0241
 9108SOL     OW27713   1.104   5.352   6.828  0.2940 -0.3274 -0.5678
 9108SOL    HW127714   1.138   5.269   6.862 -1.8237 -1.8575 -1.9198
 9108SOL    HW227715   1.016   5.358   6.866 -0.2730  0.3536 -1.9423
 9109SOL     OW27716   3.556   2.728   4.386 -0.0765  0.7550 -0.3300
 9109SOL    HW127717   3.501   2.692   4.317 -1.2323 -2.2708  1.9330
 9109SOL    HW227718   3.495   2.767   4.448  0.5046 -0.1753  0.8834
 9110SOL     OW27719   1.829   5.228   1.121 -0.6136 -0.3828 -0.4775
 9110SOL    HW127720   1.821   5.138   1.089  0.6204 -0.4371 -0.6858
 9110SOL    HW227721   1.923   5.241   1.134 -0.8743  0.4210  0.8787
 9111SOL     OW27722   5.478   6.571   3.282  0.1977 -0.0587  0.2390
 9111SOL    HW127723   5.516   6.645   3.234  1.0211 -1.2108 -0.9402
 9111SOL    HW227724   5.541   6.552   3.351 -0.5217  0.9802  1.2149
 9112SOL     OW27725   1.999   5.287   4.582  0.4837  0.2128  0.0479
 9112SOL    HW127726   1.945   5.360   4.553  0.4574  0.2219  0.1189
 9112SOL    HW227727   2.022   5.240   4.502 -1.7015 -1.2600  0.1845
 9113SOL     OW27728   1.028   2.567   0.744  0.5487  0.3973  0.1248
 9113SOL    HW127729   1.022   2.589   0.651 -0.6337  0.3454  0.1813
 9113SOL    HW227730   1.074   2.641   0.783  0.5281  0.6929 -0.4014
 9114SOL     OW27731   1.120   2.267   6.834 -0.6300  0.4121 -0.0542
 9114SOL    HW127732   1.052   2.304   6.778  1.3469  2.2505 -1.4079
 9114SOL    HW227733   1.159   2.197   6.781  1.0608  1.9746 -1.0017
 9115SOL     OW27734   0.675   5.799   4.504  0.2311 -0.1499  0.0869
 9115SOL    HW127735   0.620   5.855   4.450  1.6209 -0.3975 -1.6998
 9115SOL    HW227736   0.619   5.724   4.526 -0.7117  0.5070 -0.0455
 9116SOL     OW27737   0.056   3.141   5.064  0.2196  0.3196  0.3044
 9116SOL    HW127738   0.048   3.223   5.015  0.1404  1.0363  1.4842
 9116SOL    HW227739  -0.028   3.097   5.050  0.1672  0.5498 -0.1357
 9117SOL     OW27740   0.836   3.105   2.073 -0.3934 -0.3681  0.0583
 9117SOL    HW127741   0.881   3.183   2.040 -1.2942  0.0521 -0.2279
 9117SOL    HW227742   0.839   3.043   2.000  0.0410 -0.4806  0.1707
 9118SOL     OW27743   2.715   0.257   4.800  0.3484  0.2932  0.1895
 9118SOL    HW127744   2.675   0.255   4.713  0.1795 -0.2279  0.2744
 9118SOL    HW227745   2.642   0.250   4.860  0.5450 -0.4128  0.3519
 9119SOL     OW27746   1.257   5.218   1.365 -0.3735  0.3069 -0.5908
 9119SOL    HW127747   1.314   5.182   1.297 -1.2833  0.7355 -1.6121
 9119SOL    HW227748   1.206   5.286   1.320 -2.2958 -0.6369  0.0545
 9120SOL     OW27749   6.780   6.177   1.024 -0.0348 -0.4994  0.0894
 9120SOL    HW127750   6.696   6.189   0.982  0.2017  1.2166  0.0486
 9120SOL    HW227751   6.842   6.223   0.968  0.4532  0.8839  1.6738
 9121SOL     OW27752   3.220   4.703   2.291  0.0190  0.3558  0.1993
 9121SOL    HW127753   3.141   4.758   2.296  0.8335  1.5549  0.2979
 9121SOL    HW227754   3.208   4.638   2.360 -1.7530 -0.6999 -1.0094
 9122SOL     OW27755   5.718   3.423   4.032  0.4791  0.0943 -0.2585
 9122SOL    HW127756   5.622   3.419   4.025  0.4155 -0.3993  0.7271
 9122SOL    HW227757   5.734   3.446   4.123  1.2985  1.2467 -0.6794
 9123SOL     OW27758   5.151   0.456   0.783  0.6441  0.0954  0.3787
 9123SOL    HW127759   5.227   0.466   0.724  0.6647  1.8564  0.6529
 9123SOL    HW227760   5.188   0.420   0.864  0.6752 -1.9732 -0.4748
 9124SOL     OW27761   2.514   0.907   6.627 -0.4512  0.2282 -0.4948
 9124SOL    HW127762   2.592   0.872   6.584  0.0981  0.8136  0.0055
 9124SOL    HW227763   2.512   0.999   6.600  0.2622  0.7782  1.2115
 9125SOL     OW27764   3.482   3.632   2.655 -0.2181 -0.3215  0.3662
 9125SOL    HW127765   3.469   3.542   2.623 -1.8205  0.2317 -0.6759
 9125SOL    HW227766   3.519   3.678   2.580  0.7985 -0.1490  0.9692
 9126SOL     OW27767   4.697   2.451   3.434 -0.2564  0.7662 -0.3414
 9126SOL    HW127768   4.772   2.476   3.380  0.0740  0.7758  0.1112
 9126SOL    HW227769   4.675   2.363   3.405 -0.3838  0.9551 -0.8178
 9127SOL     OW27770   3.461   0.511   6.291 -0.0952  0.1525  0.5338
 9127SOL    HW127771   3.376   0.493   6.332 -0.7096  0.2783 -0.6419
 9127SOL    HW227772   3.449   0.593   6.245  0.4783 -0.1420 -0.1589
 9128SOL     OW27773   1.085   3.681   5.470 -0.2223  0.6728 -0.2778
 9128SOL    HW127774   1.128   3.689   5.555 -1.3822  0.4984  0.3498
 9128SOL    HW227775   1.115   3.598   5.435 -0.1192  0.5131  0.1844
 9129SOL     OW27776   6.436   2.086   5.913 -0.5220  0.0314 -0.3422
 9129SOL    HW127777   6.465   2.176   5.897  2.3707 -1.0261 -1.7115
 9129SOL    HW227778   6.398   2.059   5.830 -2.7864  0.3791  0.5141
 9130SOL     OW27779   4.088   2.207   1.008  0.3939 -0.2665  0.1808
 9130SOL    HW127780   4.166   2.196   1.062  1.0170  2.1096 -0.1168
 9130SOL    HW227781   4.121   2.207   0.918  0.0604  0.5038  0.0457
 9131SOL     OW27782   0.053   4.497   0.220 -0.8672 -0.0694 -0.1087
 9131SOL    HW127783  -0.035   4.518   0.251 -0.5932  0.2663  0.4572
 9131SOL    HW227784   0.102   4.579   0.231 -0.2664 -0.4897  0.3739
 9132SOL     OW27785   5.713   1.741   3.655  0.2541  0.0376 -0.5291
 9132SOL    HW127786   5.679   1.765   3.742 -1.4907 -1.7500 -0.6525
 9132SOL    HW227787   5.702   1.646   3.650 -1.4709  0.2678 -3.3996
 9133SOL     OW27788   1.741   6.716   2.558  0.0735 -0.0220  0.7003
 9133SOL    HW127789   1.654   6.694   2.593  0.5223 -1.1285  1.1489
 9133SOL    HW227790   1.798   6.716   2.635  0.8791 -1.5063  0.1391
 9134SOL     OW27791   2.497   2.442   4.923  0.6117  0.1552 -0.3839
 9134SOL    HW127792   2.446   2.470   4.847 -0.7059  0.1826  0.4842
 9134SOL    HW227793   2.505   2.347   4.913 -0.2744  0.0525 -0.1307
 9135SOL     OW27794   1.552   6.648   3.845  0.3119 -0.6997 -0.3499
 9135SOL    HW127795   1.620   6.706   3.878  0.4435 -0.1684 -1.5038
 9135SOL    HW227796   1.554   6.572   3.903  0.2322  0.3753  1.0993
 9136SOL     OW27797   4.638   1.634   2.560 -0.4892 -0.8190 -0.5503
 9136SOL    HW127798   4.647   1.541   2.537  0.3144 -0.5587 -1.3802
 9136SOL    HW227799   4.657   1.680   2.478 -1.2144  0.0712 -0.2258
 9137SOL     OW27800   1.589   4.495   5.464 -0.5227 -0.4733  0.4577
 9137SOL    HW127801   1.495   4.482   5.477 -0.6765  1.1597  1.2295
 9137SOL    HW227802   1.597   4.529   5.375 -0.7617  0.1892  0.6858
 9138SOL     OW27803   2.499   0.285   3.594  0.0330  0.4475 -0.6976
 9138SOL    HW127804   2.484   0.375   3.565  0.6895  0.4176 -1.1517
 9138SOL    HW227805   2.411   0.249   3.606 -0.2360  1.1290 -0.5665
 9139SOL     OW27806   1.246   5.040   0.374  0.9189 -0.4267 -0.5433
 9139SOL    HW127807   1.326   5.039   0.427  0.8774  0.2945 -0.4603
 9139SOL    HW227808   1.199   4.961   0.400  1.2027 -0.4097  0.0313
 9140SOL     OW27809   0.239   1.098   4.421 -0.1442 -0.3882 -0.0203
 9140SOL    HW127810   0.183   1.119   4.495  0.9428 -1.1672  1.0601
 9140SOL    HW227811   0.249   1.181   4.374 -0.6965  0.1577  0.8122
 9141SOL     OW27812   3.327   5.133   4.947 -0.0007  0.4487 -0.3609
 9141SOL    HW127813   3.410   5.159   4.986  0.3474  1.4217 -1.6739
 9141SOL    HW227814   3.261   5.181   4.998  0.3908  1.1326 -0.4722
 9142SOL     OW27815   1.919   5.773   5.303  0.1140 -0.3307  0.1451
 9142SOL    HW127816   1.984   5.837   5.274 -0.5111  0.2608 -0.0055
 9142SOL    HW227817   1.844   5.788   5.244 -1.0929  0.7182  1.8454
 9143SOL     OW27818   5.261   6.746   1.996  0.1418 -0.5231  0.1409
 9143SOL    HW127819   5.239   6.657   1.966 -1.1750 -0.1251 -0.1320
 9143SOL    HW227820   5.221   6.753   2.082 -1.0854  0.3162 -0.4776
 9144SOL     OW27821   0.616   3.200   5.516 -0.4648 -0.4960 -0.4194
 9144SOL    HW127822   0.627   3.225   5.425  0.4439 -0.4204 -0.2936
 9144SOL    HW227823   0.524   3.220   5.535 -0.2121  1.2387 -0.7946
 9145SOL     OW27824   1.095   3.023   6.431 -0.5663  0.0782  0.1116
 9145SOL    HW127825   1.114   3.038   6.523  2.6420  0.4702 -0.4917
 9145SOL    HW227826   1.055   3.104   6.401  2.9819  2.0536  0.1733
 9146SOL     OW27827   4.281   4.963   3.006  0.0772 -0.0394 -0.5665
 9146SOL    HW127828   4.374   4.962   2.982  0.3829  0.8526  0.4639
 9146SOL    HW227829   4.235   4.946   2.925  1.1637 -1.3689 -0.9298
 9147SOL     OW27830   3.982   0.343   6.730 -0.0819 -0.0598 -0.7440
 9147SOL    HW127831   4.049   0.384   6.676  0.0452  0.8178  0.0558
 9147SOL    HW227832   4.023   0.334   6.816 -1.2073  1.1191 -0.0524
 9148SOL     OW27833   0.869   2.729   1.011 -0.4668  0.7600 -0.4754
 9148SOL    HW127834   0.957   2.706   1.043 -1.3227 -2.0494  0.1361
 9148SOL    HW227835   0.880   2.815   0.972  2.5073  0.6489 -0.1425
 9149SOL     OW27836   1.711   0.195   0.506 -0.7653  0.2352  0.5129
 9149SOL    HW127837   1.716   0.104   0.478 -0.6585 -0.1181  1.6353
 9149SOL    HW227838   1.635   0.198   0.564  1.2656  0.0377  3.3496
 9150SOL     OW27839   4.153   0.001   3.708 -0.3081 -0.2540 -0.2801
 9150SOL    HW127840   4.177   0.090   3.681 -0.4307 -0.3687 -0.7743
 9150SOL    HW227841   4.237  -0.047   3.709  0.0444  0.3183  1.7990
 9151SOL     OW27842   0.116   4.204   2.469 -0.7570  0.6214  0.3257
 9151SOL    HW127843   0.145   4.136   2.408  0.7666 -0.6950  2.4048
 9151SOL    HW227844   0.135   4.168   2.555 -0.4510  3.4732  1.5344
 9152SOL     OW27845   6.338   3.882   3.169  0.3249  0.2411  0.0514
 9152SOL    HW127846   6.275   3.954   3.165 -0.5880 -0.5715 -0.8069
 9152SOL    HW227847   6.389   3.890   3.088  0.6022  0.2583  0.2265
 9153SOL     OW27848   3.323   5.045   3.614 -0.2167 -1.0363 -0.0109
 9153SOL    HW127849   3.275   5.010   3.689  0.3784 -2.9466 -0.4759
 9153SOL    HW227850   3.314   4.978   3.546  0.7803 -0.1665 -1.0428
 9154SOL     OW27851   1.282   3.752   4.417  1.0491  0.0764  1.0640
 9154SOL    HW127852   1.219   3.724   4.483 -0.3394 -0.0271 -0.2501
 9154SOL    HW227853   1.319   3.670   4.383 -1.5746 -0.2234 -1.4003
 9155SOL     OW27854   4.141   3.904   1.396 -0.2352  0.1993  0.1411
 9155SOL    HW127855   4.084   3.968   1.440  1.1576  1.2949  0.4291
 9155SOL    HW227856   4.220   3.901   1.450  0.5848 -0.1674 -1.0461
 9156SOL     OW27857   4.649   5.083   2.200  0.2910  0.1461  0.0573
 9156SOL    HW127858   4.676   5.175   2.202  0.2449  0.1467  0.6161
 9156SOL    HW227859   4.695   5.042   2.273 -1.1714  0.1377  1.0153
 9157SOL     OW27860   5.553   2.097   0.322  0.2231 -0.6030 -0.0654
 9157SOL    HW127861   5.546   2.039   0.246  0.7968 -0.4354 -0.2552
 9157SOL    HW227862   5.463   2.119   0.344 -0.0113 -1.7357  0.1495
 9158SOL     OW27863   5.512   4.403   6.063  0.4396  0.0286  0.1718
 9158SOL    HW127864   5.478   4.454   5.989 -0.2497  1.5460  1.4682
 9158SOL    HW227865   5.592   4.450   6.089  1.1445 -0.9839 -0.1171
 9159SOL     OW27866   4.911   5.751   4.389  0.3413 -0.3369 -0.2213
 9159SOL    HW127867   4.859   5.815   4.438 -0.9964 -1.5012 -0.0416
 9159SOL    HW227868   4.891   5.667   4.431  0.6887 -1.1018 -1.5303
 9160SOL     OW27869   1.912   6.097   5.387 -0.0581 -0.4507 -0.1124
 9160SOL    HW127870   1.971   6.060   5.321  0.1692 -0.7504  0.2535
 9160SOL    HW227871   1.885   6.181   5.350  1.0963 -0.0088 -0.0155
 9161SOL     OW27872   4.365   5.273   5.254 -0.3589  0.4095 -0.3176
 9161SOL    HW127873   4.416   5.218   5.313 -0.8217  3.2053  3.0223
 9161SOL    HW227874   4.300   5.214   5.215  2.5322 -2.3720 -1.4083
 9162SOL     OW27875   5.818   0.988   2.840  0.3439  0.2765 -0.7398
 9162SOL    HW127876   5.862   0.964   2.758  0.4335 -2.2984 -0.0216
 9162SOL    HW227877   5.760   0.914   2.859 -2.5951  2.5062 -0.3970
 9163SOL     OW27878   2.712   1.263   4.904 -0.2621  0.2297 -0.1953
 9163SOL    HW127879   2.673   1.179   4.884  1.8309 -0.6780 -0.7095
 9163SOL    HW227880   2.778   1.277   4.836  0.6641  1.4247  0.8821
 9164SOL     OW27881   1.248   3.255   0.446 -0.4106  0.7493  0.1571
 9164SOL    HW127882   1.232   3.243   0.352 -1.5023 -0.0814  0.4351
 9164SOL    HW227883   1.328   3.206   0.463  0.8908  2.4723 -0.6773
 9165SOL     OW27884   2.065   5.625   1.541  0.0399  0.1335  0.2201
 9165SOL    HW127885   2.076   5.668   1.456  0.3893 -0.3013  0.0401
 9165SOL    HW227886   1.997   5.676   1.585  0.1384  0.6008 -0.1625
 9166SOL     OW27887   2.965   0.899   0.951  0.2080  0.7281  0.4045
 9166SOL    HW127888   2.938   0.808   0.936  1.5742  0.1298  1.3664
 9166SOL    HW227889   2.883   0.946   0.965 -0.5046 -0.4162  0.2402
 9167SOL     OW27890   6.550   1.558   6.814  0.1626 -0.4454 -0.4381
 9167SOL    HW127891   6.579   1.477   6.772  0.0877 -0.0818 -1.2073
 9167SOL    HW227892   6.630   1.610   6.822  0.4318 -1.0396  1.1233
 9168SOL     OW27893   0.643   1.577   5.658  0.6161 -0.0477 -0.5211
 9168SOL    HW127894   0.654   1.491   5.700 -0.3389 -0.3512 -0.8429
 9168SOL    HW227895   0.552   1.575   5.626 -0.1483  1.8868  1.3026
 9169SOL     OW27896   6.038   6.828   5.264  0.1590 -0.2011  0.4639
 9169SOL    HW127897   6.054   6.830   5.170  0.3274 -0.1460  0.4934
 9169SOL    HW227898   5.949   6.861   5.274  0.7250  1.3957  0.4609
 9170SOL     OW27899   3.694   5.317   4.424 -0.1313  0.4910 -0.3041
 9170SOL    HW127900   3.599   5.320   4.430 -0.2114 -0.5862 -0.7377
 9170SOL    HW227901   3.712   5.245   4.364  0.9361  1.3268 -1.0423
 9171SOL     OW27902   1.146   0.776   0.556  0.0069 -0.3066 -0.4259
 9171SOL    HW127903   1.072   0.716   0.547 -1.0429  0.8011  0.5602
 9171SOL    HW227904   1.107   0.862   0.570  1.4103 -0.0108  2.4272
 9172SOL     OW27905   4.007   1.390   6.201  0.1413 -0.4250 -0.4587
 9172SOL    HW127906   4.042   1.402   6.112  1.1313  0.1013 -0.0184
 9172SOL    HW227907   3.949   1.465   6.214 -0.7469 -1.0014 -0.9887
 9173SOL     OW27908   0.507   0.667   2.358  0.2206 -0.0600  0.5010
 9173SOL    HW127909   0.525   0.635   2.269 -2.0947  0.6248 -0.2857
 9173SOL    HW227910   0.536   0.759   2.356  1.7175 -0.4942  1.0198
 9174SOL     OW27911   6.109   3.779   5.095  0.0316 -0.5073  0.0091
 9174SOL    HW127912   6.057   3.767   5.175  1.0679  1.2985  1.0057
 9174SOL    HW227913   6.059   3.843   5.044 -0.1970 -1.0213 -0.4270
 9175SOL     OW27914   0.529   4.060   4.550  0.0503  0.3841 -0.3885
 9175SOL    HW127915   0.564   4.077   4.462 -0.6001  1.7284 -0.4188
 9175SOL    HW227916   0.486   3.975   4.544 -0.4011  0.6800 -1.5133
 9176SOL     OW27917   0.940   6.604   0.382 -0.8054 -0.1592  0.4062
 9176SOL    HW127918   1.012   6.543   0.396  0.7757  1.4863 -0.1710
 9176SOL    HW227919   0.871   6.574   0.442  0.6599 -1.2963  1.6059
 9177SOL     OW27920   6.796   5.144   2.189 -0.2693  0.3387 -0.4175
 9177SOL    HW127921   6.724   5.082   2.179  1.2255 -1.4576 -0.4128
 9177SOL    HW227922   6.811   5.178   2.101  0.7598 -1.5033 -0.9917
 9178SOL     OW27923   1.333   6.341   0.746 -0.1311  0.5563  0.2108
 9178SOL    HW127924   1.379   6.270   0.792  1.2518  0.3763 -1.3335
 9178SOL    HW227925   1.246   6.305   0.729  0.0075 -0.1354  0.8885
 9179SOL     OW27926   3.889   1.391   0.183  0.3646  0.3697  0.0835
 9179SOL    HW127927   3.962   1.332   0.169  0.4594 -0.0595  2.1087
 9179SOL    HW227928   3.929   1.477   0.192  0.5467  0.2384  0.5109
 9180SOL     OW27929   3.240   0.270   3.420 -0.2631 -0.1816  0.4078
 9180SOL    HW127930   3.318   0.270   3.475  1.2805  0.0712 -1.6531
 9180SOL    HW227931   3.258   0.336   3.353 -1.9708 -0.5997 -0.5194
 9181SOL     OW27932   4.990   3.386   4.311 -0.2836 -0.2682 -0.8699
 9181SOL    HW127933   4.938   3.305   4.318 -0.0522 -0.3150  0.7710
 9181SOL    HW227934   4.942   3.449   4.365 -0.2363  0.5755 -1.8010
 9182SOL     OW27935   1.604   3.387   0.703  0.1921  0.6726 -0.6887
 9182SOL    HW127936   1.594   3.294   0.719  0.8013  0.9522  1.7547
 9182SOL    HW227937   1.604   3.427   0.791 -1.8529  3.1874 -1.6901
 9183SOL     OW27938   0.992   3.193   4.865 -0.2329 -0.2387  0.3460
 9183SOL    HW127939   0.995   3.098   4.881 -0.8098 -0.3813 -0.3680
 9183SOL    HW227940   1.073   3.211   4.817 -0.4600 -0.4904 -0.1367
 9184SOL     OW27941   1.529   2.172   6.416  0.1566  0.2097  0.9292
 9184SOL    HW127942   1.537   2.148   6.324 -0.6519 -0.1488  0.9506
 9184SOL    HW227943   1.485   2.256   6.416  1.6465  1.0294  0.9275
 9185SOL     OW27944   0.153   3.208   1.040  0.1109  0.0520 -0.1402
 9185SOL    HW127945   0.189   3.153   1.109 -0.3871  1.0959  0.9870
 9185SOL    HW227946   0.058   3.199   1.048  0.0380 -0.9039 -1.6202
 9186SOL     OW27947   0.182   0.602   0.503  0.0022  0.3140  0.1598
 9186SOL    HW127948   0.098   0.619   0.460 -0.1118  0.9422  0.6048
 9186SOL    HW227949   0.162   0.533   0.567  0.3179 -1.1048 -1.2030
 9187SOL     OW27950   4.937   1.517   0.514 -0.0596 -0.2091 -0.1669
 9187SOL    HW127951   4.976   1.506   0.601  1.0705  0.7108 -0.5315
 9187SOL    HW227952   4.979   1.596   0.479  0.0245 -0.9666 -1.8321
 9188SOL     OW27953   5.897   4.434   3.525 -0.0973  0.0990 -0.1623
 9188SOL    HW127954   5.985   4.398   3.530  0.1088  0.5659 -0.4400
 9188SOL    HW227955   5.841   4.365   3.560  0.3739 -0.2087 -0.0118
 9189SOL     OW27956   2.267   1.365   2.400 -0.0116 -0.4224 -0.2165
 9189SOL    HW127957   2.221   1.439   2.360 -1.1377 -0.7778  0.3720
 9189SOL    HW227958   2.357   1.396   2.412 -0.6490  1.1667  0.7944
 9190SOL     OW27959   1.067   5.575   2.142 -0.6433 -0.0023 -0.1097
 9190SOL    HW127960   1.127   5.502   2.129 -2.0823 -1.0043 -1.7191
 9190SOL    HW227961   1.085   5.607   2.230  0.9433 -1.4338  0.1291
 9191SOL     OW27962   2.379   5.267   2.100 -0.4013  0.9182  0.1536
 9191SOL    HW127963   2.300   5.218   2.075  0.3775  0.5080 -1.5740
 9191SOL    HW227964   2.362   5.293   2.191 -1.2562 -1.7397  0.8458
 9192SOL     OW27965   1.306   0.715   2.826  0.3839  0.0336 -0.2705
 9192SOL    HW127966   1.270   0.651   2.887  1.4614 -1.2001 -0.8784
 9192SOL    HW227967   1.250   0.710   2.749 -1.1323  1.7758  0.6487
 9193SOL     OW27968   5.494   2.080   4.677  0.1749 -0.3017 -0.0956
 9193SOL    HW127969   5.545   2.106   4.753  0.2320 -2.1926  0.5715
 9193SOL    HW227970   5.411   2.047   4.713  0.1969 -1.2053 -0.8300
 9194SOL     OW27971   3.175   4.603   4.245  0.1218 -0.1682 -0.2992
 9194SOL    HW127972   3.121   4.644   4.312 -0.1361  1.2649 -1.3339
 9194SOL    HW227973   3.260   4.646   4.252  0.5545 -1.0425  0.0373
 9195SOL     OW27974   0.680   1.413   6.148  0.0784  0.3249  0.1345
 9195SOL    HW127975   0.621   1.485   6.127 -1.1938 -1.3166 -2.4867
 9195SOL    HW227976   0.628   1.355   6.203  1.2381  1.4852  2.5986
 9196SOL     OW27977   2.880   2.660   0.638  0.4528 -0.0555  0.0164
 9196SOL    HW127978   2.846   2.571   0.652 -0.5772  0.4141  0.5757
 9196SOL    HW227979   2.956   2.666   0.696 -1.1775  0.3829  2.2288
 9197SOL     OW27980   1.023   3.385   0.519  0.2666  0.3528  0.4226
 9197SOL    HW127981   1.111   3.349   0.504  0.5084  1.1222 -0.0348
 9197SOL    HW227982   1.011   3.379   0.614 -0.8553 -3.5954  0.2404
 9198SOL     OW27983   6.724   0.361   1.392 -0.4455  0.5650  0.1715
 9198SOL    HW127984   6.640   0.382   1.433 -1.5329 -0.6715 -1.2732
 9198SOL    HW227985   6.763   0.296   1.451 -0.2165  1.5437  1.1347
 9199SOL     OW27986   5.471   2.770   1.412  0.3130  0.2060 -0.1288
 9199SOL    HW127987   5.457   2.863   1.433 -1.6519 -0.5325  2.3692
 9199SOL    HW227988   5.531   2.771   1.338  1.3240  3.4499  0.5555
 9200SOL     OW27989   0.209   2.717   6.123 -0.4511 -0.2238 -0.1169
 9200SOL    HW127990   0.223   2.690   6.214 -1.7518 -2.0679 -0.4194
 9200SOL    HW227991   0.297   2.740   6.091 -0.1983  2.3173  2.1034
 9201SOL     OW27992   4.912   0.152   0.527 -0.6591 -0.2849  0.1038
 9201SOL    HW127993   5.005   0.166   0.512 -0.6513 -0.2344  0.1994
 9201SOL    HW227994   4.897   0.061   0.502 -0.7235 -0.0903 -0.5700
 9202SOL     OW27995   1.976   1.881   1.816  0.3085 -0.3661  0.3456
 9202SOL    HW127996   1.925   1.808   1.782 -1.1781  0.2545  1.1526
 9202SOL    HW227997   1.911   1.943   1.848  1.5588  0.8842  0.5575
 9203SOL     OW27998   6.325   2.934   6.023 -0.0187  0.1341  0.5285
 9203SOL    HW127999   6.369   3.016   6.046  2.0637  0.3139 -3.3230
 9203SOL    HW228000   6.244   2.962   5.980 -0.0229  0.0987  0.5131
 9204SOL     OW28001   4.985   6.142   3.982  0.0413 -0.3468 -0.2710
 9204SOL    HW128002   5.059   6.173   4.035  1.6763 -2.0802 -1.3907
 9204SOL    HW228003   4.974   6.209   3.914  2.2837 -1.1528 -1.5531
 9205SOL     OW28004   0.365   3.933   4.214 -0.5864  0.5913 -0.5775
 9205SOL    HW128005   0.319   3.936   4.298  0.6655 -0.2124  0.1643
 9205SOL    HW228006   0.433   4.000   4.221  0.2066 -0.2005 -0.5121
 9206SOL     OW28007   3.170   1.935   4.904 -0.5816  0.4283 -0.2905
 9206SOL    HW128008   3.206   1.990   4.973 -0.7423  0.0397  0.1100
 9206SOL    HW228009   3.191   1.846   4.931 -0.4117  0.2852 -0.8823
 9207SOL     OW28010   3.693   0.324   6.719  0.9328 -0.3252  0.2739
 9207SOL    HW128011   3.780   0.340   6.683  0.0572 -0.1278 -1.9411
 9207SOL    HW228012   3.691   0.373   6.801  2.5693  0.4668 -0.1189
 9208SOL     OW28013   3.478   5.187   6.599  0.3626 -0.0468  0.3093
 9208SOL    HW128014   3.426   5.189   6.679 -1.3421 -1.4234 -0.6763
 9208SOL    HW228015   3.528   5.106   6.604  0.2924 -0.1106  0.0303
 9209SOL     OW28016   4.203   2.782   2.578 -0.3839 -0.4112  0.1655
 9209SOL    HW128017   4.284   2.753   2.621 -0.4263 -0.7286  0.0293
 9209SOL    HW228018   4.226   2.868   2.541 -0.2984 -0.2123  0.6735
 9210SOL     OW28019   3.292   0.916   4.492  0.2103 -0.2498 -0.3899
 9210SOL    HW128020   3.361   0.873   4.441 -0.1835 -0.3130 -0.8787
 9210SOL    HW228021   3.212   0.871   4.465  0.0089 -0.3714  0.3885
 9211SOL     OW28022   0.941   3.348   2.033 -0.1095  0.1606 -0.1116
 9211SOL    HW128023   0.922   3.418   1.971  1.3019  0.8701  0.2088
 9211SOL    HW228024   0.888   3.368   2.110 -4.1156 -2.2691 -1.9472
 9212SOL     OW28025   3.501   2.526   6.140 -0.0761 -0.3071  0.6871
 9212SOL    HW128026   3.409   2.501   6.134 -0.5137  1.0974  1.3183
 9212SOL    HW228027   3.501   2.611   6.183  1.4505  0.1857 -0.1963
 9213SOL     OW28028   4.356   0.944   3.033 -0.0123  0.0987 -0.1884
 9213SOL    HW128029   4.300   0.958   2.956  0.9029 -2.1987 -1.3541
 9213SOL    HW228030   4.415   0.873   3.007 -0.2416 -1.3745  2.9596
 9214SOL     OW28031   4.711   4.693   0.527 -0.1715  0.3060 -0.5257
 9214SOL    HW128032   4.774   4.629   0.496  1.6593  2.5805 -1.8113
 9214SOL    HW228033   4.654   4.709   0.452 -0.3087  0.5155 -0.3783
 9215SOL     OW28034   0.251   6.285   6.231  0.5823  0.6957  0.9037
 9215SOL    HW128035   0.164   6.292   6.269  0.5514  0.7235  0.8283
 9215SOL    HW228036   0.301   6.234   6.294  0.0726 -0.7593  0.1709
 9216SOL     OW28037   2.125   2.312   5.149  0.1230 -0.2180  0.6577
 9216SOL    HW128038   2.173   2.294   5.068  0.2313 -0.7329  0.8290
 9216SOL    HW228039   2.181   2.275   5.218  0.5091  1.0876  1.0648
 9217SOL     OW28040   3.608   1.249   6.550  0.4841 -0.1637  0.0099
 9217SOL    HW128041   3.627   1.244   6.456 -0.9794 -1.3125 -0.2504
 9217SOL    HW228042   3.691   1.223   6.592  1.7978  2.3110 -0.8573
 9218SOL     OW28043   4.694   4.925   1.999 -0.4743 -0.3653  0.5386
 9218SOL    HW128044   4.709   4.979   1.922  3.2505 -2.0132 -0.1146
 9218SOL    HW228045   4.661   4.986   2.065 -2.7907  1.2953 -1.9701
 9219SOL     OW28046   6.768   2.972   6.260 -0.3900  0.2322  0.0185
 9219SOL    HW128047   6.771   3.061   6.226 -0.3241  0.0537 -0.4551
 9219SOL    HW228048   6.844   2.965   6.318 -0.5087  0.5434  0.2105
 9220SOL     OW28049   1.566   6.066   1.510 -0.2599  0.3669  0.3494
 9220SOL    HW128050   1.533   6.044   1.597  0.0084  1.4467  0.7422
 9220SOL    HW228051   1.492   6.108   1.466 -0.2043  0.3942  0.2815
 9221SOL     OW28052   0.776   0.408   3.944 -0.2819 -0.2881 -0.1300
 9221SOL    HW128053   0.710   0.475   3.957 -0.7663 -0.6016 -0.8853
 9221SOL    HW228054   0.731   0.325   3.960  0.1034 -0.4769  0.0115
 9222SOL     OW28055   5.430   1.548   3.726 -0.5358  0.1628  0.4993
 9222SOL    HW128056   5.511   1.503   3.703 -1.2439 -0.7573 -0.2759
 9222SOL    HW228057   5.414   1.525   3.817 -1.0740 -1.4970  0.0117
 9223SOL     OW28058   3.858   0.488   4.417 -0.4952 -0.0676 -0.1577
 9223SOL    HW128059   3.922   0.421   4.392 -0.2370  0.6398 -1.4894
 9223SOL    HW228060   3.829   0.462   4.504  0.7125 -1.0770 -0.0264
 9224SOL     OW28061   5.192   1.280   6.700 -0.1214 -0.4751  0.1835
 9224SOL    HW128062   5.263   1.337   6.671 -0.0850 -0.1470  0.8985
 9224SOL    HW228063   5.144   1.259   6.620  0.4756 -0.2838 -0.2317
 9225SOL     OW28064   2.454   3.232   3.422  0.5845 -0.2363  0.0160
 9225SOL    HW128065   2.400   3.154   3.435  1.6809 -0.9552  0.4547
 9225SOL    HW228066   2.516   3.207   3.354 -0.4927  1.0522 -1.5092
 9226SOL     OW28067   4.842   1.088   5.977 -0.4676  0.1668 -0.2379
 9226SOL    HW128068   4.847   1.166   6.033  0.4594 -0.5989  0.7872
 9226SOL    HW228069   4.788   1.115   5.903  0.9343  2.1988 -0.5943
 9227SOL     OW28070   0.035   5.070   6.144  0.7051  0.0826 -0.2678
 9227SOL    HW128071   0.059   4.983   6.114  1.6677 -0.2925  1.4554
 9227SOL    HW228072  -0.006   5.112   6.068  0.6421 -1.6937 -1.2553
 9228SOL     OW28073   0.703   4.203   3.608 -0.0192 -0.1992  0.0783
 9228SOL    HW128074   0.756   4.170   3.536  1.7372  2.4049  0.0581
 9228SOL    HW228075   0.652   4.274   3.570 -0.8043 -0.2838  0.9355
 9229SOL     OW28076   0.782   4.800   4.972 -0.1107  0.4535 -0.0127
 9229SOL    HW128077   0.727   4.815   5.049 -0.7427 -3.7318  0.5843
 9229SOL    HW228078   0.722   4.805   4.898 -0.0775  1.6364  0.0295
 9230SOL     OW28079   0.196   2.443   5.760  0.7405  0.4186  0.1656
 9230SOL    HW128080   0.280   2.400   5.741 -0.1832 -0.8930 -1.1545
 9230SOL    HW228081   0.188   2.437   5.855  2.4166  1.1509  0.4042
 9231SOL     OW28082   0.487   1.063   2.871 -0.5615 -0.2180  0.1887
 9231SOL    HW128083   0.574   1.087   2.903  0.2444 -1.7104 -0.7351
 9231SOL    HW228084   0.455   0.998   2.934  0.3964 -2.0457 -1.1134
 9232SOL     OW28085   3.196   1.572   0.011 -0.0120  0.5370  0.1198
 9232SOL    HW128086   3.182   1.533   0.097  2.7726  1.8923  1.3281
 9232SOL    HW228087   3.210   1.497  -0.047 -4.5013 -0.5496  0.0928
 9233SOL     OW28088   5.568   5.292   2.276 -0.3952  0.8622 -0.3091
 9233SOL    HW128089   5.608   5.336   2.351  1.8832  2.6424 -2.3990
 9233SOL    HW228090   5.531   5.212   2.312  1.3307  1.2192  2.5648
 9234SOL     OW28091   2.870   1.304   3.174 -0.5038  0.3413  0.2072
 9234SOL    HW128092   2.805   1.370   3.151 -1.6636 -0.6166  0.6653
 9234SOL    HW228093   2.909   1.279   3.090 -1.4510  0.1971 -0.2058
 9235SOL     OW28094   5.239   5.957   3.169  0.0916  0.0432  0.0112
 9235SOL    HW128095   5.325   5.918   3.150  0.9390  0.3328  2.9172
 9235SOL    HW228096   5.257   6.050   3.181 -0.8284  0.2760 -0.3599
 9236SOL     OW28097   6.263   3.621   6.265 -0.6134 -0.4522  0.1608
 9236SOL    HW128098   6.263   3.588   6.355  0.6385  1.0652  0.7534
 9236SOL    HW228099   6.289   3.713   6.273  0.1918 -0.4618 -1.8166
 9237SOL     OW28100   6.614   3.019   5.032  0.0065  0.6127 -0.1894
 9237SOL    HW128101   6.522   3.044   5.019 -0.4104 -1.3150 -1.3186
 9237SOL    HW228102   6.611   2.952   5.101  0.6935  1.1305  0.3640
 9238SOL     OW28103   5.794   5.581   5.983 -0.5181 -0.1456 -0.6610
 9238SOL    HW128104   5.718   5.523   5.989 -1.0294  0.4290 -1.3633
 9238SOL    HW228105   5.769   5.646   5.917 -0.5428  1.7377  1.0741
 9239SOL     OW28106   5.115   3.267   3.783 -0.1130 -0.0318  0.1731
 9239SOL    HW128107   5.112   3.184   3.735  0.4826  0.8417 -1.4457
 9239SOL    HW228108   5.115   3.241   3.875  2.0961 -1.9490 -0.2657
 9240SOL     OW28109   5.285   3.966   3.125 -0.1636  0.2197 -0.0742
 9240SOL    HW128110   5.299   4.059   3.143 -0.6527  0.4852 -0.9473
 9240SOL    HW228111   5.193   3.951   3.148 -0.1951  0.0527 -0.3055
 9241SOL     OW28112   6.447   2.324   0.055  0.0078  0.3293  0.4363
 9241SOL    HW128113   6.432   2.302  -0.037 -1.1031  0.8654  0.4746
 9241SOL    HW228114   6.453   2.240   0.100  1.3052  0.0450 -0.2220
 9242SOL     OW28115   4.615   0.343   5.331 -0.3713 -0.2476 -0.1821
 9242SOL    HW128116   4.599   0.280   5.260  1.0892  0.3510 -1.0886
 9242SOL    HW228117   4.699   0.317   5.367 -0.2843  0.5154  0.1843
 9243SOL     OW28118   2.595   3.241   2.909 -0.1739 -0.0584  0.4015
 9243SOL    HW128119   2.649   3.285   2.975  0.6143 -0.8925  0.3365
 9243SOL    HW228120   2.506   3.271   2.927  0.2783  1.2349  0.6107
 9244SOL     OW28121   1.400   6.320   5.142  0.0898 -0.1066 -0.1517
 9244SOL    HW128122   1.469   6.329   5.075  0.6434  1.1093  0.5378
 9244SOL    HW228123   1.319   6.336   5.094  0.3311 -0.9751 -0.8675
 9245SOL     OW28124   5.377   2.611   5.108 -0.0823 -0.1930  0.3647
 9245SOL    HW128125   5.307   2.644   5.164 -0.3648  1.3945 -0.8248
 9245SOL    HW228126   5.454   2.663   5.131 -0.7622  2.1955 -2.1816
 9246SOL     OW28127   3.697   4.050   1.881  0.3949 -0.1687  0.4068
 9246SOL    HW128128   3.663   3.977   1.829 -0.4121  1.8971 -2.2100
 9246SOL    HW228129   3.620   4.085   1.927  0.1467  0.7154 -0.6248
 9247SOL     OW28130   0.486   0.300   4.496  0.2370  0.1491  0.1957
 9247SOL    HW128131   0.539   0.320   4.574  0.2165  2.2623 -0.2643
 9247SOL    HW228132   0.535   0.339   4.424 -1.5658  1.5453 -0.3436
 9248SOL     OW28133   0.430   5.324   4.654 -0.5140 -0.1215 -0.6281
 9248SOL    HW128134   0.422   5.339   4.559  0.8519  0.5300 -0.6607
 9248SOL    HW228135   0.369   5.253   4.672 -1.9437  0.7813 -1.7254
 9249SOL     OW28136   4.379   4.672   6.589 -0.1188 -0.0868 -0.1176
 9249SOL    HW128137   4.359   4.603   6.525  0.1104 -1.3509  1.1150
 9249SOL    HW228138   4.475   4.675   6.591 -0.1325  0.4265 -0.3359
 9250SOL     OW28139   5.975   3.802   2.430  0.3190  0.0039  0.1716
 9250SOL    HW128140   6.064   3.792   2.397  0.7238  1.3202  0.8059
 9250SOL    HW228141   5.919   3.770   2.360  1.1945  1.4060 -1.2114
 9251SOL     OW28142   5.506   2.480   6.209  0.1788 -0.8198  0.0243
 9251SOL    HW128143   5.418   2.506   6.181 -0.0500 -1.8474 -0.2710
 9251SOL    HW228144   5.491   2.434   6.292  0.5334 -0.2958  0.3811
 9252SOL     OW28145   1.327   2.948   2.308  0.1965  0.1419 -0.5363
 9252SOL    HW128146   1.237   2.918   2.305  0.2622 -0.4188  1.5455
 9252SOL    HW228147   1.322   3.042   2.292 -0.4917 -0.2037 -2.6017
 9253SOL     OW28148   4.058   5.069   0.984  0.2199  0.6671 -0.4794
 9253SOL    HW128149   3.982   5.127   0.994  0.3141  0.5711  0.9801
 9253SOL    HW228150   4.127   5.112   1.034  0.5556 -0.2225 -0.1666
 9254SOL     OW28151   6.374   2.481   6.483  0.2337 -0.1666  0.3423
 9254SOL    HW128152   6.447   2.543   6.483  0.9739 -0.9811 -1.2467
 9254SOL    HW228153   6.362   2.458   6.391 -1.9280 -0.2054  0.5899
 9255SOL     OW28154   6.456   1.681   1.379  0.4168 -0.5549  0.1087
 9255SOL    HW128155   6.409   1.725   1.308  1.0189  2.3318  1.3413
 9255SOL    HW228156   6.395   1.615   1.411 -1.8524  1.3466  0.0108
 9256SOL     OW28157   0.599   4.584   6.151  0.1845 -0.0336 -0.2715
 9256SOL    HW128158   0.549   4.609   6.074  0.8598  0.3153 -0.6053
 9256SOL    HW228159   0.634   4.666   6.186  0.8917 -0.3066 -0.3096
 9257SOL     OW28160   2.051   3.999   6.400 -0.8338 -0.4950  0.3496
 9257SOL    HW128161   1.979   4.033   6.346  0.2994  0.2587 -0.7614
 9257SOL    HW228162   2.071   4.069   6.461  0.3856  0.2190 -0.8176
 9258SOL     OW28163   0.133   6.159   4.158 -0.0183  0.6558 -0.4063
 9258SOL    HW128164   0.111   6.245   4.195 -0.7969 -0.1725  1.1550
 9258SOL    HW228165   0.146   6.103   4.234 -0.3022 -0.8132 -1.4039
 9259SOL     OW28166   1.706   1.640   2.758  0.4438 -0.2393 -0.0404
 9259SOL    HW128167   1.682   1.639   2.665 -1.2636 -2.9452  0.3146
 9259SOL    HW228168   1.624   1.663   2.803  0.9713 -0.0898  0.8680
 9260SOL     OW28169   6.091   1.386   5.883  0.7308 -0.2946  0.0048
 9260SOL    HW128170   6.079   1.294   5.863  0.3532 -0.4591  0.9195
 9260SOL    HW228171   6.062   1.432   5.804 -3.4348 -0.7856  1.0245
 9261SOL     OW28172   6.313   3.557   0.851  0.6275  0.2036  0.9311
 9261SOL    HW128173   6.329   3.634   0.905  1.0846  1.1104 -0.4287
 9261SOL    HW228174   6.361   3.575   0.770  1.3023 -1.8268  0.8322
 9262SOL     OW28175   5.502   0.327   1.622  0.4532  0.1680 -0.0443
 9262SOL    HW128176   5.534   0.238   1.605  0.8540  0.3495 -0.2383
 9262SOL    HW228177   5.487   0.363   1.535 -0.4693  0.0226  0.0371
 9263SOL     OW28178   4.317   0.825   6.207  0.2111 -0.1279 -0.0463
 9263SOL    HW128179   4.297   0.814   6.114 -1.0827  0.3817  0.1468
 9263SOL    HW228180   4.233   0.851   6.246  1.1540  1.7188  0.9018
 9264SOL     OW28181   5.628   6.262   1.246 -0.7301 -0.0613  0.3347
 9264SOL    HW128182   5.558   6.298   1.192 -1.5468 -0.4139  1.1347
 9264SOL    HW228183   5.702   6.320   1.231 -0.8905 -0.2164 -1.2511
 9265SOL     OW28184   0.309   2.700   6.409 -0.1154  0.4898  0.2658
 9265SOL    HW128185   0.403   2.689   6.391 -0.2657 -0.0468 -0.2006
 9265SOL    HW228186   0.296   2.653   6.491  0.2266  1.4864  0.9204
 9266SOL     OW28187   1.158   0.063   4.758  0.1201  0.7859  0.4595
 9266SOL    HW128188   1.170   0.126   4.829  0.8018 -0.9757  1.9918
 9266SOL    HW228189   1.126  -0.016   4.801 -0.8500  0.1032 -1.4156
 9267SOL     OW28190   6.803   0.052   2.699 -0.2165 -0.1316  0.4951
 9267SOL    HW128191   6.873   0.065   2.763  0.6430  0.5530 -0.5445
 9267SOL    HW228192   6.770   0.140   2.681  0.5338 -0.1333 -1.0467
 9268SOL     OW28193   2.429   0.385   0.452  0.1864 -0.1479  0.4048
 9268SOL    HW128194   2.467   0.439   0.383 -0.8164  0.1100  0.0215
 9268SOL    HW228195   2.368   0.444   0.496  0.7397 -0.3443  1.4507
 9269SOL     OW28196   1.510   1.920   4.875  0.0733  0.1740  0.0497
 9269SOL    HW128197   1.552   1.994   4.831 -1.3222  0.8796 -0.1491
 9269SOL    HW228198   1.521   1.938   4.968  0.3977  0.2202  0.0063
 9270SOL     OW28199   5.388   3.656   4.186  0.0172 -0.3535 -0.0854
 9270SOL    HW128200   5.435   3.732   4.151 -0.8553 -0.5834 -1.8956
 9270SOL    HW228201   5.398   3.589   4.118  2.1721 -2.5012  2.1539
 9271SOL     OW28202   5.688   3.386   4.840  0.3304 -0.3644 -0.8722
 9271SOL    HW128203   5.777   3.404   4.868 -0.2085  1.1876 -0.0462
 9271SOL    HW228204   5.648   3.339   4.914  0.1305 -0.0175 -0.7569
 9272SOL     OW28205   5.490   2.688   5.513 -0.0679 -0.1699  0.1435
 9272SOL    HW128206   5.583   2.692   5.535  0.1408 -0.9654 -0.5351
 9272SOL    HW228207   5.458   2.611   5.561 -0.6698  0.7718  1.3378
 9273SOL     OW28208   6.077   4.124   1.886  0.3965  0.0318  0.4953
 9273SOL    HW128209   6.138   4.050   1.893 -0.8174 -1.1341 -0.7267
 9273SOL    HW228210   6.085   4.170   1.970  2.1304 -0.7203  0.7819
 9274SOL     OW28211   6.568   5.119   5.554 -0.2772 -0.3083 -0.1092
 9274SOL    HW128212   6.555   5.041   5.500 -0.6394  0.4001 -1.0841
 9274SOL    HW228213   6.544   5.091   5.643 -3.2468 -0.5792 -0.8987
 9275SOL     OW28214   2.340   5.038   5.601  0.1653  0.7315 -0.1422
 9275SOL    HW128215   2.301   4.988   5.529  0.6773 -1.6613  1.1542
 9275SOL    HW228216   2.273   5.038   5.669  1.6544 -2.1669  1.5473
 9276SOL     OW28217   4.220   2.768   3.229  0.7235  0.5646  0.3006
 9276SOL    HW128218   4.294   2.711   3.251  0.1350 -0.9747 -1.3955
 9276SOL    HW228219   4.259   2.842   3.182  1.3031  0.3980  0.5132
 9277SOL     OW28220   2.607   6.201   2.811 -0.4155 -0.8242 -0.1158
 9277SOL    HW128221   2.532   6.260   2.818  2.2636  3.0474 -0.3901
 9277SOL    HW228222   2.623   6.172   2.901 -0.4345  0.9836  0.5207
 9278SOL     OW28223   4.770   5.422   2.908  0.1152 -0.4039 -0.2390
 9278SOL    HW128224   4.711   5.497   2.895 -0.7263 -1.2843 -1.7751
 9278SOL    HW228225   4.857   5.457   2.889 -0.4325 -0.1221 -2.4666
 9279SOL     OW28226   2.367   5.021   2.873 -0.3737  0.2441 -0.8306
 9279SOL    HW128227   2.429   4.996   2.943 -1.1894 -0.6397 -0.3968
 9279SOL    HW228228   2.354   5.115   2.886 -0.5338  0.0908  0.2384
 9280SOL     OW28229   0.041   6.386   4.624  0.2605  0.1970  0.1859
 9280SOL    HW128230   0.006   6.435   4.698  0.4305 -0.6178  0.8125
 9280SOL    HW228231   0.128   6.423   4.609  0.6228 -0.2902  1.0265
 9281SOL     OW28232   1.129   4.002   5.313  0.1775 -0.6969  0.1302
 9281SOL    HW128233   1.167   4.089   5.303  1.3091 -1.2372 -0.5125
 9281SOL    HW228234   1.035   4.017   5.321  0.5683  0.7895  3.0772
 9282SOL     OW28235   2.223   2.509   3.731 -0.0065 -0.2476 -0.2859
 9282SOL    HW128236   2.239   2.428   3.779  1.5876 -0.4229 -1.0536
 9282SOL    HW228237   2.146   2.491   3.678  0.3635 -1.2754 -0.4843
 9283SOL     OW28238   6.696   4.008   2.358 -0.1692 -0.2907  0.3225
 9283SOL    HW128239   6.704   4.014   2.453  0.0542 -0.9031  0.3473
 9283SOL    HW228240   6.732   3.923   2.337  0.8229  0.3004 -0.4337
 9284SOL     OW28241   2.340   3.454   3.562 -0.3331 -0.1038  0.1940
 9284SOL    HW128242   2.411   3.514   3.541 -0.9061  0.5281  0.0358
 9284SOL    HW228243   2.368   3.370   3.524 -0.0564  0.3399 -0.6011
 9285SOL     OW28244   6.661   1.982   5.015 -0.2947  0.2874 -0.3907
 9285SOL    HW128245   6.703   2.056   5.059 -0.2222 -0.2657  0.5132
 9285SOL    HW228246   6.587   2.021   4.968  0.4691  1.0941 -0.9463
 9286SOL     OW28247   3.309   2.692   4.259 -0.4333 -0.0139  0.2751
 9286SOL    HW128248   3.298   2.785   4.275 -0.2429 -0.2283  1.7536
 9286SOL    HW228249   3.227   2.665   4.217 -0.7135  0.7000  0.3494
 9287SOL     OW28250   5.628   1.893   2.172 -0.2270  0.6575 -0.3025
 9287SOL    HW128251   5.635   1.798   2.184 -1.5730  0.2084 -2.5197
 9287SOL    HW228252   5.593   1.925   2.255 -0.0936 -0.8258  0.3545
 9288SOL     OW28253   1.904   2.659   0.973 -0.0167  0.1504 -0.0271
 9288SOL    HW128254   1.920   2.578   0.926 -0.7434  0.2147 -0.3977
 9288SOL    HW228255   1.991   2.689   1.001  0.2927 -0.5211 -0.2653
 9289SOL     OW28256   2.470   5.624   6.503  0.2974  0.7170  0.2315
 9289SOL    HW128257   2.470   5.706   6.552  0.8698  0.7253  0.2178
 9289SOL    HW228258   2.387   5.625   6.454  1.6513  2.7832 -2.2793
 9290SOL     OW28259   3.222   3.618   3.991 -0.4499  0.4314  0.0165
 9290SOL    HW128260   3.203   3.644   3.901 -0.7932 -0.5849 -0.2111
 9290SOL    HW228261   3.136   3.610   4.033 -0.3339  0.0733  0.1915
 9291SOL     OW28262   2.436   5.369   6.619  0.0267 -0.1373 -0.1548
 9291SOL    HW128263   2.463   5.458   6.595  2.0192 -0.4610  0.6759
 9291SOL    HW228264   2.492   5.312   6.567 -0.4763 -0.9000  0.1243
 9292SOL     OW28265   0.811   5.214   4.201  0.5071  0.0465 -0.3716
 9292SOL    HW128266   0.850   5.132   4.231  2.7079  0.7203 -1.2062
 9292SOL    HW228267   0.882   5.278   4.205 -1.3632  2.1960  1.1550
 9293SOL     OW28268   5.388   1.119   6.809 -0.2825 -0.4222  0.2536
 9293SOL    HW128269   5.315   1.158   6.760 -0.3371 -0.5236  0.2544
 9293SOL    HW228270   5.376   1.025   6.799 -0.2462 -0.4423  0.3938
 9294SOL     OW28271   3.357   1.871   2.512  0.7323  0.5041  0.1254
 9294SOL    HW128272   3.363   1.933   2.584  0.8134  0.6632 -0.0189
 9294SOL    HW228273   3.342   1.925   2.434  1.0981  0.3664 -0.0411
 9295SOL     OW28274   3.593   4.732   3.096 -1.1066 -0.8659 -0.2052
 9295SOL    HW128275   3.548   4.757   3.015  0.5698  0.9901 -0.6473
 9295SOL    HW228276   3.681   4.709   3.068 -0.4180  0.0391  1.0807
 9296SOL     OW28277   2.259   2.902   6.587  0.5571 -0.1544  0.2543
 9296SOL    HW128278   2.175   2.913   6.632 -1.1141  2.0299 -2.9974
 9296SOL    HW228279   2.239   2.843   6.514  1.4142  1.4259 -1.3372
 9297SOL     OW28280   1.618   5.617   2.503  0.0764  0.2106  0.3734
 9297SOL    HW128281   1.541   5.648   2.455  0.3547  0.4165  0.0559
 9297SOL    HW228282   1.651   5.545   2.450 -0.2876 -0.3188  0.8599
 9298SOL     OW28283   4.265   1.440   2.465  0.0755 -0.1933 -0.0975
 9298SOL    HW128284   4.328   1.452   2.394  0.6773 -1.1245  0.2722
 9298SOL    HW228285   4.208   1.369   2.435 -1.0777  0.9011 -0.6054
 9299SOL     OW28286   1.075   5.084   4.454  0.2280  0.5529  0.2693
 9299SOL    HW128287   1.029   5.041   4.383  1.0813  0.4544 -0.2384
 9299SOL    HW228288   1.013   5.084   4.527 -0.3300 -0.1456 -0.1975
 9300SOL     OW28289   2.056   5.778   6.315 -0.0799 -0.0607  0.3299
 9300SOL    HW128290   1.971   5.744   6.343 -1.1640  1.1729 -1.2563
 9300SOL    HW228291   2.035   5.837   6.242  2.1833 -0.1034 -0.4361
 9301SOL     OW28292   6.727   1.111   1.277 -0.4471 -0.0784 -1.0159
 9301SOL    HW128293   6.767   1.146   1.197 -0.3461  1.7196 -0.2376
 9301SOL    HW228294   6.753   1.019   1.279  1.1343  0.3044 -2.0857
 9302SOL     OW28295   3.244   2.527   1.594  0.2402 -0.3269  0.4081
 9302SOL    HW128296   3.163   2.496   1.553 -0.7822  0.9432  1.3920
 9302SOL    HW228297   3.250   2.475   1.674 -1.2627  1.5956  1.8572
 9303SOL     OW28298   1.499   4.928   1.861  0.1269 -0.3028 -0.3457
 9303SOL    HW128299   1.459   4.991   1.801 -0.4179 -0.8189 -0.5272
 9303SOL    HW228300   1.473   4.959   1.948  2.1122  1.2850 -0.2469
 9304SOL     OW28301   6.625   3.185   0.100 -0.1037  0.0004 -0.8127
 9304SOL    HW128302   6.678   3.208   0.023  0.8296 -3.1376 -1.2537
 9304SOL    HW228303   6.535   3.205   0.075  0.4159  1.2000 -1.8061
 9305SOL     OW28304   6.257   0.266   0.239 -0.3906 -0.2106  0.1671
 9305SOL    HW128305   6.238   0.278   0.332 -1.1095  1.5900 -0.1683
 9305SOL    HW228306   6.337   0.316   0.224 -0.3221 -0.4234 -0.1945
 9306SOL     OW28307   1.228   5.147   2.798 -0.5490  0.6195 -0.1027
 9306SOL    HW128308   1.274   5.116   2.721  2.3232  0.6902  1.4271
 9306SOL    HW228309   1.227   5.243   2.788  0.6760  0.6938  0.3461
 9307SOL     OW28310   3.343   0.254   1.960  0.4167  0.2992 -0.2581
 9307SOL    HW128311   3.346   0.163   1.930 -1.4512 -1.0269  3.0521
 9307SOL    HW228312   3.250   0.278   1.953  0.5700  1.2532  0.7560
 9308SOL     OW28313   4.456   1.830   4.965  0.1438 -0.2810 -0.1314
 9308SOL    HW128314   4.462   1.916   4.924  0.3113  0.6039  1.6526
 9308SOL    HW228315   4.444   1.849   5.058 -1.2643 -2.1886  0.1182
 9309SOL     OW28316   3.302   5.232   4.661 -0.3596 -0.6396  0.0370
 9309SOL    HW128317   3.241   5.306   4.658  2.1462  1.5647 -0.4791
 9309SOL    HW228318   3.298   5.201   4.751 -0.9981  0.5544  0.4424
 9310SOL     OW28319   0.894   2.389   0.472 -0.1776 -0.0166  0.0973
 9310SOL    HW128320   0.860   2.333   0.542  0.7347 -0.7325 -0.0182
 9310SOL    HW228321   0.900   2.331   0.396  0.1339  0.4149 -0.2120
 9311SOL     OW28322   3.751   0.880   5.559 -0.3060 -0.4081 -0.1548
 9311SOL    HW128323   3.663   0.843   5.548 -0.3656 -0.2520 -0.2040
 9311SOL    HW228324   3.762   0.939   5.485 -1.3133  1.8239  1.3356
 9312SOL     OW28325   3.876   1.496   2.904  0.1409 -0.6401  0.2736
 9312SOL    HW128326   3.859   1.450   2.986 -0.4656  0.4590  0.7911
 9312SOL    HW228327   3.884   1.588   2.929  1.6807 -0.4817 -0.6864
 9313SOL     OW28328   2.241   3.180   1.263 -0.0970 -0.1499  0.6722
 9313SOL    HW128329   2.166   3.231   1.292 -0.4890  0.8012 -1.7872
 9313SOL    HW228330   2.314   3.213   1.315 -0.7970  1.2095  0.8422
 9314SOL     OW28331   0.557   2.922   0.557 -1.0409 -0.4935  0.2769
 9314SOL    HW128332   0.536   3.006   0.597 -0.7747 -0.6670  0.7811
 9314SOL    HW228333   0.549   2.858   0.628 -2.0556 -1.0159 -0.2895
 9315SOL     OW28334   6.204   0.438   4.951 -0.2409  0.5158 -0.2643
 9315SOL    HW128335   6.259   0.500   4.904  0.8127 -0.6424 -0.6275
 9315SOL    HW228336   6.192   0.366   4.890 -0.7565 -0.0038  0.4316
 9316SOL     OW28337   4.906   0.426   0.600  0.2821 -0.2053 -0.3360
 9316SOL    HW128338   4.912   0.332   0.618  1.1603 -0.3060 -1.0463
 9316SOL    HW228339   4.983   0.463   0.644 -0.7861  0.3932  1.0799
 9317SOL     OW28340   1.490   2.900   5.600 -0.3289 -0.2517 -0.0173
 9317SOL    HW128341   1.469   2.837   5.669 -0.7049 -0.6346 -0.4741
 9317SOL    HW228342   1.496   2.984   5.645 -2.4936 -0.1769  0.2112
 9318SOL     OW28343   2.237   0.581   1.338  0.0305  0.3846 -0.6504
 9318SOL    HW128344   2.200   0.669   1.326 -0.0763  0.4201 -0.0976
 9318SOL    HW228345   2.198   0.529   1.268  1.5533  1.2048 -2.2142
 9319SOL     OW28346   5.015   1.131   5.627 -0.3539 -0.0997 -0.8300
 9319SOL    HW128347   4.955   1.204   5.615  0.6063  1.1059  1.2824
 9319SOL    HW228348   4.965   1.054   5.599 -1.6191  1.2436 -2.4413
 9320SOL     OW28349   0.861   0.223   3.474  0.2209  0.4057  0.5605
 9320SOL    HW128350   0.943   0.173   3.468 -0.0418 -0.1373  1.3483
 9320SOL    HW228351   0.884   0.299   3.528  0.8845  1.7314 -1.4904
 9321SOL     OW28352   6.125   4.539   6.165 -0.6668  0.1748 -0.2567
 9321SOL    HW128353   6.183   4.469   6.194 -0.1781  0.2842 -0.9656
 9321SOL    HW228354   6.056   4.542   6.232  0.5534  0.5598  1.0354
 9322SOL     OW28355   5.585   0.822   1.477 -0.5847  0.2562  0.1315
 9322SOL    HW128356   5.559   0.826   1.569 -2.7554  1.5276 -0.4629
 9322SOL    HW228357   5.504   0.840   1.429  1.0048  2.3008 -1.9595
 9323SOL     OW28358   4.141   2.481   2.127  0.2621  0.0823  0.3222
 9323SOL    HW128359   4.072   2.532   2.170  2.3302  2.7490  0.7607
 9323SOL    HW228360   4.141   2.510   2.036  1.1180  0.5213  0.4480
 9324SOL     OW28361   5.747   4.917   6.114  0.5453 -0.4652 -0.9377
 9324SOL    HW128362   5.786   4.900   6.028  0.7442 -1.4586 -0.6580
 9324SOL    HW228363   5.795   4.860   6.174 -0.6271 -0.9382 -0.4128
 9325SOL     OW28364   4.142   4.825   2.038 -0.6727  0.2409 -0.0786
 9325SOL    HW128365   4.156   4.731   2.045 -1.1624 -0.2109 -3.4063
 9325SOL    HW228366   4.225   4.864   2.063  0.5767 -1.3149 -1.5805
 9326SOL     OW28367   6.764   4.442   2.898 -0.0712  0.0183  0.1363
 9326SOL    HW128368   6.819   4.515   2.925 -0.3624  0.0457  0.6660
 9326SOL    HW228369   6.696   4.437   2.965 -1.0295  0.3261 -0.7875
 9327SOL     OW28370   5.725   4.474   0.538 -0.7535  0.2861 -0.1678
 9327SOL    HW128371   5.744   4.566   0.520  1.1905 -0.1091 -0.3196
 9327SOL    HW228372   5.708   4.436   0.452  2.1374 -0.2318 -0.6014
 9328SOL     OW28373   2.187   3.606   5.101  0.0567 -0.5237 -0.0819
 9328SOL    HW128374   2.263   3.595   5.159 -0.2288 -1.6386  0.1090
 9328SOL    HW228375   2.145   3.520   5.101 -0.2828 -0.3709 -1.4862
 9329SOL     OW28376   0.834   0.446   4.240 -0.0028 -0.0125 -0.1932
 9329SOL    HW128377   0.743   0.416   4.245  0.1027 -0.1643  1.2795
 9329SOL    HW228378   0.864   0.415   4.155 -1.1194 -0.5868 -0.4069
 9330SOL     OW28379   3.309   0.642   2.235  0.2485  0.2666 -0.4729
 9330SOL    HW128380   3.348   0.729   2.227 -1.2259  1.0222  0.0967
 9330SOL    HW228381   3.367   0.585   2.185  1.1250  1.6098 -1.0588
 9331SOL     OW28382   3.299   2.308   2.101  0.2739 -0.0575 -0.1674
 9331SOL    HW128383   3.272   2.320   2.192  0.0875 -0.6132 -0.1454
 9331SOL    HW228384   3.353   2.229   2.102  1.9062  1.0148 -0.2158
 9332SOL     OW28385   5.733   2.489   6.080  0.1764 -0.1766  0.3477
 9332SOL    HW128386   5.655   2.494   6.136  2.2730  1.3877  3.4580
 9332SOL    HW228387   5.771   2.403   6.101  2.2779  1.3415  3.5952
 9333SOL     OW28388   1.430   2.629   6.747 -0.4636  0.3275 -1.0629
 9333SOL    HW128389   1.495   2.635   6.678 -0.8193 -0.9059 -1.5265
 9333SOL    HW228390   1.466   2.566   6.809 -0.9314  0.1033 -1.0121
 9334SOL     OW28391   1.249   1.478   6.303  1.0626 -0.7022  0.1175
 9334SOL    HW128392   1.325   1.421   6.314  1.8322  0.0166 -1.2617
 9334SOL    HW228393   1.281   1.551   6.250 -0.3054  0.2017  0.5047
 9335SOL     OW28394   5.190   4.357   0.444  0.1271 -0.2151  0.1905
 9335SOL    HW128395   5.276   4.328   0.475  0.0432 -0.6456  0.0386
 9335SOL    HW228396   5.201   4.449   0.422  0.4600 -0.1798  0.4991
 9336SOL     OW28397   6.577   6.366   2.757  0.0436 -0.7313  0.2292
 9336SOL    HW128398   6.665   6.403   2.753 -0.1197 -0.2812  0.7086
 9336SOL    HW228399   6.568   6.316   2.676  0.3003  0.2206 -0.4060
 9337SOL     OW28400   5.435   0.417   0.374  0.4178  0.2986 -0.2355
 9337SOL    HW128401   5.470   0.388   0.290  0.9071 -1.1013  0.4141
 9337SOL    HW228402   5.511   0.413   0.433  0.3245  2.2242  0.0762
 9338SOL     OW28403   6.616   5.566   2.561  0.1154 -0.2067 -0.1060
 9338SOL    HW128404   6.558   5.641   2.550 -0.0033 -0.2026  0.4899
 9338SOL    HW228405   6.589   5.503   2.495 -1.1185 -0.5502  0.7006
 9339SOL     OW28406   0.734   1.043   6.768  0.1156 -0.2466  0.3315
 9339SOL    HW128407   0.770   1.011   6.851  1.3270 -2.7608 -1.0431
 9339SOL    HW228408   0.784   1.123   6.750 -0.7351  0.8063  2.3395
 9340SOL     OW28409   5.360   5.709   4.439  0.2627 -0.7919 -0.0406
 9340SOL    HW128410   5.330   5.731   4.351  0.8332 -0.2527 -0.1104
 9340SOL    HW228411   5.359   5.613   4.441 -1.0942 -0.8065 -0.1511
 9341SOL     OW28412   5.260   6.312   3.596 -0.5727  0.4153  0.7861
 9341SOL    HW128413   5.165   6.297   3.601 -0.5603  0.2120  0.4535
 9341SOL    HW228414   5.286   6.271   3.514 -0.6133  2.7059 -0.4383
 9342SOL     OW28415   3.373   5.216   2.026 -0.1837 -0.4749 -0.0229
 9342SOL    HW128416   3.279   5.206   2.043 -0.2428 -1.1341 -0.6550
 9342SOL    HW228417   3.394   5.304   2.056 -0.8447 -0.5933  0.8339
 9343SOL     OW28418   2.138   0.570   1.922 -0.3815  0.1604 -0.3406
 9343SOL    HW128419   2.128   0.529   2.009  2.9320 -0.3223 -0.0429
 9343SOL    HW228420   2.049   0.583   1.891 -1.7067  0.0653  3.0046
 9344SOL     OW28421   3.082   6.167   3.675 -0.1071 -0.0440  0.5391
 9344SOL    HW128422   3.046   6.253   3.696  0.4564  0.4323 -0.3825
 9344SOL    HW228423   3.066   6.156   3.581 -1.2962 -1.5046  0.8795
 9345SOL     OW28424   3.944   2.867   6.406  0.5878  0.7907 -0.0830
 9345SOL    HW128425   3.935   2.918   6.326  0.5331  0.0022 -0.5898
 9345SOL    HW228426   3.911   2.925   6.475 -0.4320  1.0626 -0.7776
 9346SOL     OW28427   0.461   0.490   1.892  0.0491 -0.0234 -0.0799
 9346SOL    HW128428   0.545   0.478   1.846  0.0835 -1.4042  0.3007
 9346SOL    HW228429   0.400   0.516   1.823  0.8560  1.4606 -0.2946
 9347SOL     OW28430   3.190   1.263   0.790 -0.0969  0.2500  0.5149
 9347SOL    HW128431   3.200   1.247   0.697 -2.0781  3.0611 -0.2970
 9347SOL    HW228432   3.274   1.300   0.818  0.0347  0.6762 -0.4400
 9348SOL     OW28433   4.569   0.665   4.040  0.3345 -0.4515 -0.7790
 9348SOL    HW128434   4.535   0.670   3.950 -0.4904  0.9629 -0.4105
 9348SOL    HW228435   4.543   0.748   4.080  1.3830 -0.7343  0.5389
 9349SOL     OW28436   5.340   3.550   3.724  0.4019 -0.7023 -0.4953
 9349SOL    HW128437   5.431   3.577   3.727 -0.1266  1.4225 -1.5303
 9349SOL    HW228438   5.316   3.535   3.816  0.8282  2.3585  0.2080
 9350SOL     OW28439   3.938   5.583   2.365 -0.2354 -0.5803 -0.3299
 9350SOL    HW128440   3.932   5.631   2.282 -2.6905 -1.9694 -1.0641
 9350SOL    HW228441   3.987   5.504   2.343  0.4642 -0.2369 -0.0439
 9351SOL     OW28442   4.860   6.699   3.941 -0.1361 -0.0492  0.2123
 9351SOL    HW128443   4.822   6.693   4.029  0.4860  0.4647  0.5257
 9351SOL    HW228444   4.785   6.708   3.883 -0.5155  3.4714  1.0062
 9352SOL     OW28445   5.737   0.493   1.105  0.1659 -0.2517 -0.0543
 9352SOL    HW128446   5.760   0.585   1.118  0.4846 -0.2859 -0.3518
 9352SOL    HW228447   5.659   0.495   1.049  0.0128 -0.1541  0.1648
 9353SOL     OW28448   5.402   1.569   1.852 -0.5104  0.2252 -0.1485
 9353SOL    HW128449   5.492   1.553   1.825 -0.4762 -1.2250  0.7579
 9353SOL    HW228450   5.405   1.655   1.895  0.8550 -0.6335  1.5864
 9354SOL     OW28451   5.578   1.149   5.599  0.8208 -0.3382 -0.3756
 9354SOL    HW128452   5.646   1.102   5.552  2.3801  0.8347  0.6148
 9354SOL    HW228453   5.592   1.126   5.691  0.5291  0.6909 -0.0560
 9355SOL     OW28454   2.971   2.501   1.517 -0.4912  0.5827 -0.0843
 9355SOL    HW128455   2.929   2.433   1.465 -1.1621  2.1715 -1.7550
 9355SOL    HW228456   2.943   2.484   1.607 -0.0403 -1.7194 -0.3290
 9356SOL     OW28457   6.249   0.702   6.235 -0.3635 -0.1664  0.1648
 9356SOL    HW128458   6.326   0.694   6.291 -0.1226  0.0379 -0.1394
 9356SOL    HW228459   6.284   0.717   6.147 -0.7428 -0.3687 -0.0254
 9357SOL     OW28460   2.684   0.105   3.521 -0.2241  0.2384  0.0080
 9357SOL    HW128461   2.630   0.031   3.494  0.8819 -1.0444  1.1466
 9357SOL    HW228462   2.626   0.159   3.575 -0.8884 -0.1102 -0.3597
 9358SOL     OW28463   4.215   5.714   1.302  0.3428  0.6877  0.1908
 9358SOL    HW128464   4.227   5.792   1.248  0.2642  2.0712  2.0686
 9358SOL    HW228465   4.184   5.747   1.386 -3.6177 -1.6068 -0.0726
 9359SOL     OW28466   2.073   6.833   2.888  0.0907 -0.0734 -0.1672
 9359SOL    HW128467   2.127   6.912   2.890 -0.2887  0.1787  0.0629
 9359SOL    HW228468   2.063   6.814   2.794  1.8546 -1.0102 -0.2182
 9360SOL     OW28469   5.839   5.505   2.115  0.0209  0.2725 -0.1047
 9360SOL    HW128470   5.854   5.436   2.180 -0.9712  0.2237  0.0818
 9360SOL    HW228471   5.909   5.568   2.131 -0.2674  0.3087  1.0803
 9361SOL     OW28472   3.499   3.156   5.912 -0.5787  0.2038 -0.5797
 9361SOL    HW128473   3.485   3.097   5.986  1.5611  0.9670  0.5279
 9361SOL    HW228474   3.469   3.107   5.836 -5.0248  0.2226  0.8980
 9362SOL     OW28475   3.875   0.482   6.444 -0.3842 -0.3957 -0.1450
 9362SOL    HW128476   3.839   0.400   6.409  0.4840 -0.6079 -0.5753
 9362SOL    HW228477   3.800   0.541   6.449 -1.0221 -1.2145  0.1682
 9363SOL     OW28478   1.056   4.079   0.110  0.6340 -0.6068  0.0662
 9363SOL    HW128479   1.111   4.027   0.052  0.0953 -0.7451 -0.3255
 9363SOL    HW228480   1.023   4.150   0.055  0.1277 -0.7340  0.1975
 9364SOL     OW28481   2.464   6.597   5.025 -0.8011  0.0959 -0.5523
 9364SOL    HW128482   2.413   6.615   5.104 -0.8028  0.2445 -0.5870
 9364SOL    HW228483   2.540   6.547   5.057 -0.1750  1.2001 -0.2804
 9365SOL     OW28484   2.485   6.818   3.974  0.4640  0.0492 -0.3435
 9365SOL    HW128485   2.500   6.837   4.067 -1.0014  0.3814 -0.1416
 9365SOL    HW228486   2.571   6.824   3.934  1.0495  0.4285  0.9110
 9366SOL     OW28487   5.715   5.441   6.347  0.4182  0.2005  0.1949
 9366SOL    HW128488   5.665   5.359   6.341 -0.8595  1.0494 -1.2257
 9366SOL    HW228489   5.807   5.414   6.338 -0.0328 -1.0015 -1.0041
 9367SOL     OW28490   6.452   4.186   3.211 -0.7214 -0.6072 -1.1282
 9367SOL    HW128491   6.418   4.126   3.144 -1.2702 -0.2288 -1.1893
 9367SOL    HW228492   6.406   4.161   3.291 -1.3660  0.0971 -1.2750
 9368SOL     OW28493   4.635   1.002   3.147  0.6739 -0.1544  0.5459
 9368SOL    HW128494   4.582   0.927   3.120 -0.6069  0.7698  0.4244
 9368SOL    HW228495   4.679   1.030   3.067 -1.0652  0.9408 -0.0907
 9369SOL     OW28496   0.304   6.436   4.532  0.1162 -0.8201  0.2155
 9369SOL    HW128497   0.348   6.520   4.519  0.3958 -1.1927 -1.5017
 9369SOL    HW228498   0.372   6.378   4.567  1.5404 -1.7426 -3.5770
 9370SOL     OW28499   3.351   2.474   5.255  1.0676 -0.5266  0.1807
 9370SOL    HW128500   3.323   2.449   5.167  1.8147 -1.3306  0.1565
 9370SOL    HW228501   3.437   2.433   5.266  0.6419 -1.1391  1.5833
 9371SOL     OW28502   0.221   6.151   5.166 -0.5479  0.2749  0.1037
 9371SOL    HW128503   0.260   6.201   5.238 -0.8319  1.1945 -0.3698
 9371SOL    HW228504   0.247   6.061   5.183  0.6438  0.6834  0.5517
 9372SOL     OW28505   6.596   5.951   0.305  0.7784 -0.2775  0.4711
 9372SOL    HW128506   6.667   5.900   0.266  2.2037  1.5866  0.4950
 9372SOL    HW228507   6.561   6.003   0.233  0.1203 -0.4139  0.6842
 9373SOL     OW28508   2.721   2.294   4.239  0.4331  0.3388  0.0380
 9373SOL    HW128509   2.731   2.390   4.239 -0.2402  0.4636  2.1295
 9373SOL    HW228510   2.807   2.261   4.264  0.7385  0.3607 -0.9391
 9374SOL     OW28511   4.281   6.725   1.296 -0.0114  0.0821 -0.4203
 9374SOL    HW128512   4.251   6.763   1.214 -1.0614 -0.7345 -0.4340
 9374SOL    HW228513   4.279   6.798   1.359 -0.8183  0.3374 -0.7296
 9375SOL     OW28514   5.523   4.509   2.109  0.1173  0.2234  0.0440
 9375SOL    HW128515   5.548   4.520   2.017 -0.7281 -1.3905 -0.4103
 9375SOL    HW228516   5.553   4.589   2.151 -0.9862  1.7685 -1.9485
 9376SOL     OW28517   4.038   5.941   3.467 -0.6806  0.4400  0.4429
 9376SOL    HW128518   3.960   5.895   3.498 -0.3864  0.3912  1.1291
 9376SOL    HW228519   4.106   5.918   3.530 -0.5564  1.9192  0.8931
 9377SOL     OW28520   4.527   6.486   3.347  0.1240 -0.5569  0.1598
 9377SOL    HW128521   4.555   6.424   3.415 -0.8568 -0.8712  0.2867
 9377SOL    HW228522   4.609   6.524   3.315  0.5771  0.8050  2.6397
 9378SOL     OW28523   4.119   0.635   5.688  0.5050  0.3826  0.2211
 9378SOL    HW128524   4.045   0.576   5.703  0.9293  0.2445  2.0624
 9378SOL    HW228525   4.160   0.603   5.608 -0.7555 -0.2512 -0.1922
 9379SOL     OW28526   1.568   1.223   5.242  0.1977  0.2548  0.4933
 9379SOL    HW128527   1.473   1.224   5.257  0.3296 -0.6033  1.4941
 9379SOL    HW228528   1.593   1.315   5.250 -0.5126  0.4571  0.5221
 9380SOL     OW28529   0.271   5.193   2.312  0.2496 -0.2031 -0.9331
 9380SOL    HW128530   0.318   5.272   2.338  0.4267 -0.6042  0.0274
 9380SOL    HW228531   0.182   5.222   2.293 -0.4919 -0.1335  2.1593
 9381SOL     OW28532   4.315   0.361   3.007 -0.0100 -0.0862 -0.1022
 9381SOL    HW128533   4.228   0.361   3.045 -0.7839  0.8897 -1.7611
 9381SOL    HW228534   4.374   0.347   3.081 -1.5397 -0.3388  1.1102
 9382SOL     OW28535   6.487   2.070   2.207 -0.1307  0.2391 -0.6200
 9382SOL    HW128536   6.526   2.114   2.282 -1.6631  1.6011 -0.5644
 9382SOL    HW228537   6.416   2.018   2.243  0.9120 -1.3785 -0.8329
 9383SOL     OW28538   5.940   3.661   5.927 -0.0387  0.0103  0.3417
 9383SOL    HW128539   5.858   3.667   5.878 -0.6703 -0.5664  1.2957
 9383SOL    HW228540   5.956   3.567   5.936  0.6125  0.1148  0.3568
 9384SOL     OW28541   4.897   5.830   3.795 -0.5215  0.5512 -0.6412
 9384SOL    HW128542   4.898   5.907   3.738 -1.6591  1.3367  0.3514
 9384SOL    HW228543   4.848   5.857   3.872 -1.4672 -1.3487 -0.5020
 9385SOL     OW28544   1.149   2.760   0.877 -0.7670  0.3037  0.1195
 9385SOL    HW128545   1.163   2.703   0.953 -0.0771  0.4194  0.0869
 9385SOL    HW228546   1.197   2.840   0.899 -0.0256  0.0979 -0.7153
 9386SOL     OW28547   3.144   4.926   4.728  0.0838 -0.0348 -0.0616
 9386SOL    HW128548   3.214   4.893   4.672  1.1708  0.4372  0.9618
 9386SOL    HW228549   3.082   4.853   4.735 -1.1115  0.4940 -3.3486
 9387SOL     OW28550   4.768   5.197   3.045  0.6464  0.4127  0.8191
 9387SOL    HW128551   4.680   5.173   3.074 -0.0478 -0.0215 -1.4242
 9387SOL    HW228552   4.754   5.273   2.989  1.7997  0.7184  0.9276
 9388SOL     OW28553   0.368   3.270   4.969  0.0938 -0.5535 -0.2886
 9388SOL    HW128554   0.325   3.354   4.982  0.6711 -0.3475  0.4312
 9388SOL    HW228555   0.461   3.289   4.981  0.4230 -0.9449 -1.9928
 9389SOL     OW28556   6.422   0.278   5.547 -0.0062  0.1117 -0.6816
 9389SOL    HW128557   6.439   0.237   5.463  2.4186  0.2213 -0.3026
 9389SOL    HW228558   6.475   0.358   5.547  0.0464  0.1202  0.9223
 9390SOL     OW28559   5.149   6.227   0.747 -0.1633 -0.7885  0.3341
 9390SOL    HW128560   5.149   6.314   0.707  0.4844 -1.6612 -1.6617
 9390SOL    HW228561   5.157   6.244   0.841  0.7851  1.2694 -0.0738
 9391SOL     OW28562   3.314   2.290   1.383  0.0680  0.1377 -0.0118
 9391SOL    HW128563   3.319   2.379   1.419  0.5241  0.1581 -0.1163
 9391SOL    HW228564   3.381   2.289   1.314 -1.3730  0.3898 -1.4954
 9392SOL     OW28565   5.189   2.681   4.444 -0.0022 -0.3312 -0.1413
 9392SOL    HW128566   5.222   2.724   4.523  1.8246 -1.6377 -0.1283
 9392SOL    HW228567   5.266   2.670   4.388 -0.5293 -2.6456 -0.5456
 9393SOL     OW28568   0.111   0.777   5.102 -0.6752 -0.1837 -0.6503
 9393SOL    HW128569   0.028   0.774   5.151 -0.9425  0.5736 -1.0255
 9393SOL    HW228570   0.154   0.856   5.135 -0.8275  0.2973 -1.5706
 9394SOL     OW28571   2.702   0.604   1.377 -0.0700 -0.2045  0.0135
 9394SOL    HW128572   2.780   0.594   1.431  1.5916  1.7193 -1.8738
 9394SOL    HW228573   2.704   0.695   1.348 -1.6591 -0.7765 -2.1102
 9395SOL     OW28574   6.682   0.499   5.202  0.8513 -0.1778 -0.0949
 9395SOL    HW128575   6.628   0.451   5.140  1.3389  0.2802 -0.8940
 9395SOL    HW228576   6.638   0.584   5.212  0.0625 -0.7151  1.2098
 9396SOL     OW28577   2.683   4.746   6.468  0.0862 -0.2287 -0.0108
 9396SOL    HW128578   2.620   4.807   6.430 -0.2855  0.3243  1.4271
 9396SOL    HW228579   2.640   4.712   6.546  0.3039 -2.3363 -0.7580
 9397SOL     OW28580   3.274   4.836   1.975  0.4230  0.4711 -0.0917
 9397SOL    HW128581   3.203   4.869   1.920  1.1250  1.3460 -0.5123
 9397SOL    HW228582   3.247   4.856   2.064 -0.7390 -0.9759 -0.0764
 9398SOL     OW28583   4.773   0.859   4.946 -0.0541  0.4826  0.0933
 9398SOL    HW128584   4.831   0.936   4.950  1.0632 -0.2312 -1.3971
 9398SOL    HW228585   4.791   0.812   5.027 -0.2931  1.4752  0.7359
 9399SOL     OW28586   4.674   0.848   1.101 -0.6100 -0.1032 -0.2081
 9399SOL    HW128587   4.701   0.820   1.014  0.6310 -2.2851  0.7981
 9399SOL    HW228588   4.619   0.777   1.134 -2.3239  1.3633  0.2639
 9400SOL     OW28589   0.591   1.844   5.659 -0.2136 -0.5549  0.1937
 9400SOL    HW128590   0.501   1.828   5.689  0.0974  0.4999  1.8298
 9400SOL    HW228591   0.632   1.758   5.661 -1.0481 -0.9726 -0.0895
 9401SOL     OW28592   6.419   3.591   6.694  0.6841  0.1664 -0.4121
 9401SOL    HW128593   6.510   3.564   6.700  0.6711  0.1592 -0.2507
 9401SOL    HW228594   6.409   3.659   6.760  0.5512  0.1104 -0.3726
 9402SOL     OW28595   2.863   1.705   1.145  0.2837  0.5768  0.1894
 9402SOL    HW128596   2.861   1.742   1.056  2.1117  0.0869 -0.0828
 9402SOL    HW228597   2.854   1.611   1.132 -0.0366  0.5459  0.5916
 9403SOL     OW28598   1.794   0.110   2.116  0.1835  0.5415 -0.3332
 9403SOL    HW128599   1.848   0.139   2.189  1.1038  1.1717 -1.2332
 9403SOL    HW228600   1.712   0.157   2.126  0.3418  0.6964  0.2345
 9404SOL     OW28601   6.605   2.723   3.458 -0.0301 -0.1270 -0.1805
 9404SOL    HW128602   6.648   2.664   3.396 -1.8339 -0.0241 -1.6267
 9404SOL    HW228603   6.511   2.709   3.442 -0.5084  1.7816  0.7570
 9405SOL     OW28604   5.928   2.228   2.171  0.1110  0.1815 -0.2504
 9405SOL    HW128605   5.845   2.204   2.212 -0.0516 -2.1160 -1.7287
 9405SOL    HW228606   5.994   2.178   2.221  0.7794  2.4806  1.3345
 9406SOL     OW28607   0.023   4.110   5.877 -0.1870  0.1608  0.0362
 9406SOL    HW128608  -0.021   4.163   5.943 -3.9069 -1.6722 -0.6950
 9406SOL    HW228609   0.037   4.025   5.919  1.8844  0.3817 -0.0982
 9407SOL     OW28610   6.274   4.402   5.943 -0.2053 -0.1312  0.5890
 9407SOL    HW128611   6.294   4.384   6.035 -0.7249  1.4449  1.0348
 9407SOL    HW228612   6.217   4.329   5.917 -0.1420 -0.5393  1.5334
 9408SOL     OW28613   5.241   1.613   0.714  0.0935  0.1782 -0.6550
 9408SOL    HW128614   5.148   1.590   0.721 -0.0356  0.5260 -1.1592
 9408SOL    HW228615   5.241   1.707   0.696  0.5840  0.4002  0.4212
 9409SOL     OW28616   0.672   0.664   2.903 -0.2626 -0.0935 -0.0637
 9409SOL    HW128617   0.635   0.708   2.826 -0.0065 -0.6413 -0.4994
 9409SOL    HW228618   0.653   0.724   2.976 -0.4769  0.4399 -0.5544
 9410SOL     OW28619   6.053   3.434   6.224 -0.2753 -0.6107  0.4655
 9410SOL    HW128620   6.087   3.379   6.294  2.2555 -0.3651 -0.4845
 9410SOL    HW228621   6.071   3.524   6.253 -2.5638 -0.2801  1.0938
 9411SOL     OW28622   5.014   0.394   4.885  0.8061 -0.2309  0.0068
 9411SOL    HW128623   5.066   0.437   4.816  0.9643 -2.8683 -1.6448
 9411SOL    HW228624   4.968   0.324   4.840 -1.0126 -0.5719  2.2131
 9412SOL     OW28625   4.454   2.096   4.917  0.5657  0.2294 -0.1846
 9412SOL    HW128626   4.377   2.144   4.946 -0.3037 -1.2667  0.0976
 9412SOL    HW228627   4.522   2.120   4.979  0.1467  1.0425 -0.0223
 9413SOL     OW28628   2.043   1.042   5.091  0.2267  0.0402 -0.5515
 9413SOL    HW128629   2.125   1.077   5.055  0.3481  1.0455  0.6676
 9413SOL    HW228630   2.067   0.958   5.128  0.6269  0.1606 -0.5362
 9414SOL     OW28631   5.963   2.127   5.988  0.7768  0.2337  0.6402
 9414SOL    HW128632   6.005   2.209   5.963  0.0165  0.3010 -0.4717
 9414SOL    HW228633   5.899   2.152   6.055  2.4888  0.1192  2.3913
 9415SOL     OW28634   3.908   4.245   1.960 -0.1636  0.1613 -0.1126
 9415SOL    HW128635   3.873   4.166   1.919  0.6332 -0.9637  1.2395
 9415SOL    HW228636   3.878   4.240   2.051  0.2848  1.1771  0.1129
 9416SOL     OW28637   3.669   0.344   6.266 -0.1184 -0.3388 -0.1610
 9416SOL    HW128638   3.670   0.325   6.360  0.3909  0.5836  0.0347
 9416SOL    HW228639   3.597   0.406   6.255  0.1600 -0.0389 -0.2932
 9417SOL     OW28640   0.535   1.860   2.678 -0.2869  0.2792 -0.1587
 9417SOL    HW128641   0.481   1.846   2.601 -0.6952 -0.0779  0.1838
 9417SOL    HW228642   0.624   1.872   2.644 -0.4961  0.3417 -0.6908
 9418SOL     OW28643   0.834   1.892   3.546  0.1949  0.1201 -0.1914
 9418SOL    HW128644   0.808   1.931   3.629 -2.1355 -2.6312  0.5343
 9418SOL    HW228645   0.812   1.959   3.481  0.2924  1.5940  1.2367
 9419SOL     OW28646   6.526   6.667   0.265  0.4943 -0.3115 -0.1194
 9419SOL    HW128647   6.582   6.642   0.338 -1.2078 -0.9078  1.0463
 9419SOL    HW228648   6.494   6.755   0.287  0.3567 -0.2869 -0.3993
 9420SOL     OW28649   4.971   3.417   2.336  0.1151  0.2642 -0.7885
 9420SOL    HW128650   5.042   3.411   2.272 -0.1180 -0.7157 -0.9648
 9420SOL    HW228651   4.998   3.488   2.395  0.2687  1.2741 -2.0292
 9421SOL     OW28652   2.102   3.690   3.279  0.3089 -0.3091 -0.2967
 9421SOL    HW128653   2.174   3.726   3.332 -0.7521 -0.5570  1.4020
 9421SOL    HW228654   2.033   3.672   3.343 -1.4051  0.2521 -1.9218
 9422SOL     OW28655   6.194   3.855   2.805 -0.5226  0.0155  0.6363
 9422SOL    HW128656   6.185   3.949   2.796 -1.1491 -0.1987 -1.4223
 9422SOL    HW228657   6.104   3.821   2.803 -0.3056 -0.6416  1.3060
 9423SOL     OW28658   5.510   3.847   4.942 -0.4940 -0.3247 -0.3280
 9423SOL    HW128659   5.516   3.873   4.850  0.3549  1.3925  0.1780
 9423SOL    HW228660   5.448   3.774   4.941 -0.9970  0.0513 -2.1846
 9424SOL     OW28661   2.901   2.044   0.099  0.4826  0.2356  0.6084
 9424SOL    HW128662   2.893   1.953   0.072  0.1654  0.5270 -0.3117
 9424SOL    HW228663   2.992   2.067   0.080  0.5315  0.1453  0.7337
 9425SOL     OW28664   1.606   3.145   0.830 -0.2823  0.6987  0.2577
 9425SOL    HW128665   1.677   3.082   0.814  1.4071  2.3779  0.8048
 9425SOL    HW228666   1.529   3.091   0.845  1.1156 -1.2509  0.8125
 9426SOL     OW28667   5.641   6.304   5.682  0.2501  0.1116  0.4540
 9426SOL    HW128668   5.651   6.393   5.716 -0.6594  0.9193 -1.2608
 9426SOL    HW228669   5.662   6.247   5.756  3.4407  1.6700  0.9275
 9427SOL     OW28670   0.057   0.639   2.745 -0.1963  0.0018  0.4643
 9427SOL    HW128671  -0.028   0.663   2.706  0.4574  1.1089 -0.3593
 9427SOL    HW228672   0.054   0.674   2.834 -0.5265  0.2263  0.3664
 9428SOL     OW28673   0.582   5.003   4.542  0.4487  0.1153 -0.0075
 9428SOL    HW128674   0.605   4.919   4.501 -1.2404  0.2078 -1.2456
 9428SOL    HW228675   0.495   5.023   4.508  0.3108  1.7915  1.2231
 9429SOL     OW28676   3.570   4.388   3.363  0.0428 -0.1141 -0.3628
 9429SOL    HW128677   3.591   4.306   3.408 -2.4305 -0.1920  0.8333
 9429SOL    HW228678   3.515   4.436   3.425  0.5299  1.9878 -1.4656
 9430SOL     OW28679   1.320   6.042   4.369  0.0705 -0.0365  0.3459
 9430SOL    HW128680   1.249   6.094   4.332  0.0525 -1.4869 -1.8490
 9430SOL    HW228681   1.295   5.952   4.352  1.8524 -0.6193  0.6409
 9431SOL     OW28682   2.351   1.184   6.600 -0.3190 -0.3240  0.3448
 9431SOL    HW128683   2.326   1.277   6.605  3.2723  0.7597  0.8877
 9431SOL    HW228684   2.327   1.148   6.686  0.2516  0.7342  0.9753
 9432SOL     OW28685   3.995   5.055   2.327  1.0137  0.4458  0.2542
 9432SOL    HW128686   3.913   5.052   2.277  0.3437 -0.4589  1.3545
 9432SOL    HW228687   4.054   4.998   2.278  0.1665 -0.9435  0.7933
 9433SOL     OW28688   0.227   4.337   3.142  0.0023 -0.2274  0.1437
 9433SOL    HW128689   0.308   4.370   3.182  1.3202 -2.0949 -0.7700
 9433SOL    HW228690   0.159   4.356   3.206  1.4220  0.0982  1.6473
 9434SOL     OW28691   1.867   4.291   3.689 -0.5076  0.1519 -0.2236
 9434SOL    HW128692   1.815   4.214   3.711  0.2474 -0.5837 -0.9500
 9434SOL    HW228693   1.946   4.284   3.742 -0.1464  0.0800 -0.7627
 9435SOL     OW28694   0.816   2.437   1.065  0.7591 -0.1077 -0.4027
 9435SOL    HW128695   0.817   2.522   1.108 -1.0206  0.5504 -1.5463
 9435SOL    HW228696   0.906   2.404   1.074  1.0715  1.1145  1.5021
 9436SOL     OW28697   2.720   1.897   0.616  0.2403 -0.7804 -0.1055
 9436SOL    HW128698   2.721   1.953   0.538  0.0036 -1.3948 -0.5560
 9436SOL    HW228699   2.740   1.957   0.688  0.4176 -0.1953 -0.6287
 9437SOL     OW28700   2.094   1.375   1.625  0.1217  0.8870 -0.0892
 9437SOL    HW128701   2.097   1.423   1.542 -0.2726 -1.2592 -1.4124
 9437SOL    HW228702   2.163   1.416   1.678 -0.8978  3.5939 -0.6744
 9438SOL     OW28703   3.161   1.901   0.143 -0.5437  0.6189  0.1812
 9438SOL    HW128704   3.109   1.849   0.081  0.4989 -0.5530  0.2510
 9438SOL    HW228705   3.252   1.885   0.117 -0.0203 -0.4460  2.3713
 9439SOL     OW28706   0.728   2.864   3.944 -0.2057 -0.1578 -0.4186
 9439SOL    HW128707   0.668   2.938   3.932  1.9708  1.8845  0.4374
 9439SOL    HW228708   0.789   2.871   3.871 -0.8348 -2.1030 -1.1925
 9440SOL     OW28709   4.448   5.496   5.127  0.0719 -0.3861  0.2330
 9440SOL    HW128710   4.387   5.563   5.159 -0.1329 -0.4414 -0.0388
 9440SOL    HW228711   4.437   5.424   5.189  0.4777 -0.0755  0.6736
 9441SOL     OW28712   4.558   1.278   1.669  0.4438  0.4532 -0.3238
 9441SOL    HW128713   4.580   1.368   1.694 -3.4472  1.2164  1.0535
 9441SOL    HW228714   4.507   1.286   1.589  0.5871 -0.5815 -0.5344
 9442SOL     OW28715   4.911   6.770   5.080  0.0593  0.1227  0.0764
 9442SOL    HW128716   4.970   6.773   5.156 -1.1486 -0.1733  1.0659
 9442SOL    HW228717   4.946   6.701   5.025 -0.1972 -1.1229  1.4090
 9443SOL     OW28718   3.931   5.809   5.951  0.0035  0.0707  0.4581
 9443SOL    HW128719   3.901   5.828   5.862 -0.4895 -0.2267  0.5581
 9443SOL    HW228720   3.894   5.879   6.005  0.0573  0.0847  0.4777
 9444SOL     OW28721   3.455   6.488   1.321 -0.4861 -0.4237  0.2417
 9444SOL    HW128722   3.365   6.520   1.313 -0.5415 -0.2478  1.4529
 9444SOL    HW228723   3.473   6.448   1.236 -0.4056  2.8090 -1.4005
 9445SOL     OW28724   2.021   0.949   2.146 -0.2085  0.1174 -0.3296
 9445SOL    HW128725   2.086   1.015   2.172  0.4256 -0.1590 -1.1782
 9445SOL    HW228726   1.963   0.942   2.222 -0.3981  1.7822 -0.2812
 9446SOL     OW28727   6.060   5.627   5.062 -0.0519 -0.1507 -0.3318
 9446SOL    HW128728   5.980   5.631   5.010  0.0524  0.1754 -0.4701
 9446SOL    HW228729   6.034   5.582   5.143 -0.8732  1.7073  0.5039
 9447SOL     OW28730   0.436   4.554   6.740 -0.2777 -0.0001 -0.1206
 9447SOL    HW128731   0.448   4.514   6.653  1.0323 -0.5618  0.2930
 9447SOL    HW228732   0.525   4.578   6.768 -0.5875 -0.4490  1.3450
 9448SOL     OW28733   1.483   0.818   2.227 -0.3449  0.6811  0.4150
 9448SOL    HW128734   1.391   0.820   2.255 -0.2431 -0.3668  0.8609
 9448SOL    HW228735   1.523   0.892   2.271 -0.4313 -0.3024  2.2309
 9449SOL     OW28736   6.477   6.034   5.675 -0.2127  0.1276 -0.4806
 9449SOL    HW128737   6.446   6.064   5.760 -2.7138  1.1089 -1.6398
 9449SOL    HW228738   6.522   6.111   5.638  1.1972 -0.4087  0.0340
 9450SOL     OW28739   4.502   2.923   3.316  0.4046 -0.0769 -0.3531
 9450SOL    HW128740   4.574   2.916   3.253  2.9193  2.8618  1.8580
 9450SOL    HW228741   4.446   2.992   3.281  0.9542  0.4685 -0.1899
 9451SOL     OW28742   4.489   3.752   1.868 -0.8868 -0.4021 -0.0225
 9451SOL    HW128743   4.425   3.823   1.861 -0.0290  0.2691 -1.5601
 9451SOL    HW228744   4.550   3.782   1.936  0.0309  0.8395 -1.3360
 9452SOL     OW28745   4.863   0.084   1.590 -0.0188  0.3485  0.6256
 9452SOL    HW128746   4.793   0.021   1.609  1.2385 -1.2869  0.0438
 9452SOL    HW228747   4.943   0.033   1.592  0.8939  1.4947 -1.9019
 9453SOL     OW28748   4.003   5.758   0.955  0.3124  0.4024 -0.3666
 9453SOL    HW128749   4.028   5.840   0.999 -1.5509  0.9718 -0.3096
 9453SOL    HW228750   3.982   5.784   0.865  0.6403 -0.1885 -0.6248
 9454SOL     OW28751   5.345   3.725   5.384 -0.2823 -0.1708 -0.2266
 9454SOL    HW128752   5.362   3.633   5.362 -1.3568 -0.3777 -0.2867
 9454SOL    HW228753   5.310   3.762   5.303  1.5735  0.7119 -0.6595
 9455SOL     OW28754   4.967   5.436   6.027 -0.4422  0.2913  0.3410
 9455SOL    HW128755   5.011   5.510   5.985  1.7244 -0.8499  0.4359
 9455SOL    HW228756   4.901   5.408   5.964 -0.2956  1.3810 -0.3242
 9456SOL     OW28757   2.348   1.656   1.909  0.2467  0.3775 -0.4172
 9456SOL    HW128758   2.318   1.679   1.997 -0.5982 -0.8852 -0.3591
 9456SOL    HW228759   2.332   1.735   1.857  0.5265  1.0553  0.4895
 9457SOL     OW28760   6.376   1.811   6.656  0.4876  0.0620  0.2683
 9457SOL    HW128761   6.311   1.853   6.600  0.3370  1.6393  1.5351
 9457SOL    HW228762   6.325   1.753   6.713  0.6216 -1.3966 -1.0215
 9458SOL     OW28763   2.735   0.191   2.677 -0.5233  0.1714 -0.6683
 9458SOL    HW128764   2.723   0.111   2.728 -2.5030  1.3662  0.9157
 9458SOL    HW228765   2.739   0.161   2.586 -0.6325 -1.7601 -0.0846
 9459SOL     OW28766   5.419   6.440   2.305  0.5935  0.1877 -0.5018
 9459SOL    HW128767   5.342   6.383   2.315  1.2445 -0.7985 -0.9306
 9459SOL    HW228768   5.486   6.383   2.268  2.1780  0.4630  1.7294
 9460SOL     OW28769   4.771   2.436   3.716  0.3501  0.1752 -0.1676
 9460SOL    HW128770   4.811   2.518   3.745 -2.2424  0.6198  2.6781
 9460SOL    HW228771   4.737   2.457   3.629  0.2146  1.9796  0.2653
 9461SOL     OW28772   0.941   1.440   5.241  0.0431  0.0662  0.2162
 9461SOL    HW128773   0.936   1.354   5.199 -1.3187  0.0834  0.3030
 9461SOL    HW228774   0.859   1.483   5.219 -0.2066  0.5477  1.9053
 9462SOL     OW28775   1.371   6.625   2.001 -0.4175 -0.2229  0.3793
 9462SOL    HW128776   1.459   6.655   2.023 -0.1079  0.1968 -1.3031
 9462SOL    HW228777   1.383   6.536   1.968 -0.5159  0.0702 -0.4758
 9463SOL     OW28778   4.896   1.361   6.782 -0.8228  0.4149 -0.8263
 9463SOL    HW128779   4.895   1.266   6.774 -0.7941  0.1894  1.2806
 9463SOL    HW228780   4.806   1.385   6.801 -0.3263  0.3433  2.1965
 9464SOL     OW28781   4.758   5.892   0.197 -0.0360  0.6604  0.0649
 9464SOL    HW128782   4.705   5.951   0.144 -0.6360 -0.0044 -0.0901
 9464SOL    HW228783   4.827   5.947   0.233 -0.6897  1.4888  0.0666
 9465SOL     OW28784   2.608   1.144   0.520 -0.1802 -0.1600  0.4231
 9465SOL    HW128785   2.676   1.210   0.534 -1.5673  1.1751  1.1853
 9465SOL    HW228786   2.624   1.112   0.431 -1.8667  4.2951 -1.8582
 9466SOL     OW28787   5.593   3.815   2.232 -0.1152 -0.7687  0.3312
 9466SOL    HW128788   5.522   3.751   2.238  0.9382 -2.0401 -0.2691
 9466SOL    HW228789   5.672   3.766   2.255  0.7782  0.1956 -0.5768
 9467SOL     OW28790   3.583   1.997   0.883  0.0314 -0.3649  0.5850
 9467SOL    HW128791   3.638   2.036   0.951 -0.3760  0.6079  0.3770
 9467SOL    HW228792   3.569   2.068   0.820 -2.3696 -0.2111  1.1761
 9468SOL     OW28793   2.173   6.748   3.579  0.1648  0.8542  0.2731
 9468SOL    HW128794   2.194   6.655   3.583 -1.8178  0.4094  1.5719
 9468SOL    HW228795   2.120   6.757   3.500 -1.2046  0.4925  1.1215
 9469SOL     OW28796   4.618   5.313   4.543 -0.5633  0.0462 -0.8737
 9469SOL    HW128797   4.544   5.317   4.603 -1.0371 -0.5590 -1.4020
 9469SOL    HW228798   4.645   5.221   4.544  0.8766  0.4476  0.1180
 9470SOL     OW28799   0.742   1.003   6.350  0.5830 -0.0322 -0.1429
 9470SOL    HW128800   0.681   1.076   6.341  0.9131  0.3314  0.5047
 9470SOL    HW228801   0.827   1.044   6.366  0.7841 -0.5514  0.1667
 9471SOL     OW28802   1.550   5.265   6.758 -0.7990  0.3527 -0.2226
 9471SOL    HW128803   1.556   5.253   6.663  0.7588  0.5685 -0.1728
 9471SOL    HW228804   1.625   5.320   6.780 -0.7381 -0.2699  1.2268
 9472SOL     OW28805   1.096   3.092   0.811  0.0256  1.0384  0.1067
 9472SOL    HW128806   1.139   3.165   0.768  0.6652  1.3935  1.2936
 9472SOL    HW228807   1.165   3.048   0.860 -0.4532 -0.0556 -0.1604
 9473SOL     OW28808   5.005   5.763   2.081  0.3979 -0.6817  0.7659
 9473SOL    HW128809   5.021   5.671   2.061 -0.0079 -0.7720  0.8497
 9473SOL    HW228810   5.074   5.810   2.034  0.5915 -1.0252  0.7040
 9474SOL     OW28811   4.811   5.305   0.124  0.2802 -0.2843  0.8492
 9474SOL    HW128812   4.773   5.389   0.098 -1.1036 -1.0241  0.3763
 9474SOL    HW228813   4.905   5.321   0.126  0.1035  1.0447 -0.1009
 9475SOL     OW28814   6.703   1.010   0.684 -0.4373  0.0613 -0.5754
 9475SOL    HW128815   6.734   0.945   0.748 -2.2696  1.7846  2.2955
 9475SOL    HW228816   6.764   1.084   0.694 -1.4143  0.8036  0.1361
 9476SOL     OW28817   1.268   3.994   1.838  0.7850 -0.3201  0.2957
 9476SOL    HW128818   1.289   4.016   1.747 -0.6683  0.7703  0.1847
 9476SOL    HW228819   1.326   3.921   1.859  1.3911 -0.3734 -1.3925
 9477SOL     OW28820   6.167   5.198   3.184  0.3421 -0.2309 -0.2872
 9477SOL    HW128821   6.132   5.118   3.145  0.7524 -0.4658 -0.1790
 9477SOL    HW228822   6.093   5.236   3.232  0.5588 -1.4052  1.0456
 9478SOL     OW28823   0.689   1.427   2.929 -0.1194  0.0573  0.0267
 9478SOL    HW128824   0.699   1.379   2.847 -1.3536  1.1354 -0.8108
 9478SOL    HW228825   0.724   1.514   2.910  0.2195  0.1140  0.8686
 9479SOL     OW28826   0.082   6.411   4.315 -0.0086  0.5901  0.0775
 9479SOL    HW128827   0.022   6.480   4.343 -1.3145 -1.1716  1.8826
 9479SOL    HW228828   0.158   6.419   4.372 -0.2977  0.3618  0.4990
 9480SOL     OW28829   2.390   1.306   0.589 -0.3594  0.2495  1.0668
 9480SOL    HW128830   2.406   1.297   0.683 -1.6750 -0.9038  1.1989
 9480SOL    HW228831   2.464   1.261   0.548 -0.1530  0.1398  1.5512
 9481SOL     OW28832   1.609   2.152   4.810  0.5078 -0.4467  0.3413
 9481SOL    HW128833   1.695   2.177   4.844  0.7547 -0.9497  0.0988
 9481SOL    HW228834   1.547   2.184   4.875  0.9336 -0.8694  0.9568
 9482SOL     OW28835   3.440   5.810   2.529 -0.2299 -0.1233  0.1763
 9482SOL    HW128836   3.456   5.838   2.619  0.5255 -0.0174  0.0106
 9482SOL    HW228837   3.512   5.751   2.509 -0.8082 -0.7384 -0.1079
 9483SOL     OW28838   0.205   6.629   3.753  0.2178 -0.4659 -0.3440
 9483SOL    HW128839   0.275   6.565   3.766  1.3407  0.8432  0.2977
 9483SOL    HW228840   0.161   6.635   3.838  0.1453 -0.3502 -0.3887
 9484SOL     OW28841   3.623   6.318   2.986 -0.4458 -0.5036  0.0851
 9484SOL    HW128842   3.611   6.388   2.921 -2.4944 -0.8478  0.0252
 9484SOL    HW228843   3.677   6.253   2.941 -0.8491 -0.1962 -0.8743
 9485SOL     OW28844   0.145   5.721   5.549 -0.1594 -0.3850  0.4579
 9485SOL    HW128845   0.105   5.793   5.501  0.8778  0.4169  0.7578
 9485SOL    HW228846   0.088   5.707   5.624  0.0064  0.6172  0.7851
 9486SOL     OW28847   4.498   2.477   2.515  0.0858 -0.3538  0.0042
 9486SOL    HW128848   4.518   2.510   2.427 -0.2165  1.1187  0.4740
 9486SOL    HW228849   4.436   2.539   2.551  1.3727 -0.0674  1.8557
 9487SOL     OW28850   1.717   0.647   4.243 -0.4086  0.6198  0.7413
 9487SOL    HW128851   1.712   0.599   4.326 -2.5009  0.8220  0.7805
 9487SOL    HW228852   1.756   0.585   4.182 -2.0568 -0.7869  1.0612
 9488SOL     OW28853   6.298   2.857   3.863 -0.7305  0.3744  0.1930
 9488SOL    HW128854   6.286   2.762   3.862 -0.8993  0.3716  1.2004
 9488SOL    HW228855   6.265   2.886   3.779 -2.0088 -0.3168  0.4270
 9489SOL     OW28856   5.864   3.591   4.479 -0.2951  0.7129 -0.3552
 9489SOL    HW128857   5.807   3.616   4.552 -1.8165 -0.3642 -1.0970
 9489SOL    HW228858   5.812   3.610   4.401  0.2696 -0.4868 -1.0543
 9490SOL     OW28859   3.380   4.553   5.179  0.0044  0.2160  0.1796
 9490SOL    HW128860   3.460   4.501   5.168 -0.6432 -0.8489  0.4429
 9490SOL    HW228861   3.392   4.597   5.263 -0.1796 -0.8485  0.7780
 9491SOL     OW28862   2.413   6.085   2.247  0.3919  0.1690  0.0404
 9491SOL    HW128863   2.387   6.162   2.298  1.3649  0.3653  0.2517
 9491SOL    HW228864   2.442   6.120   2.163  1.6317  0.1307  0.4306
 9492SOL     OW28865   0.104   1.469   0.772 -0.1841 -0.3514  0.5515
 9492SOL    HW128866   0.029   1.511   0.813  0.3198  0.2011  0.9185
 9492SOL    HW228867   0.131   1.529   0.702 -1.0067 -1.2629 -0.5935
 9493SOL     OW28868   5.463   3.006   2.713  0.3889  0.3789 -0.0284
 9493SOL    HW128869   5.457   3.092   2.670  2.5016 -0.1678 -1.6120
 9493SOL    HW228870   5.556   2.997   2.734  0.3381 -1.7885 -0.5087
 9494SOL     OW28871   0.733   0.415   1.003 -0.2070  0.2356  0.2291
 9494SOL    HW128872   0.673   0.340   1.006  0.4066 -0.2511  0.7829
 9494SOL    HW228873   0.816   0.380   1.037 -0.1261  1.3866  1.2772
 9495SOL     OW28874   2.113   5.391   3.857 -0.7678  0.5098  0.0629
 9495SOL    HW128875   2.089   5.300   3.842  0.1598  0.1304  0.7952
 9495SOL    HW228876   2.158   5.391   3.942  0.9272  1.3222 -0.7702
 9496SOL     OW28877   4.996   5.100   6.723  0.0133 -0.2820 -0.0642
 9496SOL    HW128878   4.957   5.164   6.664 -0.5386 -0.7112 -0.1793
 9496SOL    HW228879   5.041   5.038   6.666  0.2756 -0.1752  0.0258
 9497SOL     OW28880   0.509   1.522   6.720  0.1931 -0.4284 -0.7761
 9497SOL    HW128881   0.440   1.493   6.660 -1.6489 -0.3173  1.1863
 9497SOL    HW228882   0.516   1.616   6.705 -1.1427 -0.1860  0.0048
 9498SOL     OW28883   4.034   4.977   6.131 -0.6074 -0.0261  0.0435
 9498SOL    HW128884   4.071   4.998   6.045  1.1225 -3.4320 -0.1993
 9498SOL    HW228885   4.091   5.024   6.193  1.1046 -1.1994 -0.5628
 9499SOL     OW28886   0.671   0.458   3.204  0.5024 -0.1764  0.1350
 9499SOL    HW128887   0.652   0.552   3.200  1.0269 -0.0947 -0.7916
 9499SOL    HW228888   0.694   0.441   3.295 -0.9903  0.3092  0.6332
 9500SOL     OW28889   3.161   1.782   1.475 -0.0253  0.4035  0.5761
 9500SOL    HW128890   3.085   1.828   1.511 -0.8268  0.8668 -1.5371
 9500SOL    HW228891   3.124   1.709   1.426  1.1912 -2.2287  3.2474
 9501SOL     OW28892   6.256   4.671   2.262  0.0686 -0.0146  0.1502
 9501SOL    HW128893   6.319   4.716   2.317  0.0757  0.2383 -0.0616
 9501SOL    HW228894   6.177   4.725   2.267 -0.6314 -1.1097  1.6019
 9502SOL     OW28895   0.698   0.477   2.447 -1.0755 -0.1106  0.3602
 9502SOL    HW128896   0.691   0.424   2.368  1.0258  0.3902 -0.2223
 9502SOL    HW228897   0.628   0.542   2.438 -1.2275 -0.4194 -0.7928
 9503SOL     OW28898   2.080   4.031   4.532 -0.5820 -0.1633 -0.1144
 9503SOL    HW128899   2.099   3.971   4.604  0.5284 -0.0715 -0.3217
 9503SOL    HW228900   2.095   3.980   4.453 -1.9470 -0.3096 -0.2990
 9504SOL     OW28901   4.762   0.283   0.113 -0.1046  0.0745  0.1065
 9504SOL    HW128902   4.820   0.208   0.119 -0.7814 -0.4866 -0.3028
 9504SOL    HW228903   4.813   0.350   0.069  0.1274 -0.5182 -0.5299
 9505SOL     OW28904   3.130   2.891   2.458  0.0234  0.3112  0.1296
 9505SOL    HW128905   3.162   2.803   2.440  0.2362  1.0039 -3.6056
 9505SOL    HW228906   3.208   2.947   2.454 -0.0240  0.7137  2.9609
 9506SOL     OW28907   1.630   6.349   1.686 -0.0545 -0.2915  0.0622
 9506SOL    HW128908   1.619   6.255   1.670 -0.8238 -0.2310  0.2152
 9506SOL    HW228909   1.659   6.384   1.602  2.8702 -1.0401  0.6157
 9507SOL     OW28910   2.733   4.837   1.802  0.0556  0.7414 -0.4486
 9507SOL    HW128911   2.771   4.925   1.801  1.1934  0.2762  0.4661
 9507SOL    HW228912   2.726   4.815   1.894  2.3778 -1.2019 -0.6324
 9508SOL     OW28913   2.979   2.686   4.422 -0.5213  0.1952 -0.2286
 9508SOL    HW128914   3.033   2.690   4.343 -1.6992 -0.5404 -1.1060
 9508SOL    HW228915   2.943   2.774   4.432  0.8041  0.6923  0.3655
 9509SOL     OW28916   6.506   2.986   6.385 -0.0822 -0.4557  0.2377
 9509SOL    HW128917   6.480   2.894   6.384  0.9797 -0.7814 -1.5078
 9509SOL    HW228918   6.590   2.988   6.339 -0.6105  1.5152 -0.7651
 9510SOL     OW28919   6.414   3.189   6.067  0.1060 -0.2052 -1.1044
 9510SOL    HW128920   6.406   3.284   6.054  0.9939  0.1793  0.8811
 9510SOL    HW228921   6.497   3.166   6.025  1.7153  0.5849  1.4532
 9511SOL     OW28922   3.587   4.072   5.342 -0.2532 -0.2298  0.2273
 9511SOL    HW128923   3.618   4.082   5.253  1.2402  0.3893  0.7873
 9511SOL    HW228924   3.517   4.007   5.336 -0.0022 -0.3920 -1.3374
 9512SOL     OW28925   1.622   2.248   2.849  0.2382 -0.1223  0.3995
 9512SOL    HW128926   1.600   2.182   2.914  0.7800 -2.7154 -1.8577
 9512SOL    HW228927   1.687   2.206   2.793  0.9853  2.5425 -0.9108
 9513SOL     OW28928   5.224   0.171   1.217  0.0600 -0.1971 -0.2238
 9513SOL    HW128929   5.151   0.118   1.185 -1.0027 -0.4100  2.3269
 9513SOL    HW228930   5.289   0.108   1.247 -0.3208 -0.0864  0.8956
 9514SOL     OW28931   1.781   3.946   5.738  0.3966  0.1660  0.4464
 9514SOL    HW128932   1.847   3.985   5.796  0.9084 -0.7052  0.4695
 9514SOL    HW228933   1.804   3.977   5.651  0.1138  0.8217  0.5974
 9515SOL     OW28934   4.142   0.061   5.000 -0.0188  0.2760 -0.1662
 9515SOL    HW128935   4.198   0.059   5.078 -2.1469 -0.6377  1.4639
 9515SOL    HW228936   4.148  -0.027   4.964 -1.2309 -0.1989  0.7130
 9516SOL     OW28937   6.787   2.784   2.992  0.1663 -0.0029 -0.4350
 9516SOL    HW128938   6.789   2.748   2.903  0.9495 -0.2780 -0.3136
 9516SOL    HW228939   6.868   2.834   2.999  0.2389 -0.2120  0.2198
 9517SOL     OW28940   2.177   5.039   5.822 -0.3120 -0.3970 -0.2186
 9517SOL    HW128941   2.146   5.086   5.900  0.5363  2.2446 -1.3568
 9517SOL    HW228942   2.097   5.014   5.776 -0.8032 -0.1008  0.4474
 9518SOL     OW28943   4.199   3.458   1.856 -0.3048 -0.1006 -0.3726
 9518SOL    HW128944   4.170   3.371   1.882 -1.2371 -0.2549 -1.7954
 9518SOL    HW228945   4.269   3.480   1.917 -0.6731 -1.4642  0.5701
 9519SOL     OW28946   2.643   0.491   0.613  0.0661  0.2643 -0.3386
 9519SOL    HW128947   2.625   0.575   0.570 -0.0164  0.8198  0.7374
 9519SOL    HW228948   2.567   0.437   0.595  0.4166  0.1706 -1.6117
 9520SOL     OW28949   0.939   1.116   1.716 -0.0674  0.3239  0.2721
 9520SOL    HW128950   0.864   1.082   1.667  1.8438 -2.4793 -0.9751
 9520SOL    HW228951   0.957   1.048   1.782  1.2817  1.0171  0.6536
 9521SOL     OW28952   6.426   6.572   1.537  0.4147 -0.4153 -0.5923
 9521SOL    HW128953   6.456   6.585   1.447 -0.0477  0.6158 -0.6203
 9521SOL    HW228954   6.439   6.657   1.579 -2.2219  0.0853 -0.5766
 9522SOL     OW28955   3.566   0.658   5.474  0.3501  0.0067 -0.3011
 9522SOL    HW128956   3.592   0.596   5.543  0.6894  0.5225  0.0349
 9522SOL    HW228957   3.555   0.603   5.396 -1.0558 -0.7577  0.3825
 9523SOL     OW28958   3.111   4.154   5.374  0.0321  0.6599 -0.1619
 9523SOL    HW128959   3.082   4.151   5.465  1.7389 -0.6588  0.3951
 9523SOL    HW228960   3.103   4.064   5.343  3.4357  0.1577  0.0763
 9524SOL     OW28961   3.795   6.361   1.688 -0.1262  1.0191 -0.7985
 9524SOL    HW128962   3.732   6.378   1.618 -1.2265  1.2854  0.2383
 9524SOL    HW228963   3.753   6.392   1.767  1.4953  1.6198 -0.1225
 9525SOL     OW28964   1.833   5.989   3.463  0.1860  0.6677  0.0230
 9525SOL    HW128965   1.814   6.073   3.423 -1.0374  0.1937 -0.4207
 9525SOL    HW228966   1.872   5.937   3.393  1.7789  1.1270  0.5255
 9526SOL     OW28967   3.383   4.420   5.581 -0.7544  0.2779  0.1911
 9526SOL    HW128968   3.303   4.381   5.616  0.9853 -1.7173  2.2263
 9526SOL    HW228969   3.440   4.345   5.564  1.2037  1.7122  0.1604
 9527SOL     OW28970   4.201   4.621   1.408 -0.5896  0.0914  0.1119
 9527SOL    HW128971   4.159   4.707   1.407 -1.1212 -0.1681 -0.0828
 9527SOL    HW228972   4.280   4.632   1.355 -1.7621 -0.0968 -1.7266
 9528SOL     OW28973   3.236   5.880   6.246 -0.6599  0.2077 -0.9467
 9528SOL    HW128974   3.176   5.913   6.313  0.0009  0.2209 -0.3512
 9528SOL    HW228975   3.323   5.891   6.284 -0.1293  1.7679 -2.4695
 9529SOL     OW28976   1.529   5.327   5.680 -0.1274 -0.0763 -0.8895
 9529SOL    HW128977   1.453   5.371   5.718  0.6283 -0.5121  1.3108
 9529SOL    HW228978   1.561   5.387   5.613  0.9171  2.9731  2.0161
 9530SOL     OW28979   0.976   0.220   0.201  0.3758 -0.2301  0.6169
 9530SOL    HW128980   0.961   0.299   0.253 -1.0216 -1.5408  2.3619
 9530SOL    HW228981   1.024   0.162   0.260 -0.7753 -1.5705  0.2855
 9531SOL     OW28982   3.331   6.744   4.344 -0.0646 -0.5604 -0.2167
 9531SOL    HW128983   3.417   6.783   4.329 -0.2806  0.3502  0.7917
 9531SOL    HW228984   3.294   6.733   4.256 -0.2480  2.1572 -0.5633
 9532SOL     OW28985   3.313   0.944   1.502  0.0286  0.0527  0.2022
 9532SOL    HW128986   3.380   0.973   1.563  0.3342 -1.1627  0.4695
 9532SOL    HW228987   3.341   0.857   1.475 -0.7492  0.0692 -0.7191
 9533SOL     OW28988   0.918   5.897   4.568  0.2339 -0.0312 -0.1837
 9533SOL    HW128989   0.843   5.838   4.576  0.0111  0.5271  2.8597
 9533SOL    HW228990   0.893   5.958   4.498 -2.2455  0.1868  0.7860
 9534SOL     OW28991   0.536   6.222   5.956  0.0042  0.0743  0.2276
 9534SOL    HW128992   0.592   6.145   5.967  0.7518  0.8064  1.8846
 9534SOL    HW228993   0.555   6.277   6.032 -2.9599  0.3727  0.8561
 9535SOL     OW28994   4.136   4.468   4.707 -0.0962 -0.1068 -0.3144
 9535SOL    HW128995   4.199   4.482   4.778 -0.3687  1.2975 -0.3306
 9535SOL    HW228996   4.105   4.378   4.721  0.7650 -0.2838  0.6029
 9536SOL     OW28997   6.025   6.093   4.503 -0.0048 -0.2178  0.3427
 9536SOL    HW128998   6.095   6.151   4.532 -0.3479  1.4413 -1.8705
 9536SOL    HW228999   5.967   6.086   4.579  2.3216 -1.3863  2.1093
 9537SOL     OW29000   5.257   4.866   0.146 -0.5746  0.5388  0.2494
 9537SOL    HW129001   5.302   4.795   0.101 -2.4307  0.0970 -1.0487
 9537SOL    HW229002   5.176   4.825   0.178 -2.0386  2.1717 -1.1660
 9538SOL     OW29003   0.094   4.479   6.769  0.6566 -0.0759  0.5094
 9538SOL    HW129004   0.138   4.561   6.747  1.9931 -1.2376 -1.4858
 9538SOL    HW229005   0.083   4.482   6.864 -0.8674  3.1026  0.3722
 9539SOL     OW29006   6.012   3.440   0.361  0.5535 -0.1829 -0.1057
 9539SOL    HW129007   5.919   3.464   0.369 -0.2328 -2.6815 -0.9158
 9539SOL    HW229008   6.012   3.345   0.359  3.3496 -0.3428  1.7894
 9540SOL     OW29009   1.379   2.126   1.021 -0.1988 -0.1159 -0.3203
 9540SOL    HW129010   1.365   2.045   0.971  0.6042 -0.7273  0.3977
 9540SOL    HW229011   1.386   2.096   1.112 -0.8001  0.8791  0.0587
 9541SOL     OW29012   4.113   1.814   5.261 -0.2176 -0.8870  0.0706
 9541SOL    HW129013   4.173   1.762   5.315 -0.2322 -1.1736 -0.1817
 9541SOL    HW229014   4.073   1.877   5.322 -0.4518 -1.3967  0.4546
 9542SOL     OW29015   2.654   1.129   5.611  0.2783  0.2731 -0.3402
 9542SOL    HW129016   2.706   1.063   5.565  0.1919  1.4476 -2.2063
 9542SOL    HW229017   2.580   1.080   5.646  1.6911 -1.1156  0.8831
 9543SOL     OW29018   2.473   0.478   3.144 -0.2535  0.1439 -0.2457
 9543SOL    HW129019   2.393   0.428   3.163  0.1464 -0.0909  0.9135
 9543SOL    HW229020   2.534   0.413   3.109 -0.1057  0.0349  0.2072
 9544SOL     OW29021   1.131   2.735   6.455 -0.3006 -0.1328 -0.3651
 9544SOL    HW129022   1.132   2.693   6.541 -0.1615 -0.0151 -0.3089
 9544SOL    HW229023   1.116   2.828   6.474 -0.7071 -0.1665 -0.4937
 9545SOL     OW29024   3.146   1.434   0.234  0.0267  0.1657 -0.3458
 9545SOL    HW129025   3.070   1.476   0.273 -0.8437  1.8512 -3.4893
 9545SOL    HW229026   3.110   1.364   0.180  0.9033 -0.3362 -0.2995
 9546SOL     OW29027   4.849   0.726   0.543  1.0672  0.4763  0.1663
 9546SOL    HW129028   4.844   0.766   0.457  0.9527 -0.0175 -0.0604
 9546SOL    HW229029   4.862   0.633   0.526  1.2924  0.4067  0.6844
 9547SOL     OW29030   5.351   2.858   2.061  0.8452  0.4253 -0.1532
 9547SOL    HW129031   5.293   2.784   2.073  0.4427  0.3371 -2.2794
 9547SOL    HW229032   5.303   2.933   2.098  1.4803 -0.3487  2.4952
 9548SOL     OW29033   3.572   2.336   6.375 -0.9896  0.2112 -0.3381
 9548SOL    HW129034   3.563   2.378   6.460 -0.4354  0.6707 -0.5026
 9548SOL    HW229035   3.567   2.408   6.312  1.2084  0.2093 -0.5660
 9549SOL     OW29036   2.920   1.175   6.100  0.2330 -0.3806 -0.3399
 9549SOL    HW129037   2.972   1.241   6.147  1.1184  0.1696 -1.9889
 9549SOL    HW229038   2.829   1.197   6.120  0.4799  1.7490 -1.2857
 9550SOL     OW29039   0.157   3.425   1.835 -0.2627 -0.6150 -0.4863
 9550SOL    HW129040   0.084   3.459   1.784 -0.6580  0.2514  0.6323
 9550SOL    HW229041   0.124   3.419   1.924  0.8583 -0.7524 -0.0618
 9551SOL     OW29042   6.434   6.372   2.102  0.2045 -0.4216 -0.3472
 9551SOL    HW129043   6.523   6.349   2.127  0.2064 -2.2149 -1.8096
 9551SOL    HW229044   6.406   6.435   2.168  1.5933 -1.8655  1.7273
 9552SOL     OW29045   6.497   5.395   5.525 -0.4377 -0.7008 -0.8967
 9552SOL    HW129046   6.406   5.365   5.526 -0.4922 -0.5310 -0.0705
 9552SOL    HW229047   6.549   5.316   5.508 -0.6656 -1.0285 -0.1154
 9553SOL     OW29048   1.366   4.704   4.846  0.5245  0.3076  0.0167
 9553SOL    HW129049   1.299   4.768   4.821  0.2245 -1.1615 -3.5234
 9553SOL    HW229050   1.431   4.708   4.776  0.1109 -3.6659 -0.8237
 9554SOL     OW29051   3.264   5.691   0.418 -0.4728  0.1754 -0.2426
 9554SOL    HW129052   3.355   5.681   0.448 -1.1818 -1.1234  1.6643
 9554SOL    HW229053   3.239   5.778   0.449 -0.2504  0.0415  0.3254
 9555SOL     OW29054   1.678   6.393   3.178  0.1912  0.1078  0.4222
 9555SOL    HW129055   1.678   6.409   3.083  0.2455  0.0423  0.4107
 9555SOL    HW229056   1.648   6.475   3.216  0.9659  0.4155  0.3968
 9556SOL     OW29057   2.774   1.918   6.266 -0.2643  0.0788 -0.0081
 9556SOL    HW129058   2.806   1.998   6.309 -0.4692  1.1840 -1.7877
 9556SOL    HW229059   2.848   1.887   6.215 -0.5866 -0.0785 -0.3896
 9557SOL     OW29060   3.491   0.857   2.977  0.8326  0.7716  0.0947
 9557SOL    HW129061   3.467   0.807   2.899  0.9391  1.7072 -0.5498
 9557SOL    HW229062   3.436   0.821   3.047  0.3056  0.3289 -0.5440
 9558SOL     OW29063   5.421   0.943   3.904 -0.2197  0.4881 -0.2519
 9558SOL    HW129064   5.438   0.859   3.948 -0.4453  1.0179  0.8778
 9558SOL    HW229065   5.442   0.926   3.812  0.6319 -0.5550  0.1041
 9559SOL     OW29066   3.464   2.050   2.024  0.0569  0.0855  0.1139
 9559SOL    HW129067   3.535   1.993   1.995 -0.6695  0.6957 -3.3076
 9559SOL    HW229068   3.386   1.995   2.020 -0.4179  0.8213 -1.7023
 9560SOL     OW29069   2.736   0.038   2.457  0.3035  0.1738 -0.1473
 9560SOL    HW129070   2.719   0.036   2.363  4.8800  0.6504 -1.2308
 9560SOL    HW229071   2.779  -0.045   2.475  0.7586  0.6843  1.2257
 9561SOL     OW29072   1.022   0.482   4.942  0.0120  0.2513  0.1846
 9561SOL    HW129073   1.039   0.569   4.904  0.2981 -1.0175 -2.8746
 9561SOL    HW229074   0.933   0.461   4.914  0.1244 -0.6421  0.4636
 9562SOL     OW29075   3.067   2.115   1.823  0.1774  0.0056  0.0450
 9562SOL    HW129076   3.108   2.200   1.808  0.0600 -0.2914 -2.2426
 9562SOL    HW229077   3.040   2.085   1.737 -4.2240 -0.1749  1.2469
 9563SOL     OW29078   3.294   4.483   3.062  0.4079  0.5232 -0.4492
 9563SOL    HW129079   3.238   4.502   2.987 -0.8521 -2.3272 -0.3619
 9563SOL    HW229080   3.351   4.559   3.070 -0.9646  1.9044 -2.8626
 9564SOL     OW29081   3.847   2.541   3.882  0.6888  0.2325  0.2795
 9564SOL    HW129082   3.832   2.578   3.794  0.8454 -0.5284 -0.0783
 9564SOL    HW229083   3.942   2.532   3.888  0.6572 -0.0216  0.3944
 9565SOL     OW29084   3.915   1.349   3.198 -0.2711  0.1578  0.5126
 9565SOL    HW129085   3.870   1.388   3.273  0.0528 -1.9342  1.8752
 9565SOL    HW229086   3.995   1.401   3.189 -0.7708  1.0423  0.9733
 9566SOL     OW29087   6.528   1.296   1.732  0.2254 -0.4336 -0.3941
 9566SOL    HW129088   6.580   1.273   1.655  2.2592  1.2607  0.3682
 9566SOL    HW229089   6.468   1.364   1.702  0.3748 -0.4322 -0.6898
 9567SOL     OW29090   3.564   0.630   2.376 -0.1008  0.0173  0.1406
 9567SOL    HW129091   3.633   0.618   2.441 -0.5000  0.4136  0.6458
 9567SOL    HW229092   3.611   0.641   2.293  0.3832 -3.5302 -0.2215
 9568SOL     OW29093   5.504   2.394   0.740 -0.4070  0.0484  0.0302
 9568SOL    HW129094   5.461   2.476   0.763 -1.0852 -0.2890 -0.0071
 9568SOL    HW229095   5.575   2.385   0.803 -0.7972  0.2898  0.5081
 9569SOL     OW29096   0.547   0.551   2.129 -0.2449 -0.6194 -0.2150
 9569SOL    HW129097   0.594   0.632   2.110  0.3416 -0.9823 -0.3044
 9569SOL    HW229098   0.504   0.528   2.046 -3.3570  1.4698  0.6263
 9570SOL     OW29099   5.949   3.972   0.252 -0.4277  0.0583  0.1900
 9570SOL    HW129100   5.905   3.934   0.329  2.4622  1.3234  2.6867
 9570SOL    HW229101   5.991   3.899   0.209 -1.1216 -0.5263  0.4783
 9571SOL     OW29102   4.767   5.840   1.778 -0.2266 -0.1447 -0.4723
 9571SOL    HW129103   4.840   5.829   1.840 -0.9259  0.7787  0.5569
 9571SOL    HW229104   4.778   5.928   1.743  0.3630 -0.7914 -1.9635
 9572SOL     OW29105   1.554   1.453   3.814 -0.0304  0.1167 -0.0920
 9572SOL    HW129106   1.544   1.528   3.756  0.4018 -1.0924 -1.7957
 9572SOL    HW229107   1.648   1.447   3.830  0.1175 -0.8771 -1.1608
 9573SOL     OW29108   2.065   5.939   0.756 -0.1919 -0.5794  0.3226
 9573SOL    HW129109   2.158   5.932   0.735  0.1571 -2.1888  2.1130
 9573SOL    HW229110   2.023   5.870   0.705 -0.2332 -0.5986  0.3823
 9574SOL     OW29111   3.798   3.263   6.289 -0.2640  0.0458  0.4252
 9574SOL    HW129112   3.802   3.177   6.248  0.6236 -0.2661  1.1550
 9574SOL    HW229113   3.754   3.318   6.224 -1.3734 -1.0777  0.1917
 9575SOL     OW29114   2.695   6.186   2.344  0.0360 -0.1344 -0.6129
 9575SOL    HW129115   2.680   6.264   2.397  2.4950  0.7400 -1.1020
 9575SOL    HW229116   2.643   6.118   2.388  1.4471  0.6717  2.6192
 9576SOL     OW29117   0.770   6.367   0.594  0.2059 -0.7096  0.4581
 9576SOL    HW129118   0.719   6.435   0.639  0.1539  0.5790 -1.4603
 9576SOL    HW229119   0.704   6.305   0.562 -0.1121  0.3938 -1.0987
 9577SOL     OW29120   0.885   2.307   4.463  0.0187  0.2760  0.0140
 9577SOL    HW129121   0.915   2.321   4.374 -1.7818  1.2667 -0.4823
 9577SOL    HW229122   0.834   2.226   4.460  0.0444  0.2521  0.1701
 9578SOL     OW29123   0.213   1.092   1.520  0.2973  0.1318 -0.3697
 9578SOL    HW129124   0.126   1.087   1.479 -1.7866 -3.6448  3.6813
 9578SOL    HW229125   0.201   1.152   1.593  0.5258 -1.6250  1.1569
 9579SOL     OW29126   2.273   0.454   2.908 -0.5393 -0.2338  0.7465
 9579SOL    HW129127   2.257   0.522   2.974 -1.4807 -0.4558  0.7563
 9579SOL    HW229128   2.337   0.494   2.849  1.4397 -0.5613  2.5676
 9580SOL     OW29129   6.483   5.568   4.414 -0.2420  0.2212  0.3361
 9580SOL    HW129130   6.449   5.580   4.503 -2.5389 -1.6415 -0.1931
 9580SOL    HW229131   6.555   5.506   4.424 -0.6857 -0.2241  0.8874
 9581SOL     OW29132   0.547   5.355   0.438  0.7239 -0.5601 -0.4142
 9581SOL    HW129133   0.492   5.424   0.400  2.8677  0.9535 -0.9829
 9581SOL    HW229134   0.492   5.314   0.505 -0.9331  1.1169 -0.6686
 9582SOL     OW29135   6.124   2.190   1.135 -0.0214 -0.6363 -0.3731
 9582SOL    HW129136   6.103   2.207   1.227 -1.4110 -1.5752 -0.4908
 9582SOL    HW229137   6.073   2.112   1.113 -0.2738 -0.0046 -2.1496
 9583SOL     OW29138   4.469   6.461   2.518  0.0628 -0.2899  0.4860
 9583SOL    HW129139   4.384   6.479   2.557  0.3532 -1.6338  1.8653
 9583SOL    HW229140   4.454   6.465   2.424 -2.3951 -3.6792  0.5141
 9584SOL     OW29141   1.535   4.890   3.298  0.6201 -0.0252 -0.4700
 9584SOL    HW129142   1.473   4.833   3.251 -1.3296  1.9327 -0.4451
 9584SOL    HW229143   1.548   4.964   3.240  0.6353  0.9546  0.7441
 9585SOL     OW29144   3.291   1.466   4.235 -0.1132 -0.0956  0.4508
 9585SOL    HW129145   3.298   1.412   4.156 -0.2178 -1.4535  1.3482
 9585SOL    HW229146   3.285   1.403   4.307  1.0984  1.1185  1.6616
 9586SOL     OW29147   3.790   2.408   2.007 -0.2063 -0.0888  0.4367
 9586SOL    HW129148   3.848   2.359   2.064  1.0261 -0.3387 -0.9609
 9586SOL    HW229149   3.717   2.435   2.063 -0.4339 -2.6315  1.4655
 9587SOL     OW29150   4.963   1.005   6.535 -0.2643 -0.3560 -0.1878
 9587SOL    HW129151   5.032   1.052   6.488 -1.0134 -0.7454 -1.7732
 9587SOL    HW229152   4.986   0.913   6.523 -1.8867 -0.5751 -2.2184
 9588SOL     OW29153   0.706   2.686   4.161  0.8325  0.6681  0.0344
 9588SOL    HW129154   0.704   2.743   4.085 -0.0591  2.0562  1.0417
 9588SOL    HW229155   0.653   2.610   4.137  1.3006  0.6659 -1.0159
 9589SOL     OW29156   6.519   4.334   6.478 -0.4535 -0.3861  0.2776
 9589SOL    HW129157   6.574   4.350   6.555  2.0822 -2.2408 -1.0179
 9589SOL    HW229158   6.503   4.421   6.442  2.6469  0.2368  0.1272
 9590SOL     OW29159   4.008   5.332   4.052 -0.2771  0.4344 -0.1936
 9590SOL    HW129160   3.960   5.339   3.970  0.5995 -1.9495 -0.9934
 9590SOL    HW229161   4.039   5.241   4.054 -1.4675 -0.0539  3.4576
 9591SOL     OW29162   1.854   1.444   0.293  0.3607  0.0809 -0.2388
 9591SOL    HW129163   1.869   1.528   0.250 -1.3305 -0.9196 -3.0389
 9591SOL    HW229164   1.760   1.444   0.314  0.5539 -0.7033  0.6839
 9592SOL     OW29165   4.319   5.924   1.709  0.2999 -0.1990  0.1172
 9592SOL    HW129166   4.376   5.892   1.779  1.0142  0.8641  0.0479
 9592SOL    HW229167   4.352   6.012   1.690  0.5935 -0.7053 -2.0238
 9593SOL     OW29168   2.846   4.396   5.523 -0.1302  0.7087  0.5253
 9593SOL    HW129169   2.837   4.482   5.483  0.2085 -0.1519 -1.5357
 9593SOL    HW229170   2.788   4.339   5.472  1.1926 -0.6888  0.5036
 9594SOL     OW29171   6.760   5.420   4.169  0.3706  0.3461  0.0676
 9594SOL    HW129172   6.728   5.408   4.080  1.4824  0.3895 -0.3471
 9594SOL    HW229173   6.747   5.513   4.187  0.9918  0.5252 -0.3919
 9595SOL     OW29174   4.165   5.728   0.291 -0.5225 -0.3425  0.5329
 9595SOL    HW129175   4.219   5.770   0.358 -0.9313 -0.9624  1.2779
 9595SOL    HW229176   4.168   5.635   0.313 -0.5717 -0.5708 -0.3917
 9596SOL     OW29177   2.670   5.550   2.260  0.4414  0.1650  0.1377
 9596SOL    HW129178   2.588   5.595   2.236  0.8030  0.9094  0.2585
 9596SOL    HW229179   2.689   5.581   2.349  1.0183  0.2488 -0.0096
 9597SOL     OW29180   0.920   6.606   1.204 -0.1992 -0.0062 -0.0223
 9597SOL    HW129181   0.863   6.531   1.191  0.2878 -0.0463 -2.3591
 9597SOL    HW229182   1.008   6.569   1.212 -0.0271  0.2748 -0.5732
 9598SOL     OW29183   6.545   4.917   6.140  0.3647  0.2250 -0.1924
 9598SOL    HW129184   6.605   4.944   6.210 -0.7318  1.1601  0.4418
 9598SOL    HW229185   6.458   4.923   6.181 -0.2050 -0.4935 -1.2594
 9599SOL     OW29186   5.283   3.707   0.200 -0.1219 -0.9683  0.3675
 9599SOL    HW129187   5.196   3.746   0.190 -0.2721 -1.4347 -0.2093
 9599SOL    HW229188   5.308   3.682   0.111  1.9856  2.0465 -0.0566
 9600SOL     OW29189   1.811   5.003   0.959 -0.1145 -0.3406  0.0018
 9600SOL    HW129190   1.854   4.931   1.005 -0.0955 -0.7050 -0.5732
 9600SOL    HW229191   1.856   5.007   0.875  0.3877  0.8379  0.3108
 9601SOL     OW29192   5.366   5.044   4.304 -0.4137  0.1974  0.1620
 9601SOL    HW129193   5.380   4.959   4.262 -0.7126 -0.7494  1.8874
 9601SOL    HW229194   5.331   5.100   4.235  1.7371 -0.4278 -1.5683
 9602SOL     OW29195   4.425   3.273   6.038 -0.0247 -0.0942 -0.3599
 9602SOL    HW129196   4.398   3.268   6.130  1.3145  1.2382  0.1512
 9602SOL    HW229197   4.359   3.329   5.997 -2.6252 -3.3913 -1.1168
 9603SOL     OW29198   2.221   4.362   0.362 -0.2237 -0.2741 -0.0950
 9603SOL    HW129199   2.308   4.342   0.395 -0.0288 -1.4748 -1.2753
 9603SOL    HW229200   2.225   4.455   0.338  1.1975 -0.6461 -1.4503
 9604SOL     OW29201   3.816   0.017   0.589 -0.2698 -0.0112 -0.0825
 9604SOL    HW129202   3.748  -0.049   0.577 -0.5609 -0.1077  1.7672
 9604SOL    HW229203   3.846   0.038   0.500 -0.2961 -2.4660 -0.7234
 9605SOL     OW29204   2.071   2.496   6.547  0.4108  0.0520  0.0833
 9605SOL    HW129205   1.978   2.495   6.571  0.1287  0.1126 -0.9279
 9605SOL    HW229206   2.116   2.526   6.626 -0.5637  1.2689  0.2218
 9606SOL     OW29207   4.041   0.428   4.085 -0.4808 -0.4232  0.2997
 9606SOL    HW129208   4.064   0.366   4.016  0.8410 -1.1386  1.3483
 9606SOL    HW229209   4.011   0.373   4.158 -0.4699  0.2331  0.8067
 9607SOL     OW29210   4.397   6.098   5.244  0.0353 -0.2130 -0.6542
 9607SOL    HW129211   4.362   6.126   5.159 -0.8948  2.9227  0.6259
 9607SOL    HW229212   4.338   6.028   5.272  0.8514 -1.9026 -2.8886
 9608SOL     OW29213   3.903   6.304   2.621 -0.0739 -0.1735 -0.1716
 9608SOL    HW129214   3.938   6.248   2.551 -0.3135 -1.5424  0.7554
 9608SOL    HW229215   3.863   6.378   2.575 -0.8180 -1.3646 -1.5319
 9609SOL     OW29216   2.026   6.308   2.973  0.0252  0.0031 -0.0766
 9609SOL    HW129217   1.976   6.386   2.995 -0.7205 -0.1922 -1.0236
 9609SOL    HW229218   2.066   6.327   2.889  0.4104 -0.3748  0.0155
 9610SOL     OW29219   5.791   1.210   2.984 -0.5434  0.4905  0.3737
 9610SOL    HW129220   5.787   1.126   2.938  2.2029  0.9189 -0.7860
 9610SOL    HW229221   5.703   1.220   3.021 -1.4769 -2.0616 -0.8868
 9611SOL     OW29222   3.723   1.116   1.261  0.4371  0.1680  0.1665
 9611SOL    HW129223   3.681   1.106   1.176 -0.1567  2.2065  0.1726
 9611SOL    HW229224   3.690   1.199   1.295  1.8640  0.1687  1.7005
 9612SOL     OW29225   6.430   5.239   3.893 -0.5263  0.1968 -0.1930
 9612SOL    HW129226   6.355   5.277   3.940 -1.9108 -2.5638  0.0388
 9612SOL    HW229227   6.457   5.165   3.947  0.7523 -0.3772 -1.5562
 9613SOL     OW29228   4.649   6.543   1.961  0.1690  0.1501  0.2688
 9613SOL    HW129229   4.683   6.532   1.872  2.3361 -1.5111  1.2169
 9613SOL    HW229230   4.721   6.516   2.018 -1.0710  1.4060  2.5678
 9614SOL     OW29231   0.870   4.807   4.557  0.0692  0.3164  0.3771
 9614SOL    HW129232   0.934   4.756   4.509  0.5131  1.6944 -0.5381
 9614SOL    HW229233   0.785   4.773   4.528  0.3385  0.7377 -0.9656
 9615SOL     OW29234   1.675   5.095   0.384 -0.1326 -0.4474 -0.3458
 9615SOL    HW129235   1.592   5.068   0.423 -0.7830 -0.4351 -1.6975
 9615SOL    HW229236   1.662   5.086   0.290  0.6684  1.5589 -0.7010
 9616SOL     OW29237   2.451   3.148   2.672 -0.3649  0.1630 -0.7154
 9616SOL    HW129238   2.435   3.180   2.584 -2.0764  0.8257 -0.2075
 9616SOL    HW229239   2.394   3.072   2.682  0.2264 -0.2457 -0.3585
 9617SOL     OW29240   3.998   3.826   4.470  0.2982  0.2062  0.5672
 9617SOL    HW129241   3.930   3.788   4.413  2.6738 -1.5399 -1.3116
 9617SOL    HW229242   4.028   3.752   4.523  0.8841  0.8933  1.2098
 9618SOL     OW29243   0.265   4.486   3.622 -0.8548  0.5079  0.3197
 9618SOL    HW129244   0.298   4.437   3.697  2.0375  0.3361 -0.9116
 9618SOL    HW229245   0.182   4.444   3.600 -0.3435 -1.3274  1.6528
 9619SOL     OW29246   1.666   3.008   6.542  0.3264 -0.3362  0.3494
 9619SOL    HW129247   1.572   3.019   6.528  0.3566 -1.1949 -0.6020
 9619SOL    HW229248   1.705   3.089   6.508 -0.0905  0.2490  1.2167
 9620SOL     OW29249   0.429   4.090   5.880 -0.2777 -0.0098  0.1549
 9620SOL    HW129250   0.480   4.029   5.933 -1.3646 -1.6165 -0.5538
 9620SOL    HW229251   0.351   4.041   5.855 -0.2734  0.9856 -2.1409
 9621SOL     OW29252   0.058   4.120   0.645 -0.0571 -0.7571  0.1550
 9621SOL    HW129253   0.079   4.150   0.733  0.3520  1.0092 -0.4889
 9621SOL    HW229254  -0.032   4.087   0.651 -0.0597 -0.5815  1.2111
 9622SOL     OW29255   2.284   2.807   3.757 -0.1458  0.8385  0.1142
 9622SOL    HW129256   2.288   2.793   3.852  0.4258  1.8837  0.2579
 9622SOL    HW229257   2.280   2.719   3.720  0.6492  0.3780  1.0657
 9623SOL     OW29258   1.848   0.854   3.497 -0.0257 -0.3052  0.0427
 9623SOL    HW129259   1.881   0.764   3.503  0.2688 -0.1306  1.2173
 9623SOL    HW229260   1.871   0.894   3.581 -1.3467  0.4694  0.0638
 9624SOL     OW29261   1.973   4.939   4.929 -0.3162 -0.3634 -0.2335
 9624SOL    HW129262   2.060   4.899   4.940 -0.1160  0.6453  2.3250
 9624SOL    HW229263   1.991   5.031   4.909 -0.6424  0.6143  3.2891
 9625SOL     OW29264   1.327   0.539   4.130  0.1613  0.2697 -0.1902
 9625SOL    HW129265   1.243   0.495   4.144 -0.7721  2.3801  1.1976
 9625SOL    HW229266   1.315   0.627   4.164  1.9498  1.6836 -2.8606
 9626SOL     OW29267   1.124   5.666   3.397 -0.1455 -0.3537  0.2753
 9626SOL    HW129268   1.197   5.721   3.366 -0.5728 -0.4206 -0.8865
 9626SOL    HW229269   1.053   5.728   3.414  0.0938 -0.3165  1.1466
 9627SOL     OW29270   5.908   5.384   4.623 -0.2504  0.3542 -0.3967
 9627SOL    HW129271   5.973   5.373   4.692  1.3740  1.1914 -1.7232
 9627SOL    HW229272   5.953   5.434   4.555 -1.6061 -0.9059 -2.3193
 9628SOL     OW29273   2.118   3.035   2.074 -0.3279 -0.1699  1.0650
 9628SOL    HW129274   2.056   2.980   2.123  0.6931  0.0929  2.7395
 9628SOL    HW229275   2.166   2.973   2.019 -0.9420 -0.5953  0.9925
 9629SOL     OW29276   6.367   3.127   1.485 -0.3703 -0.0375 -0.1404
 9629SOL    HW129277   6.450   3.081   1.473 -0.3879  0.2580 -1.4709
 9629SOL    HW229278   6.314   3.103   1.409 -0.0929  2.8009 -1.3496
 9630SOL     OW29279   1.098   4.424   6.041  0.0806 -0.3218 -0.3141
 9630SOL    HW129280   1.005   4.401   6.039  0.4119 -2.4675  2.4786
 9630SOL    HW229281   1.135   4.384   5.963 -0.8431 -2.3665  0.2239
 9631SOL     OW29282   0.702   1.562   5.169 -0.6651  0.1243 -0.6398
 9631SOL    HW129283   0.725   1.632   5.109 -0.2433  0.8140  0.3063
 9631SOL    HW229284   0.614   1.584   5.199 -1.1573 -0.5871 -1.5017
 9632SOL     OW29285   6.262   5.415   4.639 -0.2483 -0.1300 -0.8615
 9632SOL    HW129286   6.202   5.443   4.570 -0.7413  0.5588 -0.1689
 9632SOL    HW229287   6.309   5.494   4.665 -0.7983 -0.1618  0.2897
 9633SOL     OW29288   6.282   3.018   1.251  0.4471  0.1711  0.6292
 9633SOL    HW129289   6.230   3.049   1.176  0.4253  1.0476  0.9934
 9633SOL    HW229290   6.355   2.971   1.211 -0.4869 -0.8837  0.1056
 9634SOL     OW29291   6.162   2.313   5.500 -0.2307  0.4999  0.1711
 9634SOL    HW129292   6.172   2.310   5.595 -1.6056  0.0789  0.3254
 9634SOL    HW229293   6.186   2.402   5.476 -0.1307  0.6837  0.9418
 9635SOL     OW29294   2.114   2.302   2.196 -0.4785  0.3839  0.1092
 9635SOL    HW129295   2.191   2.295   2.141  0.4762 -0.2436  1.4695
 9635SOL    HW229296   2.049   2.244   2.155 -0.4562  1.3252 -1.3407
 9636SOL     OW29297   6.520   2.829   6.727 -0.1957 -0.1113 -0.4344
 9636SOL    HW129298   6.468   2.864   6.655 -2.1430 -1.7743  0.0682
 9636SOL    HW229299   6.491   2.738   6.735  0.6598 -0.2428  1.8261
 9637SOL     OW29300   0.151   4.806   4.481 -0.0114  0.3019 -0.2142
 9637SOL    HW129301   0.092   4.796   4.407  0.5521  1.1516 -0.7900
 9637SOL    HW229302   0.170   4.899   4.485  0.6591  0.1519  0.4675
 9638SOL     OW29303   4.684   2.944   3.124  0.2049 -0.3345  0.1160
 9638SOL    HW129304   4.774   2.943   3.093 -0.0874 -0.7376 -0.7523
 9638SOL    HW229305   4.635   2.989   3.056 -0.4591 -1.2919 -0.0599
 9639SOL     OW29306   6.160   3.543   2.689  0.3733 -0.1208  0.2985
 9639SOL    HW129307   6.244   3.565   2.648  0.9182  0.4603  1.6558
 9639SOL    HW229308   6.116   3.627   2.701 -0.0878 -0.3538  0.2589
 9640SOL     OW29309   1.629   3.405   6.108 -0.4672  0.1519  0.6139
 9640SOL    HW129310   1.680   3.450   6.176 -0.7060 -1.5988  2.0278
 9640SOL    HW229311   1.540   3.438   6.120 -0.0530  1.8302 -0.6433
 9641SOL     OW29312   0.443   2.965   0.185 -0.3545  0.5730  0.0523
 9641SOL    HW129313   0.500   3.032   0.222  0.6318 -1.2202  1.9852
 9641SOL    HW229314   0.387   3.012   0.123  2.3199  2.6249 -0.9652
 9642SOL     OW29315   6.137   0.471   6.665  0.3430 -0.5469  0.5309
 9642SOL    HW129316   6.221   0.442   6.630  1.3172 -0.1958  2.4506
 9642SOL    HW229317   6.081   0.394   6.659  0.4265 -0.4898 -1.7541
 9643SOL     OW29318   5.904   2.484   1.676 -0.0736 -0.4886 -0.3376
 9643SOL    HW129319   5.915   2.466   1.769 -0.5605 -1.7387 -0.5111
 9643SOL    HW229320   5.951   2.413   1.632 -0.0325 -0.0312 -1.0570
 9644SOL     OW29321   5.657   2.163   5.306 -0.6637  0.4861 -0.6353
 9644SOL    HW129322   5.618   2.083   5.342 -0.5576  0.1846 -1.1888
 9644SOL    HW229323   5.584   2.208   5.264 -1.1091  1.5560  1.1549
 9645SOL     OW29324   2.377   1.516   2.895  0.5948 -1.0437 -0.1247
 9645SOL    HW129325   2.317   1.453   2.935  0.2416 -1.3716 -1.1226
 9645SOL    HW229326   2.324   1.595   2.883  0.7953 -0.8320  0.3392
 9646SOL     OW29327   3.751   2.514   3.180  0.0722  0.1700 -0.7090
 9646SOL    HW129328   3.763   2.533   3.087  0.2121  0.7906 -0.5639
 9646SOL    HW229329   3.830   2.548   3.222  0.4092 -0.8783 -0.4670
 9647SOL     OW29330   3.045   3.720   4.364  0.2916  0.2093  1.0278
 9647SOL    HW129331   3.068   3.629   4.383 -1.1122 -0.5328 -0.5587
 9647SOL    HW229332   3.012   3.718   4.274 -3.0998  1.6418  2.0621
 9648SOL     OW29333   6.769   0.633   0.384 -0.4660 -0.1260  0.3714
 9648SOL    HW129334   6.770   0.537   0.393 -0.0353 -0.2277 -0.5538
 9648SOL    HW229335   6.688   0.661   0.426 -1.0995 -1.0073 -0.2169
 9649SOL     OW29336   6.583   5.594   1.435  0.4919  0.1621 -0.2876
 9649SOL    HW129337   6.605   5.685   1.455  1.2333 -0.0922  0.0956
 9649SOL    HW229338   6.513   5.600   1.370 -0.0185  1.0046  0.3162
 9650SOL     OW29339   1.391   3.494   2.185  0.6452  0.0829  0.3032
 9650SOL    HW129340   1.348   3.489   2.271  0.6586  0.8116  0.3568
 9650SOL    HW229341   1.371   3.411   2.143 -1.8719  0.8761 -0.1831
 9651SOL     OW29342   5.010   0.686   0.835 -0.1491  0.6016 -0.4083
 9651SOL    HW129343   5.025   0.593   0.822  0.5659  0.2759  2.0744
 9651SOL    HW229344   4.917   0.693   0.857 -0.1030  0.3872 -0.1318
 9652SOL     OW29345   6.298   6.553   0.406 -0.0978  0.1932 -0.3711
 9652SOL    HW129346   6.366   6.597   0.355 -0.8602  1.9452  0.0461
 9652SOL    HW229347   6.345   6.517   0.481  0.7195 -0.7272 -1.2787
 9653SOL     OW29348   0.387   2.238   4.500 -0.5732 -0.2650  0.4319
 9653SOL    HW129349   0.310   2.227   4.557 -0.5067 -0.8609  0.4199
 9653SOL    HW229350   0.431   2.153   4.504 -0.4851 -0.2664 -0.3960
 9654SOL     OW29351   6.146   1.305   1.011 -0.2107  0.0960  0.5773
 9654SOL    HW129352   6.192   1.254   0.944 -2.2379  0.4410 -1.2168
 9654SOL    HW229353   6.112   1.241   1.072  1.1538 -0.2776  0.9869
 9655SOL     OW29354   3.661   0.512   4.234  0.7580 -0.3687 -0.2398
 9655SOL    HW129355   3.636   0.602   4.258  0.2394 -1.0048  1.8415
 9655SOL    HW229356   3.736   0.493   4.290  1.2508 -1.0356 -1.1152
 9656SOL     OW29357   0.938   2.386   3.032 -0.2015 -0.6231  0.2517
 9656SOL    HW129358   1.014   2.328   3.020  0.2437  0.2111 -1.3298
 9656SOL    HW229359   0.931   2.433   2.949 -1.7194  0.2109  0.8127
 9657SOL     OW29360   5.706   1.843   4.778 -0.0902 -0.4178  0.1083
 9657SOL    HW129361   5.776   1.900   4.809 -2.0129  1.6848  0.8437
 9657SOL    HW229362   5.669   1.804   4.857 -0.4181 -0.6981 -0.1782
 9658SOL     OW29363   0.579   2.588   2.403 -0.0686  0.5487 -0.1876
 9658SOL    HW129364   0.510   2.539   2.358 -1.0558  1.9600 -0.2568
 9658SOL    HW229365   0.533   2.640   2.468  1.1334  0.1625  1.0057
 9659SOL     OW29366   6.060   3.988   0.532  0.5184 -0.1582 -0.0351
 9659SOL    HW129367   5.969   4.018   0.533  0.3806 -0.6002  0.8577
 9659SOL    HW229368   6.099   4.036   0.458 -0.3756  0.1914 -0.3008
 9660SOL     OW29369   3.802   3.272   0.972 -0.1725  0.9851  0.5688
 9660SOL    HW129370   3.849   3.214   1.031 -1.5462 -0.2471  0.5209
 9660SOL    HW229371   3.716   3.231   0.962  0.4795  0.1787 -3.6133
 9661SOL     OW29372   2.642   6.516   5.677 -0.9014  0.4096  0.3634
 9661SOL    HW129373   2.704   6.586   5.659 -0.5434 -0.1193 -0.5100
 9661SOL    HW229374   2.592   6.547   5.752 -1.2466  1.9126 -0.4562
 9662SOL     OW29375   3.039   6.583   0.854  0.3885 -0.0526  0.1880
 9662SOL    HW129376   3.009   6.636   0.927  1.2497  0.4528  0.1887
 9662SOL    HW229377   3.053   6.495   0.891 -1.1833 -0.3366  0.1507
 9663SOL     OW29378   1.394   0.161   5.106  0.6657  0.4752 -0.7084
 9663SOL    HW129379   1.342   0.169   5.025  1.5327  0.4843 -1.2725
 9663SOL    HW229380   1.365   0.078   5.144 -1.3494  1.4885  0.1431
 9664SOL     OW29381   1.703   3.036   2.046 -0.1005  0.3201 -0.2633
 9664SOL    HW129382   1.686   2.998   1.960 -0.5952 -0.3386  0.1201
 9664SOL    HW229383   1.647   2.987   2.106 -1.4140  2.1917  0.1455
 9665SOL     OW29384   3.327   2.722   5.806 -0.6099  0.0997 -0.0447
 9665SOL    HW129385   3.239   2.687   5.819 -0.2643 -0.1616  1.9619
 9665SOL    HW229386   3.317   2.817   5.808 -0.7409  0.0841  1.4421
 9666SOL     OW29387   6.287   1.352   2.893  0.7132 -0.6895 -0.1375
 9666SOL    HW129388   6.356   1.359   2.959 -0.4966 -1.5301  1.2819
 9666SOL    HW229389   6.226   1.288   2.929 -1.8255  1.4068 -0.3965
 9667SOL     OW29390   5.820   1.003   6.203 -0.3333 -0.4282 -0.3482
 9667SOL    HW129391   5.882   1.074   6.219 -0.1833 -0.7353  0.5222
 9667SOL    HW229392   5.751   1.017   6.268  0.9246 -2.4531  1.5943
 9668SOL     OW29393   4.671   6.507   5.774  0.1633 -0.0909  0.1310
 9668SOL    HW129394   4.672   6.581   5.713  2.1329 -0.7970 -0.7762
 9668SOL    HW229395   4.614   6.536   5.846 -0.9534  1.3857 -1.2604
 9669SOL     OW29396   5.561   2.824   3.332  0.3711  0.7200 -0.2694
 9669SOL    HW129397   5.540   2.792   3.244  0.3900  0.0155 -0.0286
 9669SOL    HW229398   5.582   2.916   3.320  3.5240 -0.0362 -1.5026
 9670SOL     OW29399   2.105   2.095   1.619  0.2798  0.1228 -0.1554
 9670SOL    HW129400   2.152   2.104   1.702  0.3852  1.3356 -0.3293
 9670SOL    HW229401   2.032   2.155   1.626 -1.6876 -2.1689  0.3604
 9671SOL     OW29402   6.694   3.167   5.313 -0.5214  0.3318 -0.6591
 9671SOL    HW129403   6.773   3.113   5.310  0.3877  1.6566 -1.4322
 9671SOL    HW229404   6.641   3.136   5.240  0.5215  1.2222 -1.8324
 9672SOL     OW29405   6.133   0.419   2.105 -0.1925  0.5867 -0.2881
 9672SOL    HW129406   6.143   0.405   2.200 -0.5564  0.6394 -0.2404
 9672SOL    HW229407   6.178   0.502   2.088 -1.5264  1.4255  0.1205
 9673SOL     OW29408   5.386   4.635   0.631  0.3067 -0.5637  0.0428
 9673SOL    HW129409   5.458   4.693   0.606 -0.7567  0.2308 -1.3926
 9673SOL    HW229410   5.414   4.595   0.713  0.9880  2.2234  1.2975
 9674SOL     OW29411   5.288   1.772   1.599  1.1050 -0.1988 -0.2481
 9674SOL    HW129412   5.329   1.729   1.524 -0.5584 -0.8050 -0.8633
 9674SOL    HW229413   5.361   1.799   1.654  2.4073  0.5204 -2.2033
 9675SOL     OW29414   4.865   0.204   5.083 -0.6249  0.1168  0.5605
 9675SOL    HW129415   4.957   0.223   5.063 -0.4477  0.8216  1.9392
 9675SOL    HW229416   4.860   0.108   5.080  0.2547  0.0456  0.8864
 9676SOL     OW29417   5.727   5.232   0.909 -0.3488  0.3480  0.3853
 9676SOL    HW129418   5.672   5.265   0.979  0.3654 -0.9548  1.6099
 9676SOL    HW229419   5.776   5.160   0.948 -0.4946 -0.9621 -1.6641
 9677SOL     OW29420   2.740   0.264   5.128  0.5732 -0.3207  0.8795
 9677SOL    HW129421   2.715   0.346   5.087  1.1601  0.6048  2.2946
 9677SOL    HW229422   2.657   0.224   5.154  0.3272  1.1359  2.5616
 9678SOL     OW29423   0.538   1.480   0.634 -0.5209  0.4060  0.4290
 9678SOL    HW129424   0.513   1.571   0.620 -0.9505  0.0561 -1.3057
 9678SOL    HW229425   0.626   1.474   0.598 -0.2249  0.2744  1.1565
 9679SOL     OW29426   4.346   1.371   4.403 -0.1009  0.5009  0.4463
 9679SOL    HW129427   4.318   1.362   4.494 -1.0193  2.1437  0.3785
 9679SOL    HW229428   4.370   1.464   4.395 -2.7022  1.1276 -1.6312
 9680SOL     OW29429   4.818   0.641   2.013  0.3225  0.5042 -0.8174
 9680SOL    HW129430   4.848   0.574   1.951 -1.1088  0.5307 -1.5977
 9680SOL    HW229431   4.765   0.593   2.076  0.4337  0.7019 -0.5745
 9681SOL     OW29432   2.745   4.498   2.922 -0.2303 -0.6370 -0.3079
 9681SOL    HW129433   2.659   4.504   2.882 -1.2877  0.1358  1.9037
 9681SOL    HW229434   2.758   4.404   2.937  0.4010 -0.9908 -2.7363
 9682SOL     OW29435   0.491   1.019   6.689 -0.1857  0.2332 -0.4762
 9682SOL    HW129436   0.470   1.104   6.649  0.7861  1.1652  0.8842
 9682SOL    HW229437   0.581   1.029   6.719 -0.7243 -0.5568  1.5257
 9683SOL     OW29438   3.395   3.275   1.862 -0.0212  0.0867  0.4450
 9683SOL    HW129439   3.491   3.282   1.858  0.2240 -1.6077  1.7154
 9683SOL    HW229440   3.370   3.240   1.776  0.6178 -0.2891  0.4037
 9684SOL     OW29441   5.680   1.126   0.179 -0.0539  0.1584 -0.2999
 9684SOL    HW129442   5.596   1.094   0.211 -0.6174 -1.1698 -2.7915
 9684SOL    HW229443   5.746   1.077   0.228 -0.7789  0.0805  0.6043
 9685SOL     OW29444   5.466   2.331   2.695 -0.0644  0.7657  0.1433
 9685SOL    HW129445   5.402   2.263   2.675 -0.1973  0.2966  1.9798
 9685SOL    HW229446   5.413   2.408   2.714 -0.1231  0.3936  1.6022
 9686SOL     OW29447   5.908   2.083   0.525  0.1251  0.2419  0.6526
 9686SOL    HW129448   5.999   2.075   0.552  0.0028 -1.2202  0.6741
 9686SOL    HW229449   5.869   2.141   0.591  0.7639 -0.0567  1.3001
 9687SOL     OW29450   6.326   3.007   1.753  0.5851  0.5279 -0.0019
 9687SOL    HW129451   6.312   3.044   1.666  1.1074  1.3698  0.2568
 9687SOL    HW229452   6.320   2.912   1.740  2.6185  0.5186 -1.3613
 9688SOL     OW29453   5.459   6.704   5.485  0.1764  0.3718  0.1702
 9688SOL    HW129454   5.537   6.703   5.430  0.3915  0.1620  0.4801
 9688SOL    HW229455   5.457   6.792   5.522 -0.1814  0.6435 -0.4718
 9689SOL     OW29456   0.940   4.616   1.922  0.7210  0.4004 -0.0614
 9689SOL    HW129457   0.897   4.531   1.922 -0.7257  1.0844 -0.2553
 9689SOL    HW229458   0.936   4.645   1.830  0.2548  1.0911  0.1593
 9690SOL     OW29459   4.709   2.201   2.475  0.1973  0.2170 -0.1165
 9690SOL    HW129460   4.748   2.114   2.473 -0.3623 -0.0156 -0.9440
 9690SOL    HW229461   4.626   2.192   2.430 -0.5561  0.8572  1.0760
 9691SOL     OW29462   2.209   5.770   3.186  0.4008 -0.2271 -0.1852
 9691SOL    HW129463   2.271   5.809   3.124 -0.5920  1.0261 -0.4168
 9691SOL    HW229464   2.228   5.676   3.182  1.4840  0.0080 -1.1243
 9692SOL     OW29465   5.037   0.779   4.669  0.7110  0.5140 -0.1470
 9692SOL    HW129466   5.081   0.795   4.585  0.2164  1.4028 -0.2541
 9692SOL    HW229467   5.013   0.687   4.667  0.1839  0.6610 -1.2450
 9693SOL     OW29468   3.620   1.037   4.433 -0.0123 -0.2483 -0.1702
 9693SOL    HW129469   3.603   1.084   4.516  0.1330  0.8970 -0.7643
 9693SOL    HW229470   3.612   0.945   4.456 -0.7117  0.0659  0.9699
 9694SOL     OW29471   2.616   5.466   1.380  0.5032  0.4064  0.4334
 9694SOL    HW129472   2.574   5.548   1.404  2.1287  1.1086  1.0407
 9694SOL    HW229473   2.610   5.412   1.458  1.9904  1.0712  1.0405
 9695SOL     OW29474   2.195   1.604   4.634  0.0865 -0.7985  0.2608
 9695SOL    HW129475   2.213   1.624   4.726  0.5613  1.1032 -0.1985
 9695SOL    HW229476   2.281   1.581   4.599  0.2508  0.3167 -0.1051
 9696SOL     OW29477   4.697   0.170   2.531  0.4522  0.3271  0.2303
 9696SOL    HW129478   4.643   0.107   2.483 -0.4773  0.6005  0.8735
 9696SOL    HW229479   4.748   0.116   2.592  0.3343  0.1184  0.1477
 9697SOL     OW29480   6.180   3.975   0.945  0.2491 -0.7222 -0.8773
 9697SOL    HW129481   6.154   3.917   0.873 -1.5565 -2.0207  0.6918
 9697SOL    HW229482   6.100   4.022   0.968  1.2163  0.9630 -0.8109
 9698SOL     OW29483   1.558   4.590   3.365 -0.0845 -0.0359 -0.4950
 9698SOL    HW129484   1.611   4.554   3.435  0.5153 -0.0325 -0.9452
 9698SOL    HW229485   1.467   4.578   3.395  0.0352 -2.6886 -0.9717
 9699SOL     OW29486   0.135   1.464   3.210 -0.0244  0.1631  0.3003
 9699SOL    HW129487   0.195   1.482   3.281 -1.0488  2.7263  0.6269
 9699SOL    HW229488   0.178   1.500   3.132  0.4286 -1.2746 -0.1376
 9700SOL     OW29489   0.685   6.602   6.343 -0.1871  0.5994  0.3879
 9700SOL    HW129490   0.735   6.592   6.262 -0.2518  1.1077  0.2819
 9700SOL    HW229491   0.743   6.568   6.411 -0.9385 -1.8586 -0.0889
 9701SOL     OW29492   0.939   3.829   1.903  0.0228 -0.0418  0.3354
 9701SOL    HW129493   1.013   3.840   1.963  0.5155 -1.7917  0.0890
 9701SOL    HW229494   0.978   3.790   1.824 -1.2177 -1.4080  0.3671
 9702SOL     OW29495   4.937   2.537   1.058  0.1615  0.2211  0.1930
 9702SOL    HW129496   4.854   2.584   1.058 -0.0334 -0.1255  0.0069
 9702SOL    HW229497   4.948   2.508   1.149 -0.8843 -1.4304 -0.1737
 9703SOL     OW29498   2.933   0.787   6.359 -0.6608  0.0984  0.5088
 9703SOL    HW129499   3.005   0.733   6.328 -1.6175 -2.1780  2.0443
 9703SOL    HW229500   2.938   0.781   6.455 -0.9980  2.5597  0.7559
 9704SOL     OW29501   2.661   6.740   2.740  0.6108  0.3595 -0.2925
 9704SOL    HW129502   2.644   6.777   2.653 -0.4997 -0.5954 -0.5067
 9704SOL    HW229503   2.576   6.737   2.782  0.6083 -1.9792 -0.3230
 9705SOL     OW29504   3.148   3.096   4.437 -0.5318 -0.1719 -0.0416
 9705SOL    HW129505   3.067   3.116   4.392  0.3667  0.2628 -1.5380
 9705SOL    HW229506   3.149   3.154   4.513 -1.9964 -0.8038  0.4927
 9706SOL     OW29507   3.191   6.473   4.345  0.3219 -0.5152 -0.4194
 9706SOL    HW129508   3.247   6.465   4.267 -0.0116  1.5738 -0.9272
 9706SOL    HW229509   3.196   6.565   4.369 -0.7934 -0.8215  1.1407
 9707SOL     OW29510   5.720   3.658   5.417 -0.7377 -0.1014 -0.3840
 9707SOL    HW129511   5.790   3.721   5.433  0.5780 -0.8404 -2.7259
 9707SOL    HW229512   5.722   3.644   5.322 -2.4160 -2.0486 -0.1905
 9708SOL     OW29513   6.336   3.320   1.771  0.5314  0.1666 -0.0563
 9708SOL    HW129514   6.349   3.226   1.758 -0.6373  0.2191 -2.1504
 9708SOL    HW229515   6.353   3.359   1.685 -0.7753  1.6541  0.3035
 9709SOL     OW29516   4.971   3.063   5.857 -0.2147  0.1411 -0.0526
 9709SOL    HW129517   4.984   3.149   5.817 -1.5469  0.8074  0.8449
 9709SOL    HW229518   5.058   3.036   5.886  1.3118 -1.3785 -5.0914
 9710SOL     OW29519   0.506   4.300   1.913 -0.0675  0.1759  0.6583
 9710SOL    HW129520   0.508   4.392   1.941 -2.5283  0.5575 -0.1725
 9710SOL    HW229521   0.509   4.250   1.995  1.6230  0.9579  1.1073
 9711SOL     OW29522   3.363   5.450   3.187  0.0807  0.0598 -0.1212
 9711SOL    HW129523   3.342   5.441   3.280 -3.6056  2.7210 -0.4552
 9711SOL    HW229524   3.446   5.497   3.186  0.0204  0.3056  1.8662
 9712SOL     OW29525   0.895   3.693   0.416  0.3377 -0.3647 -0.1345
 9712SOL    HW129526   0.823   3.741   0.374 -0.3622 -1.7670 -0.6358
 9712SOL    HW229527   0.852   3.616   0.454  1.3902 -0.5236  0.7804
 9713SOL     OW29528   2.637   1.288   1.196 -0.1565 -0.2154 -0.5808
 9713SOL    HW129529   2.681   1.347   1.135  0.6759 -1.1986 -0.9644
 9713SOL    HW229530   2.708   1.251   1.249 -0.5966 -1.2362 -0.6815
 9714SOL     OW29531   5.257   3.896   0.661  0.2734  0.5038 -0.1726
 9714SOL    HW129532   5.311   3.847   0.600 -0.5667 -0.6427 -0.0265
 9714SOL    HW229533   5.262   3.987   0.630 -0.2665 -0.0661 -2.0302
 9715SOL     OW29534   6.570   0.683   0.569  0.2906 -0.0282  0.0395
 9715SOL    HW129535   6.508   0.756   0.569  2.8443  2.3344 -0.0394
 9715SOL    HW229536   6.585   0.664   0.662 -0.5430 -0.6379  0.0572
 9716SOL     OW29537   0.846   0.478   0.774 -0.9321 -0.3888  0.3125
 9716SOL    HW129538   0.817   0.468   0.865 -1.2480  0.0459  0.2693
 9716SOL    HW229539   0.941   0.468   0.777 -0.8915  0.0669  0.7654
 9717SOL     OW29540   2.711   1.109   5.191 -0.4270  0.1180 -0.0772
 9717SOL    HW129541   2.647   1.080   5.125 -0.2315  0.2685 -0.3320
 9717SOL    HW229542   2.692   1.054   5.267  0.7552 -1.5900 -0.9513
 9718SOL     OW29543   1.308   1.394   3.830 -0.4383 -0.0351 -0.1651
 9718SOL    HW129544   1.289   1.402   3.737  2.0688 -0.8282 -0.8323
 9718SOL    HW229545   1.401   1.417   3.838 -0.9059  1.3303  2.3742
 9719SOL     OW29546   2.067   4.486   2.508  0.1425 -0.1564 -0.0183
 9719SOL    HW129547   1.993   4.439   2.469 -0.3904  1.1164 -0.6012
 9719SOL    HW229548   2.027   4.547   2.570  0.6752  0.6395 -0.4389
 9720SOL     OW29549   2.764   5.148   2.392 -0.1034  0.5549  0.2264
 9720SOL    HW129550   2.755   5.191   2.306  2.2143 -0.0834 -0.3862
 9720SOL    HW229551   2.856   5.125   2.398 -0.5494 -0.9451  2.1999
 9721SOL     OW29552   4.472   0.207   6.463  0.2731  0.0255  0.0933
 9721SOL    HW129553   4.484   0.261   6.385 -0.4650 -0.0139 -0.0483
 9721SOL    HW229554   4.526   0.130   6.447  0.4421  0.2009 -0.1984
 9722SOL     OW29555   4.125   1.862   4.959 -0.4656  0.1697  0.1694
 9722SOL    HW129556   4.110   1.872   5.053  0.0046  2.2473  0.0750
 9722SOL    HW229557   4.094   1.944   4.921  0.1938 -0.2581 -1.3844
 9723SOL     OW29558   4.234   1.276   5.538  0.7491 -0.0795  0.5687
 9723SOL    HW129559   4.211   1.315   5.453  1.5143 -2.3764 -0.7816
 9723SOL    HW229560   4.150   1.258   5.579  0.3359  0.2488 -0.1079
 9724SOL     OW29561   3.754   0.434   5.948 -0.2681 -0.6663 -0.2410
 9724SOL    HW129562   3.826   0.406   5.891 -0.4765  0.6213 -1.1820
 9724SOL    HW229563   3.789   0.508   5.997 -0.7291 -0.4985 -0.1607
 9725SOL     OW29564   0.294   1.733   3.805  0.2854  0.1609 -1.4836
 9725SOL    HW129565   0.253   1.810   3.765 -0.8699  0.8343  0.7748
 9725SOL    HW229566   0.388   1.746   3.792  0.3198  3.1962  0.6643
 9726SOL     OW29567   2.228   1.883   5.364 -0.1420 -0.1782 -0.4086
 9726SOL    HW129568   2.137   1.903   5.342 -0.0072 -0.7939 -1.6069
 9726SOL    HW229569   2.222   1.807   5.422 -0.4711  1.1283  1.3719
 9727SOL     OW29570   2.636   5.556   3.367  0.1525  0.1361  0.3336
 9727SOL    HW129571   2.693   5.524   3.437  0.6492  2.1610  0.9083
 9727SOL    HW229572   2.548   5.545   3.401  0.1701 -2.1528 -0.1872
 9728SOL     OW29573   3.502   4.791   2.315  0.2257 -0.1600  0.2867
 9728SOL    HW129574   3.406   4.786   2.312  0.0571  1.6725 -3.4695
 9728SOL    HW229575   3.531   4.707   2.277  0.2412 -1.2238  2.5224
 9729SOL     OW29576   5.664   6.021   2.492 -0.1295 -0.1646  0.0584
 9729SOL    HW129577   5.746   6.046   2.533  0.1774 -2.4757  1.0031
 9729SOL    HW229578   5.601   6.085   2.523  0.7897  0.1087  1.4681
 9730SOL     OW29579   3.277   1.151   4.638  0.0880  0.0180 -0.3413
 9730SOL    HW129580   3.200   1.128   4.690 -0.2772 -1.4440 -1.4738
 9730SOL    HW229581   3.309   1.068   4.603  1.3856  0.7529 -0.9946
 9731SOL     OW29582   0.160   1.828   0.861 -0.0585  0.3146 -0.0424
 9731SOL    HW129583   0.189   1.917   0.879  1.1563  0.2898 -1.6360
 9731SOL    HW229584   0.087   1.813   0.922  0.1417  2.1388  0.6992
 9732SOL     OW29585   2.737   6.812   6.063  0.0659  0.0427 -0.7725
 9732SOL    HW129586   2.682   6.819   6.141 -0.6182 -0.4545 -1.2051
 9732SOL    HW229587   2.677   6.824   5.990  0.4331 -1.0375 -1.2714
 9733SOL     OW29588   4.371   3.963   0.918  0.1615 -0.1307 -0.2596
 9733SOL    HW129589   4.358   3.968   1.013  1.0060  3.4470 -0.2150
 9733SOL    HW229590   4.285   3.939   0.884 -1.0679  1.8170  1.2483
 9734SOL     OW29591   5.178   3.166   4.483 -0.6645  0.1352 -0.6207
 9734SOL    HW129592   5.216   3.114   4.412 -1.7402  0.4546 -1.4722
 9734SOL    HW229593   5.133   3.103   4.538 -0.1386 -0.0760 -0.4310
 9735SOL     OW29594   0.194   0.930   4.730  0.2124  0.6810  0.1934
 9735SOL    HW129595   0.150   1.010   4.700 -1.4756  1.1819  3.5510
 9735SOL    HW229596   0.245   0.959   4.806  1.6197 -1.0425 -0.0362
 9736SOL     OW29597   0.441   4.190   0.989  0.2882  0.0273 -0.1798
 9736SOL    HW129598   0.502   4.152   1.053 -0.9175 -0.6654  0.6056
 9736SOL    HW229599   0.496   4.241   0.930  1.9251 -2.2185 -0.7542
 9737SOL     OW29600   6.515   5.824   3.282 -0.1470  0.3128 -0.0200
 9737SOL    HW129601   6.484   5.895   3.225 -0.0378  0.8819  0.6220
 9737SOL    HW229602   6.561   5.765   3.222 -1.6615 -0.0804 -0.8345
 9738SOL     OW29603   4.731   4.835   1.386  0.2792 -0.3048 -0.0081
 9738SOL    HW129604   4.776   4.834   1.301  0.8606 -1.3323  0.2891
 9738SOL    HW229605   4.802   4.830   1.450 -0.2068 -1.0957  0.4935
 9739SOL     OW29606   6.399   4.779   5.620  0.5802  0.1463 -0.4091
 9739SOL    HW129607   6.461   4.745   5.555  2.1729  0.3356  0.9659
 9739SOL    HW229608   6.338   4.706   5.634  2.0450 -1.0359  0.1243
 9740SOL     OW29609   2.461   0.384   5.316  0.3390  0.2837 -0.4790
 9740SOL    HW129610   2.529   0.438   5.278  0.1543 -0.1912 -1.5257
 9740SOL    HW229611   2.383   0.402   5.263  0.1838 -0.7200 -0.6101
 9741SOL     OW29612   0.487   0.081   6.422  0.0533 -0.5773  0.4452
 9741SOL    HW129613   0.483   0.163   6.471 -3.0322  0.2430 -0.9737
 9741SOL    HW229614   0.534   0.104   6.341  0.2470 -0.5248  0.5717
 9742SOL     OW29615   3.836   2.586   5.003  0.8408  0.0139  0.5157
 9742SOL    HW129616   3.903   2.638   4.959  1.7018  0.1815  1.9268
 9742SOL    HW229617   3.820   2.633   5.085 -0.5324 -0.3900  0.5012
 9743SOL     OW29618   1.119   4.769   5.961 -0.6461 -0.4989 -0.7413
 9743SOL    HW129619   1.043   4.820   5.988  2.5391  2.9770  2.7713
 9743SOL    HW229620   1.126   4.700   6.027 -1.3271 -1.7048 -1.8533
 9744SOL     OW29621   6.046   0.778   1.933  0.7313 -0.4755  0.9652
 9744SOL    HW129622   6.142   0.779   1.940  0.8345 -2.3204  0.4220
 9744SOL    HW229623   6.026   0.840   1.864  1.8045 -2.0751 -0.8828
 9745SOL     OW29624   1.871   1.829   0.464 -0.5328  0.4995 -0.0331
 9745SOL    HW129625   1.803   1.768   0.493 -0.7984  0.2610 -1.1230
 9745SOL    HW229626   1.953   1.782   0.479 -0.6044  0.6935  1.0566
 9746SOL     OW29627   5.803   1.376   5.658 -0.3020  0.5284  0.4653
 9746SOL    HW129628   5.842   1.462   5.675 -2.2321  1.1735  2.1574
 9746SOL    HW229629   5.713   1.395   5.633 -0.0915 -0.9496 -1.6154
 9747SOL     OW29630   2.488   2.509   3.564  0.2594  0.4599 -0.3872
 9747SOL    HW129631   2.459   2.563   3.490 -0.6874 -0.4607 -0.7107
 9747SOL    HW229632   2.420   2.521   3.630 -0.0343 -0.4353 -0.5186
 9748SOL     OW29633   6.103   4.115   0.060 -0.3402 -0.2350 -0.6960
 9748SOL    HW129634   6.192   4.143   0.082 -0.5787  0.9772 -1.2234
 9748SOL    HW229635   6.080   4.053   0.130  0.5010  0.2903  0.0715
 9749SOL     OW29636   3.146   0.572   6.327  0.4352 -0.0680 -0.1145
 9749SOL    HW129637   3.105   0.503   6.380 -0.0141 -0.8816 -1.4629
 9749SOL    HW229638   3.155   0.533   6.240  3.3143  0.3728 -0.1198
 9750SOL     OW29639   3.873   2.642   4.694 -0.0639 -0.4036  0.0511
 9750SOL    HW129640   3.876   2.549   4.674  1.3555 -0.0426 -1.6551
 9750SOL    HW229641   3.863   2.685   4.609 -0.3043  1.0311  0.7660
 9751SOL     OW29642   3.270   1.546   4.775  0.8214 -0.4205 -0.1982
 9751SOL    HW129643   3.221   1.596   4.709 -2.6507 -0.7088  1.8852
 9751SOL    HW229644   3.268   1.601   4.853  2.1515 -1.3541  0.5305
 9752SOL     OW29645   6.396   3.416   0.476 -0.2596 -0.3793 -0.1686
 9752SOL    HW129646   6.454   3.395   0.549  3.0041  2.7432 -1.5516
 9752SOL    HW229647   6.393   3.335   0.425  1.9505 -1.0737  0.6466
 9753SOL     OW29648   0.043   0.658   2.417  0.4075  0.5672 -0.4024
 9753SOL    HW129649   0.085   0.728   2.466  1.9561 -2.6483  3.3750
 9753SOL    HW229650  -0.043   0.648   2.457  0.6573 -0.4131 -0.0816
 9754SOL     OW29651   4.279   4.215   5.638  0.4018 -0.4499  0.3752
 9754SOL    HW129652   4.246   4.247   5.722 -2.0752 -1.8870  0.0551
 9754SOL    HW229653   4.342   4.281   5.610  1.1574  0.1988  3.2283
 9755SOL     OW29654   4.538   5.305   5.600 -0.7728  0.1999 -0.0277
 9755SOL    HW129655   4.455   5.351   5.606 -1.3151 -0.7877  0.4071
 9755SOL    HW229656   4.552   5.292   5.506 -1.4855 -0.2750 -0.0708
 9756SOL     OW29657   1.389   5.055   3.725  0.3440 -0.5001  0.4287
 9756SOL    HW129658   1.322   5.065   3.793  0.0228 -1.3598  0.2589
 9756SOL    HW229659   1.405   4.961   3.721  0.3966 -0.4585 -0.6452
 9757SOL     OW29660   2.999   6.199   3.111  0.2488 -0.2512  0.1049
 9757SOL    HW129661   3.026   6.139   3.042  1.8570 -0.3679  0.7927
 9757SOL    HW229662   3.078   6.248   3.133 -1.4691  3.9707 -2.1191
 9758SOL     OW29663   5.823   2.568   1.141  0.1624 -0.3359 -0.3185
 9758SOL    HW129664   5.811   2.514   1.063 -3.1233  1.3374 -1.1539
 9758SOL    HW229665   5.791   2.513   1.213 -1.8274 -0.0967 -0.9640
 9759SOL     OW29666   3.727   3.801   6.772  0.0479  0.5046 -0.1141
 9759SOL    HW129667   3.661   3.755   6.719  0.0548 -0.3052  0.5562
 9759SOL    HW229668   3.759   3.871   6.716 -0.6257  0.2461 -0.8335
 9760SOL     OW29669   1.616   0.130   2.440 -0.2286 -0.8582 -0.3457
 9760SOL    HW129670   1.615   0.034   2.434  0.3834 -0.8618 -0.5084
 9760SOL    HW229671   1.694   0.150   2.491 -0.7490 -0.4685  0.3012
 9761SOL     OW29672   2.173   4.054   3.088 -0.1152 -0.3269 -0.6177
 9761SOL    HW129673   2.250   4.081   3.038  0.0499  1.9421  0.7175
 9761SOL    HW229674   2.189   4.088   3.176 -1.4225 -2.2130  0.4083
 9762SOL     OW29675   1.956   5.902   1.879  0.1237 -0.1263  0.2986
 9762SOL    HW129676   2.042   5.892   1.920 -0.7028  1.2979  2.5589
 9762SOL    HW229677   1.943   5.997   1.875 -1.9927 -0.3005  1.5541
 9763SOL     OW29678   0.522   2.310   5.172  0.0872 -0.2376  0.0491
 9763SOL    HW129679   0.598   2.368   5.178  1.3531 -1.9384  1.6116
 9763SOL    HW229680   0.514   2.292   5.078  2.4143 -0.9648 -0.0822
 9764SOL     OW29681   3.116   2.367   2.647 -0.2166 -0.0174 -0.3532
 9764SOL    HW129682   3.039   2.357   2.703 -0.3838 -0.9815 -0.7421
 9764SOL    HW229683   3.137   2.278   2.619  1.1165  0.2171 -0.1590
 9765SOL     OW29684   0.060   6.484   2.328 -0.1250 -0.0844  0.1341
 9765SOL    HW129685   0.033   6.531   2.407 -0.4279  0.8428 -0.4953
 9765SOL    HW229686  -0.016   6.490   2.270 -0.1767 -1.4031  0.0504
 9766SOL     OW29687   2.720   4.158   4.843  0.3182 -0.1434 -0.0533
 9766SOL    HW129688   2.720   4.068   4.811 -1.0902 -0.2534  0.2018
 9766SOL    HW229689   2.709   4.211   4.764  3.3137 -0.0204 -0.4879
 9767SOL     OW29690   2.460   4.251   3.446 -0.5237 -0.3256 -0.0454
 9767SOL    HW129691   2.476   4.208   3.361  1.7539 -1.4915  0.8735
 9767SOL    HW229692   2.447   4.178   3.507  1.6552  0.2698  1.2316
 9768SOL     OW29693   0.849   2.946   6.275  0.2548  0.1899  0.3786
 9768SOL    HW129694   0.823   3.015   6.214 -1.4774 -0.7313 -0.0132
 9768SOL    HW229695   0.936   2.972   6.306  1.0869  0.8405 -2.2603
 9769SOL     OW29696   4.162   2.322   5.909  0.2721  0.3749 -0.0738
 9769SOL    HW129697   4.215   2.399   5.889  0.0104  1.0299  1.5801
 9769SOL    HW229698   4.098   2.353   5.974 -0.1904 -1.1018  0.2278
 9770SOL     OW29699   4.345   5.365   0.928  0.0679  0.2670 -0.4403
 9770SOL    HW129700   4.327   5.413   0.846 -1.6664 -0.1125 -0.3199
 9770SOL    HW229701   4.334   5.431   0.997  1.3090  0.5332 -0.4775
 9771SOL     OW29702   3.903   4.704   2.884 -0.2911  0.0196 -0.3161
 9771SOL    HW129703   3.894   4.745   2.798 -1.4740 -1.9940 -1.2161
 9771SOL    HW229704   3.900   4.610   2.867  1.8178 -0.5182  1.7106
 9772SOL     OW29705   4.276   2.164   6.214 -0.1864 -0.0813  0.3159
 9772SOL    HW129706   4.370   2.179   6.223 -0.2006  0.6379 -0.5860
 9772SOL    HW229707   4.264   2.074   6.243  0.5185  0.3250  2.0266
 9773SOL     OW29708   6.339   0.838   2.190  0.2609 -0.4349  0.6089
 9773SOL    HW129709   6.321   0.918   2.142  0.7122 -0.0203  1.1224
 9773SOL    HW229710   6.418   0.857   2.240  0.3276 -1.1729  0.7944
 9774SOL     OW29711   3.355   3.418   5.878  0.2501 -0.9432  0.6572
 9774SOL    HW129712   3.413   3.488   5.906  0.9609 -1.4292  0.4302
 9774SOL    HW229713   3.406   3.338   5.892 -0.5110 -1.4116  0.8276
 9775SOL     OW29714   5.762   6.046   4.168  0.8550  0.1199 -0.1896
 9775SOL    HW129715   5.692   6.110   4.182  1.7611  1.4310 -1.4719
 9775SOL    HW229716   5.753   5.985   4.242 -1.6448  0.2063 -0.3241
 9776SOL     OW29717   2.245   0.821   3.289 -0.2455  0.8637  0.3170
 9776SOL    HW129718   2.249   0.916   3.296 -0.4987  0.7860  1.8660
 9776SOL    HW229719   2.310   0.789   3.351 -0.3848  0.0251  0.0496
 9777SOL     OW29720   0.194   6.732   6.061 -0.5674  0.1114  0.0275
 9777SOL    HW129721   0.122   6.791   6.083 -2.3210 -1.9503  0.1734
 9777SOL    HW229722   0.273   6.784   6.076 -1.9902  2.9608 -1.5401
 9778SOL     OW29723   6.825   6.364   2.886  0.0619  0.2035 -0.2344
 9778SOL    HW129724   6.788   6.300   2.947 -1.3096 -0.1425 -1.3920
 9778SOL    HW229725   6.885   6.314   2.832  1.1020  0.4670  0.6310
 9779SOL     OW29726   6.219   2.615   0.538 -0.3617  0.1118  0.4085
 9779SOL    HW129727   6.178   2.694   0.502 -0.5613  0.4959  1.4465
 9779SOL    HW229728   6.170   2.597   0.619  0.9303  0.0666  1.2140
 9780SOL     OW29729   5.743   5.619   3.895  0.1658  0.5272 -0.5136
 9780SOL    HW129730   5.802   5.631   3.820  1.4618  0.4144  0.4509
 9780SOL    HW229731   5.681   5.691   3.887 -0.9597 -0.5988 -2.7722
 9781SOL     OW29732   1.448   5.881   2.627  0.0432 -0.2939  0.3708
 9781SOL    HW129733   1.486   5.945   2.566  0.0208 -1.3305 -0.7881
 9781SOL    HW229734   1.423   5.808   2.571 -0.3642 -1.1226  1.5995
 9782SOL     OW29735   0.524   6.337   2.960  0.4107 -0.5699 -0.0189
 9782SOL    HW129736   0.462   6.354   3.031  0.8008  0.3768  0.1129
 9782SOL    HW229737   0.559   6.250   2.979  0.6612 -0.2432  1.0687
 9783SOL     OW29738   6.458   0.313   1.173  0.5460 -0.3218  0.2506
 9783SOL    HW129739   6.429   0.222   1.180  4.2133 -1.7169 -0.6468
 9783SOL    HW229740   6.526   0.322   1.240  3.1786  0.3803 -2.3118
 9784SOL     OW29741   3.498   5.541   5.386 -0.1255  0.2220  0.0208
 9784SOL    HW129742   3.471   5.604   5.454 -1.6734  0.9589 -1.2051
 9784SOL    HW229743   3.485   5.455   5.426 -3.0389  0.5631  0.0645
 9785SOL     OW29744   6.553   5.836   0.565 -0.2856 -0.1534  0.0895
 9785SOL    HW129745   6.565   5.912   0.508  1.9410  0.4068  1.1791
 9785SOL    HW229746   6.590   5.763   0.516  4.0116  0.7488  1.5550
 9786SOL     OW29747   0.930   0.010   5.297 -0.2257  0.0137  0.3781
 9786SOL    HW129748   0.966  -0.057   5.238  0.2838  1.4229 -0.9714
 9786SOL    HW229749   1.007   0.041   5.346 -0.4492 -0.2987  0.9398
 9787SOL     OW29750   2.273   2.663   2.911 -0.4671 -0.0360  0.0381
 9787SOL    HW129751   2.241   2.642   2.823  0.2892  2.1715 -0.8174
 9787SOL    HW229752   2.364   2.690   2.899 -1.1679  3.2414  0.9663
 9788SOL     OW29753   2.706   0.719   5.671 -0.8517  0.0862  0.2699
 9788SOL    HW129754   2.636   0.776   5.702  0.5168  2.7650 -1.2411
 9788SOL    HW229755   2.686   0.704   5.579  0.1489  0.2924  0.0042
 9789SOL     OW29756   3.586   5.074   3.540 -0.1708 -0.1443  0.4394
 9789SOL    HW129757   3.573   5.000   3.481  0.2023 -2.1313  2.7052
 9789SOL    HW229758   3.500   5.090   3.579  0.0047 -0.2048  0.8579
 9790SOL     OW29759   6.345   1.780   3.405 -0.5862 -0.0764 -0.1877
 9790SOL    HW129760   6.341   1.688   3.381 -1.6504 -0.1303  0.1782
 9790SOL    HW229761   6.351   1.780   3.501  0.4311  0.2185 -0.2380
 9791SOL     OW29762   6.774   4.013   1.372  0.2516  0.0097 -0.0110
 9791SOL    HW129763   6.859   4.005   1.416 -0.8671 -1.3366  2.0639
 9791SOL    HW229764   6.711   4.020   1.444 -1.7074 -2.5161 -1.3469
 9792SOL     OW29765   0.246   6.417   4.043 -0.6375  0.2556  0.0850
 9792SOL    HW129766   0.320   6.407   3.982 -0.8697  0.0938 -0.1732
 9792SOL    HW229767   0.248   6.337   4.095 -0.2339  0.5432  0.5213
 9793SOL     OW29768   5.048   3.124   4.837 -0.1020 -0.2299 -0.1933
 9793SOL    HW129769   5.035   3.058   4.905  0.5035 -1.6140 -1.3900
 9793SOL    HW229770   5.041   3.077   4.755  0.1817  1.2306 -1.1009
 9794SOL     OW29771   0.892   5.329   1.369 -0.2666  0.2445 -0.2446
 9794SOL    HW129772   0.983   5.343   1.345 -0.0076 -1.8718 -0.6666
 9794SOL    HW229773   0.889   5.345   1.463  0.5852  0.1165 -0.1928
 9795SOL     OW29774   5.188   5.655   2.648 -0.1468  0.8794 -0.4126
 9795SOL    HW129775   5.274   5.613   2.654 -0.0340  1.3035  2.1329
 9795SOL    HW229776   5.200   5.724   2.583  0.9467 -0.1188 -1.3303
 9796SOL     OW29777   3.400   4.033   3.993 -0.0413  0.0745  0.6739
 9796SOL    HW129778   3.313   4.052   4.029 -0.2767 -0.7297  0.5453
 9796SOL    HW229779   3.457   4.098   4.034 -0.6341  0.3728  1.0502
 9797SOL     OW29780   0.155   1.470   3.643  0.5676  0.1063  0.2285
 9797SOL    HW129781   0.236   1.504   3.682 -0.4024  0.6550  1.8272
 9797SOL    HW229782   0.090   1.475   3.713 -0.8464 -0.4105 -0.9962
 9798SOL     OW29783   0.291   3.445   2.575 -0.1433 -0.4585  0.7905
 9798SOL    HW129784   0.269   3.536   2.552  1.2968 -0.1616  0.4551
 9798SOL    HW229785   0.234   3.392   2.520  0.0459  0.2615 -0.1404
 9799SOL     OW29786   5.855   4.733   6.286 -0.4107 -0.1423 -0.7812
 9799SOL    HW129787   5.836   4.660   6.227  0.8724 -1.2725  0.1556
 9799SOL    HW229788   5.804   4.714   6.365  1.4704 -1.1274  0.2403
 9800SOL     OW29789   2.521   1.989   6.194  0.1409  0.2173  0.2697
 9800SOL    HW129790   2.494   2.077   6.218  0.9659  0.7239 -0.5661
 9800SOL    HW229791   2.610   1.981   6.228  0.3887  0.0317 -0.3974
 9801SOL     OW29792   1.632   1.342   2.537 -0.2079  0.6474  0.7587
 9801SOL    HW129793   1.700   1.289   2.579  0.3836  1.8592  1.3853
 9801SOL    HW229794   1.648   1.332   2.443 -1.2403 -1.7165  0.7614
 9802SOL     OW29795   4.799   4.798   6.773 -0.3728 -0.3790 -0.1224
 9802SOL    HW129796   4.855   4.871   6.748 -0.6472 -0.8194 -2.1780
 9802SOL    HW229797   4.757   4.771   6.691 -0.4883 -2.6491  0.6291
 9803SOL     OW29798   2.871   5.232   3.939 -0.4295  0.5312 -0.3822
 9803SOL    HW129799   2.884   5.137   3.946 -1.6648  0.3873  0.2403
 9803SOL    HW229800   2.789   5.249   3.987 -1.0266  1.7103 -1.7405
 9804SOL     OW29801   2.675   4.251   1.547  0.1837 -0.5877 -0.1341
 9804SOL    HW129802   2.643   4.264   1.458  1.0946  0.2110 -0.3552
 9804SOL    HW229803   2.653   4.332   1.593 -2.1661 -1.7446  0.9977
 9805SOL     OW29804   3.577   0.768   0.089  0.1667  0.5685  0.4511
 9805SOL    HW129805   3.606   0.859   0.096 -2.7749  1.6827 -0.6128
 9805SOL    HW229806   3.544   0.760  -0.001 -0.1918 -1.3946  0.7118
 9806SOL     OW29807   6.258   6.295   6.358 -0.1707  0.2078 -0.0306
 9806SOL    HW129808   6.334   6.237   6.350 -1.4221 -1.5826  0.2685
 9806SOL    HW229809   6.263   6.353   6.282  1.6317  0.3575  0.1506
 9807SOL     OW29810   4.010   0.944   0.175  0.1097  0.2717  0.3858
 9807SOL    HW129811   3.959   0.867   0.198  0.9609 -0.2098  0.7322
 9807SOL    HW229812   4.097   0.910   0.154  0.2848  1.0622 -0.2218
 9808SOL     OW29813   4.119   6.456   0.412 -0.3807 -0.1292 -0.1195
 9808SOL    HW129814   4.105   6.440   0.318  0.7558 -3.2625  0.1354
 9808SOL    HW229815   4.104   6.550   0.422 -0.2118  0.3983 -3.4913
 9809SOL     OW29816   0.378   5.461   0.003  0.0337  0.0984 -0.2873
 9809SOL    HW129817   0.452   5.447   0.061 -0.1392  1.2504  0.2253
 9809SOL    HW229818   0.377   5.555  -0.014 -1.5673  0.1759  0.0812
 9810SOL     OW29819   1.231   0.317   0.440 -0.7395  0.5579  0.0664
 9810SOL    HW129820   1.242   0.280   0.352 -0.1068  0.4806  0.1708
 9810SOL    HW229821   1.161   0.381   0.431 -0.8153  0.4037 -0.4509
 9811SOL     OW29822   6.284   0.574   4.464  0.3746  0.4508  0.1280
 9811SOL    HW129823   6.224   0.647   4.475 -0.5867 -0.0925 -1.1579
 9811SOL    HW229824   6.323   0.561   4.550 -0.1463  1.8619  0.5951
 9812SOL     OW29825   0.708   0.545   5.241 -0.0621  0.1308  0.2494
 9812SOL    HW129826   0.623   0.506   5.221  0.8849 -0.8476 -2.3597
 9812SOL    HW229827   0.769   0.472   5.237  1.0828  1.0411  0.6618
 9813SOL     OW29828   1.153   2.218   1.592 -0.1629  0.2327 -0.6427
 9813SOL    HW129829   1.242   2.184   1.596 -0.7539 -1.3349  0.0106
 9813SOL    HW229830   1.162   2.306   1.556  1.5834 -0.1107 -1.1141
 9814SOL     OW29831   6.125   4.070   4.460  0.3158 -0.1309  0.1267
 9814SOL    HW129832   6.156   3.986   4.492 -0.4094 -0.8871 -1.0955
 9814SOL    HW229833   6.190   4.133   4.492  0.8458 -1.1273  1.0878
 9815SOL     OW29834   3.553   1.370   5.511 -0.0987  0.1669  0.1403
 9815SOL    HW129835   3.514   1.318   5.582  1.4909 -1.5504 -0.1463
 9815SOL    HW229836   3.492   1.362   5.438 -0.6614  0.0584  0.6167
 9816SOL     OW29837   4.998   1.617   4.945  0.2466  0.0691  0.3534
 9816SOL    HW129838   4.974   1.686   5.008 -0.7973 -0.5306  0.6390
 9816SOL    HW229839   5.038   1.549   4.998  2.1903  0.8438 -0.0599
 9817SOL     OW29840   2.917   6.765   3.070 -0.0441 -0.3011 -0.7755
 9817SOL    HW129841   2.998   6.715   3.082  0.6214  0.4003 -2.0357
 9817SOL    HW229842   2.941   6.855   3.093 -1.1337 -0.4563  1.1428
 9818SOL     OW29843   5.905   5.253   5.744 -0.3606  0.2949 -0.5014
 9818SOL    HW129844   5.960   5.329   5.761  0.8951 -0.5991 -0.4565
 9818SOL    HW229845   5.964   5.189   5.705 -1.5812 -0.3682 -1.3080
 9819SOL     OW29846   0.655   4.986   6.527  0.0410 -0.7477 -0.0949
 9819SOL    HW129847   0.719   4.983   6.598 -1.8063 -1.6647  1.6429
 9819SOL    HW229848   0.699   4.943   6.453  1.0726 -2.3099  1.3633
 9820SOL     OW29849   5.384   6.386   5.297  0.6611 -0.5388 -0.4591
 9820SOL    HW129850   5.338   6.470   5.296  3.0716  0.8816 -0.0680
 9820SOL    HW229851   5.367   6.350   5.385  1.5674  0.7578  0.2798
 9821SOL     OW29852   0.459   5.686   2.184 -0.1114 -0.0686 -0.1088
 9821SOL    HW129853   0.542   5.733   2.182  0.9259 -1.7766  0.7615
 9821SOL    HW229854   0.474   5.607   2.132 -1.4420 -0.0603 -0.5672
 9822SOL     OW29855   3.769   5.981   3.113 -0.5438  0.2957 -0.2935
 9822SOL    HW129856   3.718   5.973   3.194 -0.2309  0.5294 -0.0689
 9822SOL    HW229857   3.798   6.072   3.112 -0.8442  0.3896 -0.8560
 9823SOL     OW29858   0.349   4.601   5.133 -0.2049  0.5277  0.0264
 9823SOL    HW129859   0.313   4.578   5.219 -0.9858 -0.9569 -0.6646
 9823SOL    HW229860   0.274   4.599   5.074  0.3403  1.4385 -0.7293
 9824SOL     OW29861   3.700   1.726   4.785  0.9629  0.0096  0.0687
 9824SOL    HW129862   3.633   1.695   4.846 -0.5453  0.9895 -1.0256
 9824SOL    HW229863   3.724   1.813   4.818  0.5145  0.3261 -0.4204
 9825SOL     OW29864   2.114   1.511   3.367 -0.1797 -0.3117  0.5191
 9825SOL    HW129865   2.110   1.418   3.345 -1.5161 -0.5610  1.7062
 9825SOL    HW229866   2.201   1.523   3.406 -0.3401 -1.2486  1.1799
 9826SOL     OW29867   2.099   5.119   3.900 -0.2250 -0.0579 -0.0876
 9826SOL    HW129868   2.088   5.027   3.921 -2.2357 -0.2502 -1.7352
 9826SOL    HW229869   2.086   5.164   3.983  1.2610 -1.2396  0.8325
 9827SOL     OW29870   5.621   5.431   6.604  0.0431 -0.1687  0.2038
 9827SOL    HW129871   5.675   5.468   6.535  1.4705  0.5972  1.6403
 9827SOL    HW229872   5.531   5.445   6.575  0.5695 -1.4355 -2.2430
 9828SOL     OW29873   0.875   4.589   0.292 -0.1178 -0.2782  0.1217
 9828SOL    HW129874   0.869   4.513   0.235  1.5460 -0.3689  0.0323
 9828SOL    HW229875   0.947   4.570   0.351 -0.5479  0.6545  0.9855
 9829SOL     OW29876   6.689   1.620   5.598  0.6098  0.1104  0.1643
 9829SOL    HW129877   6.699   1.681   5.525 -0.2146  0.5695  0.4185
 9829SOL    HW229878   6.597   1.593   5.594  1.0447 -1.4367 -0.1809
 9830SOL     OW29879   3.858   1.403   5.820  0.5373  0.1611 -0.4135
 9830SOL    HW129880   3.776   1.443   5.793 -0.0590  0.1793  1.2929
 9830SOL    HW229881   3.898   1.468   5.878  0.1837 -1.1123  1.3397
 9831SOL     OW29882   2.333   6.585   0.020  0.4619 -0.2565 -0.0876
 9831SOL    HW129883   2.400   6.568   0.086  1.4663  1.6299 -0.5639
 9831SOL    HW229884   2.330   6.504  -0.032  1.5059 -0.8043  0.6651
 9832SOL     OW29885   2.100   5.498   0.747 -0.1203 -0.4831  0.4147
 9832SOL    HW129886   2.127   5.549   0.671 -0.4277  0.7867  1.1310
 9832SOL    HW229887   2.036   5.436   0.713  0.3825 -0.5160 -0.5033
 9833SOL     OW29888   6.237   5.052   0.465  0.2608  0.0738  0.8360
 9833SOL    HW129889   6.300   5.108   0.511 -0.1645  0.2106  1.2522
 9833SOL    HW229890   6.192   5.111   0.405 -0.8420  0.3843  1.9363
 9834SOL     OW29891   6.141   2.133   6.390  0.2035  0.0025 -0.4704
 9834SOL    HW129892   6.088   2.076   6.335  2.2955 -1.3612 -1.2189
 9834SOL    HW229893   6.092   2.141   6.472 -2.0994  0.5689 -1.8288
 9835SOL     OW29894   2.567   2.262   5.570  0.4232 -0.1211  0.1456
 9835SOL    HW129895   2.534   2.292   5.654  1.0969  2.5554 -0.4685
 9835SOL    HW229896   2.530   2.174   5.560 -0.5785 -0.0695  2.6889
 9836SOL     OW29897   4.814   6.491   1.174  0.0044  0.1310 -0.3308
 9836SOL    HW129898   4.822   6.436   1.096 -0.6903  0.3008 -0.5236
 9836SOL    HW229899   4.805   6.429   1.246  0.4034 -0.0217 -0.4094
 9837SOL     OW29900   2.089   6.148   5.599 -0.6152  0.7011  0.2884
 9837SOL    HW129901   2.146   6.197   5.539 -0.1034 -1.8727 -1.4899
 9837SOL    HW229902   2.027   6.102   5.542 -1.6293 -0.0154  1.9012
 9838SOL     OW29903   4.365   3.252   4.451 -1.0109 -1.1898 -0.4315
 9838SOL    HW129904   4.407   3.210   4.375 -1.7325  0.9380 -2.1155
 9838SOL    HW229905   4.419   3.226   4.525  1.9954 -0.4769 -2.1749
 9839SOL     OW29906   2.511   1.181   2.824 -0.0857  0.2907 -0.1109
 9839SOL    HW129907   2.537   1.090   2.812 -1.5386 -0.2805  0.7221
 9839SOL    HW229908   2.561   1.210   2.900  2.1994  1.0094 -1.7841
 9840SOL     OW29909   1.711   1.156   1.643  0.0652 -0.5309  0.0626
 9840SOL    HW129910   1.779   1.183   1.705  0.0449 -0.7189  0.1660
 9840SOL    HW229911   1.759   1.138   1.562  0.1505 -0.7695  0.1675
 9841SOL     OW29912   2.919   5.202   2.784 -0.2937  0.5278 -0.2076
 9841SOL    HW129913   2.900   5.113   2.814 -0.1107 -0.1528 -2.0159
 9841SOL    HW229914   3.001   5.194   2.736 -0.9499  1.4082 -1.5265
 9842SOL     OW29915   0.827   5.047   3.618  0.1267 -0.2070  0.8090
 9842SOL    HW129916   0.751   5.096   3.586  0.9729 -0.0733 -1.1905
 9842SOL    HW229917   0.902   5.105   3.602  0.6783 -0.2352  2.9536
 9843SOL     OW29918   6.643   3.586   3.519  0.5895  0.0176 -0.2178
 9843SOL    HW129919   6.557   3.551   3.542  0.1080  1.0095 -0.4257
 9843SOL    HW229920   6.625   3.648   3.449  1.5703 -0.2555 -0.7282
 9844SOL     OW29921   0.186   0.107   4.963 -0.0720 -0.1621 -0.2400
 9844SOL    HW129922   0.274   0.092   4.928 -0.0036  1.2222 -0.7065
 9844SOL    HW229923   0.128   0.065   4.900  0.1829  0.1505 -0.6892
 9845SOL     OW29924   0.681   3.272   6.542  0.2317  0.2114 -0.1480
 9845SOL    HW129925   0.741   3.212   6.586 -0.0865 -0.4337 -0.5804
 9845SOL    HW229926   0.735   3.346   6.516  0.2503  1.1773  2.3238
 9846SOL     OW29927   4.542   1.617   6.212  0.1294 -0.5008 -0.3369
 9846SOL    HW129928   4.517   1.708   6.230 -0.7437 -0.7510 -0.2272
 9846SOL    HW229929   4.470   1.565   6.247  0.2508 -1.1967 -1.0814
 9847SOL     OW29930   4.901   6.776   1.938  0.3130  0.4868  0.6476
 9847SOL    HW129931   4.949   6.711   1.886  0.3290  1.5820 -0.7919
 9847SOL    HW229932   4.948   6.858   1.920 -0.1468  1.0207  1.8384
 9848SOL     OW29933   3.616   5.081   3.072 -0.1162 -0.3658  0.2788
 9848SOL    HW129934   3.532   5.054   3.110 -0.0859  2.5918  2.9261
 9848SOL    HW229935   3.682   5.038   3.126  0.0987 -1.6435 -0.9608
 9849SOL     OW29936   5.208   2.375   5.166 -0.6507 -0.5570 -0.0133
 9849SOL    HW129937   5.269   2.418   5.107  0.6237 -0.3625  1.3710
 9849SOL    HW229938   5.258   2.301   5.201 -0.9011  0.0692  1.7596
 9850SOL     OW29939   6.338   4.142   6.550  0.0521 -0.1952  0.2211
 9850SOL    HW129940   6.418   4.193   6.537 -0.5813  0.7088 -0.3554
 9850SOL    HW229941   6.367   4.051   6.555  1.0309  0.0319 -0.8714
 9851SOL     OW29942   2.146   1.486   1.348 -0.3108  0.0867  0.6347
 9851SOL    HW129943   2.073   1.478   1.286 -0.0352  3.2011 -0.2548
 9851SOL    HW229944   2.223   1.456   1.299 -0.1109  2.4150 -0.5881
 9852SOL     OW29945   0.765   3.096   5.863 -0.7519 -0.1075 -0.2956
 9852SOL    HW129946   0.708   3.104   5.939  0.0860  1.7179  0.2053
 9852SOL    HW229947   0.847   3.060   5.899 -0.6921 -0.1858 -0.5123
 9853SOL     OW29948   4.808   3.124   0.617 -0.0115 -0.6838  0.5090
 9853SOL    HW129949   4.867   3.199   0.617 -0.7886 -0.0378 -0.4122
 9853SOL    HW229950   4.801   3.098   0.525 -1.3572 -0.5628  0.5478
 9854SOL     OW29951   5.474   4.279   1.393  0.2867  0.6157 -0.0343
 9854SOL    HW129952   5.455   4.360   1.346 -1.4271 -0.1264 -0.7193
 9854SOL    HW229953   5.470   4.304   1.485 -2.5960  0.9419 -0.1466
 9855SOL     OW29954   3.931   0.680   6.706  0.0594 -0.4455 -0.4349
 9855SOL    HW129955   4.012   0.672   6.755 -0.8104  0.4887  1.2540
 9855SOL    HW229956   3.895   0.591   6.705  1.6875 -1.1459 -2.3630
 9856SOL     OW29957   3.988   2.806   5.448  0.6153 -0.2442 -0.0246
 9856SOL    HW129958   3.945   2.870   5.505  0.3085 -1.2573  0.8965
 9856SOL    HW229959   4.001   2.729   5.503  0.2156 -1.2912 -1.3554
 9857SOL     OW29960   2.625   3.790   0.071 -0.4578 -1.4200 -0.5021
 9857SOL    HW129961   2.557   3.847   0.109 -0.2724 -1.7863  0.4109
 9857SOL    HW229962   2.692   3.851   0.039 -0.4103 -1.1017  0.1781
 9858SOL     OW29963   1.495   3.745   5.381 -0.2798 -0.4382 -0.4256
 9858SOL    HW129964   1.418   3.769   5.331  1.1039  1.4096 -1.8137
 9858SOL    HW229965   1.478   3.779   5.469 -0.7750  0.5858 -0.8992
 9859SOL     OW29966   3.390   3.024   0.620 -0.0505 -0.3297  0.3960
 9859SOL    HW129967   3.333   2.974   0.561 -0.3777  0.5047 -0.0114
 9859SOL    HW229968   3.376   2.984   0.706 -2.0853  0.4830  0.5249
 9860SOL     OW29969   3.406   5.228   0.704 -0.0222 -0.0057  0.1074
 9860SOL    HW129970   3.345   5.222   0.777  0.9153 -1.3809  0.8288
 9860SOL    HW229971   3.473   5.290   0.733  1.2678 -1.8009  1.1939
 9861SOL     OW29972   6.261   2.516   2.383 -0.1862 -0.3688 -0.3016
 9861SOL    HW129973   6.273   2.586   2.448  0.3249 -0.3169 -0.4476
 9861SOL    HW229974   6.180   2.539   2.338  0.8609  1.1073 -1.5434
 9862SOL     OW29975   5.682   6.590   1.926 -0.8326  0.1605  0.0082
 9862SOL    HW129976   5.657   6.606   1.835 -1.3511 -0.6983 -0.0094
 9862SOL    HW229977   5.616   6.636   1.978 -1.6312 -0.8889 -0.0489
 9863SOL     OW29978   4.482   4.225   0.845 -0.0804  0.2688  0.8780
 9863SOL    HW129979   4.505   4.200   0.756  0.0275 -0.1099  1.0075
 9863SOL    HW229980   4.440   4.146   0.882  0.5444  0.1678  1.3940
 9864SOL     OW29981   5.136   4.761   3.954  0.0553 -0.6976 -0.4599
 9864SOL    HW129982   5.094   4.826   4.011 -1.3442 -0.9583 -1.1508
 9864SOL    HW229983   5.079   4.756   3.877  1.0534 -1.5180 -1.1830
 9865SOL     OW29984   0.470   2.756   0.371  0.1206 -0.1508  0.0020
 9865SOL    HW129985   0.480   2.806   0.452 -1.5164 -2.1279  1.5392
 9865SOL    HW229986   0.448   2.821   0.305  0.7189  1.4358  1.2896
 9866SOL     OW29987   5.713   2.027   2.950  0.1527  0.4097  0.0882
 9866SOL    HW129988   5.725   2.019   3.045 -3.5373  0.5283  0.6981
 9866SOL    HW229989   5.753   1.948   2.914  2.0986  0.6151  1.6351
 9867SOL     OW29990   3.062   3.463   0.095 -0.0979 -0.1462 -0.4220
 9867SOL    HW129991   2.987   3.520   0.109 -0.4557 -0.5941 -0.5100
 9867SOL    HW229992   3.089   3.480   0.005 -0.6984 -0.6970 -0.7106
 9868SOL     OW29993   0.854   0.283   5.963  0.3452  0.2108 -0.0225
 9868SOL    HW129994   0.826   0.368   5.928 -1.0556  0.7015  2.1449
 9868SOL    HW229995   0.780   0.225   5.948  0.9335 -0.4253 -0.6043
 9869SOL     OW29996   0.996   3.604   2.955  0.0432  0.2281  0.3603
 9869SOL    HW129997   1.017   3.693   2.926  0.4557  0.0470  0.0840
 9869SOL    HW229998   1.055   3.548   2.903 -2.0054 -0.4117 -1.4167
 9870SOL     OW29999   5.128   6.477   5.810 -0.2620  0.3778  0.0155
 9870SOL    HW130000   5.147   6.484   5.904  0.3022 -2.9633  0.2695
 9870SOL    HW230001   5.200   6.524   5.768  1.4881 -1.0887  1.2361
 9871SOL     OW30002   0.095   5.763   1.469  0.2163 -0.9001  0.1799
 9871SOL    HW130003   0.156   5.830   1.499 -1.3998  0.5017  0.5181
 9871SOL    HW230004   0.091   5.775   1.374  1.1656 -1.6553  0.0264
 9872SOL     OW30005   4.322   2.880   3.546  0.0560 -0.1796 -0.2033
 9872SOL    HW130006   4.374   2.846   3.619  0.4362 -0.3834 -0.5604
 9872SOL    HW230007   4.384   2.885   3.473  0.3438  2.4517  0.1265
 9873SOL     OW30008   3.675   3.382   6.016 -0.3495  0.0170 -0.1434
 9873SOL    HW130009   3.769   3.364   6.025 -0.7370 -1.2971  2.5886
 9873SOL    HW230010   3.644   3.315   5.955  0.5500  0.9110 -1.6426
 9874SOL     OW30011   6.158   2.382   5.939 -0.1973  0.6786  0.0531
 9874SOL    HW130012   6.249   2.378   5.911 -0.2540 -0.7764  0.0076
 9874SOL    HW230013   6.160   2.366   6.033 -0.5373 -1.7293 -0.2844
 9875SOL     OW30014   4.450   1.387   0.431  0.0753 -0.4383 -0.1124
 9875SOL    HW130015   4.543   1.406   0.436  0.4004 -1.6873 -1.0582
 9875SOL    HW230016   4.416   1.449   0.367  0.3396 -0.2777 -0.0972
 9876SOL     OW30017   5.650   3.078   2.362 -0.1678  0.4327  0.1906
 9876SOL    HW130018   5.602   2.997   2.350 -0.9435  1.1769 -2.3893
 9876SOL    HW230019   5.599   3.127   2.427 -1.4141  0.0914 -0.4957
 9877SOL     OW30020   3.013   5.526   6.518 -0.2959  0.4458 -0.4356
 9877SOL    HW130021   3.093   5.487   6.554  0.5939  1.7071 -0.9732
 9877SOL    HW230022   2.987   5.468   6.447  1.4749  1.2158 -1.7742
 9878SOL     OW30023   6.802   5.744   5.755  0.6903 -0.0948 -0.3735
 9878SOL    HW130024   6.861   5.801   5.804 -1.7165  2.7256 -0.4759
 9878SOL    HW230025   6.727   5.731   5.814 -0.1785 -0.5551 -1.5455
 9879SOL     OW30026   1.700   0.926   1.742 -0.2349 -0.7565  0.9236
 9879SOL    HW130027   1.685   1.010   1.699  1.9400 -0.0796  1.3573
 9879SOL    HW230028   1.757   0.947   1.816  0.0433 -2.5683  1.2726
 9880SOL     OW30029   4.611   2.199   3.785  0.2964 -0.1049 -0.0101
 9880SOL    HW130030   4.682   2.196   3.849  1.1031 -0.3333 -0.8739
 9880SOL    HW230031   4.639   2.138   3.716  0.7047  1.9239 -1.7794
 9881SOL     OW30032   6.059   0.775   4.513 -0.1845  0.5837 -0.5554
 9881SOL    HW130033   6.070   0.852   4.568 -0.6569  0.0499  0.3150
 9881SOL    HW230034   6.080   0.805   4.424 -2.5701  2.3210 -0.6394
 9882SOL     OW30035   5.874   5.855   3.197 -0.0873  0.1577 -0.1123
 9882SOL    HW130036   5.966   5.830   3.203 -0.4850 -1.2635  0.4042
 9882SOL    HW230037   5.872   5.945   3.230  1.1487  0.2888 -0.3550
 9883SOL     OW30038   2.826   1.565   4.575 -0.4153  0.2882 -0.5504
 9883SOL    HW130039   2.788   1.555   4.488 -0.1297 -2.8859 -0.4150
 9883SOL    HW230040   2.756   1.539   4.635  0.2051 -0.0972  0.0175
 9884SOL     OW30041   5.859   2.843   6.567  0.0934  0.1788  0.1187
 9884SOL    HW130042   5.833   2.819   6.479 -1.2206  0.2989  0.4533
 9884SOL    HW230043   5.901   2.929   6.557  0.6212 -0.1384 -0.4680
 9885SOL     OW30044   4.511   2.133   2.314  0.1346 -0.4626 -0.9613
 9885SOL    HW130045   4.433   2.187   2.301  0.1623 -0.4673 -1.1447
 9885SOL    HW230046   4.500   2.059   2.255 -0.1091 -0.8879 -0.3931
 9886SOL     OW30047   0.563   1.141   1.204  0.0693  0.1462 -0.1513
 9886SOL    HW130048   0.589   1.178   1.120  0.8578  0.9867  0.4400
 9886SOL    HW230049   0.639   1.154   1.261 -0.2622 -0.8682  0.5573
 9887SOL     OW30050   3.049   0.999   1.596  0.1863  0.0272  0.2956
 9887SOL    HW130051   3.052   0.968   1.687 -0.9676  0.7672  0.6065
 9887SOL    HW230052   3.137   0.981   1.562  0.5231 -0.6146  1.4329
 9888SOL     OW30053   5.345   1.764   0.403 -0.0171  0.4831 -0.4158
 9888SOL    HW130054   5.435   1.773   0.434 -0.1055  0.8745 -0.2617
 9888SOL    HW230055   5.350   1.786   0.309  0.3238 -1.1323 -0.7968
 9889SOL     OW30056   0.312   4.327   4.118  0.6178 -0.4807 -0.2158
 9889SOL    HW130057   0.378   4.352   4.053  0.0765 -0.4727 -0.7674
 9889SOL    HW230058   0.243   4.284   4.067 -1.5918  2.7815 -0.2219
 9890SOL     OW30059   6.023   6.038   2.792 -0.2961 -0.0902 -0.0382
 9890SOL    HW130060   5.992   5.960   2.746  0.5036  0.6735 -1.9750
 9890SOL    HW230061   6.035   6.104   2.723 -0.5107  1.6112  1.4837
 9891SOL     OW30062   5.028   5.555   0.503 -0.1278  0.3516 -0.4230
 9891SOL    HW130063   4.980   5.537   0.584  1.2134 -1.7622 -0.0193
 9891SOL    HW230064   5.114   5.585   0.532  1.1787 -2.5974 -0.8934
 9892SOL     OW30065   3.378   4.263   2.777  0.0028  0.6369  0.5140
 9892SOL    HW130066   3.432   4.202   2.727 -2.1032  0.9018 -2.3287
 9892SOL    HW230067   3.429   4.282   2.856  2.1211 -2.2863 -0.0138
 9893SOL     OW30068   1.491   1.014   0.865  0.6881 -0.5888 -0.0951
 9893SOL    HW130069   1.472   0.923   0.889 -1.1132  0.1174  1.4600
 9893SOL    HW230070   1.522   1.054   0.947 -1.4761  0.8726  0.0963
 9894SOL     OW30071   2.224   6.003   3.950 -0.0791  0.2597 -0.7811
 9894SOL    HW130072   2.226   6.016   3.856  0.0523  1.9999 -0.5599
 9894SOL    HW230073   2.292   6.061   3.984 -1.3140  1.0047  0.5286
 9895SOL     OW30074   6.755   5.744   1.010  0.2367 -0.6411  0.2535
 9895SOL    HW130075   6.826   5.770   1.069  1.3579 -1.3577 -0.7456
 9895SOL    HW230076   6.745   5.819   0.951  1.5583 -1.2842 -0.8548
 9896SOL     OW30077   6.414   5.622   4.689 -0.0684  0.0437 -0.0316
 9896SOL    HW130078   6.405   5.603   4.783 -2.7537 -0.8560 -0.3754
 9896SOL    HW230079   6.418   5.717   4.685  2.4189  0.0524  1.0883
 9897SOL     OW30080   0.905   1.270   6.713 -0.5450 -0.3134  0.2084
 9897SOL    HW130081   0.994   1.236   6.712 -0.0768  0.7303  1.8952
 9897SOL    HW230082   0.904   1.331   6.786 -1.8886  1.7979 -1.4707
 9898SOL     OW30083   2.124   5.739   3.447 -0.4761 -0.2566  0.3493
 9898SOL    HW130084   2.051   5.678   3.442 -0.3611 -0.4333  0.7272
 9898SOL    HW230085   2.155   5.747   3.357 -2.5291  1.7972 -0.2532
 9899SOL     OW30086   4.433   3.529   4.775  0.4021 -0.2586 -0.3455
 9899SOL    HW130087   4.518   3.485   4.772  0.6008  0.1767 -2.4483
 9899SOL    HW230088   4.452   3.613   4.818  0.6519 -0.8572  0.7655
 9900SOL     OW30089   5.699   1.073   4.593  0.2417 -0.1103 -0.1167
 9900SOL    HW130090   5.671   1.024   4.515 -1.5569 -1.3487  1.2036
 9900SOL    HW230091   5.735   1.006   4.651  2.3248  0.9174 -0.1310
 9901SOL     OW30092   2.554   5.097   5.172 -0.1746 -0.0831 -0.3320
 9901SOL    HW130093   2.507   5.148   5.238 -0.8911  0.0641 -0.9308
 9901SOL    HW230094   2.541   5.146   5.091  1.8373  0.4602 -0.3595
 9902SOL     OW30095   6.723   5.678   2.217  0.5799 -0.1800  0.1238
 9902SOL    HW130096   6.709   5.587   2.242  1.0119 -0.2832  0.0051
 9902SOL    HW230097   6.743   5.674   2.123 -1.1986  0.2132 -0.3104
 9903SOL     OW30098   6.162   2.616   5.023  0.4823  0.0226 -0.0214
 9903SOL    HW130099   6.250   2.626   4.986 -0.9684  0.5253 -3.7169
 9903SOL    HW230100   6.116   2.695   4.997 -1.9173 -1.5916 -0.9915
 9904SOL     OW30101   1.726   0.898   6.173  0.4655  0.0519 -0.0752
 9904SOL    HW130102   1.792   0.916   6.239  2.2216 -1.3091 -1.3661
 9904SOL    HW230103   1.761   0.824   6.124 -2.6524 -1.6507  0.0197
 9905SOL     OW30104   3.787   0.219   1.751 -0.3317  0.0965 -0.0319
 9905SOL    HW130105   3.842   0.262   1.816 -1.2378  1.1446  0.0716
 9905SOL    HW230106   3.698   0.229   1.785 -0.6914 -0.6256 -0.7235
 9906SOL     OW30107   3.680   6.145   1.224 -0.0984 -0.4606  0.7664
 9906SOL    HW130108   3.716   6.173   1.139 -0.3899  0.0645  0.8115
 9906SOL    HW230109   3.727   6.064   1.244  1.1462  0.2655  0.8792
 9907SOL     OW30110   5.085   5.844   4.005 -0.0190  0.4790 -0.4656
 9907SOL    HW130111   5.024   5.852   3.931 -1.9011 -1.5502  0.7315
 9907SOL    HW230112   5.156   5.905   3.985 -1.0284  0.8397 -3.3473
 9908SOL     OW30113   0.555   0.983   0.677  0.1596 -0.6500 -0.2101
 9908SOL    HW130114   0.497   1.053   0.706  0.7680 -0.9325  1.8399
 9908SOL    HW230115   0.643   1.020   0.683  0.3471 -0.7640 -1.7037
 9909SOL     OW30116   5.682   4.672   6.773 -0.1064 -0.0486 -0.0577
 9909SOL    HW130117   5.743   4.693   6.844  0.3940 -1.5404 -0.0100
 9909SOL    HW230118   5.685   4.576   6.766 -0.7047  0.0148 -1.6030
 9910SOL     OW30119   4.631   0.928   1.440 -0.3775 -0.8381  0.3553
 9910SOL    HW130120   4.690   0.855   1.421 -0.5532 -0.6385 -1.1314
 9910SOL    HW230121   4.607   0.962   1.353  1.1051  2.1147  0.9597
 9911SOL     OW30122   4.311   5.375   4.459 -0.4026  0.3112 -0.5427
 9911SOL    HW130123   4.338   5.304   4.517  2.0933  2.6361  1.3721
 9911SOL    HW230124   4.224   5.401   4.491 -0.8048 -1.0395 -0.5011
 9912SOL     OW30125   4.594   6.786   6.377 -0.1096  0.0734 -0.8184
 9912SOL    HW130126   4.555   6.786   6.289  0.3972  0.2536 -1.0473
 9912SOL    HW230127   4.677   6.740   6.366  0.3308  0.8051 -0.6039
 9913SOL     OW30128   5.535   3.131   6.167 -0.2372  0.3367  0.3219
 9913SOL    HW130129   5.439   3.139   6.167 -0.3210 -0.1819 -1.6231
 9913SOL    HW230130   5.564   3.196   6.102  0.8541  1.3028  1.7032
 9914SOL     OW30131   6.821   5.350   4.747  0.3855 -0.2357 -0.6735
 9914SOL    HW130132   6.854   5.366   4.658  0.9220  0.5485 -0.3463
 9914SOL    HW230133   6.741   5.300   4.734  1.8872 -2.5842 -1.4747
 9915SOL     OW30134   2.933   1.570   1.656 -0.3358 -0.3448 -0.2150
 9915SOL    HW130135   3.009   1.513   1.653 -0.5964 -0.6687 -0.7869
 9915SOL    HW230136   2.925   1.604   1.567  0.2207  1.1276  0.2658
 9916SOL     OW30137   0.386   1.636   3.051  0.4991 -0.3670 -0.1435
 9916SOL    HW130138   0.386   1.731   3.054  0.1594 -0.3588 -0.3765
 9916SOL    HW230139   0.380   1.615   2.957 -3.2667 -0.6220  0.0281
 9917SOL     OW30140   1.422   0.195   3.970 -0.5105 -0.2420  0.4314
 9917SOL    HW130141   1.450   0.116   4.015 -0.3001  0.5029  1.6565
 9917SOL    HW230142   1.502   0.233   3.934 -0.4205  0.0690  0.9456
 9918SOL     OW30143   4.059   6.329   2.149 -0.0876  0.3113 -0.4052
 9918SOL    HW130144   4.089   6.381   2.074  0.1232 -1.0256 -1.2768
 9918SOL    HW230145   4.028   6.247   2.110 -2.0144  0.4239  0.7574
 9919SOL     OW30146   2.774   3.795   3.453  0.0497 -0.0347  0.1993
 9919SOL    HW130147   2.764   3.886   3.423  1.5813  0.0997  0.0124
 9919SOL    HW230148   2.852   3.764   3.408  0.5368 -0.8874  1.5934
 9920SOL     OW30149   1.677   4.617   0.872  0.4210 -0.3178 -0.3320
 9920SOL    HW130150   1.759   4.600   0.919 -0.3583  2.2054  2.2091
 9920SOL    HW230151   1.609   4.613   0.939 -1.3457 -0.3716 -2.0085
 9921SOL     OW30152   3.600   5.312   2.550 -0.1781 -0.0718  0.0053
 9921SOL    HW130153   3.653   5.335   2.627  0.3706  0.4035 -0.5032
 9921SOL    HW230154   3.510   5.309   2.583  0.3047 -3.0366  1.3839
 9922SOL     OW30155   1.187   4.407   1.685 -0.3268 -0.3899  0.3514
 9922SOL    HW130156   1.200   4.456   1.767  1.9673  1.0006 -0.7396
 9922SOL    HW230157   1.151   4.472   1.624  0.9647 -0.5085 -0.5872
 9923SOL     OW30158   1.760   4.306   5.348 -0.2545 -0.5058 -0.0239
 9923SOL    HW130159   1.701   4.377   5.374  0.0862 -0.2048 -0.0713
 9923SOL    HW230160   1.739   4.291   5.256 -0.5603 -0.6950  0.0757
 9924SOL     OW30161   4.192   2.082   3.448  0.3263 -0.2759  0.3640
 9924SOL    HW130162   4.198   2.022   3.522 -0.0671 -0.4597  0.2510
 9924SOL    HW230163   4.101   2.112   3.448  0.6686  0.8358  0.8190
 9925SOL     OW30164   1.209   1.721   6.445 -0.2626  0.7738  0.5012
 9925SOL    HW130165   1.232   1.811   6.422 -0.1156  0.6207  0.0112
 9925SOL    HW230166   1.149   1.693   6.375  0.9948 -0.0445 -0.3064
 9926SOL     OW30167   3.049   0.053   6.744 -0.0906  0.0239 -0.3229
 9926SOL    HW130168   3.105  -0.012   6.702  0.5854 -1.3425  2.4629
 9926SOL    HW230169   2.962   0.011   6.748  0.2037 -0.5312  0.9134
 9927SOL     OW30170   1.387   0.435   1.740 -0.5595 -0.2051  0.4416
 9927SOL    HW130171   1.458   0.492   1.771 -0.2568  1.2205 -2.5105
 9927SOL    HW230172   1.307   0.477   1.772 -0.2319  0.7426  0.0693
 9928SOL     OW30173   3.127   1.296   2.891 -0.1611  0.0071 -0.5741
 9928SOL    HW130174   3.110   1.215   2.939  0.1941  0.3916  0.2222
 9928SOL    HW230175   3.133   1.364   2.959  0.6316  0.5199 -1.1339
 9929SOL     OW30176   4.666   5.059   3.702 -0.3641  0.3079 -0.1120
 9929SOL    HW130177   4.670   4.963   3.706  0.8479  0.2365 -1.6742
 9929SOL    HW230178   4.725   5.082   3.630  1.4480  2.4081  1.8886
 9930SOL     OW30179   5.889   3.736   1.058  0.2878  0.1136 -0.4941
 9930SOL    HW130180   5.980   3.706   1.062  0.0786 -0.4749  0.0480
 9930SOL    HW230181   5.851   3.688   0.984  0.3427  0.1259 -0.5301
 9931SOL     OW30182   0.641   2.811   5.261  0.4758  0.4722  0.1654
 9931SOL    HW130183   0.599   2.845   5.340  0.1548  0.7822 -0.1343
 9931SOL    HW230184   0.603   2.863   5.189 -0.4268 -0.8487 -0.3601
 9932SOL     OW30185   3.257   1.684   5.030  0.0427 -0.1920  0.3418
 9932SOL    HW130186   3.181   1.691   5.088 -0.2479 -1.4880  0.1626
 9932SOL    HW230187   3.312   1.616   5.071 -0.6945 -1.9261 -1.4172
 9933SOL     OW30188   4.093   2.607   5.167  0.4852 -0.1486 -0.2923
 9933SOL    HW130189   4.006   2.579   5.197  0.4948  1.5165  1.4337
 9933SOL    HW230190   4.075   2.673   5.100  0.4688 -0.8350 -0.9912
 9934SOL     OW30191   2.889   1.739   4.836  0.3755 -0.3858 -0.3357
 9934SOL    HW130192   2.868   1.833   4.835 -1.6923 -0.8242 -0.6570
 9934SOL    HW230193   2.946   1.727   4.760  1.8597  0.8313  0.5145
 9935SOL     OW30194   3.950   0.466   0.724  0.0866  0.5566  0.0073
 9935SOL    HW130195   3.910   0.483   0.809  0.0815 -1.5741  0.4829
 9935SOL    HW230196   3.992   0.381   0.734  2.7202  1.6115 -1.2185
 9936SOL     OW30197   2.837   6.624   3.648 -0.3967 -0.0449  0.2936
 9936SOL    HW130198   2.882   6.542   3.668  0.9975  1.0508  1.9276
 9936SOL    HW230199   2.874   6.652   3.564 -0.5430 -0.8368 -0.0453
 9937SOL     OW30200   0.749   4.092   0.122 -0.2406 -0.0522 -0.4302
 9937SOL    HW130201   0.758   4.048   0.038 -2.3078 -0.6296 -0.3963
 9937SOL    HW230202   0.814   4.049   0.178 -0.3048 -1.1303 -1.1538
 9938SOL     OW30203   1.597   2.073   0.664 -0.4382 -0.0108 -0.1115
 9938SOL    HW130204   1.669   2.102   0.608 -0.4231  0.2964  0.0658
 9938SOL    HW230205   1.590   2.140   0.731 -0.4799 -0.3631  0.2390
 9939SOL     OW30206   3.623   0.834   1.113  0.5117 -0.0591  0.0311
 9939SOL    HW130207   3.656   0.837   1.023  1.1330  1.1632  0.2850
 9939SOL    HW230208   3.581   0.919   1.126  0.2477 -0.3041  0.8370
 9940SOL     OW30209   2.119   5.626   6.005 -0.5471  0.7507 -0.0399
 9940SOL    HW130210   2.031   5.597   6.030 -2.0426  2.0476 -3.1930
 9940SOL    HW230211   2.149   5.560   5.943 -0.5886  1.7594 -1.1694
 9941SOL     OW30212   2.726   1.505   3.421 -0.1327  0.1733 -0.3332
 9941SOL    HW130213   2.734   1.536   3.511 -1.1319 -0.5161  0.0047
 9941SOL    HW230214   2.641   1.537   3.392  0.1636  0.3560 -1.0262
 9942SOL     OW30215   1.911   0.762   6.684  0.3565  0.3206 -0.2034
 9942SOL    HW130216   1.914   0.671   6.714  1.0299  0.4038 -0.0175
 9942SOL    HW230217   1.893   0.756   6.591 -0.2688  0.0212 -0.0726
 9943SOL     OW30218   3.169   2.132   2.556  0.3144 -0.2857  0.1059
 9943SOL    HW130219   3.216   2.098   2.479  2.1583 -0.0684  1.0717
 9943SOL    HW230220   3.151   2.055   2.609  0.5143 -0.2498  0.2252
 9944SOL     OW30221   1.557   5.955   1.894  0.6898  0.4314 -0.0117
 9944SOL    HW130222   1.604   5.889   1.843 -1.8480 -1.0855 -0.5784
 9944SOL    HW230223   1.491   5.990   1.833 -0.7751  0.3749  1.4666
 9945SOL     OW30224   0.126   6.276   0.123  0.5085 -0.2867 -0.0830
 9945SOL    HW130225   0.169   6.211   0.069  1.0630  0.4415 -0.5455
 9945SOL    HW230226   0.133   6.242   0.212  0.2584 -1.1340 -0.3791
 9946SOL     OW30227   4.403   4.033   5.505  0.6463  0.1060  0.3108
 9946SOL    HW130228   4.368   4.103   5.561 -1.8439 -1.2105  0.5425
 9946SOL    HW230229   4.466   3.987   5.560  1.2434  1.2717  0.6315
 9947SOL     OW30230   0.354   5.841   4.918 -0.5766 -0.3521 -0.3435
 9947SOL    HW130231   0.430   5.889   4.887  0.9017 -0.6670  2.4600
 9947SOL    HW230232   0.387   5.789   4.991 -3.6075  0.0253  1.4487
 9948SOL     OW30233   4.808   3.443   3.123 -0.1337 -0.4007 -0.3244
 9948SOL    HW130234   4.758   3.394   3.187 -0.7395  1.9292  1.1172
 9948SOL    HW230235   4.744   3.469   3.057 -0.3835  0.5656  0.2729
 9949SOL     OW30236   1.968   0.851   4.185 -0.0304  0.5324  0.1246
 9949SOL    HW130237   1.888   0.799   4.195 -0.6585  1.4742  0.1110
 9949SOL    HW230238   2.020   0.803   4.120 -0.6611  0.0062  0.0006
 9950SOL     OW30239   5.442   1.355   2.950  0.4009 -0.2533  0.2723
 9950SOL    HW130240   5.436   1.450   2.943  0.1575 -0.3962 -2.5072
 9950SOL    HW230241   5.496   1.340   3.028  1.1665  2.1687  0.2916
 9951SOL     OW30242   1.918   3.650   6.107 -0.2291  0.1241  0.5469
 9951SOL    HW130243   1.873   3.611   6.182 -2.7320 -1.7703 -1.7354
 9951SOL    HW230244   1.856   3.713   6.071  1.4376  1.9647  0.7122
 9952SOL     OW30245   1.817   4.795   0.563 -0.1677 -0.7596 -0.1015
 9952SOL    HW130246   1.857   4.880   0.583  0.4833 -1.0372 -0.1900
 9952SOL    HW230247   1.723   4.811   0.565 -0.0511  0.3903 -1.9576
 9953SOL     OW30248   0.895   3.862   5.475  0.3194  0.6120  0.1481
 9953SOL    HW130249   0.882   3.893   5.565  1.1474  0.6320  0.2708
 9953SOL    HW230250   0.966   3.798   5.482  0.2408  0.4570 -0.4613
 9954SOL     OW30251   3.313   1.436   1.735  0.0694 -0.1308  0.0901
 9954SOL    HW130252   3.369   1.410   1.662 -0.0737 -1.0192  0.2910
 9954SOL    HW230253   3.311   1.532   1.730 -1.9441 -0.1830 -2.6090
 9955SOL     OW30254   1.138   2.944   2.623 -0.1713  0.5455  0.0293
 9955SOL    HW130255   1.095   2.925   2.540  2.5877  1.0991 -1.6593
 9955SOL    HW230256   1.193   2.867   2.640 -0.3350  0.6467  1.1123
 9956SOL     OW30257   3.446   6.333   5.900  0.4816  0.0962 -0.0015
 9956SOL    HW130258   3.410   6.323   5.812 -0.1443  1.7305  0.0232
 9956SOL    HW230259   3.428   6.250   5.943  1.1371 -0.8855 -1.5051
 9957SOL     OW30260   4.313   5.850   0.477  0.0754  0.7000  0.4901
 9957SOL    HW130261   4.406   5.844   0.498  0.2833 -0.6631 -0.6536
 9957SOL    HW230262   4.269   5.848   0.562  1.0861  2.1347  1.0966
 9958SOL     OW30263   0.383   4.475   2.666  0.0857  0.7997  0.0526
 9958SOL    HW130264   0.337   4.425   2.733  2.4374  0.1129  1.2757
 9958SOL    HW230265   0.323   4.547   2.644 -1.8713 -0.4847  0.8810
 9959SOL     OW30266   6.196   0.885   4.284  0.3516 -0.1405  0.5221
 9959SOL    HW130267   6.135   0.915   4.218  0.9642  1.2127  0.5305
 9959SOL    HW230268   6.279   0.873   4.237  1.0636  1.8182  1.1573
 9960SOL     OW30269   1.398   3.586   2.735 -0.2002 -0.3279 -0.2353
 9960SOL    HW130270   1.339   3.625   2.671  1.1762  0.2324 -1.2003
 9960SOL    HW230271   1.384   3.637   2.815 -0.1803  0.5533 -0.7849
 9961SOL     OW30272   5.234   5.077   4.933 -0.5738  0.4301 -0.2282
 9961SOL    HW130273   5.237   4.985   4.907 -0.5837  0.4122 -0.1672
 9961SOL    HW230274   5.150   5.110   4.899 -0.5320  0.4395 -0.3235
 9962SOL     OW30275   5.675   5.516   3.565 -0.1345 -0.8169 -0.6441
 9962SOL    HW130276   5.733   5.444   3.539  1.0071 -0.4933  0.8521
 9962SOL    HW230277   5.735   5.586   3.592 -1.2054  0.8531 -2.3738
 9963SOL     OW30278   0.789   5.122   5.060 -0.0728  0.5326  0.3141
 9963SOL    HW130279   0.771   5.050   5.121 -0.8269  0.9730  0.6343
 9963SOL    HW230280   0.810   5.196   5.117  1.9034  0.2835 -0.0341
 9964SOL     OW30281   0.448   3.349   0.983 -0.6872 -0.5372  0.1671
 9964SOL    HW130282   0.428   3.258   1.000 -1.4580  0.0924  3.0997
 9964SOL    HW230283   0.395   3.398   1.046  0.8786  1.8597 -0.2455
 9965SOL     OW30284   5.707   3.025   0.491  0.3631  0.3988 -0.1139
 9965SOL    HW130285   5.723   2.989   0.579  0.6561  0.1749 -0.2596
 9965SOL    HW230286   5.664   2.953   0.444  1.0042  0.2141 -0.4252
 9966SOL     OW30287   2.426   1.902   0.687 -0.3928  0.0805  0.2035
 9966SOL    HW130288   2.412   1.813   0.721 -0.3781  0.5705  1.5577
 9966SOL    HW230289   2.520   1.907   0.671 -0.2503  0.1319  1.0033
 9967SOL     OW30290   1.634   1.871   0.859 -0.3778 -1.2388  0.1804
 9967SOL    HW130291   1.730   1.873   0.859 -0.3495 -0.0998  1.8967
 9967SOL    HW230292   1.609   1.911   0.776  0.6314 -0.7159  0.1087
 9968SOL     OW30293   3.442   4.630   5.425  0.1601 -0.1353  0.1645
 9968SOL    HW130294   3.502   4.692   5.468  0.2894 -0.1083 -0.0550
 9968SOL    HW230295   3.446   4.551   5.480  1.8080 -0.7968 -0.8476
 9969SOL     OW30296   1.384   6.489   4.538 -0.3307 -0.2544  0.4763
 9969SOL    HW130297   1.396   6.583   4.552  0.2036 -0.1073 -0.7859
 9969SOL    HW230298   1.432   6.471   4.457  1.2560 -2.0107  1.7295
 9970SOL     OW30299   3.792   1.104   3.128 -0.2213 -0.3001  0.1052
 9970SOL    HW130300   3.737   1.052   3.186 -0.8431 -0.0647 -0.2661
 9970SOL    HW230301   3.826   1.174   3.185 -2.5550  1.2139 -0.2464
 9971SOL     OW30302   2.748   5.793   3.613 -0.2688  0.0063 -0.1484
 9971SOL    HW130303   2.665   5.768   3.572  0.3728 -0.6483 -1.0996
 9971SOL    HW230304   2.724   5.815   3.703 -1.7989  1.8741 -0.9138
 9972SOL     OW30305   4.973   4.100   3.064 -0.8235 -0.2024 -0.0829
 9972SOL    HW130306   4.901   4.146   3.108 -0.6610  0.3070 -0.3344
 9972SOL    HW230307   4.980   4.017   3.109  0.5694  1.0230  2.1277
 9973SOL     OW30308   1.804   5.636   3.280  0.0511 -0.1993  0.8667
 9973SOL    HW130309   1.839   5.718   3.246  0.1512  0.4952  2.5347
 9973SOL    HW230310   1.721   5.624   3.235  0.5158  0.2725 -0.1476
 9974SOL     OW30311   1.716   6.414   2.737 -0.3621  0.1922 -0.4706
 9974SOL    HW130312   1.786   6.478   2.720  0.2407 -0.3519 -0.0529
 9974SOL    HW230313   1.725   6.351   2.666  0.2389 -0.4393  0.1524
 9975SOL     OW30314   1.270   6.621   1.466 -0.1379 -0.2193 -0.5704
 9975SOL    HW130315   1.212   6.686   1.426  1.1388  0.7519 -0.9117
 9975SOL    HW230316   1.262   6.637   1.561  0.0909  0.3995 -0.6459
 9976SOL     OW30317   4.356   6.191   3.493  0.0889 -0.0144 -0.0905
 9976SOL    HW130318   4.368   6.099   3.471  0.0307  0.0715 -0.4900
 9976SOL    HW230319   4.444   6.223   3.511  0.3092  0.2460 -1.5466
 9977SOL     OW30320   1.950   0.935   1.165 -0.1548  0.3636 -0.2591
 9977SOL    HW130321   2.031   0.954   1.118 -1.1595  2.2123 -1.3918
 9977SOL    HW230322   1.884   0.930   1.096 -1.3328  1.0000  0.7797
 9978SOL     OW30323   3.007   2.053   3.191 -0.3211  0.4973 -0.3833
 9978SOL    HW130324   2.944   2.064   3.262 -1.7633  0.0409 -1.5393
 9978SOL    HW230325   2.954   2.045   3.112  1.2286  0.9500 -1.5367
 9979SOL     OW30326   4.401   6.043   4.436  0.2662 -0.0888  0.4257
 9979SOL    HW130327   4.369   5.970   4.383  0.3359  1.1626 -1.4105
 9979SOL    HW230328   4.493   6.051   4.414  0.3723  0.2779  0.9782
 9980SOL     OW30329   3.536   1.606   4.231 -0.0545 -0.2130 -0.0837
 9980SOL    HW130330   3.587   1.535   4.272 -1.1926 -1.3829 -0.6070
 9980SOL    HW230331   3.449   1.568   4.218 -0.6111  1.2043 -0.6633
 9981SOL     OW30332   1.486   2.299   4.999  0.9196 -0.4446  0.4104
 9981SOL    HW130333   1.511   2.310   5.091  0.8557 -3.5953  0.9132
 9981SOL    HW230334   1.391   2.294   5.000  0.9093 -0.3129  0.1515
 9982SOL     OW30335   6.674   1.248   0.199 -0.3132  0.3374  0.0197
 9982SOL    HW130336   6.749   1.189   0.188 -0.2151  0.5515 -0.4943
 9982SOL    HW230337   6.597   1.192   0.184 -0.2808  0.0264  0.9508
 9983SOL     OW30338   4.575   1.310   4.637 -0.3214  0.7265 -0.0451
 9983SOL    HW130339   4.574   1.380   4.572  0.4269 -2.7474 -4.3061
 9983SOL    HW230340   4.668   1.299   4.659 -0.4270  0.9653  0.5336
 9984SOL     OW30341   1.907   3.567   5.213 -0.1687  0.1638 -0.2425
 9984SOL    HW130342   1.816   3.553   5.239  0.0393  0.3903  0.6445
 9984SOL    HW230343   1.951   3.485   5.235  0.1665  0.6273  0.8850
 9985SOL     OW30344   4.637   4.502   1.470 -0.1570 -0.1481  0.0360
 9985SOL    HW130345   4.612   4.584   1.427  0.0615 -0.2168 -0.2244
 9985SOL    HW230346   4.560   4.476   1.519 -0.5773 -0.3219 -0.7026
 9986SOL     OW30347   3.191   6.490   0.254 -0.0391  0.7123 -0.9269
 9986SOL    HW130348   3.120   6.488   0.191 -0.8176  1.1950 -0.0860
 9986SOL    HW230349   3.238   6.572   0.234 -1.2639  1.7225  0.1297
 9987SOL     OW30350   3.288   5.917   4.604  0.7245 -0.3073 -0.3328
 9987SOL    HW130351   3.383   5.922   4.616  0.8231  0.3973 -1.3523
 9987SOL    HW230352   3.253   5.915   4.694  1.5648  2.0689  0.1120
 9988SOL     OW30353   1.250   3.961   6.801 -0.3658  0.3874  0.2915
 9988SOL    HW130354   1.290   3.981   6.716 -0.6301 -0.5926 -0.0760
 9988SOL    HW230355   1.324   3.945   6.859 -0.2010  0.2087  0.0338
 9989SOL     OW30356   6.597   1.975   1.162 -0.2487 -0.0446 -0.4088
 9989SOL    HW130357   6.512   2.013   1.181 -0.1189  1.5587 -2.5907
 9989SOL    HW230358   6.637   1.959   1.247 -2.3485 -0.0049  0.6360
 9990SOL     OW30359   2.188   2.301   0.884  0.2181 -0.6188 -0.5556
 9990SOL    HW130360   2.230   2.243   0.821  0.8345  0.0234 -0.7387
 9990SOL    HW230361   2.226   2.387   0.868  0.4102 -0.4476  0.7186
 9991SOL     OW30362   5.553   5.411   3.963  0.3194 -0.0662 -0.0697
 9991SOL    HW130363   5.622   5.460   3.919 -1.3899  1.0961 -1.6550
 9991SOL    HW230364   5.552   5.326   3.918  1.9788 -0.8910  1.3401
 9992SOL     OW30365   3.028   5.803   6.009  0.0918 -0.3735 -0.2798
 9992SOL    HW130366   3.055   5.713   5.990  2.0319  0.1835 -0.3486
 9992SOL    HW230367   3.105   5.844   6.048  0.0483  1.9019 -2.3338
 9993SOL     OW30368   0.601   0.854   1.608  0.1082  0.9362 -0.4121
 9993SOL    HW130369   0.544   0.914   1.560 -2.2972  0.3519  1.5391
 9993SOL    HW230370   0.548   0.776   1.622  1.2024  0.5074  1.8188
 9994SOL     OW30371   0.162   3.585   2.206  0.1250  0.7951  0.3041
 9994SOL    HW130372   0.171   3.492   2.184 -0.8100  0.7701 -0.0395
 9994SOL    HW230373   0.251   3.616   2.218  0.4751 -0.0246 -0.1218
 9995SOL     OW30374   3.051   5.252   4.387 -0.0237  0.3458  0.6088
 9995SOL    HW130375   2.974   5.291   4.344  0.7945  1.2003 -0.1161
 9995SOL    HW230376   3.014   5.184   4.445 -1.1662 -0.8655 -1.4362
 9996SOL     OW30377   1.687   4.323   2.717  0.1212 -0.1011  0.2465
 9996SOL    HW130378   1.762   4.325   2.776  0.9693  2.3272 -0.7785
 9996SOL    HW230379   1.629   4.392   2.749 -0.3145 -0.0404 -0.6494
 9997SOL     OW30380   6.421   4.177   2.685 -0.2583 -0.9186  0.4122
 9997SOL    HW130381   6.393   4.203   2.597 -2.5945  0.8210  1.5620
 9997SOL    HW230382   6.515   4.195   2.686 -0.3777  0.0351 -1.4157
 9998SOL     OW30383   5.568   5.427   6.052  0.4620 -0.3966 -0.9060
 9998SOL    HW130384   5.617   5.344   6.051  1.3261  0.0944 -0.5599
 9998SOL    HW230385   5.560   5.448   6.145  0.9373  0.2995 -1.0153
 9999SOL     OW30386   4.973   2.009   0.820 -0.3842  0.7660  0.6313
 9999SOL    HW130387   4.986   2.011   0.725 -1.8313  0.1373  0.3910
 9999SOL    HW230388   4.946   2.099   0.841 -2.3019  0.3630  0.0583
10000SOL     OW30389   1.309   6.551   0.017  0.2783 -0.4203 -0.1914
10000SOL    HW130390   1.215   6.562   0.027  0.3970  0.1045  0.3512
10000SOL    HW230391   1.347   6.591   0.095  0.9548 -0.5604 -0.4420
10001SOL     OW30392   3.870   5.305   1.230  1.0075  0.6505  0.0540
10001SOL    HW130393   3.922   5.368   1.181  2.7727  0.8472  2.0710
10001SOL    HW230394   3.929   5.271   1.297 -0.5111 -1.5910  0.3844
10002SOL     OW30395   0.671   1.621   2.467 -0.3269  0.4427 -0.0797
10002SOL    HW130396   0.710   1.620   2.555 -1.0674 -0.6331  0.2597
10002SOL    HW230397   0.716   1.550   2.421  0.9329  1.7787 -1.0006
10003SOL     OW30398   2.943   0.729   6.640 -0.1882 -0.1919  0.2357
10003SOL    HW130399   2.893   0.672   6.699 -0.6040  0.8697  0.9312
10003SOL    HW230400   3.034   0.702   6.653 -0.4951 -1.8010 -0.6751
10004SOL     OW30401   1.301   6.775   4.555  0.5548 -0.4887 -0.3708
10004SOL    HW130402   1.259   6.825   4.625  1.0556  1.7216 -1.5727
10004SOL    HW230403   1.232   6.763   4.489  0.8181 -0.1359 -0.7118
10005SOL     OW30404   1.291   1.540   1.622  0.0270 -0.0306  0.2679
10005SOL    HW130405   1.316   1.450   1.600  0.7553  0.0258  0.8243
10005SOL    HW230406   1.210   1.554   1.574 -0.8266 -1.4422  1.1985
10006SOL     OW30407   6.374   4.815   3.905  0.2475  0.4071 -0.0545
10006SOL    HW130408   6.358   4.904   3.936  0.6087  1.0412 -1.6189
10006SOL    HW230409   6.287   4.779   3.890  0.1164  0.9576 -0.6496
10007SOL     OW30410   6.527   3.426   1.969  0.7185 -0.3358 -0.4241
10007SOL    HW130411   6.461   3.378   1.920  0.2664  0.0099 -0.1645
10007SOL    HW230412   6.580   3.358   2.011 -0.9453 -0.6479  1.3261
10008SOL     OW30413   6.087   4.668   0.943  0.3113  0.4616 -0.5075
10008SOL    HW130414   6.134   4.591   0.913 -0.0126  0.4117 -0.8957
10008SOL    HW230415   6.135   4.697   1.020  1.0577  0.4849 -0.9654
10009SOL     OW30416   4.986   2.379   4.340 -0.9047  0.2026 -0.0525
10009SOL    HW130417   5.002   2.400   4.432 -0.4391  0.5705 -0.2122
10009SOL    HW230418   5.072   2.384   4.299 -0.6668 -2.4980 -0.0256
10010SOL     OW30419   5.604   5.465   0.456 -0.3363 -0.1453  0.1228
10010SOL    HW130420   5.613   5.552   0.495  1.9577  0.8845 -2.4317
10010SOL    HW230421   5.659   5.409   0.511 -0.1760  0.4453  0.5779
10011SOL     OW30422   2.818   4.473   5.782 -0.0158 -0.8767 -0.1426
10011SOL    HW130423   2.769   4.554   5.769  2.3003  0.7756  0.7961
10011SOL    HW230424   2.829   4.437   5.693  0.1777  0.6167 -0.7406
10012SOL     OW30425   3.919   4.319   6.372  0.6661  0.2462 -0.4083
10012SOL    HW130426   3.836   4.361   6.396  0.5153 -0.1751 -0.1917
10012SOL    HW230427   3.894   4.241   6.323  0.9713  1.0712 -1.9488
10013SOL     OW30428   2.813   1.965   3.946 -0.0356 -0.3542 -0.1042
10013SOL    HW130429   2.851   2.050   3.968 -2.0568  0.2612  1.2398
10013SOL    HW230430   2.725   1.985   3.914  0.0961 -1.8406 -1.5005
10014SOL     OW30431   4.904   6.033   3.612 -0.0094  0.0074  0.1491
10014SOL    HW130432   4.815   6.014   3.582  0.1852  0.5713 -0.8520
10014SOL    HW230433   4.912   6.128   3.605  0.3080  0.0787  1.3224
10015SOL     OW30434   4.676   3.907   1.494  0.2870 -0.2038 -0.1237
10015SOL    HW130435   4.750   3.879   1.548  1.7147  0.1908 -1.7855
10015SOL    HW230436   4.629   3.827   1.473  1.8687 -0.8447 -1.3331
10016SOL     OW30437   2.150   5.663   6.666 -0.1594  0.0054  0.1367
10016SOL    HW130438   2.060   5.640   6.688 -0.2196  0.4385  0.3634
10016SOL    HW230439   2.148   5.759   6.656  0.1578 -0.0396 -0.3992
10017SOL     OW30440   0.971   3.466   0.812 -0.2623  0.3954  0.2337
10017SOL    HW130441   1.005   3.407   0.879  1.6390  1.8754  0.6671
10017SOL    HW230442   0.883   3.488   0.843 -0.0092 -0.1816  1.4285
10018SOL     OW30443   4.691   5.324   6.642 -0.7440  0.4986 -0.0290
10018SOL    HW130444   4.635   5.299   6.568 -1.3627  1.3873  0.1338
10018SOL    HW230445   4.633   5.324   6.718 -0.1382 -0.2770  0.4541
10019SOL     OW30446   3.743   4.232   2.879  0.2123  0.3350 -0.2018
10019SOL    HW130447   3.771   4.142   2.867 -0.4790 -0.0503  0.9296
10019SOL    HW230448   3.660   4.226   2.927 -0.0365  1.5510 -0.4384
10020SOL     OW30449   6.805   6.161   1.487  0.2401 -0.1642  0.2871
10020SOL    HW130450   6.885   6.179   1.438 -1.2232  0.1842 -2.1728
10020SOL    HW230451   6.737   6.157   1.420 -2.0313  0.8811  2.3771
10021SOL     OW30452   1.537   2.285   1.816  0.0892  0.3002 -0.6952
10021SOL    HW130453   1.475   2.281   1.889  0.7289  1.0005 -0.1103
10021SOL    HW230454   1.523   2.371   1.777 -0.9243 -0.4250 -2.0227
10022SOL     OW30455   5.512   3.122   5.783  0.3728 -0.3376  0.0703
10022SOL    HW130456   5.581   3.058   5.765  1.4830  0.4819  1.1662
10022SOL    HW230457   5.555   3.188   5.838 -0.4487  1.8962 -1.8266
10023SOL     OW30458   4.698   1.091   3.413  0.1320 -0.0629 -0.3142
10023SOL    HW130459   4.670   1.063   3.326  0.3586 -1.1906 -0.0421
10023SOL    HW230460   4.773   1.149   3.397  0.4700 -0.6375 -0.8666
10024SOL     OW30461   0.744   4.528   2.650  0.3255  0.0504 -0.3383
10024SOL    HW130462   0.703   4.443   2.659  1.9825 -0.8206 -0.6315
10024SOL    HW230463   0.700   4.568   2.575 -0.8068 -0.3252  0.1162
10025SOL     OW30464   4.788   4.633   6.283 -0.5073 -0.9127 -0.4333
10025SOL    HW130465   4.881   4.645   6.303 -0.9587 -1.6575  2.6624
10025SOL    HW230466   4.787   4.576   6.206  1.7231 -3.7341  1.4193
10026SOL     OW30467   2.061   6.407   2.646  0.1594  0.6495 -0.3488
10026SOL    HW130468   2.088   6.473   2.583  1.5912 -0.1168 -0.5753
10026SOL    HW230469   2.132   6.343   2.646 -0.9800 -0.6749  0.1727
10027SOL     OW30470   4.150   2.070   2.678  0.3127  0.1954  0.3997
10027SOL    HW130471   4.155   2.139   2.745 -1.7294  1.4634 -0.6717
10027SOL    HW230472   4.120   1.992   2.726 -2.5055  1.4305  0.8429
10028SOL     OW30473   2.358   0.255   1.899 -0.0036 -0.5055  0.4230
10028SOL    HW130474   2.355   0.167   1.860 -0.8811 -1.2613  2.1002
10028SOL    HW230475   2.337   0.314   1.826  0.8715 -1.6331 -0.7982
10029SOL     OW30476   1.319   3.819   6.000 -0.0103  0.1528 -0.5807
10029SOL    HW130477   1.269   3.879   5.945 -0.6764  0.0524 -0.1070
10029SOL    HW230478   1.254   3.755   6.030  0.2583  0.3969  0.5811
10030SOL     OW30479   6.103   2.337   0.079  0.0588 -0.5340 -0.2307
10030SOL    HW130480   6.033   2.288   0.037 -0.3454 -1.3628  1.3246
10030SOL    HW230481   6.178   2.328   0.020 -0.0922 -2.7948 -0.1456
10031SOL     OW30482   6.070   3.532   2.247  0.1839  0.4193  0.3053
10031SOL    HW130483   6.085   3.456   2.191  1.0793  0.2047  0.8169
10031SOL    HW230484   6.152   3.581   2.245 -0.0212  0.7990  0.8328
10032SOL     OW30485   3.249   6.734   0.176 -0.0593 -0.1668  0.6495
10032SOL    HW130486   3.230   6.828   0.183 -1.4308 -0.3037 -0.6353
10032SOL    HW230487   3.261   6.719   0.082  0.2212 -1.2682  0.8457
10033SOL     OW30488   4.802   0.480   2.830  0.2864 -0.1827  0.0167
10033SOL    HW130489   4.797   0.575   2.831  0.2775 -0.1689 -0.8588
10033SOL    HW230490   4.753   0.453   2.752 -0.0081 -0.9265  0.4397
10034SOL     OW30491   3.021   2.270   2.022  0.1873  0.7056 -0.1723
10034SOL    HW130492   3.111   2.286   2.050  0.1648  1.7886 -0.6623
10034SOL    HW230493   3.028   2.203   1.954  0.4989 -0.0078  0.5424
10035SOL     OW30494   6.454   0.443   0.207  0.1951  0.3175  0.2545
10035SOL    HW130495   6.484   0.384   0.138 -2.5596 -0.6716 -0.2358
10035SOL    HW230496   6.456   0.530   0.166  0.1986 -0.0342 -0.5034
10036SOL     OW30497   3.509   1.374   3.774  0.2568 -0.1569 -0.5488
10036SOL    HW130498   3.465   1.377   3.858 -0.3003 -2.1275 -0.7238
10036SOL    HW230499   3.499   1.463   3.738  0.5022  0.7153  1.4168
10037SOL     OW30500   5.054   1.656   3.415  0.2544 -0.3332 -0.1347
10037SOL    HW130501   4.969   1.638   3.374 -0.1053 -0.3186  0.5935
10037SOL    HW230502   5.047   1.747   3.444 -0.7286 -1.2492  2.8263
10038SOL     OW30503   3.938   3.297   6.004 -0.4400 -0.0354 -0.3064
10038SOL    HW130504   3.975   3.223   5.956 -1.8520 -0.1778 -1.2335
10038SOL    HW230505   3.954   3.372   5.948  0.5343  0.3020  0.3984
10039SOL     OW30506   6.627   6.043   2.100 -0.4951 -0.2101 -0.1327
10039SOL    HW130507   6.553   5.995   2.139 -1.3627  0.7601 -0.5208
10039SOL    HW230508   6.680   5.976   2.059 -0.8581 -0.9977  0.6500
10040SOL     OW30509   5.960   1.030   2.129 -0.1488 -0.2917 -0.6562
10040SOL    HW130510   6.011   1.110   2.116 -0.5423 -0.2758 -2.3863
10040SOL    HW230511   6.010   0.962   2.084 -0.4021 -0.7917 -0.1980
10041SOL     OW30512   6.030   4.333   1.321  0.3205  0.3861  0.1821
10041SOL    HW130513   6.086   4.320   1.245  0.2389 -1.7546  0.4225
10041SOL    HW230514   5.941   4.316   1.288  0.1198  0.9967  0.4084
10042SOL     OW30515   1.061   6.390   2.535 -0.5321  0.1340 -0.3382
10042SOL    HW130516   1.002   6.444   2.483  0.2709  0.2898 -1.1125
10042SOL    HW230517   1.003   6.333   2.586 -1.4497  2.2838  1.1727
10043SOL     OW30518   4.859   3.604   1.182 -0.2857  0.1029  0.3380
10043SOL    HW130519   4.878   3.673   1.246 -2.3413  1.2436 -0.1960
10043SOL    HW230520   4.940   3.594   1.132 -0.2705  2.9953 -0.3416
10044SOL     OW30521   0.391   1.053   1.971 -0.3278 -0.0579 -0.1812
10044SOL    HW130522   0.336   0.993   1.920 -0.8228 -0.1877  0.4923
10044SOL    HW230523   0.473   1.056   1.923 -0.2908 -1.2958 -0.2261
10045SOL     OW30524   6.091   3.408   5.868  0.0882 -0.0303 -0.3790
10045SOL    HW130525   6.157   3.405   5.799  2.5029  0.1224  1.7641
10045SOL    HW230526   6.140   3.432   5.947 -1.9427 -3.0979  2.0356
10046SOL     OW30527   3.727   4.016   4.099  0.3910  0.0554  0.1563
10046SOL    HW130528   3.695   4.096   4.059 -0.9458 -0.7373 -0.4316
10046SOL    HW230529   3.717   3.949   4.031  1.3623 -0.6482  0.6664
10047SOL     OW30530   4.537   3.749   4.887 -0.2396 -0.6348 -0.5401
10047SOL    HW130531   4.587   3.822   4.853 -0.4342 -1.4052 -2.6233
10047SOL    HW230532   4.599   3.700   4.941 -0.3994  1.5849  1.8237
10048SOL     OW30533   2.410   1.235   3.500  0.7876 -0.0935  0.6630
10048SOL    HW130534   2.343   1.226   3.567 -1.0926 -0.8263 -1.2100
10048SOL    HW230535   2.405   1.327   3.473  1.0800  0.0340  1.0280
10049SOL     OW30536   4.068   0.136   2.599  0.0435  0.0243  0.1895
10049SOL    HW130537   4.152   0.092   2.584  0.1449  0.3795 -0.3027
10049SOL    HW230538   4.089   0.206   2.661 -0.1471 -0.7015  1.0922
10050SOL     OW30539   3.796   2.135   1.002 -0.3034 -0.2970 -0.1399
10050SOL    HW130540   3.889   2.117   1.014 -0.3017  0.2343  0.7107
10050SOL    HW230541   3.775   2.201   1.068 -1.6021 -1.4469  0.6594
10051SOL     OW30542   2.307   1.130   3.077 -0.5186 -0.0451 -0.0937
10051SOL    HW130543   2.300   1.082   2.994  1.0379 -1.6375  0.6281
10051SOL    HW230544   2.397   1.162   3.078 -0.8167  0.8024  0.5549
10052SOL     OW30545   2.158   0.098   6.573 -0.2021 -0.1417 -0.0216
10052SOL    HW130546   2.077   0.051   6.555 -0.7250 -0.3966  2.6370
10052SOL    HW230547   2.132   0.190   6.583 -0.1939 -0.2234  0.8406
10053SOL     OW30548   2.247   0.165   3.623 -0.2172  0.0426 -0.0468
10053SOL    HW130549   2.165   0.197   3.585  0.2442 -1.2748 -2.3219
10053SOL    HW230550   2.250   0.073   3.598  1.4384 -0.2100  0.9718
10054SOL     OW30551   1.469   5.241   2.306  0.9995  0.0585  0.4548
10054SOL    HW130552   1.383   5.248   2.346  1.6518 -2.0100  2.4843
10054SOL    HW230553   1.487   5.328   2.272 -0.7120  1.3320  2.5209
10055SOL     OW30554   5.089   0.893   2.923 -0.6287  0.3663  0.0454
10055SOL    HW130555   5.166   0.935   2.884 -1.6450  1.7387 -0.5953
10055SOL    HW230556   5.019   0.910   2.860 -1.3407 -1.4120  0.3052
10056SOL     OW30557   5.317   1.016   2.809 -0.7285  0.7526  0.7479
10056SOL    HW130558   5.372   1.014   2.731 -1.2061  0.6580  0.4094
10056SOL    HW230559   5.342   1.097   2.854 -1.0500  1.2522  0.0563
10057SOL     OW30560   3.079   2.179   5.811  0.2441 -0.6068  0.1645
10057SOL    HW130561   3.133   2.132   5.748  0.9499  1.3055 -0.7151
10057SOL    HW230562   2.998   2.199   5.763  1.6152  2.7734 -1.0399
10058SOL     OW30563   2.340   2.440   4.246  0.4039  0.5183 -0.5201
10058SOL    HW130564   2.252   2.439   4.283  0.6417 -0.3864  0.0493
10058SOL    HW230565   2.397   2.456   4.321  1.0196 -2.8533 -0.1000
10059SOL     OW30566   2.473   0.962   0.648 -0.0109 -0.1104 -0.4241
10059SOL    HW130567   2.394   0.999   0.688  0.1601  0.3796 -0.5284
10059SOL    HW230568   2.500   1.029   0.585 -0.5775 -1.0877 -1.7465
10060SOL     OW30569   6.585   5.682   5.890 -0.5059  0.2197  0.1043
10060SOL    HW130570   6.550   5.654   5.975 -0.2264 -0.4192  0.0150
10060SOL    HW230571   6.509   5.687   5.833 -0.5226 -0.7197  0.0288
10061SOL     OW30572   0.231   3.694   2.549 -0.5060 -0.2439 -0.1935
10061SOL    HW130573   0.305   3.744   2.514 -0.2297 -1.5039 -1.4654
10061SOL    HW230574   0.203   3.744   2.626  1.7124  0.2208  0.3780
10062SOL     OW30575   1.013   0.922   2.246 -0.5712  0.6379 -0.3137
10062SOL    HW130576   0.978   0.885   2.327 -1.2010 -0.0760 -0.8959
10062SOL    HW230577   1.071   0.854   2.212 -1.4857  0.2890 -1.2279
10063SOL     OW30578   3.931   6.133   6.417 -0.4787  0.2145 -0.1729
10063SOL    HW130579   3.840   6.104   6.411 -0.3682 -0.4981  1.1127
10063SOL    HW230580   3.963   6.095   6.499  1.1379  0.0238 -0.8488
10064SOL     OW30581   4.419   2.923   1.284 -0.2903 -0.2035  0.2547
10064SOL    HW130582   4.468   3.005   1.278 -1.7662  0.6292 -1.1123
10064SOL    HW230583   4.428   2.883   1.197 -1.1790 -0.5389  0.3073
10065SOL     OW30584   5.305   3.772   3.490 -0.5615  0.6488  0.1090
10065SOL    HW130585   5.331   3.864   3.494  1.8555  0.0955 -0.8946
10065SOL    HW230586   5.321   3.739   3.579  0.4052  0.7959  0.0062
10066SOL     OW30587   5.750   3.114   2.766 -0.0049 -0.5612  0.2806
10066SOL    HW130588   5.792   3.044   2.718 -0.8812  0.7428 -2.6270
10066SOL    HW230589   5.730   3.076   2.852 -2.1158 -4.5268 -1.7011
10067SOL     OW30590   5.442   4.621   1.669 -0.2778 -0.8861  0.1803
10067SOL    HW130591   5.499   4.652   1.739  0.1145 -1.3378  0.0587
10067SOL    HW230592   5.496   4.626   1.590 -0.4391 -1.2093  0.0475
10068SOL     OW30593   4.647   4.062   0.086  0.4351  0.0058 -0.0231
10068SOL    HW130594   4.692   3.980   0.063  0.1293 -0.3996  0.7603
10068SOL    HW230595   4.554   4.037   0.091  0.4913  0.0171  1.7282
10069SOL     OW30596   4.727   1.482   4.475 -0.1739  0.7744 -0.2987
10069SOL    HW130597   4.747   1.526   4.558 -0.1911  0.2610 -0.0196
10069SOL    HW230598   4.705   1.553   4.415 -0.1645  1.1506  0.1387
10070SOL     OW30599   5.985   2.660   3.808  0.1770  0.0456 -0.7600
10070SOL    HW130600   6.016   2.592   3.868 -1.1260 -0.2478 -0.3754
10070SOL    HW230601   5.944   2.725   3.866 -0.1487  0.2882 -1.2576
10071SOL     OW30602   4.007   4.082   3.608 -0.5471  0.0912 -0.4944
10071SOL    HW130603   4.073   4.101   3.541  0.7755  0.3961  0.8205
10071SOL    HW230604   4.046   4.012   3.660 -1.4789 -0.0522  0.0242
10072SOL     OW30605   2.619   3.579   6.166  0.5148 -0.0896  0.7538
10072SOL    HW130606   2.527   3.606   6.162  0.2228 -0.9789  1.3060
10072SOL    HW230607   2.668   3.662   6.171 -0.1507  0.4507 -0.9380
10073SOL     OW30608   6.060   4.927   0.604  0.3438  0.7311  0.4434
10073SOL    HW130609   6.018   4.884   0.529  0.5719 -0.0751  0.7669
10073SOL    HW230610   6.126   4.984   0.565  0.5200  0.2497  0.0244
10074SOL     OW30611   6.519   6.487   0.052  0.2951 -0.3101 -0.2539
10074SOL    HW130612   6.551   6.558   0.107 -1.4033 -1.8072  2.9649
10074SOL    HW230613   6.572   6.411   0.077 -1.3276 -1.3085  0.3594
10075SOL     OW30614   5.592   2.750   4.491 -0.2402  0.6139 -0.6327
10075SOL    HW130615   5.570   2.830   4.539 -2.8960  0.0685 -0.7896
10075SOL    HW230616   5.652   2.779   4.422  0.6202  2.0417  0.6460
10076SOL     OW30617   2.780   0.166   4.354  0.3256  0.1515  0.5951
10076SOL    HW130618   2.859   0.135   4.398 -0.0408 -0.5244  0.7924
10076SOL    HW230619   2.709   0.150   4.417 -0.1275 -0.3437 -0.0276
10077SOL     OW30620   5.807   1.552   4.367  0.1389  0.1565 -0.3503
10077SOL    HW130621   5.749   1.494   4.317  1.0920 -0.8276 -0.3566
10077SOL    HW230622   5.765   1.638   4.362 -2.4933 -0.8771  1.4542
10078SOL     OW30623   5.382   3.743   1.876 -0.0845  0.4129 -0.4459
10078SOL    HW130624   5.406   3.835   1.873  2.6469 -0.1179  1.4657
10078SOL    HW230625   5.434   3.702   1.806 -0.6009  0.1638 -0.6935
10079SOL     OW30626   1.642   1.296   2.277 -0.3123  0.1155 -0.2950
10079SOL    HW130627   1.585   1.311   2.201 -1.1119 -2.2961 -0.2806
10079SOL    HW230628   1.731   1.311   2.244 -0.6903 -0.3279 -1.5721
10080SOL     OW30629   5.008   1.472   0.783  0.2593  0.3453  0.2505
10080SOL    HW130630   5.037   1.481   0.874  0.4285 -0.8515  0.3380
10080SOL    HW230631   4.955   1.392   0.783 -0.1352  0.5968 -0.6097
10081SOL     OW30632   6.305   3.270   0.255  0.4019  0.2004  0.5153
10081SOL    HW130633   6.337   3.241   0.169  1.0096 -0.7323  1.0429
10081SOL    HW230634   6.269   3.357   0.238 -1.4228 -0.7925 -1.0920
10082SOL     OW30635   6.621   5.561   1.725  0.1342 -0.2049 -0.4167
10082SOL    HW130636   6.641   5.599   1.639 -1.2116 -0.7116 -0.9839
10082SOL    HW230637   6.550   5.500   1.708 -0.2153 -0.2568  1.0907
10083SOL     OW30638   1.798   1.582   1.473  0.3816 -0.7238  0.2033
10083SOL    HW130639   1.769   1.642   1.542  1.9334  0.0824  0.2080
10083SOL    HW230640   1.880   1.545   1.506  0.1458 -1.8146 -0.3925
10084SOL     OW30641   1.777   4.033   0.510  0.2070  0.0997 -0.0678
10084SOL    HW130642   1.707   3.990   0.559  0.5867  0.0675  0.4649
10084SOL    HW230643   1.750   4.124   0.503  1.0830  0.6011  2.0612
10085SOL     OW30644   5.216   0.725   5.158  0.1295  0.1249 -0.3731
10085SOL    HW130645   5.192   0.724   5.250  0.5350  0.3749 -0.2608
10085SOL    HW230646   5.286   0.790   5.152  0.5375 -0.3466 -0.7501
10086SOL     OW30647   5.020   6.212   2.138  0.7134 -0.4782  0.3826
10086SOL    HW130648   4.956   6.195   2.068  0.8610  2.3271 -0.5698
10086SOL    HW230649   4.974   6.268   2.200  2.7319  3.7890 -1.5953
10087SOL     OW30650   5.079   2.770   2.065 -0.2502  0.6045  0.1403
10087SOL    HW130651   5.001   2.778   2.011  0.4860 -2.5909 -1.6590
10087SOL    HW230652   5.051   2.717   2.140  0.4991 -2.7271 -1.7282
10088SOL     OW30653   3.539   2.810   2.633  0.5360 -0.1821  0.2833
10088SOL    HW130654   3.589   2.730   2.647 -0.1991 -0.5660  0.7420
10088SOL    HW230655   3.448   2.785   2.645  0.3416  0.8991  1.3864
10089SOL     OW30656   3.791   6.145   2.844 -0.6136  0.0936 -0.3989
10089SOL    HW130657   3.830   6.195   2.772 -0.9045  0.4166 -0.3345
10089SOL    HW230658   3.857   6.078   2.865 -0.2071  0.4655 -0.4698
10090SOL     OW30659   5.876   2.310   5.337 -0.0210  0.6568 -0.5343
10090SOL    HW130660   5.800   2.253   5.347 -0.6879  1.5490 -0.2914
10090SOL    HW230661   5.872   2.341   5.247  0.0914  0.6535 -0.5412
10091SOL     OW30662   4.928   0.890   2.694  0.5112  0.4501  0.5915
10091SOL    HW130663   4.851   0.833   2.693  0.6430  0.2408 -1.4396
10091SOL    HW230664   4.893   0.978   2.690  0.3453  0.3402 -0.8980
10092SOL     OW30665   0.509   3.671   5.221 -0.4863  0.1470  0.3577
10092SOL    HW130666   0.595   3.700   5.253  0.4098 -2.0243  0.1370
10092SOL    HW230667   0.484   3.737   5.156  0.8798  0.9942  0.6451
10093SOL     OW30668   6.111   2.293   2.491 -0.0420 -0.1310 -0.3623
10093SOL    HW130669   6.116   2.215   2.436 -2.8808  0.1536 -1.2247
10093SOL    HW230670   6.169   2.356   2.450  1.4535 -1.4073 -0.2780
10094SOL     OW30671   1.163   0.145   3.880  0.2473 -0.3212 -0.1578
10094SOL    HW130672   1.165   0.122   3.787  0.2152  0.4237 -0.3500
10094SOL    HW230673   1.256   0.150   3.905  0.2532 -0.9346 -0.0363
10095SOL     OW30674   6.519   4.759   2.394  0.2246  0.0550 -0.3129
10095SOL    HW130675   6.529   4.752   2.489 -0.8213  1.5662 -0.0560
10095SOL    HW230676   6.569   4.685   2.359  0.7286 -0.4580  1.3982
10096SOL     OW30677   5.470   5.194   5.602  0.5223  0.7179 -0.3356
10096SOL    HW130678   5.560   5.175   5.625  1.0538  0.4361 -2.3840
10096SOL    HW230679   5.425   5.208   5.685  2.0242 -1.0094  0.8390
10097SOL     OW30680   0.280   2.986   4.991 -0.3616  0.0186  0.4952
10097SOL    HW130681   0.261   2.981   4.898 -1.2754 -0.6282  0.6933
10097SOL    HW230682   0.208   3.037   5.028 -1.5531 -2.0474  1.2019
10098SOL     OW30683   6.702   6.210   3.970  0.1301 -0.0373  0.2204
10098SOL    HW130684   6.743   6.271   3.909  0.1114  0.0367  0.2831
10098SOL    HW230685   6.724   6.244   4.057 -0.4096  0.2301  0.2542
10099SOL     OW30686   6.613   0.736   3.367  0.1475  0.3958  0.3622
10099SOL    HW130687   6.534   0.690   3.396  0.6101 -1.2471 -0.8136
10099SOL    HW230688   6.651   0.678   3.301  1.8916  1.5432  0.3006
10100SOL     OW30689   5.490   5.495   0.789 -0.3525 -0.2460  0.6446
10100SOL    HW130690   5.584   5.489   0.804 -0.3699 -0.6695  0.5911
10100SOL    HW230691   5.478   5.579   0.745  0.4013 -1.5893 -2.4220
10101SOL     OW30692   5.702   5.430   0.023  0.5496  0.4409  0.4499
10101SOL    HW130693   5.666   5.431  -0.066  2.5167  0.2756 -0.3841
10101SOL    HW230694   5.795   5.413   0.012  1.0852  1.6608  2.4881
10102SOL     OW30695   2.175   5.191   4.994  0.1831  0.1607 -0.3914
10102SOL    HW130696   2.141   5.130   5.060  0.7325 -0.0583 -0.3073
10102SOL    HW230697   2.098   5.215   4.943 -0.0120 -0.8003 -0.5818
10103SOL     OW30698   5.879   2.185   6.828 -0.2802 -0.2968  0.1233
10103SOL    HW130699   5.841   2.220   6.909 -0.7958  0.0739 -0.2676
10103SOL    HW230700   5.806   2.140   6.786 -0.3901  0.6746 -0.7853
10104SOL     OW30701   4.236   3.565   3.977 -0.3682  0.1594  0.5960
10104SOL    HW130702   4.166   3.619   3.939  0.0626 -0.6433 -1.4961
10104SOL    HW230703   4.300   3.628   4.009 -1.5293  0.8949  1.5762
10105SOL     OW30704   1.579   0.280   3.651  0.0793 -0.7412  0.7431
10105SOL    HW130705   1.541   0.367   3.639 -0.5139 -0.9717  0.9139
10105SOL    HW230706   1.641   0.292   3.723 -0.7226 -0.6614  1.4482
10106SOL     OW30707   4.455   1.062   1.805 -0.4157 -0.2552 -0.1186
10106SOL    HW130708   4.501   1.140   1.773 -2.3008  0.5292 -1.0718
10106SOL    HW230709   4.420   1.020   1.726 -0.5928 -1.3111  0.4994
10107SOL     OW30710   2.725   4.576   6.137 -0.2764  0.1036 -0.1328
10107SOL    HW130711   2.761   4.630   6.208  0.3958 -0.9884  0.3843
10107SOL    HW230712   2.737   4.629   6.058  1.4597  0.2550  0.1959
10108SOL     OW30713   0.961   4.022   2.678  0.2365 -0.8016 -0.4486
10108SOL    HW130714   0.965   4.113   2.647  0.2674 -0.9145 -0.7847
10108SOL    HW230715   0.868   4.002   2.681  0.2561 -1.0926 -1.3887
10109SOL     OW30716   2.739   1.876   6.637  0.8172  0.1077 -0.3048
10109SOL    HW130717   2.709   1.958   6.597  0.7621  0.4967  0.5121
10109SOL    HW230718   2.834   1.876   6.624  0.6709 -0.4122 -1.5857
10110SOL     OW30719   4.565   5.261   6.409  0.3812  0.7978 -0.2508
10110SOL    HW130720   4.540   5.353   6.418 -1.0382  0.3755  0.3393
10110SOL    HW230721   4.646   5.263   6.358  0.5448  2.3864  0.0298
10111SOL     OW30722   1.377   4.059   5.557 -0.0866  0.1042  0.5249
10111SOL    HW130723   1.345   4.086   5.470 -0.6171 -0.1687  0.6308
10111SOL    HW230724   1.407   4.140   5.597  0.8173  0.1377 -0.1744
10112SOL     OW30725   3.459   0.499   4.533  0.4060  0.6496 -0.0863
10112SOL    HW130726   3.380   0.501   4.480 -0.7444 -2.0157  1.3221
10112SOL    HW230727   3.495   0.412   4.520  1.9715  1.1004  0.8966
10113SOL     OW30728   4.820   3.389   5.279  0.5424  0.1845 -0.5501
10113SOL    HW130729   4.869   3.313   5.248 -0.9125 -0.0568 -2.4344
10113SOL    HW230730   4.730   3.358   5.287  0.2843  1.1666  0.7676
10114SOL     OW30731   4.566   5.940   0.600 -0.5513  0.0888 -0.0266
10114SOL    HW130732   4.551   6.034   0.613 -2.2843 -0.3462  1.4330
10114SOL    HW230733   4.660   5.933   0.583 -0.2778  2.0189  0.4773
10115SOL     OW30734   2.317   4.534   5.863  0.7046  0.2863 -0.4552
10115SOL    HW130735   2.405   4.538   5.902 -0.1390 -0.0800  1.6052
10115SOL    HW230736   2.292   4.442   5.867  0.6347  0.2019 -2.0897
10116SOL     OW30737   2.005   6.716   1.241 -0.2088  0.3322 -0.2159
10116SOL    HW130738   1.944   6.645   1.259  0.3860 -0.1784 -0.1828
10116SOL    HW230739   2.056   6.725   1.322  0.6696 -0.1660 -0.6940
10117SOL     OW30740   2.247   3.066   4.009  0.0618  0.6856 -0.1086
10117SOL    HW130741   2.234   3.066   4.103 -0.8087 -0.1915 -0.2138
10117SOL    HW230742   2.211   2.983   3.979 -0.4968  1.3297 -1.3225
10118SOL     OW30743   5.933   2.866   2.262  0.3587 -0.1547  0.2384
10118SOL    HW130744   5.956   2.795   2.321 -0.4391  0.0779  0.8557
10118SOL    HW230745   5.943   2.946   2.315  1.8573  0.2715 -0.6241
10119SOL     OW30746   1.747   0.033   5.695  0.1235  0.0813 -0.4741
10119SOL    HW130747   1.793  -0.030   5.750  1.6759  1.2157 -0.4260
10119SOL    HW230748   1.792   0.028   5.610  0.2154  1.0442 -0.4933
10120SOL     OW30749   1.571   5.082   3.103  0.4129 -0.1557  0.1841
10120SOL    HW130750   1.595   5.156   3.046 -1.9316 -0.2462 -1.0688
10120SOL    HW230751   1.618   5.007   3.066 -1.3581 -0.2965 -2.0184
10121SOL     OW30752   5.232   0.641   3.649  0.6753  0.1187 -0.0808
10121SOL    HW130753   5.300   0.574   3.650  0.4892 -0.0930 -0.7590
10121SOL    HW230754   5.241   0.683   3.563 -1.9083 -1.8642 -1.4531
10122SOL     OW30755   0.359   0.492   4.858  0.0855  0.2588 -0.3272
10122SOL    HW130756   0.362   0.423   4.924 -0.2623 -0.4936 -1.0697
10122SOL    HW230757   0.275   0.535   4.873  0.0678  0.1791 -0.1892
10123SOL     OW30758   0.926   5.486   4.119 -0.1495  0.4563 -0.3147
10123SOL    HW130759   0.901   5.573   4.150 -2.7607 -0.5661  0.7246
10123SOL    HW230760   0.981   5.450   4.188 -1.1850  0.3641  0.4893
10124SOL     OW30761   4.692   3.915   1.989 -0.2937  0.7826  0.0074
10124SOL    HW130762   4.718   4.004   1.964  0.6019  0.3450 -0.6765
10124SOL    HW230763   4.775   3.866   1.994 -0.7468  0.0458  0.6508
10125SOL     OW30764   4.737   5.681   3.614  0.3120  0.5078  0.1678
10125SOL    HW130765   4.792   5.718   3.682  0.9630  0.2576 -0.2157
10125SOL    HW230766   4.763   5.588   3.611 -0.1480  0.3824  0.0019
10126SOL     OW30767   6.742   1.536   2.211  0.1782  0.9694 -0.3621
10126SOL    HW130768   6.816   1.580   2.170 -0.3003  0.9732 -1.2475
10126SOL    HW230769   6.690   1.502   2.138 -0.9774  1.4253  0.2146
10127SOL     OW30770   0.983   2.806   4.134  0.1676  0.2741 -0.1427
10127SOL    HW130771   0.897   2.765   4.143  0.5553 -0.2095  1.9222
10127SOL    HW230772   0.964   2.899   4.120 -0.6881 -0.2336 -2.8274
10128SOL     OW30773   5.003   3.191   5.192 -0.3791 -0.1000 -0.0525
10128SOL    HW130774   5.005   3.100   5.220 -0.1373  0.0087  0.2849
10128SOL    HW230775   5.081   3.230   5.230  0.6788 -0.2521 -1.9299
10129SOL     OW30776   0.012   2.823   5.738 -0.1415 -0.2052  0.2225
10129SOL    HW130777  -0.058   2.765   5.708  0.8470 -1.6376  0.6085
10129SOL    HW230778  -0.007   2.907   5.695 -1.7279 -0.7246 -0.1647
10130SOL     OW30779   0.203   4.827   5.946  0.4219  0.1283  0.1487
10130SOL    HW130780   0.230   4.831   5.854  0.4495 -3.0216 -0.1175
10130SOL    HW230781   0.108   4.826   5.943  0.3532  2.2475  0.3879
10131SOL     OW30782   1.534   3.829   5.684  0.1428  0.0156  0.2109
10131SOL    HW130783   1.491   3.914   5.679 -0.8256 -0.4752 -0.0584
10131SOL    HW230784   1.627   3.849   5.691  0.0730  1.0842 -1.4399
10132SOL     OW30785   6.148   4.179   2.778 -0.5886  0.1828 -0.6615
10132SOL    HW130786   6.221   4.151   2.723 -1.7128 -3.4282 -0.6061
10132SOL    HW230787   6.177   4.261   2.817  1.7475  0.9560 -3.6873
10133SOL     OW30788   4.168   6.624   4.902 -0.1654 -0.4809 -0.6639
10133SOL    HW130789   4.166   6.543   4.851 -0.7916 -0.7073 -0.2831
10133SOL    HW230790   4.077   6.650   4.910 -0.1612 -0.8850  1.0175
10134SOL     OW30791   2.100   0.558   2.552 -0.7002  0.0305 -0.1286
10134SOL    HW130792   2.156   0.606   2.613 -0.2128  0.1293 -0.6398
10134SOL    HW230793   2.069   0.624   2.490 -0.8297 -0.1388 -0.2466
10135SOL     OW30794   1.801   6.339   0.851  0.5381  0.2489 -0.6011
10135SOL    HW130795   1.842   6.418   0.814 -0.4398 -0.1554 -2.7004
10135SOL    HW230796   1.840   6.267   0.802 -0.9333 -0.3117 -0.9942
10136SOL     OW30797   0.205   1.273   4.961 -0.0462 -0.1475 -0.1877
10136SOL    HW130798   0.226   1.330   4.887 -0.8302 -0.3956 -0.6154
10136SOL    HW230799   0.150   1.326   5.018  0.7562  0.1246  0.3595
10137SOL     OW30800   1.135   2.279   6.020  0.1795  0.0993 -0.4158
10137SOL    HW130801   1.215   2.228   6.034  0.5787  0.9118  0.3546
10137SOL    HW230802   1.161   2.370   6.037 -1.2687  0.2238  1.5037
10138SOL     OW30803   4.656   0.969   0.200  0.0388  0.4498 -0.4505
10138SOL    HW130804   4.653   1.017   0.118  0.4008  0.2698 -0.5684
10138SOL    HW230805   4.626   1.032   0.266  0.5520  0.8517 -0.5972
10139SOL     OW30806   3.848   1.190   4.903  0.1196  0.7485  0.0799
10139SOL    HW130807   3.797   1.235   4.836 -0.1366 -0.7071 -0.7601
10139SOL    HW230808   3.938   1.221   4.890 -0.0044  0.8084 -0.6575
10140SOL     OW30809   4.543   4.340   5.583 -0.0268 -0.3229  0.4621
10140SOL    HW130810   4.578   4.313   5.498 -0.7738  0.2771 -0.0524
10140SOL    HW230811   4.567   4.432   5.590 -1.7193  0.1986 -0.0526
10141SOL     OW30812   5.617   6.657   2.634  0.2483  0.3414  0.1542
10141SOL    HW130813   5.654   6.692   2.715  1.0170 -0.1591  0.0354
10141SOL    HW230814   5.552   6.594   2.662  0.7274 -0.0547  0.3988
10142SOL     OW30815   3.433   1.833   4.080 -0.1944  0.2262 -0.4719
10142SOL    HW130816   3.470   1.804   3.996  1.1059  3.1869 -1.0673
10142SOL    HW230817   3.494   1.799   4.145  1.4045  1.5754 -1.1566
10143SOL     OW30818   1.677   2.799   6.353  0.1561 -0.3415 -0.5193
10143SOL    HW130819   1.661   2.875   6.409  1.1850 -0.0456 -0.6194
10143SOL    HW230820   1.693   2.836   6.266 -1.1333 -0.7794 -0.9828
10144SOL     OW30821   5.171   0.525   2.491 -0.0434  0.1435 -0.7546
10144SOL    HW130822   5.204   0.583   2.560 -1.9075  1.4159 -0.8459
10144SOL    HW230823   5.169   0.438   2.531  1.2608  0.4207 -0.0577
10145SOL     OW30824   1.656   5.546   4.622  0.1502  0.2614 -0.2141
10145SOL    HW130825   1.561   5.530   4.619  0.5327 -2.1748 -1.7155
10145SOL    HW230826   1.671   5.611   4.553 -0.3835  0.4508 -0.1585
10146SOL     OW30827   5.068   4.097   5.786 -0.1220  0.1524 -0.2138
10146SOL    HW130828   5.029   4.105   5.699  0.6154  1.3321 -0.4639
10146SOL    HW230829   5.074   4.187   5.817  0.8842 -0.1500  0.4900
10147SOL     OW30830   4.271   1.398   4.649 -0.8614  0.4545  0.3848
10147SOL    HW130831   4.254   1.463   4.717  1.9719  1.3882  0.3271
10147SOL    HW230832   4.327   1.333   4.691 -1.7287 -0.7249 -0.2162
10148SOL     OW30833   3.950   2.689   1.641  0.2095 -0.0455  0.2227
10148SOL    HW130834   3.910   2.603   1.654  0.8027 -0.1459  1.5121
10148SOL    HW230835   3.997   2.681   1.558  1.0031 -1.2807  0.7557
10149SOL     OW30836   5.889   2.559   1.934 -0.1258  0.5846  0.2280
10149SOL    HW130837   5.795   2.566   1.921 -0.0133  0.4386 -0.7935
10149SOL    HW230838   5.922   2.648   1.921  0.0468  0.3436 -1.1188
10150SOL     OW30839   5.307   5.084   5.834 -0.5136  0.4478 -0.2566
10150SOL    HW130840   5.256   5.061   5.912 -2.4588  0.0268 -1.5968
10150SOL    HW230841   5.388   5.033   5.844 -1.0684 -0.2481  1.0716
10151SOL     OW30842   4.383   2.512   4.499  0.3317  0.4071 -0.3207
10151SOL    HW130843   4.442   2.475   4.566 -0.9394 -0.4029  0.3927
10151SOL    HW230844   4.441   2.536   4.427  1.5481 -0.3160  0.3749
10152SOL     OW30845   2.942   3.254   4.374  0.3606 -0.1459 -0.0633
10152SOL    HW130846   2.920   3.289   4.288 -1.7604 -2.2886 -0.5096
10152SOL    HW230847   2.858   3.244   4.418  1.3256  0.0025  1.9183
10153SOL     OW30848   6.613   1.987   6.552 -0.0192 -0.4265  0.1947
10153SOL    HW130849   6.611   2.069   6.601 -1.1219  0.3159 -1.0355
10153SOL    HW230850   6.540   1.936   6.587  0.2713 -0.6262  0.5161
10154SOL     OW30851   3.012   6.427   3.762  0.1780 -0.6245 -0.3306
10154SOL    HW130852   3.088   6.458   3.714 -1.6686  2.6996 -1.4588
10154SOL    HW230853   3.015   6.475   3.845 -1.0158  0.2140 -0.7305
10155SOL     OW30854   0.901   4.556   5.343  0.2619  0.3256  0.6601
10155SOL    HW130855   0.859   4.519   5.265 -1.2289  2.2663  0.4749
10155SOL    HW230856   0.993   4.532   5.335  0.0464  0.0560 -1.4360
10156SOL     OW30857   0.349   3.986   0.699  0.3913 -0.3069  0.4179
10156SOL    HW130858   0.374   4.052   0.635  0.7025  1.0532  1.8892
10156SOL    HW230859   0.277   4.026   0.748 -1.5836 -2.2970 -0.6548
10157SOL     OW30860   2.472   4.372   6.660  0.0425 -0.0331  0.0668
10157SOL    HW130861   2.418   4.315   6.714  0.0821  0.0121  0.1550
10157SOL    HW230862   2.438   4.361   6.571 -2.0053  2.1405  0.4809
10158SOL     OW30863   1.889   5.837   1.332  0.2662  0.4987  0.2883
10158SOL    HW130864   1.897   5.923   1.291 -0.7646 -0.4765 -2.1377
10158SOL    HW230865   1.962   5.786   1.297 -0.9983 -0.5424 -0.9834
10159SOL     OW30866   3.396   4.523   4.008  0.0738 -0.1600  0.5671
10159SOL    HW130867   3.367   4.434   4.029  1.6630 -0.3395  2.3197
10159SOL    HW230868   3.360   4.540   3.921 -1.5452 -1.9254  0.8093
10160SOL     OW30869   2.761   0.590   4.510  0.2399  0.0477  0.3277
10160SOL    HW130870   2.765   0.528   4.437 -1.7828  0.6573 -0.3668
10160SOL    HW230871   2.796   0.672   4.475 -1.6757  0.6266 -0.3372
10161SOL     OW30872   1.216   2.711   1.681 -0.0893 -0.1052 -0.0780
10161SOL    HW130873   1.207   2.755   1.765  0.9459  0.3678 -0.1973
10161SOL    HW230874   1.249   2.624   1.702  1.0531  0.3177 -0.0235
10162SOL     OW30875   6.415   0.252   4.733  0.1727  0.8300  0.2049
10162SOL    HW130876   6.357   0.201   4.676  0.6772 -0.6351  0.9269
10162SOL    HW230877   6.498   0.204   4.732  1.1345  2.4393 -0.1577
10163SOL     OW30878   1.888   2.727   3.260 -0.3403  0.2125 -0.0550
10163SOL    HW130879   1.820   2.759   3.201  0.6169 -0.2214 -1.4555
10163SOL    HW230880   1.871   2.772   3.342 -2.3832  0.0054 -0.3101
10164SOL     OW30881   4.579   0.544   5.746 -0.1188  0.5224  0.1655
10164SOL    HW130882   4.557   0.499   5.664  0.5301  0.1029  0.2153
10164SOL    HW230883   4.507   0.607   5.759 -1.4138 -0.9435  0.4505
10165SOL     OW30884   2.783   3.403   4.969 -0.0368 -0.3322 -0.8231
10165SOL    HW130885   2.806   3.451   4.889  0.5337  0.5059 -0.1754
10165SOL    HW230886   2.866   3.393   5.015 -0.4949 -0.0341  0.0810
10166SOL     OW30887   4.037   3.605   4.632  0.0489 -0.1048  0.0425
10166SOL    HW130888   4.080   3.520   4.640  0.6817  0.1192 -0.8680
10166SOL    HW230889   3.992   3.616   4.716  1.2434 -0.6440  0.7943
10167SOL     OW30890   2.302   4.477   2.089 -0.0881 -0.0990  0.5136
10167SOL    HW130891   2.307   4.401   2.148  2.0849  0.0125  0.5450
10167SOL    HW230892   2.256   4.444   2.012 -1.6331 -0.6526  1.6071
10168SOL     OW30893   1.363   0.309   2.487  0.1428  0.1943  0.4613
10168SOL    HW130894   1.443   0.261   2.467 -0.2346  0.3858 -1.7867
10168SOL    HW230895   1.293   0.256   2.448 -0.7757  0.3288  1.8648
10169SOL     OW30896   4.601   2.505   3.914 -0.0942 -0.6150  0.1635
10169SOL    HW130897   4.673   2.464   3.866  1.5194  1.3701  0.7597
10169SOL    HW230898   4.555   2.432   3.955  0.3032 -2.1110 -1.8948
10170SOL     OW30899   1.701   6.380   4.633 -0.2174 -0.4788 -0.4595
10170SOL    HW130900   1.626   6.325   4.609 -0.1850 -1.9039  2.3523
10170SOL    HW230901   1.777   6.328   4.607 -0.1666 -2.3210  2.8882
10171SOL     OW30902   0.491   4.978   5.879  0.2594 -0.2635  0.5634
10171SOL    HW130903   0.457   4.977   5.968 -1.8709 -1.6297 -0.2093
10171SOL    HW230904   0.534   4.893   5.868  0.8071  0.0291  0.3767
10172SOL     OW30905   5.775   0.772   1.102 -0.5305 -0.2351 -0.7563
10172SOL    HW130906   5.742   0.851   1.145 -1.4285 -0.8511 -0.2859
10172SOL    HW230907   5.870   0.783   1.100 -0.5721  0.3502  0.3083
10173SOL     OW30908   5.550   0.812   2.888  0.4154  0.2170  0.3415
10173SOL    HW130909   5.559   0.718   2.871  3.2575  0.8793 -2.8903
10173SOL    HW230910   5.456   0.826   2.895 -0.3890 -2.4222 -2.5946
10174SOL     OW30911   6.424   4.819   6.725  0.4278  0.1708 -0.0009
10174SOL    HW130912   6.368   4.826   6.802 -2.5548  0.7041 -2.0508
10174SOL    HW230913   6.453   4.728   6.726 -1.7640 -0.5954  0.4067
10175SOL     OW30914   1.066   2.875   2.349 -0.1590  0.1748 -0.3916
10175SOL    HW130915   0.975   2.875   2.378  0.1312 -2.6116  0.8554
10175SOL    HW230916   1.063   2.848   2.258 -0.5991  0.9150 -0.6050
10176SOL     OW30917   4.326   2.762   2.244 -0.3888 -0.2627  0.0801
10176SOL    HW130918   4.231   2.760   2.234 -0.7067  0.3605  2.4337
10176SOL    HW230919   4.342   2.828   2.312  1.6428 -1.0497  0.4391
10177SOL     OW30920   5.142   1.409   5.594  0.3193 -0.2000 -0.3040
10177SOL    HW130921   5.214   1.472   5.597  2.2492 -2.2997  0.2705
10177SOL    HW230922   5.170   1.344   5.530 -1.8331 -0.2917 -1.2343
10178SOL     OW30923   2.156   4.652   4.697  0.0089  0.1536  0.8037
10178SOL    HW130924   2.158   4.718   4.767  0.6209  1.1439 -0.1086
10178SOL    HW230925   2.246   4.646   4.667 -0.0225 -1.1938  0.9261
10179SOL     OW30926   3.390   4.833   1.505 -0.2056 -0.1023  0.2870
10179SOL    HW130927   3.361   4.765   1.444 -0.6498  0.7168 -0.4476
10179SOL    HW230928   3.364   4.915   1.462  2.3046  0.6391  0.0721
10180SOL     OW30929   5.364   5.249   0.500  0.2953  0.1654  0.1332
10180SOL    HW130930   5.340   5.213   0.414 -1.7106 -2.0280  1.4803
10180SOL    HW230931   5.456   5.274   0.490  0.2116 -0.2590 -2.5588
10181SOL     OW30932   4.032   1.069   1.986 -0.0470 -0.4051 -0.0291
10181SOL    HW130933   4.000   1.123   2.058 -0.4466  0.3710 -0.7797
10181SOL    HW230934   3.998   0.981   2.006  0.2122 -0.3017  0.9426
10182SOL     OW30935   1.151   4.881   1.780 -0.2408  0.5140 -0.1626
10182SOL    HW130936   1.063   4.901   1.747  0.7470  1.3425 -2.5236
10182SOL    HW230937   1.188   4.966   1.803 -0.0579  0.1614  0.8828
10183SOL     OW30938   5.411   4.877   2.148  0.3575 -0.3629 -0.0747
10183SOL    HW130939   5.465   4.897   2.071 -0.0903  1.1753 -0.0283
10183SOL    HW230940   5.326   4.851   2.112 -0.0696  1.0172 -0.1339
10184SOL     OW30941   0.829   3.529   6.767 -0.1622 -0.0003 -0.2634
10184SOL    HW130942   0.884   3.497   6.839  1.2671 -1.7215 -2.0138
10184SOL    HW230943   0.746   3.551   6.808  0.0916 -2.3439  1.7151
10185SOL     OW30944   5.368   4.711   4.536 -0.6176  0.1442 -0.0805
10185SOL    HW130945   5.279   4.715   4.571 -0.9868 -0.0604 -0.9556
10185SOL    HW230946   5.414   4.783   4.578 -1.2226  0.3110  0.3087
10186SOL     OW30947   3.751   0.310   2.648 -0.3398  0.0341  0.0468
10186SOL    HW130948   3.734   0.229   2.697 -0.8411  0.7538  1.1006
10186SOL    HW230949   3.844   0.328   2.663 -0.3882  0.0163  0.3735
10187SOL     OW30950   4.083   0.279   5.317 -0.1790 -0.2903  0.3010
10187SOL    HW130951   4.115   0.302   5.229  0.2131 -1.4907  0.1069
10187SOL    HW230952   4.015   0.213   5.301  1.3370 -2.1105  0.9345
10188SOL     OW30953   1.273   0.584   0.015 -0.4349 -0.2634  0.3079
10188SOL    HW130954   1.266   0.656  -0.046  0.7452  0.2318  0.7096
10188SOL    HW230955   1.240   0.508  -0.032 -0.9469  0.3910 -0.3975
10189SOL     OW30956   1.719   3.474   6.682  0.3563 -0.4956 -0.4814
10189SOL    HW130957   1.714   3.564   6.716  0.3809 -0.6533 -0.0543
10189SOL    HW230958   1.698   3.483   6.589  0.2785 -0.0568 -0.4272
10190SOL     OW30959   0.693   0.081   2.940  0.0461  0.2630  0.0114
10190SOL    HW130960   0.749   0.087   3.017  1.2084  0.4303 -0.8219
10190SOL    HW230961   0.605   0.099   2.973  0.4360 -0.2052  1.3840
10191SOL     OW30962   1.553   0.993   2.638 -0.1141  0.1365  0.4712
10191SOL    HW130963   1.614   0.989   2.712 -1.7240 -0.7321  1.8401
10191SOL    HW230964   1.498   1.068   2.657  0.0484  0.4716 -0.3604
10192SOL     OW30965   0.520   5.454   2.024  0.3031 -0.4166  0.1438
10192SOL    HW130966   0.580   5.400   2.076  0.5188 -0.1847  0.1333
10192SOL    HW230967   0.570   5.478   1.946  0.5336  0.5756  0.5815
10193SOL     OW30968   6.004   5.500   6.343  0.1378 -0.6706  0.2942
10193SOL    HW130969   5.991   5.583   6.296  1.3851  0.1851  1.3628
10193SOL    HW230970   5.979   5.520   6.433 -0.6675 -1.8130  0.3358
10194SOL     OW30971   6.323   3.561   5.755  0.1065  0.3694 -0.5849
10194SOL    HW130972   6.332   3.566   5.851  1.2854 -0.0004 -0.6627
10194SOL    HW230973   6.398   3.609   5.721 -0.4054  0.6533 -1.3444
10195SOL     OW30974   3.181   0.161   0.172  0.2701  0.1713  0.0583
10195SOL    HW130975   3.131   0.143   0.092  0.2934  1.0726 -0.1739
10195SOL    HW230976   3.114   0.190   0.235  0.3064 -0.1317  0.2384
10196SOL     OW30977   1.139   3.631   2.095 -1.0177  0.4707  0.4138
10196SOL    HW130978   1.230   3.645   2.067 -1.2683  1.1162 -0.0970
10196SOL    HW230979   1.121   3.540   2.074 -0.8988  0.6883 -0.6963
10197SOL     OW30980   3.107   3.315   2.472 -0.1664  0.3762 -0.9301
10197SOL    HW130981   3.200   3.330   2.453 -0.3616  1.6976 -0.9438
10197SOL    HW230982   3.108   3.251   2.543  0.7389  0.1231 -1.1481
10198SOL     OW30983   5.690   6.318   6.120  0.0430  0.0246 -0.4935
10198SOL    HW130984   5.601   6.324   6.154  0.5600 -1.4095  1.3149
10198SOL    HW230985   5.714   6.226   6.132  2.7544  0.8784  1.8544
10199SOL     OW30986   1.658   6.051   6.556 -0.1867 -0.0435  0.1598
10199SOL    HW130987   1.608   6.132   6.550 -1.7393 -0.8840  0.8663
10199SOL    HW230988   1.691   6.036   6.468 -0.6061  0.9175 -0.1714
10200SOL     OW30989   2.680   0.951   6.384 -0.2130  0.1524  0.5114
10200SOL    HW130990   2.740   0.884   6.350 -0.0787  0.9575 -0.9181
10200SOL    HW230991   2.732   0.999   6.448  1.1932  1.6900 -1.6496
10201SOL     OW30992   5.320   0.854   1.361 -0.3960 -0.4191  0.0217
10201SOL    HW130993   5.331   0.903   1.280  0.4225  1.1165  1.0191
10201SOL    HW230994   5.267   0.910   1.417  0.0821 -0.8997  0.9858
10202SOL     OW30995   5.689   4.582   5.775 -0.0962 -0.2473  0.3665
10202SOL    HW130996   5.707   4.505   5.721 -0.1502  0.6619 -0.9976
10202SOL    HW230997   5.595   4.579   5.792  0.1353 -1.2771  1.6219
10203SOL     OW30998   1.799   0.507   0.498  0.3702 -0.3364 -0.3085
10203SOL    HW130999   1.794   0.601   0.517 -0.1718 -0.3215 -0.5226
10203SOL    HW231000   1.812   0.467   0.584  1.1409 -0.0320 -0.2728
10204SOL     OW31001   2.860   3.257   5.858 -0.3436  0.7482 -0.1646
10204SOL    HW131002   2.798   3.186   5.844  0.6781 -1.2214  3.8941
10204SOL    HW231003   2.807   3.331   5.888 -1.1252  0.8637 -1.7244
10205SOL     OW31004   3.094   1.190   4.242 -0.1351 -0.0880  0.1948
10205SOL    HW131005   3.125   1.243   4.315  0.6962 -1.4718  0.8848
10205SOL    HW231006   3.169   1.135   4.218 -1.3756 -2.0393  0.5200
10206SOL     OW31007   5.453   3.534   4.686  0.3231 -0.2605 -0.4679
10206SOL    HW131008   5.413   3.467   4.630 -2.8336  0.5521  0.6576
10206SOL    HW231009   5.484   3.486   4.763 -1.3115 -0.5618  0.0283
10207SOL     OW31010   6.583   5.288   4.483 -0.2786 -0.8901  0.3451
10207SOL    HW131011   6.592   5.251   4.571 -2.0143 -0.5947  0.6891
10207SOL    HW231012   6.490   5.279   4.463 -0.0507 -0.2203 -1.1382
10208SOL     OW31013   3.378   5.250   0.415  0.4078 -0.7290 -0.0101
10208SOL    HW131014   3.467   5.275   0.390  0.2909  0.8117  0.9510
10208SOL    HW231015   3.385   5.226   0.508 -0.3861  0.8133  0.4868
10209SOL     OW31016   2.628   2.153   2.207  0.0496 -0.4889  0.2837
10209SOL    HW131017   2.615   2.209   2.130 -0.8266  0.3828  1.0488
10209SOL    HW231018   2.621   2.064   2.173 -0.7174 -0.1106 -0.5953
10210SOL     OW31019   5.130   5.812   1.609 -0.2232  0.8576 -0.1169
10210SOL    HW131020   5.160   5.721   1.614 -1.2707  0.5318  0.7199
10210SOL    HW231021   5.093   5.821   1.521 -0.4070  0.3759 -0.0919
10211SOL     OW31022   1.284   6.473   3.425 -0.1318  0.1423  0.0209
10211SOL    HW131023   1.306   6.521   3.345  0.5228 -0.8077 -0.3843
10211SOL    HW231024   1.338   6.514   3.493 -0.6473  0.9150 -0.0195
10212SOL     OW31025   0.944   0.294   1.122 -0.0637  0.4662 -0.0046
10212SOL    HW131026   1.026   0.321   1.080  0.8818  0.3287  1.6651
10212SOL    HW231027   0.949   0.198   1.125 -0.4782  0.4370 -0.2759
10213SOL     OW31028   1.646   6.366   4.971  0.1563  0.0511 -0.5370
10213SOL    HW131029   1.741   6.352   4.971  0.3637  1.1491 -2.3407
10213SOL    HW231030   1.614   6.310   4.900 -0.8379 -1.6327  1.1286
10214SOL     OW31031   2.933   1.173   0.205 -0.2622  0.1649  0.5718
10214SOL    HW131032   2.995   1.101   0.219  0.1266  0.5334  0.7536
10214SOL    HW231033   2.946   1.199   0.114  1.1038  1.3901  1.0719
10215SOL     OW31034   6.043   3.426   5.180  0.5011 -0.1388  0.3567
10215SOL    HW131035   6.000   3.356   5.131  1.3814 -1.1237  0.9371
10215SOL    HW231036   6.072   3.488   5.113  0.3309 -0.6871 -0.2361
10216SOL     OW31037   5.044   1.979   0.569  0.3253 -0.0384 -0.2490
10216SOL    HW131038   5.042   1.893   0.527  2.7650 -0.4026  0.2090
10216SOL    HW231039   5.010   2.039   0.502  1.3773 -1.0084 -1.7265
10217SOL     OW31040   1.156   3.317   6.630  0.2406  0.2570  0.4583
10217SOL    HW131041   1.246   3.347   6.631  0.7792 -1.2864  0.5922
10217SOL    HW231042   1.150   3.257   6.705 -0.8412  0.2024  0.3432
10218SOL     OW31043   5.191   5.284   0.694 -0.0699 -0.3838  0.1379
10218SOL    HW131044   5.247   5.277   0.617  1.5686 -0.6021  1.3075
10218SOL    HW231045   5.111   5.238   0.669 -0.0855  0.6028 -1.8407
10219SOL     OW31046   3.009   4.731   4.429  0.6934 -0.5931 -0.0953
10219SOL    HW131047   2.916   4.740   4.449  0.8408  1.2459 -0.0443
10219SOL    HW231048   3.052   4.736   4.514  0.9714  1.5473 -0.2967
10220SOL     OW31049   1.872   4.654   2.913  0.2678  0.0293  0.1476
10220SOL    HW131050   1.901   4.666   2.823 -1.6473 -1.5865 -0.7618
10220SOL    HW231051   1.863   4.559   2.924 -0.2949  0.2206  1.7773
10221SOL     OW31052   1.380   3.185   4.063 -0.2119 -0.0764 -0.1294
10221SOL    HW131053   1.462   3.214   4.104 -0.0756  1.2271 -1.2429
10221SOL    HW231054   1.313   3.203   4.129 -0.0463  2.3507 -0.5017
10222SOL     OW31055   4.208   3.656   3.320 -0.4112  0.0842 -0.3060
10222SOL    HW131056   4.301   3.649   3.342 -0.1037 -1.2268 -1.8658
10222SOL    HW231057   4.170   3.573   3.349 -0.4579 -0.6665 -2.3193
10223SOL     OW31058   4.894   0.308   4.458  0.0182 -0.4672  0.2195
10223SOL    HW131059   4.944   0.351   4.389  2.2419 -0.9194  1.4586
10223SOL    HW231060   4.945   0.231   4.481 -0.0062  0.2420  3.1048
10224SOL     OW31061   3.497   1.870   0.486  0.4777 -0.2379 -0.4526
10224SOL    HW131062   3.412   1.829   0.501  0.5258 -0.6395 -1.2476
10224SOL    HW231063   3.475   1.955   0.446  0.4288 -0.0448 -0.0211
10225SOL     OW31064   3.357   0.019   1.820  0.2101  0.3847  0.0385
10225SOL    HW131065   3.448  -0.004   1.837 -0.3264 -2.3716 -0.1817
10225SOL    HW231066   3.342  -0.012   1.730 -1.1560 -0.0992  0.4107
10226SOL     OW31067   1.792   1.086   0.688 -0.6610 -0.3949 -0.1753
10226SOL    HW131068   1.778   1.129   0.604  0.4158 -0.8963 -0.6354
10226SOL    HW231069   1.709   1.096   0.735 -0.6240  1.7147 -0.4652
10227SOL     OW31070   5.641   2.731   5.127  0.2349 -0.2955  0.2864
10227SOL    HW131071   5.631   2.814   5.080  0.2320 -1.4571 -1.9324
10227SOL    HW231072   5.640   2.755   5.219  0.1722  2.1509 -0.2787
10228SOL     OW31073   3.682   0.766   5.159  0.0305 -0.1437  0.4993
10228SOL    HW131074   3.621   0.805   5.222  1.4030 -1.2560  2.6231
10228SOL    HW231075   3.748   0.834   5.145 -0.9413  0.5716 -0.7743
10229SOL     OW31076   0.324   6.713   6.445  0.1618  0.1971  0.7431
10229SOL    HW131077   0.391   6.782   6.446 -0.9643  1.3886 -1.1658
10229SOL    HW231078   0.342   6.663   6.366 -0.9263  0.2692  0.4319
10230SOL     OW31079   4.823   5.760   3.068  0.6952 -0.4884  0.1041
10230SOL    HW131080   4.775   5.756   2.985 -2.2932  1.5406  1.5743
10230SOL    HW231081   4.888   5.829   3.055  0.0476  0.0310 -0.4782
10231SOL     OW31082   1.541   4.694   1.689  0.6088  0.1530  0.3433
10231SOL    HW131083   1.520   4.775   1.736 -1.7563 -0.2836  0.1741
10231SOL    HW231084   1.498   4.704   1.604 -0.4403 -1.5766  0.6273
10232SOL     OW31085   0.458   3.323   6.731  0.3322 -0.1415  1.2674
10232SOL    HW131086   0.468   3.254   6.797  0.4112 -3.3709 -1.7734
10232SOL    HW231087   0.531   3.309   6.671 -1.0406  0.9513 -0.7867
10233SOL     OW31088   5.211   3.530   5.529 -0.7678 -0.2384 -0.5884
10233SOL    HW131089   5.263   3.470   5.582  1.3647  1.8181 -0.1936
10233SOL    HW231090   5.267   3.607   5.518 -3.0332  1.3487 -1.7860
10234SOL     OW31091   6.468   1.073   0.092 -0.4506  0.2241  0.0425
10234SOL    HW131092   6.439   1.025   0.170 -1.5871  1.0891  0.1829
10234SOL    HW231093   6.394   1.130   0.070  0.1716  0.5913 -1.1878
10235SOL     OW31094   3.266   3.008   5.769 -0.0843 -0.3609 -1.2694
10235SOL    HW131095   3.263   3.043   5.680  0.1358 -0.8517 -1.4789
10235SOL    HW231096   3.211   3.067   5.820  1.7866  1.4107 -1.1838
10236SOL     OW31097   1.813   4.980   3.019 -0.1120  0.9337 -0.0367
10236SOL    HW131098   1.893   4.988   2.966 -1.7100  2.9887 -2.3346
10236SOL    HW231099   1.804   4.886   3.034  2.4422  0.5933 -0.0708
10237SOL     OW31100   0.177   5.729   3.275  0.1409 -0.4433  0.2429
10237SOL    HW131101   0.142   5.807   3.316 -1.4525  0.1038 -1.9243
10237SOL    HW231102   0.264   5.754   3.244 -0.5223  0.6941 -0.8206
10238SOL     OW31103   6.791   3.644   0.493 -0.0188  0.3003 -0.0804
10238SOL    HW131104   6.727   3.710   0.519  1.1117  0.8446  1.4629
10238SOL    HW231105   6.874   3.692   0.488  0.4871 -0.6254 -0.8515
10239SOL     OW31106   0.026   0.615   0.944 -0.6280  0.2082 -0.0175
10239SOL    HW131107  -0.021   0.562   1.009 -0.1518  0.1930  0.3188
10239SOL    HW231108   0.084   0.552   0.901 -0.4527  0.3495  0.0123
10240SOL     OW31109   2.401   2.189   4.498  0.0481  0.0838 -0.7205
10240SOL    HW131110   2.427   2.276   4.470 -0.0549  0.8359  1.3214
10240SOL    HW231111   2.474   2.133   4.473  0.2059  0.7766 -1.8690
10241SOL     OW31112   5.802   4.217   1.239  0.4877  0.0674 -0.1557
10241SOL    HW131113   5.814   4.128   1.206  1.9813  0.3911 -0.5395
10241SOL    HW231114   5.806   4.272   1.161 -1.2949  0.4361 -0.0291
10242SOL     OW31115   2.208   3.800   1.558  0.4629 -0.1331  0.1195
10242SOL    HW131116   2.187   3.710   1.534  1.2153 -0.7567  1.6319
10242SOL    HW231117   2.155   3.816   1.636 -2.0147  1.8516 -1.7907
10243SOL     OW31118   0.053   0.050   3.800 -0.3465 -0.0654  0.1429
10243SOL    HW131119  -0.040   0.056   3.777 -1.5755 -0.9617  4.0666
10243SOL    HW231120   0.062  -0.038   3.838  1.3777  0.9784  2.3357
10244SOL     OW31121   3.622   5.912   4.095 -0.3732 -1.3787  0.1875
10244SOL    HW131122   3.654   5.918   4.005  0.1810  1.3932  0.4715
10244SOL    HW231123   3.694   5.872   4.143  0.1555 -0.9975 -0.2725
10245SOL     OW31124   4.346   3.591   0.911  0.0722 -0.5544 -0.6336
10245SOL    HW131125   4.384   3.509   0.942  2.2917  0.8705  0.7177
10245SOL    HW231126   4.420   3.652   0.907 -1.6294  1.6437 -0.6599
10246SOL     OW31127   0.334   0.484   1.633  0.1572  0.0517 -0.3079
10246SOL    HW131128   0.336   0.427   1.555  0.4161 -0.4119  0.0349
10246SOL    HW231129   0.246   0.473   1.669  0.4567 -0.7382  0.1990
10247SOL     OW31130   3.419   5.972   3.592 -0.1440  0.1061 -0.2747
10247SOL    HW131131   3.461   6.057   3.579  0.5008 -0.3187 -1.0495
10247SOL    HW231132   3.366   5.983   3.670  1.7581  0.5337  1.0124
10248SOL     OW31133   3.487   2.438   4.238  0.0991 -0.0934 -0.6215
10248SOL    HW131134   3.464   2.501   4.307 -0.4142 -0.6623 -0.2669
10248SOL    HW231135   3.546   2.376   4.282 -0.3190 -0.5227 -0.6663
10249SOL     OW31136   0.369   2.690   3.745 -0.2853 -0.8061  0.2787
10249SOL    HW131137   0.323   2.656   3.821  0.6743 -0.4271  1.0502
10249SOL    HW231138   0.323   2.652   3.670 -1.1834 -1.2592  1.0411
10250SOL     OW31139   0.147   3.857   3.798 -0.0936  0.1211 -0.1082
10250SOL    HW131140   0.061   3.820   3.776 -0.6354 -0.3820  2.5148
10250SOL    HW231141   0.208   3.784   3.784 -0.1651  0.2422 -1.1887
10251SOL     OW31142   6.175   6.369   6.611  0.0468  0.4988 -0.0867
10251SOL    HW131143   6.166   6.364   6.516  0.4445  0.0806 -0.1050
10251SOL    HW231144   6.111   6.434   6.637  0.3680  1.0865 -0.7107
10252SOL     OW31145   6.114   3.322   3.741  0.0625  0.7005  0.0812
10252SOL    HW131146   6.058   3.381   3.791 -1.6745 -1.7101  1.1754
10252SOL    HW231147   6.114   3.358   3.652 -0.0959  2.8428  0.9015
10253SOL     OW31148   2.183   6.363   5.434 -0.1450 -0.4741 -0.6626
10253SOL    HW131149   2.267   6.380   5.478 -0.3691 -1.5395  0.2264
10253SOL    HW231150   2.207   6.339   5.345  0.4684 -0.2730 -0.5596
10254SOL     OW31151   5.834   0.444   1.669  0.3069 -0.4295  0.0992
10254SOL    HW131152   5.769   0.378   1.695  0.3265 -0.7907 -0.7096
10254SOL    HW231153   5.806   0.470   1.581  0.4737  0.4309  0.2989
10255SOL     OW31154   3.905   0.968   5.948 -0.1409  0.4436  0.1004
10255SOL    HW131155   3.887   0.916   5.869 -0.5414 -1.4731  1.3615
10255SOL    HW231156   3.959   1.040   5.918 -1.0369  0.2999 -2.0740
10256SOL     OW31157   2.834   2.048   2.968  0.0076 -0.0873  1.0167
10256SOL    HW131158   2.750   2.002   2.963  0.2405 -0.4194 -2.4665
10256SOL    HW231159   2.814   2.138   2.942  0.8146 -0.4790 -1.1862
10257SOL     OW31160   0.056   4.528   1.913  0.0814  0.1916 -0.2951
10257SOL    HW131161   0.114   4.492   1.846  0.4607  0.9923 -0.4018
10257SOL    HW231162   0.100   4.511   1.996 -0.1253 -0.3011 -0.2804
10258SOL     OW31163   2.119   0.768   5.098  0.5844 -0.1706  0.0756
10258SOL    HW131164   2.055   0.699   5.083  0.2719  0.1543 -0.1111
10258SOL    HW231165   2.181   0.761   5.026  0.5858 -0.2940  0.0899
10259SOL     OW31166   4.573   2.519   0.764 -0.0042  0.2655 -0.5196
10259SOL    HW131167   4.667   2.516   0.747  0.0346  1.6280 -0.6895
10259SOL    HW231168   4.554   2.438   0.811  1.0837 -0.4431 -1.2668
10260SOL     OW31169   3.216   3.684   3.104  0.3561  0.1790 -0.6193
10260SOL    HW131170   3.217   3.662   3.011 -0.5560 -1.8270 -0.1855
10260SOL    HW231171   3.304   3.660   3.135  0.0008 -1.0996 -0.5604
10261SOL     OW31172   3.842   5.217   5.653 -0.0307  0.2517  0.2088
10261SOL    HW131173   3.803   5.252   5.573  0.0744  0.0428  0.0674
10261SOL    HW231174   3.807   5.273   5.722  0.5184  0.9535 -0.0701
10262SOL     OW31175   0.534   5.949   4.063 -0.1119  0.5813  0.1927
10262SOL    HW131176   0.546   6.043   4.074 -1.4308  0.8594 -0.4125
10262SOL    HW231177   0.529   5.914   4.152  0.8811  0.9945  0.4223
10263SOL     OW31178   3.173   0.681   6.790 -0.1099  0.1013 -0.2979
10263SOL    HW131179   3.249   0.671   6.733  0.1348  0.9238 -0.1247
10263SOL    HW231180   3.204   0.655   6.876 -0.2471 -0.3165 -0.3701
10264SOL     OW31181   6.440   6.739   2.350  0.2958  0.6065  0.5161
10264SOL    HW131182   6.483   6.762   2.432  1.6192 -2.8381  0.9696
10264SOL    HW231183   6.350   6.721   2.374  0.6184 -0.1473  1.2084
10265SOL     OW31184   4.070   3.407   5.230  0.4293  0.1537  0.0430
10265SOL    HW131185   4.098   3.483   5.280  1.3081 -0.3331  0.3157
10265SOL    HW231186   4.094   3.428   5.139  0.7693  0.1694  0.1324
10266SOL     OW31187   2.751   2.634   4.196  0.0118  0.3431  0.4019
10266SOL    HW131188   2.747   2.604   4.105  0.0066  1.1425  0.1340
10266SOL    HW231189   2.835   2.679   4.203 -0.4309  1.1683  0.5091
10267SOL     OW31190   4.930   2.059   3.483  0.2589  0.7236 -0.5664
10267SOL    HW131191   4.942   2.125   3.551  0.3604  1.1315 -0.9761
10267SOL    HW231192   4.873   2.101   3.419  0.4937  0.4850 -0.9330
10268SOL     OW31193   2.796   0.338   1.810  0.6250  0.2603 -0.2172
10268SOL    HW131194   2.735   0.412   1.805  1.3651  0.9922  1.0822
10268SOL    HW231195   2.860   0.357   1.741 -0.0612 -0.0232 -0.9555
10269SOL     OW31196   4.879   2.932   4.991  0.2959 -0.3377  0.0165
10269SOL    HW131197   4.849   3.015   5.029  0.6412 -0.5296  0.7190
10269SOL    HW231198   4.798   2.888   4.964 -0.2074 -1.2678  2.7321
10270SOL     OW31199   2.429   4.155   0.382  0.5391  0.3451 -0.0940
10270SOL    HW131200   2.476   4.222   0.431  0.4525  0.5319 -0.2659
10270SOL    HW231201   2.442   4.179   0.290  0.0588  0.4307 -0.1427
10271SOL     OW31202   0.158   6.173   1.228 -0.7888  0.5236  0.0481
10271SOL    HW131203   0.244   6.181   1.187 -1.6253  1.7233 -1.6330
10271SOL    HW231204   0.103   6.134   1.160 -1.4688 -0.7986  1.3009
10272SOL     OW31205   4.810   4.228   3.440 -0.2724 -0.3760 -0.3546
10272SOL    HW131206   4.767   4.157   3.488  0.3017 -0.4111  0.1146
10272SOL    HW231207   4.903   4.215   3.455 -0.1004 -0.1515 -1.1625
10273SOL     OW31208   6.476   5.537   3.525  0.1191 -0.0937 -0.0158
10273SOL    HW131209   6.568   5.547   3.500  0.2063  1.2733  0.8015
10273SOL    HW231210   6.453   5.619   3.568 -1.4404 -0.4880 -0.0338
10274SOL     OW31211   1.525   1.605   0.830  0.0531 -0.5830 -1.1348
10274SOL    HW131212   1.450   1.645   0.786 -1.1599 -1.0961  0.3608
10274SOL    HW231213   1.580   1.679   0.856 -0.3089 -0.1422 -1.6065
10275SOL     OW31214   1.413   2.159   2.554  0.0377  0.0353  0.4294
10275SOL    HW131215   1.325   2.186   2.529  0.3670  0.0409 -0.8085
10275SOL    HW231216   1.412   2.063   2.547 -0.0027  0.0067  0.8535
10276SOL     OW31217   4.173   5.726   6.060  0.1366  0.0432 -0.0028
10276SOL    HW131218   4.108   5.745   5.992  0.8213 -0.0600 -0.6945
10276SOL    HW231219   4.220   5.809   6.073 -0.0175  0.0743  0.3804
10277SOL     OW31220   3.995   5.611   1.567  0.0389  0.2203  0.5814
10277SOL    HW131221   3.984   5.531   1.515 -0.7024  0.6206  0.1080
10277SOL    HW231222   3.963   5.587   1.654  1.5907 -0.5511  0.9656
10278SOL     OW31223   1.764   6.662   4.269  0.2164  0.4220 -0.0954
10278SOL    HW131224   1.725   6.619   4.192  2.1455 -0.7393 -0.5217
10278SOL    HW231225   1.851   6.688   4.239  1.2946 -0.6780  1.8608
10279SOL     OW31226   0.995   1.970   2.443  0.4917  0.8826  0.5024
10279SOL    HW131227   1.040   1.933   2.518  0.6503  1.9151  0.9382
10279SOL    HW231228   0.906   1.934   2.447  0.3725  1.2657  1.4362
10280SOL     OW31229   1.681   5.055   4.788  0.4038  0.0726  0.0036
10280SOL    HW131230   1.605   5.107   4.763 -0.9406 -0.9973  1.6195
10280SOL    HW231231   1.753   5.118   4.792 -1.0012  1.6962  1.1849
10281SOL     OW31232   0.522   2.008   0.407 -0.3792 -0.1505 -0.1953
10281SOL    HW131233   0.498   2.042   0.493 -1.6333 -0.8260 -0.2518
10281SOL    HW231234   0.445   2.025   0.352  0.3361  0.1017 -1.1394
10282SOL     OW31235   4.833   2.827   1.972  0.3465  0.0804  0.2973
10282SOL    HW131236   4.813   2.868   1.888  3.0030  1.3494  0.1971
10282SOL    HW231237   4.810   2.894   2.037  0.6247  0.0750  0.4047
10283SOL     OW31238   3.935   4.025   3.301  0.1889  0.0428  0.0207
10283SOL    HW131239   3.922   4.094   3.235  1.0397 -1.6578 -2.0563
10283SOL    HW231240   4.029   4.027   3.319 -0.1026  0.8299  1.6609
10284SOL     OW31241   3.168   6.612   0.501  0.0615 -0.1400 -0.1274
10284SOL    HW131242   3.185   6.607   0.407 -1.3095 -1.0288 -0.3632
10284SOL    HW231243   3.086   6.661   0.508  0.5396  0.5540  0.6565
10285SOL     OW31244   3.524   1.992   5.674 -0.9623 -0.1553  0.2362
10285SOL    HW131245   3.565   1.986   5.588  2.1677  1.9206  1.3677
10285SOL    HW231246   3.435   2.022   5.657 -1.7094 -3.3590 -2.3549
10286SOL     OW31247   3.566   3.080   6.611 -0.4163 -0.3498 -0.3900
10286SOL    HW131248   3.556   3.130   6.530 -1.4584 -0.9242 -0.6409
10286SOL    HW231249   3.512   3.003   6.597 -0.9311 -0.2580  1.0143
10287SOL     OW31250   0.740   3.938   1.344 -0.0320 -0.4464 -0.1818
10287SOL    HW131251   0.830   3.957   1.371  0.0556  1.0156 -1.3671
10287SOL    HW231252   0.700   3.897   1.421  1.0291  0.8402  1.1163
10288SOL     OW31253   6.049   4.233   4.903  0.4813 -0.6738 -0.5490
10288SOL    HW131254   6.142   4.214   4.898  0.4720 -0.8339 -0.1005
10288SOL    HW231255   6.012   4.164   4.957  0.4357  0.5208  1.0203
10289SOL     OW31256   4.336   6.380   6.804 -0.1128  0.0628 -0.0859
10289SOL    HW131257   4.417   6.378   6.753 -1.1217 -1.3160 -1.7236
10289SOL    HW231258   4.270   6.342   6.746 -1.5424 -0.6647  1.9109
10290SOL     OW31259   3.260   0.438   3.195  1.0215  0.2319 -0.0386
10290SOL    HW131260   3.232   0.430   3.104  0.9433  0.0685  0.0000
10290SOL    HW231261   3.270   0.533   3.208 -0.5645  0.3897  0.2621
10291SOL     OW31262   3.910   1.734   5.702  0.0552  0.0343 -0.4688
10291SOL    HW131263   3.819   1.731   5.731  0.3099  1.5736  0.6228
10291SOL    HW231264   3.958   1.766   5.778  1.6344 -1.4473 -0.7946
10292SOL     OW31265   6.436   1.947   3.839  0.4885 -0.0844 -0.3821
10292SOL    HW131266   6.429   1.950   3.934 -0.1150 -0.1980 -0.4211
10292SOL    HW231267   6.526   1.974   3.821  0.9001 -0.9493  0.2728
10293SOL     OW31268   2.099   0.342   6.474 -0.0250  0.3716  0.1761
10293SOL    HW131269   2.035   0.320   6.406 -0.0654  1.0694 -0.0163
10293SOL    HW231270   2.092   0.436   6.484  0.0921  0.2957  1.0469
10294SOL     OW31271   3.207   5.694   2.156 -0.2946  1.0166  0.1571
10294SOL    HW131272   3.231   5.763   2.217 -1.9417 -0.7575  3.0621
10294SOL    HW231273   3.112   5.699   2.150 -0.2487  0.5581 -1.6343
10295SOL     OW31274   5.462   6.771   5.851  0.1613 -0.3826 -0.5065
10295SOL    HW131275   5.439   6.863   5.839  3.3878  0.4232 -1.4332
10295SOL    HW231276   5.486   6.763   5.943  2.8647  0.5825 -1.0424
10296SOL     OW31277   6.054   2.943   1.354  0.0712 -0.2994 -0.3450
10296SOL    HW131278   6.139   2.952   1.310  1.2876 -0.9205  1.7480
10296SOL    HW231279   6.056   2.856   1.393 -1.5297 -0.3022 -0.2014
10297SOL     OW31280   4.635   5.154   0.310  0.4244 -0.4661  0.0039
10297SOL    HW131281   4.658   5.216   0.241  2.3109  0.0407  1.0479
10297SOL    HW231282   4.641   5.068   0.267  1.4310 -0.1518 -0.5144
10298SOL     OW31283   0.940   5.346   4.673 -0.6077 -0.0317 -0.1759
10298SOL    HW131284   0.993   5.324   4.750  0.8346 -0.9615 -1.3968
10298SOL    HW231285   0.918   5.262   4.634 -2.6319  0.3560  0.0213
10299SOL     OW31286   5.698   5.792   5.238  0.1807  0.2491  0.8149
10299SOL    HW131287   5.606   5.776   5.257  0.0927  0.9763  1.0366
10299SOL    HW231288   5.702   5.886   5.218  1.0389  0.4503  1.8597
10300SOL     OW31289   0.785   4.779   5.428 -0.2403  0.1270 -0.6731
10300SOL    HW131290   0.759   4.754   5.517 -2.9313  0.4471 -1.2915
10300SOL    HW231291   0.818   4.697   5.389 -0.7512 -0.4274  0.0339
10301SOL     OW31292   5.834   6.192   3.190  0.0737  0.2292 -0.3259
10301SOL    HW131293   5.875   6.209   3.275  0.4749 -0.7023 -0.3154
10301SOL    HW231294   5.908   6.186   3.129 -0.2414  1.4003 -0.8454
10302SOL     OW31295   6.335   3.512   6.018  0.1400  0.0181 -0.2409
10302SOL    HW131296   6.294   3.531   6.103 -0.5985 -2.5134  0.0531
10302SOL    HW231297   6.427   3.497   6.038  0.2959  0.9999 -0.1644
10303SOL     OW31298   3.721   5.546   1.881  0.0914  0.2862 -0.5349
10303SOL    HW131299   3.700   5.640   1.883 -0.9415  0.0421  0.4689
10303SOL    HW231300   3.638   5.503   1.863  0.4233 -0.4904 -0.2415
10304SOL     OW31301   5.845   3.431   3.335  0.0694  0.4556 -0.1963
10304SOL    HW131302   5.790   3.355   3.314 -0.7939  0.5654  1.4852
10304SOL    HW231303   5.836   3.489   3.259 -0.3726 -0.5038 -0.8955
10305SOL     OW31304   2.844   6.688   4.935  0.0022  0.0943  0.1969
10305SOL    HW131305   2.902   6.763   4.947  2.4487 -1.7416  0.5941
10305SOL    HW231306   2.875   6.646   4.855 -0.3740 -1.2660  0.7386
10306SOL     OW31307   2.396   0.033   3.173  0.1793 -0.6496  0.0452
10306SOL    HW131308   2.361   0.121   3.178  1.5211 -0.0394 -0.6679
10306SOL    HW231309   2.491   0.045   3.182  0.2861 -2.1663  1.4887
10307SOL     OW31310   2.636   4.912   0.330  0.5075  0.1287 -0.1745
10307SOL    HW131311   2.599   4.946   0.412 -0.5885 -1.3971  0.0064
10307SOL    HW231312   2.730   4.926   0.339  0.2463  1.8175  0.4589
10308SOL     OW31313   6.125   2.017   3.392  0.1878 -0.5042  0.0089
10308SOL    HW131314   6.084   2.007   3.306 -1.5354  0.0695  0.7283
10308SOL    HW231315   6.198   1.955   3.391 -0.5111 -1.3510 -1.4429
10309SOL     OW31316   0.166   4.758   2.035 -0.0102  0.6321  0.1335
10309SOL    HW131317   0.073   4.746   2.018  0.0642 -2.4180  1.3395
10309SOL    HW231318   0.171   4.777   2.129  0.6863 -4.3417  1.3672
10310SOL     OW31319   3.559   3.806   3.533  1.0442 -1.1948  0.4609
10310SOL    HW131320   3.651   3.804   3.506  0.8069  2.5658 -1.2860
10310SOL    HW231321   3.553   3.882   3.591 -1.0799 -0.9098 -0.0583
10311SOL     OW31322   5.324   5.287   5.391  0.0071  0.6619  0.3810
10311SOL    HW131323   5.377   5.335   5.328  0.2797 -1.6711 -1.3277
10311SOL    HW231324   5.386   5.257   5.458  0.2968  0.5701  0.0731
10312SOL     OW31325   6.586   3.550   5.078  0.7938  0.3297 -0.5523
10312SOL    HW131326   6.648   3.527   5.148  1.9774  2.2962 -0.8788
10312SOL    HW231327   6.608   3.640   5.055 -1.5006  0.7261 -1.4792
10313SOL     OW31328   2.440   5.677   5.585  0.0987 -0.4123  0.3795
10313SOL    HW131329   2.410   5.595   5.623 -0.1393  0.0377  1.1762
10313SOL    HW231330   2.361   5.714   5.544 -0.1153  0.0745  1.2174
10314SOL     OW31331   4.702   3.876   6.224  0.1985  0.0794  0.4530
10314SOL    HW131332   4.773   3.941   6.217  0.5941 -0.5162 -1.7634
10314SOL    HW231333   4.629   3.915   6.176 -0.0008 -0.5639  0.2353
10315SOL     OW31334   4.434   0.342   4.438 -0.0117 -0.6572  0.3300
10315SOL    HW131335   4.435   0.431   4.405  0.1849 -0.9595 -0.4937
10315SOL    HW231336   4.482   0.291   4.373  1.3678 -1.0732  1.6227
10316SOL     OW31337   4.738   6.776   0.718  0.3918  0.5868 -0.2958
10316SOL    HW131338   4.758   6.870   0.710  0.1893  0.5541 -1.4006
10316SOL    HW231339   4.737   6.759   0.812  0.2139  1.7426 -0.0761
10317SOL     OW31340   5.289   5.036   3.821  0.3567 -0.1471  0.1810
10317SOL    HW131341   5.326   4.948   3.824  0.5606 -0.0413  0.8539
10317SOL    HW231342   5.203   5.025   3.780 -0.1620 -0.8566  1.4189
10318SOL     OW31343   5.107   5.691   1.114 -0.1147  0.7260 -0.6433
10318SOL    HW131344   5.158   5.765   1.080  0.4217  0.8569  0.4097
10318SOL    HW231345   5.116   5.623   1.047  0.3071  1.2356 -1.1115
10319SOL     OW31346   2.184   0.292   2.531 -0.0140 -0.5138  0.2388
10319SOL    HW131347   2.099   0.250   2.543  0.5852 -1.5569  1.0287
10319SOL    HW231348   2.165   0.386   2.534 -1.4473 -0.6585 -1.9867
10320SOL     OW31349   3.707   5.133   4.864 -0.0473 -0.0517 -0.2264
10320SOL    HW131350   3.643   5.190   4.907  0.7123  0.8535 -0.2757
10320SOL    HW231351   3.764   5.192   4.816 -0.1120 -0.9506 -1.4822
10321SOL     OW31352   5.067   0.514   6.120  0.5012 -0.2057  0.4831
10321SOL    HW131353   5.017   0.478   6.047 -0.7085 -0.3316  1.3335
10321SOL    HW231354   5.006   0.575   6.162  1.1290 -0.2221  1.4414
10322SOL     OW31355   6.685   1.473   5.949 -0.1441  0.0135  0.0582
10322SOL    HW131356   6.729   1.557   5.967 -1.5899  0.9915 -0.7745
10322SOL    HW231357   6.605   1.477   6.003 -1.5448  0.3822 -1.9220
10323SOL     OW31358   5.112   0.843   1.038  0.2093 -0.5643 -0.0962
10323SOL    HW131359   5.087   0.815   0.951 -0.0913 -0.0393 -0.1845
10323SOL    HW231360   5.056   0.792   1.097  0.2554 -0.7563 -0.2198
10324SOL     OW31361   3.611   5.966   0.929 -0.2808  0.0561  0.3177
10324SOL    HW131362   3.651   5.913   0.860 -0.4461  0.8715 -0.4280
10324SOL    HW231363   3.582   5.902   0.994  2.9282 -0.5464  1.3353
10325SOL     OW31364   2.449   1.514   0.074  0.1722  0.2308 -0.1122
10325SOL    HW131365   2.493   1.463   0.142  1.2788  0.2856 -0.7776
10325SOL    HW231366   2.453   1.605   0.106 -0.0132  0.1642  0.1093
10326SOL     OW31367   1.126   3.704   3.573  0.2373 -0.3825  0.5053
10326SOL    HW131368   1.082   3.640   3.629 -0.2562 -0.0840  0.4703
10326SOL    HW231369   1.211   3.718   3.615  0.0971 -0.5869  0.8676
10327SOL     OW31370   3.117   5.910   1.742 -0.0679  0.1681  0.2057
10327SOL    HW131371   3.037   5.921   1.793 -0.5773 -1.4018 -0.1939
10327SOL    HW231372   3.160   5.995   1.746 -1.1142  0.6751  1.5103
10328SOL     OW31373   2.925   1.015   3.249 -0.0002 -0.2910  0.1268
10328SOL    HW131374   2.868   1.081   3.288  0.0807 -0.4925  0.5943
10328SOL    HW231375   2.867   0.942   3.229  0.1050 -0.5283  0.6787
10329SOL     OW31376   5.073   0.445   2.893 -0.7470 -0.0838 -0.0257
10329SOL    HW131377   4.986   0.481   2.880 -0.3383  0.9238 -0.0485
10329SOL    HW231378   5.120   0.466   2.812 -0.1035  0.5201  0.4925
10330SOL     OW31379   5.202   1.197   2.057  0.0487 -0.5104 -0.2247
10330SOL    HW131380   5.128   1.190   2.116  0.5704 -0.1803  0.4885
10330SOL    HW231381   5.197   1.286   2.022  0.4158 -0.2914  0.2609
10331SOL     OW31382   1.632   0.570   2.400  0.3199  0.1118 -0.0067
10331SOL    HW131383   1.538   0.569   2.416  0.0885 -0.0142 -1.2821
10331SOL    HW231384   1.661   0.654   2.437 -0.5276  0.7642 -0.7622
10332SOL     OW31385   6.310   5.880   0.279 -0.2857 -0.0101 -0.3973
10332SOL    HW131386   6.293   5.786   0.272 -0.8977  0.0574  0.0921
10332SOL    HW231387   6.404   5.886   0.297 -0.5034 -0.6110  1.0579
10333SOL     OW31388   2.703   5.108   1.305 -0.0961  0.3271  0.2551
10333SOL    HW131389   2.701   5.203   1.293 -1.6277  0.2371 -0.5028
10333SOL    HW231390   2.651   5.093   1.384  0.7184  0.1437  0.7716
10334SOL     OW31391   4.842   6.372   3.886  0.2067  0.0482 -0.1868
10334SOL    HW131392   4.871   6.460   3.911  1.5859 -0.3495 -0.3093
10334SOL    HW231393   4.860   6.367   3.792  0.5086 -0.5025 -0.1011
10335SOL     OW31394   1.478   1.354   2.051  0.9020  0.0429 -0.2143
10335SOL    HW131395   1.504   1.384   1.964 -2.2318  0.5343 -1.1317
10335SOL    HW231396   1.444   1.266   2.037 -1.7661  0.9446 -0.0684
10336SOL     OW31397   2.667   4.870   3.390  0.1778  0.2776  0.0347
10336SOL    HW131398   2.690   4.797   3.332 -1.3873 -0.7929  0.7000
10336SOL    HW231399   2.573   4.862   3.403  0.6555 -0.8710  4.4143
10337SOL     OW31400   0.484   0.211   4.111  0.5795 -0.4432  0.6413
10337SOL    HW131401   0.571   0.187   4.081 -0.2000 -0.0713 -2.2416
10337SOL    HW231402   0.494   0.299   4.149  1.4840 -0.5035  0.5407
10338SOL     OW31403   2.549   0.908   6.040 -0.0697 -0.6473  0.0565
10338SOL    HW131404   2.540   0.912   5.945 -1.4550  0.1261  0.1960
10338SOL    HW231405   2.641   0.887   6.054  0.3686  0.0919 -1.4402
10339SOL     OW31406   6.608   4.194   1.011  0.6829  0.3021 -0.4133
10339SOL    HW131407   6.636   4.106   1.035  1.7292  0.5897 -0.5112
10339SOL    HW231408   6.529   4.182   0.959  0.0985 -0.5030  0.6304
10340SOL     OW31409   3.067   2.898   4.258  0.4381  0.1843  0.4841
10340SOL    HW131410   3.115   2.970   4.299 -2.3649  0.9013  2.9188
10340SOL    HW231411   3.074   2.914   4.164  0.3175  3.4187  0.9191
10341SOL     OW31412   3.536   2.966   1.627  0.1246 -0.5018  0.2369
10341SOL    HW131413   3.561   2.960   1.535  1.1400  1.2063  0.3670
10341SOL    HW231414   3.601   2.913   1.673  1.4838  1.0861  0.2283
10342SOL     OW31415   1.404   1.336   4.450  0.1578 -0.3348 -0.0506
10342SOL    HW131416   1.409   1.308   4.541  0.0743 -1.3704 -0.3537
10342SOL    HW231417   1.387   1.431   4.455 -0.0076 -0.4083  1.0034
10343SOL     OW31418   1.898   6.709   2.336 -0.1537 -0.4674 -0.4061
10343SOL    HW131419   1.850   6.727   2.417  2.1957 -1.3331  1.2900
10343SOL    HW231420   1.849   6.638   2.294 -0.5976 -1.0397  1.0280
10344SOL     OW31421   1.759   0.330   4.947 -0.3193  0.1214  0.5320
10344SOL    HW131422   1.711   0.250   4.925 -0.9460  0.8225 -0.7571
10344SOL    HW231423   1.823   0.302   5.012 -1.8022 -1.0568  1.5737
10345SOL     OW31424   6.076   0.488   3.171  0.4079 -0.2273 -0.4179
10345SOL    HW131425   6.113   0.510   3.085  2.0697  1.3233  0.6014
10345SOL    HW231426   6.130   0.415   3.202  0.3355 -0.2587 -0.3674
10346SOL     OW31427   0.786   6.784   6.110  0.3870  1.1224 -0.5740
10346SOL    HW131428   0.735   6.839   6.051 -0.0467  2.2130  0.7652
10346SOL    HW231429   0.845   6.845   6.154  0.5424  0.3803  0.2803
10347SOL     OW31430   1.484   0.167   6.793  0.1824 -0.0237 -0.6816
10347SOL    HW131431   1.546   0.100   6.821  1.0717  0.9276 -0.2923
10347SOL    HW231432   1.399   0.123   6.794  0.5021 -0.6883  1.2043
10348SOL     OW31433   3.461   2.223   6.834  0.4311 -0.0981 -0.0423
10348SOL    HW131434   3.446   2.252   6.924  0.4952 -1.1420  0.3150
10348SOL    HW231435   3.535   2.163   6.839 -0.3708 -1.1623 -0.5919
10349SOL     OW31436   3.185   1.703   3.433 -0.6795 -0.4509  0.0835
10349SOL    HW131437   3.207   1.778   3.378  0.5967 -0.4970  0.4956
10349SOL    HW231438   3.212   1.729   3.521 -0.9750 -1.0829  0.3657
10350SOL     OW31439   4.869   5.094   3.502  0.0050  0.0027  0.2578
10350SOL    HW131440   4.869   5.189   3.508 -1.8615  0.2151 -2.0455
10350SOL    HW231441   4.949   5.073   3.454 -1.9958  0.9423 -3.8918
10351SOL     OW31442   4.084   5.171   6.602 -0.7110 -0.0727  0.4750
10351SOL    HW131443   4.164   5.139   6.643  0.7143  0.1756 -1.9260
10351SOL    HW231444   4.059   5.248   6.654  0.8810  0.1177  1.0021
10352SOL     OW31445   4.722   2.160   3.326  0.1834 -0.1825 -0.2137
10352SOL    HW131446   4.630   2.163   3.350 -0.2096 -1.0223 -1.5405
10352SOL    HW231447   4.727   2.095   3.256  1.8128 -0.2771 -0.0434
10353SOL     OW31448   4.863   5.989   4.171  0.8671  0.2562  0.8148
10353SOL    HW131449   4.891   6.039   4.094 -1.5771  0.3273 -0.1261
10353SOL    HW231450   4.894   6.041   4.245  1.1144  1.5155 -0.1215
10354SOL     OW31451   2.127   2.164   3.568  0.2536 -0.0205  0.0536
10354SOL    HW131452   2.198   2.217   3.532  2.9024 -1.1895  3.0498
10354SOL    HW231453   2.057   2.227   3.587  0.4733  1.2272 -2.7106
10355SOL     OW31454   3.261   3.280   4.611  0.5128  0.6579  0.4288
10355SOL    HW131455   3.237   3.368   4.581 -0.6442  0.2218  0.0147
10355SOL    HW231456   3.351   3.289   4.644  0.5078  1.9268  0.1339
10356SOL     OW31457   0.273   4.065   6.794  0.0530 -0.1507 -0.1507
10356SOL    HW131458   0.324   3.989   6.823 -0.7186 -0.7872 -0.4252
10356SOL    HW231459   0.307   4.085   6.707 -0.0800 -0.5065 -0.2891
10357SOL     OW31460   1.774   4.354   5.680  0.2532  0.3753 -0.3369
10357SOL    HW131461   1.770   4.259   5.669 -1.1320  0.2638  0.8216
10357SOL    HW231462   1.859   4.371   5.720  1.3758 -0.1263 -2.3566
10358SOL     OW31463   3.177   4.882   1.168 -0.5953  0.0770  0.0506
10358SOL    HW131464   3.247   4.943   1.143 -0.3972 -0.3574 -0.4456
10358SOL    HW231465   3.126   4.932   1.232  0.3872  0.2693  0.7198
10359SOL     OW31466   5.892   2.655   5.324 -0.6048 -0.1345  0.3618
10359SOL    HW131467   5.860   2.605   5.249 -0.3828  0.8666 -0.4281
10359SOL    HW231468   5.885   2.595   5.398 -0.8443 -1.1422 -0.4558
10360SOL     OW31469   5.538   4.906   5.391  0.2067 -0.4392  0.0911
10360SOL    HW131470   5.602   4.975   5.408  0.3754 -0.3927 -0.6723
10360SOL    HW231471   5.460   4.932   5.440  0.3791  0.1226  0.0722
10361SOL     OW31472   2.457   5.962   3.374  0.1661 -0.3531 -0.0991
10361SOL    HW131473   2.540   5.941   3.332  0.5897 -1.1040  1.0744
10361SOL    HW231474   2.467   6.054   3.401  0.9495 -0.6782  0.7669
10362SOL     OW31475   5.305   5.339   6.790 -0.0327 -0.5476 -0.3964
10362SOL    HW131476   5.232   5.287   6.824  1.1275 -0.4292  2.5667
10362SOL    HW231477   5.381   5.282   6.797  0.6254  0.2414 -0.8728
10363SOL     OW31478   5.839   3.840   0.705 -0.0769  0.1746 -0.2570
10363SOL    HW131479   5.785   3.783   0.760 -1.6061  0.6579 -1.2004
10363SOL    HW231480   5.830   3.804   0.617  0.9599  0.4228 -0.4727
10364SOL     OW31481   1.216   2.026   4.628  0.6807 -0.2074  0.6194
10364SOL    HW131482   1.178   2.051   4.544 -0.5250 -0.7489  0.9762
10364SOL    HW231483   1.275   1.953   4.608  2.5740  1.4283 -0.1177
10365SOL     OW31484   4.186   1.641   4.788 -0.0790  0.3122 -0.2947
10365SOL    HW131485   4.167   1.715   4.846 -2.0049 -1.2795  1.2609
10365SOL    HW231486   4.105   1.627   4.739  0.8725  0.3526 -1.9703
10366SOL     OW31487   2.783   2.391   0.628  0.4291  0.0426 -0.7515
10366SOL    HW131488   2.788   2.353   0.716  0.1427  0.8356 -0.3809
10366SOL    HW231489   2.694   2.372   0.599 -0.2020  1.6232  0.0163
10367SOL     OW31490   2.233   2.059   4.687  0.2636 -0.1839  0.3789
10367SOL    HW131491   2.295   2.092   4.622 -0.6681  1.2061  0.1497
10367SOL    HW231492   2.176   2.001   4.637 -0.1567  0.5108  0.0209
10368SOL     OW31493   6.204   5.048   2.763  0.0207 -0.3799 -0.0882
10368SOL    HW131494   6.221   4.955   2.780  0.2407 -0.3967 -0.4020
10368SOL    HW231495   6.242   5.093   2.838 -2.3108 -0.7049  1.3885
10369SOL     OW31496   6.285   6.657   5.574  0.4352  0.1573 -0.2094
10369SOL    HW131497   6.248   6.586   5.627 -1.1443 -0.7451 -2.3561
10369SOL    HW231498   6.366   6.681   5.618  0.2860 -2.0007  1.3872
10370SOL     OW31499   0.011   1.990   6.398  0.0807 -0.3796 -0.1572
10370SOL    HW131500  -0.067   2.006   6.452  0.0845  1.8154 -0.7177
10370SOL    HW231501  -0.022   1.979   6.309  0.1621 -3.0494  0.0584
10371SOL     OW31502   0.942   3.948   3.556 -0.0255  0.1313 -0.0690
10371SOL    HW131503   0.866   3.898   3.587 -1.0660  1.7666  0.1577
10371SOL    HW231504   1.017   3.903   3.595 -1.1387  1.0637  3.5734
10372SOL     OW31505   6.229   1.230   2.319 -0.5775  0.0209  0.5433
10372SOL    HW131506   6.305   1.280   2.288 -0.3569 -1.3284 -1.2897
10372SOL    HW231507   6.212   1.264   2.407  0.9434  1.6969  0.2552
10373SOL     OW31508   6.780   4.707   4.285  0.0773  0.3145  0.2952
10373SOL    HW131509   6.685   4.713   4.290 -0.1596 -2.3172  0.3929
10373SOL    HW231510   6.801   4.727   4.194 -0.7976 -0.8788 -0.1932
10374SOL     OW31511   6.628   2.501   0.278  0.0750 -0.0549 -0.0347
10374SOL    HW131512   6.575   2.548   0.343 -0.2181 -0.8226  0.2865
10374SOL    HW231513   6.565   2.479   0.208 -0.2521 -1.7081  0.7299
10375SOL     OW31514   3.853   4.299   1.311  0.1057  0.1475  0.2485
10375SOL    HW131515   3.763   4.324   1.330 -0.1165  0.6819 -1.3997
10375SOL    HW231516   3.892   4.376   1.271  0.5836 -0.8329 -1.2345
10376SOL     OW31517   1.099   0.233   5.916  0.2198  0.2977  0.4417
10376SOL    HW131518   1.005   0.247   5.918  0.3478  1.1015  1.8751
10376SOL    HW231519   1.122   0.202   6.003  1.1214 -1.2094 -0.2895
10377SOL     OW31520   1.134   6.051   3.530  0.2860  0.7908 -0.1327
10377SOL    HW131521   1.190   6.075   3.456 -0.7023  2.6716 -0.3105
10377SOL    HW231522   1.055   6.103   3.518 -0.1682  0.6308  1.9003
10378SOL     OW31523   1.106   2.023   3.506 -0.6413  0.2394  0.2608
10378SOL    HW131524   1.047   1.980   3.444  0.1159 -1.5122  0.6968
10378SOL    HW231525   1.189   2.030   3.458  0.3844 -2.4564  1.4516
10379SOL     OW31526   1.737   5.409   5.190  0.5242  0.1910  0.0367
10379SOL    HW131527   1.793   5.364   5.254  1.5083  0.0392 -0.8992
10379SOL    HW231528   1.798   5.461   5.138 -0.3110  0.6187 -0.5314
10380SOL     OW31529   2.475   0.998   3.334  0.0989 -0.2011 -1.0967
10380SOL    HW131530   2.438   1.065   3.391  0.0181 -0.7070 -0.5406
10380SOL    HW231531   2.570   1.007   3.344  0.0863 -0.2123 -0.9628
10381SOL     OW31532   4.604   6.483   6.762 -0.3674 -0.0691  0.0993
10381SOL    HW131533   4.567   6.569   6.743 -1.2796 -0.4652  0.0007
10381SOL    HW231534   4.617   6.482   6.856 -0.6511  0.0786  0.1426
10382SOL     OW31535   4.337   1.545   5.006 -0.4255  0.1309 -1.0729
10382SOL    HW131536   4.335   1.606   4.933  2.7246  1.0186 -0.5587
10382SOL    HW231537   4.402   1.479   4.980  0.7473  0.4535  0.8179
10383SOL     OW31538   5.091   0.766   1.975  0.4520 -0.7465  0.0370
10383SOL    HW131539   5.004   0.732   1.999 -1.0830  1.6281 -1.7421
10383SOL    HW231540   5.100   0.744   1.882  0.6780  1.0781 -0.4009
10384SOL     OW31541   1.511   2.573   3.954 -0.0844  0.4968  0.2046
10384SOL    HW131542   1.429   2.551   4.000  2.2741 -0.6492  4.3997
10384SOL    HW231543   1.522   2.667   3.968  0.1717  0.3160  1.3208
10385SOL     OW31544   4.905   2.019   5.032  0.0316 -0.3311 -0.1101
10385SOL    HW131545   4.979   2.041   4.974  0.3016  0.8341  0.6416
10385SOL    HW231546   4.932   1.938   5.076  0.2119 -0.7295 -0.9345
10386SOL     OW31547   3.421   1.587   2.997  0.3114 -0.3414 -0.7850
10386SOL    HW131548   3.447   1.679   2.997  0.3069 -0.3353 -0.3511
10386SOL    HW231549   3.477   1.546   3.063  1.3369 -0.9568 -2.0108
10387SOL     OW31550   1.737   1.187   6.356 -0.1507  0.4580  0.3396
10387SOL    HW131551   1.786   1.105   6.359 -1.2563 -0.3052 -1.3921
10387SOL    HW231552   1.743   1.221   6.445  2.1059 -0.4134  0.5974
10388SOL     OW31553   2.997   1.961   5.227 -0.1011  1.1590  0.2661
10388SOL    HW131554   2.938   1.926   5.161  1.6314  0.1665 -0.8525
10388SOL    HW231555   3.028   2.044   5.189 -0.2513  1.3459  0.5443
10389SOL     OW31556   5.043   2.963   4.635  0.1723  0.1842  0.8223
10389SOL    HW131557   5.107   2.896   4.661  1.3559  0.7885 -0.4551
10389SOL    HW231558   4.966   2.912   4.608  0.5213 -0.6049  1.2655
10390SOL     OW31559   4.818   5.715   4.092  0.8432 -0.1214 -0.0823
10390SOL    HW131560   4.791   5.654   4.023 -0.8483  1.0265 -0.5016
10390SOL    HW231561   4.739   5.766   4.111  1.4808  0.1457  2.1399
10391SOL     OW31562   4.274   4.664   1.839  0.3255  0.7648 -0.0333
10391SOL    HW131563   4.357   4.702   1.869  0.7376  0.3606 -0.6334
10391SOL    HW231564   4.216   4.739   1.827  0.3849  0.9937  1.0321
10392SOL     OW31565   5.200   6.342   2.699  0.6371  0.0004  0.0098
10392SOL    HW131566   5.131   6.316   2.639  1.2534  1.1496 -1.2643
10392SOL    HW231567   5.193   6.281   2.772 -2.0480  0.4221  0.1981
10393NA      NA31568   3.007   3.814   1.864 -0.0318 -0.2871  0.0243
10394NA      NA31569   3.549   0.320   0.414 -0.3054  0.3226 -0.3320
10395NA      NA31570   1.366   0.768   6.383  0.6571 -0.2783  0.3364
10396NA      NA31571   3.914   5.429   4.532 -0.3231  0.1980  0.3787
10397NA      NA31572   4.999   5.790   4.190  0.1071  0.1226 -0.1869
10398NA      NA31573   0.767   3.159   5.672 -0.1265 -0.2427  0.1075
10399NA      NA31574   4.587   1.065   4.169  0.0657  0.1413 -0.2994
10400NA      NA31575   6.169   6.741   5.409  0.0053 -0.0573 -0.1009
10401NA      NA31576   5.122   5.490   5.504 -0.3395  0.1427 -0.1568
10402NA      NA31577   2.048   6.102   5.806 -0.0122 -0.4154 -0.5001
10403NA      NA31578   1.858   3.795   4.700  0.1219 -0.2141 -0.1657
10404NA      NA31579   0.171   0.309   2.240  0.0504  0.3529  0.2942
10405NA      NA31580   5.382   1.456   0.711  0.4941  0.0446 -0.3660
10406NA      NA31581   3.005   0.336   2.206 -0.3422 -0.0095  0.2664
10407NA      NA31582   6.463   2.212   4.926  0.1607  0.2741  0.6548
10408NA      NA31583   5.022   3.248   2.030  0.1450  0.0641  0.4668
10409NA      NA31584   5.322   1.240   2.451  0.1529 -0.1478 -0.2120
10410NA      NA31585   6.691   1.605   2.416  0.1225 -0.4500 -0.1784
10411NA      NA31586   6.791   5.026   3.023 -0.3538 -0.2811  0.4578
10412NA      NA31587   2.649   3.122   2.753 -0.2796 -0.0516 -0.1840
10413NA      NA31588   4.758   2.353   4.652 -0.0602  0.4091 -0.1566
10414NA      NA31589   5.101   2.748   1.618 -0.0464 -0.1908 -0.0130
10415NA      NA31590   6.684   3.021   0.222 -0.6613 -0.1828  0.4263
10416NA      NA31591   1.375   5.688   0.731 -0.1335 -0.0501  0.3646
10417NA      NA31592   1.717   0.360   0.378  0.2829  0.0634  0.2968
10418NA      NA31593   0.604   5.091   1.663 -0.1644 -0.3104  0.1318
10419NA      NA31594   1.692   4.745   3.354 -0.0627 -0.2248  0.6158
10420NA      NA31595   6.107   6.007   3.795  0.3611 -0.5949  0.0981
10421NA      NA31596   1.094   1.690   4.952  0.3287  0.2811 -0.2706
10422NA      NA31597   0.661   6.283   1.092 -0.2343  0.1086  0.4120
10423CL      CL31598   3.221   5.292   0.975  0.2658 -0.1945  0.3166
10424CL      CL31599   0.256   6.746   0.737  0.1430 -0.1566 -0.2250
10425CL      CL31600   5.455   6.655   0.018 -0.8003 -0.0374 -0.4424
10426CL      CL31601   5.711   6.342   3.855  0.1573  0.0071  0.2746
10427CL      CL31602   5.673   2.338   0.984  0.1316  0.1511 -0.0877
10428CL      CL31603   0.596   1.806   4.664 -0.1602  0.0136 -0.2782
10429CL      CL31604   3.570   3.964   6.219 -0.1557 -0.2031  0.2391
10430CL      CL31605   0.471   6.374   3.813  0.1286 -0.3255 -0.0017
10431CL      CL31606   1.759   3.562   6.343 -0.2153 -0.0463  0.0433
10432CL      CL31607   1.099   3.420   6.085  0.0649 -0.0039 -0.0854
10433CL      CL31608   4.344   1.720   1.001 -0.1911 -0.5252 -0.4889
10434CL      CL31609   4.788   2.778   4.543  0.2080 -0.1452 -0.3673
10435CL      CL31610   6.099   0.993   3.983 -0.0606  0.2831 -0.0215
10436CL      CL31611   5.262   1.929   5.050 -0.0098 -0.2393  0.3305
10437CL      CL31612   2.857   1.482   0.650 -0.0304 -0.3615 -0.3174
10438CL      CL31613   0.230   2.972   1.227 -0.3574  0.1959 -0.3948
10439CL      CL31614   1.338   6.065   1.729 -0.3168  0.4370 -0.1472
10440CL      CL31615   2.121   6.027   5.184 -0.0507 -0.5440 -0.0068
10441CL      CL31616   2.174   5.865   0.231  0.0576 -0.8930  0.2401
10442CL      CL31617   1.158   5.169   1.862  0.2790  0.0221 -0.2469
10443CL      CL31618   3.416   3.338   2.503 -0.5453  0.3602  0.0837
10444CL      CL31619   1.557   3.225   5.283  0.0897 -0.4200  0.0839
10445CL      CL31620   5.544   4.011   3.554 -0.0323  0.0788  0.2502
10446CL      CL31621   4.721   6.299   1.401  0.1081 -0.0326  0.4770
10447CL      CL31622   4.932   6.339   3.595 -0.0498 -0.2851 -0.0459
10448CL      CL31623   5.396   3.744   6.732 -0.6936 -0.1692 -0.0439
10449CL      CL31624   2.333   6.294   2.493  0.4629 -0.0665 -0.3597
10450CL      CL31625   0.794   4.859   6.277  0.1385 -0.0565  0.1781
10451CL      CL31626   3.617   6.494   0.052  0.6730  0.2032 -0.1553
10452CL      CL31627   5.485   1.872   0.103 -0.1355  0.0627  0.1565
10453CL      CL31628   0.317   5.855   0.272  0.2185 -0.4804  0.2767
10454CL      CL31629   1.047   3.948   1.490 -0.1206 -0.0186 -0.0905
10455CL      CL31630   3.333   0.738   3.204 -0.0487  0.2008  0.4049
10456CL      CL31631   5.183   3.395   2.112 -0.0771  0.0687  0.3028
10457CL      CL31632   5.209   3.167   6.189  0.1710  0.6061  0.2715
10458CL      CL31633   6.607   0.726   2.581 -0.1919  0.4897 -0.2866
10459CL      CL31634   6.593   4.697   2.693  0.0330  0.0913  0.2363
10460CL      CL31635   3.678   5.355   0.769 -0.2735 -0.2340  0.3284
10461CL      CL31636   1.586   3.469   1.846  0.2260 -0.3262  0.2482
10462CL      CL31637   1.845   3.355   4.413 -0.3217  0.1031 -0.1689
10463CL      CL31638   3.759   2.793   2.098  0.3520  0.1489 -0.0995
10464CL      CL31639   3.182   5.573   5.903  0.0671  0.0138  0.3856
   6.83490   6.83490   6.83490
