;
;   File g2.5_cooh_pamam.itp  was generated
;   By user: sairam (1000)
;   On host: sairam
;   At date: Wed. April  3 15:45:51 2024
;
;   This is a standalone topology file
;
;   Created by:
;   ParmEd:       amb2gro_top_gro.py, VERSION 3.4.1
;   Executable:   amb2gro_top_gro.py
;   Library dir:  /usr/local/gromacs/share/gromacs/top
;   Command line:
;     ./amb2gro_top_gro.py -p g2.5_cooh_pamam.prmtop -c g2.5_cooh_pamam.inpcrd -t g2.5_cooh_pamam.itp -g g2.5_cooh_pamam.gro -b g2.5_cooh_pamam.pdb
;

;[ defaults ]
;; nbfunc        comb-rule       gen-pairs       fudgeLJ fudgeQQ
;1               2               yes             0.5          0.83333333  
;
;[ atomtypes ]
;; name    at.num    mass    charge ptype  sigma      epsilon
;c3             6  12.010000  0.00000000  A     0.33996695      0.4577296
;h1             1   1.008000  0.00000000  A      0.2471353      0.0656888
;n3             7  14.010000  0.00000000  A     0.32499985        0.71128
;hc             1   1.008000  0.00000000  A     0.26495328      0.0656888
;c              6  12.010000  0.00000000  A     0.33996695       0.359824
;o              8  16.000000  0.00000000  A     0.29599219        0.87864
;n              7  14.010000  0.00000000  A     0.32499985        0.71128
;hn             1   1.008000  0.00000000  A     0.10690785      0.0656888
;oh             8  16.000000  0.00000000  A     0.30664734      0.8803136
;ho             1   1.008000  0.00000000  A              0              0


[ moleculetype ]
; Name            nrexcl
g2.5_cooh_pamam          3

[ atoms ]
;   nr       type  resnr residue  atom   cgnr    charge       mass  typeB    chargeB      massB
; residue    1 aaa rtp aaa q -0.0
    1         c3      1    aaa     C1      1 0.02890000  12.010000   ; qtot 0.028900
    2         h1      1    aaa     H1      2 0.08460000   1.008000   ; qtot 0.113500
    3         h1      1    aaa     H2      3 0.08460000   1.008000   ; qtot 0.198100
    4         c3      1    aaa     C2      4 0.02890000  12.010000   ; qtot 0.227000
    5         h1      1    aaa     H3      5 0.08460000   1.008000   ; qtot 0.311600
    6         h1      1    aaa     H4      6 0.08460000   1.008000   ; qtot 0.396200
    7         n3      1    aaa     N1      7 -0.65770000  14.010000   ; qtot -0.261500
    8         n3      1    aaa     N2      8 -0.65770000  14.010000   ; qtot -0.919200
    9         c3      1    aaa     C3      9 0.36940000  12.010000   ; qtot -0.549800
   10         h1      1    aaa     H5     10 0.00650000   1.008000   ; qtot -0.543300
   11         h1      1    aaa     H6     11 0.00650000   1.008000   ; qtot -0.536800
   12         c3      1    aaa     C4     12 0.36940000  12.010000   ; qtot -0.167400
   13         h1      1    aaa     H7     13 0.00650000   1.008000   ; qtot -0.160900
   14         h1      1    aaa     H8     14 0.00650000   1.008000   ; qtot -0.154400
   15         c3      1    aaa     C5     15 0.36940000  12.010000   ; qtot 0.215000
   16         h1      1    aaa     H9     16 0.00650000   1.008000   ; qtot 0.221500
   17         h1      1    aaa    H10     17 0.00650000   1.008000   ; qtot 0.228000
   18         c3      1    aaa     C6     18 0.36940000  12.010000   ; qtot 0.597400
   19         h1      1    aaa    H11     19 0.00650000   1.008000   ; qtot 0.603900
   20         h1      1    aaa    H12     20 0.00650000   1.008000   ; qtot 0.610400
   21         c3      1    aaa     C7     21 -0.54350000  12.010000   ; qtot 0.066900
   22         hc      1    aaa    H13     22 0.15890000   1.008000   ; qtot 0.225800
   23         hc      1    aaa    H14     23 0.15890000   1.008000   ; qtot 0.384700
   24         c3      1    aaa     C8     24 -0.54350000  12.010000   ; qtot -0.158800
   25         hc      1    aaa    H15     25 0.15890000   1.008000   ; qtot 0.000100
   26         hc      1    aaa    H16     26 0.15890000   1.008000   ; qtot 0.159000
   27         c3      1    aaa     C9     27 -0.54350000  12.010000   ; qtot -0.384500
   28         hc      1    aaa    H17     28 0.15890000   1.008000   ; qtot -0.225600
   29         hc      1    aaa    H18     29 0.15890000   1.008000   ; qtot -0.066700
   30         c3      1    aaa    C10     30 -0.54350000  12.010000   ; qtot -0.610200
   31         hc      1    aaa    H19     31 0.15890000   1.008000   ; qtot -0.451300
   32         hc      1    aaa    H20     32 0.15890000   1.008000   ; qtot -0.292400
   33          c      1    aaa    C11     33 0.67800000  12.010000   ; qtot 0.385600
   34          c      1    aaa    C12     34 0.67800000  12.010000   ; qtot 1.063600
   35          c      1    aaa    C13     35 0.67800000  12.010000   ; qtot 1.741600
   36          c      1    aaa    C14     36 0.67800000  12.010000   ; qtot 2.419600
   37          o      1    aaa     O1     37 -0.60490000  16.000000   ; qtot 1.814700
   38          o      1    aaa     O2     38 -0.60490000  16.000000   ; qtot 1.209800
   39          o      1    aaa     O3     39 -0.60490000  16.000000   ; qtot 0.604900
   40          o      1    aaa     O4     40 -0.60490000  16.000000   ; qtot -0.000000
; residue    2 bbb rtp bbb q -0.0
   41         c3      2    bbb     C1     41 0.44180000  12.010000   ; qtot 0.441800
   42         h1      2    bbb     H1     42 -0.03530000   1.008000   ; qtot 0.406500
   43         h1      2    bbb     H2     43 -0.03530000   1.008000   ; qtot 0.371200
   44         c3      2    bbb     C2     44 -0.28250000  12.010000   ; qtot 0.088700
   45         h1      2    bbb     H3     45 0.15710000   1.008000   ; qtot 0.245800
   46         h1      2    bbb     H4     46 0.15710000   1.008000   ; qtot 0.402900
   47         n3      2    bbb     N1     47 -0.74090000  14.010000   ; qtot -0.338000
   48         c3      2    bbb     C3     48 0.51680000  12.010000   ; qtot 0.178800
   49         h1      2    bbb     H5     49 -0.05230000   1.008000   ; qtot 0.126500
   50         h1      2    bbb     H6     50 -0.05230000   1.008000   ; qtot 0.074200
   51         c3      2    bbb     C4     51 0.51680000  12.010000   ; qtot 0.591000
   52         h1      2    bbb     H7     52 -0.05230000   1.008000   ; qtot 0.538700
   53         h1      2    bbb     H8     53 -0.05230000   1.008000   ; qtot 0.486400
   54         c3      2    bbb     C5     54 -0.60390000  12.010000   ; qtot -0.117500
   55         hc      2    bbb     H9     55 0.16730000   1.008000   ; qtot 0.049800
   56         hc      2    bbb    H10     56 0.16730000   1.008000   ; qtot 0.217100
   57         c3      2    bbb     C6     57 -0.60390000  12.010000   ; qtot -0.386800
   58         hc      2    bbb    H11     58 0.16730000   1.008000   ; qtot -0.219500
   59         hc      2    bbb    H12     59 0.16730000   1.008000   ; qtot -0.052200
   60          c      2    bbb     C7     60 0.72110000  12.010000   ; qtot 0.668900
   61          c      2    bbb     C8     61 0.72110000  12.010000   ; qtot 1.390000
   62          o      2    bbb     O1     62 -0.61950000  16.000000   ; qtot 0.770500
   63          o      2    bbb     O2     63 -0.61950000  16.000000   ; qtot 0.151000
   64          n      2    bbb     N4     64 -0.46580000  14.010000   ; qtot -0.314800
   65         hn      2    bbb    H21     65 0.31480000   1.008000   ; qtot -0.000000
; residue    3 bbb rtp bbb q -0.0
   66         c3      3    bbb     C1     66 0.44180000  12.010000   ; qtot 0.441800
   67         h1      3    bbb     H1     67 -0.03530000   1.008000   ; qtot 0.406500
   68         h1      3    bbb     H2     68 -0.03530000   1.008000   ; qtot 0.371200
   69         c3      3    bbb     C2     69 -0.28250000  12.010000   ; qtot 0.088700
   70         h1      3    bbb     H3     70 0.15710000   1.008000   ; qtot 0.245800
   71         h1      3    bbb     H4     71 0.15710000   1.008000   ; qtot 0.402900
   72         n3      3    bbb     N1     72 -0.74090000  14.010000   ; qtot -0.338000
   73         c3      3    bbb     C3     73 0.51680000  12.010000   ; qtot 0.178800
   74         h1      3    bbb     H5     74 -0.05230000   1.008000   ; qtot 0.126500
   75         h1      3    bbb     H6     75 -0.05230000   1.008000   ; qtot 0.074200
   76         c3      3    bbb     C4     76 0.51680000  12.010000   ; qtot 0.591000
   77         h1      3    bbb     H7     77 -0.05230000   1.008000   ; qtot 0.538700
   78         h1      3    bbb     H8     78 -0.05230000   1.008000   ; qtot 0.486400
   79         c3      3    bbb     C5     79 -0.60390000  12.010000   ; qtot -0.117500
   80         hc      3    bbb     H9     80 0.16730000   1.008000   ; qtot 0.049800
   81         hc      3    bbb    H10     81 0.16730000   1.008000   ; qtot 0.217100
   82         c3      3    bbb     C6     82 -0.60390000  12.010000   ; qtot -0.386800
   83         hc      3    bbb    H11     83 0.16730000   1.008000   ; qtot -0.219500
   84         hc      3    bbb    H12     84 0.16730000   1.008000   ; qtot -0.052200
   85          c      3    bbb     C7     85 0.72110000  12.010000   ; qtot 0.668900
   86          c      3    bbb     C8     86 0.72110000  12.010000   ; qtot 1.390000
   87          o      3    bbb     O1     87 -0.61950000  16.000000   ; qtot 0.770500
   88          o      3    bbb     O2     88 -0.61950000  16.000000   ; qtot 0.151000
   89          n      3    bbb     N4     89 -0.46580000  14.010000   ; qtot -0.314800
   90         hn      3    bbb    H21     90 0.31480000   1.008000   ; qtot -0.000000
; residue    4 bbb rtp bbb q -0.0
   91         c3      4    bbb     C1     91 0.44180000  12.010000   ; qtot 0.441800
   92         h1      4    bbb     H1     92 -0.03530000   1.008000   ; qtot 0.406500
   93         h1      4    bbb     H2     93 -0.03530000   1.008000   ; qtot 0.371200
   94         c3      4    bbb     C2     94 -0.28250000  12.010000   ; qtot 0.088700
   95         h1      4    bbb     H3     95 0.15710000   1.008000   ; qtot 0.245800
   96         h1      4    bbb     H4     96 0.15710000   1.008000   ; qtot 0.402900
   97         n3      4    bbb     N1     97 -0.74090000  14.010000   ; qtot -0.338000
   98         c3      4    bbb     C3     98 0.51680000  12.010000   ; qtot 0.178800
   99         h1      4    bbb     H5     99 -0.05230000   1.008000   ; qtot 0.126500
  100         h1      4    bbb     H6    100 -0.05230000   1.008000   ; qtot 0.074200
  101         c3      4    bbb     C4    101 0.51680000  12.010000   ; qtot 0.591000
  102         h1      4    bbb     H7    102 -0.05230000   1.008000   ; qtot 0.538700
  103         h1      4    bbb     H8    103 -0.05230000   1.008000   ; qtot 0.486400
  104         c3      4    bbb     C5    104 -0.60390000  12.010000   ; qtot -0.117500
  105         hc      4    bbb     H9    105 0.16730000   1.008000   ; qtot 0.049800
  106         hc      4    bbb    H10    106 0.16730000   1.008000   ; qtot 0.217100
  107         c3      4    bbb     C6    107 -0.60390000  12.010000   ; qtot -0.386800
  108         hc      4    bbb    H11    108 0.16730000   1.008000   ; qtot -0.219500
  109         hc      4    bbb    H12    109 0.16730000   1.008000   ; qtot -0.052200
  110          c      4    bbb     C7    110 0.72110000  12.010000   ; qtot 0.668900
  111          c      4    bbb     C8    111 0.72110000  12.010000   ; qtot 1.390000
  112          o      4    bbb     O1    112 -0.61950000  16.000000   ; qtot 0.770500
  113          o      4    bbb     O2    113 -0.61950000  16.000000   ; qtot 0.151000
  114          n      4    bbb     N4    114 -0.46580000  14.010000   ; qtot -0.314800
  115         hn      4    bbb    H21    115 0.31480000   1.008000   ; qtot -0.000000
; residue    5 bbb rtp bbb q -0.0
  116         c3      5    bbb     C1    116 0.44180000  12.010000   ; qtot 0.441800
  117         h1      5    bbb     H1    117 -0.03530000   1.008000   ; qtot 0.406500
  118         h1      5    bbb     H2    118 -0.03530000   1.008000   ; qtot 0.371200
  119         c3      5    bbb     C2    119 -0.28250000  12.010000   ; qtot 0.088700
  120         h1      5    bbb     H3    120 0.15710000   1.008000   ; qtot 0.245800
  121         h1      5    bbb     H4    121 0.15710000   1.008000   ; qtot 0.402900
  122         n3      5    bbb     N1    122 -0.74090000  14.010000   ; qtot -0.338000
  123         c3      5    bbb     C3    123 0.51680000  12.010000   ; qtot 0.178800
  124         h1      5    bbb     H5    124 -0.05230000   1.008000   ; qtot 0.126500
  125         h1      5    bbb     H6    125 -0.05230000   1.008000   ; qtot 0.074200
  126         c3      5    bbb     C4    126 0.51680000  12.010000   ; qtot 0.591000
  127         h1      5    bbb     H7    127 -0.05230000   1.008000   ; qtot 0.538700
  128         h1      5    bbb     H8    128 -0.05230000   1.008000   ; qtot 0.486400
  129         c3      5    bbb     C5    129 -0.60390000  12.010000   ; qtot -0.117500
  130         hc      5    bbb     H9    130 0.16730000   1.008000   ; qtot 0.049800
  131         hc      5    bbb    H10    131 0.16730000   1.008000   ; qtot 0.217100
  132         c3      5    bbb     C6    132 -0.60390000  12.010000   ; qtot -0.386800
  133         hc      5    bbb    H11    133 0.16730000   1.008000   ; qtot -0.219500
  134         hc      5    bbb    H12    134 0.16730000   1.008000   ; qtot -0.052200
  135          c      5    bbb     C7    135 0.72110000  12.010000   ; qtot 0.668900
  136          c      5    bbb     C8    136 0.72110000  12.010000   ; qtot 1.390000
  137          o      5    bbb     O1    137 -0.61950000  16.000000   ; qtot 0.770500
  138          o      5    bbb     O2    138 -0.61950000  16.000000   ; qtot 0.151000
  139          n      5    bbb     N4    139 -0.46580000  14.010000   ; qtot -0.314800
  140         hn      5    bbb    H21    140 0.31480000   1.008000   ; qtot -0.000000
; residue    6 bbb rtp bbb q -0.0
  141         c3      6    bbb     C1    141 0.44180000  12.010000   ; qtot 0.441800
  142         h1      6    bbb     H1    142 -0.03530000   1.008000   ; qtot 0.406500
  143         h1      6    bbb     H2    143 -0.03530000   1.008000   ; qtot 0.371200
  144         c3      6    bbb     C2    144 -0.28250000  12.010000   ; qtot 0.088700
  145         h1      6    bbb     H3    145 0.15710000   1.008000   ; qtot 0.245800
  146         h1      6    bbb     H4    146 0.15710000   1.008000   ; qtot 0.402900
  147         n3      6    bbb     N1    147 -0.74090000  14.010000   ; qtot -0.338000
  148         c3      6    bbb     C3    148 0.51680000  12.010000   ; qtot 0.178800
  149         h1      6    bbb     H5    149 -0.05230000   1.008000   ; qtot 0.126500
  150         h1      6    bbb     H6    150 -0.05230000   1.008000   ; qtot 0.074200
  151         c3      6    bbb     C4    151 0.51680000  12.010000   ; qtot 0.591000
  152         h1      6    bbb     H7    152 -0.05230000   1.008000   ; qtot 0.538700
  153         h1      6    bbb     H8    153 -0.05230000   1.008000   ; qtot 0.486400
  154         c3      6    bbb     C5    154 -0.60390000  12.010000   ; qtot -0.117500
  155         hc      6    bbb     H9    155 0.16730000   1.008000   ; qtot 0.049800
  156         hc      6    bbb    H10    156 0.16730000   1.008000   ; qtot 0.217100
  157         c3      6    bbb     C6    157 -0.60390000  12.010000   ; qtot -0.386800
  158         hc      6    bbb    H11    158 0.16730000   1.008000   ; qtot -0.219500
  159         hc      6    bbb    H12    159 0.16730000   1.008000   ; qtot -0.052200
  160          c      6    bbb     C7    160 0.72110000  12.010000   ; qtot 0.668900
  161          c      6    bbb     C8    161 0.72110000  12.010000   ; qtot 1.390000
  162          o      6    bbb     O1    162 -0.61950000  16.000000   ; qtot 0.770500
  163          o      6    bbb     O2    163 -0.61950000  16.000000   ; qtot 0.151000
  164          n      6    bbb     N4    164 -0.46580000  14.010000   ; qtot -0.314800
  165         hn      6    bbb    H21    165 0.31480000   1.008000   ; qtot -0.000000
; residue    7 bbb rtp bbb q -0.0
  166         c3      7    bbb     C1    166 0.44180000  12.010000   ; qtot 0.441800
  167         h1      7    bbb     H1    167 -0.03530000   1.008000   ; qtot 0.406500
  168         h1      7    bbb     H2    168 -0.03530000   1.008000   ; qtot 0.371200
  169         c3      7    bbb     C2    169 -0.28250000  12.010000   ; qtot 0.088700
  170         h1      7    bbb     H3    170 0.15710000   1.008000   ; qtot 0.245800
  171         h1      7    bbb     H4    171 0.15710000   1.008000   ; qtot 0.402900
  172         n3      7    bbb     N1    172 -0.74090000  14.010000   ; qtot -0.338000
  173         c3      7    bbb     C3    173 0.51680000  12.010000   ; qtot 0.178800
  174         h1      7    bbb     H5    174 -0.05230000   1.008000   ; qtot 0.126500
  175         h1      7    bbb     H6    175 -0.05230000   1.008000   ; qtot 0.074200
  176         c3      7    bbb     C4    176 0.51680000  12.010000   ; qtot 0.591000
  177         h1      7    bbb     H7    177 -0.05230000   1.008000   ; qtot 0.538700
  178         h1      7    bbb     H8    178 -0.05230000   1.008000   ; qtot 0.486400
  179         c3      7    bbb     C5    179 -0.60390000  12.010000   ; qtot -0.117500
  180         hc      7    bbb     H9    180 0.16730000   1.008000   ; qtot 0.049800
  181         hc      7    bbb    H10    181 0.16730000   1.008000   ; qtot 0.217100
  182         c3      7    bbb     C6    182 -0.60390000  12.010000   ; qtot -0.386800
  183         hc      7    bbb    H11    183 0.16730000   1.008000   ; qtot -0.219500
  184         hc      7    bbb    H12    184 0.16730000   1.008000   ; qtot -0.052200
  185          c      7    bbb     C7    185 0.72110000  12.010000   ; qtot 0.668900
  186          c      7    bbb     C8    186 0.72110000  12.010000   ; qtot 1.390000
  187          o      7    bbb     O1    187 -0.61950000  16.000000   ; qtot 0.770500
  188          o      7    bbb     O2    188 -0.61950000  16.000000   ; qtot 0.151000
  189          n      7    bbb     N4    189 -0.46580000  14.010000   ; qtot -0.314800
  190         hn      7    bbb    H21    190 0.31480000   1.008000   ; qtot -0.000000
; residue    8 bbb rtp bbb q -0.0
  191         c3      8    bbb     C1    191 0.44180000  12.010000   ; qtot 0.441800
  192         h1      8    bbb     H1    192 -0.03530000   1.008000   ; qtot 0.406500
  193         h1      8    bbb     H2    193 -0.03530000   1.008000   ; qtot 0.371200
  194         c3      8    bbb     C2    194 -0.28250000  12.010000   ; qtot 0.088700
  195         h1      8    bbb     H3    195 0.15710000   1.008000   ; qtot 0.245800
  196         h1      8    bbb     H4    196 0.15710000   1.008000   ; qtot 0.402900
  197         n3      8    bbb     N1    197 -0.74090000  14.010000   ; qtot -0.338000
  198         c3      8    bbb     C3    198 0.51680000  12.010000   ; qtot 0.178800
  199         h1      8    bbb     H5    199 -0.05230000   1.008000   ; qtot 0.126500
  200         h1      8    bbb     H6    200 -0.05230000   1.008000   ; qtot 0.074200
  201         c3      8    bbb     C4    201 0.51680000  12.010000   ; qtot 0.591000
  202         h1      8    bbb     H7    202 -0.05230000   1.008000   ; qtot 0.538700
  203         h1      8    bbb     H8    203 -0.05230000   1.008000   ; qtot 0.486400
  204         c3      8    bbb     C5    204 -0.60390000  12.010000   ; qtot -0.117500
  205         hc      8    bbb     H9    205 0.16730000   1.008000   ; qtot 0.049800
  206         hc      8    bbb    H10    206 0.16730000   1.008000   ; qtot 0.217100
  207         c3      8    bbb     C6    207 -0.60390000  12.010000   ; qtot -0.386800
  208         hc      8    bbb    H11    208 0.16730000   1.008000   ; qtot -0.219500
  209         hc      8    bbb    H12    209 0.16730000   1.008000   ; qtot -0.052200
  210          c      8    bbb     C7    210 0.72110000  12.010000   ; qtot 0.668900
  211          c      8    bbb     C8    211 0.72110000  12.010000   ; qtot 1.390000
  212          o      8    bbb     O1    212 -0.61950000  16.000000   ; qtot 0.770500
  213          o      8    bbb     O2    213 -0.61950000  16.000000   ; qtot 0.151000
  214          n      8    bbb     N4    214 -0.46580000  14.010000   ; qtot -0.314800
  215         hn      8    bbb    H21    215 0.31480000   1.008000   ; qtot -0.000000
; residue    9 bbb rtp bbb q -0.0
  216         c3      9    bbb     C1    216 0.44180000  12.010000   ; qtot 0.441800
  217         h1      9    bbb     H1    217 -0.03530000   1.008000   ; qtot 0.406500
  218         h1      9    bbb     H2    218 -0.03530000   1.008000   ; qtot 0.371200
  219         c3      9    bbb     C2    219 -0.28250000  12.010000   ; qtot 0.088700
  220         h1      9    bbb     H3    220 0.15710000   1.008000   ; qtot 0.245800
  221         h1      9    bbb     H4    221 0.15710000   1.008000   ; qtot 0.402900
  222         n3      9    bbb     N1    222 -0.74090000  14.010000   ; qtot -0.338000
  223         c3      9    bbb     C3    223 0.51680000  12.010000   ; qtot 0.178800
  224         h1      9    bbb     H5    224 -0.05230000   1.008000   ; qtot 0.126500
  225         h1      9    bbb     H6    225 -0.05230000   1.008000   ; qtot 0.074200
  226         c3      9    bbb     C4    226 0.51680000  12.010000   ; qtot 0.591000
  227         h1      9    bbb     H7    227 -0.05230000   1.008000   ; qtot 0.538700
  228         h1      9    bbb     H8    228 -0.05230000   1.008000   ; qtot 0.486400
  229         c3      9    bbb     C5    229 -0.60390000  12.010000   ; qtot -0.117500
  230         hc      9    bbb     H9    230 0.16730000   1.008000   ; qtot 0.049800
  231         hc      9    bbb    H10    231 0.16730000   1.008000   ; qtot 0.217100
  232         c3      9    bbb     C6    232 -0.60390000  12.010000   ; qtot -0.386800
  233         hc      9    bbb    H11    233 0.16730000   1.008000   ; qtot -0.219500
  234         hc      9    bbb    H12    234 0.16730000   1.008000   ; qtot -0.052200
  235          c      9    bbb     C7    235 0.72110000  12.010000   ; qtot 0.668900
  236          c      9    bbb     C8    236 0.72110000  12.010000   ; qtot 1.390000
  237          o      9    bbb     O1    237 -0.61950000  16.000000   ; qtot 0.770500
  238          o      9    bbb     O2    238 -0.61950000  16.000000   ; qtot 0.151000
  239          n      9    bbb     N4    239 -0.46580000  14.010000   ; qtot -0.314800
  240         hn      9    bbb    H21    240 0.31480000   1.008000   ; qtot -0.000000
; residue   10 bbb rtp bbb q -0.0
  241         c3     10    bbb     C1    241 0.44180000  12.010000   ; qtot 0.441800
  242         h1     10    bbb     H1    242 -0.03530000   1.008000   ; qtot 0.406500
  243         h1     10    bbb     H2    243 -0.03530000   1.008000   ; qtot 0.371200
  244         c3     10    bbb     C2    244 -0.28250000  12.010000   ; qtot 0.088700
  245         h1     10    bbb     H3    245 0.15710000   1.008000   ; qtot 0.245800
  246         h1     10    bbb     H4    246 0.15710000   1.008000   ; qtot 0.402900
  247         n3     10    bbb     N1    247 -0.74090000  14.010000   ; qtot -0.338000
  248         c3     10    bbb     C3    248 0.51680000  12.010000   ; qtot 0.178800
  249         h1     10    bbb     H5    249 -0.05230000   1.008000   ; qtot 0.126500
  250         h1     10    bbb     H6    250 -0.05230000   1.008000   ; qtot 0.074200
  251         c3     10    bbb     C4    251 0.51680000  12.010000   ; qtot 0.591000
  252         h1     10    bbb     H7    252 -0.05230000   1.008000   ; qtot 0.538700
  253         h1     10    bbb     H8    253 -0.05230000   1.008000   ; qtot 0.486400
  254         c3     10    bbb     C5    254 -0.60390000  12.010000   ; qtot -0.117500
  255         hc     10    bbb     H9    255 0.16730000   1.008000   ; qtot 0.049800
  256         hc     10    bbb    H10    256 0.16730000   1.008000   ; qtot 0.217100
  257         c3     10    bbb     C6    257 -0.60390000  12.010000   ; qtot -0.386800
  258         hc     10    bbb    H11    258 0.16730000   1.008000   ; qtot -0.219500
  259         hc     10    bbb    H12    259 0.16730000   1.008000   ; qtot -0.052200
  260          c     10    bbb     C7    260 0.72110000  12.010000   ; qtot 0.668900
  261          c     10    bbb     C8    261 0.72110000  12.010000   ; qtot 1.390000
  262          o     10    bbb     O1    262 -0.61950000  16.000000   ; qtot 0.770500
  263          o     10    bbb     O2    263 -0.61950000  16.000000   ; qtot 0.151000
  264          n     10    bbb     N4    264 -0.46580000  14.010000   ; qtot -0.314800
  265         hn     10    bbb    H21    265 0.31480000   1.008000   ; qtot -0.000000
; residue   11 bbb rtp bbb q -0.0
  266         c3     11    bbb     C1    266 0.44180000  12.010000   ; qtot 0.441800
  267         h1     11    bbb     H1    267 -0.03530000   1.008000   ; qtot 0.406500
  268         h1     11    bbb     H2    268 -0.03530000   1.008000   ; qtot 0.371200
  269         c3     11    bbb     C2    269 -0.28250000  12.010000   ; qtot 0.088700
  270         h1     11    bbb     H3    270 0.15710000   1.008000   ; qtot 0.245800
  271         h1     11    bbb     H4    271 0.15710000   1.008000   ; qtot 0.402900
  272         n3     11    bbb     N1    272 -0.74090000  14.010000   ; qtot -0.338000
  273         c3     11    bbb     C3    273 0.51680000  12.010000   ; qtot 0.178800
  274         h1     11    bbb     H5    274 -0.05230000   1.008000   ; qtot 0.126500
  275         h1     11    bbb     H6    275 -0.05230000   1.008000   ; qtot 0.074200
  276         c3     11    bbb     C4    276 0.51680000  12.010000   ; qtot 0.591000
  277         h1     11    bbb     H7    277 -0.05230000   1.008000   ; qtot 0.538700
  278         h1     11    bbb     H8    278 -0.05230000   1.008000   ; qtot 0.486400
  279         c3     11    bbb     C5    279 -0.60390000  12.010000   ; qtot -0.117500
  280         hc     11    bbb     H9    280 0.16730000   1.008000   ; qtot 0.049800
  281         hc     11    bbb    H10    281 0.16730000   1.008000   ; qtot 0.217100
  282         c3     11    bbb     C6    282 -0.60390000  12.010000   ; qtot -0.386800
  283         hc     11    bbb    H11    283 0.16730000   1.008000   ; qtot -0.219500
  284         hc     11    bbb    H12    284 0.16730000   1.008000   ; qtot -0.052200
  285          c     11    bbb     C7    285 0.72110000  12.010000   ; qtot 0.668900
  286          c     11    bbb     C8    286 0.72110000  12.010000   ; qtot 1.390000
  287          o     11    bbb     O1    287 -0.61950000  16.000000   ; qtot 0.770500
  288          o     11    bbb     O2    288 -0.61950000  16.000000   ; qtot 0.151000
  289          n     11    bbb     N4    289 -0.46580000  14.010000   ; qtot -0.314800
  290         hn     11    bbb    H21    290 0.31480000   1.008000   ; qtot -0.000000
; residue   12 bbb rtp bbb q -0.0
  291         c3     12    bbb     C1    291 0.44180000  12.010000   ; qtot 0.441800
  292         h1     12    bbb     H1    292 -0.03530000   1.008000   ; qtot 0.406500
  293         h1     12    bbb     H2    293 -0.03530000   1.008000   ; qtot 0.371200
  294         c3     12    bbb     C2    294 -0.28250000  12.010000   ; qtot 0.088700
  295         h1     12    bbb     H3    295 0.15710000   1.008000   ; qtot 0.245800
  296         h1     12    bbb     H4    296 0.15710000   1.008000   ; qtot 0.402900
  297         n3     12    bbb     N1    297 -0.74090000  14.010000   ; qtot -0.338000
  298         c3     12    bbb     C3    298 0.51680000  12.010000   ; qtot 0.178800
  299         h1     12    bbb     H5    299 -0.05230000   1.008000   ; qtot 0.126500
  300         h1     12    bbb     H6    300 -0.05230000   1.008000   ; qtot 0.074200
  301         c3     12    bbb     C4    301 0.51680000  12.010000   ; qtot 0.591000
  302         h1     12    bbb     H7    302 -0.05230000   1.008000   ; qtot 0.538700
  303         h1     12    bbb     H8    303 -0.05230000   1.008000   ; qtot 0.486400
  304         c3     12    bbb     C5    304 -0.60390000  12.010000   ; qtot -0.117500
  305         hc     12    bbb     H9    305 0.16730000   1.008000   ; qtot 0.049800
  306         hc     12    bbb    H10    306 0.16730000   1.008000   ; qtot 0.217100
  307         c3     12    bbb     C6    307 -0.60390000  12.010000   ; qtot -0.386800
  308         hc     12    bbb    H11    308 0.16730000   1.008000   ; qtot -0.219500
  309         hc     12    bbb    H12    309 0.16730000   1.008000   ; qtot -0.052200
  310          c     12    bbb     C7    310 0.72110000  12.010000   ; qtot 0.668900
  311          c     12    bbb     C8    311 0.72110000  12.010000   ; qtot 1.390000
  312          o     12    bbb     O1    312 -0.61950000  16.000000   ; qtot 0.770500
  313          o     12    bbb     O2    313 -0.61950000  16.000000   ; qtot 0.151000
  314          n     12    bbb     N4    314 -0.46580000  14.010000   ; qtot -0.314800
  315         hn     12    bbb    H21    315 0.31480000   1.008000   ; qtot -0.000000
; residue   13 bbb rtp bbb q -0.0
  316         c3     13    bbb     C1    316 0.44180000  12.010000   ; qtot 0.441800
  317         h1     13    bbb     H1    317 -0.03530000   1.008000   ; qtot 0.406500
  318         h1     13    bbb     H2    318 -0.03530000   1.008000   ; qtot 0.371200
  319         c3     13    bbb     C2    319 -0.28250000  12.010000   ; qtot 0.088700
  320         h1     13    bbb     H3    320 0.15710000   1.008000   ; qtot 0.245800
  321         h1     13    bbb     H4    321 0.15710000   1.008000   ; qtot 0.402900
  322         n3     13    bbb     N1    322 -0.74090000  14.010000   ; qtot -0.338000
  323         c3     13    bbb     C3    323 0.51680000  12.010000   ; qtot 0.178800
  324         h1     13    bbb     H5    324 -0.05230000   1.008000   ; qtot 0.126500
  325         h1     13    bbb     H6    325 -0.05230000   1.008000   ; qtot 0.074200
  326         c3     13    bbb     C4    326 0.51680000  12.010000   ; qtot 0.591000
  327         h1     13    bbb     H7    327 -0.05230000   1.008000   ; qtot 0.538700
  328         h1     13    bbb     H8    328 -0.05230000   1.008000   ; qtot 0.486400
  329         c3     13    bbb     C5    329 -0.60390000  12.010000   ; qtot -0.117500
  330         hc     13    bbb     H9    330 0.16730000   1.008000   ; qtot 0.049800
  331         hc     13    bbb    H10    331 0.16730000   1.008000   ; qtot 0.217100
  332         c3     13    bbb     C6    332 -0.60390000  12.010000   ; qtot -0.386800
  333         hc     13    bbb    H11    333 0.16730000   1.008000   ; qtot -0.219500
  334         hc     13    bbb    H12    334 0.16730000   1.008000   ; qtot -0.052200
  335          c     13    bbb     C7    335 0.72110000  12.010000   ; qtot 0.668900
  336          c     13    bbb     C8    336 0.72110000  12.010000   ; qtot 1.390000
  337          o     13    bbb     O1    337 -0.61950000  16.000000   ; qtot 0.770500
  338          o     13    bbb     O2    338 -0.61950000  16.000000   ; qtot 0.151000
  339          n     13    bbb     N4    339 -0.46580000  14.010000   ; qtot -0.314800
  340         hn     13    bbb    H21    340 0.31480000   1.008000   ; qtot -0.000000
; residue   14 ccc rtp ccc q 0.0
  341          n     14    ccc     N1    341 -0.87251700  14.010000   ; qtot -0.872517
  342         hn     14    ccc     H1    342 0.46040000   1.008000   ; qtot -0.412117
  343         c3     14    ccc     C1    343 0.65477900  12.010000   ; qtot 0.242662
  344         h1     14    ccc     H2    344 -0.08959600   1.008000   ; qtot 0.153066
  345         c3     14    ccc     C2    345 0.03619700  12.010000   ; qtot 0.189263
  346         h1     14    ccc     H3    346 -0.08959600   1.008000   ; qtot 0.099667
  347         h1     14    ccc     H4    347 0.06927800   1.008000   ; qtot 0.168945
  348         h1     14    ccc     H5    348 0.06927800   1.008000   ; qtot 0.238223
  349         n3     14    ccc     N2    349 -0.61358100  14.010000   ; qtot -0.375358
  350         c3     14    ccc     C3    350 0.17944400  12.010000   ; qtot -0.195914
  351         c3     14    ccc     C4    351 0.17944400  12.010000   ; qtot -0.016470
  352         h1     14    ccc     H6    352 0.07335800   1.008000   ; qtot 0.056888
  353         c3     14    ccc     C5    353 -0.49079800  12.010000   ; qtot -0.433910
  354         h1     14    ccc     H7    354 0.07335800   1.008000   ; qtot -0.360552
  355         hc     14    ccc     H8    355 0.15101200   1.008000   ; qtot -0.209540
  356         hc     14    ccc     H9    356 0.15101200   1.008000   ; qtot -0.058528
  357          c     14    ccc     C6    357 0.558828  12.010000   ; qtot 0.943671
  358         oh     14    ccc     O1    358 -0.56822625  16.000000   ; qtot 0.170585
  359          o     14    ccc     O2    359 -0.39142825  16.000000   ; qtot -0.493753
  360         h1     14    ccc    H10    360 0.07335800   1.008000   ; qtot -0.420395
  361         h1     14    ccc    H11    361 0.07335800   1.008000   ; qtot -0.347037
  362         c3     14    ccc     C7    362 -0.49079800  12.010000   ; qtot -0.837835
  363         hc     14    ccc    H12    363 0.15101200   1.008000   ; qtot -0.686823
  364         hc     14    ccc    H13    364 0.15101200   1.008000   ; qtot -0.535811
  365          c     14    ccc     C8    365 0.558828  12.010000   ; qtot 0.466388
  366          o     14    ccc     O3    366 -0.39142825  16.000000   ; qtot -0.197950
  367         oh     14    ccc     O4    367 -0.56822625  16.000000   ; qtot -0.971036
  368         ho     14    ccc    H14    368 0.4511195   1.008000   ; qtot -0.485518
  369         ho     14    ccc    H15    369 0.4511195   1.008000   ; qtot -0.000000
; residue   15 ccc rtp ccc q 0.0
  370          n     15    ccc     N1    370 -0.87251700  14.010000   ; qtot -0.872517
  371         hn     15    ccc     H1    371 0.46040000   1.008000   ; qtot -0.412117
  372         c3     15    ccc     C1    372 0.65477900  12.010000   ; qtot 0.242662
  373         h1     15    ccc     H2    373 -0.08959600   1.008000   ; qtot 0.153066
  374         c3     15    ccc     C2    374 0.03619700  12.010000   ; qtot 0.189263
  375         h1     15    ccc     H3    375 -0.08959600   1.008000   ; qtot 0.099667
  376         h1     15    ccc     H4    376 0.06927800   1.008000   ; qtot 0.168945
  377         h1     15    ccc     H5    377 0.06927800   1.008000   ; qtot 0.238223
  378         n3     15    ccc     N2    378 -0.61358100  14.010000   ; qtot -0.375358
  379         c3     15    ccc     C3    379 0.17944400  12.010000   ; qtot -0.195914
  380         c3     15    ccc     C4    380 0.17944400  12.010000   ; qtot -0.016470
  381         h1     15    ccc     H6    381 0.07335800   1.008000   ; qtot 0.056888
  382         c3     15    ccc     C5    382 -0.49079800  12.010000   ; qtot -0.433910
  383         h1     15    ccc     H7    383 0.07335800   1.008000   ; qtot -0.360552
  384         hc     15    ccc     H8    384 0.15101200   1.008000   ; qtot -0.209540
  385         hc     15    ccc     H9    385 0.15101200   1.008000   ; qtot -0.058528
  386          c     15    ccc     C6    386 0.558828  12.010000   ; qtot 0.943671
  387         oh     15    ccc     O1    387 -0.56822625  16.000000   ; qtot 0.170585
  388          o     15    ccc     O2    388 -0.39142825  16.000000   ; qtot -0.493753
  389         h1     15    ccc    H10    389 0.07335800   1.008000   ; qtot -0.420395
  390         h1     15    ccc    H11    390 0.07335800   1.008000   ; qtot -0.347037
  391         c3     15    ccc     C7    391 -0.49079800  12.010000   ; qtot -0.837835
  392         hc     15    ccc    H12    392 0.15101200   1.008000   ; qtot -0.686823
  393         hc     15    ccc    H13    393 0.15101200   1.008000   ; qtot -0.535811
  394          c     15    ccc     C8    394 0.558828  12.010000   ; qtot 0.466388
  395          o     15    ccc     O3    395 -0.39142825  16.000000   ; qtot -0.197950
  396         oh     15    ccc     O4    396 -0.56822625  16.000000   ; qtot -0.971036
  397         ho     15    ccc    H14    397 0.4511195   1.008000   ; qtot -0.485518
  398         ho     15    ccc    H15    398 0.4511195   1.008000   ; qtot -0.000000
; residue   16 ccc rtp ccc q 0.0
  399          n     16    ccc     N1    399 -0.87251700  14.010000   ; qtot -0.872517
  400         hn     16    ccc     H1    400 0.46040000   1.008000   ; qtot -0.412117
  401         c3     16    ccc     C1    401 0.65477900  12.010000   ; qtot 0.242662
  402         h1     16    ccc     H2    402 -0.08959600   1.008000   ; qtot 0.153066
  403         c3     16    ccc     C2    403 0.03619700  12.010000   ; qtot 0.189263
  404         h1     16    ccc     H3    404 -0.08959600   1.008000   ; qtot 0.099667
  405         h1     16    ccc     H4    405 0.06927800   1.008000   ; qtot 0.168945
  406         h1     16    ccc     H5    406 0.06927800   1.008000   ; qtot 0.238223
  407         n3     16    ccc     N2    407 -0.61358100  14.010000   ; qtot -0.375358
  408         c3     16    ccc     C3    408 0.17944400  12.010000   ; qtot -0.195914
  409         c3     16    ccc     C4    409 0.17944400  12.010000   ; qtot -0.016470
  410         h1     16    ccc     H6    410 0.07335800   1.008000   ; qtot 0.056888
  411         c3     16    ccc     C5    411 -0.49079800  12.010000   ; qtot -0.433910
  412         h1     16    ccc     H7    412 0.07335800   1.008000   ; qtot -0.360552
  413         hc     16    ccc     H8    413 0.15101200   1.008000   ; qtot -0.209540
  414         hc     16    ccc     H9    414 0.15101200   1.008000   ; qtot -0.058528
  415          c     16    ccc     C6    415 0.558828  12.010000   ; qtot 0.943671
  416         oh     16    ccc     O1    416 -0.56822625  16.000000   ; qtot 0.170585
  417          o     16    ccc     O2    417 -0.39142825  16.000000   ; qtot -0.493753
  418         h1     16    ccc    H10    418 0.07335800   1.008000   ; qtot -0.420395
  419         h1     16    ccc    H11    419 0.07335800   1.008000   ; qtot -0.347037
  420         c3     16    ccc     C7    420 -0.49079800  12.010000   ; qtot -0.837835
  421         hc     16    ccc    H12    421 0.15101200   1.008000   ; qtot -0.686823
  422         hc     16    ccc    H13    422 0.15101200   1.008000   ; qtot -0.535811
  423          c     16    ccc     C8    423 0.558828  12.010000   ; qtot 0.466388
  424          o     16    ccc     O3    424 -0.39142825  16.000000   ; qtot -0.197950
  425         oh     16    ccc     O4    425 -0.56822625  16.000000   ; qtot -0.971036
  426         ho     16    ccc    H14    426 0.4511195   1.008000   ; qtot -0.485518
  427         ho     16    ccc    H15    427 0.4511195   1.008000   ; qtot -0.000000
; residue   17 ccc rtp ccc q 0.0
  428          n     17    ccc     N1    428 -0.87251700  14.010000   ; qtot -0.872517
  429         hn     17    ccc     H1    429 0.46040000   1.008000   ; qtot -0.412117
  430         c3     17    ccc     C1    430 0.65477900  12.010000   ; qtot 0.242662
  431         h1     17    ccc     H2    431 -0.08959600   1.008000   ; qtot 0.153066
  432         c3     17    ccc     C2    432 0.03619700  12.010000   ; qtot 0.189263
  433         h1     17    ccc     H3    433 -0.08959600   1.008000   ; qtot 0.099667
  434         h1     17    ccc     H4    434 0.06927800   1.008000   ; qtot 0.168945
  435         h1     17    ccc     H5    435 0.06927800   1.008000   ; qtot 0.238223
  436         n3     17    ccc     N2    436 -0.61358100  14.010000   ; qtot -0.375358
  437         c3     17    ccc     C3    437 0.17944400  12.010000   ; qtot -0.195914
  438         c3     17    ccc     C4    438 0.17944400  12.010000   ; qtot -0.016470
  439         h1     17    ccc     H6    439 0.07335800   1.008000   ; qtot 0.056888
  440         c3     17    ccc     C5    440 -0.49079800  12.010000   ; qtot -0.433910
  441         h1     17    ccc     H7    441 0.07335800   1.008000   ; qtot -0.360552
  442         hc     17    ccc     H8    442 0.15101200   1.008000   ; qtot -0.209540
  443         hc     17    ccc     H9    443 0.15101200   1.008000   ; qtot -0.058528
  444          c     17    ccc     C6    444 0.558828  12.010000   ; qtot 0.943671
  445         oh     17    ccc     O1    445 -0.56822625  16.000000   ; qtot 0.170585
  446          o     17    ccc     O2    446 -0.39142825  16.000000   ; qtot -0.493753
  447         h1     17    ccc    H10    447 0.07335800   1.008000   ; qtot -0.420395
  448         h1     17    ccc    H11    448 0.07335800   1.008000   ; qtot -0.347037
  449         c3     17    ccc     C7    449 -0.49079800  12.010000   ; qtot -0.837835
  450         hc     17    ccc    H12    450 0.15101200   1.008000   ; qtot -0.686823
  451         hc     17    ccc    H13    451 0.15101200   1.008000   ; qtot -0.535811
  452          c     17    ccc     C8    452 0.558828  12.010000   ; qtot 0.466388
  453          o     17    ccc     O3    453 -0.39142825  16.000000   ; qtot -0.197950
  454         oh     17    ccc     O4    454 -0.56822625  16.000000   ; qtot -0.971036
  455         ho     17    ccc    H14    455 0.4511195   1.008000   ; qtot -0.485518
  456         ho     17    ccc    H15    456 0.4511195   1.008000   ; qtot -0.000000
; residue   18 ccc rtp ccc q 0.0
  457          n     18    ccc     N1    457 -0.87251700  14.010000   ; qtot -0.872517
  458         hn     18    ccc     H1    458 0.46040000   1.008000   ; qtot -0.412117
  459         c3     18    ccc     C1    459 0.65477900  12.010000   ; qtot 0.242662
  460         h1     18    ccc     H2    460 -0.08959600   1.008000   ; qtot 0.153066
  461         c3     18    ccc     C2    461 0.03619700  12.010000   ; qtot 0.189263
  462         h1     18    ccc     H3    462 -0.08959600   1.008000   ; qtot 0.099667
  463         h1     18    ccc     H4    463 0.06927800   1.008000   ; qtot 0.168945
  464         h1     18    ccc     H5    464 0.06927800   1.008000   ; qtot 0.238223
  465         n3     18    ccc     N2    465 -0.61358100  14.010000   ; qtot -0.375358
  466         c3     18    ccc     C3    466 0.17944400  12.010000   ; qtot -0.195914
  467         c3     18    ccc     C4    467 0.17944400  12.010000   ; qtot -0.016470
  468         h1     18    ccc     H6    468 0.07335800   1.008000   ; qtot 0.056888
  469         c3     18    ccc     C5    469 -0.49079800  12.010000   ; qtot -0.433910
  470         h1     18    ccc     H7    470 0.07335800   1.008000   ; qtot -0.360552
  471         hc     18    ccc     H8    471 0.15101200   1.008000   ; qtot -0.209540
  472         hc     18    ccc     H9    472 0.15101200   1.008000   ; qtot -0.058528
  473          c     18    ccc     C6    473 0.558828  12.010000   ; qtot 0.943671
  474         oh     18    ccc     O1    474 -0.56822625  16.000000   ; qtot 0.170585
  475          o     18    ccc     O2    475 -0.39142825  16.000000   ; qtot -0.493753
  476         h1     18    ccc    H10    476 0.07335800   1.008000   ; qtot -0.420395
  477         h1     18    ccc    H11    477 0.07335800   1.008000   ; qtot -0.347037
  478         c3     18    ccc     C7    478 -0.49079800  12.010000   ; qtot -0.837835
  479         hc     18    ccc    H12    479 0.15101200   1.008000   ; qtot -0.686823
  480         hc     18    ccc    H13    480 0.15101200   1.008000   ; qtot -0.535811
  481          c     18    ccc     C8    481 0.558828  12.010000   ; qtot 0.466388
  482          o     18    ccc     O3    482 -0.39142825  16.000000   ; qtot -0.197950
  483         oh     18    ccc     O4    483 -0.56822625  16.000000   ; qtot -0.971036
  484         ho     18    ccc    H14    484 0.4511195   1.008000   ; qtot -0.485518
  485         ho     18    ccc    H15    485 0.4511195   1.008000   ; qtot -0.000000
; residue   19 ccc rtp ccc q 0.0
  486          n     19    ccc     N1    486 -0.87251700  14.010000   ; qtot -0.872517
  487         hn     19    ccc     H1    487 0.46040000   1.008000   ; qtot -0.412117
  488         c3     19    ccc     C1    488 0.65477900  12.010000   ; qtot 0.242662
  489         h1     19    ccc     H2    489 -0.08959600   1.008000   ; qtot 0.153066
  490         c3     19    ccc     C2    490 0.03619700  12.010000   ; qtot 0.189263
  491         h1     19    ccc     H3    491 -0.08959600   1.008000   ; qtot 0.099667
  492         h1     19    ccc     H4    492 0.06927800   1.008000   ; qtot 0.168945
  493         h1     19    ccc     H5    493 0.06927800   1.008000   ; qtot 0.238223
  494         n3     19    ccc     N2    494 -0.61358100  14.010000   ; qtot -0.375358
  495         c3     19    ccc     C3    495 0.17944400  12.010000   ; qtot -0.195914
  496         c3     19    ccc     C4    496 0.17944400  12.010000   ; qtot -0.016470
  497         h1     19    ccc     H6    497 0.07335800   1.008000   ; qtot 0.056888
  498         c3     19    ccc     C5    498 -0.49079800  12.010000   ; qtot -0.433910
  499         h1     19    ccc     H7    499 0.07335800   1.008000   ; qtot -0.360552
  500         hc     19    ccc     H8    500 0.15101200   1.008000   ; qtot -0.209540
  501         hc     19    ccc     H9    501 0.15101200   1.008000   ; qtot -0.058528
  502          c     19    ccc     C6    502 0.558828  12.010000   ; qtot 0.943671
  503         oh     19    ccc     O1    503 -0.56822625  16.000000   ; qtot 0.170585
  504          o     19    ccc     O2    504 -0.39142825  16.000000   ; qtot -0.493753
  505         h1     19    ccc    H10    505 0.07335800   1.008000   ; qtot -0.420395
  506         h1     19    ccc    H11    506 0.07335800   1.008000   ; qtot -0.347037
  507         c3     19    ccc     C7    507 -0.49079800  12.010000   ; qtot -0.837835
  508         hc     19    ccc    H12    508 0.15101200   1.008000   ; qtot -0.686823
  509         hc     19    ccc    H13    509 0.15101200   1.008000   ; qtot -0.535811
  510          c     19    ccc     C8    510 0.558828  12.010000   ; qtot 0.466388
  511          o     19    ccc     O3    511 -0.39142825  16.000000   ; qtot -0.197950
  512         oh     19    ccc     O4    512 -0.56822625  16.000000   ; qtot -0.971036
  513         ho     19    ccc    H14    513 0.4511195   1.008000   ; qtot -0.485518
  514         ho     19    ccc    H15    514 0.4511195   1.008000   ; qtot -0.000000
; residue   20 ccc rtp ccc q 0.0
  515          n     20    ccc     N1    515 -0.87251700  14.010000   ; qtot -0.872517
  516         hn     20    ccc     H1    516 0.46040000   1.008000   ; qtot -0.412117
  517         c3     20    ccc     C1    517 0.65477900  12.010000   ; qtot 0.242662
  518         h1     20    ccc     H2    518 -0.08959600   1.008000   ; qtot 0.153066
  519         c3     20    ccc     C2    519 0.03619700  12.010000   ; qtot 0.189263
  520         h1     20    ccc     H3    520 -0.08959600   1.008000   ; qtot 0.099667
  521         h1     20    ccc     H4    521 0.06927800   1.008000   ; qtot 0.168945
  522         h1     20    ccc     H5    522 0.06927800   1.008000   ; qtot 0.238223
  523         n3     20    ccc     N2    523 -0.61358100  14.010000   ; qtot -0.375358
  524         c3     20    ccc     C3    524 0.17944400  12.010000   ; qtot -0.195914
  525         c3     20    ccc     C4    525 0.17944400  12.010000   ; qtot -0.016470
  526         h1     20    ccc     H6    526 0.07335800   1.008000   ; qtot 0.056888
  527         c3     20    ccc     C5    527 -0.49079800  12.010000   ; qtot -0.433910
  528         h1     20    ccc     H7    528 0.07335800   1.008000   ; qtot -0.360552
  529         hc     20    ccc     H8    529 0.15101200   1.008000   ; qtot -0.209540
  530         hc     20    ccc     H9    530 0.15101200   1.008000   ; qtot -0.058528
  531          c     20    ccc     C6    531 0.558828  12.010000   ; qtot 0.943671
  532         oh     20    ccc     O1    532 -0.56822625  16.000000   ; qtot 0.170585
  533          o     20    ccc     O2    533 -0.39142825  16.000000   ; qtot -0.493753
  534         h1     20    ccc    H10    534 0.07335800   1.008000   ; qtot -0.420395
  535         h1     20    ccc    H11    535 0.07335800   1.008000   ; qtot -0.347037
  536         c3     20    ccc     C7    536 -0.49079800  12.010000   ; qtot -0.837835
  537         hc     20    ccc    H12    537 0.15101200   1.008000   ; qtot -0.686823
  538         hc     20    ccc    H13    538 0.15101200   1.008000   ; qtot -0.535811
  539          c     20    ccc     C8    539 0.558828  12.010000   ; qtot 0.466388
  540          o     20    ccc     O3    540 -0.39142825  16.000000   ; qtot -0.197950
  541         oh     20    ccc     O4    541 -0.56822625  16.000000   ; qtot -0.971036
  542         ho     20    ccc    H14    542 0.4511195   1.008000   ; qtot -0.485518
  543         ho     20    ccc    H15    543 0.4511195   1.008000   ; qtot -0.000000
; residue   21 ccc rtp ccc q 0.0
  544          n     21    ccc     N1    544 -0.87251700  14.010000   ; qtot -0.872517
  545         hn     21    ccc     H1    545 0.46040000   1.008000   ; qtot -0.412117
  546         c3     21    ccc     C1    546 0.65477900  12.010000   ; qtot 0.242662
  547         h1     21    ccc     H2    547 -0.08959600   1.008000   ; qtot 0.153066
  548         c3     21    ccc     C2    548 0.03619700  12.010000   ; qtot 0.189263
  549         h1     21    ccc     H3    549 -0.08959600   1.008000   ; qtot 0.099667
  550         h1     21    ccc     H4    550 0.06927800   1.008000   ; qtot 0.168945
  551         h1     21    ccc     H5    551 0.06927800   1.008000   ; qtot 0.238223
  552         n3     21    ccc     N2    552 -0.61358100  14.010000   ; qtot -0.375358
  553         c3     21    ccc     C3    553 0.17944400  12.010000   ; qtot -0.195914
  554         c3     21    ccc     C4    554 0.17944400  12.010000   ; qtot -0.016470
  555         h1     21    ccc     H6    555 0.07335800   1.008000   ; qtot 0.056888
  556         c3     21    ccc     C5    556 -0.49079800  12.010000   ; qtot -0.433910
  557         h1     21    ccc     H7    557 0.07335800   1.008000   ; qtot -0.360552
  558         hc     21    ccc     H8    558 0.15101200   1.008000   ; qtot -0.209540
  559         hc     21    ccc     H9    559 0.15101200   1.008000   ; qtot -0.058528
  560          c     21    ccc     C6    560 0.558828  12.010000   ; qtot 0.943671
  561         oh     21    ccc     O1    561 -0.56822625  16.000000   ; qtot 0.170585
  562          o     21    ccc     O2    562 -0.39142825  16.000000   ; qtot -0.493753
  563         h1     21    ccc    H10    563 0.07335800   1.008000   ; qtot -0.420395
  564         h1     21    ccc    H11    564 0.07335800   1.008000   ; qtot -0.347037
  565         c3     21    ccc     C7    565 -0.49079800  12.010000   ; qtot -0.837835
  566         hc     21    ccc    H12    566 0.15101200   1.008000   ; qtot -0.686823
  567         hc     21    ccc    H13    567 0.15101200   1.008000   ; qtot -0.535811
  568          c     21    ccc     C8    568 0.558828  12.010000   ; qtot 0.466388
  569          o     21    ccc     O3    569 -0.39142825  16.000000   ; qtot -0.197950
  570         oh     21    ccc     O4    570 -0.56822625  16.000000   ; qtot -0.971036
  571         ho     21    ccc    H14    571 0.4511195   1.008000   ; qtot -0.485518
  572         ho     21    ccc    H15    572 0.4511195   1.008000   ; qtot -0.000000
; residue   22 ccc rtp ccc q 0.0
  573          n     22    ccc     N1    573 -0.87251700  14.010000   ; qtot -0.872517
  574         hn     22    ccc     H1    574 0.46040000   1.008000   ; qtot -0.412117
  575         c3     22    ccc     C1    575 0.65477900  12.010000   ; qtot 0.242662
  576         h1     22    ccc     H2    576 -0.08959600   1.008000   ; qtot 0.153066
  577         c3     22    ccc     C2    577 0.03619700  12.010000   ; qtot 0.189263
  578         h1     22    ccc     H3    578 -0.08959600   1.008000   ; qtot 0.099667
  579         h1     22    ccc     H4    579 0.06927800   1.008000   ; qtot 0.168945
  580         h1     22    ccc     H5    580 0.06927800   1.008000   ; qtot 0.238223
  581         n3     22    ccc     N2    581 -0.61358100  14.010000   ; qtot -0.375358
  582         c3     22    ccc     C3    582 0.17944400  12.010000   ; qtot -0.195914
  583         c3     22    ccc     C4    583 0.17944400  12.010000   ; qtot -0.016470
  584         h1     22    ccc     H6    584 0.07335800   1.008000   ; qtot 0.056888
  585         c3     22    ccc     C5    585 -0.49079800  12.010000   ; qtot -0.433910
  586         h1     22    ccc     H7    586 0.07335800   1.008000   ; qtot -0.360552
  587         hc     22    ccc     H8    587 0.15101200   1.008000   ; qtot -0.209540
  588         hc     22    ccc     H9    588 0.15101200   1.008000   ; qtot -0.058528
  589          c     22    ccc     C6    589 0.558828  12.010000   ; qtot 0.943671
  590         oh     22    ccc     O1    590 -0.56822625  16.000000   ; qtot 0.170585
  591          o     22    ccc     O2    591 -0.39142825  16.000000   ; qtot -0.493753
  592         h1     22    ccc    H10    592 0.07335800   1.008000   ; qtot -0.420395
  593         h1     22    ccc    H11    593 0.07335800   1.008000   ; qtot -0.347037
  594         c3     22    ccc     C7    594 -0.49079800  12.010000   ; qtot -0.837835
  595         hc     22    ccc    H12    595 0.15101200   1.008000   ; qtot -0.686823
  596         hc     22    ccc    H13    596 0.15101200   1.008000   ; qtot -0.535811
  597          c     22    ccc     C8    597 0.558828  12.010000   ; qtot 0.466388
  598          o     22    ccc     O3    598 -0.39142825  16.000000   ; qtot -0.197950
  599         oh     22    ccc     O4    599 -0.56822625  16.000000   ; qtot -0.971036
  600         ho     22    ccc    H14    600 0.4511195   1.008000   ; qtot -0.485518
  601         ho     22    ccc    H15    601 0.4511195   1.008000   ; qtot -0.000000
; residue   23 ccc rtp ccc q 0.0
  602          n     23    ccc     N1    602 -0.87251700  14.010000   ; qtot -0.872517
  603         hn     23    ccc     H1    603 0.46040000   1.008000   ; qtot -0.412117
  604         c3     23    ccc     C1    604 0.65477900  12.010000   ; qtot 0.242662
  605         h1     23    ccc     H2    605 -0.08959600   1.008000   ; qtot 0.153066
  606         c3     23    ccc     C2    606 0.03619700  12.010000   ; qtot 0.189263
  607         h1     23    ccc     H3    607 -0.08959600   1.008000   ; qtot 0.099667
  608         h1     23    ccc     H4    608 0.06927800   1.008000   ; qtot 0.168945
  609         h1     23    ccc     H5    609 0.06927800   1.008000   ; qtot 0.238223
  610         n3     23    ccc     N2    610 -0.61358100  14.010000   ; qtot -0.375358
  611         c3     23    ccc     C3    611 0.17944400  12.010000   ; qtot -0.195914
  612         c3     23    ccc     C4    612 0.17944400  12.010000   ; qtot -0.016470
  613         h1     23    ccc     H6    613 0.07335800   1.008000   ; qtot 0.056888
  614         c3     23    ccc     C5    614 -0.49079800  12.010000   ; qtot -0.433910
  615         h1     23    ccc     H7    615 0.07335800   1.008000   ; qtot -0.360552
  616         hc     23    ccc     H8    616 0.15101200   1.008000   ; qtot -0.209540
  617         hc     23    ccc     H9    617 0.15101200   1.008000   ; qtot -0.058528
  618          c     23    ccc     C6    618 0.558828  12.010000   ; qtot 0.943671
  619         oh     23    ccc     O1    619 -0.56822625  16.000000   ; qtot 0.170585
  620          o     23    ccc     O2    620 -0.39142825  16.000000   ; qtot -0.493753
  621         h1     23    ccc    H10    621 0.07335800   1.008000   ; qtot -0.420395
  622         h1     23    ccc    H11    622 0.07335800   1.008000   ; qtot -0.347037
  623         c3     23    ccc     C7    623 -0.49079800  12.010000   ; qtot -0.837835
  624         hc     23    ccc    H12    624 0.15101200   1.008000   ; qtot -0.686823
  625         hc     23    ccc    H13    625 0.15101200   1.008000   ; qtot -0.535811
  626          c     23    ccc     C8    626 0.558828  12.010000   ; qtot 0.466388
  627          o     23    ccc     O3    627 -0.39142825  16.000000   ; qtot -0.197950
  628         oh     23    ccc     O4    628 -0.56822625  16.000000   ; qtot -0.971036
  629         ho     23    ccc    H14    629 0.4511195   1.008000   ; qtot -0.485518
  630         ho     23    ccc    H15    630 0.4511195   1.008000   ; qtot -0.000000
; residue   24 ccc rtp ccc q 0.0
  631          n     24    ccc     N1    631 -0.87251700  14.010000   ; qtot -0.872517
  632         hn     24    ccc     H1    632 0.46040000   1.008000   ; qtot -0.412117
  633         c3     24    ccc     C1    633 0.65477900  12.010000   ; qtot 0.242662
  634         h1     24    ccc     H2    634 -0.08959600   1.008000   ; qtot 0.153066
  635         c3     24    ccc     C2    635 0.03619700  12.010000   ; qtot 0.189263
  636         h1     24    ccc     H3    636 -0.08959600   1.008000   ; qtot 0.099667
  637         h1     24    ccc     H4    637 0.06927800   1.008000   ; qtot 0.168945
  638         h1     24    ccc     H5    638 0.06927800   1.008000   ; qtot 0.238223
  639         n3     24    ccc     N2    639 -0.61358100  14.010000   ; qtot -0.375358
  640         c3     24    ccc     C3    640 0.17944400  12.010000   ; qtot -0.195914
  641         c3     24    ccc     C4    641 0.17944400  12.010000   ; qtot -0.016470
  642         h1     24    ccc     H6    642 0.07335800   1.008000   ; qtot 0.056888
  643         c3     24    ccc     C5    643 -0.49079800  12.010000   ; qtot -0.433910
  644         h1     24    ccc     H7    644 0.07335800   1.008000   ; qtot -0.360552
  645         hc     24    ccc     H8    645 0.15101200   1.008000   ; qtot -0.209540
  646         hc     24    ccc     H9    646 0.15101200   1.008000   ; qtot -0.058528
  647          c     24    ccc     C6    647 0.558828  12.010000   ; qtot 0.943671
  648         oh     24    ccc     O1    648 -0.56822625  16.000000   ; qtot 0.170585
  649          o     24    ccc     O2    649 -0.39142825  16.000000   ; qtot -0.493753
  650         h1     24    ccc    H10    650 0.07335800   1.008000   ; qtot -0.420395
  651         h1     24    ccc    H11    651 0.07335800   1.008000   ; qtot -0.347037
  652         c3     24    ccc     C7    652 -0.49079800  12.010000   ; qtot -0.837835
  653         hc     24    ccc    H12    653 0.15101200   1.008000   ; qtot -0.686823
  654         hc     24    ccc    H13    654 0.15101200   1.008000   ; qtot -0.535811
  655          c     24    ccc     C8    655 0.558828  12.010000   ; qtot 0.466388
  656          o     24    ccc     O3    656 -0.39142825  16.000000   ; qtot -0.197950
  657         oh     24    ccc     O4    657 -0.56822625  16.000000   ; qtot -0.971036
  658         ho     24    ccc    H14    658 0.4511195   1.008000   ; qtot -0.485518
  659         ho     24    ccc    H15    659 0.4511195   1.008000   ; qtot -0.000000
; residue   25 ccc rtp ccc q 0.0
  660          n     25    ccc     N1    660 -0.87251700  14.010000   ; qtot -0.872517
  661         hn     25    ccc     H1    661 0.46040000   1.008000   ; qtot -0.412117
  662         c3     25    ccc     C1    662 0.65477900  12.010000   ; qtot 0.242662
  663         h1     25    ccc     H2    663 -0.08959600   1.008000   ; qtot 0.153066
  664         c3     25    ccc     C2    664 0.03619700  12.010000   ; qtot 0.189263
  665         h1     25    ccc     H3    665 -0.08959600   1.008000   ; qtot 0.099667
  666         h1     25    ccc     H4    666 0.06927800   1.008000   ; qtot 0.168945
  667         h1     25    ccc     H5    667 0.06927800   1.008000   ; qtot 0.238223
  668         n3     25    ccc     N2    668 -0.61358100  14.010000   ; qtot -0.375358
  669         c3     25    ccc     C3    669 0.17944400  12.010000   ; qtot -0.195914
  670         c3     25    ccc     C4    670 0.17944400  12.010000   ; qtot -0.016470
  671         h1     25    ccc     H6    671 0.07335800   1.008000   ; qtot 0.056888
  672         c3     25    ccc     C5    672 -0.49079800  12.010000   ; qtot -0.433910
  673         h1     25    ccc     H7    673 0.07335800   1.008000   ; qtot -0.360552
  674         hc     25    ccc     H8    674 0.15101200   1.008000   ; qtot -0.209540
  675         hc     25    ccc     H9    675 0.15101200   1.008000   ; qtot -0.058528
  676          c     25    ccc     C6    676 0.558828  12.010000   ; qtot 0.943671
  677         oh     25    ccc     O1    677 -0.56822625  16.000000   ; qtot 0.170585
  678          o     25    ccc     O2    678 -0.39142825  16.000000   ; qtot -0.493753
  679         h1     25    ccc    H10    679 0.07335800   1.008000   ; qtot -0.420395
  680         h1     25    ccc    H11    680 0.07335800   1.008000   ; qtot -0.347037
  681         c3     25    ccc     C7    681 -0.49079800  12.010000   ; qtot -0.837835
  682         hc     25    ccc    H12    682 0.15101200   1.008000   ; qtot -0.686823
  683         hc     25    ccc    H13    683 0.15101200   1.008000   ; qtot -0.535811
  684          c     25    ccc     C8    684 0.558828  12.010000   ; qtot 0.466388
  685          o     25    ccc     O3    685 -0.39142825  16.000000   ; qtot -0.197950
  686         oh     25    ccc     O4    686 -0.56822625  16.000000   ; qtot -0.971036
  687         ho     25    ccc    H14    687 0.4511195   1.008000   ; qtot -0.485518
  688         ho     25    ccc    H15    688 0.4511195   1.008000   ; qtot -0.000000
; residue   26 ccc rtp ccc q 0.0
  689          n     26    ccc     N1    689 -0.87251700  14.010000   ; qtot -0.872517
  690         hn     26    ccc     H1    690 0.46040000   1.008000   ; qtot -0.412117
  691         c3     26    ccc     C1    691 0.65477900  12.010000   ; qtot 0.242662
  692         h1     26    ccc     H2    692 -0.08959600   1.008000   ; qtot 0.153066
  693         c3     26    ccc     C2    693 0.03619700  12.010000   ; qtot 0.189263
  694         h1     26    ccc     H3    694 -0.08959600   1.008000   ; qtot 0.099667
  695         h1     26    ccc     H4    695 0.06927800   1.008000   ; qtot 0.168945
  696         h1     26    ccc     H5    696 0.06927800   1.008000   ; qtot 0.238223
  697         n3     26    ccc     N2    697 -0.61358100  14.010000   ; qtot -0.375358
  698         c3     26    ccc     C3    698 0.17944400  12.010000   ; qtot -0.195914
  699         c3     26    ccc     C4    699 0.17944400  12.010000   ; qtot -0.016470
  700         h1     26    ccc     H6    700 0.07335800   1.008000   ; qtot 0.056888
  701         c3     26    ccc     C5    701 -0.49079800  12.010000   ; qtot -0.433910
  702         h1     26    ccc     H7    702 0.07335800   1.008000   ; qtot -0.360552
  703         hc     26    ccc     H8    703 0.15101200   1.008000   ; qtot -0.209540
  704         hc     26    ccc     H9    704 0.15101200   1.008000   ; qtot -0.058528
  705          c     26    ccc     C6    705 0.558828  12.010000   ; qtot 0.943671
  706         oh     26    ccc     O1    706 -0.56822625  16.000000   ; qtot 0.170585
  707          o     26    ccc     O2    707 -0.39142825  16.000000   ; qtot -0.493753
  708         h1     26    ccc    H10    708 0.07335800   1.008000   ; qtot -0.420395
  709         h1     26    ccc    H11    709 0.07335800   1.008000   ; qtot -0.347037
  710         c3     26    ccc     C7    710 -0.49079800  12.010000   ; qtot -0.837835
  711         hc     26    ccc    H12    711 0.15101200   1.008000   ; qtot -0.686823
  712         hc     26    ccc    H13    712 0.15101200   1.008000   ; qtot -0.535811
  713          c     26    ccc     C8    713 0.558828  12.010000   ; qtot 0.466388
  714          o     26    ccc     O3    714 -0.39142825  16.000000   ; qtot -0.197950
  715         oh     26    ccc     O4    715 -0.56822625  16.000000   ; qtot -0.971036
  716         ho     26    ccc    H14    716 0.4511195   1.008000   ; qtot -0.485518
  717         ho     26    ccc    H15    717 0.4511195   1.008000   ; qtot -0.000000
; residue   27 ccc rtp ccc q 0.0
  718          n     27    ccc     N1    718 -0.87251700  14.010000   ; qtot -0.872517
  719         hn     27    ccc     H1    719 0.46040000   1.008000   ; qtot -0.412117
  720         c3     27    ccc     C1    720 0.65477900  12.010000   ; qtot 0.242662
  721         h1     27    ccc     H2    721 -0.08959600   1.008000   ; qtot 0.153066
  722         c3     27    ccc     C2    722 0.03619700  12.010000   ; qtot 0.189263
  723         h1     27    ccc     H3    723 -0.08959600   1.008000   ; qtot 0.099667
  724         h1     27    ccc     H4    724 0.06927800   1.008000   ; qtot 0.168945
  725         h1     27    ccc     H5    725 0.06927800   1.008000   ; qtot 0.238223
  726         n3     27    ccc     N2    726 -0.61358100  14.010000   ; qtot -0.375358
  727         c3     27    ccc     C3    727 0.17944400  12.010000   ; qtot -0.195914
  728         c3     27    ccc     C4    728 0.17944400  12.010000   ; qtot -0.016470
  729         h1     27    ccc     H6    729 0.07335800   1.008000   ; qtot 0.056888
  730         c3     27    ccc     C5    730 -0.49079800  12.010000   ; qtot -0.433910
  731         h1     27    ccc     H7    731 0.07335800   1.008000   ; qtot -0.360552
  732         hc     27    ccc     H8    732 0.15101200   1.008000   ; qtot -0.209540
  733         hc     27    ccc     H9    733 0.15101200   1.008000   ; qtot -0.058528
  734          c     27    ccc     C6    734 0.558828  12.010000   ; qtot 0.943671
  735         oh     27    ccc     O1    735 -0.56822625  16.000000   ; qtot 0.170585
  736          o     27    ccc     O2    736 -0.39142825  16.000000   ; qtot -0.493753
  737         h1     27    ccc    H10    737 0.07335800   1.008000   ; qtot -0.420395
  738         h1     27    ccc    H11    738 0.07335800   1.008000   ; qtot -0.347037
  739         c3     27    ccc     C7    739 -0.49079800  12.010000   ; qtot -0.837835
  740         hc     27    ccc    H12    740 0.15101200   1.008000   ; qtot -0.686823
  741         hc     27    ccc    H13    741 0.15101200   1.008000   ; qtot -0.535811
  742          c     27    ccc     C8    742 0.558828  12.010000   ; qtot 0.466388
  743          o     27    ccc     O3    743 -0.39142825  16.000000   ; qtot -0.197950
  744         oh     27    ccc     O4    744 -0.56822625  16.000000   ; qtot -0.971036
  745         ho     27    ccc    H14    745 0.4511195   1.008000   ; qtot -0.485518
  746         ho     27    ccc    H15    746 0.4511195   1.008000   ; qtot -0.000000
; residue   28 ccc rtp ccc q 0.0
  747          n     28    ccc     N1    747 -0.87251700  14.010000   ; qtot -0.872517
  748         hn     28    ccc     H1    748 0.46040000   1.008000   ; qtot -0.412117
  749         c3     28    ccc     C1    749 0.65477900  12.010000   ; qtot 0.242662
  750         h1     28    ccc     H2    750 -0.08959600   1.008000   ; qtot 0.153066
  751         c3     28    ccc     C2    751 0.03619700  12.010000   ; qtot 0.189263
  752         h1     28    ccc     H3    752 -0.08959600   1.008000   ; qtot 0.099667
  753         h1     28    ccc     H4    753 0.06927800   1.008000   ; qtot 0.168945
  754         h1     28    ccc     H5    754 0.06927800   1.008000   ; qtot 0.238223
  755         n3     28    ccc     N2    755 -0.61358100  14.010000   ; qtot -0.375358
  756         c3     28    ccc     C3    756 0.17944400  12.010000   ; qtot -0.195914
  757         c3     28    ccc     C4    757 0.17944400  12.010000   ; qtot -0.016470
  758         h1     28    ccc     H6    758 0.07335800   1.008000   ; qtot 0.056888
  759         c3     28    ccc     C5    759 -0.49079800  12.010000   ; qtot -0.433910
  760         h1     28    ccc     H7    760 0.07335800   1.008000   ; qtot -0.360552
  761         hc     28    ccc     H8    761 0.15101200   1.008000   ; qtot -0.209540
  762         hc     28    ccc     H9    762 0.15101200   1.008000   ; qtot -0.058528
  763          c     28    ccc     C6    763 0.558828  12.010000   ; qtot 0.943671
  764         oh     28    ccc     O1    764 -0.56822625  16.000000   ; qtot 0.170585
  765          o     28    ccc     O2    765 -0.39142825  16.000000   ; qtot -0.493753
  766         h1     28    ccc    H10    766 0.07335800   1.008000   ; qtot -0.420395
  767         h1     28    ccc    H11    767 0.07335800   1.008000   ; qtot -0.347037
  768         c3     28    ccc     C7    768 -0.49079800  12.010000   ; qtot -0.837835
  769         hc     28    ccc    H12    769 0.15101200   1.008000   ; qtot -0.686823
  770         hc     28    ccc    H13    770 0.15101200   1.008000   ; qtot -0.535811
  771          c     28    ccc     C8    771 0.558828  12.010000   ; qtot 0.466388
  772          o     28    ccc     O3    772 -0.39142825  16.000000   ; qtot -0.197950
  773         oh     28    ccc     O4    773 -0.56822625  16.000000   ; qtot -0.971036
  774         ho     28    ccc    H14    774 0.4511195   1.008000   ; qtot -0.485518
  775         ho     28    ccc    H15    775 0.4511195   1.008000   ; qtot -0.000000
; residue   29 ccc rtp ccc q 0.0
  776          n     29    ccc     N1    776 -0.87251700  14.010000   ; qtot -0.872517
  777         hn     29    ccc     H1    777 0.46040000   1.008000   ; qtot -0.412117
  778         c3     29    ccc     C1    778 0.65477900  12.010000   ; qtot 0.242662
  779         h1     29    ccc     H2    779 -0.08959600   1.008000   ; qtot 0.153066
  780         c3     29    ccc     C2    780 0.03619700  12.010000   ; qtot 0.189263
  781         h1     29    ccc     H3    781 -0.08959600   1.008000   ; qtot 0.099667
  782         h1     29    ccc     H4    782 0.06927800   1.008000   ; qtot 0.168945
  783         h1     29    ccc     H5    783 0.06927800   1.008000   ; qtot 0.238223
  784         n3     29    ccc     N2    784 -0.61358100  14.010000   ; qtot -0.375358
  785         c3     29    ccc     C3    785 0.17944400  12.010000   ; qtot -0.195914
  786         c3     29    ccc     C4    786 0.17944400  12.010000   ; qtot -0.016470
  787         h1     29    ccc     H6    787 0.07335800   1.008000   ; qtot 0.056888
  788         c3     29    ccc     C5    788 -0.49079800  12.010000   ; qtot -0.433910
  789         h1     29    ccc     H7    789 0.07335800   1.008000   ; qtot -0.360552
  790         hc     29    ccc     H8    790 0.15101200   1.008000   ; qtot -0.209540
  791         hc     29    ccc     H9    791 0.15101200   1.008000   ; qtot -0.058528
  792          c     29    ccc     C6    792 0.558828  12.010000   ; qtot 0.943671
  793         oh     29    ccc     O1    793 -0.56822625  16.000000   ; qtot 0.170585
  794          o     29    ccc     O2    794 -0.39142825  16.000000   ; qtot -0.493753
  795         h1     29    ccc    H10    795 0.07335800   1.008000   ; qtot -0.420395
  796         h1     29    ccc    H11    796 0.07335800   1.008000   ; qtot -0.347037
  797         c3     29    ccc     C7    797 -0.49079800  12.010000   ; qtot -0.837835
  798         hc     29    ccc    H12    798 0.15101200   1.008000   ; qtot -0.686823
  799         hc     29    ccc    H13    799 0.15101200   1.008000   ; qtot -0.535811
  800          c     29    ccc     C8    800 0.558828  12.010000   ; qtot 0.466388
  801          o     29    ccc     O3    801 -0.39142825  16.000000   ; qtot -0.197950
  802         oh     29    ccc     O4    802 -0.56822625  16.000000   ; qtot -0.971036
  803         ho     29    ccc    H14    803 0.4511195   1.008000   ; qtot -0.485518
  804         ho     29    ccc    H15    804 0.4511195   1.008000   ; qtot -0.000000

[ bonds ]
;    ai     aj funct         c0         c1         c2         c3
      1      4     1   0.15375 251793.120000
      1      8     1   0.14647 272713.120000
      4      7     1   0.14647 272713.120000
      7     15     1   0.14647 272713.120000
      7     18     1   0.14647 272713.120000
      8      9     1   0.14647 272713.120000
      8     12     1   0.14647 272713.120000
      9     30     1   0.15375 251793.120000
     12     27     1   0.15375 251793.120000
     15     21     1   0.15375 251793.120000
     18     24     1   0.15375 251793.120000
     21     35     1   0.15241 261918.400000
     24     36     1   0.15241 261918.400000
     27     33     1   0.15241 261918.400000
     30     34     1   0.15241 261918.400000
     33     37     1   0.12183 533627.360000
     33     64     1   0.13789 357815.680000
     34     40     1   0.12183 533627.360000
     34     89     1   0.13789 357815.680000
     35     38     1   0.12183 533627.360000
     35    114     1   0.13789 357815.680000
     36     39     1   0.12183 533627.360000
     36    139     1   0.13789 357815.680000
     41     44     1   0.15375 251793.120000
     41     47     1   0.14647 272713.120000
     44     64     1   0.14619 275056.160000
     47     48     1   0.14647 272713.120000
     47     51     1   0.14647 272713.120000
     48     57     1   0.15375 251793.120000
     51     54     1   0.15375 251793.120000
     54     60     1   0.15241 261918.400000
     57     61     1   0.15241 261918.400000
     60     62     1   0.12183 533627.360000
     60    164     1   0.13789 357815.680000
     61     63     1   0.12183 533627.360000
     61    189     1   0.13789 357815.680000
     66     69     1   0.15375 251793.120000
     66     72     1   0.14647 272713.120000
     69     89     1   0.14619 275056.160000
     72     73     1   0.14647 272713.120000
     72     76     1   0.14647 272713.120000
     73     82     1   0.15375 251793.120000
     76     79     1   0.15375 251793.120000
     79     85     1   0.15241 261918.400000
     82     86     1   0.15241 261918.400000
     85     87     1   0.12183 533627.360000
     85    214     1   0.13789 357815.680000
     86     88     1   0.12183 533627.360000
     86    239     1   0.13789 357815.680000
     91     94     1   0.15375 251793.120000
     91     97     1   0.14647 272713.120000
     94    114     1   0.14619 275056.160000
     97     98     1   0.14647 272713.120000
     97    101     1   0.14647 272713.120000
     98    107     1   0.15375 251793.120000
    101    104     1   0.15375 251793.120000
    104    110     1   0.15241 261918.400000
    107    111     1   0.15241 261918.400000
    110    112     1   0.12183 533627.360000
    110    264     1   0.13789 357815.680000
    111    113     1   0.12183 533627.360000
    111    289     1   0.13789 357815.680000
    116    119     1   0.15375 251793.120000
    116    122     1   0.14647 272713.120000
    119    139     1   0.14619 275056.160000
    122    123     1   0.14647 272713.120000
    122    126     1   0.14647 272713.120000
    123    132     1   0.15375 251793.120000
    126    129     1   0.15375 251793.120000
    129    135     1   0.15241 261918.400000
    132    136     1   0.15241 261918.400000
    135    137     1   0.12183 533627.360000
    135    314     1   0.13789 357815.680000
    136    138     1   0.12183 533627.360000
    136    339     1   0.13789 357815.680000
    141    144     1   0.15375 251793.120000
    141    147     1   0.14647 272713.120000
    144    164     1   0.14619 275056.160000
    147    148     1   0.14647 272713.120000
    147    151     1   0.14647 272713.120000
    148    157     1   0.15375 251793.120000
    151    154     1   0.15375 251793.120000
    154    160     1   0.15241 261918.400000
    157    161     1   0.15241 261918.400000
    160    341     1   0.13789 357815.680000
    160    162     1   0.12183 533627.360000
    161    163     1   0.12183 533627.360000
    161    370     1   0.13789 357815.680000
    166    169     1   0.15375 251793.120000
    166    172     1   0.14647 272713.120000
    169    189     1   0.14619 275056.160000
    172    173     1   0.14647 272713.120000
    172    176     1   0.14647 272713.120000
    173    182     1   0.15375 251793.120000
    176    179     1   0.15375 251793.120000
    179    185     1   0.15241 261918.400000
    182    186     1   0.15241 261918.400000
    185    399     1   0.13789 357815.680000
    185    187     1   0.12183 533627.360000
    186    188     1   0.12183 533627.360000
    186    428     1   0.13789 357815.680000
    191    194     1   0.15375 251793.120000
    191    197     1   0.14647 272713.120000
    194    214     1   0.14619 275056.160000
    197    198     1   0.14647 272713.120000
    197    201     1   0.14647 272713.120000
    198    207     1   0.15375 251793.120000
    201    204     1   0.15375 251793.120000
    204    210     1   0.15241 261918.400000
    207    211     1   0.15241 261918.400000
    210    457     1   0.13789 357815.680000
    210    212     1   0.12183 533627.360000
    211    213     1   0.12183 533627.360000
    211    486     1   0.13789 357815.680000
    216    219     1   0.15375 251793.120000
    216    222     1   0.14647 272713.120000
    219    239     1   0.14619 275056.160000
    222    223     1   0.14647 272713.120000
    222    226     1   0.14647 272713.120000
    223    232     1   0.15375 251793.120000
    226    229     1   0.15375 251793.120000
    229    235     1   0.15241 261918.400000
    232    236     1   0.15241 261918.400000
    235    515     1   0.13789 357815.680000
    235    237     1   0.12183 533627.360000
    236    238     1   0.12183 533627.360000
    236    544     1   0.13789 357815.680000
    241    244     1   0.15375 251793.120000
    241    247     1   0.14647 272713.120000
    244    264     1   0.14619 275056.160000
    247    248     1   0.14647 272713.120000
    247    251     1   0.14647 272713.120000
    248    257     1   0.15375 251793.120000
    251    254     1   0.15375 251793.120000
    254    260     1   0.15241 261918.400000
    257    261     1   0.15241 261918.400000
    260    573     1   0.13789 357815.680000
    260    262     1   0.12183 533627.360000
    261    263     1   0.12183 533627.360000
    261    602     1   0.13789 357815.680000
    266    269     1   0.15375 251793.120000
    266    272     1   0.14647 272713.120000
    269    289     1   0.14619 275056.160000
    272    273     1   0.14647 272713.120000
    272    276     1   0.14647 272713.120000
    273    282     1   0.15375 251793.120000
    276    279     1   0.15375 251793.120000
    279    285     1   0.15241 261918.400000
    282    286     1   0.15241 261918.400000
    285    631     1   0.13789 357815.680000
    285    287     1   0.12183 533627.360000
    286    288     1   0.12183 533627.360000
    286    660     1   0.13789 357815.680000
    291    294     1   0.15375 251793.120000
    291    297     1   0.14647 272713.120000
    294    314     1   0.14619 275056.160000
    297    298     1   0.14647 272713.120000
    297    301     1   0.14647 272713.120000
    298    307     1   0.15375 251793.120000
    301    304     1   0.15375 251793.120000
    304    310     1   0.15241 261918.400000
    307    311     1   0.15241 261918.400000
    310    689     1   0.13789 357815.680000
    310    312     1   0.12183 533627.360000
    311    313     1   0.12183 533627.360000
    311    718     1   0.13789 357815.680000
    316    319     1   0.15375 251793.120000
    316    322     1   0.14647 272713.120000
    319    339     1   0.14619 275056.160000
    322    323     1   0.14647 272713.120000
    322    326     1   0.14647 272713.120000
    323    332     1   0.15375 251793.120000
    326    329     1   0.15375 251793.120000
    329    335     1   0.15241 261918.400000
    332    336     1   0.15241 261918.400000
    335    747     1   0.13789 357815.680000
    335    337     1   0.12183 533627.360000
    336    776     1   0.13789 357815.680000
    336    338     1   0.12183 533627.360000
    341    343     1   0.14619 275056.160000
    343    345     1   0.15375 251793.120000
    345    349     1   0.14647 272713.120000
    349    350     1   0.14647 272713.120000
    349    351     1   0.14647 272713.120000
    350    362     1   0.15375 251793.120000
    351    353     1   0.15375 251793.120000
    353    357     1   0.15241 261918.400000
    357    358     1   0.13513 334803.680000
    357    359     1   0.12183 533627.360000
    362    365     1   0.15241 261918.400000
    365    366     1   0.12183 533627.360000
    365    367     1   0.13513 334803.680000
    370    372     1   0.14619 275056.160000
    372    374     1   0.15375 251793.120000
    374    378     1   0.14647 272713.120000
    378    379     1   0.14647 272713.120000
    378    380     1   0.14647 272713.120000
    379    391     1   0.15375 251793.120000
    380    382     1   0.15375 251793.120000
    382    386     1   0.15241 261918.400000
    386    387     1   0.13513 334803.680000
    386    388     1   0.12183 533627.360000
    391    394     1   0.15241 261918.400000
    394    395     1   0.12183 533627.360000
    394    396     1   0.13513 334803.680000
    399    401     1   0.14619 275056.160000
    401    403     1   0.15375 251793.120000
    403    407     1   0.14647 272713.120000
    407    408     1   0.14647 272713.120000
    407    409     1   0.14647 272713.120000
    408    420     1   0.15375 251793.120000
    409    411     1   0.15375 251793.120000
    411    415     1   0.15241 261918.400000
    415    416     1   0.13513 334803.680000
    415    417     1   0.12183 533627.360000
    420    423     1   0.15241 261918.400000
    423    424     1   0.12183 533627.360000
    423    425     1   0.13513 334803.680000
    428    430     1   0.14619 275056.160000
    430    432     1   0.15375 251793.120000
    432    436     1   0.14647 272713.120000
    436    437     1   0.14647 272713.120000
    436    438     1   0.14647 272713.120000
    437    449     1   0.15375 251793.120000
    438    440     1   0.15375 251793.120000
    440    444     1   0.15241 261918.400000
    444    445     1   0.13513 334803.680000
    444    446     1   0.12183 533627.360000
    449    452     1   0.15241 261918.400000
    452    453     1   0.12183 533627.360000
    452    454     1   0.13513 334803.680000
    457    459     1   0.14619 275056.160000
    459    461     1   0.15375 251793.120000
    461    465     1   0.14647 272713.120000
    465    466     1   0.14647 272713.120000
    465    467     1   0.14647 272713.120000
    466    478     1   0.15375 251793.120000
    467    469     1   0.15375 251793.120000
    469    473     1   0.15241 261918.400000
    473    474     1   0.13513 334803.680000
    473    475     1   0.12183 533627.360000
    478    481     1   0.15241 261918.400000
    481    482     1   0.12183 533627.360000
    481    483     1   0.13513 334803.680000
    486    488     1   0.14619 275056.160000
    488    490     1   0.15375 251793.120000
    490    494     1   0.14647 272713.120000
    494    495     1   0.14647 272713.120000
    494    496     1   0.14647 272713.120000
    495    507     1   0.15375 251793.120000
    496    498     1   0.15375 251793.120000
    498    502     1   0.15241 261918.400000
    502    503     1   0.13513 334803.680000
    502    504     1   0.12183 533627.360000
    507    510     1   0.15241 261918.400000
    510    511     1   0.12183 533627.360000
    510    512     1   0.13513 334803.680000
    515    517     1   0.14619 275056.160000
    517    519     1   0.15375 251793.120000
    519    523     1   0.14647 272713.120000
    523    524     1   0.14647 272713.120000
    523    525     1   0.14647 272713.120000
    524    536     1   0.15375 251793.120000
    525    527     1   0.15375 251793.120000
    527    531     1   0.15241 261918.400000
    531    532     1   0.13513 334803.680000
    531    533     1   0.12183 533627.360000
    536    539     1   0.15241 261918.400000
    539    540     1   0.12183 533627.360000
    539    541     1   0.13513 334803.680000
    544    546     1   0.14619 275056.160000
    546    548     1   0.15375 251793.120000
    548    552     1   0.14647 272713.120000
    552    553     1   0.14647 272713.120000
    552    554     1   0.14647 272713.120000
    553    565     1   0.15375 251793.120000
    554    556     1   0.15375 251793.120000
    556    560     1   0.15241 261918.400000
    560    561     1   0.13513 334803.680000
    560    562     1   0.12183 533627.360000
    565    568     1   0.15241 261918.400000
    568    569     1   0.12183 533627.360000
    568    570     1   0.13513 334803.680000
    573    575     1   0.14619 275056.160000
    575    577     1   0.15375 251793.120000
    577    581     1   0.14647 272713.120000
    581    582     1   0.14647 272713.120000
    581    583     1   0.14647 272713.120000
    582    594     1   0.15375 251793.120000
    583    585     1   0.15375 251793.120000
    585    589     1   0.15241 261918.400000
    589    590     1   0.13513 334803.680000
    589    591     1   0.12183 533627.360000
    594    597     1   0.15241 261918.400000
    597    598     1   0.12183 533627.360000
    597    599     1   0.13513 334803.680000
    602    604     1   0.14619 275056.160000
    604    606     1   0.15375 251793.120000
    606    610     1   0.14647 272713.120000
    610    611     1   0.14647 272713.120000
    610    612     1   0.14647 272713.120000
    611    623     1   0.15375 251793.120000
    612    614     1   0.15375 251793.120000
    614    618     1   0.15241 261918.400000
    618    619     1   0.13513 334803.680000
    618    620     1   0.12183 533627.360000
    623    626     1   0.15241 261918.400000
    626    627     1   0.12183 533627.360000
    626    628     1   0.13513 334803.680000
    631    633     1   0.14619 275056.160000
    633    635     1   0.15375 251793.120000
    635    639     1   0.14647 272713.120000
    639    640     1   0.14647 272713.120000
    639    641     1   0.14647 272713.120000
    640    652     1   0.15375 251793.120000
    641    643     1   0.15375 251793.120000
    643    647     1   0.15241 261918.400000
    647    648     1   0.13513 334803.680000
    647    649     1   0.12183 533627.360000
    652    655     1   0.15241 261918.400000
    655    656     1   0.12183 533627.360000
    655    657     1   0.13513 334803.680000
    660    662     1   0.14619 275056.160000
    662    664     1   0.15375 251793.120000
    664    668     1   0.14647 272713.120000
    668    669     1   0.14647 272713.120000
    668    670     1   0.14647 272713.120000
    669    681     1   0.15375 251793.120000
    670    672     1   0.15375 251793.120000
    672    676     1   0.15241 261918.400000
    676    677     1   0.13513 334803.680000
    676    678     1   0.12183 533627.360000
    681    684     1   0.15241 261918.400000
    684    685     1   0.12183 533627.360000
    684    686     1   0.13513 334803.680000
    689    691     1   0.14619 275056.160000
    691    693     1   0.15375 251793.120000
    693    697     1   0.14647 272713.120000
    697    698     1   0.14647 272713.120000
    697    699     1   0.14647 272713.120000
    698    710     1   0.15375 251793.120000
    699    701     1   0.15375 251793.120000
    701    705     1   0.15241 261918.400000
    705    706     1   0.13513 334803.680000
    705    707     1   0.12183 533627.360000
    710    713     1   0.15241 261918.400000
    713    714     1   0.12183 533627.360000
    713    715     1   0.13513 334803.680000
    718    720     1   0.14619 275056.160000
    720    722     1   0.15375 251793.120000
    722    726     1   0.14647 272713.120000
    726    727     1   0.14647 272713.120000
    726    728     1   0.14647 272713.120000
    727    739     1   0.15375 251793.120000
    728    730     1   0.15375 251793.120000
    730    734     1   0.15241 261918.400000
    734    735     1   0.13513 334803.680000
    734    736     1   0.12183 533627.360000
    739    742     1   0.15241 261918.400000
    742    743     1   0.12183 533627.360000
    742    744     1   0.13513 334803.680000
    747    749     1   0.14619 275056.160000
    749    751     1   0.15375 251793.120000
    751    755     1   0.14647 272713.120000
    755    756     1   0.14647 272713.120000
    755    757     1   0.14647 272713.120000
    756    768     1   0.15375 251793.120000
    757    759     1   0.15375 251793.120000
    759    763     1   0.15241 261918.400000
    763    764     1   0.13513 334803.680000
    763    765     1   0.12183 533627.360000
    768    771     1   0.15241 261918.400000
    771    772     1   0.12183 533627.360000
    771    773     1   0.13513 334803.680000
    776    778     1   0.14619 275056.160000
    778    780     1   0.15375 251793.120000
    780    784     1   0.14647 272713.120000
    784    785     1   0.14647 272713.120000
    784    786     1   0.14647 272713.120000
    785    797     1   0.15375 251793.120000
    786    788     1   0.15375 251793.120000
    788    792     1   0.15241 261918.400000
    792    793     1   0.13513 334803.680000
    792    794     1   0.12183 533627.360000
    797    800     1   0.15241 261918.400000
    800    801     1   0.12183 533627.360000
    800    802     1   0.13513 334803.680000
      1      2     1   0.10969 276646.080000
      1      3     1   0.10969 276646.080000
      4      5     1   0.10969 276646.080000
      4      6     1   0.10969 276646.080000
      9     10     1   0.10969 276646.080000
      9     11     1   0.10969 276646.080000
     12     13     1   0.10969 276646.080000
     12     14     1   0.10969 276646.080000
     15     16     1   0.10969 276646.080000
     15     17     1   0.10969 276646.080000
     18     19     1   0.10969 276646.080000
     18     20     1   0.10969 276646.080000
     21     22     1   0.10969 276646.080000
     21     23     1   0.10969 276646.080000
     24     25     1   0.10969 276646.080000
     24     26     1   0.10969 276646.080000
     27     28     1   0.10969 276646.080000
     27     29     1   0.10969 276646.080000
     30     31     1   0.10969 276646.080000
     30     32     1   0.10969 276646.080000
     41     42     1   0.10969 276646.080000
     41     43     1   0.10969 276646.080000
     44     45     1   0.10969 276646.080000
     44     46     1   0.10969 276646.080000
     48     49     1   0.10969 276646.080000
     48     50     1   0.10969 276646.080000
     51     52     1   0.10969 276646.080000
     51     53     1   0.10969 276646.080000
     54     55     1   0.10969 276646.080000
     54     56     1   0.10969 276646.080000
     57     58     1   0.10969 276646.080000
     57     59     1   0.10969 276646.080000
     64     65     1   0.10129 337397.760000
     66     67     1   0.10969 276646.080000
     66     68     1   0.10969 276646.080000
     69     70     1   0.10969 276646.080000
     69     71     1   0.10969 276646.080000
     73     74     1   0.10969 276646.080000
     73     75     1   0.10969 276646.080000
     76     77     1   0.10969 276646.080000
     76     78     1   0.10969 276646.080000
     79     80     1   0.10969 276646.080000
     79     81     1   0.10969 276646.080000
     82     83     1   0.10969 276646.080000
     82     84     1   0.10969 276646.080000
     89     90     1   0.10129 337397.760000
     91     92     1   0.10969 276646.080000
     91     93     1   0.10969 276646.080000
     94     95     1   0.10969 276646.080000
     94     96     1   0.10969 276646.080000
     98     99     1   0.10969 276646.080000
     98    100     1   0.10969 276646.080000
    101    102     1   0.10969 276646.080000
    101    103     1   0.10969 276646.080000
    104    105     1   0.10969 276646.080000
    104    106     1   0.10969 276646.080000
    107    108     1   0.10969 276646.080000
    107    109     1   0.10969 276646.080000
    114    115     1   0.10129 337397.760000
    116    117     1   0.10969 276646.080000
    116    118     1   0.10969 276646.080000
    119    120     1   0.10969 276646.080000
    119    121     1   0.10969 276646.080000
    123    124     1   0.10969 276646.080000
    123    125     1   0.10969 276646.080000
    126    127     1   0.10969 276646.080000
    126    128     1   0.10969 276646.080000
    129    130     1   0.10969 276646.080000
    129    131     1   0.10969 276646.080000
    132    133     1   0.10969 276646.080000
    132    134     1   0.10969 276646.080000
    139    140     1   0.10129 337397.760000
    141    142     1   0.10969 276646.080000
    141    143     1   0.10969 276646.080000
    144    145     1   0.10969 276646.080000
    144    146     1   0.10969 276646.080000
    148    149     1   0.10969 276646.080000
    148    150     1   0.10969 276646.080000
    151    152     1   0.10969 276646.080000
    151    153     1   0.10969 276646.080000
    154    155     1   0.10969 276646.080000
    154    156     1   0.10969 276646.080000
    157    158     1   0.10969 276646.080000
    157    159     1   0.10969 276646.080000
    164    165     1   0.10129 337397.760000
    166    167     1   0.10969 276646.080000
    166    168     1   0.10969 276646.080000
    169    170     1   0.10969 276646.080000
    169    171     1   0.10969 276646.080000
    173    174     1   0.10969 276646.080000
    173    175     1   0.10969 276646.080000
    176    177     1   0.10969 276646.080000
    176    178     1   0.10969 276646.080000
    179    180     1   0.10969 276646.080000
    179    181     1   0.10969 276646.080000
    182    183     1   0.10969 276646.080000
    182    184     1   0.10969 276646.080000
    189    190     1   0.10129 337397.760000
    191    192     1   0.10969 276646.080000
    191    193     1   0.10969 276646.080000
    194    195     1   0.10969 276646.080000
    194    196     1   0.10969 276646.080000
    198    199     1   0.10969 276646.080000
    198    200     1   0.10969 276646.080000
    201    202     1   0.10969 276646.080000
    201    203     1   0.10969 276646.080000
    204    205     1   0.10969 276646.080000
    204    206     1   0.10969 276646.080000
    207    208     1   0.10969 276646.080000
    207    209     1   0.10969 276646.080000
    214    215     1   0.10129 337397.760000
    216    217     1   0.10969 276646.080000
    216    218     1   0.10969 276646.080000
    219    220     1   0.10969 276646.080000
    219    221     1   0.10969 276646.080000
    223    224     1   0.10969 276646.080000
    223    225     1   0.10969 276646.080000
    226    227     1   0.10969 276646.080000
    226    228     1   0.10969 276646.080000
    229    230     1   0.10969 276646.080000
    229    231     1   0.10969 276646.080000
    232    233     1   0.10969 276646.080000
    232    234     1   0.10969 276646.080000
    239    240     1   0.10129 337397.760000
    241    242     1   0.10969 276646.080000
    241    243     1   0.10969 276646.080000
    244    245     1   0.10969 276646.080000
    244    246     1   0.10969 276646.080000
    248    249     1   0.10969 276646.080000
    248    250     1   0.10969 276646.080000
    251    252     1   0.10969 276646.080000
    251    253     1   0.10969 276646.080000
    254    255     1   0.10969 276646.080000
    254    256     1   0.10969 276646.080000
    257    258     1   0.10969 276646.080000
    257    259     1   0.10969 276646.080000
    264    265     1   0.10129 337397.760000
    266    267     1   0.10969 276646.080000
    266    268     1   0.10969 276646.080000
    269    270     1   0.10969 276646.080000
    269    271     1   0.10969 276646.080000
    273    274     1   0.10969 276646.080000
    273    275     1   0.10969 276646.080000
    276    277     1   0.10969 276646.080000
    276    278     1   0.10969 276646.080000
    279    280     1   0.10969 276646.080000
    279    281     1   0.10969 276646.080000
    282    283     1   0.10969 276646.080000
    282    284     1   0.10969 276646.080000
    289    290     1   0.10129 337397.760000
    291    292     1   0.10969 276646.080000
    291    293     1   0.10969 276646.080000
    294    295     1   0.10969 276646.080000
    294    296     1   0.10969 276646.080000
    298    299     1   0.10969 276646.080000
    298    300     1   0.10969 276646.080000
    301    302     1   0.10969 276646.080000
    301    303     1   0.10969 276646.080000
    304    305     1   0.10969 276646.080000
    304    306     1   0.10969 276646.080000
    307    308     1   0.10969 276646.080000
    307    309     1   0.10969 276646.080000
    314    315     1   0.10129 337397.760000
    316    317     1   0.10969 276646.080000
    316    318     1   0.10969 276646.080000
    319    320     1   0.10969 276646.080000
    319    321     1   0.10969 276646.080000
    323    324     1   0.10969 276646.080000
    323    325     1   0.10969 276646.080000
    326    327     1   0.10969 276646.080000
    326    328     1   0.10969 276646.080000
    329    330     1   0.10969 276646.080000
    329    331     1   0.10969 276646.080000
    332    333     1   0.10969 276646.080000
    332    334     1   0.10969 276646.080000
    339    340     1   0.10129 337397.760000
    341    342     1   0.10129 337397.760000
    343    344     1   0.10969 276646.080000
    343    346     1   0.10969 276646.080000
    345    347     1   0.10969 276646.080000
    345    348     1   0.10969 276646.080000
    350    360     1   0.10969 276646.080000
    350    361     1   0.10969 276646.080000
    351    352     1   0.10969 276646.080000
    351    354     1   0.10969 276646.080000
    353    355     1   0.10969 276646.080000
    353    356     1   0.10969 276646.080000
    358    368     1   0.09730 310787.520000
    362    363     1   0.10969 276646.080000
    362    364     1   0.10969 276646.080000
    367    369     1   0.09730 310787.520000
    370    371     1   0.10129 337397.760000
    372    373     1   0.10969 276646.080000
    372    375     1   0.10969 276646.080000
    374    376     1   0.10969 276646.080000
    374    377     1   0.10969 276646.080000
    379    389     1   0.10969 276646.080000
    379    390     1   0.10969 276646.080000
    380    381     1   0.10969 276646.080000
    380    383     1   0.10969 276646.080000
    382    384     1   0.10969 276646.080000
    382    385     1   0.10969 276646.080000
    387    397     1   0.09730 310787.520000
    391    392     1   0.10969 276646.080000
    391    393     1   0.10969 276646.080000
    396    398     1   0.09730 310787.520000
    399    400     1   0.10129 337397.760000
    401    402     1   0.10969 276646.080000
    401    404     1   0.10969 276646.080000
    403    405     1   0.10969 276646.080000
    403    406     1   0.10969 276646.080000
    408    418     1   0.10969 276646.080000
    408    419     1   0.10969 276646.080000
    409    410     1   0.10969 276646.080000
    409    412     1   0.10969 276646.080000
    411    413     1   0.10969 276646.080000
    411    414     1   0.10969 276646.080000
    416    426     1   0.09730 310787.520000
    420    421     1   0.10969 276646.080000
    420    422     1   0.10969 276646.080000
    425    427     1   0.09730 310787.520000
    428    429     1   0.10129 337397.760000
    430    431     1   0.10969 276646.080000
    430    433     1   0.10969 276646.080000
    432    434     1   0.10969 276646.080000
    432    435     1   0.10969 276646.080000
    437    447     1   0.10969 276646.080000
    437    448     1   0.10969 276646.080000
    438    439     1   0.10969 276646.080000
    438    441     1   0.10969 276646.080000
    440    442     1   0.10969 276646.080000
    440    443     1   0.10969 276646.080000
    445    455     1   0.09730 310787.520000
    449    450     1   0.10969 276646.080000
    449    451     1   0.10969 276646.080000
    454    456     1   0.09730 310787.520000
    457    458     1   0.10129 337397.760000
    459    460     1   0.10969 276646.080000
    459    462     1   0.10969 276646.080000
    461    463     1   0.10969 276646.080000
    461    464     1   0.10969 276646.080000
    466    476     1   0.10969 276646.080000
    466    477     1   0.10969 276646.080000
    467    468     1   0.10969 276646.080000
    467    470     1   0.10969 276646.080000
    469    471     1   0.10969 276646.080000
    469    472     1   0.10969 276646.080000
    474    484     1   0.09730 310787.520000
    478    479     1   0.10969 276646.080000
    478    480     1   0.10969 276646.080000
    483    485     1   0.09730 310787.520000
    486    487     1   0.10129 337397.760000
    488    489     1   0.10969 276646.080000
    488    491     1   0.10969 276646.080000
    490    492     1   0.10969 276646.080000
    490    493     1   0.10969 276646.080000
    495    505     1   0.10969 276646.080000
    495    506     1   0.10969 276646.080000
    496    497     1   0.10969 276646.080000
    496    499     1   0.10969 276646.080000
    498    500     1   0.10969 276646.080000
    498    501     1   0.10969 276646.080000
    503    513     1   0.09730 310787.520000
    507    508     1   0.10969 276646.080000
    507    509     1   0.10969 276646.080000
    512    514     1   0.09730 310787.520000
    515    516     1   0.10129 337397.760000
    517    518     1   0.10969 276646.080000
    517    520     1   0.10969 276646.080000
    519    521     1   0.10969 276646.080000
    519    522     1   0.10969 276646.080000
    524    534     1   0.10969 276646.080000
    524    535     1   0.10969 276646.080000
    525    526     1   0.10969 276646.080000
    525    528     1   0.10969 276646.080000
    527    529     1   0.10969 276646.080000
    527    530     1   0.10969 276646.080000
    532    542     1   0.09730 310787.520000
    536    537     1   0.10969 276646.080000
    536    538     1   0.10969 276646.080000
    541    543     1   0.09730 310787.520000
    544    545     1   0.10129 337397.760000
    546    547     1   0.10969 276646.080000
    546    549     1   0.10969 276646.080000
    548    550     1   0.10969 276646.080000
    548    551     1   0.10969 276646.080000
    553    563     1   0.10969 276646.080000
    553    564     1   0.10969 276646.080000
    554    555     1   0.10969 276646.080000
    554    557     1   0.10969 276646.080000
    556    558     1   0.10969 276646.080000
    556    559     1   0.10969 276646.080000
    561    571     1   0.09730 310787.520000
    565    566     1   0.10969 276646.080000
    565    567     1   0.10969 276646.080000
    570    572     1   0.09730 310787.520000
    573    574     1   0.10129 337397.760000
    575    576     1   0.10969 276646.080000
    575    578     1   0.10969 276646.080000
    577    579     1   0.10969 276646.080000
    577    580     1   0.10969 276646.080000
    582    592     1   0.10969 276646.080000
    582    593     1   0.10969 276646.080000
    583    584     1   0.10969 276646.080000
    583    586     1   0.10969 276646.080000
    585    587     1   0.10969 276646.080000
    585    588     1   0.10969 276646.080000
    590    600     1   0.09730 310787.520000
    594    595     1   0.10969 276646.080000
    594    596     1   0.10969 276646.080000
    599    601     1   0.09730 310787.520000
    602    603     1   0.10129 337397.760000
    604    605     1   0.10969 276646.080000
    604    607     1   0.10969 276646.080000
    606    608     1   0.10969 276646.080000
    606    609     1   0.10969 276646.080000
    611    621     1   0.10969 276646.080000
    611    622     1   0.10969 276646.080000
    612    613     1   0.10969 276646.080000
    612    615     1   0.10969 276646.080000
    614    616     1   0.10969 276646.080000
    614    617     1   0.10969 276646.080000
    619    629     1   0.09730 310787.520000
    623    624     1   0.10969 276646.080000
    623    625     1   0.10969 276646.080000
    628    630     1   0.09730 310787.520000
    631    632     1   0.10129 337397.760000
    633    634     1   0.10969 276646.080000
    633    636     1   0.10969 276646.080000
    635    637     1   0.10969 276646.080000
    635    638     1   0.10969 276646.080000
    640    650     1   0.10969 276646.080000
    640    651     1   0.10969 276646.080000
    641    642     1   0.10969 276646.080000
    641    644     1   0.10969 276646.080000
    643    645     1   0.10969 276646.080000
    643    646     1   0.10969 276646.080000
    648    658     1   0.09730 310787.520000
    652    653     1   0.10969 276646.080000
    652    654     1   0.10969 276646.080000
    657    659     1   0.09730 310787.520000
    660    661     1   0.10129 337397.760000
    662    663     1   0.10969 276646.080000
    662    665     1   0.10969 276646.080000
    664    666     1   0.10969 276646.080000
    664    667     1   0.10969 276646.080000
    669    679     1   0.10969 276646.080000
    669    680     1   0.10969 276646.080000
    670    671     1   0.10969 276646.080000
    670    673     1   0.10969 276646.080000
    672    674     1   0.10969 276646.080000
    672    675     1   0.10969 276646.080000
    677    687     1   0.09730 310787.520000
    681    682     1   0.10969 276646.080000
    681    683     1   0.10969 276646.080000
    686    688     1   0.09730 310787.520000
    689    690     1   0.10129 337397.760000
    691    692     1   0.10969 276646.080000
    691    694     1   0.10969 276646.080000
    693    695     1   0.10969 276646.080000
    693    696     1   0.10969 276646.080000
    698    708     1   0.10969 276646.080000
    698    709     1   0.10969 276646.080000
    699    700     1   0.10969 276646.080000
    699    702     1   0.10969 276646.080000
    701    703     1   0.10969 276646.080000
    701    704     1   0.10969 276646.080000
    706    716     1   0.09730 310787.520000
    710    711     1   0.10969 276646.080000
    710    712     1   0.10969 276646.080000
    715    717     1   0.09730 310787.520000
    718    719     1   0.10129 337397.760000
    720    721     1   0.10969 276646.080000
    720    723     1   0.10969 276646.080000
    722    724     1   0.10969 276646.080000
    722    725     1   0.10969 276646.080000
    727    737     1   0.10969 276646.080000
    727    738     1   0.10969 276646.080000
    728    729     1   0.10969 276646.080000
    728    731     1   0.10969 276646.080000
    730    732     1   0.10969 276646.080000
    730    733     1   0.10969 276646.080000
    735    745     1   0.09730 310787.520000
    739    740     1   0.10969 276646.080000
    739    741     1   0.10969 276646.080000
    744    746     1   0.09730 310787.520000
    747    748     1   0.10129 337397.760000
    749    750     1   0.10969 276646.080000
    749    752     1   0.10969 276646.080000
    751    753     1   0.10969 276646.080000
    751    754     1   0.10969 276646.080000
    756    766     1   0.10969 276646.080000
    756    767     1   0.10969 276646.080000
    757    758     1   0.10969 276646.080000
    757    760     1   0.10969 276646.080000
    759    761     1   0.10969 276646.080000
    759    762     1   0.10969 276646.080000
    764    774     1   0.09730 310787.520000
    768    769     1   0.10969 276646.080000
    768    770     1   0.10969 276646.080000
    773    775     1   0.09730 310787.520000
    776    777     1   0.10129 337397.760000
    778    779     1   0.10969 276646.080000
    778    781     1   0.10969 276646.080000
    780    782     1   0.10969 276646.080000
    780    783     1   0.10969 276646.080000
    785    795     1   0.10969 276646.080000
    785    796     1   0.10969 276646.080000
    786    787     1   0.10969 276646.080000
    786    789     1   0.10969 276646.080000
    788    790     1   0.10969 276646.080000
    788    791     1   0.10969 276646.080000
    793    803     1   0.09730 310787.520000
    797    798     1   0.10969 276646.080000
    797    799     1   0.10969 276646.080000
    802    804     1   0.09730 310787.520000

[ pairs ]
;    ai     aj funct         c0         c1         c2         c3
      1     15     1
      1     18     1
      1     30     1
      1     27     1
      4      9     1
      4     12     1
      4     21     1
      4     24     1
      8      7     1
      7     35     1
      7     36     1
      8     34     1
      8     33     1
      9     27     1
      9     40     1
      9     89     1
     12     30     1
     12     37     1
     12     64     1
     15     24     1
     15     38     1
     15    114     1
     18     21     1
     18     39     1
     18    139     1
     21     94     1
     24    119     1
     27     44     1
     30     69     1
     33     41     1
     34     66     1
     35     91     1
     36    116     1
     37     44     1
     38     94     1
     39    119     1
     40     69     1
     41     57     1
     41     54     1
     44     48     1
     44     51     1
     47     64     1
     47     61     1
     47     60     1
     48     54     1
     48     63     1
     48    189     1
     51     57     1
     51     62     1
     51    164     1
     54    144     1
     57    169     1
     60    141     1
     61    166     1
     62    144     1
     63    169     1
     66     82     1
     66     79     1
     69     73     1
     69     76     1
     72     89     1
     72     86     1
     72     85     1
     73     79     1
     73     88     1
     73    239     1
     76     82     1
     76     87     1
     76    214     1
     79    194     1
     82    219     1
     85    191     1
     86    216     1
     87    194     1
     88    219     1
     91    107     1
     91    104     1
     94     98     1
     94    101     1
     97    114     1
     97    111     1
     97    110     1
     98    104     1
     98    113     1
     98    289     1
    101    107     1
    101    112     1
    101    264     1
    104    244     1
    107    269     1
    110    241     1
    111    266     1
    112    244     1
    113    269     1
    116    132     1
    116    129     1
    119    123     1
    119    126     1
    122    139     1
    122    136     1
    122    135     1
    123    129     1
    123    138     1
    123    339     1
    126    132     1
    126    137     1
    126    314     1
    129    294     1
    132    319     1
    135    291     1
    136    316     1
    137    294     1
    138    319     1
    141    157     1
    141    154     1
    144    148     1
    144    151     1
    147    164     1
    147    161     1
    147    160     1
    148    154     1
    148    163     1
    148    370     1
    151    157     1
    151    341     1
    151    162     1
    154    343     1
    157    372     1
    160    345     1
    161    374     1
    162    343     1
    163    372     1
    166    182     1
    166    179     1
    169    173     1
    169    176     1
    172    189     1
    172    186     1
    172    185     1
    173    179     1
    173    188     1
    173    428     1
    176    182     1
    176    399     1
    176    187     1
    179    401     1
    182    430     1
    185    403     1
    186    432     1
    187    401     1
    188    430     1
    191    207     1
    191    204     1
    194    198     1
    194    201     1
    197    214     1
    197    211     1
    197    210     1
    198    204     1
    198    213     1
    198    486     1
    201    207     1
    201    457     1
    201    212     1
    204    459     1
    207    488     1
    210    461     1
    211    490     1
    212    459     1
    213    488     1
    216    232     1
    216    229     1
    219    223     1
    219    226     1
    222    239     1
    222    236     1
    222    235     1
    223    229     1
    223    238     1
    223    544     1
    226    232     1
    226    515     1
    226    237     1
    229    517     1
    232    546     1
    235    519     1
    236    548     1
    237    517     1
    238    546     1
    241    257     1
    241    254     1
    244    248     1
    244    251     1
    247    264     1
    247    261     1
    247    260     1
    248    254     1
    248    263     1
    248    602     1
    251    257     1
    251    573     1
    251    262     1
    254    575     1
    257    604     1
    260    577     1
    261    606     1
    262    575     1
    263    604     1
    266    282     1
    266    279     1
    269    273     1
    269    276     1
    272    289     1
    272    286     1
    272    285     1
    273    279     1
    273    288     1
    273    660     1
    276    282     1
    276    631     1
    276    287     1
    279    633     1
    282    662     1
    285    635     1
    286    664     1
    287    633     1
    288    662     1
    291    307     1
    291    304     1
    294    298     1
    294    301     1
    297    314     1
    297    311     1
    297    310     1
    298    304     1
    298    313     1
    298    718     1
    301    307     1
    301    689     1
    301    312     1
    304    691     1
    307    720     1
    310    693     1
    311    722     1
    312    691     1
    313    720     1
    316    332     1
    316    329     1
    319    323     1
    319    326     1
    322    339     1
    322    336     1
    322    335     1
    323    329     1
    323    776     1
    323    338     1
    326    332     1
    326    747     1
    326    337     1
    329    749     1
    332    778     1
    335    751     1
    336    780     1
    337    749     1
    338    778     1
    341    349     1
    343    350     1
    343    351     1
    345    362     1
    345    353     1
    349    365     1
    349    357     1
    350    353     1
    350    366     1
    350    367     1
    351    362     1
    351    358     1
    351    359     1
    370    378     1
    372    379     1
    372    380     1
    374    391     1
    374    382     1
    378    394     1
    378    386     1
    379    395     1
    379    396     1
    379    382     1
    380    387     1
    380    388     1
    380    391     1
    399    407     1
    401    408     1
    401    409     1
    403    420     1
    403    411     1
    407    423     1
    407    415     1
    408    411     1
    408    424     1
    408    425     1
    409    420     1
    409    416     1
    409    417     1
    428    436     1
    430    437     1
    430    438     1
    432    449     1
    432    440     1
    436    452     1
    436    444     1
    437    453     1
    437    454     1
    437    440     1
    438    445     1
    438    446     1
    438    449     1
    457    465     1
    459    466     1
    459    467     1
    461    478     1
    461    469     1
    465    481     1
    465    473     1
    466    469     1
    466    482     1
    466    483     1
    467    478     1
    467    474     1
    467    475     1
    486    494     1
    488    495     1
    488    496     1
    490    507     1
    490    498     1
    494    510     1
    494    502     1
    495    511     1
    495    512     1
    495    498     1
    496    503     1
    496    504     1
    496    507     1
    515    523     1
    517    524     1
    517    525     1
    519    536     1
    519    527     1
    523    539     1
    523    531     1
    524    527     1
    524    540     1
    524    541     1
    525    536     1
    525    532     1
    525    533     1
    544    552     1
    546    553     1
    546    554     1
    548    565     1
    548    556     1
    552    568     1
    552    560     1
    553    569     1
    553    570     1
    553    556     1
    554    561     1
    554    562     1
    554    565     1
    573    581     1
    575    582     1
    575    583     1
    577    594     1
    577    585     1
    581    597     1
    581    589     1
    582    585     1
    582    598     1
    582    599     1
    583    594     1
    583    590     1
    583    591     1
    602    610     1
    604    611     1
    604    612     1
    606    623     1
    606    614     1
    610    626     1
    610    618     1
    611    627     1
    611    628     1
    611    614     1
    612    619     1
    612    620     1
    612    623     1
    631    639     1
    633    640     1
    633    641     1
    635    652     1
    635    643     1
    639    655     1
    639    647     1
    640    643     1
    640    656     1
    640    657     1
    641    652     1
    641    648     1
    641    649     1
    660    668     1
    662    669     1
    662    670     1
    664    681     1
    664    672     1
    668    684     1
    668    676     1
    669    685     1
    669    686     1
    669    672     1
    670    677     1
    670    678     1
    670    681     1
    689    697     1
    691    698     1
    691    699     1
    693    710     1
    693    701     1
    697    713     1
    697    705     1
    698    701     1
    698    714     1
    698    715     1
    699    710     1
    699    706     1
    699    707     1
    718    726     1
    720    727     1
    720    728     1
    722    739     1
    722    730     1
    726    742     1
    726    734     1
    727    743     1
    727    744     1
    727    730     1
    728    735     1
    728    736     1
    728    739     1
    747    755     1
    749    756     1
    749    757     1
    751    768     1
    751    759     1
    755    771     1
    755    763     1
    756    759     1
    756    772     1
    756    773     1
    757    768     1
    757    764     1
    757    765     1
    776    784     1
    778    785     1
    778    786     1
    780    797     1
    780    788     1
    784    800     1
    784    792     1
    785    801     1
    785    802     1
    785    788     1
    786    793     1
    786    794     1
    786    797     1
      1     10     1
      1     11     1
      1     13     1
      1     14     1
      2      7     1
      2      5     1
      2      6     1
      2      9     1
      2     12     1
      3      7     1
      3      5     1
      3      6     1
      3      9     1
      3     12     1
      4     16     1
      4     17     1
      4     19     1
      4     20     1
      8      5     1
      5     15     1
      5     18     1
      8      6     1
      6     15     1
      6     18     1
      7     22     1
      7     23     1
      7     25     1
      7     26     1
      8     31     1
      8     32     1
      8     28     1
      8     29     1
      9     13     1
      9     14     1
     10     12     1
     10     34     1
     10     31     1
     10     32     1
     11     12     1
     11     34     1
     11     31     1
     11     32     1
     13     33     1
     13     28     1
     13     29     1
     14     33     1
     14     28     1
     14     29     1
     15     19     1
     15     20     1
     16     18     1
     16     35     1
     16     22     1
     16     23     1
     17     18     1
     17     35     1
     17     22     1
     17     23     1
     19     36     1
     19     25     1
     19     26     1
     20     36     1
     20     25     1
     20     26     1
     21    115     1
     22     38     1
     22    114     1
     23     38     1
     23    114     1
     24    140     1
     25     39     1
     25    139     1
     26     39     1
     26    139     1
     27     65     1
     28     37     1
     28     64     1
     29     37     1
     29     64     1
     30     90     1
     31     40     1
     31     89     1
     32     40     1
     32     89     1
     33     45     1
     33     46     1
     34     70     1
     34     71     1
     35     95     1
     35     96     1
     36    120     1
     36    121     1
     37     65     1
     38    115     1
     39    140     1
     40     90     1
     41     65     1
     41     49     1
     41     50     1
     41     52     1
     41     53     1
     42     64     1
     42     45     1
     42     46     1
     42     48     1
     42     51     1
     43     64     1
     43     45     1
     43     46     1
     43     48     1
     43     51     1
     45     47     1
     45     65     1
     46     47     1
     46     65     1
     47     58     1
     47     59     1
     47     55     1
     47     56     1
     48     52     1
     48     53     1
     49     51     1
     49     61     1
     49     58     1
     49     59     1
     50     51     1
     50     61     1
     50     58     1
     50     59     1
     52     60     1
     52     55     1
     52     56     1
     53     60     1
     53     55     1
     53     56     1
     54    165     1
     55     62     1
     55    164     1
     56     62     1
     56    164     1
     57    190     1
     58     63     1
     58    189     1
     59     63     1
     59    189     1
     60    145     1
     60    146     1
     61    170     1
     61    171     1
     62    165     1
     63    190     1
     66     90     1
     66     74     1
     66     75     1
     66     77     1
     66     78     1
     67     89     1
     67     70     1
     67     71     1
     67     73     1
     67     76     1
     68     89     1
     68     70     1
     68     71     1
     68     73     1
     68     76     1
     70     72     1
     70     90     1
     71     72     1
     71     90     1
     72     83     1
     72     84     1
     72     80     1
     72     81     1
     73     77     1
     73     78     1
     74     76     1
     74     86     1
     74     83     1
     74     84     1
     75     76     1
     75     86     1
     75     83     1
     75     84     1
     77     85     1
     77     80     1
     77     81     1
     78     85     1
     78     80     1
     78     81     1
     79    215     1
     80     87     1
     80    214     1
     81     87     1
     81    214     1
     82    240     1
     83     88     1
     83    239     1
     84     88     1
     84    239     1
     85    195     1
     85    196     1
     86    220     1
     86    221     1
     87    215     1
     88    240     1
     91    115     1
     91     99     1
     91    100     1
     91    102     1
     91    103     1
     92    114     1
     92     95     1
     92     96     1
     92     98     1
     92    101     1
     93    114     1
     93     95     1
     93     96     1
     93     98     1
     93    101     1
     95     97     1
     95    115     1
     96     97     1
     96    115     1
     97    108     1
     97    109     1
     97    105     1
     97    106     1
     98    102     1
     98    103     1
     99    101     1
     99    111     1
     99    108     1
     99    109     1
    100    101     1
    100    111     1
    100    108     1
    100    109     1
    102    110     1
    102    105     1
    102    106     1
    103    110     1
    103    105     1
    103    106     1
    104    265     1
    105    112     1
    105    264     1
    106    112     1
    106    264     1
    107    290     1
    108    113     1
    108    289     1
    109    113     1
    109    289     1
    110    245     1
    110    246     1
    111    270     1
    111    271     1
    112    265     1
    113    290     1
    116    140     1
    116    124     1
    116    125     1
    116    127     1
    116    128     1
    117    139     1
    117    120     1
    117    121     1
    117    123     1
    117    126     1
    118    139     1
    118    120     1
    118    121     1
    118    123     1
    118    126     1
    120    122     1
    120    140     1
    121    122     1
    121    140     1
    122    133     1
    122    134     1
    122    130     1
    122    131     1
    123    127     1
    123    128     1
    124    126     1
    124    136     1
    124    133     1
    124    134     1
    125    126     1
    125    136     1
    125    133     1
    125    134     1
    127    135     1
    127    130     1
    127    131     1
    128    135     1
    128    130     1
    128    131     1
    129    315     1
    130    137     1
    130    314     1
    131    137     1
    131    314     1
    132    340     1
    133    138     1
    133    339     1
    134    138     1
    134    339     1
    135    295     1
    135    296     1
    136    320     1
    136    321     1
    137    315     1
    138    340     1
    141    165     1
    141    149     1
    141    150     1
    141    152     1
    141    153     1
    142    164     1
    142    145     1
    142    146     1
    142    148     1
    142    151     1
    143    164     1
    143    145     1
    143    146     1
    143    148     1
    143    151     1
    145    147     1
    145    165     1
    146    147     1
    146    165     1
    147    158     1
    147    159     1
    147    155     1
    147    156     1
    148    152     1
    148    153     1
    149    151     1
    149    161     1
    149    158     1
    149    159     1
    150    151     1
    150    161     1
    150    158     1
    150    159     1
    152    160     1
    152    155     1
    152    156     1
    153    160     1
    153    155     1
    153    156     1
    154    342     1
    155    341     1
    155    162     1
    156    341     1
    156    162     1
    157    371     1
    158    163     1
    158    370     1
    159    163     1
    159    370     1
    160    344     1
    160    346     1
    161    373     1
    161    375     1
    162    342     1
    163    371     1
    166    190     1
    166    174     1
    166    175     1
    166    177     1
    166    178     1
    167    189     1
    167    170     1
    167    171     1
    167    173     1
    167    176     1
    168    189     1
    168    170     1
    168    171     1
    168    173     1
    168    176     1
    170    172     1
    170    190     1
    171    172     1
    171    190     1
    172    183     1
    172    184     1
    172    180     1
    172    181     1
    173    177     1
    173    178     1
    174    176     1
    174    186     1
    174    183     1
    174    184     1
    175    176     1
    175    186     1
    175    183     1
    175    184     1
    177    185     1
    177    180     1
    177    181     1
    178    185     1
    178    180     1
    178    181     1
    179    400     1
    180    399     1
    180    187     1
    181    399     1
    181    187     1
    182    429     1
    183    188     1
    183    428     1
    184    188     1
    184    428     1
    185    402     1
    185    404     1
    186    431     1
    186    433     1
    187    400     1
    188    429     1
    191    215     1
    191    199     1
    191    200     1
    191    202     1
    191    203     1
    192    214     1
    192    195     1
    192    196     1
    192    198     1
    192    201     1
    193    214     1
    193    195     1
    193    196     1
    193    198     1
    193    201     1
    195    197     1
    195    215     1
    196    197     1
    196    215     1
    197    208     1
    197    209     1
    197    205     1
    197    206     1
    198    202     1
    198    203     1
    199    201     1
    199    211     1
    199    208     1
    199    209     1
    200    201     1
    200    211     1
    200    208     1
    200    209     1
    202    210     1
    202    205     1
    202    206     1
    203    210     1
    203    205     1
    203    206     1
    204    458     1
    205    457     1
    205    212     1
    206    457     1
    206    212     1
    207    487     1
    208    213     1
    208    486     1
    209    213     1
    209    486     1
    210    460     1
    210    462     1
    211    489     1
    211    491     1
    212    458     1
    213    487     1
    216    240     1
    216    224     1
    216    225     1
    216    227     1
    216    228     1
    217    239     1
    217    220     1
    217    221     1
    217    223     1
    217    226     1
    218    239     1
    218    220     1
    218    221     1
    218    223     1
    218    226     1
    220    222     1
    220    240     1
    221    222     1
    221    240     1
    222    233     1
    222    234     1
    222    230     1
    222    231     1
    223    227     1
    223    228     1
    224    226     1
    224    236     1
    224    233     1
    224    234     1
    225    226     1
    225    236     1
    225    233     1
    225    234     1
    227    235     1
    227    230     1
    227    231     1
    228    235     1
    228    230     1
    228    231     1
    229    516     1
    230    515     1
    230    237     1
    231    515     1
    231    237     1
    232    545     1
    233    238     1
    233    544     1
    234    238     1
    234    544     1
    235    518     1
    235    520     1
    236    547     1
    236    549     1
    237    516     1
    238    545     1
    241    265     1
    241    249     1
    241    250     1
    241    252     1
    241    253     1
    242    264     1
    242    245     1
    242    246     1
    242    248     1
    242    251     1
    243    264     1
    243    245     1
    243    246     1
    243    248     1
    243    251     1
    245    247     1
    245    265     1
    246    247     1
    246    265     1
    247    258     1
    247    259     1
    247    255     1
    247    256     1
    248    252     1
    248    253     1
    249    251     1
    249    261     1
    249    258     1
    249    259     1
    250    251     1
    250    261     1
    250    258     1
    250    259     1
    252    260     1
    252    255     1
    252    256     1
    253    260     1
    253    255     1
    253    256     1
    254    574     1
    255    573     1
    255    262     1
    256    573     1
    256    262     1
    257    603     1
    258    263     1
    258    602     1
    259    263     1
    259    602     1
    260    576     1
    260    578     1
    261    605     1
    261    607     1
    262    574     1
    263    603     1
    266    290     1
    266    274     1
    266    275     1
    266    277     1
    266    278     1
    267    289     1
    267    270     1
    267    271     1
    267    273     1
    267    276     1
    268    289     1
    268    270     1
    268    271     1
    268    273     1
    268    276     1
    270    272     1
    270    290     1
    271    272     1
    271    290     1
    272    283     1
    272    284     1
    272    280     1
    272    281     1
    273    277     1
    273    278     1
    274    276     1
    274    286     1
    274    283     1
    274    284     1
    275    276     1
    275    286     1
    275    283     1
    275    284     1
    277    285     1
    277    280     1
    277    281     1
    278    285     1
    278    280     1
    278    281     1
    279    632     1
    280    631     1
    280    287     1
    281    631     1
    281    287     1
    282    661     1
    283    288     1
    283    660     1
    284    288     1
    284    660     1
    285    634     1
    285    636     1
    286    663     1
    286    665     1
    287    632     1
    288    661     1
    291    315     1
    291    299     1
    291    300     1
    291    302     1
    291    303     1
    292    314     1
    292    295     1
    292    296     1
    292    298     1
    292    301     1
    293    314     1
    293    295     1
    293    296     1
    293    298     1
    293    301     1
    295    297     1
    295    315     1
    296    297     1
    296    315     1
    297    308     1
    297    309     1
    297    305     1
    297    306     1
    298    302     1
    298    303     1
    299    301     1
    299    311     1
    299    308     1
    299    309     1
    300    301     1
    300    311     1
    300    308     1
    300    309     1
    302    310     1
    302    305     1
    302    306     1
    303    310     1
    303    305     1
    303    306     1
    304    690     1
    305    689     1
    305    312     1
    306    689     1
    306    312     1
    307    719     1
    308    313     1
    308    718     1
    309    313     1
    309    718     1
    310    692     1
    310    694     1
    311    721     1
    311    723     1
    312    690     1
    313    719     1
    316    340     1
    316    324     1
    316    325     1
    316    327     1
    316    328     1
    317    339     1
    317    320     1
    317    321     1
    317    323     1
    317    326     1
    318    339     1
    318    320     1
    318    321     1
    318    323     1
    318    326     1
    320    322     1
    320    340     1
    321    322     1
    321    340     1
    322    333     1
    322    334     1
    322    330     1
    322    331     1
    323    327     1
    323    328     1
    324    326     1
    324    336     1
    324    333     1
    324    334     1
    325    326     1
    325    336     1
    325    333     1
    325    334     1
    327    335     1
    327    330     1
    327    331     1
    328    335     1
    328    330     1
    328    331     1
    329    748     1
    330    747     1
    330    337     1
    331    747     1
    331    337     1
    332    777     1
    333    776     1
    333    338     1
    334    776     1
    334    338     1
    335    750     1
    335    752     1
    336    779     1
    336    781     1
    337    748     1
    338    777     1
    341    347     1
    341    348     1
    342    345     1
    342    344     1
    342    346     1
    344    349     1
    344    347     1
    344    348     1
    345    360     1
    345    361     1
    345    352     1
    345    354     1
    346    349     1
    346    347     1
    346    348     1
    347    350     1
    347    351     1
    348    350     1
    348    351     1
    349    363     1
    349    364     1
    349    355     1
    349    356     1
    350    352     1
    350    354     1
    351    360     1
    351    361     1
    352    357     1
    352    355     1
    352    356     1
    353    368     1
    354    357     1
    354    355     1
    354    356     1
    355    358     1
    355    359     1
    356    358     1
    356    359     1
    359    368     1
    360    365     1
    360    363     1
    360    364     1
    361    365     1
    361    363     1
    361    364     1
    362    369     1
    363    366     1
    363    367     1
    364    366     1
    364    367     1
    366    369     1
    370    376     1
    370    377     1
    371    374     1
    371    373     1
    371    375     1
    373    378     1
    373    376     1
    373    377     1
    374    389     1
    374    390     1
    374    381     1
    374    383     1
    375    378     1
    375    376     1
    375    377     1
    376    379     1
    376    380     1
    377    379     1
    377    380     1
    378    392     1
    378    393     1
    378    384     1
    378    385     1
    379    381     1
    379    383     1
    380    389     1
    380    390     1
    381    386     1
    381    384     1
    381    385     1
    382    397     1
    383    386     1
    383    384     1
    383    385     1
    384    387     1
    384    388     1
    385    387     1
    385    388     1
    388    397     1
    389    394     1
    389    392     1
    389    393     1
    390    394     1
    390    392     1
    390    393     1
    391    398     1
    392    395     1
    392    396     1
    393    395     1
    393    396     1
    395    398     1
    399    405     1
    399    406     1
    400    403     1
    400    402     1
    400    404     1
    402    407     1
    402    405     1
    402    406     1
    403    418     1
    403    419     1
    403    410     1
    403    412     1
    404    407     1
    404    405     1
    404    406     1
    405    408     1
    405    409     1
    406    408     1
    406    409     1
    407    421     1
    407    422     1
    407    413     1
    407    414     1
    408    410     1
    408    412     1
    409    418     1
    409    419     1
    410    415     1
    410    413     1
    410    414     1
    411    426     1
    412    415     1
    412    413     1
    412    414     1
    413    416     1
    413    417     1
    414    416     1
    414    417     1
    417    426     1
    418    423     1
    418    421     1
    418    422     1
    419    423     1
    419    421     1
    419    422     1
    420    427     1
    421    424     1
    421    425     1
    422    424     1
    422    425     1
    424    427     1
    428    434     1
    428    435     1
    429    432     1
    429    431     1
    429    433     1
    431    436     1
    431    434     1
    431    435     1
    432    447     1
    432    448     1
    432    439     1
    432    441     1
    433    436     1
    433    434     1
    433    435     1
    434    437     1
    434    438     1
    435    437     1
    435    438     1
    436    450     1
    436    451     1
    436    442     1
    436    443     1
    437    439     1
    437    441     1
    438    447     1
    438    448     1
    439    444     1
    439    442     1
    439    443     1
    440    455     1
    441    444     1
    441    442     1
    441    443     1
    442    445     1
    442    446     1
    443    445     1
    443    446     1
    446    455     1
    447    452     1
    447    450     1
    447    451     1
    448    452     1
    448    450     1
    448    451     1
    449    456     1
    450    453     1
    450    454     1
    451    453     1
    451    454     1
    453    456     1
    457    463     1
    457    464     1
    458    461     1
    458    460     1
    458    462     1
    460    465     1
    460    463     1
    460    464     1
    461    476     1
    461    477     1
    461    468     1
    461    470     1
    462    465     1
    462    463     1
    462    464     1
    463    466     1
    463    467     1
    464    466     1
    464    467     1
    465    479     1
    465    480     1
    465    471     1
    465    472     1
    466    468     1
    466    470     1
    467    476     1
    467    477     1
    468    473     1
    468    471     1
    468    472     1
    469    484     1
    470    473     1
    470    471     1
    470    472     1
    471    474     1
    471    475     1
    472    474     1
    472    475     1
    475    484     1
    476    481     1
    476    479     1
    476    480     1
    477    481     1
    477    479     1
    477    480     1
    478    485     1
    479    482     1
    479    483     1
    480    482     1
    480    483     1
    482    485     1
    486    492     1
    486    493     1
    487    490     1
    487    489     1
    487    491     1
    489    494     1
    489    492     1
    489    493     1
    490    505     1
    490    506     1
    490    497     1
    490    499     1
    491    494     1
    491    492     1
    491    493     1
    492    495     1
    492    496     1
    493    495     1
    493    496     1
    494    508     1
    494    509     1
    494    500     1
    494    501     1
    495    497     1
    495    499     1
    496    505     1
    496    506     1
    497    502     1
    497    500     1
    497    501     1
    498    513     1
    499    502     1
    499    500     1
    499    501     1
    500    503     1
    500    504     1
    501    503     1
    501    504     1
    504    513     1
    505    510     1
    505    508     1
    505    509     1
    506    510     1
    506    508     1
    506    509     1
    507    514     1
    508    511     1
    508    512     1
    509    511     1
    509    512     1
    511    514     1
    515    521     1
    515    522     1
    516    519     1
    516    518     1
    516    520     1
    518    523     1
    518    521     1
    518    522     1
    519    534     1
    519    535     1
    519    526     1
    519    528     1
    520    523     1
    520    521     1
    520    522     1
    521    524     1
    521    525     1
    522    524     1
    522    525     1
    523    537     1
    523    538     1
    523    529     1
    523    530     1
    524    526     1
    524    528     1
    525    534     1
    525    535     1
    526    531     1
    526    529     1
    526    530     1
    527    542     1
    528    531     1
    528    529     1
    528    530     1
    529    532     1
    529    533     1
    530    532     1
    530    533     1
    533    542     1
    534    539     1
    534    537     1
    534    538     1
    535    539     1
    535    537     1
    535    538     1
    536    543     1
    537    540     1
    537    541     1
    538    540     1
    538    541     1
    540    543     1
    544    550     1
    544    551     1
    545    548     1
    545    547     1
    545    549     1
    547    552     1
    547    550     1
    547    551     1
    548    563     1
    548    564     1
    548    555     1
    548    557     1
    549    552     1
    549    550     1
    549    551     1
    550    553     1
    550    554     1
    551    553     1
    551    554     1
    552    566     1
    552    567     1
    552    558     1
    552    559     1
    553    555     1
    553    557     1
    554    563     1
    554    564     1
    555    560     1
    555    558     1
    555    559     1
    556    571     1
    557    560     1
    557    558     1
    557    559     1
    558    561     1
    558    562     1
    559    561     1
    559    562     1
    562    571     1
    563    568     1
    563    566     1
    563    567     1
    564    568     1
    564    566     1
    564    567     1
    565    572     1
    566    569     1
    566    570     1
    567    569     1
    567    570     1
    569    572     1
    573    579     1
    573    580     1
    574    577     1
    574    576     1
    574    578     1
    576    581     1
    576    579     1
    576    580     1
    577    592     1
    577    593     1
    577    584     1
    577    586     1
    578    581     1
    578    579     1
    578    580     1
    579    582     1
    579    583     1
    580    582     1
    580    583     1
    581    595     1
    581    596     1
    581    587     1
    581    588     1
    582    584     1
    582    586     1
    583    592     1
    583    593     1
    584    589     1
    584    587     1
    584    588     1
    585    600     1
    586    589     1
    586    587     1
    586    588     1
    587    590     1
    587    591     1
    588    590     1
    588    591     1
    591    600     1
    592    597     1
    592    595     1
    592    596     1
    593    597     1
    593    595     1
    593    596     1
    594    601     1
    595    598     1
    595    599     1
    596    598     1
    596    599     1
    598    601     1
    602    608     1
    602    609     1
    603    606     1
    603    605     1
    603    607     1
    605    610     1
    605    608     1
    605    609     1
    606    621     1
    606    622     1
    606    613     1
    606    615     1
    607    610     1
    607    608     1
    607    609     1
    608    611     1
    608    612     1
    609    611     1
    609    612     1
    610    624     1
    610    625     1
    610    616     1
    610    617     1
    611    613     1
    611    615     1
    612    621     1
    612    622     1
    613    618     1
    613    616     1
    613    617     1
    614    629     1
    615    618     1
    615    616     1
    615    617     1
    616    619     1
    616    620     1
    617    619     1
    617    620     1
    620    629     1
    621    626     1
    621    624     1
    621    625     1
    622    626     1
    622    624     1
    622    625     1
    623    630     1
    624    627     1
    624    628     1
    625    627     1
    625    628     1
    627    630     1
    631    637     1
    631    638     1
    632    635     1
    632    634     1
    632    636     1
    634    639     1
    634    637     1
    634    638     1
    635    650     1
    635    651     1
    635    642     1
    635    644     1
    636    639     1
    636    637     1
    636    638     1
    637    640     1
    637    641     1
    638    640     1
    638    641     1
    639    653     1
    639    654     1
    639    645     1
    639    646     1
    640    642     1
    640    644     1
    641    650     1
    641    651     1
    642    647     1
    642    645     1
    642    646     1
    643    658     1
    644    647     1
    644    645     1
    644    646     1
    645    648     1
    645    649     1
    646    648     1
    646    649     1
    649    658     1
    650    655     1
    650    653     1
    650    654     1
    651    655     1
    651    653     1
    651    654     1
    652    659     1
    653    656     1
    653    657     1
    654    656     1
    654    657     1
    656    659     1
    660    666     1
    660    667     1
    661    664     1
    661    663     1
    661    665     1
    663    668     1
    663    666     1
    663    667     1
    664    679     1
    664    680     1
    664    671     1
    664    673     1
    665    668     1
    665    666     1
    665    667     1
    666    669     1
    666    670     1
    667    669     1
    667    670     1
    668    682     1
    668    683     1
    668    674     1
    668    675     1
    669    671     1
    669    673     1
    670    679     1
    670    680     1
    671    676     1
    671    674     1
    671    675     1
    672    687     1
    673    676     1
    673    674     1
    673    675     1
    674    677     1
    674    678     1
    675    677     1
    675    678     1
    678    687     1
    679    684     1
    679    682     1
    679    683     1
    680    684     1
    680    682     1
    680    683     1
    681    688     1
    682    685     1
    682    686     1
    683    685     1
    683    686     1
    685    688     1
    689    695     1
    689    696     1
    690    693     1
    690    692     1
    690    694     1
    692    697     1
    692    695     1
    692    696     1
    693    708     1
    693    709     1
    693    700     1
    693    702     1
    694    697     1
    694    695     1
    694    696     1
    695    698     1
    695    699     1
    696    698     1
    696    699     1
    697    711     1
    697    712     1
    697    703     1
    697    704     1
    698    700     1
    698    702     1
    699    708     1
    699    709     1
    700    705     1
    700    703     1
    700    704     1
    701    716     1
    702    705     1
    702    703     1
    702    704     1
    703    706     1
    703    707     1
    704    706     1
    704    707     1
    707    716     1
    708    713     1
    708    711     1
    708    712     1
    709    713     1
    709    711     1
    709    712     1
    710    717     1
    711    714     1
    711    715     1
    712    714     1
    712    715     1
    714    717     1
    718    724     1
    718    725     1
    719    722     1
    719    721     1
    719    723     1
    721    726     1
    721    724     1
    721    725     1
    722    737     1
    722    738     1
    722    729     1
    722    731     1
    723    726     1
    723    724     1
    723    725     1
    724    727     1
    724    728     1
    725    727     1
    725    728     1
    726    740     1
    726    741     1
    726    732     1
    726    733     1
    727    729     1
    727    731     1
    728    737     1
    728    738     1
    729    734     1
    729    732     1
    729    733     1
    730    745     1
    731    734     1
    731    732     1
    731    733     1
    732    735     1
    732    736     1
    733    735     1
    733    736     1
    736    745     1
    737    742     1
    737    740     1
    737    741     1
    738    742     1
    738    740     1
    738    741     1
    739    746     1
    740    743     1
    740    744     1
    741    743     1
    741    744     1
    743    746     1
    747    753     1
    747    754     1
    748    751     1
    748    750     1
    748    752     1
    750    755     1
    750    753     1
    750    754     1
    751    766     1
    751    767     1
    751    758     1
    751    760     1
    752    755     1
    752    753     1
    752    754     1
    753    756     1
    753    757     1
    754    756     1
    754    757     1
    755    769     1
    755    770     1
    755    761     1
    755    762     1
    756    758     1
    756    760     1
    757    766     1
    757    767     1
    758    763     1
    758    761     1
    758    762     1
    759    774     1
    760    763     1
    760    761     1
    760    762     1
    761    764     1
    761    765     1
    762    764     1
    762    765     1
    765    774     1
    766    771     1
    766    769     1
    766    770     1
    767    771     1
    767    769     1
    767    770     1
    768    775     1
    769    772     1
    769    773     1
    770    772     1
    770    773     1
    772    775     1
    776    782     1
    776    783     1
    777    780     1
    777    779     1
    777    781     1
    779    784     1
    779    782     1
    779    783     1
    780    795     1
    780    796     1
    780    787     1
    780    789     1
    781    784     1
    781    782     1
    781    783     1
    782    785     1
    782    786     1
    783    785     1
    783    786     1
    784    798     1
    784    799     1
    784    790     1
    784    791     1
    785    787     1
    785    789     1
    786    795     1
    786    796     1
    787    792     1
    787    790     1
    787    791     1
    788    803     1
    789    792     1
    789    790     1
    789    791     1
    790    793     1
    790    794     1
    791    793     1
    791    794     1
    794    803     1
    795    800     1
    795    798     1
    795    799     1
    796    800     1
    796    798     1
    796    799     1
    797    804     1
    798    801     1
    798    802     1
    799    801     1
    799    802     1
    801    804     1

[ angles ]
;    ai     aj     ak funct         c0         c1         c2         c3
      1      4      7     1   111.0400475 552.288000
      1      8      9     1   112.3500484 533.878400
      1      8     12     1   112.3500484 533.878400
      4      1      8     1   111.0400475 552.288000
      4      7     15     1   112.3500484 533.878400
      4      7     18     1   112.3500484 533.878400
      7     15     21     1   111.0400475 552.288000
      7     18     24     1   111.0400475 552.288000
      8      9     30     1   111.0400475 552.288000
      8     12     27     1   111.0400475 552.288000
      9      8     12     1   112.3500484 533.878400
      9     30     34     1   111.0400475 529.694400
     12     27     33     1   111.0400475 529.694400
     15      7     18     1   112.3500484 533.878400
     15     21     35     1   111.0400475 529.694400
     18     24     36     1   111.0400475 529.694400
     21     35     38     1   123.2000528 564.003200
     21     35    114     1   115.1800491 558.982400
     24     36     39     1   123.2000528 564.003200
     24     36    139     1   115.1800491 558.982400
     27     33     37     1   123.2000528 564.003200
     27     33     64     1   115.1800491 558.982400
     30     34     40     1   123.2000528 564.003200
     30     34     89     1   115.1800491 558.982400
     33     64     44     1   120.6900519 530.531200
     34     89     69     1   120.6900519 530.531200
     35    114     94     1   120.6900519 530.531200
     36    139    119     1   120.6900519 530.531200
     37     33     64     1   123.0500530 620.905600
     38     35    114     1   123.0500530 620.905600
     39     36    139     1   123.0500530 620.905600
     40     34     89     1   123.0500530 620.905600
     41     44     64     1   111.6100477 551.451200
     41     47     48     1   112.3500484 533.878400
     41     47     51     1   112.3500484 533.878400
     44     41     47     1   111.0400475 552.288000
     47     48     57     1   111.0400475 552.288000
     47     51     54     1   111.0400475 552.288000
     48     47     51     1   112.3500484 533.878400
     48     57     61     1   111.0400475 529.694400
     51     54     60     1   111.0400475 529.694400
     54     60     62     1   123.2000528 564.003200
     54     60    164     1   115.1800491 558.982400
     57     61     63     1   123.2000528 564.003200
     57     61    189     1   115.1800491 558.982400
     60    164    144     1   120.6900519 530.531200
     61    189    169     1   120.6900519 530.531200
     62     60    164     1   123.0500530 620.905600
     63     61    189     1   123.0500530 620.905600
     66     69     89     1   111.6100477 551.451200
     66     72     73     1   112.3500484 533.878400
     66     72     76     1   112.3500484 533.878400
     69     66     72     1   111.0400475 552.288000
     72     73     82     1   111.0400475 552.288000
     72     76     79     1   111.0400475 552.288000
     73     72     76     1   112.3500484 533.878400
     73     82     86     1   111.0400475 529.694400
     76     79     85     1   111.0400475 529.694400
     79     85     87     1   123.2000528 564.003200
     79     85    214     1   115.1800491 558.982400
     82     86     88     1   123.2000528 564.003200
     82     86    239     1   115.1800491 558.982400
     85    214    194     1   120.6900519 530.531200
     86    239    219     1   120.6900519 530.531200
     87     85    214     1   123.0500530 620.905600
     88     86    239     1   123.0500530 620.905600
     91     94    114     1   111.6100477 551.451200
     91     97     98     1   112.3500484 533.878400
     91     97    101     1   112.3500484 533.878400
     94     91     97     1   111.0400475 552.288000
     97     98    107     1   111.0400475 552.288000
     97    101    104     1   111.0400475 552.288000
     98     97    101     1   112.3500484 533.878400
     98    107    111     1   111.0400475 529.694400
    101    104    110     1   111.0400475 529.694400
    104    110    112     1   123.2000528 564.003200
    104    110    264     1   115.1800491 558.982400
    107    111    113     1   123.2000528 564.003200
    107    111    289     1   115.1800491 558.982400
    110    264    244     1   120.6900519 530.531200
    111    289    269     1   120.6900519 530.531200
    112    110    264     1   123.0500530 620.905600
    113    111    289     1   123.0500530 620.905600
    116    119    139     1   111.6100477 551.451200
    116    122    123     1   112.3500484 533.878400
    116    122    126     1   112.3500484 533.878400
    119    116    122     1   111.0400475 552.288000
    122    123    132     1   111.0400475 552.288000
    122    126    129     1   111.0400475 552.288000
    123    122    126     1   112.3500484 533.878400
    123    132    136     1   111.0400475 529.694400
    126    129    135     1   111.0400475 529.694400
    129    135    137     1   123.2000528 564.003200
    129    135    314     1   115.1800491 558.982400
    132    136    138     1   123.2000528 564.003200
    132    136    339     1   115.1800491 558.982400
    135    314    294     1   120.6900519 530.531200
    136    339    319     1   120.6900519 530.531200
    137    135    314     1   123.0500530 620.905600
    138    136    339     1   123.0500530 620.905600
    141    144    164     1   111.6100477 551.451200
    141    147    148     1   112.3500484 533.878400
    141    147    151     1   112.3500484 533.878400
    144    141    147     1   111.0400475 552.288000
    147    148    157     1   111.0400475 552.288000
    147    151    154     1   111.0400475 552.288000
    148    147    151     1   112.3500484 533.878400
    148    157    161     1   111.0400475 529.694400
    151    154    160     1   111.0400475 529.694400
    154    160    341     1   115.1800491 558.982400
    154    160    162     1   123.2000528 564.003200
    157    161    163     1   123.2000528 564.003200
    157    161    370     1   115.1800491 558.982400
    160    341    343     1   120.6900519 530.531200
    161    370    372     1   120.6900519 530.531200
    162    160    341     1   123.0500530 620.905600
    163    161    370     1   123.0500530 620.905600
    166    169    189     1   111.6100477 551.451200
    166    172    173     1   112.3500484 533.878400
    166    172    176     1   112.3500484 533.878400
    169    166    172     1   111.0400475 552.288000
    172    173    182     1   111.0400475 552.288000
    172    176    179     1   111.0400475 552.288000
    173    172    176     1   112.3500484 533.878400
    173    182    186     1   111.0400475 529.694400
    176    179    185     1   111.0400475 529.694400
    179    185    399     1   115.1800491 558.982400
    179    185    187     1   123.2000528 564.003200
    182    186    188     1   123.2000528 564.003200
    182    186    428     1   115.1800491 558.982400
    185    399    401     1   120.6900519 530.531200
    186    428    430     1   120.6900519 530.531200
    187    185    399     1   123.0500530 620.905600
    188    186    428     1   123.0500530 620.905600
    191    194    214     1   111.6100477 551.451200
    191    197    198     1   112.3500484 533.878400
    191    197    201     1   112.3500484 533.878400
    194    191    197     1   111.0400475 552.288000
    197    198    207     1   111.0400475 552.288000
    197    201    204     1   111.0400475 552.288000
    198    197    201     1   112.3500484 533.878400
    198    207    211     1   111.0400475 529.694400
    201    204    210     1   111.0400475 529.694400
    204    210    457     1   115.1800491 558.982400
    204    210    212     1   123.2000528 564.003200
    207    211    213     1   123.2000528 564.003200
    207    211    486     1   115.1800491 558.982400
    210    457    459     1   120.6900519 530.531200
    211    486    488     1   120.6900519 530.531200
    212    210    457     1   123.0500530 620.905600
    213    211    486     1   123.0500530 620.905600
    216    219    239     1   111.6100477 551.451200
    216    222    223     1   112.3500484 533.878400
    216    222    226     1   112.3500484 533.878400
    219    216    222     1   111.0400475 552.288000
    222    223    232     1   111.0400475 552.288000
    222    226    229     1   111.0400475 552.288000
    223    222    226     1   112.3500484 533.878400
    223    232    236     1   111.0400475 529.694400
    226    229    235     1   111.0400475 529.694400
    229    235    515     1   115.1800491 558.982400
    229    235    237     1   123.2000528 564.003200
    232    236    238     1   123.2000528 564.003200
    232    236    544     1   115.1800491 558.982400
    235    515    517     1   120.6900519 530.531200
    236    544    546     1   120.6900519 530.531200
    237    235    515     1   123.0500530 620.905600
    238    236    544     1   123.0500530 620.905600
    241    244    264     1   111.6100477 551.451200
    241    247    248     1   112.3500484 533.878400
    241    247    251     1   112.3500484 533.878400
    244    241    247     1   111.0400475 552.288000
    247    248    257     1   111.0400475 552.288000
    247    251    254     1   111.0400475 552.288000
    248    247    251     1   112.3500484 533.878400
    248    257    261     1   111.0400475 529.694400
    251    254    260     1   111.0400475 529.694400
    254    260    573     1   115.1800491 558.982400
    254    260    262     1   123.2000528 564.003200
    257    261    263     1   123.2000528 564.003200
    257    261    602     1   115.1800491 558.982400
    260    573    575     1   120.6900519 530.531200
    261    602    604     1   120.6900519 530.531200
    262    260    573     1   123.0500530 620.905600
    263    261    602     1   123.0500530 620.905600
    266    269    289     1   111.6100477 551.451200
    266    272    273     1   112.3500484 533.878400
    266    272    276     1   112.3500484 533.878400
    269    266    272     1   111.0400475 552.288000
    272    273    282     1   111.0400475 552.288000
    272    276    279     1   111.0400475 552.288000
    273    272    276     1   112.3500484 533.878400
    273    282    286     1   111.0400475 529.694400
    276    279    285     1   111.0400475 529.694400
    279    285    631     1   115.1800491 558.982400
    279    285    287     1   123.2000528 564.003200
    282    286    288     1   123.2000528 564.003200
    282    286    660     1   115.1800491 558.982400
    285    631    633     1   120.6900519 530.531200
    286    660    662     1   120.6900519 530.531200
    287    285    631     1   123.0500530 620.905600
    288    286    660     1   123.0500530 620.905600
    291    294    314     1   111.6100477 551.451200
    291    297    298     1   112.3500484 533.878400
    291    297    301     1   112.3500484 533.878400
    294    291    297     1   111.0400475 552.288000
    297    298    307     1   111.0400475 552.288000
    297    301    304     1   111.0400475 552.288000
    298    297    301     1   112.3500484 533.878400
    298    307    311     1   111.0400475 529.694400
    301    304    310     1   111.0400475 529.694400
    304    310    689     1   115.1800491 558.982400
    304    310    312     1   123.2000528 564.003200
    307    311    313     1   123.2000528 564.003200
    307    311    718     1   115.1800491 558.982400
    310    689    691     1   120.6900519 530.531200
    311    718    720     1   120.6900519 530.531200
    312    310    689     1   123.0500530 620.905600
    313    311    718     1   123.0500530 620.905600
    316    319    339     1   111.6100477 551.451200
    316    322    323     1   112.3500484 533.878400
    316    322    326     1   112.3500484 533.878400
    319    316    322     1   111.0400475 552.288000
    322    323    332     1   111.0400475 552.288000
    322    326    329     1   111.0400475 552.288000
    323    322    326     1   112.3500484 533.878400
    323    332    336     1   111.0400475 529.694400
    326    329    335     1   111.0400475 529.694400
    329    335    747     1   115.1800491 558.982400
    329    335    337     1   123.2000528 564.003200
    332    336    776     1   115.1800491 558.982400
    332    336    338     1   123.2000528 564.003200
    335    747    749     1   120.6900519 530.531200
    336    776    778     1   120.6900519 530.531200
    337    335    747     1   123.0500530 620.905600
    338    336    776     1   123.0500530 620.905600
    341    343    345     1   111.6100477 551.451200
    343    345    349     1   111.0400475 552.288000
    345    349    350     1   112.3500484 533.878400
    345    349    351     1   112.3500484 533.878400
    349    350    362     1   111.0400475 552.288000
    349    351    353     1   111.0400475 552.288000
    350    349    351     1   112.3500484 533.878400
    350    362    365     1   111.0400475 529.694400
    351    353    357     1   111.0400475 529.694400
    353    357    358     1   112.7300484 572.371200
    353    357    359     1   123.2000528 564.003200
    358    357    359     1   122.1000523 635.131200
    362    365    366     1   123.2000528 564.003200
    362    365    367     1   112.7300484 572.371200
    366    365    367     1   122.1000523 635.131200
    370    372    374     1   111.6100477 551.451200
    372    374    378     1   111.0400475 552.288000
    374    378    379     1   112.3500484 533.878400
    374    378    380     1   112.3500484 533.878400
    378    379    391     1   111.0400475 552.288000
    378    380    382     1   111.0400475 552.288000
    379    391    394     1   111.0400475 529.694400
    379    378    380     1   112.3500484 533.878400
    380    382    386     1   111.0400475 529.694400
    382    386    387     1   112.7300484 572.371200
    382    386    388     1   123.2000528 564.003200
    387    386    388     1   122.1000523 635.131200
    391    394    395     1   123.2000528 564.003200
    391    394    396     1   112.7300484 572.371200
    395    394    396     1   122.1000523 635.131200
    399    401    403     1   111.6100477 551.451200
    401    403    407     1   111.0400475 552.288000
    403    407    408     1   112.3500484 533.878400
    403    407    409     1   112.3500484 533.878400
    407    408    420     1   111.0400475 552.288000
    407    409    411     1   111.0400475 552.288000
    408    407    409     1   112.3500484 533.878400
    408    420    423     1   111.0400475 529.694400
    409    411    415     1   111.0400475 529.694400
    411    415    416     1   112.7300484 572.371200
    411    415    417     1   123.2000528 564.003200
    416    415    417     1   122.1000523 635.131200
    420    423    424     1   123.2000528 564.003200
    420    423    425     1   112.7300484 572.371200
    424    423    425     1   122.1000523 635.131200
    428    430    432     1   111.6100477 551.451200
    430    432    436     1   111.0400475 552.288000
    432    436    437     1   112.3500484 533.878400
    432    436    438     1   112.3500484 533.878400
    436    437    449     1   111.0400475 552.288000
    436    438    440     1   111.0400475 552.288000
    437    449    452     1   111.0400475 529.694400
    437    436    438     1   112.3500484 533.878400
    438    440    444     1   111.0400475 529.694400
    440    444    445     1   112.7300484 572.371200
    440    444    446     1   123.2000528 564.003200
    445    444    446     1   122.1000523 635.131200
    449    452    453     1   123.2000528 564.003200
    449    452    454     1   112.7300484 572.371200
    453    452    454     1   122.1000523 635.131200
    457    459    461     1   111.6100477 551.451200
    459    461    465     1   111.0400475 552.288000
    461    465    466     1   112.3500484 533.878400
    461    465    467     1   112.3500484 533.878400
    465    466    478     1   111.0400475 552.288000
    465    467    469     1   111.0400475 552.288000
    466    465    467     1   112.3500484 533.878400
    466    478    481     1   111.0400475 529.694400
    467    469    473     1   111.0400475 529.694400
    469    473    474     1   112.7300484 572.371200
    469    473    475     1   123.2000528 564.003200
    474    473    475     1   122.1000523 635.131200
    478    481    482     1   123.2000528 564.003200
    478    481    483     1   112.7300484 572.371200
    482    481    483     1   122.1000523 635.131200
    486    488    490     1   111.6100477 551.451200
    488    490    494     1   111.0400475 552.288000
    490    494    495     1   112.3500484 533.878400
    490    494    496     1   112.3500484 533.878400
    494    495    507     1   111.0400475 552.288000
    494    496    498     1   111.0400475 552.288000
    495    507    510     1   111.0400475 529.694400
    495    494    496     1   112.3500484 533.878400
    496    498    502     1   111.0400475 529.694400
    498    502    503     1   112.7300484 572.371200
    498    502    504     1   123.2000528 564.003200
    503    502    504     1   122.1000523 635.131200
    507    510    511     1   123.2000528 564.003200
    507    510    512     1   112.7300484 572.371200
    511    510    512     1   122.1000523 635.131200
    515    517    519     1   111.6100477 551.451200
    517    519    523     1   111.0400475 552.288000
    519    523    524     1   112.3500484 533.878400
    519    523    525     1   112.3500484 533.878400
    523    524    536     1   111.0400475 552.288000
    523    525    527     1   111.0400475 552.288000
    524    523    525     1   112.3500484 533.878400
    524    536    539     1   111.0400475 529.694400
    525    527    531     1   111.0400475 529.694400
    527    531    532     1   112.7300484 572.371200
    527    531    533     1   123.2000528 564.003200
    532    531    533     1   122.1000523 635.131200
    536    539    540     1   123.2000528 564.003200
    536    539    541     1   112.7300484 572.371200
    540    539    541     1   122.1000523 635.131200
    544    546    548     1   111.6100477 551.451200
    546    548    552     1   111.0400475 552.288000
    548    552    553     1   112.3500484 533.878400
    548    552    554     1   112.3500484 533.878400
    552    553    565     1   111.0400475 552.288000
    552    554    556     1   111.0400475 552.288000
    553    565    568     1   111.0400475 529.694400
    553    552    554     1   112.3500484 533.878400
    554    556    560     1   111.0400475 529.694400
    556    560    561     1   112.7300484 572.371200
    556    560    562     1   123.2000528 564.003200
    561    560    562     1   122.1000523 635.131200
    565    568    569     1   123.2000528 564.003200
    565    568    570     1   112.7300484 572.371200
    569    568    570     1   122.1000523 635.131200
    573    575    577     1   111.6100477 551.451200
    575    577    581     1   111.0400475 552.288000
    577    581    582     1   112.3500484 533.878400
    577    581    583     1   112.3500484 533.878400
    581    582    594     1   111.0400475 552.288000
    581    583    585     1   111.0400475 552.288000
    582    581    583     1   112.3500484 533.878400
    582    594    597     1   111.0400475 529.694400
    583    585    589     1   111.0400475 529.694400
    585    589    590     1   112.7300484 572.371200
    585    589    591     1   123.2000528 564.003200
    590    589    591     1   122.1000523 635.131200
    594    597    598     1   123.2000528 564.003200
    594    597    599     1   112.7300484 572.371200
    598    597    599     1   122.1000523 635.131200
    602    604    606     1   111.6100477 551.451200
    604    606    610     1   111.0400475 552.288000
    606    610    611     1   112.3500484 533.878400
    606    610    612     1   112.3500484 533.878400
    610    611    623     1   111.0400475 552.288000
    610    612    614     1   111.0400475 552.288000
    611    623    626     1   111.0400475 529.694400
    611    610    612     1   112.3500484 533.878400
    612    614    618     1   111.0400475 529.694400
    614    618    619     1   112.7300484 572.371200
    614    618    620     1   123.2000528 564.003200
    619    618    620     1   122.1000523 635.131200
    623    626    627     1   123.2000528 564.003200
    623    626    628     1   112.7300484 572.371200
    627    626    628     1   122.1000523 635.131200
    631    633    635     1   111.6100477 551.451200
    633    635    639     1   111.0400475 552.288000
    635    639    640     1   112.3500484 533.878400
    635    639    641     1   112.3500484 533.878400
    639    640    652     1   111.0400475 552.288000
    639    641    643     1   111.0400475 552.288000
    640    639    641     1   112.3500484 533.878400
    640    652    655     1   111.0400475 529.694400
    641    643    647     1   111.0400475 529.694400
    643    647    648     1   112.7300484 572.371200
    643    647    649     1   123.2000528 564.003200
    648    647    649     1   122.1000523 635.131200
    652    655    656     1   123.2000528 564.003200
    652    655    657     1   112.7300484 572.371200
    656    655    657     1   122.1000523 635.131200
    660    662    664     1   111.6100477 551.451200
    662    664    668     1   111.0400475 552.288000
    664    668    669     1   112.3500484 533.878400
    664    668    670     1   112.3500484 533.878400
    668    669    681     1   111.0400475 552.288000
    668    670    672     1   111.0400475 552.288000
    669    681    684     1   111.0400475 529.694400
    669    668    670     1   112.3500484 533.878400
    670    672    676     1   111.0400475 529.694400
    672    676    677     1   112.7300484 572.371200
    672    676    678     1   123.2000528 564.003200
    677    676    678     1   122.1000523 635.131200
    681    684    685     1   123.2000528 564.003200
    681    684    686     1   112.7300484 572.371200
    685    684    686     1   122.1000523 635.131200
    689    691    693     1   111.6100477 551.451200
    691    693    697     1   111.0400475 552.288000
    693    697    698     1   112.3500484 533.878400
    693    697    699     1   112.3500484 533.878400
    697    698    710     1   111.0400475 552.288000
    697    699    701     1   111.0400475 552.288000
    698    697    699     1   112.3500484 533.878400
    698    710    713     1   111.0400475 529.694400
    699    701    705     1   111.0400475 529.694400
    701    705    706     1   112.7300484 572.371200
    701    705    707     1   123.2000528 564.003200
    706    705    707     1   122.1000523 635.131200
    710    713    714     1   123.2000528 564.003200
    710    713    715     1   112.7300484 572.371200
    714    713    715     1   122.1000523 635.131200
    718    720    722     1   111.6100477 551.451200
    720    722    726     1   111.0400475 552.288000
    722    726    727     1   112.3500484 533.878400
    722    726    728     1   112.3500484 533.878400
    726    727    739     1   111.0400475 552.288000
    726    728    730     1   111.0400475 552.288000
    727    739    742     1   111.0400475 529.694400
    727    726    728     1   112.3500484 533.878400
    728    730    734     1   111.0400475 529.694400
    730    734    735     1   112.7300484 572.371200
    730    734    736     1   123.2000528 564.003200
    735    734    736     1   122.1000523 635.131200
    739    742    743     1   123.2000528 564.003200
    739    742    744     1   112.7300484 572.371200
    743    742    744     1   122.1000523 635.131200
    747    749    751     1   111.6100477 551.451200
    749    751    755     1   111.0400475 552.288000
    751    755    756     1   112.3500484 533.878400
    751    755    757     1   112.3500484 533.878400
    755    756    768     1   111.0400475 552.288000
    755    757    759     1   111.0400475 552.288000
    756    755    757     1   112.3500484 533.878400
    756    768    771     1   111.0400475 529.694400
    757    759    763     1   111.0400475 529.694400
    759    763    764     1   112.7300484 572.371200
    759    763    765     1   123.2000528 564.003200
    764    763    765     1   122.1000523 635.131200
    768    771    772     1   123.2000528 564.003200
    768    771    773     1   112.7300484 572.371200
    772    771    773     1   122.1000523 635.131200
    776    778    780     1   111.6100477 551.451200
    778    780    784     1   111.0400475 552.288000
    780    784    785     1   112.3500484 533.878400
    780    784    786     1   112.3500484 533.878400
    784    785    797     1   111.0400475 552.288000
    784    786    788     1   111.0400475 552.288000
    785    797    800     1   111.0400475 529.694400
    785    784    786     1   112.3500484 533.878400
    786    788    792     1   111.0400475 529.694400
    788    792    793     1   112.7300484 572.371200
    788    792    794     1   123.2000528 564.003200
    793    792    794     1   122.1000523 635.131200
    797    800    801     1   123.2000528 564.003200
    797    800    802     1   112.7300484 572.371200
    801    800    802     1   122.1000523 635.131200
      1      4      5     1   109.5600471 388.275200
      1      4      6     1   109.5600471 388.275200
      2      1      4     1   109.5600471 388.275200
      2      1      8     1   109.8800469 414.216000
      2      1      3     1   108.4600466 328.025600
      3      1      4     1   109.5600471 388.275200
      3      1      8     1   109.8800469 414.216000
      5      4      7     1   109.8800469 414.216000
      5      4      6     1   108.4600466 328.025600
      6      4      7     1   109.8800469 414.216000
      7     15     16     1   109.8800469 414.216000
      7     15     17     1   109.8800469 414.216000
      7     18     19     1   109.8800469 414.216000
      7     18     20     1   109.8800469 414.216000
      8      9     10     1   109.8800469 414.216000
      8      9     11     1   109.8800469 414.216000
      8     12     13     1   109.8800469 414.216000
      8     12     14     1   109.8800469 414.216000
      9     30     31     1   109.8000471 387.438400
      9     30     32     1   109.8000471 387.438400
     10      9     30     1   109.5600471 388.275200
     10      9     11     1   108.4600466 328.025600
     11      9     30     1   109.5600471 388.275200
     12     27     28     1   109.8000471 387.438400
     12     27     29     1   109.8000471 387.438400
     13     12     27     1   109.5600471 388.275200
     13     12     14     1   108.4600466 328.025600
     14     12     27     1   109.5600471 388.275200
     15     21     22     1   109.8000471 387.438400
     15     21     23     1   109.8000471 387.438400
     16     15     21     1   109.5600471 388.275200
     16     15     17     1   108.4600466 328.025600
     17     15     21     1   109.5600471 388.275200
     18     24     25     1   109.8000471 387.438400
     18     24     26     1   109.8000471 387.438400
     19     18     24     1   109.5600471 388.275200
     19     18     20     1   108.4600466 328.025600
     20     18     24     1   109.5600471 388.275200
     22     21     35     1   108.7700466 392.459200
     22     21     23     1   107.5800459 329.699200
     23     21     35     1   108.7700466 392.459200
     25     24     36     1   108.7700466 392.459200
     25     24     26     1   107.5800459 329.699200
     26     24     36     1   108.7700466 392.459200
     28     27     33     1   108.7700466 392.459200
     28     27     29     1   107.5800459 329.699200
     29     27     33     1   108.7700466 392.459200
     31     30     34     1   108.7700466 392.459200
     31     30     32     1   107.5800459 329.699200
     32     30     34     1   108.7700466 392.459200
     33     64     65     1   117.5500507 404.174400
     34     89     90     1   117.5500507 404.174400
     35    114    115     1   117.5500507 404.174400
     36    139    140     1   117.5500507 404.174400
     41     44     45     1   109.5600471 388.275200
     41     44     46     1   109.5600471 388.275200
     42     41     44     1   109.5600471 388.275200
     42     41     47     1   109.8800469 414.216000
     42     41     43     1   108.4600466 328.025600
     43     41     44     1   109.5600471 388.275200
     43     41     47     1   109.8800469 414.216000
     44     64     65     1   117.6800502 383.254400
     45     44     64     1   108.8800464 416.726400
     45     44     46     1   108.4600466 328.025600
     46     44     64     1   108.8800464 416.726400
     47     48     49     1   109.8800469 414.216000
     47     48     50     1   109.8800469 414.216000
     47     51     52     1   109.8800469 414.216000
     47     51     53     1   109.8800469 414.216000
     48     57     58     1   109.8000471 387.438400
     48     57     59     1   109.8000471 387.438400
     49     48     57     1   109.5600471 388.275200
     49     48     50     1   108.4600466 328.025600
     50     48     57     1   109.5600471 388.275200
     51     54     55     1   109.8000471 387.438400
     51     54     56     1   109.8000471 387.438400
     52     51     54     1   109.5600471 388.275200
     52     51     53     1   108.4600466 328.025600
     53     51     54     1   109.5600471 388.275200
     55     54     60     1   108.7700466 392.459200
     55     54     56     1   107.5800459 329.699200
     56     54     60     1   108.7700466 392.459200
     58     57     61     1   108.7700466 392.459200
     58     57     59     1   107.5800459 329.699200
     59     57     61     1   108.7700466 392.459200
     60    164    165     1   117.5500507 404.174400
     61    189    190     1   117.5500507 404.174400
     66     69     70     1   109.5600471 388.275200
     66     69     71     1   109.5600471 388.275200
     67     66     69     1   109.5600471 388.275200
     67     66     72     1   109.8800469 414.216000
     67     66     68     1   108.4600466 328.025600
     68     66     69     1   109.5600471 388.275200
     68     66     72     1   109.8800469 414.216000
     69     89     90     1   117.6800502 383.254400
     70     69     89     1   108.8800464 416.726400
     70     69     71     1   108.4600466 328.025600
     71     69     89     1   108.8800464 416.726400
     72     73     74     1   109.8800469 414.216000
     72     73     75     1   109.8800469 414.216000
     72     76     77     1   109.8800469 414.216000
     72     76     78     1   109.8800469 414.216000
     73     82     83     1   109.8000471 387.438400
     73     82     84     1   109.8000471 387.438400
     74     73     82     1   109.5600471 388.275200
     74     73     75     1   108.4600466 328.025600
     75     73     82     1   109.5600471 388.275200
     76     79     80     1   109.8000471 387.438400
     76     79     81     1   109.8000471 387.438400
     77     76     79     1   109.5600471 388.275200
     77     76     78     1   108.4600466 328.025600
     78     76     79     1   109.5600471 388.275200
     80     79     85     1   108.7700466 392.459200
     80     79     81     1   107.5800459 329.699200
     81     79     85     1   108.7700466 392.459200
     83     82     86     1   108.7700466 392.459200
     83     82     84     1   107.5800459 329.699200
     84     82     86     1   108.7700466 392.459200
     85    214    215     1   117.5500507 404.174400
     86    239    240     1   117.5500507 404.174400
     91     94     95     1   109.5600471 388.275200
     91     94     96     1   109.5600471 388.275200
     92     91     94     1   109.5600471 388.275200
     92     91     97     1   109.8800469 414.216000
     92     91     93     1   108.4600466 328.025600
     93     91     94     1   109.5600471 388.275200
     93     91     97     1   109.8800469 414.216000
     94    114    115     1   117.6800502 383.254400
     95     94    114     1   108.8800464 416.726400
     95     94     96     1   108.4600466 328.025600
     96     94    114     1   108.8800464 416.726400
     97     98     99     1   109.8800469 414.216000
     97     98    100     1   109.8800469 414.216000
     97    101    102     1   109.8800469 414.216000
     97    101    103     1   109.8800469 414.216000
     98    107    108     1   109.8000471 387.438400
     98    107    109     1   109.8000471 387.438400
     99     98    107     1   109.5600471 388.275200
     99     98    100     1   108.4600466 328.025600
    100     98    107     1   109.5600471 388.275200
    101    104    105     1   109.8000471 387.438400
    101    104    106     1   109.8000471 387.438400
    102    101    104     1   109.5600471 388.275200
    102    101    103     1   108.4600466 328.025600
    103    101    104     1   109.5600471 388.275200
    105    104    110     1   108.7700466 392.459200
    105    104    106     1   107.5800459 329.699200
    106    104    110     1   108.7700466 392.459200
    108    107    111     1   108.7700466 392.459200
    108    107    109     1   107.5800459 329.699200
    109    107    111     1   108.7700466 392.459200
    110    264    265     1   117.5500507 404.174400
    111    289    290     1   117.5500507 404.174400
    116    119    120     1   109.5600471 388.275200
    116    119    121     1   109.5600471 388.275200
    117    116    119     1   109.5600471 388.275200
    117    116    122     1   109.8800469 414.216000
    117    116    118     1   108.4600466 328.025600
    118    116    119     1   109.5600471 388.275200
    118    116    122     1   109.8800469 414.216000
    119    139    140     1   117.6800502 383.254400
    120    119    139     1   108.8800464 416.726400
    120    119    121     1   108.4600466 328.025600
    121    119    139     1   108.8800464 416.726400
    122    123    124     1   109.8800469 414.216000
    122    123    125     1   109.8800469 414.216000
    122    126    127     1   109.8800469 414.216000
    122    126    128     1   109.8800469 414.216000
    123    132    133     1   109.8000471 387.438400
    123    132    134     1   109.8000471 387.438400
    124    123    132     1   109.5600471 388.275200
    124    123    125     1   108.4600466 328.025600
    125    123    132     1   109.5600471 388.275200
    126    129    130     1   109.8000471 387.438400
    126    129    131     1   109.8000471 387.438400
    127    126    129     1   109.5600471 388.275200
    127    126    128     1   108.4600466 328.025600
    128    126    129     1   109.5600471 388.275200
    130    129    135     1   108.7700466 392.459200
    130    129    131     1   107.5800459 329.699200
    131    129    135     1   108.7700466 392.459200
    133    132    136     1   108.7700466 392.459200
    133    132    134     1   107.5800459 329.699200
    134    132    136     1   108.7700466 392.459200
    135    314    315     1   117.5500507 404.174400
    136    339    340     1   117.5500507 404.174400
    141    144    145     1   109.5600471 388.275200
    141    144    146     1   109.5600471 388.275200
    142    141    144     1   109.5600471 388.275200
    142    141    147     1   109.8800469 414.216000
    142    141    143     1   108.4600466 328.025600
    143    141    144     1   109.5600471 388.275200
    143    141    147     1   109.8800469 414.216000
    144    164    165     1   117.6800502 383.254400
    145    144    164     1   108.8800464 416.726400
    145    144    146     1   108.4600466 328.025600
    146    144    164     1   108.8800464 416.726400
    147    148    149     1   109.8800469 414.216000
    147    148    150     1   109.8800469 414.216000
    147    151    152     1   109.8800469 414.216000
    147    151    153     1   109.8800469 414.216000
    148    157    158     1   109.8000471 387.438400
    148    157    159     1   109.8000471 387.438400
    149    148    157     1   109.5600471 388.275200
    149    148    150     1   108.4600466 328.025600
    150    148    157     1   109.5600471 388.275200
    151    154    155     1   109.8000471 387.438400
    151    154    156     1   109.8000471 387.438400
    152    151    154     1   109.5600471 388.275200
    152    151    153     1   108.4600466 328.025600
    153    151    154     1   109.5600471 388.275200
    155    154    160     1   108.7700466 392.459200
    155    154    156     1   107.5800459 329.699200
    156    154    160     1   108.7700466 392.459200
    158    157    161     1   108.7700466 392.459200
    158    157    159     1   107.5800459 329.699200
    159    157    161     1   108.7700466 392.459200
    160    341    342     1   117.5500507 404.174400
    161    370    371     1   117.5500507 404.174400
    166    169    170     1   109.5600471 388.275200
    166    169    171     1   109.5600471 388.275200
    167    166    169     1   109.5600471 388.275200
    167    166    172     1   109.8800469 414.216000
    167    166    168     1   108.4600466 328.025600
    168    166    169     1   109.5600471 388.275200
    168    166    172     1   109.8800469 414.216000
    169    189    190     1   117.6800502 383.254400
    170    169    189     1   108.8800464 416.726400
    170    169    171     1   108.4600466 328.025600
    171    169    189     1   108.8800464 416.726400
    172    173    174     1   109.8800469 414.216000
    172    173    175     1   109.8800469 414.216000
    172    176    177     1   109.8800469 414.216000
    172    176    178     1   109.8800469 414.216000
    173    182    183     1   109.8000471 387.438400
    173    182    184     1   109.8000471 387.438400
    174    173    182     1   109.5600471 388.275200
    174    173    175     1   108.4600466 328.025600
    175    173    182     1   109.5600471 388.275200
    176    179    180     1   109.8000471 387.438400
    176    179    181     1   109.8000471 387.438400
    177    176    179     1   109.5600471 388.275200
    177    176    178     1   108.4600466 328.025600
    178    176    179     1   109.5600471 388.275200
    180    179    185     1   108.7700466 392.459200
    180    179    181     1   107.5800459 329.699200
    181    179    185     1   108.7700466 392.459200
    183    182    186     1   108.7700466 392.459200
    183    182    184     1   107.5800459 329.699200
    184    182    186     1   108.7700466 392.459200
    185    399    400     1   117.5500507 404.174400
    186    428    429     1   117.5500507 404.174400
    191    194    195     1   109.5600471 388.275200
    191    194    196     1   109.5600471 388.275200
    192    191    194     1   109.5600471 388.275200
    192    191    197     1   109.8800469 414.216000
    192    191    193     1   108.4600466 328.025600
    193    191    194     1   109.5600471 388.275200
    193    191    197     1   109.8800469 414.216000
    194    214    215     1   117.6800502 383.254400
    195    194    214     1   108.8800464 416.726400
    195    194    196     1   108.4600466 328.025600
    196    194    214     1   108.8800464 416.726400
    197    198    199     1   109.8800469 414.216000
    197    198    200     1   109.8800469 414.216000
    197    201    202     1   109.8800469 414.216000
    197    201    203     1   109.8800469 414.216000
    198    207    208     1   109.8000471 387.438400
    198    207    209     1   109.8000471 387.438400
    199    198    207     1   109.5600471 388.275200
    199    198    200     1   108.4600466 328.025600
    200    198    207     1   109.5600471 388.275200
    201    204    205     1   109.8000471 387.438400
    201    204    206     1   109.8000471 387.438400
    202    201    204     1   109.5600471 388.275200
    202    201    203     1   108.4600466 328.025600
    203    201    204     1   109.5600471 388.275200
    205    204    210     1   108.7700466 392.459200
    205    204    206     1   107.5800459 329.699200
    206    204    210     1   108.7700466 392.459200
    208    207    211     1   108.7700466 392.459200
    208    207    209     1   107.5800459 329.699200
    209    207    211     1   108.7700466 392.459200
    210    457    458     1   117.5500507 404.174400
    211    486    487     1   117.5500507 404.174400
    216    219    220     1   109.5600471 388.275200
    216    219    221     1   109.5600471 388.275200
    217    216    219     1   109.5600471 388.275200
    217    216    222     1   109.8800469 414.216000
    217    216    218     1   108.4600466 328.025600
    218    216    219     1   109.5600471 388.275200
    218    216    222     1   109.8800469 414.216000
    219    239    240     1   117.6800502 383.254400
    220    219    239     1   108.8800464 416.726400
    220    219    221     1   108.4600466 328.025600
    221    219    239     1   108.8800464 416.726400
    222    223    224     1   109.8800469 414.216000
    222    223    225     1   109.8800469 414.216000
    222    226    227     1   109.8800469 414.216000
    222    226    228     1   109.8800469 414.216000
    223    232    233     1   109.8000471 387.438400
    223    232    234     1   109.8000471 387.438400
    224    223    232     1   109.5600471 388.275200
    224    223    225     1   108.4600466 328.025600
    225    223    232     1   109.5600471 388.275200
    226    229    230     1   109.8000471 387.438400
    226    229    231     1   109.8000471 387.438400
    227    226    229     1   109.5600471 388.275200
    227    226    228     1   108.4600466 328.025600
    228    226    229     1   109.5600471 388.275200
    230    229    235     1   108.7700466 392.459200
    230    229    231     1   107.5800459 329.699200
    231    229    235     1   108.7700466 392.459200
    233    232    236     1   108.7700466 392.459200
    233    232    234     1   107.5800459 329.699200
    234    232    236     1   108.7700466 392.459200
    235    515    516     1   117.5500507 404.174400
    236    544    545     1   117.5500507 404.174400
    241    244    245     1   109.5600471 388.275200
    241    244    246     1   109.5600471 388.275200
    242    241    244     1   109.5600471 388.275200
    242    241    247     1   109.8800469 414.216000
    242    241    243     1   108.4600466 328.025600
    243    241    244     1   109.5600471 388.275200
    243    241    247     1   109.8800469 414.216000
    244    264    265     1   117.6800502 383.254400
    245    244    264     1   108.8800464 416.726400
    245    244    246     1   108.4600466 328.025600
    246    244    264     1   108.8800464 416.726400
    247    248    249     1   109.8800469 414.216000
    247    248    250     1   109.8800469 414.216000
    247    251    252     1   109.8800469 414.216000
    247    251    253     1   109.8800469 414.216000
    248    257    258     1   109.8000471 387.438400
    248    257    259     1   109.8000471 387.438400
    249    248    257     1   109.5600471 388.275200
    249    248    250     1   108.4600466 328.025600
    250    248    257     1   109.5600471 388.275200
    251    254    255     1   109.8000471 387.438400
    251    254    256     1   109.8000471 387.438400
    252    251    254     1   109.5600471 388.275200
    252    251    253     1   108.4600466 328.025600
    253    251    254     1   109.5600471 388.275200
    255    254    260     1   108.7700466 392.459200
    255    254    256     1   107.5800459 329.699200
    256    254    260     1   108.7700466 392.459200
    258    257    261     1   108.7700466 392.459200
    258    257    259     1   107.5800459 329.699200
    259    257    261     1   108.7700466 392.459200
    260    573    574     1   117.5500507 404.174400
    261    602    603     1   117.5500507 404.174400
    266    269    270     1   109.5600471 388.275200
    266    269    271     1   109.5600471 388.275200
    267    266    269     1   109.5600471 388.275200
    267    266    272     1   109.8800469 414.216000
    267    266    268     1   108.4600466 328.025600
    268    266    269     1   109.5600471 388.275200
    268    266    272     1   109.8800469 414.216000
    269    289    290     1   117.6800502 383.254400
    270    269    289     1   108.8800464 416.726400
    270    269    271     1   108.4600466 328.025600
    271    269    289     1   108.8800464 416.726400
    272    273    274     1   109.8800469 414.216000
    272    273    275     1   109.8800469 414.216000
    272    276    277     1   109.8800469 414.216000
    272    276    278     1   109.8800469 414.216000
    273    282    283     1   109.8000471 387.438400
    273    282    284     1   109.8000471 387.438400
    274    273    282     1   109.5600471 388.275200
    274    273    275     1   108.4600466 328.025600
    275    273    282     1   109.5600471 388.275200
    276    279    280     1   109.8000471 387.438400
    276    279    281     1   109.8000471 387.438400
    277    276    279     1   109.5600471 388.275200
    277    276    278     1   108.4600466 328.025600
    278    276    279     1   109.5600471 388.275200
    280    279    285     1   108.7700466 392.459200
    280    279    281     1   107.5800459 329.699200
    281    279    285     1   108.7700466 392.459200
    283    282    286     1   108.7700466 392.459200
    283    282    284     1   107.5800459 329.699200
    284    282    286     1   108.7700466 392.459200
    285    631    632     1   117.5500507 404.174400
    286    660    661     1   117.5500507 404.174400
    291    294    295     1   109.5600471 388.275200
    291    294    296     1   109.5600471 388.275200
    292    291    294     1   109.5600471 388.275200
    292    291    297     1   109.8800469 414.216000
    292    291    293     1   108.4600466 328.025600
    293    291    294     1   109.5600471 388.275200
    293    291    297     1   109.8800469 414.216000
    294    314    315     1   117.6800502 383.254400
    295    294    314     1   108.8800464 416.726400
    295    294    296     1   108.4600466 328.025600
    296    294    314     1   108.8800464 416.726400
    297    298    299     1   109.8800469 414.216000
    297    298    300     1   109.8800469 414.216000
    297    301    302     1   109.8800469 414.216000
    297    301    303     1   109.8800469 414.216000
    298    307    308     1   109.8000471 387.438400
    298    307    309     1   109.8000471 387.438400
    299    298    307     1   109.5600471 388.275200
    299    298    300     1   108.4600466 328.025600
    300    298    307     1   109.5600471 388.275200
    301    304    305     1   109.8000471 387.438400
    301    304    306     1   109.8000471 387.438400
    302    301    304     1   109.5600471 388.275200
    302    301    303     1   108.4600466 328.025600
    303    301    304     1   109.5600471 388.275200
    305    304    310     1   108.7700466 392.459200
    305    304    306     1   107.5800459 329.699200
    306    304    310     1   108.7700466 392.459200
    308    307    311     1   108.7700466 392.459200
    308    307    309     1   107.5800459 329.699200
    309    307    311     1   108.7700466 392.459200
    310    689    690     1   117.5500507 404.174400
    311    718    719     1   117.5500507 404.174400
    316    319    320     1   109.5600471 388.275200
    316    319    321     1   109.5600471 388.275200
    317    316    319     1   109.5600471 388.275200
    317    316    322     1   109.8800469 414.216000
    317    316    318     1   108.4600466 328.025600
    318    316    319     1   109.5600471 388.275200
    318    316    322     1   109.8800469 414.216000
    319    339    340     1   117.6800502 383.254400
    320    319    339     1   108.8800464 416.726400
    320    319    321     1   108.4600466 328.025600
    321    319    339     1   108.8800464 416.726400
    322    323    324     1   109.8800469 414.216000
    322    323    325     1   109.8800469 414.216000
    322    326    327     1   109.8800469 414.216000
    322    326    328     1   109.8800469 414.216000
    323    332    333     1   109.8000471 387.438400
    323    332    334     1   109.8000471 387.438400
    324    323    332     1   109.5600471 388.275200
    324    323    325     1   108.4600466 328.025600
    325    323    332     1   109.5600471 388.275200
    326    329    330     1   109.8000471 387.438400
    326    329    331     1   109.8000471 387.438400
    327    326    329     1   109.5600471 388.275200
    327    326    328     1   108.4600466 328.025600
    328    326    329     1   109.5600471 388.275200
    330    329    335     1   108.7700466 392.459200
    330    329    331     1   107.5800459 329.699200
    331    329    335     1   108.7700466 392.459200
    333    332    336     1   108.7700466 392.459200
    333    332    334     1   107.5800459 329.699200
    334    332    336     1   108.7700466 392.459200
    335    747    748     1   117.5500507 404.174400
    336    776    777     1   117.5500507 404.174400
    341    343    344     1   108.8800464 416.726400
    341    343    346     1   108.8800464 416.726400
    342    341    343     1   117.6800502 383.254400
    343    345    347     1   109.5600471 388.275200
    343    345    348     1   109.5600471 388.275200
    344    343    345     1   109.5600471 388.275200
    344    343    346     1   108.4600466 328.025600
    345    343    346     1   109.5600471 388.275200
    347    345    349     1   109.8800469 414.216000
    347    345    348     1   108.4600466 328.025600
    348    345    349     1   109.8800469 414.216000
    349    350    360     1   109.8800469 414.216000
    349    350    361     1   109.8800469 414.216000
    349    351    352     1   109.8800469 414.216000
    349    351    354     1   109.8800469 414.216000
    350    362    363     1   109.8000471 387.438400
    350    362    364     1   109.8000471 387.438400
    351    353    355     1   109.8000471 387.438400
    351    353    356     1   109.8000471 387.438400
    352    351    353     1   109.5600471 388.275200
    352    351    354     1   108.4600466 328.025600
    353    351    354     1   109.5600471 388.275200
    355    353    357     1   108.7700466 392.459200
    355    353    356     1   107.5800459 329.699200
    356    353    357     1   108.7700466 392.459200
    357    358    368     1   106.5500460 417.563200
    360    350    362     1   109.5600471 388.275200
    360    350    361     1   108.4600466 328.025600
    361    350    362     1   109.5600471 388.275200
    363    362    365     1   108.7700466 392.459200
    363    362    364     1   107.5800459 329.699200
    364    362    365     1   108.7700466 392.459200
    365    367    369     1   106.5500460 417.563200
    370    372    373     1   108.8800464 416.726400
    370    372    375     1   108.8800464 416.726400
    371    370    372     1   117.6800502 383.254400
    372    374    376     1   109.5600471 388.275200
    372    374    377     1   109.5600471 388.275200
    373    372    374     1   109.5600471 388.275200
    373    372    375     1   108.4600466 328.025600
    374    372    375     1   109.5600471 388.275200
    376    374    378     1   109.8800469 414.216000
    376    374    377     1   108.4600466 328.025600
    377    374    378     1   109.8800469 414.216000
    378    379    389     1   109.8800469 414.216000
    378    379    390     1   109.8800469 414.216000
    378    380    381     1   109.8800469 414.216000
    378    380    383     1   109.8800469 414.216000
    379    391    392     1   109.8000471 387.438400
    379    391    393     1   109.8000471 387.438400
    380    382    384     1   109.8000471 387.438400
    380    382    385     1   109.8000471 387.438400
    381    380    382     1   109.5600471 388.275200
    381    380    383     1   108.4600466 328.025600
    382    380    383     1   109.5600471 388.275200
    384    382    386     1   108.7700466 392.459200
    384    382    385     1   107.5800459 329.699200
    385    382    386     1   108.7700466 392.459200
    386    387    397     1   106.5500460 417.563200
    389    379    391     1   109.5600471 388.275200
    389    379    390     1   108.4600466 328.025600
    390    379    391     1   109.5600471 388.275200
    392    391    394     1   108.7700466 392.459200
    392    391    393     1   107.5800459 329.699200
    393    391    394     1   108.7700466 392.459200
    394    396    398     1   106.5500460 417.563200
    399    401    402     1   108.8800464 416.726400
    399    401    404     1   108.8800464 416.726400
    400    399    401     1   117.6800502 383.254400
    401    403    405     1   109.5600471 388.275200
    401    403    406     1   109.5600471 388.275200
    402    401    403     1   109.5600471 388.275200
    402    401    404     1   108.4600466 328.025600
    403    401    404     1   109.5600471 388.275200
    405    403    407     1   109.8800469 414.216000
    405    403    406     1   108.4600466 328.025600
    406    403    407     1   109.8800469 414.216000
    407    408    418     1   109.8800469 414.216000
    407    408    419     1   109.8800469 414.216000
    407    409    410     1   109.8800469 414.216000
    407    409    412     1   109.8800469 414.216000
    408    420    421     1   109.8000471 387.438400
    408    420    422     1   109.8000471 387.438400
    409    411    413     1   109.8000471 387.438400
    409    411    414     1   109.8000471 387.438400
    410    409    411     1   109.5600471 388.275200
    410    409    412     1   108.4600466 328.025600
    411    409    412     1   109.5600471 388.275200
    413    411    415     1   108.7700466 392.459200
    413    411    414     1   107.5800459 329.699200
    414    411    415     1   108.7700466 392.459200
    415    416    426     1   106.5500460 417.563200
    418    408    420     1   109.5600471 388.275200
    418    408    419     1   108.4600466 328.025600
    419    408    420     1   109.5600471 388.275200
    421    420    423     1   108.7700466 392.459200
    421    420    422     1   107.5800459 329.699200
    422    420    423     1   108.7700466 392.459200
    423    425    427     1   106.5500460 417.563200
    428    430    431     1   108.8800464 416.726400
    428    430    433     1   108.8800464 416.726400
    429    428    430     1   117.6800502 383.254400
    430    432    434     1   109.5600471 388.275200
    430    432    435     1   109.5600471 388.275200
    431    430    432     1   109.5600471 388.275200
    431    430    433     1   108.4600466 328.025600
    432    430    433     1   109.5600471 388.275200
    434    432    436     1   109.8800469 414.216000
    434    432    435     1   108.4600466 328.025600
    435    432    436     1   109.8800469 414.216000
    436    437    447     1   109.8800469 414.216000
    436    437    448     1   109.8800469 414.216000
    436    438    439     1   109.8800469 414.216000
    436    438    441     1   109.8800469 414.216000
    437    449    450     1   109.8000471 387.438400
    437    449    451     1   109.8000471 387.438400
    438    440    442     1   109.8000471 387.438400
    438    440    443     1   109.8000471 387.438400
    439    438    440     1   109.5600471 388.275200
    439    438    441     1   108.4600466 328.025600
    440    438    441     1   109.5600471 388.275200
    442    440    444     1   108.7700466 392.459200
    442    440    443     1   107.5800459 329.699200
    443    440    444     1   108.7700466 392.459200
    444    445    455     1   106.5500460 417.563200
    447    437    449     1   109.5600471 388.275200
    447    437    448     1   108.4600466 328.025600
    448    437    449     1   109.5600471 388.275200
    450    449    452     1   108.7700466 392.459200
    450    449    451     1   107.5800459 329.699200
    451    449    452     1   108.7700466 392.459200
    452    454    456     1   106.5500460 417.563200
    457    459    460     1   108.8800464 416.726400
    457    459    462     1   108.8800464 416.726400
    458    457    459     1   117.6800502 383.254400
    459    461    463     1   109.5600471 388.275200
    459    461    464     1   109.5600471 388.275200
    460    459    461     1   109.5600471 388.275200
    460    459    462     1   108.4600466 328.025600
    461    459    462     1   109.5600471 388.275200
    463    461    465     1   109.8800469 414.216000
    463    461    464     1   108.4600466 328.025600
    464    461    465     1   109.8800469 414.216000
    465    466    476     1   109.8800469 414.216000
    465    466    477     1   109.8800469 414.216000
    465    467    468     1   109.8800469 414.216000
    465    467    470     1   109.8800469 414.216000
    466    478    479     1   109.8000471 387.438400
    466    478    480     1   109.8000471 387.438400
    467    469    471     1   109.8000471 387.438400
    467    469    472     1   109.8000471 387.438400
    468    467    469     1   109.5600471 388.275200
    468    467    470     1   108.4600466 328.025600
    469    467    470     1   109.5600471 388.275200
    471    469    473     1   108.7700466 392.459200
    471    469    472     1   107.5800459 329.699200
    472    469    473     1   108.7700466 392.459200
    473    474    484     1   106.5500460 417.563200
    476    466    478     1   109.5600471 388.275200
    476    466    477     1   108.4600466 328.025600
    477    466    478     1   109.5600471 388.275200
    479    478    481     1   108.7700466 392.459200
    479    478    480     1   107.5800459 329.699200
    480    478    481     1   108.7700466 392.459200
    481    483    485     1   106.5500460 417.563200
    486    488    489     1   108.8800464 416.726400
    486    488    491     1   108.8800464 416.726400
    487    486    488     1   117.6800502 383.254400
    488    490    492     1   109.5600471 388.275200
    488    490    493     1   109.5600471 388.275200
    489    488    490     1   109.5600471 388.275200
    489    488    491     1   108.4600466 328.025600
    490    488    491     1   109.5600471 388.275200
    492    490    494     1   109.8800469 414.216000
    492    490    493     1   108.4600466 328.025600
    493    490    494     1   109.8800469 414.216000
    494    495    505     1   109.8800469 414.216000
    494    495    506     1   109.8800469 414.216000
    494    496    497     1   109.8800469 414.216000
    494    496    499     1   109.8800469 414.216000
    495    507    508     1   109.8000471 387.438400
    495    507    509     1   109.8000471 387.438400
    496    498    500     1   109.8000471 387.438400
    496    498    501     1   109.8000471 387.438400
    497    496    498     1   109.5600471 388.275200
    497    496    499     1   108.4600466 328.025600
    498    496    499     1   109.5600471 388.275200
    500    498    502     1   108.7700466 392.459200
    500    498    501     1   107.5800459 329.699200
    501    498    502     1   108.7700466 392.459200
    502    503    513     1   106.5500460 417.563200
    505    495    507     1   109.5600471 388.275200
    505    495    506     1   108.4600466 328.025600
    506    495    507     1   109.5600471 388.275200
    508    507    510     1   108.7700466 392.459200
    508    507    509     1   107.5800459 329.699200
    509    507    510     1   108.7700466 392.459200
    510    512    514     1   106.5500460 417.563200
    515    517    518     1   108.8800464 416.726400
    515    517    520     1   108.8800464 416.726400
    516    515    517     1   117.6800502 383.254400
    517    519    521     1   109.5600471 388.275200
    517    519    522     1   109.5600471 388.275200
    518    517    519     1   109.5600471 388.275200
    518    517    520     1   108.4600466 328.025600
    519    517    520     1   109.5600471 388.275200
    521    519    523     1   109.8800469 414.216000
    521    519    522     1   108.4600466 328.025600
    522    519    523     1   109.8800469 414.216000
    523    524    534     1   109.8800469 414.216000
    523    524    535     1   109.8800469 414.216000
    523    525    526     1   109.8800469 414.216000
    523    525    528     1   109.8800469 414.216000
    524    536    537     1   109.8000471 387.438400
    524    536    538     1   109.8000471 387.438400
    525    527    529     1   109.8000471 387.438400
    525    527    530     1   109.8000471 387.438400
    526    525    527     1   109.5600471 388.275200
    526    525    528     1   108.4600466 328.025600
    527    525    528     1   109.5600471 388.275200
    529    527    531     1   108.7700466 392.459200
    529    527    530     1   107.5800459 329.699200
    530    527    531     1   108.7700466 392.459200
    531    532    542     1   106.5500460 417.563200
    534    524    536     1   109.5600471 388.275200
    534    524    535     1   108.4600466 328.025600
    535    524    536     1   109.5600471 388.275200
    537    536    539     1   108.7700466 392.459200
    537    536    538     1   107.5800459 329.699200
    538    536    539     1   108.7700466 392.459200
    539    541    543     1   106.5500460 417.563200
    544    546    547     1   108.8800464 416.726400
    544    546    549     1   108.8800464 416.726400
    545    544    546     1   117.6800502 383.254400
    546    548    550     1   109.5600471 388.275200
    546    548    551     1   109.5600471 388.275200
    547    546    548     1   109.5600471 388.275200
    547    546    549     1   108.4600466 328.025600
    548    546    549     1   109.5600471 388.275200
    550    548    552     1   109.8800469 414.216000
    550    548    551     1   108.4600466 328.025600
    551    548    552     1   109.8800469 414.216000
    552    553    563     1   109.8800469 414.216000
    552    553    564     1   109.8800469 414.216000
    552    554    555     1   109.8800469 414.216000
    552    554    557     1   109.8800469 414.216000
    553    565    566     1   109.8000471 387.438400
    553    565    567     1   109.8000471 387.438400
    554    556    558     1   109.8000471 387.438400
    554    556    559     1   109.8000471 387.438400
    555    554    556     1   109.5600471 388.275200
    555    554    557     1   108.4600466 328.025600
    556    554    557     1   109.5600471 388.275200
    558    556    560     1   108.7700466 392.459200
    558    556    559     1   107.5800459 329.699200
    559    556    560     1   108.7700466 392.459200
    560    561    571     1   106.5500460 417.563200
    563    553    565     1   109.5600471 388.275200
    563    553    564     1   108.4600466 328.025600
    564    553    565     1   109.5600471 388.275200
    566    565    568     1   108.7700466 392.459200
    566    565    567     1   107.5800459 329.699200
    567    565    568     1   108.7700466 392.459200
    568    570    572     1   106.5500460 417.563200
    573    575    576     1   108.8800464 416.726400
    573    575    578     1   108.8800464 416.726400
    574    573    575     1   117.6800502 383.254400
    575    577    579     1   109.5600471 388.275200
    575    577    580     1   109.5600471 388.275200
    576    575    577     1   109.5600471 388.275200
    576    575    578     1   108.4600466 328.025600
    577    575    578     1   109.5600471 388.275200
    579    577    581     1   109.8800469 414.216000
    579    577    580     1   108.4600466 328.025600
    580    577    581     1   109.8800469 414.216000
    581    582    592     1   109.8800469 414.216000
    581    582    593     1   109.8800469 414.216000
    581    583    584     1   109.8800469 414.216000
    581    583    586     1   109.8800469 414.216000
    582    594    595     1   109.8000471 387.438400
    582    594    596     1   109.8000471 387.438400
    583    585    587     1   109.8000471 387.438400
    583    585    588     1   109.8000471 387.438400
    584    583    585     1   109.5600471 388.275200
    584    583    586     1   108.4600466 328.025600
    585    583    586     1   109.5600471 388.275200
    587    585    589     1   108.7700466 392.459200
    587    585    588     1   107.5800459 329.699200
    588    585    589     1   108.7700466 392.459200
    589    590    600     1   106.5500460 417.563200
    592    582    594     1   109.5600471 388.275200
    592    582    593     1   108.4600466 328.025600
    593    582    594     1   109.5600471 388.275200
    595    594    597     1   108.7700466 392.459200
    595    594    596     1   107.5800459 329.699200
    596    594    597     1   108.7700466 392.459200
    597    599    601     1   106.5500460 417.563200
    602    604    605     1   108.8800464 416.726400
    602    604    607     1   108.8800464 416.726400
    603    602    604     1   117.6800502 383.254400
    604    606    608     1   109.5600471 388.275200
    604    606    609     1   109.5600471 388.275200
    605    604    606     1   109.5600471 388.275200
    605    604    607     1   108.4600466 328.025600
    606    604    607     1   109.5600471 388.275200
    608    606    610     1   109.8800469 414.216000
    608    606    609     1   108.4600466 328.025600
    609    606    610     1   109.8800469 414.216000
    610    611    621     1   109.8800469 414.216000
    610    611    622     1   109.8800469 414.216000
    610    612    613     1   109.8800469 414.216000
    610    612    615     1   109.8800469 414.216000
    611    623    624     1   109.8000471 387.438400
    611    623    625     1   109.8000471 387.438400
    612    614    616     1   109.8000471 387.438400
    612    614    617     1   109.8000471 387.438400
    613    612    614     1   109.5600471 388.275200
    613    612    615     1   108.4600466 328.025600
    614    612    615     1   109.5600471 388.275200
    616    614    618     1   108.7700466 392.459200
    616    614    617     1   107.5800459 329.699200
    617    614    618     1   108.7700466 392.459200
    618    619    629     1   106.5500460 417.563200
    621    611    623     1   109.5600471 388.275200
    621    611    622     1   108.4600466 328.025600
    622    611    623     1   109.5600471 388.275200
    624    623    626     1   108.7700466 392.459200
    624    623    625     1   107.5800459 329.699200
    625    623    626     1   108.7700466 392.459200
    626    628    630     1   106.5500460 417.563200
    631    633    634     1   108.8800464 416.726400
    631    633    636     1   108.8800464 416.726400
    632    631    633     1   117.6800502 383.254400
    633    635    637     1   109.5600471 388.275200
    633    635    638     1   109.5600471 388.275200
    634    633    635     1   109.5600471 388.275200
    634    633    636     1   108.4600466 328.025600
    635    633    636     1   109.5600471 388.275200
    637    635    639     1   109.8800469 414.216000
    637    635    638     1   108.4600466 328.025600
    638    635    639     1   109.8800469 414.216000
    639    640    650     1   109.8800469 414.216000
    639    640    651     1   109.8800469 414.216000
    639    641    642     1   109.8800469 414.216000
    639    641    644     1   109.8800469 414.216000
    640    652    653     1   109.8000471 387.438400
    640    652    654     1   109.8000471 387.438400
    641    643    645     1   109.8000471 387.438400
    641    643    646     1   109.8000471 387.438400
    642    641    643     1   109.5600471 388.275200
    642    641    644     1   108.4600466 328.025600
    643    641    644     1   109.5600471 388.275200
    645    643    647     1   108.7700466 392.459200
    645    643    646     1   107.5800459 329.699200
    646    643    647     1   108.7700466 392.459200
    647    648    658     1   106.5500460 417.563200
    650    640    652     1   109.5600471 388.275200
    650    640    651     1   108.4600466 328.025600
    651    640    652     1   109.5600471 388.275200
    653    652    655     1   108.7700466 392.459200
    653    652    654     1   107.5800459 329.699200
    654    652    655     1   108.7700466 392.459200
    655    657    659     1   106.5500460 417.563200
    660    662    663     1   108.8800464 416.726400
    660    662    665     1   108.8800464 416.726400
    661    660    662     1   117.6800502 383.254400
    662    664    666     1   109.5600471 388.275200
    662    664    667     1   109.5600471 388.275200
    663    662    664     1   109.5600471 388.275200
    663    662    665     1   108.4600466 328.025600
    664    662    665     1   109.5600471 388.275200
    666    664    668     1   109.8800469 414.216000
    666    664    667     1   108.4600466 328.025600
    667    664    668     1   109.8800469 414.216000
    668    669    679     1   109.8800469 414.216000
    668    669    680     1   109.8800469 414.216000
    668    670    671     1   109.8800469 414.216000
    668    670    673     1   109.8800469 414.216000
    669    681    682     1   109.8000471 387.438400
    669    681    683     1   109.8000471 387.438400
    670    672    674     1   109.8000471 387.438400
    670    672    675     1   109.8000471 387.438400
    671    670    672     1   109.5600471 388.275200
    671    670    673     1   108.4600466 328.025600
    672    670    673     1   109.5600471 388.275200
    674    672    676     1   108.7700466 392.459200
    674    672    675     1   107.5800459 329.699200
    675    672    676     1   108.7700466 392.459200
    676    677    687     1   106.5500460 417.563200
    679    669    681     1   109.5600471 388.275200
    679    669    680     1   108.4600466 328.025600
    680    669    681     1   109.5600471 388.275200
    682    681    684     1   108.7700466 392.459200
    682    681    683     1   107.5800459 329.699200
    683    681    684     1   108.7700466 392.459200
    684    686    688     1   106.5500460 417.563200
    689    691    692     1   108.8800464 416.726400
    689    691    694     1   108.8800464 416.726400
    690    689    691     1   117.6800502 383.254400
    691    693    695     1   109.5600471 388.275200
    691    693    696     1   109.5600471 388.275200
    692    691    693     1   109.5600471 388.275200
    692    691    694     1   108.4600466 328.025600
    693    691    694     1   109.5600471 388.275200
    695    693    697     1   109.8800469 414.216000
    695    693    696     1   108.4600466 328.025600
    696    693    697     1   109.8800469 414.216000
    697    698    708     1   109.8800469 414.216000
    697    698    709     1   109.8800469 414.216000
    697    699    700     1   109.8800469 414.216000
    697    699    702     1   109.8800469 414.216000
    698    710    711     1   109.8000471 387.438400
    698    710    712     1   109.8000471 387.438400
    699    701    703     1   109.8000471 387.438400
    699    701    704     1   109.8000471 387.438400
    700    699    701     1   109.5600471 388.275200
    700    699    702     1   108.4600466 328.025600
    701    699    702     1   109.5600471 388.275200
    703    701    705     1   108.7700466 392.459200
    703    701    704     1   107.5800459 329.699200
    704    701    705     1   108.7700466 392.459200
    705    706    716     1   106.5500460 417.563200
    708    698    710     1   109.5600471 388.275200
    708    698    709     1   108.4600466 328.025600
    709    698    710     1   109.5600471 388.275200
    711    710    713     1   108.7700466 392.459200
    711    710    712     1   107.5800459 329.699200
    712    710    713     1   108.7700466 392.459200
    713    715    717     1   106.5500460 417.563200
    718    720    721     1   108.8800464 416.726400
    718    720    723     1   108.8800464 416.726400
    719    718    720     1   117.6800502 383.254400
    720    722    724     1   109.5600471 388.275200
    720    722    725     1   109.5600471 388.275200
    721    720    722     1   109.5600471 388.275200
    721    720    723     1   108.4600466 328.025600
    722    720    723     1   109.5600471 388.275200
    724    722    726     1   109.8800469 414.216000
    724    722    725     1   108.4600466 328.025600
    725    722    726     1   109.8800469 414.216000
    726    727    737     1   109.8800469 414.216000
    726    727    738     1   109.8800469 414.216000
    726    728    729     1   109.8800469 414.216000
    726    728    731     1   109.8800469 414.216000
    727    739    740     1   109.8000471 387.438400
    727    739    741     1   109.8000471 387.438400
    728    730    732     1   109.8000471 387.438400
    728    730    733     1   109.8000471 387.438400
    729    728    730     1   109.5600471 388.275200
    729    728    731     1   108.4600466 328.025600
    730    728    731     1   109.5600471 388.275200
    732    730    734     1   108.7700466 392.459200
    732    730    733     1   107.5800459 329.699200
    733    730    734     1   108.7700466 392.459200
    734    735    745     1   106.5500460 417.563200
    737    727    739     1   109.5600471 388.275200
    737    727    738     1   108.4600466 328.025600
    738    727    739     1   109.5600471 388.275200
    740    739    742     1   108.7700466 392.459200
    740    739    741     1   107.5800459 329.699200
    741    739    742     1   108.7700466 392.459200
    742    744    746     1   106.5500460 417.563200
    747    749    750     1   108.8800464 416.726400
    747    749    752     1   108.8800464 416.726400
    748    747    749     1   117.6800502 383.254400
    749    751    753     1   109.5600471 388.275200
    749    751    754     1   109.5600471 388.275200
    750    749    751     1   109.5600471 388.275200
    750    749    752     1   108.4600466 328.025600
    751    749    752     1   109.5600471 388.275200
    753    751    755     1   109.8800469 414.216000
    753    751    754     1   108.4600466 328.025600
    754    751    755     1   109.8800469 414.216000
    755    756    766     1   109.8800469 414.216000
    755    756    767     1   109.8800469 414.216000
    755    757    758     1   109.8800469 414.216000
    755    757    760     1   109.8800469 414.216000
    756    768    769     1   109.8000471 387.438400
    756    768    770     1   109.8000471 387.438400
    757    759    761     1   109.8000471 387.438400
    757    759    762     1   109.8000471 387.438400
    758    757    759     1   109.5600471 388.275200
    758    757    760     1   108.4600466 328.025600
    759    757    760     1   109.5600471 388.275200
    761    759    763     1   108.7700466 392.459200
    761    759    762     1   107.5800459 329.699200
    762    759    763     1   108.7700466 392.459200
    763    764    774     1   106.5500460 417.563200
    766    756    768     1   109.5600471 388.275200
    766    756    767     1   108.4600466 328.025600
    767    756    768     1   109.5600471 388.275200
    769    768    771     1   108.7700466 392.459200
    769    768    770     1   107.5800459 329.699200
    770    768    771     1   108.7700466 392.459200
    771    773    775     1   106.5500460 417.563200
    776    778    779     1   108.8800464 416.726400
    776    778    781     1   108.8800464 416.726400
    777    776    778     1   117.6800502 383.254400
    778    780    782     1   109.5600471 388.275200
    778    780    783     1   109.5600471 388.275200
    779    778    780     1   109.5600471 388.275200
    779    778    781     1   108.4600466 328.025600
    780    778    781     1   109.5600471 388.275200
    782    780    784     1   109.8800469 414.216000
    782    780    783     1   108.4600466 328.025600
    783    780    784     1   109.8800469 414.216000
    784    785    795     1   109.8800469 414.216000
    784    785    796     1   109.8800469 414.216000
    784    786    787     1   109.8800469 414.216000
    784    786    789     1   109.8800469 414.216000
    785    797    798     1   109.8000471 387.438400
    785    797    799     1   109.8000471 387.438400
    786    788    790     1   109.8000471 387.438400
    786    788    791     1   109.8000471 387.438400
    787    786    788     1   109.5600471 388.275200
    787    786    789     1   108.4600466 328.025600
    788    786    789     1   109.5600471 388.275200
    790    788    792     1   108.7700466 392.459200
    790    788    791     1   107.5800459 329.699200
    791    788    792     1   108.7700466 392.459200
    792    793    803     1   106.5500460 417.563200
    795    785    797     1   109.5600471 388.275200
    795    785    796     1   108.4600466 328.025600
    796    785    797     1   109.5600471 388.275200
    798    797    800     1   108.7700466 392.459200
    798    797    799     1   107.5800459 329.699200
    799    797    800     1   108.7700466 392.459200
    800    802    804     1   106.5500460 417.563200

[ dihedrals ]
;    ai     aj     ak     al funct         c0         c1         c2         c3         c4         c5
      1      4      7     15     1  180.0000771  2.0083200  2
      1      4      7     15     1  0.0000000  1.2552000  3
      1      4      7     18     1  180.0000771  2.0083200  2
      1      4      7     18     1  0.0000000  1.2552000  3
      1      8      9     30     1  180.0000771  2.0083200  2
      1      8      9     30     1  0.0000000  1.2552000  3
      1      8     12     27     1  180.0000771  2.0083200  2
      1      8     12     27     1  0.0000000  1.2552000  3
      4      1      8      9     1  180.0000771  2.0083200  2
      4      1      8      9     1  0.0000000  1.2552000  3
      4      1      8     12     1  180.0000771  2.0083200  2
      4      1      8     12     1  0.0000000  1.2552000  3
      4      7     15     21     1  180.0000771  2.0083200  2
      4      7     15     21     1  0.0000000  1.2552000  3
      4      7     18     24     1  180.0000771  2.0083200  2
      4      7     18     24     1  0.0000000  1.2552000  3
      8      1      4      7     1  0.0000000  0.6508444  3
      7     15     21     35     1  0.0000000  0.6508444  3
      7     18     24     36     1  0.0000000  0.6508444  3
      8      9     30     34     1  0.0000000  0.6508444  3
      8     12     27     33     1  0.0000000  0.6508444  3
      9      8     12     27     1  180.0000771  2.0083200  2
      9      8     12     27     1  0.0000000  1.2552000  3
      9     30     34     40     1  180.0000771  0.0000000  2
      9     30     34     89     1  0.0000000  0.2928800  2
      9     30     34     89     1  0.0000000  0.4184000  4
     12      8      9     30     1  180.0000771  2.0083200  2
     12      8      9     30     1  0.0000000  1.2552000  3
     12     27     33     37     1  180.0000771  0.0000000  2
     12     27     33     64     1  0.0000000  0.2928800  2
     12     27     33     64     1  0.0000000  0.4184000  4
     15      7     18     24     1  180.0000771  2.0083200  2
     15      7     18     24     1  0.0000000  1.2552000  3
     15     21     35     38     1  180.0000771  0.0000000  2
     15     21     35    114     1  0.0000000  0.2928800  2
     15     21     35    114     1  0.0000000  0.4184000  4
     18      7     15     21     1  180.0000771  2.0083200  2
     18      7     15     21     1  0.0000000  1.2552000  3
     18     24     36     39     1  180.0000771  0.0000000  2
     18     24     36    139     1  0.0000000  0.2928800  2
     18     24     36    139     1  0.0000000  0.4184000  4
     21     35    114     94     1  180.0000771  6.2760000  1
     21     35    114     94     1  0.0000000  0.0000000  2
     24     36    139    119     1  180.0000771  6.2760000  1
     24     36    139    119     1  0.0000000  0.0000000  2
     27     33     64     44     1  180.0000771  6.2760000  1
     27     33     64     44     1  0.0000000  0.0000000  2
     30     34     89     69     1  180.0000771  6.2760000  1
     30     34     89     69     1  0.0000000  0.0000000  2
     33     64     44     41     1  0.0000000  2.2175200  1
     33     64     44     41     1  0.0000000  0.0000000  2
     33     64     44     41     1  180.0000771  0.6276000  3
     33     64     44     41     1  180.0000771  2.0920000  4
     34     89     69     66     1  0.0000000  2.2175200  1
     34     89     69     66     1  0.0000000  0.0000000  2
     34     89     69     66     1  180.0000771  0.6276000  3
     34     89     69     66     1  180.0000771  2.0920000  4
     35    114     94     91     1  0.0000000  2.2175200  1
     35    114     94     91     1  0.0000000  0.0000000  2
     35    114     94     91     1  180.0000771  0.6276000  3
     35    114     94     91     1  180.0000771  2.0920000  4
     36    139    119    116     1  0.0000000  2.2175200  1
     36    139    119    116     1  0.0000000  0.0000000  2
     36    139    119    116     1  180.0000771  0.6276000  3
     36    139    119    116     1  180.0000771  2.0920000  4
     37     33     64     44     1  180.0000771  10.4600000  2
     38     35    114     94     1  180.0000771  10.4600000  2
     39     36    139    119     1  180.0000771  10.4600000  2
     40     34     89     69     1  180.0000771  10.4600000  2
     41     47     48     57     1  180.0000771  2.0083200  2
     41     47     48     57     1  0.0000000  1.2552000  3
     41     47     51     54     1  180.0000771  2.0083200  2
     41     47     51     54     1  0.0000000  1.2552000  3
     44     41     47     48     1  180.0000771  2.0083200  2
     44     41     47     48     1  0.0000000  1.2552000  3
     44     41     47     51     1  180.0000771  2.0083200  2
     44     41     47     51     1  0.0000000  1.2552000  3
     47     41     44     64     1  0.0000000  0.6508444  3
     47     48     57     61     1  0.0000000  0.6508444  3
     47     51     54     60     1  0.0000000  0.6508444  3
     48     47     51     54     1  180.0000771  2.0083200  2
     48     47     51     54     1  0.0000000  1.2552000  3
     48     57     61     63     1  180.0000771  0.0000000  2
     48     57     61    189     1  0.0000000  0.2928800  2
     48     57     61    189     1  0.0000000  0.4184000  4
     51     47     48     57     1  180.0000771  2.0083200  2
     51     47     48     57     1  0.0000000  1.2552000  3
     51     54     60     62     1  180.0000771  0.0000000  2
     51     54     60    164     1  0.0000000  0.2928800  2
     51     54     60    164     1  0.0000000  0.4184000  4
     54     60    164    144     1  180.0000771  6.2760000  1
     54     60    164    144     1  0.0000000  0.0000000  2
     57     61    189    169     1  180.0000771  6.2760000  1
     57     61    189    169     1  0.0000000  0.0000000  2
     60    164    144    141     1  0.0000000  2.2175200  1
     60    164    144    141     1  0.0000000  0.0000000  2
     60    164    144    141     1  180.0000771  0.6276000  3
     60    164    144    141     1  180.0000771  2.0920000  4
     61    189    169    166     1  0.0000000  2.2175200  1
     61    189    169    166     1  0.0000000  0.0000000  2
     61    189    169    166     1  180.0000771  0.6276000  3
     61    189    169    166     1  180.0000771  2.0920000  4
     62     60    164    144     1  180.0000771  10.4600000  2
     63     61    189    169     1  180.0000771  10.4600000  2
     66     72     73     82     1  180.0000771  2.0083200  2
     66     72     73     82     1  0.0000000  1.2552000  3
     66     72     76     79     1  180.0000771  2.0083200  2
     66     72     76     79     1  0.0000000  1.2552000  3
     69     66     72     73     1  180.0000771  2.0083200  2
     69     66     72     73     1  0.0000000  1.2552000  3
     69     66     72     76     1  180.0000771  2.0083200  2
     69     66     72     76     1  0.0000000  1.2552000  3
     72     66     69     89     1  0.0000000  0.6508444  3
     72     73     82     86     1  0.0000000  0.6508444  3
     72     76     79     85     1  0.0000000  0.6508444  3
     73     72     76     79     1  180.0000771  2.0083200  2
     73     72     76     79     1  0.0000000  1.2552000  3
     73     82     86     88     1  180.0000771  0.0000000  2
     73     82     86    239     1  0.0000000  0.2928800  2
     73     82     86    239     1  0.0000000  0.4184000  4
     76     72     73     82     1  180.0000771  2.0083200  2
     76     72     73     82     1  0.0000000  1.2552000  3
     76     79     85     87     1  180.0000771  0.0000000  2
     76     79     85    214     1  0.0000000  0.2928800  2
     76     79     85    214     1  0.0000000  0.4184000  4
     79     85    214    194     1  180.0000771  6.2760000  1
     79     85    214    194     1  0.0000000  0.0000000  2
     82     86    239    219     1  180.0000771  6.2760000  1
     82     86    239    219     1  0.0000000  0.0000000  2
     85    214    194    191     1  0.0000000  2.2175200  1
     85    214    194    191     1  0.0000000  0.0000000  2
     85    214    194    191     1  180.0000771  0.6276000  3
     85    214    194    191     1  180.0000771  2.0920000  4
     86    239    219    216     1  0.0000000  2.2175200  1
     86    239    219    216     1  0.0000000  0.0000000  2
     86    239    219    216     1  180.0000771  0.6276000  3
     86    239    219    216     1  180.0000771  2.0920000  4
     87     85    214    194     1  180.0000771  10.4600000  2
     88     86    239    219     1  180.0000771  10.4600000  2
     91     97     98    107     1  180.0000771  2.0083200  2
     91     97     98    107     1  0.0000000  1.2552000  3
     91     97    101    104     1  180.0000771  2.0083200  2
     91     97    101    104     1  0.0000000  1.2552000  3
     94     91     97     98     1  180.0000771  2.0083200  2
     94     91     97     98     1  0.0000000  1.2552000  3
     94     91     97    101     1  180.0000771  2.0083200  2
     94     91     97    101     1  0.0000000  1.2552000  3
     97     91     94    114     1  0.0000000  0.6508444  3
     97     98    107    111     1  0.0000000  0.6508444  3
     97    101    104    110     1  0.0000000  0.6508444  3
     98     97    101    104     1  180.0000771  2.0083200  2
     98     97    101    104     1  0.0000000  1.2552000  3
     98    107    111    113     1  180.0000771  0.0000000  2
     98    107    111    289     1  0.0000000  0.2928800  2
     98    107    111    289     1  0.0000000  0.4184000  4
    101     97     98    107     1  180.0000771  2.0083200  2
    101     97     98    107     1  0.0000000  1.2552000  3
    101    104    110    112     1  180.0000771  0.0000000  2
    101    104    110    264     1  0.0000000  0.2928800  2
    101    104    110    264     1  0.0000000  0.4184000  4
    104    110    264    244     1  180.0000771  6.2760000  1
    104    110    264    244     1  0.0000000  0.0000000  2
    107    111    289    269     1  180.0000771  6.2760000  1
    107    111    289    269     1  0.0000000  0.0000000  2
    110    264    244    241     1  0.0000000  2.2175200  1
    110    264    244    241     1  0.0000000  0.0000000  2
    110    264    244    241     1  180.0000771  0.6276000  3
    110    264    244    241     1  180.0000771  2.0920000  4
    111    289    269    266     1  0.0000000  2.2175200  1
    111    289    269    266     1  0.0000000  0.0000000  2
    111    289    269    266     1  180.0000771  0.6276000  3
    111    289    269    266     1  180.0000771  2.0920000  4
    112    110    264    244     1  180.0000771  10.4600000  2
    113    111    289    269     1  180.0000771  10.4600000  2
    116    122    123    132     1  180.0000771  2.0083200  2
    116    122    123    132     1  0.0000000  1.2552000  3
    116    122    126    129     1  180.0000771  2.0083200  2
    116    122    126    129     1  0.0000000  1.2552000  3
    119    116    122    123     1  180.0000771  2.0083200  2
    119    116    122    123     1  0.0000000  1.2552000  3
    119    116    122    126     1  180.0000771  2.0083200  2
    119    116    122    126     1  0.0000000  1.2552000  3
    122    116    119    139     1  0.0000000  0.6508444  3
    122    123    132    136     1  0.0000000  0.6508444  3
    122    126    129    135     1  0.0000000  0.6508444  3
    123    122    126    129     1  180.0000771  2.0083200  2
    123    122    126    129     1  0.0000000  1.2552000  3
    123    132    136    138     1  180.0000771  0.0000000  2
    123    132    136    339     1  0.0000000  0.2928800  2
    123    132    136    339     1  0.0000000  0.4184000  4
    126    122    123    132     1  180.0000771  2.0083200  2
    126    122    123    132     1  0.0000000  1.2552000  3
    126    129    135    137     1  180.0000771  0.0000000  2
    126    129    135    314     1  0.0000000  0.2928800  2
    126    129    135    314     1  0.0000000  0.4184000  4
    129    135    314    294     1  180.0000771  6.2760000  1
    129    135    314    294     1  0.0000000  0.0000000  2
    132    136    339    319     1  180.0000771  6.2760000  1
    132    136    339    319     1  0.0000000  0.0000000  2
    135    314    294    291     1  0.0000000  2.2175200  1
    135    314    294    291     1  0.0000000  0.0000000  2
    135    314    294    291     1  180.0000771  0.6276000  3
    135    314    294    291     1  180.0000771  2.0920000  4
    136    339    319    316     1  0.0000000  2.2175200  1
    136    339    319    316     1  0.0000000  0.0000000  2
    136    339    319    316     1  180.0000771  0.6276000  3
    136    339    319    316     1  180.0000771  2.0920000  4
    137    135    314    294     1  180.0000771  10.4600000  2
    138    136    339    319     1  180.0000771  10.4600000  2
    141    147    148    157     1  180.0000771  2.0083200  2
    141    147    148    157     1  0.0000000  1.2552000  3
    141    147    151    154     1  180.0000771  2.0083200  2
    141    147    151    154     1  0.0000000  1.2552000  3
    144    141    147    148     1  180.0000771  2.0083200  2
    144    141    147    148     1  0.0000000  1.2552000  3
    144    141    147    151     1  180.0000771  2.0083200  2
    144    141    147    151     1  0.0000000  1.2552000  3
    147    141    144    164     1  0.0000000  0.6508444  3
    147    148    157    161     1  0.0000000  0.6508444  3
    147    151    154    160     1  0.0000000  0.6508444  3
    148    147    151    154     1  180.0000771  2.0083200  2
    148    147    151    154     1  0.0000000  1.2552000  3
    148    157    161    163     1  180.0000771  0.0000000  2
    148    157    161    370     1  0.0000000  0.2928800  2
    148    157    161    370     1  0.0000000  0.4184000  4
    151    147    148    157     1  180.0000771  2.0083200  2
    151    147    148    157     1  0.0000000  1.2552000  3
    151    154    160    341     1  0.0000000  0.2928800  2
    151    154    160    341     1  0.0000000  0.4184000  4
    151    154    160    162     1  180.0000771  0.0000000  2
    154    160    341    343     1  180.0000771  6.2760000  1
    154    160    341    343     1  0.0000000  0.0000000  2
    157    161    370    372     1  180.0000771  6.2760000  1
    157    161    370    372     1  0.0000000  0.0000000  2
    160    341    343    345     1  0.0000000  2.2175200  1
    160    341    343    345     1  0.0000000  0.0000000  2
    160    341    343    345     1  180.0000771  0.6276000  3
    160    341    343    345     1  180.0000771  2.0920000  4
    161    370    372    374     1  0.0000000  2.2175200  1
    161    370    372    374     1  0.0000000  0.0000000  2
    161    370    372    374     1  180.0000771  0.6276000  3
    161    370    372    374     1  180.0000771  2.0920000  4
    162    160    341    343     1  180.0000771  10.4600000  2
    163    161    370    372     1  180.0000771  10.4600000  2
    166    172    173    182     1  180.0000771  2.0083200  2
    166    172    173    182     1  0.0000000  1.2552000  3
    166    172    176    179     1  180.0000771  2.0083200  2
    166    172    176    179     1  0.0000000  1.2552000  3
    169    166    172    173     1  180.0000771  2.0083200  2
    169    166    172    173     1  0.0000000  1.2552000  3
    169    166    172    176     1  180.0000771  2.0083200  2
    169    166    172    176     1  0.0000000  1.2552000  3
    172    166    169    189     1  0.0000000  0.6508444  3
    172    173    182    186     1  0.0000000  0.6508444  3
    172    176    179    185     1  0.0000000  0.6508444  3
    173    172    176    179     1  180.0000771  2.0083200  2
    173    172    176    179     1  0.0000000  1.2552000  3
    173    182    186    188     1  180.0000771  0.0000000  2
    173    182    186    428     1  0.0000000  0.2928800  2
    173    182    186    428     1  0.0000000  0.4184000  4
    176    172    173    182     1  180.0000771  2.0083200  2
    176    172    173    182     1  0.0000000  1.2552000  3
    176    179    185    399     1  0.0000000  0.2928800  2
    176    179    185    399     1  0.0000000  0.4184000  4
    176    179    185    187     1  180.0000771  0.0000000  2
    179    185    399    401     1  180.0000771  6.2760000  1
    179    185    399    401     1  0.0000000  0.0000000  2
    182    186    428    430     1  180.0000771  6.2760000  1
    182    186    428    430     1  0.0000000  0.0000000  2
    185    399    401    403     1  0.0000000  2.2175200  1
    185    399    401    403     1  0.0000000  0.0000000  2
    185    399    401    403     1  180.0000771  0.6276000  3
    185    399    401    403     1  180.0000771  2.0920000  4
    186    428    430    432     1  0.0000000  2.2175200  1
    186    428    430    432     1  0.0000000  0.0000000  2
    186    428    430    432     1  180.0000771  0.6276000  3
    186    428    430    432     1  180.0000771  2.0920000  4
    187    185    399    401     1  180.0000771  10.4600000  2
    188    186    428    430     1  180.0000771  10.4600000  2
    191    197    198    207     1  180.0000771  2.0083200  2
    191    197    198    207     1  0.0000000  1.2552000  3
    191    197    201    204     1  180.0000771  2.0083200  2
    191    197    201    204     1  0.0000000  1.2552000  3
    194    191    197    198     1  180.0000771  2.0083200  2
    194    191    197    198     1  0.0000000  1.2552000  3
    194    191    197    201     1  180.0000771  2.0083200  2
    194    191    197    201     1  0.0000000  1.2552000  3
    197    191    194    214     1  0.0000000  0.6508444  3
    197    198    207    211     1  0.0000000  0.6508444  3
    197    201    204    210     1  0.0000000  0.6508444  3
    198    197    201    204     1  180.0000771  2.0083200  2
    198    197    201    204     1  0.0000000  1.2552000  3
    198    207    211    213     1  180.0000771  0.0000000  2
    198    207    211    486     1  0.0000000  0.2928800  2
    198    207    211    486     1  0.0000000  0.4184000  4
    201    197    198    207     1  180.0000771  2.0083200  2
    201    197    198    207     1  0.0000000  1.2552000  3
    201    204    210    457     1  0.0000000  0.2928800  2
    201    204    210    457     1  0.0000000  0.4184000  4
    201    204    210    212     1  180.0000771  0.0000000  2
    204    210    457    459     1  180.0000771  6.2760000  1
    204    210    457    459     1  0.0000000  0.0000000  2
    207    211    486    488     1  180.0000771  6.2760000  1
    207    211    486    488     1  0.0000000  0.0000000  2
    210    457    459    461     1  0.0000000  2.2175200  1
    210    457    459    461     1  0.0000000  0.0000000  2
    210    457    459    461     1  180.0000771  0.6276000  3
    210    457    459    461     1  180.0000771  2.0920000  4
    211    486    488    490     1  0.0000000  2.2175200  1
    211    486    488    490     1  0.0000000  0.0000000  2
    211    486    488    490     1  180.0000771  0.6276000  3
    211    486    488    490     1  180.0000771  2.0920000  4
    212    210    457    459     1  180.0000771  10.4600000  2
    213    211    486    488     1  180.0000771  10.4600000  2
    216    222    223    232     1  180.0000771  2.0083200  2
    216    222    223    232     1  0.0000000  1.2552000  3
    216    222    226    229     1  180.0000771  2.0083200  2
    216    222    226    229     1  0.0000000  1.2552000  3
    219    216    222    223     1  180.0000771  2.0083200  2
    219    216    222    223     1  0.0000000  1.2552000  3
    219    216    222    226     1  180.0000771  2.0083200  2
    219    216    222    226     1  0.0000000  1.2552000  3
    222    216    219    239     1  0.0000000  0.6508444  3
    222    223    232    236     1  0.0000000  0.6508444  3
    222    226    229    235     1  0.0000000  0.6508444  3
    223    222    226    229     1  180.0000771  2.0083200  2
    223    222    226    229     1  0.0000000  1.2552000  3
    223    232    236    238     1  180.0000771  0.0000000  2
    223    232    236    544     1  0.0000000  0.2928800  2
    223    232    236    544     1  0.0000000  0.4184000  4
    226    222    223    232     1  180.0000771  2.0083200  2
    226    222    223    232     1  0.0000000  1.2552000  3
    226    229    235    515     1  0.0000000  0.2928800  2
    226    229    235    515     1  0.0000000  0.4184000  4
    226    229    235    237     1  180.0000771  0.0000000  2
    229    235    515    517     1  180.0000771  6.2760000  1
    229    235    515    517     1  0.0000000  0.0000000  2
    232    236    544    546     1  180.0000771  6.2760000  1
    232    236    544    546     1  0.0000000  0.0000000  2
    235    515    517    519     1  0.0000000  2.2175200  1
    235    515    517    519     1  0.0000000  0.0000000  2
    235    515    517    519     1  180.0000771  0.6276000  3
    235    515    517    519     1  180.0000771  2.0920000  4
    236    544    546    548     1  0.0000000  2.2175200  1
    236    544    546    548     1  0.0000000  0.0000000  2
    236    544    546    548     1  180.0000771  0.6276000  3
    236    544    546    548     1  180.0000771  2.0920000  4
    237    235    515    517     1  180.0000771  10.4600000  2
    238    236    544    546     1  180.0000771  10.4600000  2
    241    247    248    257     1  180.0000771  2.0083200  2
    241    247    248    257     1  0.0000000  1.2552000  3
    241    247    251    254     1  180.0000771  2.0083200  2
    241    247    251    254     1  0.0000000  1.2552000  3
    244    241    247    248     1  180.0000771  2.0083200  2
    244    241    247    248     1  0.0000000  1.2552000  3
    244    241    247    251     1  180.0000771  2.0083200  2
    244    241    247    251     1  0.0000000  1.2552000  3
    247    241    244    264     1  0.0000000  0.6508444  3
    247    248    257    261     1  0.0000000  0.6508444  3
    247    251    254    260     1  0.0000000  0.6508444  3
    248    247    251    254     1  180.0000771  2.0083200  2
    248    247    251    254     1  0.0000000  1.2552000  3
    248    257    261    263     1  180.0000771  0.0000000  2
    248    257    261    602     1  0.0000000  0.2928800  2
    248    257    261    602     1  0.0000000  0.4184000  4
    251    247    248    257     1  180.0000771  2.0083200  2
    251    247    248    257     1  0.0000000  1.2552000  3
    251    254    260    573     1  0.0000000  0.2928800  2
    251    254    260    573     1  0.0000000  0.4184000  4
    251    254    260    262     1  180.0000771  0.0000000  2
    254    260    573    575     1  180.0000771  6.2760000  1
    254    260    573    575     1  0.0000000  0.0000000  2
    257    261    602    604     1  180.0000771  6.2760000  1
    257    261    602    604     1  0.0000000  0.0000000  2
    260    573    575    577     1  0.0000000  2.2175200  1
    260    573    575    577     1  0.0000000  0.0000000  2
    260    573    575    577     1  180.0000771  0.6276000  3
    260    573    575    577     1  180.0000771  2.0920000  4
    261    602    604    606     1  0.0000000  2.2175200  1
    261    602    604    606     1  0.0000000  0.0000000  2
    261    602    604    606     1  180.0000771  0.6276000  3
    261    602    604    606     1  180.0000771  2.0920000  4
    262    260    573    575     1  180.0000771  10.4600000  2
    263    261    602    604     1  180.0000771  10.4600000  2
    266    272    273    282     1  180.0000771  2.0083200  2
    266    272    273    282     1  0.0000000  1.2552000  3
    266    272    276    279     1  180.0000771  2.0083200  2
    266    272    276    279     1  0.0000000  1.2552000  3
    269    266    272    273     1  180.0000771  2.0083200  2
    269    266    272    273     1  0.0000000  1.2552000  3
    269    266    272    276     1  180.0000771  2.0083200  2
    269    266    272    276     1  0.0000000  1.2552000  3
    272    266    269    289     1  0.0000000  0.6508444  3
    272    273    282    286     1  0.0000000  0.6508444  3
    272    276    279    285     1  0.0000000  0.6508444  3
    273    272    276    279     1  180.0000771  2.0083200  2
    273    272    276    279     1  0.0000000  1.2552000  3
    273    282    286    288     1  180.0000771  0.0000000  2
    273    282    286    660     1  0.0000000  0.2928800  2
    273    282    286    660     1  0.0000000  0.4184000  4
    276    272    273    282     1  180.0000771  2.0083200  2
    276    272    273    282     1  0.0000000  1.2552000  3
    276    279    285    631     1  0.0000000  0.2928800  2
    276    279    285    631     1  0.0000000  0.4184000  4
    276    279    285    287     1  180.0000771  0.0000000  2
    279    285    631    633     1  180.0000771  6.2760000  1
    279    285    631    633     1  0.0000000  0.0000000  2
    282    286    660    662     1  180.0000771  6.2760000  1
    282    286    660    662     1  0.0000000  0.0000000  2
    285    631    633    635     1  0.0000000  2.2175200  1
    285    631    633    635     1  0.0000000  0.0000000  2
    285    631    633    635     1  180.0000771  0.6276000  3
    285    631    633    635     1  180.0000771  2.0920000  4
    286    660    662    664     1  0.0000000  2.2175200  1
    286    660    662    664     1  0.0000000  0.0000000  2
    286    660    662    664     1  180.0000771  0.6276000  3
    286    660    662    664     1  180.0000771  2.0920000  4
    287    285    631    633     1  180.0000771  10.4600000  2
    288    286    660    662     1  180.0000771  10.4600000  2
    291    297    298    307     1  180.0000771  2.0083200  2
    291    297    298    307     1  0.0000000  1.2552000  3
    291    297    301    304     1  180.0000771  2.0083200  2
    291    297    301    304     1  0.0000000  1.2552000  3
    294    291    297    298     1  180.0000771  2.0083200  2
    294    291    297    298     1  0.0000000  1.2552000  3
    294    291    297    301     1  180.0000771  2.0083200  2
    294    291    297    301     1  0.0000000  1.2552000  3
    297    291    294    314     1  0.0000000  0.6508444  3
    297    298    307    311     1  0.0000000  0.6508444  3
    297    301    304    310     1  0.0000000  0.6508444  3
    298    297    301    304     1  180.0000771  2.0083200  2
    298    297    301    304     1  0.0000000  1.2552000  3
    298    307    311    313     1  180.0000771  0.0000000  2
    298    307    311    718     1  0.0000000  0.2928800  2
    298    307    311    718     1  0.0000000  0.4184000  4
    301    297    298    307     1  180.0000771  2.0083200  2
    301    297    298    307     1  0.0000000  1.2552000  3
    301    304    310    689     1  0.0000000  0.2928800  2
    301    304    310    689     1  0.0000000  0.4184000  4
    301    304    310    312     1  180.0000771  0.0000000  2
    304    310    689    691     1  180.0000771  6.2760000  1
    304    310    689    691     1  0.0000000  0.0000000  2
    307    311    718    720     1  180.0000771  6.2760000  1
    307    311    718    720     1  0.0000000  0.0000000  2
    310    689    691    693     1  0.0000000  2.2175200  1
    310    689    691    693     1  0.0000000  0.0000000  2
    310    689    691    693     1  180.0000771  0.6276000  3
    310    689    691    693     1  180.0000771  2.0920000  4
    311    718    720    722     1  0.0000000  2.2175200  1
    311    718    720    722     1  0.0000000  0.0000000  2
    311    718    720    722     1  180.0000771  0.6276000  3
    311    718    720    722     1  180.0000771  2.0920000  4
    312    310    689    691     1  180.0000771  10.4600000  2
    313    311    718    720     1  180.0000771  10.4600000  2
    316    322    323    332     1  180.0000771  2.0083200  2
    316    322    323    332     1  0.0000000  1.2552000  3
    316    322    326    329     1  180.0000771  2.0083200  2
    316    322    326    329     1  0.0000000  1.2552000  3
    319    316    322    323     1  180.0000771  2.0083200  2
    319    316    322    323     1  0.0000000  1.2552000  3
    319    316    322    326     1  180.0000771  2.0083200  2
    319    316    322    326     1  0.0000000  1.2552000  3
    322    316    319    339     1  0.0000000  0.6508444  3
    322    323    332    336     1  0.0000000  0.6508444  3
    322    326    329    335     1  0.0000000  0.6508444  3
    323    322    326    329     1  180.0000771  2.0083200  2
    323    322    326    329     1  0.0000000  1.2552000  3
    323    332    336    776     1  0.0000000  0.2928800  2
    323    332    336    776     1  0.0000000  0.4184000  4
    323    332    336    338     1  180.0000771  0.0000000  2
    326    322    323    332     1  180.0000771  2.0083200  2
    326    322    323    332     1  0.0000000  1.2552000  3
    326    329    335    747     1  0.0000000  0.2928800  2
    326    329    335    747     1  0.0000000  0.4184000  4
    326    329    335    337     1  180.0000771  0.0000000  2
    329    335    747    749     1  180.0000771  6.2760000  1
    329    335    747    749     1  0.0000000  0.0000000  2
    332    336    776    778     1  180.0000771  6.2760000  1
    332    336    776    778     1  0.0000000  0.0000000  2
    335    747    749    751     1  0.0000000  2.2175200  1
    335    747    749    751     1  0.0000000  0.0000000  2
    335    747    749    751     1  180.0000771  0.6276000  3
    335    747    749    751     1  180.0000771  2.0920000  4
    336    776    778    780     1  0.0000000  2.2175200  1
    336    776    778    780     1  0.0000000  0.0000000  2
    336    776    778    780     1  180.0000771  0.6276000  3
    336    776    778    780     1  180.0000771  2.0920000  4
    337    335    747    749     1  180.0000771  10.4600000  2
    338    336    776    778     1  180.0000771  10.4600000  2
    341    343    345    349     1  0.0000000  0.6508444  3
    343    345    349    350     1  180.0000771  2.0083200  2
    343    345    349    350     1  0.0000000  1.2552000  3
    343    345    349    351     1  180.0000771  2.0083200  2
    343    345    349    351     1  0.0000000  1.2552000  3
    345    349    350    362     1  180.0000771  2.0083200  2
    345    349    350    362     1  0.0000000  1.2552000  3
    345    349    351    353     1  180.0000771  2.0083200  2
    345    349    351    353     1  0.0000000  1.2552000  3
    349    350    362    365     1  0.0000000  0.6508444  3
    349    351    353    357     1  0.0000000  0.6508444  3
    350    349    351    353     1  180.0000771  2.0083200  2
    350    349    351    353     1  0.0000000  1.2552000  3
    350    362    365    366     1  180.0000771  0.0000000  2
    350    362    365    367     1  180.0000771  0.0000000  2
    351    349    350    362     1  180.0000771  2.0083200  2
    351    349    350    362     1  0.0000000  1.2552000  3
    351    353    357    358     1  180.0000771  0.0000000  2
    351    353    357    359     1  180.0000771  0.0000000  2
    370    372    374    378     1  0.0000000  0.6508444  3
    372    374    378    379     1  180.0000771  2.0083200  2
    372    374    378    379     1  0.0000000  1.2552000  3
    372    374    378    380     1  180.0000771  2.0083200  2
    372    374    378    380     1  0.0000000  1.2552000  3
    374    378    379    391     1  180.0000771  2.0083200  2
    374    378    379    391     1  0.0000000  1.2552000  3
    374    378    380    382     1  180.0000771  2.0083200  2
    374    378    380    382     1  0.0000000  1.2552000  3
    378    379    391    394     1  0.0000000  0.6508444  3
    378    380    382    386     1  0.0000000  0.6508444  3
    379    391    394    395     1  180.0000771  0.0000000  2
    379    391    394    396     1  180.0000771  0.0000000  2
    379    378    380    382     1  180.0000771  2.0083200  2
    379    378    380    382     1  0.0000000  1.2552000  3
    380    382    386    387     1  180.0000771  0.0000000  2
    380    382    386    388     1  180.0000771  0.0000000  2
    380    378    379    391     1  180.0000771  2.0083200  2
    380    378    379    391     1  0.0000000  1.2552000  3
    399    401    403    407     1  0.0000000  0.6508444  3
    401    403    407    408     1  180.0000771  2.0083200  2
    401    403    407    408     1  0.0000000  1.2552000  3
    401    403    407    409     1  180.0000771  2.0083200  2
    401    403    407    409     1  0.0000000  1.2552000  3
    403    407    408    420     1  180.0000771  2.0083200  2
    403    407    408    420     1  0.0000000  1.2552000  3
    403    407    409    411     1  180.0000771  2.0083200  2
    403    407    409    411     1  0.0000000  1.2552000  3
    407    408    420    423     1  0.0000000  0.6508444  3
    407    409    411    415     1  0.0000000  0.6508444  3
    408    407    409    411     1  180.0000771  2.0083200  2
    408    407    409    411     1  0.0000000  1.2552000  3
    408    420    423    424     1  180.0000771  0.0000000  2
    408    420    423    425     1  180.0000771  0.0000000  2
    409    407    408    420     1  180.0000771  2.0083200  2
    409    407    408    420     1  0.0000000  1.2552000  3
    409    411    415    416     1  180.0000771  0.0000000  2
    409    411    415    417     1  180.0000771  0.0000000  2
    428    430    432    436     1  0.0000000  0.6508444  3
    430    432    436    437     1  180.0000771  2.0083200  2
    430    432    436    437     1  0.0000000  1.2552000  3
    430    432    436    438     1  180.0000771  2.0083200  2
    430    432    436    438     1  0.0000000  1.2552000  3
    432    436    437    449     1  180.0000771  2.0083200  2
    432    436    437    449     1  0.0000000  1.2552000  3
    432    436    438    440     1  180.0000771  2.0083200  2
    432    436    438    440     1  0.0000000  1.2552000  3
    436    437    449    452     1  0.0000000  0.6508444  3
    436    438    440    444     1  0.0000000  0.6508444  3
    437    449    452    453     1  180.0000771  0.0000000  2
    437    449    452    454     1  180.0000771  0.0000000  2
    437    436    438    440     1  180.0000771  2.0083200  2
    437    436    438    440     1  0.0000000  1.2552000  3
    438    440    444    445     1  180.0000771  0.0000000  2
    438    440    444    446     1  180.0000771  0.0000000  2
    438    436    437    449     1  180.0000771  2.0083200  2
    438    436    437    449     1  0.0000000  1.2552000  3
    457    459    461    465     1  0.0000000  0.6508444  3
    459    461    465    466     1  180.0000771  2.0083200  2
    459    461    465    466     1  0.0000000  1.2552000  3
    459    461    465    467     1  180.0000771  2.0083200  2
    459    461    465    467     1  0.0000000  1.2552000  3
    461    465    466    478     1  180.0000771  2.0083200  2
    461    465    466    478     1  0.0000000  1.2552000  3
    461    465    467    469     1  180.0000771  2.0083200  2
    461    465    467    469     1  0.0000000  1.2552000  3
    465    466    478    481     1  0.0000000  0.6508444  3
    465    467    469    473     1  0.0000000  0.6508444  3
    466    465    467    469     1  180.0000771  2.0083200  2
    466    465    467    469     1  0.0000000  1.2552000  3
    466    478    481    482     1  180.0000771  0.0000000  2
    466    478    481    483     1  180.0000771  0.0000000  2
    467    465    466    478     1  180.0000771  2.0083200  2
    467    465    466    478     1  0.0000000  1.2552000  3
    467    469    473    474     1  180.0000771  0.0000000  2
    467    469    473    475     1  180.0000771  0.0000000  2
    486    488    490    494     1  0.0000000  0.6508444  3
    488    490    494    495     1  180.0000771  2.0083200  2
    488    490    494    495     1  0.0000000  1.2552000  3
    488    490    494    496     1  180.0000771  2.0083200  2
    488    490    494    496     1  0.0000000  1.2552000  3
    490    494    495    507     1  180.0000771  2.0083200  2
    490    494    495    507     1  0.0000000  1.2552000  3
    490    494    496    498     1  180.0000771  2.0083200  2
    490    494    496    498     1  0.0000000  1.2552000  3
    494    495    507    510     1  0.0000000  0.6508444  3
    494    496    498    502     1  0.0000000  0.6508444  3
    495    507    510    511     1  180.0000771  0.0000000  2
    495    507    510    512     1  180.0000771  0.0000000  2
    495    494    496    498     1  180.0000771  2.0083200  2
    495    494    496    498     1  0.0000000  1.2552000  3
    496    498    502    503     1  180.0000771  0.0000000  2
    496    498    502    504     1  180.0000771  0.0000000  2
    496    494    495    507     1  180.0000771  2.0083200  2
    496    494    495    507     1  0.0000000  1.2552000  3
    515    517    519    523     1  0.0000000  0.6508444  3
    517    519    523    524     1  180.0000771  2.0083200  2
    517    519    523    524     1  0.0000000  1.2552000  3
    517    519    523    525     1  180.0000771  2.0083200  2
    517    519    523    525     1  0.0000000  1.2552000  3
    519    523    524    536     1  180.0000771  2.0083200  2
    519    523    524    536     1  0.0000000  1.2552000  3
    519    523    525    527     1  180.0000771  2.0083200  2
    519    523    525    527     1  0.0000000  1.2552000  3
    523    524    536    539     1  0.0000000  0.6508444  3
    523    525    527    531     1  0.0000000  0.6508444  3
    524    523    525    527     1  180.0000771  2.0083200  2
    524    523    525    527     1  0.0000000  1.2552000  3
    524    536    539    540     1  180.0000771  0.0000000  2
    524    536    539    541     1  180.0000771  0.0000000  2
    525    523    524    536     1  180.0000771  2.0083200  2
    525    523    524    536     1  0.0000000  1.2552000  3
    525    527    531    532     1  180.0000771  0.0000000  2
    525    527    531    533     1  180.0000771  0.0000000  2
    544    546    548    552     1  0.0000000  0.6508444  3
    546    548    552    553     1  180.0000771  2.0083200  2
    546    548    552    553     1  0.0000000  1.2552000  3
    546    548    552    554     1  180.0000771  2.0083200  2
    546    548    552    554     1  0.0000000  1.2552000  3
    548    552    553    565     1  180.0000771  2.0083200  2
    548    552    553    565     1  0.0000000  1.2552000  3
    548    552    554    556     1  180.0000771  2.0083200  2
    548    552    554    556     1  0.0000000  1.2552000  3
    552    553    565    568     1  0.0000000  0.6508444  3
    552    554    556    560     1  0.0000000  0.6508444  3
    553    565    568    569     1  180.0000771  0.0000000  2
    553    565    568    570     1  180.0000771  0.0000000  2
    553    552    554    556     1  180.0000771  2.0083200  2
    553    552    554    556     1  0.0000000  1.2552000  3
    554    556    560    561     1  180.0000771  0.0000000  2
    554    556    560    562     1  180.0000771  0.0000000  2
    554    552    553    565     1  180.0000771  2.0083200  2
    554    552    553    565     1  0.0000000  1.2552000  3
    573    575    577    581     1  0.0000000  0.6508444  3
    575    577    581    582     1  180.0000771  2.0083200  2
    575    577    581    582     1  0.0000000  1.2552000  3
    575    577    581    583     1  180.0000771  2.0083200  2
    575    577    581    583     1  0.0000000  1.2552000  3
    577    581    582    594     1  180.0000771  2.0083200  2
    577    581    582    594     1  0.0000000  1.2552000  3
    577    581    583    585     1  180.0000771  2.0083200  2
    577    581    583    585     1  0.0000000  1.2552000  3
    581    582    594    597     1  0.0000000  0.6508444  3
    581    583    585    589     1  0.0000000  0.6508444  3
    582    581    583    585     1  180.0000771  2.0083200  2
    582    581    583    585     1  0.0000000  1.2552000  3
    582    594    597    598     1  180.0000771  0.0000000  2
    582    594    597    599     1  180.0000771  0.0000000  2
    583    581    582    594     1  180.0000771  2.0083200  2
    583    581    582    594     1  0.0000000  1.2552000  3
    583    585    589    590     1  180.0000771  0.0000000  2
    583    585    589    591     1  180.0000771  0.0000000  2
    602    604    606    610     1  0.0000000  0.6508444  3
    604    606    610    611     1  180.0000771  2.0083200  2
    604    606    610    611     1  0.0000000  1.2552000  3
    604    606    610    612     1  180.0000771  2.0083200  2
    604    606    610    612     1  0.0000000  1.2552000  3
    606    610    611    623     1  180.0000771  2.0083200  2
    606    610    611    623     1  0.0000000  1.2552000  3
    606    610    612    614     1  180.0000771  2.0083200  2
    606    610    612    614     1  0.0000000  1.2552000  3
    610    611    623    626     1  0.0000000  0.6508444  3
    610    612    614    618     1  0.0000000  0.6508444  3
    611    623    626    627     1  180.0000771  0.0000000  2
    611    623    626    628     1  180.0000771  0.0000000  2
    611    610    612    614     1  180.0000771  2.0083200  2
    611    610    612    614     1  0.0000000  1.2552000  3
    612    614    618    619     1  180.0000771  0.0000000  2
    612    614    618    620     1  180.0000771  0.0000000  2
    612    610    611    623     1  180.0000771  2.0083200  2
    612    610    611    623     1  0.0000000  1.2552000  3
    631    633    635    639     1  0.0000000  0.6508444  3
    633    635    639    640     1  180.0000771  2.0083200  2
    633    635    639    640     1  0.0000000  1.2552000  3
    633    635    639    641     1  180.0000771  2.0083200  2
    633    635    639    641     1  0.0000000  1.2552000  3
    635    639    640    652     1  180.0000771  2.0083200  2
    635    639    640    652     1  0.0000000  1.2552000  3
    635    639    641    643     1  180.0000771  2.0083200  2
    635    639    641    643     1  0.0000000  1.2552000  3
    639    640    652    655     1  0.0000000  0.6508444  3
    639    641    643    647     1  0.0000000  0.6508444  3
    640    639    641    643     1  180.0000771  2.0083200  2
    640    639    641    643     1  0.0000000  1.2552000  3
    640    652    655    656     1  180.0000771  0.0000000  2
    640    652    655    657     1  180.0000771  0.0000000  2
    641    639    640    652     1  180.0000771  2.0083200  2
    641    639    640    652     1  0.0000000  1.2552000  3
    641    643    647    648     1  180.0000771  0.0000000  2
    641    643    647    649     1  180.0000771  0.0000000  2
    660    662    664    668     1  0.0000000  0.6508444  3
    662    664    668    669     1  180.0000771  2.0083200  2
    662    664    668    669     1  0.0000000  1.2552000  3
    662    664    668    670     1  180.0000771  2.0083200  2
    662    664    668    670     1  0.0000000  1.2552000  3
    664    668    669    681     1  180.0000771  2.0083200  2
    664    668    669    681     1  0.0000000  1.2552000  3
    664    668    670    672     1  180.0000771  2.0083200  2
    664    668    670    672     1  0.0000000  1.2552000  3
    668    669    681    684     1  0.0000000  0.6508444  3
    668    670    672    676     1  0.0000000  0.6508444  3
    669    681    684    685     1  180.0000771  0.0000000  2
    669    681    684    686     1  180.0000771  0.0000000  2
    669    668    670    672     1  180.0000771  2.0083200  2
    669    668    670    672     1  0.0000000  1.2552000  3
    670    672    676    677     1  180.0000771  0.0000000  2
    670    672    676    678     1  180.0000771  0.0000000  2
    670    668    669    681     1  180.0000771  2.0083200  2
    670    668    669    681     1  0.0000000  1.2552000  3
    689    691    693    697     1  0.0000000  0.6508444  3
    691    693    697    698     1  180.0000771  2.0083200  2
    691    693    697    698     1  0.0000000  1.2552000  3
    691    693    697    699     1  180.0000771  2.0083200  2
    691    693    697    699     1  0.0000000  1.2552000  3
    693    697    698    710     1  180.0000771  2.0083200  2
    693    697    698    710     1  0.0000000  1.2552000  3
    693    697    699    701     1  180.0000771  2.0083200  2
    693    697    699    701     1  0.0000000  1.2552000  3
    697    698    710    713     1  0.0000000  0.6508444  3
    697    699    701    705     1  0.0000000  0.6508444  3
    698    697    699    701     1  180.0000771  2.0083200  2
    698    697    699    701     1  0.0000000  1.2552000  3
    698    710    713    714     1  180.0000771  0.0000000  2
    698    710    713    715     1  180.0000771  0.0000000  2
    699    697    698    710     1  180.0000771  2.0083200  2
    699    697    698    710     1  0.0000000  1.2552000  3
    699    701    705    706     1  180.0000771  0.0000000  2
    699    701    705    707     1  180.0000771  0.0000000  2
    718    720    722    726     1  0.0000000  0.6508444  3
    720    722    726    727     1  180.0000771  2.0083200  2
    720    722    726    727     1  0.0000000  1.2552000  3
    720    722    726    728     1  180.0000771  2.0083200  2
    720    722    726    728     1  0.0000000  1.2552000  3
    722    726    727    739     1  180.0000771  2.0083200  2
    722    726    727    739     1  0.0000000  1.2552000  3
    722    726    728    730     1  180.0000771  2.0083200  2
    722    726    728    730     1  0.0000000  1.2552000  3
    726    727    739    742     1  0.0000000  0.6508444  3
    726    728    730    734     1  0.0000000  0.6508444  3
    727    739    742    743     1  180.0000771  0.0000000  2
    727    739    742    744     1  180.0000771  0.0000000  2
    727    726    728    730     1  180.0000771  2.0083200  2
    727    726    728    730     1  0.0000000  1.2552000  3
    728    730    734    735     1  180.0000771  0.0000000  2
    728    730    734    736     1  180.0000771  0.0000000  2
    728    726    727    739     1  180.0000771  2.0083200  2
    728    726    727    739     1  0.0000000  1.2552000  3
    747    749    751    755     1  0.0000000  0.6508444  3
    749    751    755    756     1  180.0000771  2.0083200  2
    749    751    755    756     1  0.0000000  1.2552000  3
    749    751    755    757     1  180.0000771  2.0083200  2
    749    751    755    757     1  0.0000000  1.2552000  3
    751    755    756    768     1  180.0000771  2.0083200  2
    751    755    756    768     1  0.0000000  1.2552000  3
    751    755    757    759     1  180.0000771  2.0083200  2
    751    755    757    759     1  0.0000000  1.2552000  3
    755    756    768    771     1  0.0000000  0.6508444  3
    755    757    759    763     1  0.0000000  0.6508444  3
    756    755    757    759     1  180.0000771  2.0083200  2
    756    755    757    759     1  0.0000000  1.2552000  3
    756    768    771    772     1  180.0000771  0.0000000  2
    756    768    771    773     1  180.0000771  0.0000000  2
    757    755    756    768     1  180.0000771  2.0083200  2
    757    755    756    768     1  0.0000000  1.2552000  3
    757    759    763    764     1  180.0000771  0.0000000  2
    757    759    763    765     1  180.0000771  0.0000000  2
    776    778    780    784     1  0.0000000  0.6508444  3
    778    780    784    785     1  180.0000771  2.0083200  2
    778    780    784    785     1  0.0000000  1.2552000  3
    778    780    784    786     1  180.0000771  2.0083200  2
    778    780    784    786     1  0.0000000  1.2552000  3
    780    784    785    797     1  180.0000771  2.0083200  2
    780    784    785    797     1  0.0000000  1.2552000  3
    780    784    786    788     1  180.0000771  2.0083200  2
    780    784    786    788     1  0.0000000  1.2552000  3
    784    785    797    800     1  0.0000000  0.6508444  3
    784    786    788    792     1  0.0000000  0.6508444  3
    785    797    800    801     1  180.0000771  0.0000000  2
    785    797    800    802     1  180.0000771  0.0000000  2
    785    784    786    788     1  180.0000771  2.0083200  2
    785    784    786    788     1  0.0000000  1.2552000  3
    786    788    792    793     1  180.0000771  0.0000000  2
    786    788    792    794     1  180.0000771  0.0000000  2
    786    784    785    797     1  180.0000771  2.0083200  2
    786    784    785    797     1  0.0000000  1.2552000  3
     27     64     33     37     4  180.0000771  43.9320000  2
     30     89     34     40     4  180.0000771  43.9320000  2
     21    114     35     38     4  180.0000771  43.9320000  2
     24    139     36     39     4  180.0000771  43.9320000  2
     54    164     60     62     4  180.0000771  43.9320000  2
     57    189     61     63     4  180.0000771  43.9320000  2
     79    214     85     87     4  180.0000771  43.9320000  2
     82    239     86     88     4  180.0000771  43.9320000  2
    104    264    110    112     4  180.0000771  43.9320000  2
    107    289    111    113     4  180.0000771  43.9320000  2
    129    314    135    137     4  180.0000771  43.9320000  2
    132    339    136    138     4  180.0000771  43.9320000  2
    154    341    160    162     4  180.0000771  43.9320000  2
    157    370    161    163     4  180.0000771  43.9320000  2
    179    399    185    187     4  180.0000771  43.9320000  2
    182    428    186    188     4  180.0000771  43.9320000  2
    204    457    210    212     4  180.0000771  43.9320000  2
    207    486    211    213     4  180.0000771  43.9320000  2
    229    515    235    237     4  180.0000771  43.9320000  2
    232    544    236    238     4  180.0000771  43.9320000  2
    254    573    260    262     4  180.0000771  43.9320000  2
    257    602    261    263     4  180.0000771  43.9320000  2
    279    631    285    287     4  180.0000771  43.9320000  2
    282    660    286    288     4  180.0000771  43.9320000  2
    304    689    310    312     4  180.0000771  43.9320000  2
    307    718    311    313     4  180.0000771  43.9320000  2
    329    747    335    337     4  180.0000771  43.9320000  2
    332    776    336    338     4  180.0000771  43.9320000  2
    353    359    357    358     4  180.0000771  4.6024000  2
    362    366    365    367     4  180.0000771  4.6024000  2
    382    388    386    387     4  180.0000771  4.6024000  2
    391    395    394    396     4  180.0000771  4.6024000  2
    411    417    415    416     4  180.0000771  4.6024000  2
    420    424    423    425     4  180.0000771  4.6024000  2
    440    446    444    445     4  180.0000771  4.6024000  2
    449    453    452    454     4  180.0000771  4.6024000  2
    469    475    473    474     4  180.0000771  4.6024000  2
    478    482    481    483     4  180.0000771  4.6024000  2
    498    504    502    503     4  180.0000771  4.6024000  2
    507    511    510    512     4  180.0000771  4.6024000  2
    527    533    531    532     4  180.0000771  4.6024000  2
    536    540    539    541     4  180.0000771  4.6024000  2
    556    562    560    561     4  180.0000771  4.6024000  2
    565    569    568    570     4  180.0000771  4.6024000  2
    585    591    589    590     4  180.0000771  4.6024000  2
    594    598    597    599     4  180.0000771  4.6024000  2
    614    620    618    619     4  180.0000771  4.6024000  2
    623    627    626    628     4  180.0000771  4.6024000  2
    643    649    647    648     4  180.0000771  4.6024000  2
    652    656    655    657     4  180.0000771  4.6024000  2
    672    678    676    677     4  180.0000771  4.6024000  2
    681    685    684    686     4  180.0000771  4.6024000  2
    701    707    705    706     4  180.0000771  4.6024000  2
    710    714    713    715     4  180.0000771  4.6024000  2
    730    736    734    735     4  180.0000771  4.6024000  2
    739    743    742    744     4  180.0000771  4.6024000  2
    759    765    763    764     4  180.0000771  4.6024000  2
    768    772    771    773     4  180.0000771  4.6024000  2
    788    794    792    793     4  180.0000771  4.6024000  2
    797    801    800    802     4  180.0000771  4.6024000  2
      1      8      9     10     1  0.0000000  1.2552000  3
      1      8      9     11     1  0.0000000  1.2552000  3
      1      8     12     13     1  0.0000000  1.2552000  3
      1      8     12     14     1  0.0000000  1.2552000  3
      2      1      4      7     1  0.0000000  0.6508444  3
      2      1      4      5     1  0.0000000  0.6508444  3
      2      1      4      6     1  0.0000000  0.6508444  3
      2      1      8      9     1  0.0000000  1.2552000  3
      2      1      8     12     1  0.0000000  1.2552000  3
      3      1      4      7     1  0.0000000  0.6508444  3
      3      1      4      5     1  0.0000000  0.6508444  3
      3      1      4      6     1  0.0000000  0.6508444  3
      3      1      8      9     1  0.0000000  1.2552000  3
      3      1      8     12     1  0.0000000  1.2552000  3
      4      7     15     16     1  0.0000000  1.2552000  3
      4      7     15     17     1  0.0000000  1.2552000  3
      4      7     18     19     1  0.0000000  1.2552000  3
      4      7     18     20     1  0.0000000  1.2552000  3
      8      1      4      5     1  0.0000000  0.6508444  3
      5      4      7     15     1  0.0000000  1.2552000  3
      5      4      7     18     1  0.0000000  1.2552000  3
      8      1      4      6     1  0.0000000  0.6508444  3
      6      4      7     15     1  0.0000000  1.2552000  3
      6      4      7     18     1  0.0000000  1.2552000  3
      7     15     21     22     1  0.0000000  0.6508444  3
      7     15     21     23     1  0.0000000  0.6508444  3
      7     18     24     25     1  0.0000000  0.6508444  3
      7     18     24     26     1  0.0000000  0.6508444  3
      8      9     30     31     1  0.0000000  0.6508444  3
      8      9     30     32     1  0.0000000  0.6508444  3
      8     12     27     28     1  0.0000000  0.6508444  3
      8     12     27     29     1  0.0000000  0.6508444  3
      9      8     12     13     1  0.0000000  1.2552000  3
      9      8     12     14     1  0.0000000  1.2552000  3
     10      9      8     12     1  0.0000000  1.2552000  3
     10      9     30     34     1  0.0000000  0.6508444  3
     10      9     30     31     1  0.0000000  0.6508444  3
     10      9     30     32     1  0.0000000  0.6508444  3
     11      9      8     12     1  0.0000000  1.2552000  3
     11      9     30     34     1  0.0000000  0.6508444  3
     11      9     30     31     1  0.0000000  0.6508444  3
     11      9     30     32     1  0.0000000  0.6508444  3
     13     12     27     33     1  0.0000000  0.6508444  3
     13     12     27     28     1  0.0000000  0.6508444  3
     13     12     27     29     1  0.0000000  0.6508444  3
     14     12     27     33     1  0.0000000  0.6508444  3
     14     12     27     28     1  0.0000000  0.6508444  3
     14     12     27     29     1  0.0000000  0.6508444  3
     15      7     18     19     1  0.0000000  1.2552000  3
     15      7     18     20     1  0.0000000  1.2552000  3
     16     15      7     18     1  0.0000000  1.2552000  3
     16     15     21     35     1  0.0000000  0.6508444  3
     16     15     21     22     1  0.0000000  0.6508444  3
     16     15     21     23     1  0.0000000  0.6508444  3
     17     15      7     18     1  0.0000000  1.2552000  3
     17     15     21     35     1  0.0000000  0.6508444  3
     17     15     21     22     1  0.0000000  0.6508444  3
     17     15     21     23     1  0.0000000  0.6508444  3
     19     18     24     36     1  0.0000000  0.6508444  3
     19     18     24     25     1  0.0000000  0.6508444  3
     19     18     24     26     1  0.0000000  0.6508444  3
     20     18     24     36     1  0.0000000  0.6508444  3
     20     18     24     25     1  0.0000000  0.6508444  3
     20     18     24     26     1  0.0000000  0.6508444  3
     21     35    114    115     1  180.0000771  10.4600000  2
     22     21     35     38     1  0.0000000  3.3472000  1
     22     21     35     38     1  0.0000000  0.0000000  2
     22     21     35     38     1  180.0000771  0.3347200  3
     22     21     35    114     1  180.0000771  0.0000000  2
     23     21     35     38     1  0.0000000  3.3472000  1
     23     21     35     38     1  0.0000000  0.0000000  2
     23     21     35     38     1  180.0000771  0.3347200  3
     23     21     35    114     1  180.0000771  0.0000000  2
     24     36    139    140     1  180.0000771  10.4600000  2
     25     24     36     39     1  0.0000000  3.3472000  1
     25     24     36     39     1  0.0000000  0.0000000  2
     25     24     36     39     1  180.0000771  0.3347200  3
     25     24     36    139     1  180.0000771  0.0000000  2
     26     24     36     39     1  0.0000000  3.3472000  1
     26     24     36     39     1  0.0000000  0.0000000  2
     26     24     36     39     1  180.0000771  0.3347200  3
     26     24     36    139     1  180.0000771  0.0000000  2
     27     33     64     65     1  180.0000771  10.4600000  2
     28     27     33     37     1  0.0000000  3.3472000  1
     28     27     33     37     1  0.0000000  0.0000000  2
     28     27     33     37     1  180.0000771  0.3347200  3
     28     27     33     64     1  180.0000771  0.0000000  2
     29     27     33     37     1  0.0000000  3.3472000  1
     29     27     33     37     1  0.0000000  0.0000000  2
     29     27     33     37     1  180.0000771  0.3347200  3
     29     27     33     64     1  180.0000771  0.0000000  2
     30     34     89     90     1  180.0000771  10.4600000  2
     31     30     34     40     1  0.0000000  3.3472000  1
     31     30     34     40     1  0.0000000  0.0000000  2
     31     30     34     40     1  180.0000771  0.3347200  3
     31     30     34     89     1  180.0000771  0.0000000  2
     32     30     34     40     1  0.0000000  3.3472000  1
     32     30     34     40     1  0.0000000  0.0000000  2
     32     30     34     40     1  180.0000771  0.3347200  3
     32     30     34     89     1  180.0000771  0.0000000  2
     33     64     44     45     1  0.0000000  0.0000000  2
     33     64     44     46     1  0.0000000  0.0000000  2
     34     89     69     70     1  0.0000000  0.0000000  2
     34     89     69     71     1  0.0000000  0.0000000  2
     35    114     94     95     1  0.0000000  0.0000000  2
     35    114     94     96     1  0.0000000  0.0000000  2
     36    139    119    120     1  0.0000000  0.0000000  2
     36    139    119    121     1  0.0000000  0.0000000  2
     37     33     64     65     1  0.0000000  8.3680000  1
     37     33     64     65     1  180.0000771  10.4600000  2
     38     35    114    115     1  0.0000000  8.3680000  1
     38     35    114    115     1  180.0000771  10.4600000  2
     39     36    139    140     1  0.0000000  8.3680000  1
     39     36    139    140     1  180.0000771  10.4600000  2
     40     34     89     90     1  0.0000000  8.3680000  1
     40     34     89     90     1  180.0000771  10.4600000  2
     41     44     64     65     1  0.0000000  0.0000000  2
     41     47     48     49     1  0.0000000  1.2552000  3
     41     47     48     50     1  0.0000000  1.2552000  3
     41     47     51     52     1  0.0000000  1.2552000  3
     41     47     51     53     1  0.0000000  1.2552000  3
     42     41     44     64     1  0.0000000  0.6508444  3
     42     41     44     45     1  0.0000000  0.6508444  3
     42     41     44     46     1  0.0000000  0.6508444  3
     42     41     47     48     1  0.0000000  1.2552000  3
     42     41     47     51     1  0.0000000  1.2552000  3
     43     41     44     64     1  0.0000000  0.6508444  3
     43     41     44     45     1  0.0000000  0.6508444  3
     43     41     44     46     1  0.0000000  0.6508444  3
     43     41     47     48     1  0.0000000  1.2552000  3
     43     41     47     51     1  0.0000000  1.2552000  3
     45     44     41     47     1  0.0000000  0.6508444  3
     45     44     64     65     1  0.0000000  0.0000000  2
     46     44     41     47     1  0.0000000  0.6508444  3
     46     44     64     65     1  0.0000000  0.0000000  2
     47     48     57     58     1  0.0000000  0.6508444  3
     47     48     57     59     1  0.0000000  0.6508444  3
     47     51     54     55     1  0.0000000  0.6508444  3
     47     51     54     56     1  0.0000000  0.6508444  3
     48     47     51     52     1  0.0000000  1.2552000  3
     48     47     51     53     1  0.0000000  1.2552000  3
     49     48     47     51     1  0.0000000  1.2552000  3
     49     48     57     61     1  0.0000000  0.6508444  3
     49     48     57     58     1  0.0000000  0.6508444  3
     49     48     57     59     1  0.0000000  0.6508444  3
     50     48     47     51     1  0.0000000  1.2552000  3
     50     48     57     61     1  0.0000000  0.6508444  3
     50     48     57     58     1  0.0000000  0.6508444  3
     50     48     57     59     1  0.0000000  0.6508444  3
     52     51     54     60     1  0.0000000  0.6508444  3
     52     51     54     55     1  0.0000000  0.6508444  3
     52     51     54     56     1  0.0000000  0.6508444  3
     53     51     54     60     1  0.0000000  0.6508444  3
     53     51     54     55     1  0.0000000  0.6508444  3
     53     51     54     56     1  0.0000000  0.6508444  3
     54     60    164    165     1  180.0000771  10.4600000  2
     55     54     60     62     1  0.0000000  3.3472000  1
     55     54     60     62     1  0.0000000  0.0000000  2
     55     54     60     62     1  180.0000771  0.3347200  3
     55     54     60    164     1  180.0000771  0.0000000  2
     56     54     60     62     1  0.0000000  3.3472000  1
     56     54     60     62     1  0.0000000  0.0000000  2
     56     54     60     62     1  180.0000771  0.3347200  3
     56     54     60    164     1  180.0000771  0.0000000  2
     57     61    189    190     1  180.0000771  10.4600000  2
     58     57     61     63     1  0.0000000  3.3472000  1
     58     57     61     63     1  0.0000000  0.0000000  2
     58     57     61     63     1  180.0000771  0.3347200  3
     58     57     61    189     1  180.0000771  0.0000000  2
     59     57     61     63     1  0.0000000  3.3472000  1
     59     57     61     63     1  0.0000000  0.0000000  2
     59     57     61     63     1  180.0000771  0.3347200  3
     59     57     61    189     1  180.0000771  0.0000000  2
     60    164    144    145     1  0.0000000  0.0000000  2
     60    164    144    146     1  0.0000000  0.0000000  2
     61    189    169    170     1  0.0000000  0.0000000  2
     61    189    169    171     1  0.0000000  0.0000000  2
     62     60    164    165     1  0.0000000  8.3680000  1
     62     60    164    165     1  180.0000771  10.4600000  2
     63     61    189    190     1  0.0000000  8.3680000  1
     63     61    189    190     1  180.0000771  10.4600000  2
     66     69     89     90     1  0.0000000  0.0000000  2
     66     72     73     74     1  0.0000000  1.2552000  3
     66     72     73     75     1  0.0000000  1.2552000  3
     66     72     76     77     1  0.0000000  1.2552000  3
     66     72     76     78     1  0.0000000  1.2552000  3
     67     66     69     89     1  0.0000000  0.6508444  3
     67     66     69     70     1  0.0000000  0.6508444  3
     67     66     69     71     1  0.0000000  0.6508444  3
     67     66     72     73     1  0.0000000  1.2552000  3
     67     66     72     76     1  0.0000000  1.2552000  3
     68     66     69     89     1  0.0000000  0.6508444  3
     68     66     69     70     1  0.0000000  0.6508444  3
     68     66     69     71     1  0.0000000  0.6508444  3
     68     66     72     73     1  0.0000000  1.2552000  3
     68     66     72     76     1  0.0000000  1.2552000  3
     70     69     66     72     1  0.0000000  0.6508444  3
     70     69     89     90     1  0.0000000  0.0000000  2
     71     69     66     72     1  0.0000000  0.6508444  3
     71     69     89     90     1  0.0000000  0.0000000  2
     72     73     82     83     1  0.0000000  0.6508444  3
     72     73     82     84     1  0.0000000  0.6508444  3
     72     76     79     80     1  0.0000000  0.6508444  3
     72     76     79     81     1  0.0000000  0.6508444  3
     73     72     76     77     1  0.0000000  1.2552000  3
     73     72     76     78     1  0.0000000  1.2552000  3
     74     73     72     76     1  0.0000000  1.2552000  3
     74     73     82     86     1  0.0000000  0.6508444  3
     74     73     82     83     1  0.0000000  0.6508444  3
     74     73     82     84     1  0.0000000  0.6508444  3
     75     73     72     76     1  0.0000000  1.2552000  3
     75     73     82     86     1  0.0000000  0.6508444  3
     75     73     82     83     1  0.0000000  0.6508444  3
     75     73     82     84     1  0.0000000  0.6508444  3
     77     76     79     85     1  0.0000000  0.6508444  3
     77     76     79     80     1  0.0000000  0.6508444  3
     77     76     79     81     1  0.0000000  0.6508444  3
     78     76     79     85     1  0.0000000  0.6508444  3
     78     76     79     80     1  0.0000000  0.6508444  3
     78     76     79     81     1  0.0000000  0.6508444  3
     79     85    214    215     1  180.0000771  10.4600000  2
     80     79     85     87     1  0.0000000  3.3472000  1
     80     79     85     87     1  0.0000000  0.0000000  2
     80     79     85     87     1  180.0000771  0.3347200  3
     80     79     85    214     1  180.0000771  0.0000000  2
     81     79     85     87     1  0.0000000  3.3472000  1
     81     79     85     87     1  0.0000000  0.0000000  2
     81     79     85     87     1  180.0000771  0.3347200  3
     81     79     85    214     1  180.0000771  0.0000000  2
     82     86    239    240     1  180.0000771  10.4600000  2
     83     82     86     88     1  0.0000000  3.3472000  1
     83     82     86     88     1  0.0000000  0.0000000  2
     83     82     86     88     1  180.0000771  0.3347200  3
     83     82     86    239     1  180.0000771  0.0000000  2
     84     82     86     88     1  0.0000000  3.3472000  1
     84     82     86     88     1  0.0000000  0.0000000  2
     84     82     86     88     1  180.0000771  0.3347200  3
     84     82     86    239     1  180.0000771  0.0000000  2
     85    214    194    195     1  0.0000000  0.0000000  2
     85    214    194    196     1  0.0000000  0.0000000  2
     86    239    219    220     1  0.0000000  0.0000000  2
     86    239    219    221     1  0.0000000  0.0000000  2
     87     85    214    215     1  0.0000000  8.3680000  1
     87     85    214    215     1  180.0000771  10.4600000  2
     88     86    239    240     1  0.0000000  8.3680000  1
     88     86    239    240     1  180.0000771  10.4600000  2
     91     94    114    115     1  0.0000000  0.0000000  2
     91     97     98     99     1  0.0000000  1.2552000  3
     91     97     98    100     1  0.0000000  1.2552000  3
     91     97    101    102     1  0.0000000  1.2552000  3
     91     97    101    103     1  0.0000000  1.2552000  3
     92     91     94    114     1  0.0000000  0.6508444  3
     92     91     94     95     1  0.0000000  0.6508444  3
     92     91     94     96     1  0.0000000  0.6508444  3
     92     91     97     98     1  0.0000000  1.2552000  3
     92     91     97    101     1  0.0000000  1.2552000  3
     93     91     94    114     1  0.0000000  0.6508444  3
     93     91     94     95     1  0.0000000  0.6508444  3
     93     91     94     96     1  0.0000000  0.6508444  3
     93     91     97     98     1  0.0000000  1.2552000  3
     93     91     97    101     1  0.0000000  1.2552000  3
     95     94     91     97     1  0.0000000  0.6508444  3
     95     94    114    115     1  0.0000000  0.0000000  2
     96     94     91     97     1  0.0000000  0.6508444  3
     96     94    114    115     1  0.0000000  0.0000000  2
     97     98    107    108     1  0.0000000  0.6508444  3
     97     98    107    109     1  0.0000000  0.6508444  3
     97    101    104    105     1  0.0000000  0.6508444  3
     97    101    104    106     1  0.0000000  0.6508444  3
     98     97    101    102     1  0.0000000  1.2552000  3
     98     97    101    103     1  0.0000000  1.2552000  3
     99     98     97    101     1  0.0000000  1.2552000  3
     99     98    107    111     1  0.0000000  0.6508444  3
     99     98    107    108     1  0.0000000  0.6508444  3
     99     98    107    109     1  0.0000000  0.6508444  3
    100     98     97    101     1  0.0000000  1.2552000  3
    100     98    107    111     1  0.0000000  0.6508444  3
    100     98    107    108     1  0.0000000  0.6508444  3
    100     98    107    109     1  0.0000000  0.6508444  3
    102    101    104    110     1  0.0000000  0.6508444  3
    102    101    104    105     1  0.0000000  0.6508444  3
    102    101    104    106     1  0.0000000  0.6508444  3
    103    101    104    110     1  0.0000000  0.6508444  3
    103    101    104    105     1  0.0000000  0.6508444  3
    103    101    104    106     1  0.0000000  0.6508444  3
    104    110    264    265     1  180.0000771  10.4600000  2
    105    104    110    112     1  0.0000000  3.3472000  1
    105    104    110    112     1  0.0000000  0.0000000  2
    105    104    110    112     1  180.0000771  0.3347200  3
    105    104    110    264     1  180.0000771  0.0000000  2
    106    104    110    112     1  0.0000000  3.3472000  1
    106    104    110    112     1  0.0000000  0.0000000  2
    106    104    110    112     1  180.0000771  0.3347200  3
    106    104    110    264     1  180.0000771  0.0000000  2
    107    111    289    290     1  180.0000771  10.4600000  2
    108    107    111    113     1  0.0000000  3.3472000  1
    108    107    111    113     1  0.0000000  0.0000000  2
    108    107    111    113     1  180.0000771  0.3347200  3
    108    107    111    289     1  180.0000771  0.0000000  2
    109    107    111    113     1  0.0000000  3.3472000  1
    109    107    111    113     1  0.0000000  0.0000000  2
    109    107    111    113     1  180.0000771  0.3347200  3
    109    107    111    289     1  180.0000771  0.0000000  2
    110    264    244    245     1  0.0000000  0.0000000  2
    110    264    244    246     1  0.0000000  0.0000000  2
    111    289    269    270     1  0.0000000  0.0000000  2
    111    289    269    271     1  0.0000000  0.0000000  2
    112    110    264    265     1  0.0000000  8.3680000  1
    112    110    264    265     1  180.0000771  10.4600000  2
    113    111    289    290     1  0.0000000  8.3680000  1
    113    111    289    290     1  180.0000771  10.4600000  2
    116    119    139    140     1  0.0000000  0.0000000  2
    116    122    123    124     1  0.0000000  1.2552000  3
    116    122    123    125     1  0.0000000  1.2552000  3
    116    122    126    127     1  0.0000000  1.2552000  3
    116    122    126    128     1  0.0000000  1.2552000  3
    117    116    119    139     1  0.0000000  0.6508444  3
    117    116    119    120     1  0.0000000  0.6508444  3
    117    116    119    121     1  0.0000000  0.6508444  3
    117    116    122    123     1  0.0000000  1.2552000  3
    117    116    122    126     1  0.0000000  1.2552000  3
    118    116    119    139     1  0.0000000  0.6508444  3
    118    116    119    120     1  0.0000000  0.6508444  3
    118    116    119    121     1  0.0000000  0.6508444  3
    118    116    122    123     1  0.0000000  1.2552000  3
    118    116    122    126     1  0.0000000  1.2552000  3
    120    119    116    122     1  0.0000000  0.6508444  3
    120    119    139    140     1  0.0000000  0.0000000  2
    121    119    116    122     1  0.0000000  0.6508444  3
    121    119    139    140     1  0.0000000  0.0000000  2
    122    123    132    133     1  0.0000000  0.6508444  3
    122    123    132    134     1  0.0000000  0.6508444  3
    122    126    129    130     1  0.0000000  0.6508444  3
    122    126    129    131     1  0.0000000  0.6508444  3
    123    122    126    127     1  0.0000000  1.2552000  3
    123    122    126    128     1  0.0000000  1.2552000  3
    124    123    122    126     1  0.0000000  1.2552000  3
    124    123    132    136     1  0.0000000  0.6508444  3
    124    123    132    133     1  0.0000000  0.6508444  3
    124    123    132    134     1  0.0000000  0.6508444  3
    125    123    122    126     1  0.0000000  1.2552000  3
    125    123    132    136     1  0.0000000  0.6508444  3
    125    123    132    133     1  0.0000000  0.6508444  3
    125    123    132    134     1  0.0000000  0.6508444  3
    127    126    129    135     1  0.0000000  0.6508444  3
    127    126    129    130     1  0.0000000  0.6508444  3
    127    126    129    131     1  0.0000000  0.6508444  3
    128    126    129    135     1  0.0000000  0.6508444  3
    128    126    129    130     1  0.0000000  0.6508444  3
    128    126    129    131     1  0.0000000  0.6508444  3
    129    135    314    315     1  180.0000771  10.4600000  2
    130    129    135    137     1  0.0000000  3.3472000  1
    130    129    135    137     1  0.0000000  0.0000000  2
    130    129    135    137     1  180.0000771  0.3347200  3
    130    129    135    314     1  180.0000771  0.0000000  2
    131    129    135    137     1  0.0000000  3.3472000  1
    131    129    135    137     1  0.0000000  0.0000000  2
    131    129    135    137     1  180.0000771  0.3347200  3
    131    129    135    314     1  180.0000771  0.0000000  2
    132    136    339    340     1  180.0000771  10.4600000  2
    133    132    136    138     1  0.0000000  3.3472000  1
    133    132    136    138     1  0.0000000  0.0000000  2
    133    132    136    138     1  180.0000771  0.3347200  3
    133    132    136    339     1  180.0000771  0.0000000  2
    134    132    136    138     1  0.0000000  3.3472000  1
    134    132    136    138     1  0.0000000  0.0000000  2
    134    132    136    138     1  180.0000771  0.3347200  3
    134    132    136    339     1  180.0000771  0.0000000  2
    135    314    294    295     1  0.0000000  0.0000000  2
    135    314    294    296     1  0.0000000  0.0000000  2
    136    339    319    320     1  0.0000000  0.0000000  2
    136    339    319    321     1  0.0000000  0.0000000  2
    137    135    314    315     1  0.0000000  8.3680000  1
    137    135    314    315     1  180.0000771  10.4600000  2
    138    136    339    340     1  0.0000000  8.3680000  1
    138    136    339    340     1  180.0000771  10.4600000  2
    141    144    164    165     1  0.0000000  0.0000000  2
    141    147    148    149     1  0.0000000  1.2552000  3
    141    147    148    150     1  0.0000000  1.2552000  3
    141    147    151    152     1  0.0000000  1.2552000  3
    141    147    151    153     1  0.0000000  1.2552000  3
    142    141    144    164     1  0.0000000  0.6508444  3
    142    141    144    145     1  0.0000000  0.6508444  3
    142    141    144    146     1  0.0000000  0.6508444  3
    142    141    147    148     1  0.0000000  1.2552000  3
    142    141    147    151     1  0.0000000  1.2552000  3
    143    141    144    164     1  0.0000000  0.6508444  3
    143    141    144    145     1  0.0000000  0.6508444  3
    143    141    144    146     1  0.0000000  0.6508444  3
    143    141    147    148     1  0.0000000  1.2552000  3
    143    141    147    151     1  0.0000000  1.2552000  3
    145    144    141    147     1  0.0000000  0.6508444  3
    145    144    164    165     1  0.0000000  0.0000000  2
    146    144    141    147     1  0.0000000  0.6508444  3
    146    144    164    165     1  0.0000000  0.0000000  2
    147    148    157    158     1  0.0000000  0.6508444  3
    147    148    157    159     1  0.0000000  0.6508444  3
    147    151    154    155     1  0.0000000  0.6508444  3
    147    151    154    156     1  0.0000000  0.6508444  3
    148    147    151    152     1  0.0000000  1.2552000  3
    148    147    151    153     1  0.0000000  1.2552000  3
    149    148    147    151     1  0.0000000  1.2552000  3
    149    148    157    161     1  0.0000000  0.6508444  3
    149    148    157    158     1  0.0000000  0.6508444  3
    149    148    157    159     1  0.0000000  0.6508444  3
    150    148    147    151     1  0.0000000  1.2552000  3
    150    148    157    161     1  0.0000000  0.6508444  3
    150    148    157    158     1  0.0000000  0.6508444  3
    150    148    157    159     1  0.0000000  0.6508444  3
    152    151    154    160     1  0.0000000  0.6508444  3
    152    151    154    155     1  0.0000000  0.6508444  3
    152    151    154    156     1  0.0000000  0.6508444  3
    153    151    154    160     1  0.0000000  0.6508444  3
    153    151    154    155     1  0.0000000  0.6508444  3
    153    151    154    156     1  0.0000000  0.6508444  3
    154    160    341    342     1  180.0000771  10.4600000  2
    155    154    160    341     1  180.0000771  0.0000000  2
    155    154    160    162     1  0.0000000  3.3472000  1
    155    154    160    162     1  0.0000000  0.0000000  2
    155    154    160    162     1  180.0000771  0.3347200  3
    156    154    160    341     1  180.0000771  0.0000000  2
    156    154    160    162     1  0.0000000  3.3472000  1
    156    154    160    162     1  0.0000000  0.0000000  2
    156    154    160    162     1  180.0000771  0.3347200  3
    157    161    370    371     1  180.0000771  10.4600000  2
    158    157    161    163     1  0.0000000  3.3472000  1
    158    157    161    163     1  0.0000000  0.0000000  2
    158    157    161    163     1  180.0000771  0.3347200  3
    158    157    161    370     1  180.0000771  0.0000000  2
    159    157    161    163     1  0.0000000  3.3472000  1
    159    157    161    163     1  0.0000000  0.0000000  2
    159    157    161    163     1  180.0000771  0.3347200  3
    159    157    161    370     1  180.0000771  0.0000000  2
    160    341    343    344     1  0.0000000  0.0000000  2
    160    341    343    346     1  0.0000000  0.0000000  2
    161    370    372    373     1  0.0000000  0.0000000  2
    161    370    372    375     1  0.0000000  0.0000000  2
    162    160    341    342     1  0.0000000  8.3680000  1
    162    160    341    342     1  180.0000771  10.4600000  2
    163    161    370    371     1  0.0000000  8.3680000  1
    163    161    370    371     1  180.0000771  10.4600000  2
    166    169    189    190     1  0.0000000  0.0000000  2
    166    172    173    174     1  0.0000000  1.2552000  3
    166    172    173    175     1  0.0000000  1.2552000  3
    166    172    176    177     1  0.0000000  1.2552000  3
    166    172    176    178     1  0.0000000  1.2552000  3
    167    166    169    189     1  0.0000000  0.6508444  3
    167    166    169    170     1  0.0000000  0.6508444  3
    167    166    169    171     1  0.0000000  0.6508444  3
    167    166    172    173     1  0.0000000  1.2552000  3
    167    166    172    176     1  0.0000000  1.2552000  3
    168    166    169    189     1  0.0000000  0.6508444  3
    168    166    169    170     1  0.0000000  0.6508444  3
    168    166    169    171     1  0.0000000  0.6508444  3
    168    166    172    173     1  0.0000000  1.2552000  3
    168    166    172    176     1  0.0000000  1.2552000  3
    170    169    166    172     1  0.0000000  0.6508444  3
    170    169    189    190     1  0.0000000  0.0000000  2
    171    169    166    172     1  0.0000000  0.6508444  3
    171    169    189    190     1  0.0000000  0.0000000  2
    172    173    182    183     1  0.0000000  0.6508444  3
    172    173    182    184     1  0.0000000  0.6508444  3
    172    176    179    180     1  0.0000000  0.6508444  3
    172    176    179    181     1  0.0000000  0.6508444  3
    173    172    176    177     1  0.0000000  1.2552000  3
    173    172    176    178     1  0.0000000  1.2552000  3
    174    173    172    176     1  0.0000000  1.2552000  3
    174    173    182    186     1  0.0000000  0.6508444  3
    174    173    182    183     1  0.0000000  0.6508444  3
    174    173    182    184     1  0.0000000  0.6508444  3
    175    173    172    176     1  0.0000000  1.2552000  3
    175    173    182    186     1  0.0000000  0.6508444  3
    175    173    182    183     1  0.0000000  0.6508444  3
    175    173    182    184     1  0.0000000  0.6508444  3
    177    176    179    185     1  0.0000000  0.6508444  3
    177    176    179    180     1  0.0000000  0.6508444  3
    177    176    179    181     1  0.0000000  0.6508444  3
    178    176    179    185     1  0.0000000  0.6508444  3
    178    176    179    180     1  0.0000000  0.6508444  3
    178    176    179    181     1  0.0000000  0.6508444  3
    179    185    399    400     1  180.0000771  10.4600000  2
    180    179    185    399     1  180.0000771  0.0000000  2
    180    179    185    187     1  0.0000000  3.3472000  1
    180    179    185    187     1  0.0000000  0.0000000  2
    180    179    185    187     1  180.0000771  0.3347200  3
    181    179    185    399     1  180.0000771  0.0000000  2
    181    179    185    187     1  0.0000000  3.3472000  1
    181    179    185    187     1  0.0000000  0.0000000  2
    181    179    185    187     1  180.0000771  0.3347200  3
    182    186    428    429     1  180.0000771  10.4600000  2
    183    182    186    188     1  0.0000000  3.3472000  1
    183    182    186    188     1  0.0000000  0.0000000  2
    183    182    186    188     1  180.0000771  0.3347200  3
    183    182    186    428     1  180.0000771  0.0000000  2
    184    182    186    188     1  0.0000000  3.3472000  1
    184    182    186    188     1  0.0000000  0.0000000  2
    184    182    186    188     1  180.0000771  0.3347200  3
    184    182    186    428     1  180.0000771  0.0000000  2
    185    399    401    402     1  0.0000000  0.0000000  2
    185    399    401    404     1  0.0000000  0.0000000  2
    186    428    430    431     1  0.0000000  0.0000000  2
    186    428    430    433     1  0.0000000  0.0000000  2
    187    185    399    400     1  0.0000000  8.3680000  1
    187    185    399    400     1  180.0000771  10.4600000  2
    188    186    428    429     1  0.0000000  8.3680000  1
    188    186    428    429     1  180.0000771  10.4600000  2
    191    194    214    215     1  0.0000000  0.0000000  2
    191    197    198    199     1  0.0000000  1.2552000  3
    191    197    198    200     1  0.0000000  1.2552000  3
    191    197    201    202     1  0.0000000  1.2552000  3
    191    197    201    203     1  0.0000000  1.2552000  3
    192    191    194    214     1  0.0000000  0.6508444  3
    192    191    194    195     1  0.0000000  0.6508444  3
    192    191    194    196     1  0.0000000  0.6508444  3
    192    191    197    198     1  0.0000000  1.2552000  3
    192    191    197    201     1  0.0000000  1.2552000  3
    193    191    194    214     1  0.0000000  0.6508444  3
    193    191    194    195     1  0.0000000  0.6508444  3
    193    191    194    196     1  0.0000000  0.6508444  3
    193    191    197    198     1  0.0000000  1.2552000  3
    193    191    197    201     1  0.0000000  1.2552000  3
    195    194    191    197     1  0.0000000  0.6508444  3
    195    194    214    215     1  0.0000000  0.0000000  2
    196    194    191    197     1  0.0000000  0.6508444  3
    196    194    214    215     1  0.0000000  0.0000000  2
    197    198    207    208     1  0.0000000  0.6508444  3
    197    198    207    209     1  0.0000000  0.6508444  3
    197    201    204    205     1  0.0000000  0.6508444  3
    197    201    204    206     1  0.0000000  0.6508444  3
    198    197    201    202     1  0.0000000  1.2552000  3
    198    197    201    203     1  0.0000000  1.2552000  3
    199    198    197    201     1  0.0000000  1.2552000  3
    199    198    207    211     1  0.0000000  0.6508444  3
    199    198    207    208     1  0.0000000  0.6508444  3
    199    198    207    209     1  0.0000000  0.6508444  3
    200    198    197    201     1  0.0000000  1.2552000  3
    200    198    207    211     1  0.0000000  0.6508444  3
    200    198    207    208     1  0.0000000  0.6508444  3
    200    198    207    209     1  0.0000000  0.6508444  3
    202    201    204    210     1  0.0000000  0.6508444  3
    202    201    204    205     1  0.0000000  0.6508444  3
    202    201    204    206     1  0.0000000  0.6508444  3
    203    201    204    210     1  0.0000000  0.6508444  3
    203    201    204    205     1  0.0000000  0.6508444  3
    203    201    204    206     1  0.0000000  0.6508444  3
    204    210    457    458     1  180.0000771  10.4600000  2
    205    204    210    457     1  180.0000771  0.0000000  2
    205    204    210    212     1  0.0000000  3.3472000  1
    205    204    210    212     1  0.0000000  0.0000000  2
    205    204    210    212     1  180.0000771  0.3347200  3
    206    204    210    457     1  180.0000771  0.0000000  2
    206    204    210    212     1  0.0000000  3.3472000  1
    206    204    210    212     1  0.0000000  0.0000000  2
    206    204    210    212     1  180.0000771  0.3347200  3
    207    211    486    487     1  180.0000771  10.4600000  2
    208    207    211    213     1  0.0000000  3.3472000  1
    208    207    211    213     1  0.0000000  0.0000000  2
    208    207    211    213     1  180.0000771  0.3347200  3
    208    207    211    486     1  180.0000771  0.0000000  2
    209    207    211    213     1  0.0000000  3.3472000  1
    209    207    211    213     1  0.0000000  0.0000000  2
    209    207    211    213     1  180.0000771  0.3347200  3
    209    207    211    486     1  180.0000771  0.0000000  2
    210    457    459    460     1  0.0000000  0.0000000  2
    210    457    459    462     1  0.0000000  0.0000000  2
    211    486    488    489     1  0.0000000  0.0000000  2
    211    486    488    491     1  0.0000000  0.0000000  2
    212    210    457    458     1  0.0000000  8.3680000  1
    212    210    457    458     1  180.0000771  10.4600000  2
    213    211    486    487     1  0.0000000  8.3680000  1
    213    211    486    487     1  180.0000771  10.4600000  2
    216    219    239    240     1  0.0000000  0.0000000  2
    216    222    223    224     1  0.0000000  1.2552000  3
    216    222    223    225     1  0.0000000  1.2552000  3
    216    222    226    227     1  0.0000000  1.2552000  3
    216    222    226    228     1  0.0000000  1.2552000  3
    217    216    219    239     1  0.0000000  0.6508444  3
    217    216    219    220     1  0.0000000  0.6508444  3
    217    216    219    221     1  0.0000000  0.6508444  3
    217    216    222    223     1  0.0000000  1.2552000  3
    217    216    222    226     1  0.0000000  1.2552000  3
    218    216    219    239     1  0.0000000  0.6508444  3
    218    216    219    220     1  0.0000000  0.6508444  3
    218    216    219    221     1  0.0000000  0.6508444  3
    218    216    222    223     1  0.0000000  1.2552000  3
    218    216    222    226     1  0.0000000  1.2552000  3
    220    219    216    222     1  0.0000000  0.6508444  3
    220    219    239    240     1  0.0000000  0.0000000  2
    221    219    216    222     1  0.0000000  0.6508444  3
    221    219    239    240     1  0.0000000  0.0000000  2
    222    223    232    233     1  0.0000000  0.6508444  3
    222    223    232    234     1  0.0000000  0.6508444  3
    222    226    229    230     1  0.0000000  0.6508444  3
    222    226    229    231     1  0.0000000  0.6508444  3
    223    222    226    227     1  0.0000000  1.2552000  3
    223    222    226    228     1  0.0000000  1.2552000  3
    224    223    222    226     1  0.0000000  1.2552000  3
    224    223    232    236     1  0.0000000  0.6508444  3
    224    223    232    233     1  0.0000000  0.6508444  3
    224    223    232    234     1  0.0000000  0.6508444  3
    225    223    222    226     1  0.0000000  1.2552000  3
    225    223    232    236     1  0.0000000  0.6508444  3
    225    223    232    233     1  0.0000000  0.6508444  3
    225    223    232    234     1  0.0000000  0.6508444  3
    227    226    229    235     1  0.0000000  0.6508444  3
    227    226    229    230     1  0.0000000  0.6508444  3
    227    226    229    231     1  0.0000000  0.6508444  3
    228    226    229    235     1  0.0000000  0.6508444  3
    228    226    229    230     1  0.0000000  0.6508444  3
    228    226    229    231     1  0.0000000  0.6508444  3
    229    235    515    516     1  180.0000771  10.4600000  2
    230    229    235    515     1  180.0000771  0.0000000  2
    230    229    235    237     1  0.0000000  3.3472000  1
    230    229    235    237     1  0.0000000  0.0000000  2
    230    229    235    237     1  180.0000771  0.3347200  3
    231    229    235    515     1  180.0000771  0.0000000  2
    231    229    235    237     1  0.0000000  3.3472000  1
    231    229    235    237     1  0.0000000  0.0000000  2
    231    229    235    237     1  180.0000771  0.3347200  3
    232    236    544    545     1  180.0000771  10.4600000  2
    233    232    236    238     1  0.0000000  3.3472000  1
    233    232    236    238     1  0.0000000  0.0000000  2
    233    232    236    238     1  180.0000771  0.3347200  3
    233    232    236    544     1  180.0000771  0.0000000  2
    234    232    236    238     1  0.0000000  3.3472000  1
    234    232    236    238     1  0.0000000  0.0000000  2
    234    232    236    238     1  180.0000771  0.3347200  3
    234    232    236    544     1  180.0000771  0.0000000  2
    235    515    517    518     1  0.0000000  0.0000000  2
    235    515    517    520     1  0.0000000  0.0000000  2
    236    544    546    547     1  0.0000000  0.0000000  2
    236    544    546    549     1  0.0000000  0.0000000  2
    237    235    515    516     1  0.0000000  8.3680000  1
    237    235    515    516     1  180.0000771  10.4600000  2
    238    236    544    545     1  0.0000000  8.3680000  1
    238    236    544    545     1  180.0000771  10.4600000  2
    241    244    264    265     1  0.0000000  0.0000000  2
    241    247    248    249     1  0.0000000  1.2552000  3
    241    247    248    250     1  0.0000000  1.2552000  3
    241    247    251    252     1  0.0000000  1.2552000  3
    241    247    251    253     1  0.0000000  1.2552000  3
    242    241    244    264     1  0.0000000  0.6508444  3
    242    241    244    245     1  0.0000000  0.6508444  3
    242    241    244    246     1  0.0000000  0.6508444  3
    242    241    247    248     1  0.0000000  1.2552000  3
    242    241    247    251     1  0.0000000  1.2552000  3
    243    241    244    264     1  0.0000000  0.6508444  3
    243    241    244    245     1  0.0000000  0.6508444  3
    243    241    244    246     1  0.0000000  0.6508444  3
    243    241    247    248     1  0.0000000  1.2552000  3
    243    241    247    251     1  0.0000000  1.2552000  3
    245    244    241    247     1  0.0000000  0.6508444  3
    245    244    264    265     1  0.0000000  0.0000000  2
    246    244    241    247     1  0.0000000  0.6508444  3
    246    244    264    265     1  0.0000000  0.0000000  2
    247    248    257    258     1  0.0000000  0.6508444  3
    247    248    257    259     1  0.0000000  0.6508444  3
    247    251    254    255     1  0.0000000  0.6508444  3
    247    251    254    256     1  0.0000000  0.6508444  3
    248    247    251    252     1  0.0000000  1.2552000  3
    248    247    251    253     1  0.0000000  1.2552000  3
    249    248    247    251     1  0.0000000  1.2552000  3
    249    248    257    261     1  0.0000000  0.6508444  3
    249    248    257    258     1  0.0000000  0.6508444  3
    249    248    257    259     1  0.0000000  0.6508444  3
    250    248    247    251     1  0.0000000  1.2552000  3
    250    248    257    261     1  0.0000000  0.6508444  3
    250    248    257    258     1  0.0000000  0.6508444  3
    250    248    257    259     1  0.0000000  0.6508444  3
    252    251    254    260     1  0.0000000  0.6508444  3
    252    251    254    255     1  0.0000000  0.6508444  3
    252    251    254    256     1  0.0000000  0.6508444  3
    253    251    254    260     1  0.0000000  0.6508444  3
    253    251    254    255     1  0.0000000  0.6508444  3
    253    251    254    256     1  0.0000000  0.6508444  3
    254    260    573    574     1  180.0000771  10.4600000  2
    255    254    260    573     1  180.0000771  0.0000000  2
    255    254    260    262     1  0.0000000  3.3472000  1
    255    254    260    262     1  0.0000000  0.0000000  2
    255    254    260    262     1  180.0000771  0.3347200  3
    256    254    260    573     1  180.0000771  0.0000000  2
    256    254    260    262     1  0.0000000  3.3472000  1
    256    254    260    262     1  0.0000000  0.0000000  2
    256    254    260    262     1  180.0000771  0.3347200  3
    257    261    602    603     1  180.0000771  10.4600000  2
    258    257    261    263     1  0.0000000  3.3472000  1
    258    257    261    263     1  0.0000000  0.0000000  2
    258    257    261    263     1  180.0000771  0.3347200  3
    258    257    261    602     1  180.0000771  0.0000000  2
    259    257    261    263     1  0.0000000  3.3472000  1
    259    257    261    263     1  0.0000000  0.0000000  2
    259    257    261    263     1  180.0000771  0.3347200  3
    259    257    261    602     1  180.0000771  0.0000000  2
    260    573    575    576     1  0.0000000  0.0000000  2
    260    573    575    578     1  0.0000000  0.0000000  2
    261    602    604    605     1  0.0000000  0.0000000  2
    261    602    604    607     1  0.0000000  0.0000000  2
    262    260    573    574     1  0.0000000  8.3680000  1
    262    260    573    574     1  180.0000771  10.4600000  2
    263    261    602    603     1  0.0000000  8.3680000  1
    263    261    602    603     1  180.0000771  10.4600000  2
    266    269    289    290     1  0.0000000  0.0000000  2
    266    272    273    274     1  0.0000000  1.2552000  3
    266    272    273    275     1  0.0000000  1.2552000  3
    266    272    276    277     1  0.0000000  1.2552000  3
    266    272    276    278     1  0.0000000  1.2552000  3
    267    266    269    289     1  0.0000000  0.6508444  3
    267    266    269    270     1  0.0000000  0.6508444  3
    267    266    269    271     1  0.0000000  0.6508444  3
    267    266    272    273     1  0.0000000  1.2552000  3
    267    266    272    276     1  0.0000000  1.2552000  3
    268    266    269    289     1  0.0000000  0.6508444  3
    268    266    269    270     1  0.0000000  0.6508444  3
    268    266    269    271     1  0.0000000  0.6508444  3
    268    266    272    273     1  0.0000000  1.2552000  3
    268    266    272    276     1  0.0000000  1.2552000  3
    270    269    266    272     1  0.0000000  0.6508444  3
    270    269    289    290     1  0.0000000  0.0000000  2
    271    269    266    272     1  0.0000000  0.6508444  3
    271    269    289    290     1  0.0000000  0.0000000  2
    272    273    282    283     1  0.0000000  0.6508444  3
    272    273    282    284     1  0.0000000  0.6508444  3
    272    276    279    280     1  0.0000000  0.6508444  3
    272    276    279    281     1  0.0000000  0.6508444  3
    273    272    276    277     1  0.0000000  1.2552000  3
    273    272    276    278     1  0.0000000  1.2552000  3
    274    273    272    276     1  0.0000000  1.2552000  3
    274    273    282    286     1  0.0000000  0.6508444  3
    274    273    282    283     1  0.0000000  0.6508444  3
    274    273    282    284     1  0.0000000  0.6508444  3
    275    273    272    276     1  0.0000000  1.2552000  3
    275    273    282    286     1  0.0000000  0.6508444  3
    275    273    282    283     1  0.0000000  0.6508444  3
    275    273    282    284     1  0.0000000  0.6508444  3
    277    276    279    285     1  0.0000000  0.6508444  3
    277    276    279    280     1  0.0000000  0.6508444  3
    277    276    279    281     1  0.0000000  0.6508444  3
    278    276    279    285     1  0.0000000  0.6508444  3
    278    276    279    280     1  0.0000000  0.6508444  3
    278    276    279    281     1  0.0000000  0.6508444  3
    279    285    631    632     1  180.0000771  10.4600000  2
    280    279    285    631     1  180.0000771  0.0000000  2
    280    279    285    287     1  0.0000000  3.3472000  1
    280    279    285    287     1  0.0000000  0.0000000  2
    280    279    285    287     1  180.0000771  0.3347200  3
    281    279    285    631     1  180.0000771  0.0000000  2
    281    279    285    287     1  0.0000000  3.3472000  1
    281    279    285    287     1  0.0000000  0.0000000  2
    281    279    285    287     1  180.0000771  0.3347200  3
    282    286    660    661     1  180.0000771  10.4600000  2
    283    282    286    288     1  0.0000000  3.3472000  1
    283    282    286    288     1  0.0000000  0.0000000  2
    283    282    286    288     1  180.0000771  0.3347200  3
    283    282    286    660     1  180.0000771  0.0000000  2
    284    282    286    288     1  0.0000000  3.3472000  1
    284    282    286    288     1  0.0000000  0.0000000  2
    284    282    286    288     1  180.0000771  0.3347200  3
    284    282    286    660     1  180.0000771  0.0000000  2
    285    631    633    634     1  0.0000000  0.0000000  2
    285    631    633    636     1  0.0000000  0.0000000  2
    286    660    662    663     1  0.0000000  0.0000000  2
    286    660    662    665     1  0.0000000  0.0000000  2
    287    285    631    632     1  0.0000000  8.3680000  1
    287    285    631    632     1  180.0000771  10.4600000  2
    288    286    660    661     1  0.0000000  8.3680000  1
    288    286    660    661     1  180.0000771  10.4600000  2
    291    294    314    315     1  0.0000000  0.0000000  2
    291    297    298    299     1  0.0000000  1.2552000  3
    291    297    298    300     1  0.0000000  1.2552000  3
    291    297    301    302     1  0.0000000  1.2552000  3
    291    297    301    303     1  0.0000000  1.2552000  3
    292    291    294    314     1  0.0000000  0.6508444  3
    292    291    294    295     1  0.0000000  0.6508444  3
    292    291    294    296     1  0.0000000  0.6508444  3
    292    291    297    298     1  0.0000000  1.2552000  3
    292    291    297    301     1  0.0000000  1.2552000  3
    293    291    294    314     1  0.0000000  0.6508444  3
    293    291    294    295     1  0.0000000  0.6508444  3
    293    291    294    296     1  0.0000000  0.6508444  3
    293    291    297    298     1  0.0000000  1.2552000  3
    293    291    297    301     1  0.0000000  1.2552000  3
    295    294    291    297     1  0.0000000  0.6508444  3
    295    294    314    315     1  0.0000000  0.0000000  2
    296    294    291    297     1  0.0000000  0.6508444  3
    296    294    314    315     1  0.0000000  0.0000000  2
    297    298    307    308     1  0.0000000  0.6508444  3
    297    298    307    309     1  0.0000000  0.6508444  3
    297    301    304    305     1  0.0000000  0.6508444  3
    297    301    304    306     1  0.0000000  0.6508444  3
    298    297    301    302     1  0.0000000  1.2552000  3
    298    297    301    303     1  0.0000000  1.2552000  3
    299    298    297    301     1  0.0000000  1.2552000  3
    299    298    307    311     1  0.0000000  0.6508444  3
    299    298    307    308     1  0.0000000  0.6508444  3
    299    298    307    309     1  0.0000000  0.6508444  3
    300    298    297    301     1  0.0000000  1.2552000  3
    300    298    307    311     1  0.0000000  0.6508444  3
    300    298    307    308     1  0.0000000  0.6508444  3
    300    298    307    309     1  0.0000000  0.6508444  3
    302    301    304    310     1  0.0000000  0.6508444  3
    302    301    304    305     1  0.0000000  0.6508444  3
    302    301    304    306     1  0.0000000  0.6508444  3
    303    301    304    310     1  0.0000000  0.6508444  3
    303    301    304    305     1  0.0000000  0.6508444  3
    303    301    304    306     1  0.0000000  0.6508444  3
    304    310    689    690     1  180.0000771  10.4600000  2
    305    304    310    689     1  180.0000771  0.0000000  2
    305    304    310    312     1  0.0000000  3.3472000  1
    305    304    310    312     1  0.0000000  0.0000000  2
    305    304    310    312     1  180.0000771  0.3347200  3
    306    304    310    689     1  180.0000771  0.0000000  2
    306    304    310    312     1  0.0000000  3.3472000  1
    306    304    310    312     1  0.0000000  0.0000000  2
    306    304    310    312     1  180.0000771  0.3347200  3
    307    311    718    719     1  180.0000771  10.4600000  2
    308    307    311    313     1  0.0000000  3.3472000  1
    308    307    311    313     1  0.0000000  0.0000000  2
    308    307    311    313     1  180.0000771  0.3347200  3
    308    307    311    718     1  180.0000771  0.0000000  2
    309    307    311    313     1  0.0000000  3.3472000  1
    309    307    311    313     1  0.0000000  0.0000000  2
    309    307    311    313     1  180.0000771  0.3347200  3
    309    307    311    718     1  180.0000771  0.0000000  2
    310    689    691    692     1  0.0000000  0.0000000  2
    310    689    691    694     1  0.0000000  0.0000000  2
    311    718    720    721     1  0.0000000  0.0000000  2
    311    718    720    723     1  0.0000000  0.0000000  2
    312    310    689    690     1  0.0000000  8.3680000  1
    312    310    689    690     1  180.0000771  10.4600000  2
    313    311    718    719     1  0.0000000  8.3680000  1
    313    311    718    719     1  180.0000771  10.4600000  2
    316    319    339    340     1  0.0000000  0.0000000  2
    316    322    323    324     1  0.0000000  1.2552000  3
    316    322    323    325     1  0.0000000  1.2552000  3
    316    322    326    327     1  0.0000000  1.2552000  3
    316    322    326    328     1  0.0000000  1.2552000  3
    317    316    319    339     1  0.0000000  0.6508444  3
    317    316    319    320     1  0.0000000  0.6508444  3
    317    316    319    321     1  0.0000000  0.6508444  3
    317    316    322    323     1  0.0000000  1.2552000  3
    317    316    322    326     1  0.0000000  1.2552000  3
    318    316    319    339     1  0.0000000  0.6508444  3
    318    316    319    320     1  0.0000000  0.6508444  3
    318    316    319    321     1  0.0000000  0.6508444  3
    318    316    322    323     1  0.0000000  1.2552000  3
    318    316    322    326     1  0.0000000  1.2552000  3
    320    319    316    322     1  0.0000000  0.6508444  3
    320    319    339    340     1  0.0000000  0.0000000  2
    321    319    316    322     1  0.0000000  0.6508444  3
    321    319    339    340     1  0.0000000  0.0000000  2
    322    323    332    333     1  0.0000000  0.6508444  3
    322    323    332    334     1  0.0000000  0.6508444  3
    322    326    329    330     1  0.0000000  0.6508444  3
    322    326    329    331     1  0.0000000  0.6508444  3
    323    322    326    327     1  0.0000000  1.2552000  3
    323    322    326    328     1  0.0000000  1.2552000  3
    324    323    322    326     1  0.0000000  1.2552000  3
    324    323    332    336     1  0.0000000  0.6508444  3
    324    323    332    333     1  0.0000000  0.6508444  3
    324    323    332    334     1  0.0000000  0.6508444  3
    325    323    322    326     1  0.0000000  1.2552000  3
    325    323    332    336     1  0.0000000  0.6508444  3
    325    323    332    333     1  0.0000000  0.6508444  3
    325    323    332    334     1  0.0000000  0.6508444  3
    327    326    329    335     1  0.0000000  0.6508444  3
    327    326    329    330     1  0.0000000  0.6508444  3
    327    326    329    331     1  0.0000000  0.6508444  3
    328    326    329    335     1  0.0000000  0.6508444  3
    328    326    329    330     1  0.0000000  0.6508444  3
    328    326    329    331     1  0.0000000  0.6508444  3
    329    335    747    748     1  180.0000771  10.4600000  2
    330    329    335    747     1  180.0000771  0.0000000  2
    330    329    335    337     1  0.0000000  3.3472000  1
    330    329    335    337     1  0.0000000  0.0000000  2
    330    329    335    337     1  180.0000771  0.3347200  3
    331    329    335    747     1  180.0000771  0.0000000  2
    331    329    335    337     1  0.0000000  3.3472000  1
    331    329    335    337     1  0.0000000  0.0000000  2
    331    329    335    337     1  180.0000771  0.3347200  3
    332    336    776    777     1  180.0000771  10.4600000  2
    333    332    336    776     1  180.0000771  0.0000000  2
    333    332    336    338     1  0.0000000  3.3472000  1
    333    332    336    338     1  0.0000000  0.0000000  2
    333    332    336    338     1  180.0000771  0.3347200  3
    334    332    336    776     1  180.0000771  0.0000000  2
    334    332    336    338     1  0.0000000  3.3472000  1
    334    332    336    338     1  0.0000000  0.0000000  2
    334    332    336    338     1  180.0000771  0.3347200  3
    335    747    749    750     1  0.0000000  0.0000000  2
    335    747    749    752     1  0.0000000  0.0000000  2
    336    776    778    779     1  0.0000000  0.0000000  2
    336    776    778    781     1  0.0000000  0.0000000  2
    337    335    747    748     1  0.0000000  8.3680000  1
    337    335    747    748     1  180.0000771  10.4600000  2
    338    336    776    777     1  0.0000000  8.3680000  1
    338    336    776    777     1  180.0000771  10.4600000  2
    341    343    345    347     1  0.0000000  0.6508444  3
    341    343    345    348     1  0.0000000  0.6508444  3
    342    341    343    345     1  0.0000000  0.0000000  2
    342    341    343    344     1  0.0000000  0.0000000  2
    342    341    343    346     1  0.0000000  0.0000000  2
    344    343    345    349     1  0.0000000  0.6508444  3
    344    343    345    347     1  0.0000000  0.6508444  3
    344    343    345    348     1  0.0000000  0.6508444  3
    345    349    350    360     1  0.0000000  1.2552000  3
    345    349    350    361     1  0.0000000  1.2552000  3
    345    349    351    352     1  0.0000000  1.2552000  3
    345    349    351    354     1  0.0000000  1.2552000  3
    346    343    345    349     1  0.0000000  0.6508444  3
    346    343    345    347     1  0.0000000  0.6508444  3
    346    343    345    348     1  0.0000000  0.6508444  3
    347    345    349    350     1  0.0000000  1.2552000  3
    347    345    349    351     1  0.0000000  1.2552000  3
    348    345    349    350     1  0.0000000  1.2552000  3
    348    345    349    351     1  0.0000000  1.2552000  3
    349    350    362    363     1  0.0000000  0.6508444  3
    349    350    362    364     1  0.0000000  0.6508444  3
    349    351    353    355     1  0.0000000  0.6508444  3
    349    351    353    356     1  0.0000000  0.6508444  3
    350    349    351    352     1  0.0000000  1.2552000  3
    350    349    351    354     1  0.0000000  1.2552000  3
    351    349    350    360     1  0.0000000  1.2552000  3
    351    349    350    361     1  0.0000000  1.2552000  3
    352    351    353    357     1  0.0000000  0.6508444  3
    352    351    353    355     1  0.0000000  0.6508444  3
    352    351    353    356     1  0.0000000  0.6508444  3
    353    357    358    368     1  180.0000771  9.6232000  2
    354    351    353    357     1  0.0000000  0.6508444  3
    354    351    353    355     1  0.0000000  0.6508444  3
    354    351    353    356     1  0.0000000  0.6508444  3
    355    353    357    358     1  180.0000771  0.0000000  2
    355    353    357    359     1  0.0000000  3.3472000  1
    355    353    357    359     1  0.0000000  0.0000000  2
    355    353    357    359     1  180.0000771  0.3347200  3
    356    353    357    358     1  180.0000771  0.0000000  2
    356    353    357    359     1  0.0000000  3.3472000  1
    356    353    357    359     1  0.0000000  0.0000000  2
    356    353    357    359     1  180.0000771  0.3347200  3
    359    357    358    368     1  0.0000000  7.9496000  1
    359    357    358    368     1  180.0000771  9.6232000  2
    360    350    362    365     1  0.0000000  0.6508444  3
    360    350    362    363     1  0.0000000  0.6508444  3
    360    350    362    364     1  0.0000000  0.6508444  3
    361    350    362    365     1  0.0000000  0.6508444  3
    361    350    362    363     1  0.0000000  0.6508444  3
    361    350    362    364     1  0.0000000  0.6508444  3
    362    365    367    369     1  180.0000771  9.6232000  2
    363    362    365    366     1  0.0000000  3.3472000  1
    363    362    365    366     1  0.0000000  0.0000000  2
    363    362    365    366     1  180.0000771  0.3347200  3
    363    362    365    367     1  180.0000771  0.0000000  2
    364    362    365    366     1  0.0000000  3.3472000  1
    364    362    365    366     1  0.0000000  0.0000000  2
    364    362    365    366     1  180.0000771  0.3347200  3
    364    362    365    367     1  180.0000771  0.0000000  2
    366    365    367    369     1  0.0000000  7.9496000  1
    366    365    367    369     1  180.0000771  9.6232000  2
    370    372    374    376     1  0.0000000  0.6508444  3
    370    372    374    377     1  0.0000000  0.6508444  3
    371    370    372    374     1  0.0000000  0.0000000  2
    371    370    372    373     1  0.0000000  0.0000000  2
    371    370    372    375     1  0.0000000  0.0000000  2
    373    372    374    378     1  0.0000000  0.6508444  3
    373    372    374    376     1  0.0000000  0.6508444  3
    373    372    374    377     1  0.0000000  0.6508444  3
    374    378    379    389     1  0.0000000  1.2552000  3
    374    378    379    390     1  0.0000000  1.2552000  3
    374    378    380    381     1  0.0000000  1.2552000  3
    374    378    380    383     1  0.0000000  1.2552000  3
    375    372    374    378     1  0.0000000  0.6508444  3
    375    372    374    376     1  0.0000000  0.6508444  3
    375    372    374    377     1  0.0000000  0.6508444  3
    376    374    378    379     1  0.0000000  1.2552000  3
    376    374    378    380     1  0.0000000  1.2552000  3
    377    374    378    379     1  0.0000000  1.2552000  3
    377    374    378    380     1  0.0000000  1.2552000  3
    378    379    391    392     1  0.0000000  0.6508444  3
    378    379    391    393     1  0.0000000  0.6508444  3
    378    380    382    384     1  0.0000000  0.6508444  3
    378    380    382    385     1  0.0000000  0.6508444  3
    379    378    380    381     1  0.0000000  1.2552000  3
    379    378    380    383     1  0.0000000  1.2552000  3
    380    378    379    389     1  0.0000000  1.2552000  3
    380    378    379    390     1  0.0000000  1.2552000  3
    381    380    382    386     1  0.0000000  0.6508444  3
    381    380    382    384     1  0.0000000  0.6508444  3
    381    380    382    385     1  0.0000000  0.6508444  3
    382    386    387    397     1  180.0000771  9.6232000  2
    383    380    382    386     1  0.0000000  0.6508444  3
    383    380    382    384     1  0.0000000  0.6508444  3
    383    380    382    385     1  0.0000000  0.6508444  3
    384    382    386    387     1  180.0000771  0.0000000  2
    384    382    386    388     1  0.0000000  3.3472000  1
    384    382    386    388     1  0.0000000  0.0000000  2
    384    382    386    388     1  180.0000771  0.3347200  3
    385    382    386    387     1  180.0000771  0.0000000  2
    385    382    386    388     1  0.0000000  3.3472000  1
    385    382    386    388     1  0.0000000  0.0000000  2
    385    382    386    388     1  180.0000771  0.3347200  3
    388    386    387    397     1  0.0000000  7.9496000  1
    388    386    387    397     1  180.0000771  9.6232000  2
    389    379    391    394     1  0.0000000  0.6508444  3
    389    379    391    392     1  0.0000000  0.6508444  3
    389    379    391    393     1  0.0000000  0.6508444  3
    390    379    391    394     1  0.0000000  0.6508444  3
    390    379    391    392     1  0.0000000  0.6508444  3
    390    379    391    393     1  0.0000000  0.6508444  3
    391    394    396    398     1  180.0000771  9.6232000  2
    392    391    394    395     1  0.0000000  3.3472000  1
    392    391    394    395     1  0.0000000  0.0000000  2
    392    391    394    395     1  180.0000771  0.3347200  3
    392    391    394    396     1  180.0000771  0.0000000  2
    393    391    394    395     1  0.0000000  3.3472000  1
    393    391    394    395     1  0.0000000  0.0000000  2
    393    391    394    395     1  180.0000771  0.3347200  3
    393    391    394    396     1  180.0000771  0.0000000  2
    395    394    396    398     1  0.0000000  7.9496000  1
    395    394    396    398     1  180.0000771  9.6232000  2
    399    401    403    405     1  0.0000000  0.6508444  3
    399    401    403    406     1  0.0000000  0.6508444  3
    400    399    401    403     1  0.0000000  0.0000000  2
    400    399    401    402     1  0.0000000  0.0000000  2
    400    399    401    404     1  0.0000000  0.0000000  2
    402    401    403    407     1  0.0000000  0.6508444  3
    402    401    403    405     1  0.0000000  0.6508444  3
    402    401    403    406     1  0.0000000  0.6508444  3
    403    407    408    418     1  0.0000000  1.2552000  3
    403    407    408    419     1  0.0000000  1.2552000  3
    403    407    409    410     1  0.0000000  1.2552000  3
    403    407    409    412     1  0.0000000  1.2552000  3
    404    401    403    407     1  0.0000000  0.6508444  3
    404    401    403    405     1  0.0000000  0.6508444  3
    404    401    403    406     1  0.0000000  0.6508444  3
    405    403    407    408     1  0.0000000  1.2552000  3
    405    403    407    409     1  0.0000000  1.2552000  3
    406    403    407    408     1  0.0000000  1.2552000  3
    406    403    407    409     1  0.0000000  1.2552000  3
    407    408    420    421     1  0.0000000  0.6508444  3
    407    408    420    422     1  0.0000000  0.6508444  3
    407    409    411    413     1  0.0000000  0.6508444  3
    407    409    411    414     1  0.0000000  0.6508444  3
    408    407    409    410     1  0.0000000  1.2552000  3
    408    407    409    412     1  0.0000000  1.2552000  3
    409    407    408    418     1  0.0000000  1.2552000  3
    409    407    408    419     1  0.0000000  1.2552000  3
    410    409    411    415     1  0.0000000  0.6508444  3
    410    409    411    413     1  0.0000000  0.6508444  3
    410    409    411    414     1  0.0000000  0.6508444  3
    411    415    416    426     1  180.0000771  9.6232000  2
    412    409    411    415     1  0.0000000  0.6508444  3
    412    409    411    413     1  0.0000000  0.6508444  3
    412    409    411    414     1  0.0000000  0.6508444  3
    413    411    415    416     1  180.0000771  0.0000000  2
    413    411    415    417     1  0.0000000  3.3472000  1
    413    411    415    417     1  0.0000000  0.0000000  2
    413    411    415    417     1  180.0000771  0.3347200  3
    414    411    415    416     1  180.0000771  0.0000000  2
    414    411    415    417     1  0.0000000  3.3472000  1
    414    411    415    417     1  0.0000000  0.0000000  2
    414    411    415    417     1  180.0000771  0.3347200  3
    417    415    416    426     1  0.0000000  7.9496000  1
    417    415    416    426     1  180.0000771  9.6232000  2
    418    408    420    423     1  0.0000000  0.6508444  3
    418    408    420    421     1  0.0000000  0.6508444  3
    418    408    420    422     1  0.0000000  0.6508444  3
    419    408    420    423     1  0.0000000  0.6508444  3
    419    408    420    421     1  0.0000000  0.6508444  3
    419    408    420    422     1  0.0000000  0.6508444  3
    420    423    425    427     1  180.0000771  9.6232000  2
    421    420    423    424     1  0.0000000  3.3472000  1
    421    420    423    424     1  0.0000000  0.0000000  2
    421    420    423    424     1  180.0000771  0.3347200  3
    421    420    423    425     1  180.0000771  0.0000000  2
    422    420    423    424     1  0.0000000  3.3472000  1
    422    420    423    424     1  0.0000000  0.0000000  2
    422    420    423    424     1  180.0000771  0.3347200  3
    422    420    423    425     1  180.0000771  0.0000000  2
    424    423    425    427     1  0.0000000  7.9496000  1
    424    423    425    427     1  180.0000771  9.6232000  2
    428    430    432    434     1  0.0000000  0.6508444  3
    428    430    432    435     1  0.0000000  0.6508444  3
    429    428    430    432     1  0.0000000  0.0000000  2
    429    428    430    431     1  0.0000000  0.0000000  2
    429    428    430    433     1  0.0000000  0.0000000  2
    431    430    432    436     1  0.0000000  0.6508444  3
    431    430    432    434     1  0.0000000  0.6508444  3
    431    430    432    435     1  0.0000000  0.6508444  3
    432    436    437    447     1  0.0000000  1.2552000  3
    432    436    437    448     1  0.0000000  1.2552000  3
    432    436    438    439     1  0.0000000  1.2552000  3
    432    436    438    441     1  0.0000000  1.2552000  3
    433    430    432    436     1  0.0000000  0.6508444  3
    433    430    432    434     1  0.0000000  0.6508444  3
    433    430    432    435     1  0.0000000  0.6508444  3
    434    432    436    437     1  0.0000000  1.2552000  3
    434    432    436    438     1  0.0000000  1.2552000  3
    435    432    436    437     1  0.0000000  1.2552000  3
    435    432    436    438     1  0.0000000  1.2552000  3
    436    437    449    450     1  0.0000000  0.6508444  3
    436    437    449    451     1  0.0000000  0.6508444  3
    436    438    440    442     1  0.0000000  0.6508444  3
    436    438    440    443     1  0.0000000  0.6508444  3
    437    436    438    439     1  0.0000000  1.2552000  3
    437    436    438    441     1  0.0000000  1.2552000  3
    438    436    437    447     1  0.0000000  1.2552000  3
    438    436    437    448     1  0.0000000  1.2552000  3
    439    438    440    444     1  0.0000000  0.6508444  3
    439    438    440    442     1  0.0000000  0.6508444  3
    439    438    440    443     1  0.0000000  0.6508444  3
    440    444    445    455     1  180.0000771  9.6232000  2
    441    438    440    444     1  0.0000000  0.6508444  3
    441    438    440    442     1  0.0000000  0.6508444  3
    441    438    440    443     1  0.0000000  0.6508444  3
    442    440    444    445     1  180.0000771  0.0000000  2
    442    440    444    446     1  0.0000000  3.3472000  1
    442    440    444    446     1  0.0000000  0.0000000  2
    442    440    444    446     1  180.0000771  0.3347200  3
    443    440    444    445     1  180.0000771  0.0000000  2
    443    440    444    446     1  0.0000000  3.3472000  1
    443    440    444    446     1  0.0000000  0.0000000  2
    443    440    444    446     1  180.0000771  0.3347200  3
    446    444    445    455     1  0.0000000  7.9496000  1
    446    444    445    455     1  180.0000771  9.6232000  2
    447    437    449    452     1  0.0000000  0.6508444  3
    447    437    449    450     1  0.0000000  0.6508444  3
    447    437    449    451     1  0.0000000  0.6508444  3
    448    437    449    452     1  0.0000000  0.6508444  3
    448    437    449    450     1  0.0000000  0.6508444  3
    448    437    449    451     1  0.0000000  0.6508444  3
    449    452    454    456     1  180.0000771  9.6232000  2
    450    449    452    453     1  0.0000000  3.3472000  1
    450    449    452    453     1  0.0000000  0.0000000  2
    450    449    452    453     1  180.0000771  0.3347200  3
    450    449    452    454     1  180.0000771  0.0000000  2
    451    449    452    453     1  0.0000000  3.3472000  1
    451    449    452    453     1  0.0000000  0.0000000  2
    451    449    452    453     1  180.0000771  0.3347200  3
    451    449    452    454     1  180.0000771  0.0000000  2
    453    452    454    456     1  0.0000000  7.9496000  1
    453    452    454    456     1  180.0000771  9.6232000  2
    457    459    461    463     1  0.0000000  0.6508444  3
    457    459    461    464     1  0.0000000  0.6508444  3
    458    457    459    461     1  0.0000000  0.0000000  2
    458    457    459    460     1  0.0000000  0.0000000  2
    458    457    459    462     1  0.0000000  0.0000000  2
    460    459    461    465     1  0.0000000  0.6508444  3
    460    459    461    463     1  0.0000000  0.6508444  3
    460    459    461    464     1  0.0000000  0.6508444  3
    461    465    466    476     1  0.0000000  1.2552000  3
    461    465    466    477     1  0.0000000  1.2552000  3
    461    465    467    468     1  0.0000000  1.2552000  3
    461    465    467    470     1  0.0000000  1.2552000  3
    462    459    461    465     1  0.0000000  0.6508444  3
    462    459    461    463     1  0.0000000  0.6508444  3
    462    459    461    464     1  0.0000000  0.6508444  3
    463    461    465    466     1  0.0000000  1.2552000  3
    463    461    465    467     1  0.0000000  1.2552000  3
    464    461    465    466     1  0.0000000  1.2552000  3
    464    461    465    467     1  0.0000000  1.2552000  3
    465    466    478    479     1  0.0000000  0.6508444  3
    465    466    478    480     1  0.0000000  0.6508444  3
    465    467    469    471     1  0.0000000  0.6508444  3
    465    467    469    472     1  0.0000000  0.6508444  3
    466    465    467    468     1  0.0000000  1.2552000  3
    466    465    467    470     1  0.0000000  1.2552000  3
    467    465    466    476     1  0.0000000  1.2552000  3
    467    465    466    477     1  0.0000000  1.2552000  3
    468    467    469    473     1  0.0000000  0.6508444  3
    468    467    469    471     1  0.0000000  0.6508444  3
    468    467    469    472     1  0.0000000  0.6508444  3
    469    473    474    484     1  180.0000771  9.6232000  2
    470    467    469    473     1  0.0000000  0.6508444  3
    470    467    469    471     1  0.0000000  0.6508444  3
    470    467    469    472     1  0.0000000  0.6508444  3
    471    469    473    474     1  180.0000771  0.0000000  2
    471    469    473    475     1  0.0000000  3.3472000  1
    471    469    473    475     1  0.0000000  0.0000000  2
    471    469    473    475     1  180.0000771  0.3347200  3
    472    469    473    474     1  180.0000771  0.0000000  2
    472    469    473    475     1  0.0000000  3.3472000  1
    472    469    473    475     1  0.0000000  0.0000000  2
    472    469    473    475     1  180.0000771  0.3347200  3
    475    473    474    484     1  0.0000000  7.9496000  1
    475    473    474    484     1  180.0000771  9.6232000  2
    476    466    478    481     1  0.0000000  0.6508444  3
    476    466    478    479     1  0.0000000  0.6508444  3
    476    466    478    480     1  0.0000000  0.6508444  3
    477    466    478    481     1  0.0000000  0.6508444  3
    477    466    478    479     1  0.0000000  0.6508444  3
    477    466    478    480     1  0.0000000  0.6508444  3
    478    481    483    485     1  180.0000771  9.6232000  2
    479    478    481    482     1  0.0000000  3.3472000  1
    479    478    481    482     1  0.0000000  0.0000000  2
    479    478    481    482     1  180.0000771  0.3347200  3
    479    478    481    483     1  180.0000771  0.0000000  2
    480    478    481    482     1  0.0000000  3.3472000  1
    480    478    481    482     1  0.0000000  0.0000000  2
    480    478    481    482     1  180.0000771  0.3347200  3
    480    478    481    483     1  180.0000771  0.0000000  2
    482    481    483    485     1  0.0000000  7.9496000  1
    482    481    483    485     1  180.0000771  9.6232000  2
    486    488    490    492     1  0.0000000  0.6508444  3
    486    488    490    493     1  0.0000000  0.6508444  3
    487    486    488    490     1  0.0000000  0.0000000  2
    487    486    488    489     1  0.0000000  0.0000000  2
    487    486    488    491     1  0.0000000  0.0000000  2
    489    488    490    494     1  0.0000000  0.6508444  3
    489    488    490    492     1  0.0000000  0.6508444  3
    489    488    490    493     1  0.0000000  0.6508444  3
    490    494    495    505     1  0.0000000  1.2552000  3
    490    494    495    506     1  0.0000000  1.2552000  3
    490    494    496    497     1  0.0000000  1.2552000  3
    490    494    496    499     1  0.0000000  1.2552000  3
    491    488    490    494     1  0.0000000  0.6508444  3
    491    488    490    492     1  0.0000000  0.6508444  3
    491    488    490    493     1  0.0000000  0.6508444  3
    492    490    494    495     1  0.0000000  1.2552000  3
    492    490    494    496     1  0.0000000  1.2552000  3
    493    490    494    495     1  0.0000000  1.2552000  3
    493    490    494    496     1  0.0000000  1.2552000  3
    494    495    507    508     1  0.0000000  0.6508444  3
    494    495    507    509     1  0.0000000  0.6508444  3
    494    496    498    500     1  0.0000000  0.6508444  3
    494    496    498    501     1  0.0000000  0.6508444  3
    495    494    496    497     1  0.0000000  1.2552000  3
    495    494    496    499     1  0.0000000  1.2552000  3
    496    494    495    505     1  0.0000000  1.2552000  3
    496    494    495    506     1  0.0000000  1.2552000  3
    497    496    498    502     1  0.0000000  0.6508444  3
    497    496    498    500     1  0.0000000  0.6508444  3
    497    496    498    501     1  0.0000000  0.6508444  3
    498    502    503    513     1  180.0000771  9.6232000  2
    499    496    498    502     1  0.0000000  0.6508444  3
    499    496    498    500     1  0.0000000  0.6508444  3
    499    496    498    501     1  0.0000000  0.6508444  3
    500    498    502    503     1  180.0000771  0.0000000  2
    500    498    502    504     1  0.0000000  3.3472000  1
    500    498    502    504     1  0.0000000  0.0000000  2
    500    498    502    504     1  180.0000771  0.3347200  3
    501    498    502    503     1  180.0000771  0.0000000  2
    501    498    502    504     1  0.0000000  3.3472000  1
    501    498    502    504     1  0.0000000  0.0000000  2
    501    498    502    504     1  180.0000771  0.3347200  3
    504    502    503    513     1  0.0000000  7.9496000  1
    504    502    503    513     1  180.0000771  9.6232000  2
    505    495    507    510     1  0.0000000  0.6508444  3
    505    495    507    508     1  0.0000000  0.6508444  3
    505    495    507    509     1  0.0000000  0.6508444  3
    506    495    507    510     1  0.0000000  0.6508444  3
    506    495    507    508     1  0.0000000  0.6508444  3
    506    495    507    509     1  0.0000000  0.6508444  3
    507    510    512    514     1  180.0000771  9.6232000  2
    508    507    510    511     1  0.0000000  3.3472000  1
    508    507    510    511     1  0.0000000  0.0000000  2
    508    507    510    511     1  180.0000771  0.3347200  3
    508    507    510    512     1  180.0000771  0.0000000  2
    509    507    510    511     1  0.0000000  3.3472000  1
    509    507    510    511     1  0.0000000  0.0000000  2
    509    507    510    511     1  180.0000771  0.3347200  3
    509    507    510    512     1  180.0000771  0.0000000  2
    511    510    512    514     1  0.0000000  7.9496000  1
    511    510    512    514     1  180.0000771  9.6232000  2
    515    517    519    521     1  0.0000000  0.6508444  3
    515    517    519    522     1  0.0000000  0.6508444  3
    516    515    517    519     1  0.0000000  0.0000000  2
    516    515    517    518     1  0.0000000  0.0000000  2
    516    515    517    520     1  0.0000000  0.0000000  2
    518    517    519    523     1  0.0000000  0.6508444  3
    518    517    519    521     1  0.0000000  0.6508444  3
    518    517    519    522     1  0.0000000  0.6508444  3
    519    523    524    534     1  0.0000000  1.2552000  3
    519    523    524    535     1  0.0000000  1.2552000  3
    519    523    525    526     1  0.0000000  1.2552000  3
    519    523    525    528     1  0.0000000  1.2552000  3
    520    517    519    523     1  0.0000000  0.6508444  3
    520    517    519    521     1  0.0000000  0.6508444  3
    520    517    519    522     1  0.0000000  0.6508444  3
    521    519    523    524     1  0.0000000  1.2552000  3
    521    519    523    525     1  0.0000000  1.2552000  3
    522    519    523    524     1  0.0000000  1.2552000  3
    522    519    523    525     1  0.0000000  1.2552000  3
    523    524    536    537     1  0.0000000  0.6508444  3
    523    524    536    538     1  0.0000000  0.6508444  3
    523    525    527    529     1  0.0000000  0.6508444  3
    523    525    527    530     1  0.0000000  0.6508444  3
    524    523    525    526     1  0.0000000  1.2552000  3
    524    523    525    528     1  0.0000000  1.2552000  3
    525    523    524    534     1  0.0000000  1.2552000  3
    525    523    524    535     1  0.0000000  1.2552000  3
    526    525    527    531     1  0.0000000  0.6508444  3
    526    525    527    529     1  0.0000000  0.6508444  3
    526    525    527    530     1  0.0000000  0.6508444  3
    527    531    532    542     1  180.0000771  9.6232000  2
    528    525    527    531     1  0.0000000  0.6508444  3
    528    525    527    529     1  0.0000000  0.6508444  3
    528    525    527    530     1  0.0000000  0.6508444  3
    529    527    531    532     1  180.0000771  0.0000000  2
    529    527    531    533     1  0.0000000  3.3472000  1
    529    527    531    533     1  0.0000000  0.0000000  2
    529    527    531    533     1  180.0000771  0.3347200  3
    530    527    531    532     1  180.0000771  0.0000000  2
    530    527    531    533     1  0.0000000  3.3472000  1
    530    527    531    533     1  0.0000000  0.0000000  2
    530    527    531    533     1  180.0000771  0.3347200  3
    533    531    532    542     1  0.0000000  7.9496000  1
    533    531    532    542     1  180.0000771  9.6232000  2
    534    524    536    539     1  0.0000000  0.6508444  3
    534    524    536    537     1  0.0000000  0.6508444  3
    534    524    536    538     1  0.0000000  0.6508444  3
    535    524    536    539     1  0.0000000  0.6508444  3
    535    524    536    537     1  0.0000000  0.6508444  3
    535    524    536    538     1  0.0000000  0.6508444  3
    536    539    541    543     1  180.0000771  9.6232000  2
    537    536    539    540     1  0.0000000  3.3472000  1
    537    536    539    540     1  0.0000000  0.0000000  2
    537    536    539    540     1  180.0000771  0.3347200  3
    537    536    539    541     1  180.0000771  0.0000000  2
    538    536    539    540     1  0.0000000  3.3472000  1
    538    536    539    540     1  0.0000000  0.0000000  2
    538    536    539    540     1  180.0000771  0.3347200  3
    538    536    539    541     1  180.0000771  0.0000000  2
    540    539    541    543     1  0.0000000  7.9496000  1
    540    539    541    543     1  180.0000771  9.6232000  2
    544    546    548    550     1  0.0000000  0.6508444  3
    544    546    548    551     1  0.0000000  0.6508444  3
    545    544    546    548     1  0.0000000  0.0000000  2
    545    544    546    547     1  0.0000000  0.0000000  2
    545    544    546    549     1  0.0000000  0.0000000  2
    547    546    548    552     1  0.0000000  0.6508444  3
    547    546    548    550     1  0.0000000  0.6508444  3
    547    546    548    551     1  0.0000000  0.6508444  3
    548    552    553    563     1  0.0000000  1.2552000  3
    548    552    553    564     1  0.0000000  1.2552000  3
    548    552    554    555     1  0.0000000  1.2552000  3
    548    552    554    557     1  0.0000000  1.2552000  3
    549    546    548    552     1  0.0000000  0.6508444  3
    549    546    548    550     1  0.0000000  0.6508444  3
    549    546    548    551     1  0.0000000  0.6508444  3
    550    548    552    553     1  0.0000000  1.2552000  3
    550    548    552    554     1  0.0000000  1.2552000  3
    551    548    552    553     1  0.0000000  1.2552000  3
    551    548    552    554     1  0.0000000  1.2552000  3
    552    553    565    566     1  0.0000000  0.6508444  3
    552    553    565    567     1  0.0000000  0.6508444  3
    552    554    556    558     1  0.0000000  0.6508444  3
    552    554    556    559     1  0.0000000  0.6508444  3
    553    552    554    555     1  0.0000000  1.2552000  3
    553    552    554    557     1  0.0000000  1.2552000  3
    554    552    553    563     1  0.0000000  1.2552000  3
    554    552    553    564     1  0.0000000  1.2552000  3
    555    554    556    560     1  0.0000000  0.6508444  3
    555    554    556    558     1  0.0000000  0.6508444  3
    555    554    556    559     1  0.0000000  0.6508444  3
    556    560    561    571     1  180.0000771  9.6232000  2
    557    554    556    560     1  0.0000000  0.6508444  3
    557    554    556    558     1  0.0000000  0.6508444  3
    557    554    556    559     1  0.0000000  0.6508444  3
    558    556    560    561     1  180.0000771  0.0000000  2
    558    556    560    562     1  0.0000000  3.3472000  1
    558    556    560    562     1  0.0000000  0.0000000  2
    558    556    560    562     1  180.0000771  0.3347200  3
    559    556    560    561     1  180.0000771  0.0000000  2
    559    556    560    562     1  0.0000000  3.3472000  1
    559    556    560    562     1  0.0000000  0.0000000  2
    559    556    560    562     1  180.0000771  0.3347200  3
    562    560    561    571     1  0.0000000  7.9496000  1
    562    560    561    571     1  180.0000771  9.6232000  2
    563    553    565    568     1  0.0000000  0.6508444  3
    563    553    565    566     1  0.0000000  0.6508444  3
    563    553    565    567     1  0.0000000  0.6508444  3
    564    553    565    568     1  0.0000000  0.6508444  3
    564    553    565    566     1  0.0000000  0.6508444  3
    564    553    565    567     1  0.0000000  0.6508444  3
    565    568    570    572     1  180.0000771  9.6232000  2
    566    565    568    569     1  0.0000000  3.3472000  1
    566    565    568    569     1  0.0000000  0.0000000  2
    566    565    568    569     1  180.0000771  0.3347200  3
    566    565    568    570     1  180.0000771  0.0000000  2
    567    565    568    569     1  0.0000000  3.3472000  1
    567    565    568    569     1  0.0000000  0.0000000  2
    567    565    568    569     1  180.0000771  0.3347200  3
    567    565    568    570     1  180.0000771  0.0000000  2
    569    568    570    572     1  0.0000000  7.9496000  1
    569    568    570    572     1  180.0000771  9.6232000  2
    573    575    577    579     1  0.0000000  0.6508444  3
    573    575    577    580     1  0.0000000  0.6508444  3
    574    573    575    577     1  0.0000000  0.0000000  2
    574    573    575    576     1  0.0000000  0.0000000  2
    574    573    575    578     1  0.0000000  0.0000000  2
    576    575    577    581     1  0.0000000  0.6508444  3
    576    575    577    579     1  0.0000000  0.6508444  3
    576    575    577    580     1  0.0000000  0.6508444  3
    577    581    582    592     1  0.0000000  1.2552000  3
    577    581    582    593     1  0.0000000  1.2552000  3
    577    581    583    584     1  0.0000000  1.2552000  3
    577    581    583    586     1  0.0000000  1.2552000  3
    578    575    577    581     1  0.0000000  0.6508444  3
    578    575    577    579     1  0.0000000  0.6508444  3
    578    575    577    580     1  0.0000000  0.6508444  3
    579    577    581    582     1  0.0000000  1.2552000  3
    579    577    581    583     1  0.0000000  1.2552000  3
    580    577    581    582     1  0.0000000  1.2552000  3
    580    577    581    583     1  0.0000000  1.2552000  3
    581    582    594    595     1  0.0000000  0.6508444  3
    581    582    594    596     1  0.0000000  0.6508444  3
    581    583    585    587     1  0.0000000  0.6508444  3
    581    583    585    588     1  0.0000000  0.6508444  3
    582    581    583    584     1  0.0000000  1.2552000  3
    582    581    583    586     1  0.0000000  1.2552000  3
    583    581    582    592     1  0.0000000  1.2552000  3
    583    581    582    593     1  0.0000000  1.2552000  3
    584    583    585    589     1  0.0000000  0.6508444  3
    584    583    585    587     1  0.0000000  0.6508444  3
    584    583    585    588     1  0.0000000  0.6508444  3
    585    589    590    600     1  180.0000771  9.6232000  2
    586    583    585    589     1  0.0000000  0.6508444  3
    586    583    585    587     1  0.0000000  0.6508444  3
    586    583    585    588     1  0.0000000  0.6508444  3
    587    585    589    590     1  180.0000771  0.0000000  2
    587    585    589    591     1  0.0000000  3.3472000  1
    587    585    589    591     1  0.0000000  0.0000000  2
    587    585    589    591     1  180.0000771  0.3347200  3
    588    585    589    590     1  180.0000771  0.0000000  2
    588    585    589    591     1  0.0000000  3.3472000  1
    588    585    589    591     1  0.0000000  0.0000000  2
    588    585    589    591     1  180.0000771  0.3347200  3
    591    589    590    600     1  0.0000000  7.9496000  1
    591    589    590    600     1  180.0000771  9.6232000  2
    592    582    594    597     1  0.0000000  0.6508444  3
    592    582    594    595     1  0.0000000  0.6508444  3
    592    582    594    596     1  0.0000000  0.6508444  3
    593    582    594    597     1  0.0000000  0.6508444  3
    593    582    594    595     1  0.0000000  0.6508444  3
    593    582    594    596     1  0.0000000  0.6508444  3
    594    597    599    601     1  180.0000771  9.6232000  2
    595    594    597    598     1  0.0000000  3.3472000  1
    595    594    597    598     1  0.0000000  0.0000000  2
    595    594    597    598     1  180.0000771  0.3347200  3
    595    594    597    599     1  180.0000771  0.0000000  2
    596    594    597    598     1  0.0000000  3.3472000  1
    596    594    597    598     1  0.0000000  0.0000000  2
    596    594    597    598     1  180.0000771  0.3347200  3
    596    594    597    599     1  180.0000771  0.0000000  2
    598    597    599    601     1  0.0000000  7.9496000  1
    598    597    599    601     1  180.0000771  9.6232000  2
    602    604    606    608     1  0.0000000  0.6508444  3
    602    604    606    609     1  0.0000000  0.6508444  3
    603    602    604    606     1  0.0000000  0.0000000  2
    603    602    604    605     1  0.0000000  0.0000000  2
    603    602    604    607     1  0.0000000  0.0000000  2
    605    604    606    610     1  0.0000000  0.6508444  3
    605    604    606    608     1  0.0000000  0.6508444  3
    605    604    606    609     1  0.0000000  0.6508444  3
    606    610    611    621     1  0.0000000  1.2552000  3
    606    610    611    622     1  0.0000000  1.2552000  3
    606    610    612    613     1  0.0000000  1.2552000  3
    606    610    612    615     1  0.0000000  1.2552000  3
    607    604    606    610     1  0.0000000  0.6508444  3
    607    604    606    608     1  0.0000000  0.6508444  3
    607    604    606    609     1  0.0000000  0.6508444  3
    608    606    610    611     1  0.0000000  1.2552000  3
    608    606    610    612     1  0.0000000  1.2552000  3
    609    606    610    611     1  0.0000000  1.2552000  3
    609    606    610    612     1  0.0000000  1.2552000  3
    610    611    623    624     1  0.0000000  0.6508444  3
    610    611    623    625     1  0.0000000  0.6508444  3
    610    612    614    616     1  0.0000000  0.6508444  3
    610    612    614    617     1  0.0000000  0.6508444  3
    611    610    612    613     1  0.0000000  1.2552000  3
    611    610    612    615     1  0.0000000  1.2552000  3
    612    610    611    621     1  0.0000000  1.2552000  3
    612    610    611    622     1  0.0000000  1.2552000  3
    613    612    614    618     1  0.0000000  0.6508444  3
    613    612    614    616     1  0.0000000  0.6508444  3
    613    612    614    617     1  0.0000000  0.6508444  3
    614    618    619    629     1  180.0000771  9.6232000  2
    615    612    614    618     1  0.0000000  0.6508444  3
    615    612    614    616     1  0.0000000  0.6508444  3
    615    612    614    617     1  0.0000000  0.6508444  3
    616    614    618    619     1  180.0000771  0.0000000  2
    616    614    618    620     1  0.0000000  3.3472000  1
    616    614    618    620     1  0.0000000  0.0000000  2
    616    614    618    620     1  180.0000771  0.3347200  3
    617    614    618    619     1  180.0000771  0.0000000  2
    617    614    618    620     1  0.0000000  3.3472000  1
    617    614    618    620     1  0.0000000  0.0000000  2
    617    614    618    620     1  180.0000771  0.3347200  3
    620    618    619    629     1  0.0000000  7.9496000  1
    620    618    619    629     1  180.0000771  9.6232000  2
    621    611    623    626     1  0.0000000  0.6508444  3
    621    611    623    624     1  0.0000000  0.6508444  3
    621    611    623    625     1  0.0000000  0.6508444  3
    622    611    623    626     1  0.0000000  0.6508444  3
    622    611    623    624     1  0.0000000  0.6508444  3
    622    611    623    625     1  0.0000000  0.6508444  3
    623    626    628    630     1  180.0000771  9.6232000  2
    624    623    626    627     1  0.0000000  3.3472000  1
    624    623    626    627     1  0.0000000  0.0000000  2
    624    623    626    627     1  180.0000771  0.3347200  3
    624    623    626    628     1  180.0000771  0.0000000  2
    625    623    626    627     1  0.0000000  3.3472000  1
    625    623    626    627     1  0.0000000  0.0000000  2
    625    623    626    627     1  180.0000771  0.3347200  3
    625    623    626    628     1  180.0000771  0.0000000  2
    627    626    628    630     1  0.0000000  7.9496000  1
    627    626    628    630     1  180.0000771  9.6232000  2
    631    633    635    637     1  0.0000000  0.6508444  3
    631    633    635    638     1  0.0000000  0.6508444  3
    632    631    633    635     1  0.0000000  0.0000000  2
    632    631    633    634     1  0.0000000  0.0000000  2
    632    631    633    636     1  0.0000000  0.0000000  2
    634    633    635    639     1  0.0000000  0.6508444  3
    634    633    635    637     1  0.0000000  0.6508444  3
    634    633    635    638     1  0.0000000  0.6508444  3
    635    639    640    650     1  0.0000000  1.2552000  3
    635    639    640    651     1  0.0000000  1.2552000  3
    635    639    641    642     1  0.0000000  1.2552000  3
    635    639    641    644     1  0.0000000  1.2552000  3
    636    633    635    639     1  0.0000000  0.6508444  3
    636    633    635    637     1  0.0000000  0.6508444  3
    636    633    635    638     1  0.0000000  0.6508444  3
    637    635    639    640     1  0.0000000  1.2552000  3
    637    635    639    641     1  0.0000000  1.2552000  3
    638    635    639    640     1  0.0000000  1.2552000  3
    638    635    639    641     1  0.0000000  1.2552000  3
    639    640    652    653     1  0.0000000  0.6508444  3
    639    640    652    654     1  0.0000000  0.6508444  3
    639    641    643    645     1  0.0000000  0.6508444  3
    639    641    643    646     1  0.0000000  0.6508444  3
    640    639    641    642     1  0.0000000  1.2552000  3
    640    639    641    644     1  0.0000000  1.2552000  3
    641    639    640    650     1  0.0000000  1.2552000  3
    641    639    640    651     1  0.0000000  1.2552000  3
    642    641    643    647     1  0.0000000  0.6508444  3
    642    641    643    645     1  0.0000000  0.6508444  3
    642    641    643    646     1  0.0000000  0.6508444  3
    643    647    648    658     1  180.0000771  9.6232000  2
    644    641    643    647     1  0.0000000  0.6508444  3
    644    641    643    645     1  0.0000000  0.6508444  3
    644    641    643    646     1  0.0000000  0.6508444  3
    645    643    647    648     1  180.0000771  0.0000000  2
    645    643    647    649     1  0.0000000  3.3472000  1
    645    643    647    649     1  0.0000000  0.0000000  2
    645    643    647    649     1  180.0000771  0.3347200  3
    646    643    647    648     1  180.0000771  0.0000000  2
    646    643    647    649     1  0.0000000  3.3472000  1
    646    643    647    649     1  0.0000000  0.0000000  2
    646    643    647    649     1  180.0000771  0.3347200  3
    649    647    648    658     1  0.0000000  7.9496000  1
    649    647    648    658     1  180.0000771  9.6232000  2
    650    640    652    655     1  0.0000000  0.6508444  3
    650    640    652    653     1  0.0000000  0.6508444  3
    650    640    652    654     1  0.0000000  0.6508444  3
    651    640    652    655     1  0.0000000  0.6508444  3
    651    640    652    653     1  0.0000000  0.6508444  3
    651    640    652    654     1  0.0000000  0.6508444  3
    652    655    657    659     1  180.0000771  9.6232000  2
    653    652    655    656     1  0.0000000  3.3472000  1
    653    652    655    656     1  0.0000000  0.0000000  2
    653    652    655    656     1  180.0000771  0.3347200  3
    653    652    655    657     1  180.0000771  0.0000000  2
    654    652    655    656     1  0.0000000  3.3472000  1
    654    652    655    656     1  0.0000000  0.0000000  2
    654    652    655    656     1  180.0000771  0.3347200  3
    654    652    655    657     1  180.0000771  0.0000000  2
    656    655    657    659     1  0.0000000  7.9496000  1
    656    655    657    659     1  180.0000771  9.6232000  2
    660    662    664    666     1  0.0000000  0.6508444  3
    660    662    664    667     1  0.0000000  0.6508444  3
    661    660    662    664     1  0.0000000  0.0000000  2
    661    660    662    663     1  0.0000000  0.0000000  2
    661    660    662    665     1  0.0000000  0.0000000  2
    663    662    664    668     1  0.0000000  0.6508444  3
    663    662    664    666     1  0.0000000  0.6508444  3
    663    662    664    667     1  0.0000000  0.6508444  3
    664    668    669    679     1  0.0000000  1.2552000  3
    664    668    669    680     1  0.0000000  1.2552000  3
    664    668    670    671     1  0.0000000  1.2552000  3
    664    668    670    673     1  0.0000000  1.2552000  3
    665    662    664    668     1  0.0000000  0.6508444  3
    665    662    664    666     1  0.0000000  0.6508444  3
    665    662    664    667     1  0.0000000  0.6508444  3
    666    664    668    669     1  0.0000000  1.2552000  3
    666    664    668    670     1  0.0000000  1.2552000  3
    667    664    668    669     1  0.0000000  1.2552000  3
    667    664    668    670     1  0.0000000  1.2552000  3
    668    669    681    682     1  0.0000000  0.6508444  3
    668    669    681    683     1  0.0000000  0.6508444  3
    668    670    672    674     1  0.0000000  0.6508444  3
    668    670    672    675     1  0.0000000  0.6508444  3
    669    668    670    671     1  0.0000000  1.2552000  3
    669    668    670    673     1  0.0000000  1.2552000  3
    670    668    669    679     1  0.0000000  1.2552000  3
    670    668    669    680     1  0.0000000  1.2552000  3
    671    670    672    676     1  0.0000000  0.6508444  3
    671    670    672    674     1  0.0000000  0.6508444  3
    671    670    672    675     1  0.0000000  0.6508444  3
    672    676    677    687     1  180.0000771  9.6232000  2
    673    670    672    676     1  0.0000000  0.6508444  3
    673    670    672    674     1  0.0000000  0.6508444  3
    673    670    672    675     1  0.0000000  0.6508444  3
    674    672    676    677     1  180.0000771  0.0000000  2
    674    672    676    678     1  0.0000000  3.3472000  1
    674    672    676    678     1  0.0000000  0.0000000  2
    674    672    676    678     1  180.0000771  0.3347200  3
    675    672    676    677     1  180.0000771  0.0000000  2
    675    672    676    678     1  0.0000000  3.3472000  1
    675    672    676    678     1  0.0000000  0.0000000  2
    675    672    676    678     1  180.0000771  0.3347200  3
    678    676    677    687     1  0.0000000  7.9496000  1
    678    676    677    687     1  180.0000771  9.6232000  2
    679    669    681    684     1  0.0000000  0.6508444  3
    679    669    681    682     1  0.0000000  0.6508444  3
    679    669    681    683     1  0.0000000  0.6508444  3
    680    669    681    684     1  0.0000000  0.6508444  3
    680    669    681    682     1  0.0000000  0.6508444  3
    680    669    681    683     1  0.0000000  0.6508444  3
    681    684    686    688     1  180.0000771  9.6232000  2
    682    681    684    685     1  0.0000000  3.3472000  1
    682    681    684    685     1  0.0000000  0.0000000  2
    682    681    684    685     1  180.0000771  0.3347200  3
    682    681    684    686     1  180.0000771  0.0000000  2
    683    681    684    685     1  0.0000000  3.3472000  1
    683    681    684    685     1  0.0000000  0.0000000  2
    683    681    684    685     1  180.0000771  0.3347200  3
    683    681    684    686     1  180.0000771  0.0000000  2
    685    684    686    688     1  0.0000000  7.9496000  1
    685    684    686    688     1  180.0000771  9.6232000  2
    689    691    693    695     1  0.0000000  0.6508444  3
    689    691    693    696     1  0.0000000  0.6508444  3
    690    689    691    693     1  0.0000000  0.0000000  2
    690    689    691    692     1  0.0000000  0.0000000  2
    690    689    691    694     1  0.0000000  0.0000000  2
    692    691    693    697     1  0.0000000  0.6508444  3
    692    691    693    695     1  0.0000000  0.6508444  3
    692    691    693    696     1  0.0000000  0.6508444  3
    693    697    698    708     1  0.0000000  1.2552000  3
    693    697    698    709     1  0.0000000  1.2552000  3
    693    697    699    700     1  0.0000000  1.2552000  3
    693    697    699    702     1  0.0000000  1.2552000  3
    694    691    693    697     1  0.0000000  0.6508444  3
    694    691    693    695     1  0.0000000  0.6508444  3
    694    691    693    696     1  0.0000000  0.6508444  3
    695    693    697    698     1  0.0000000  1.2552000  3
    695    693    697    699     1  0.0000000  1.2552000  3
    696    693    697    698     1  0.0000000  1.2552000  3
    696    693    697    699     1  0.0000000  1.2552000  3
    697    698    710    711     1  0.0000000  0.6508444  3
    697    698    710    712     1  0.0000000  0.6508444  3
    697    699    701    703     1  0.0000000  0.6508444  3
    697    699    701    704     1  0.0000000  0.6508444  3
    698    697    699    700     1  0.0000000  1.2552000  3
    698    697    699    702     1  0.0000000  1.2552000  3
    699    697    698    708     1  0.0000000  1.2552000  3
    699    697    698    709     1  0.0000000  1.2552000  3
    700    699    701    705     1  0.0000000  0.6508444  3
    700    699    701    703     1  0.0000000  0.6508444  3
    700    699    701    704     1  0.0000000  0.6508444  3
    701    705    706    716     1  180.0000771  9.6232000  2
    702    699    701    705     1  0.0000000  0.6508444  3
    702    699    701    703     1  0.0000000  0.6508444  3
    702    699    701    704     1  0.0000000  0.6508444  3
    703    701    705    706     1  180.0000771  0.0000000  2
    703    701    705    707     1  0.0000000  3.3472000  1
    703    701    705    707     1  0.0000000  0.0000000  2
    703    701    705    707     1  180.0000771  0.3347200  3
    704    701    705    706     1  180.0000771  0.0000000  2
    704    701    705    707     1  0.0000000  3.3472000  1
    704    701    705    707     1  0.0000000  0.0000000  2
    704    701    705    707     1  180.0000771  0.3347200  3
    707    705    706    716     1  0.0000000  7.9496000  1
    707    705    706    716     1  180.0000771  9.6232000  2
    708    698    710    713     1  0.0000000  0.6508444  3
    708    698    710    711     1  0.0000000  0.6508444  3
    708    698    710    712     1  0.0000000  0.6508444  3
    709    698    710    713     1  0.0000000  0.6508444  3
    709    698    710    711     1  0.0000000  0.6508444  3
    709    698    710    712     1  0.0000000  0.6508444  3
    710    713    715    717     1  180.0000771  9.6232000  2
    711    710    713    714     1  0.0000000  3.3472000  1
    711    710    713    714     1  0.0000000  0.0000000  2
    711    710    713    714     1  180.0000771  0.3347200  3
    711    710    713    715     1  180.0000771  0.0000000  2
    712    710    713    714     1  0.0000000  3.3472000  1
    712    710    713    714     1  0.0000000  0.0000000  2
    712    710    713    714     1  180.0000771  0.3347200  3
    712    710    713    715     1  180.0000771  0.0000000  2
    714    713    715    717     1  0.0000000  7.9496000  1
    714    713    715    717     1  180.0000771  9.6232000  2
    718    720    722    724     1  0.0000000  0.6508444  3
    718    720    722    725     1  0.0000000  0.6508444  3
    719    718    720    722     1  0.0000000  0.0000000  2
    719    718    720    721     1  0.0000000  0.0000000  2
    719    718    720    723     1  0.0000000  0.0000000  2
    721    720    722    726     1  0.0000000  0.6508444  3
    721    720    722    724     1  0.0000000  0.6508444  3
    721    720    722    725     1  0.0000000  0.6508444  3
    722    726    727    737     1  0.0000000  1.2552000  3
    722    726    727    738     1  0.0000000  1.2552000  3
    722    726    728    729     1  0.0000000  1.2552000  3
    722    726    728    731     1  0.0000000  1.2552000  3
    723    720    722    726     1  0.0000000  0.6508444  3
    723    720    722    724     1  0.0000000  0.6508444  3
    723    720    722    725     1  0.0000000  0.6508444  3
    724    722    726    727     1  0.0000000  1.2552000  3
    724    722    726    728     1  0.0000000  1.2552000  3
    725    722    726    727     1  0.0000000  1.2552000  3
    725    722    726    728     1  0.0000000  1.2552000  3
    726    727    739    740     1  0.0000000  0.6508444  3
    726    727    739    741     1  0.0000000  0.6508444  3
    726    728    730    732     1  0.0000000  0.6508444  3
    726    728    730    733     1  0.0000000  0.6508444  3
    727    726    728    729     1  0.0000000  1.2552000  3
    727    726    728    731     1  0.0000000  1.2552000  3
    728    726    727    737     1  0.0000000  1.2552000  3
    728    726    727    738     1  0.0000000  1.2552000  3
    729    728    730    734     1  0.0000000  0.6508444  3
    729    728    730    732     1  0.0000000  0.6508444  3
    729    728    730    733     1  0.0000000  0.6508444  3
    730    734    735    745     1  180.0000771  9.6232000  2
    731    728    730    734     1  0.0000000  0.6508444  3
    731    728    730    732     1  0.0000000  0.6508444  3
    731    728    730    733     1  0.0000000  0.6508444  3
    732    730    734    735     1  180.0000771  0.0000000  2
    732    730    734    736     1  0.0000000  3.3472000  1
    732    730    734    736     1  0.0000000  0.0000000  2
    732    730    734    736     1  180.0000771  0.3347200  3
    733    730    734    735     1  180.0000771  0.0000000  2
    733    730    734    736     1  0.0000000  3.3472000  1
    733    730    734    736     1  0.0000000  0.0000000  2
    733    730    734    736     1  180.0000771  0.3347200  3
    736    734    735    745     1  0.0000000  7.9496000  1
    736    734    735    745     1  180.0000771  9.6232000  2
    737    727    739    742     1  0.0000000  0.6508444  3
    737    727    739    740     1  0.0000000  0.6508444  3
    737    727    739    741     1  0.0000000  0.6508444  3
    738    727    739    742     1  0.0000000  0.6508444  3
    738    727    739    740     1  0.0000000  0.6508444  3
    738    727    739    741     1  0.0000000  0.6508444  3
    739    742    744    746     1  180.0000771  9.6232000  2
    740    739    742    743     1  0.0000000  3.3472000  1
    740    739    742    743     1  0.0000000  0.0000000  2
    740    739    742    743     1  180.0000771  0.3347200  3
    740    739    742    744     1  180.0000771  0.0000000  2
    741    739    742    743     1  0.0000000  3.3472000  1
    741    739    742    743     1  0.0000000  0.0000000  2
    741    739    742    743     1  180.0000771  0.3347200  3
    741    739    742    744     1  180.0000771  0.0000000  2
    743    742    744    746     1  0.0000000  7.9496000  1
    743    742    744    746     1  180.0000771  9.6232000  2
    747    749    751    753     1  0.0000000  0.6508444  3
    747    749    751    754     1  0.0000000  0.6508444  3
    748    747    749    751     1  0.0000000  0.0000000  2
    748    747    749    750     1  0.0000000  0.0000000  2
    748    747    749    752     1  0.0000000  0.0000000  2
    750    749    751    755     1  0.0000000  0.6508444  3
    750    749    751    753     1  0.0000000  0.6508444  3
    750    749    751    754     1  0.0000000  0.6508444  3
    751    755    756    766     1  0.0000000  1.2552000  3
    751    755    756    767     1  0.0000000  1.2552000  3
    751    755    757    758     1  0.0000000  1.2552000  3
    751    755    757    760     1  0.0000000  1.2552000  3
    752    749    751    755     1  0.0000000  0.6508444  3
    752    749    751    753     1  0.0000000  0.6508444  3
    752    749    751    754     1  0.0000000  0.6508444  3
    753    751    755    756     1  0.0000000  1.2552000  3
    753    751    755    757     1  0.0000000  1.2552000  3
    754    751    755    756     1  0.0000000  1.2552000  3
    754    751    755    757     1  0.0000000  1.2552000  3
    755    756    768    769     1  0.0000000  0.6508444  3
    755    756    768    770     1  0.0000000  0.6508444  3
    755    757    759    761     1  0.0000000  0.6508444  3
    755    757    759    762     1  0.0000000  0.6508444  3
    756    755    757    758     1  0.0000000  1.2552000  3
    756    755    757    760     1  0.0000000  1.2552000  3
    757    755    756    766     1  0.0000000  1.2552000  3
    757    755    756    767     1  0.0000000  1.2552000  3
    758    757    759    763     1  0.0000000  0.6508444  3
    758    757    759    761     1  0.0000000  0.6508444  3
    758    757    759    762     1  0.0000000  0.6508444  3
    759    763    764    774     1  180.0000771  9.6232000  2
    760    757    759    763     1  0.0000000  0.6508444  3
    760    757    759    761     1  0.0000000  0.6508444  3
    760    757    759    762     1  0.0000000  0.6508444  3
    761    759    763    764     1  180.0000771  0.0000000  2
    761    759    763    765     1  0.0000000  3.3472000  1
    761    759    763    765     1  0.0000000  0.0000000  2
    761    759    763    765     1  180.0000771  0.3347200  3
    762    759    763    764     1  180.0000771  0.0000000  2
    762    759    763    765     1  0.0000000  3.3472000  1
    762    759    763    765     1  0.0000000  0.0000000  2
    762    759    763    765     1  180.0000771  0.3347200  3
    765    763    764    774     1  0.0000000  7.9496000  1
    765    763    764    774     1  180.0000771  9.6232000  2
    766    756    768    771     1  0.0000000  0.6508444  3
    766    756    768    769     1  0.0000000  0.6508444  3
    766    756    768    770     1  0.0000000  0.6508444  3
    767    756    768    771     1  0.0000000  0.6508444  3
    767    756    768    769     1  0.0000000  0.6508444  3
    767    756    768    770     1  0.0000000  0.6508444  3
    768    771    773    775     1  180.0000771  9.6232000  2
    769    768    771    772     1  0.0000000  3.3472000  1
    769    768    771    772     1  0.0000000  0.0000000  2
    769    768    771    772     1  180.0000771  0.3347200  3
    769    768    771    773     1  180.0000771  0.0000000  2
    770    768    771    772     1  0.0000000  3.3472000  1
    770    768    771    772     1  0.0000000  0.0000000  2
    770    768    771    772     1  180.0000771  0.3347200  3
    770    768    771    773     1  180.0000771  0.0000000  2
    772    771    773    775     1  0.0000000  7.9496000  1
    772    771    773    775     1  180.0000771  9.6232000  2
    776    778    780    782     1  0.0000000  0.6508444  3
    776    778    780    783     1  0.0000000  0.6508444  3
    777    776    778    780     1  0.0000000  0.0000000  2
    777    776    778    779     1  0.0000000  0.0000000  2
    777    776    778    781     1  0.0000000  0.0000000  2
    779    778    780    784     1  0.0000000  0.6508444  3
    779    778    780    782     1  0.0000000  0.6508444  3
    779    778    780    783     1  0.0000000  0.6508444  3
    780    784    785    795     1  0.0000000  1.2552000  3
    780    784    785    796     1  0.0000000  1.2552000  3
    780    784    786    787     1  0.0000000  1.2552000  3
    780    784    786    789     1  0.0000000  1.2552000  3
    781    778    780    784     1  0.0000000  0.6508444  3
    781    778    780    782     1  0.0000000  0.6508444  3
    781    778    780    783     1  0.0000000  0.6508444  3
    782    780    784    785     1  0.0000000  1.2552000  3
    782    780    784    786     1  0.0000000  1.2552000  3
    783    780    784    785     1  0.0000000  1.2552000  3
    783    780    784    786     1  0.0000000  1.2552000  3
    784    785    797    798     1  0.0000000  0.6508444  3
    784    785    797    799     1  0.0000000  0.6508444  3
    784    786    788    790     1  0.0000000  0.6508444  3
    784    786    788    791     1  0.0000000  0.6508444  3
    785    784    786    787     1  0.0000000  1.2552000  3
    785    784    786    789     1  0.0000000  1.2552000  3
    786    784    785    795     1  0.0000000  1.2552000  3
    786    784    785    796     1  0.0000000  1.2552000  3
    787    786    788    792     1  0.0000000  0.6508444  3
    787    786    788    790     1  0.0000000  0.6508444  3
    787    786    788    791     1  0.0000000  0.6508444  3
    788    792    793    803     1  180.0000771  9.6232000  2
    789    786    788    792     1  0.0000000  0.6508444  3
    789    786    788    790     1  0.0000000  0.6508444  3
    789    786    788    791     1  0.0000000  0.6508444  3
    790    788    792    793     1  180.0000771  0.0000000  2
    790    788    792    794     1  0.0000000  3.3472000  1
    790    788    792    794     1  0.0000000  0.0000000  2
    790    788    792    794     1  180.0000771  0.3347200  3
    791    788    792    793     1  180.0000771  0.0000000  2
    791    788    792    794     1  0.0000000  3.3472000  1
    791    788    792    794     1  0.0000000  0.0000000  2
    791    788    792    794     1  180.0000771  0.3347200  3
    794    792    793    803     1  0.0000000  7.9496000  1
    794    792    793    803     1  180.0000771  9.6232000  2
    795    785    797    800     1  0.0000000  0.6508444  3
    795    785    797    798     1  0.0000000  0.6508444  3
    795    785    797    799     1  0.0000000  0.6508444  3
    796    785    797    800     1  0.0000000  0.6508444  3
    796    785    797    798     1  0.0000000  0.6508444  3
    796    785    797    799     1  0.0000000  0.6508444  3
    797    800    802    804     1  180.0000771  9.6232000  2
    798    797    800    801     1  0.0000000  3.3472000  1
    798    797    800    801     1  0.0000000  0.0000000  2
    798    797    800    801     1  180.0000771  0.3347200  3
    798    797    800    802     1  180.0000771  0.0000000  2
    799    797    800    801     1  0.0000000  3.3472000  1
    799    797    800    801     1  0.0000000  0.0000000  2
    799    797    800    801     1  180.0000771  0.3347200  3
    799    797    800    802     1  180.0000771  0.0000000  2
    801    800    802    804     1  0.0000000  7.9496000  1
    801    800    802    804     1  180.0000771  9.6232000  2
     33     44     64     65     4  180.0000771  4.6024000  2
     34     69     89     90     4  180.0000771  4.6024000  2
     35     94    114    115     4  180.0000771  4.6024000  2
     36    119    139    140     4  180.0000771  4.6024000  2
     60    144    164    165     4  180.0000771  4.6024000  2
     61    169    189    190     4  180.0000771  4.6024000  2
     85    194    214    215     4  180.0000771  4.6024000  2
     86    219    239    240     4  180.0000771  4.6024000  2
    110    244    264    265     4  180.0000771  4.6024000  2
    111    269    289    290     4  180.0000771  4.6024000  2
    135    294    314    315     4  180.0000771  4.6024000  2
    136    319    339    340     4  180.0000771  4.6024000  2
    160    343    341    342     4  180.0000771  4.6024000  2
    161    372    370    371     4  180.0000771  4.6024000  2
    185    401    399    400     4  180.0000771  4.6024000  2
    186    430    428    429     4  180.0000771  4.6024000  2
    210    459    457    458     4  180.0000771  4.6024000  2
    211    488    486    487     4  180.0000771  4.6024000  2
    235    517    515    516     4  180.0000771  4.6024000  2
    236    546    544    545     4  180.0000771  4.6024000  2
    260    575    573    574     4  180.0000771  4.6024000  2
    261    604    602    603     4  180.0000771  4.6024000  2
    285    633    631    632     4  180.0000771  4.6024000  2
    286    662    660    661     4  180.0000771  4.6024000  2
    310    691    689    690     4  180.0000771  4.6024000  2
    311    720    718    719     4  180.0000771  4.6024000  2
    335    749    747    748     4  180.0000771  4.6024000  2
    336    778    776    777     4  180.0000771  4.6024000  2

;[ system ]
;; Name
;Generic title
;
;[ molecules ]
;; Compound       #mols
;system1              1
