G2.5cooh-PAMAM in water
30788
    1aaa     C1    1   2.543   2.920   0.900  0.7168  0.0167  0.9258
    1aaa     H1    2   2.621   2.842   0.908  1.6911  1.0080  1.1588
    1aaa     H2    3   2.519   2.939   0.794 -2.3000  0.1625  1.5924
    1aaa     C2    4   2.597   3.057   0.949  0.1771  0.3878 -0.4274
    1aaa     H3    5   2.550   3.132   0.884  1.1325 -0.6063 -2.2952
    1aaa     H4    6   2.567   3.075   1.053 -0.6245 -0.1153 -0.5635
    1aaa     N1    7   2.745   3.078   0.937  0.0600  0.1089 -0.4451
    1aaa     N2    8   2.421   2.873   0.972 -0.0734  0.6049 -0.3160
    1aaa     C3    9   2.394   2.728   0.958 -0.6214 -0.2397 -0.1036
    1aaa     H5   10   2.448   2.687   0.872  1.1922  0.6611  0.5836
    1aaa     H6   11   2.287   2.707   0.939 -0.0755 -1.8158 -1.6849
    1aaa     C4   12   2.305   2.954   0.942 -0.0816 -0.1084  0.1541
    1aaa     H7   13   2.335   3.059   0.946  0.7713 -0.3992  1.5303
    1aaa     H8   14   2.263   2.929   0.843  1.4171  0.3865 -0.6226
    1aaa     C5   15   2.807   3.061   0.805  0.3948 -0.5232 -0.0779
    1aaa     H9   16   2.913   3.089   0.808  0.0656  1.0217 -1.7987
    1aaa    H10   17   2.795   2.958   0.767  1.0369 -1.0520  1.1358
    1aaa     C6   18   2.812   2.992   1.034  0.1115  0.2356  0.1969
    1aaa    H11   19   2.829   2.891   0.997  0.7926  0.5684 -0.4098
    1aaa    H12   20   2.753   2.985   1.126  1.3664  2.4002  1.2094
    1aaa     C7   21   2.745   3.154   0.701  0.4024  0.4019 -0.2078
    1aaa    H13   22   2.646   3.121   0.666  0.2744  0.6417 -0.0772
    1aaa    H14   23   2.729   3.250   0.752  2.3622  1.0565 -0.7921
    1aaa     C8   24   2.944   3.054   1.088  0.7590  0.6711  0.1593
    1aaa    H15   25   3.009   3.058   1.000  1.2693  1.2406  0.5620
    1aaa    H16   26   2.924   3.155   1.125  2.1895  0.5823  1.2181
    1aaa     C9   27   2.205   2.941   1.060 -0.3201 -0.0228 -0.5815
    1aaa    H17   28   2.145   2.851   1.039 -1.0051  0.5250 -0.9994
    1aaa    H18   29   2.258   2.919   1.153 -1.2172  1.2115  0.2175
    1aaa    C10   30   2.444   2.643   1.082  0.3115  0.4255  0.6128
    1aaa    H19   31   2.553   2.636   1.071  0.3252  0.5794  0.6482
    1aaa    H20   32   2.410   2.698   1.171 -1.7197  0.6243 -0.2604
    1aaa    C11   33   2.117   3.053   1.075 -0.3742  0.2116 -0.0931
    1aaa    C12   34   2.383   2.502   1.074 -0.1106  0.0782  0.3785
    1aaa    C13   35   2.829   3.179   0.576 -0.0435 -0.4600 -0.1920
    1aaa    C14   36   3.004   2.977   1.194 -0.6368  0.9623  0.3816
    1aaa     O1   37   1.998   3.036   1.072 -0.2098  0.1031  0.0297
    1aaa     O2   38   2.953   3.171   0.589  0.5678 -0.3928  0.0018
    1aaa     O3   39   2.998   3.011   1.310 -0.5265 -0.2058 -0.0111
    1aaa     O4   40   2.277   2.482   1.135  0.2343  0.2078 -0.0051
    2bbb     C1   41   2.064   3.387   1.044  0.5792  0.1032 -0.2016
    2bbb     H1   42   1.985   3.345   0.980 -0.7727 -2.0213  2.7517
    2bbb     H2   43   2.153   3.403   0.981 -0.6441  1.2088 -1.7048
    2bbb     C2   44   2.104   3.288   1.150 -0.3611  0.0981  0.1593
    2bbb     H3   45   2.168   3.339   1.223  0.2272  2.1567 -1.7529
    2bbb     H4   46   2.011   3.255   1.197 -0.1375  0.8724  1.1563
    2bbb     N1   47   2.016   3.520   1.089 -0.7394  0.1650 -0.4226
    2bbb     C3   48   2.008   3.623   0.986  0.7589  0.9756  0.2281
    2bbb     H5   49   1.919   3.592   0.931  2.0035 -0.9568 -0.7467
    2bbb     H6   50   2.099   3.613   0.925 -0.1111 -0.3215 -0.8946
    2bbb     C4   51   1.898   3.512   1.178  0.4199 -0.3573  0.6925
    2bbb     H7   52   1.815   3.576   1.147  0.5099 -0.9597 -0.8133
    2bbb     H8   53   1.858   3.411   1.164 -0.6478 -0.0646  1.5540
    2bbb     C5   54   1.953   3.545   1.315 -0.2232 -0.0450 -0.0163
    2bbb     H9   55   2.051   3.502   1.342 -1.8009 -3.2296  0.9709
    2bbb    H10   56   1.949   3.654   1.323  0.2037 -0.0124 -0.2471
    2bbb     C6   57   1.997   3.765   1.047  0.4499  0.7801 -0.6362
    2bbb    H11   58   1.903   3.781   1.101  0.8444 -1.6359  0.8514
    2bbb    H12   59   2.076   3.780   1.122 -0.2673  0.9224  0.1056
    2bbb     C7   60   1.843   3.502   1.408 -0.4422 -0.0433 -0.4182
    2bbb     C8   61   2.020   3.870   0.940 -0.1563  0.0256 -0.7461
    2bbb     O1   62   1.731   3.551   1.399  0.6146  0.1548  0.1676
    2bbb     O2   63   1.936   3.887   0.853  0.0464 -0.2389  0.6829
    2bbb     N4   64   2.179   3.171   1.104  0.3302  0.5829  0.5940
    2bbb    H21   65   2.280   3.172   1.116  0.4545  0.7413 -0.4146
    3bbb     C1   66   2.334   2.319   0.762  0.5323  0.0888 -0.0426
    3bbb     H1   67   2.271   2.242   0.716  1.5209 -0.5133 -0.3942
    3bbb     H2   68   2.430   2.300   0.713 -0.0699 -1.6587 -0.6000
    3bbb     C2   69   2.361   2.307   0.921 -0.0691  0.1485  0.2969
    3bbb     H3   70   2.260   2.302   0.961 -0.1067 -2.0104  0.0162
    3bbb     H4   71   2.402   2.209   0.949  0.8523  0.5986  0.5644
    3bbb     N1   72   2.284   2.455   0.727  0.5150 -0.2103 -0.1266
    3bbb     C3   73   2.145   2.458   0.757 -0.5819  0.0519 -0.2771
    3bbb     H5   74   2.128   2.423   0.860 -1.2342  3.4175  0.8294
    3bbb     H6   75   2.096   2.394   0.683 -0.3508 -1.3310  0.7581
    3bbb     C4   76   2.306   2.482   0.581 -0.8091 -0.0361 -0.3755
    3bbb     H7   77   2.293   2.396   0.515 -2.4643  0.2187 -0.4066
    3bbb     H8   78   2.235   2.558   0.547  1.4815  1.0014 -2.9751
    3bbb     C5   79   2.444   2.545   0.563 -0.3967 -0.0468 -0.6101
    3bbb     H9   80   2.469   2.604   0.652 -0.8409 -0.3826 -0.2622
    3bbb    H10   81   2.521   2.467   0.572 -1.5446 -1.2254 -0.8243
    3bbb     C6   82   2.083   2.598   0.748 -0.5150  0.1227 -0.5670
    3bbb    H11   83   2.114   2.654   0.837 -0.0893  2.2823 -2.0223
    3bbb    H12   84   2.113   2.664   0.665 -1.9961  1.4027 -0.1087
    3bbb     C7   85   2.441   2.623   0.436  0.0494  0.4583  1.1807
    3bbb     C8   86   1.931   2.578   0.750  0.3210  0.2152 -0.2810
    3bbb     O1   87   2.347   2.627   0.359  0.2784  0.7873 -0.3260
    3bbb     O2   88   1.881   2.513   0.838 -0.5048 -0.0309 -0.0836
    3bbb     N4   89   2.441   2.417   0.983 -0.3044  0.5396 -0.8608
    3bbb    H21   90   2.526   2.452   0.940 -0.0967  0.7850 -0.2583
    4bbb     C1   91   2.711   3.345   0.251 -0.2781  0.6761 -0.7040
    4bbb     H1   92   2.609   3.305   0.258 -0.4915  1.6562  2.5736
    4bbb     H2   93   2.747   3.338   0.147  0.3502 -0.2698 -0.4284
    4bbb     C2   94   2.818   3.263   0.338 -0.5427 -0.3922 -0.0738
    4bbb     H3   95   2.853   3.177   0.280  0.3413 -1.7777  2.4468
    4bbb     H4   96   2.906   3.329   0.346 -0.1218 -0.6530 -2.3697
    4bbb     N1   97   2.728   3.482   0.300 -0.3049 -0.6533  0.0786
    4bbb     C3   98   2.599   3.554   0.302  0.4661 -0.5185 -0.0790
    4bbb     H5   99   2.551   3.537   0.205  1.2659 -0.9223 -0.4033
    4bbb     H6  100   2.615   3.661   0.324 -1.4375 -0.5748  1.6909
    4bbb     C4  101   2.843   3.555   0.247 -0.6284  0.0646  0.0253
    4bbb     H7  102   2.921   3.485   0.214 -2.1193 -1.4486 -0.3802
    4bbb     H8  103   2.807   3.613   0.162 -0.3832  1.5291  0.9057
    4bbb     C5  104   2.897   3.655   0.344 -0.1503  0.1613 -0.2812
    4bbb     H9  105   2.942   3.731   0.279  0.9726 -1.2975 -1.2509
    4bbb    H10  106   2.819   3.710   0.399  1.6165  3.0586 -0.6022
    4bbb     C6  107   2.514   3.499   0.414  0.2705  0.3755  0.0637
    4bbb    H11  108   2.422   3.558   0.415  0.0888  0.1136 -0.8942
    4bbb    H12  109   2.489   3.393   0.396 -0.8929  0.2557  2.1969
    4bbb     C7  110   3.008   3.594   0.426  0.4140 -0.0842  0.0986
    4bbb     C8  111   2.575   3.520   0.551 -0.2070  0.4718  0.4973
    4bbb     O1  112   3.128   3.595   0.397  0.4886 -0.0224 -0.5537
    4bbb     O2  113   2.658   3.607   0.579 -0.3478 -0.5453  0.2790
    4bbb     N4  114   2.767   3.188   0.454 -0.5941  0.1473 -0.1496
    4bbb    H21  115   2.667   3.172   0.452 -0.4313 -0.8344 -2.5347
    5bbb     C1  116   3.053   2.620   1.188 -0.3004 -0.2065  0.0040
    5bbb     H1  117   3.091   2.544   1.258 -1.5260  0.1431  1.0533
    5bbb     H2  118   3.088   2.595   1.087 -0.3279  0.9161 -0.2921
    5bbb     C2  119   3.118   2.757   1.232 -0.2093 -0.5065 -0.4065
    5bbb     H3  120   3.094   2.774   1.337 -3.4746  0.1571 -1.2288
    5bbb     H4  121   3.227   2.742   1.230 -0.3251 -1.5096  0.2948
    5bbb     N1  122   2.909   2.626   1.203 -0.1773  0.3045 -0.3464
    5bbb     C3  123   2.869   2.629   1.350 -0.0577  0.2872  0.1853
    5bbb     H5  124   2.950   2.660   1.417 -2.2641 -0.9474  3.5510
    5bbb     H6  125   2.838   2.530   1.387  0.9732 -0.0236  0.2374
    5bbb     C4  126   2.837   2.523   1.119  0.3945  0.0284 -0.2700
    5bbb     H7  127   2.893   2.429   1.132  0.3545 -0.2656 -2.1859
    5bbb     H8  128   2.731   2.520   1.144  0.1356 -0.4349 -1.3982
    5bbb     C5  129   2.836   2.578   0.975  0.0202 -0.5003  0.6648
    5bbb     H9  130   2.805   2.681   0.958  1.2170 -0.2232  0.1017
    5bbb    H10  131   2.938   2.572   0.933 -0.2793  1.3582 -0.3769
    5bbb     C6  132   2.754   2.723   1.372 -0.0588  0.1460  0.6580
    5bbb    H11  133   2.784   2.822   1.336  1.3734  0.2824  2.2028
    5bbb    H12  134   2.672   2.698   1.304 -1.3589  0.0457  2.2311
    5bbb     C7  135   2.749   2.496   0.882 -0.9176 -0.5500  0.1018
    5bbb     C8  136   2.702   2.726   1.515  0.3327 -0.8715 -0.1549
    5bbb     O1  137   2.647   2.539   0.837 -0.7023 -0.2182 -0.1867
    5bbb     O2  138   2.759   2.675   1.611  0.4519 -0.4207 -0.2114
    5bbb     N4  139   3.078   2.873   1.148 -0.4786 -0.2816 -0.0441
    5bbb    H21  140   3.095   2.866   1.048 -1.0437 -0.0376 -0.1531
    6bbb     C1  141   1.675   3.231   1.509  0.7964  0.2538  0.4533
    6bbb     H1  142   1.661   3.270   1.408 -0.5728  2.4067  1.4367
    6bbb     H2  143   1.579   3.229   1.563  0.1524  0.0523 -0.6870
    6bbb     C2  144   1.766   3.334   1.577  0.1129  0.6520 -0.4384
    6bbb     H3  145   1.701   3.412   1.618 -1.7013 -1.4399  0.7258
    6bbb     H4  146   1.824   3.298   1.663  1.0386  0.4312 -1.1472
    6bbb     N1  147   1.749   3.101   1.515  0.0084 -0.0179  0.2733
    6bbb     C3  148   1.709   2.998   1.416 -0.1368 -0.2671  0.3736
    6bbb     H5  149   1.600   2.987   1.418 -0.1037 -1.5297 -2.2304
    6bbb     H6  150   1.753   2.900   1.439 -0.9079 -1.7479 -3.9213
    6bbb     C4  151   1.731   3.040   1.648  0.2955  0.6050  0.6870
    6bbb     H7  152   1.728   3.111   1.731  0.1969 -0.2631  1.4267
    6bbb     H8  153   1.636   2.985   1.655 -0.0392  1.0848  0.0119
    6bbb     C5  154   1.849   2.948   1.692  0.2522  0.5201  0.2283
    6bbb     H9  155   1.879   2.877   1.614  1.2678  2.5165 -1.2447
    6bbb    H10  156   1.925   3.025   1.710 -1.2208  1.5177  2.4323
    6bbb     C6  157   1.742   3.040   1.273  0.2722 -0.0393 -0.6158
    6bbb    H11  158   1.706   3.142   1.255  3.0080  1.0942 -0.0508
    6bbb    H12  159   1.852   3.047   1.267  0.2831 -0.1183 -0.5076
    6bbb     C7  160   1.817   2.879   1.825  0.5216  0.5372  0.1001
    6bbb     C8  161   1.686   2.938   1.182  0.1021 -0.3601 -0.4618
    6bbb     O1  162   1.825   2.940   1.929  0.3183  0.7655 -0.1729
    6bbb     O2  163   1.579   2.889   1.193 -0.1868 -0.2234 -0.0107
    6bbb     N4  164   1.870   3.393   1.483 -0.5243 -0.4803 -0.4122
    6bbb    H21  165   1.962   3.355   1.468  0.4824  1.9724 -0.6518
    7bbb     C1  166   2.321   4.063   0.832 -0.3770  0.7091  0.2950
    7bbb     H1  167   2.362   4.111   0.922  1.0418  0.1636 -0.0463
    7bbb     H2  168   2.338   4.136   0.752 -1.5257 -1.2311 -1.7763
    7bbb     C2  169   2.167   4.054   0.845 -0.2349  0.7475 -0.4178
    7bbb     H3  170   2.134   4.148   0.890 -0.7568  0.3092  0.1118
    7bbb     H4  171   2.130   4.036   0.743 -0.3599 -2.4620  0.1416
    7bbb     N1  172   2.392   3.935   0.809  0.1962  0.2725 -0.2888
    7bbb     C3  173   2.363   3.870   0.676 -0.3107  0.0619  0.3554
    7bbb     H5  174   2.258   3.874   0.645 -0.4859  1.1296  1.0578
    7bbb     H6  175   2.400   3.767   0.678 -0.6295 -0.0323  2.3754
    7bbb     C4  176   2.533   3.958   0.851 -0.0130 -0.2141  0.1877
    7bbb     H7  177   2.575   4.029   0.779  0.4548  0.4496  1.1065
    7bbb     H8  178   2.536   3.989   0.956 -0.8198 -1.6351  0.6406
    7bbb     C5  179   2.615   3.829   0.837 -0.0709 -0.5512  0.4343
    7bbb     H9  180   2.596   3.762   0.922  0.6988 -0.1979  0.8899
    7bbb    H10  181   2.590   3.775   0.745  1.5719  2.2263 -1.7359
    7bbb     C6  182   2.441   3.927   0.557 -0.5300  0.0786 -0.1491
    7bbb    H11  183   2.411   4.032   0.542  0.6333  0.1886 -1.9758
    7bbb    H12  184   2.550   3.940   0.567 -0.2642 -1.0881 -1.2861
    7bbb     C7  185   2.762   3.844   0.837  0.0632  0.3912  0.5646
    7bbb     C8  186   2.403   3.857   0.426 -0.0653 -0.3493  0.4432
    7bbb     O1  187   2.823   3.867   0.937  0.2245  0.1866 -0.1436
    7bbb     O2  188   2.316   3.776   0.414  0.2624  0.7820  0.4219
    7bbb     N4  189   2.133   3.947   0.943 -0.3657 -0.4549  0.1334
    7bbb    H21  190   2.194   3.915   1.018 -2.4809  0.7021  2.4480
    8bbb     C1  191   2.622   2.887   0.276  0.1295  0.1463  0.0954
    8bbb     H1  192   2.626   2.921   0.381 -0.5181  0.4553  0.0252
    8bbb     H2  193   2.546   2.956   0.239  1.5492  1.2333 -0.8629
    8bbb     C2  194   2.593   2.737   0.273  0.6285 -0.9722  0.2807
    8bbb     H3  195   2.497   2.723   0.221 -0.7412 -1.5935  2.8694
    8bbb     H4  196   2.675   2.679   0.229  1.3496 -0.0627  0.4028
    8bbb     N1  197   2.742   2.928   0.203 -0.3779  0.3401 -0.1250
    8bbb     C3  198   2.716   2.910   0.063 -0.3436 -0.3889  0.4687
    8bbb     H5  199   2.607   2.898   0.051 -0.0880 -2.9171  0.4276
    8bbb     H6  200   2.776   2.827   0.026  2.0109 -0.4951  4.2789
    8bbb     C4  201   2.860   2.871   0.270  0.1827 -0.2878  0.6123
    8bbb     H7  202   2.869   2.907   0.373  0.1172  0.8742  0.2112
    8bbb     H8  203   2.850   2.763   0.284  1.3371 -0.6453 -1.1064
    8bbb     C5  204   2.992   2.907   0.203 -0.7153 -1.2484  0.0312
    8bbb     H9  205   2.981   2.870   0.100  1.3299  1.2776 -1.1748
    8bbb    H10  206   3.005   3.016   0.198  0.2238 -1.2949  1.2912
    8bbb     C6  207   2.767   3.037  -0.002  0.1594 -0.2673 -0.1259
    8bbb    H11  208   2.701   3.117   0.035 -0.1023  0.1790 -1.5557
    8bbb    H12  209   2.868   3.056   0.037  1.5216 -1.2643 -3.0978
    8bbb     C7  210   3.111   2.829   0.261  0.0562 -0.2070 -0.6511
    8bbb     C8  211   2.769   3.041  -0.152 -0.0858  0.5264  1.0699
    8bbb     O1  212   3.097   2.738   0.339 -0.2062 -0.6063  0.0359
    8bbb     O2  213   2.734   2.950  -0.224 -0.1259 -0.5668  0.2282
    8bbb     N4  214   2.564   2.676   0.408 -0.6062  0.4157  0.0407
    8bbb    H21  215   2.629   2.673   0.485 -1.3464  2.4019  0.7852
    9bbb     C1  216   1.754   2.419   0.501 -0.2237  0.5273 -0.4214
    9bbb     H1  217   1.669   2.407   0.434  0.6676 -0.8293 -1.3297
    9bbb     H2  218   1.764   2.335   0.571 -0.5079 -1.3166 -2.5504
    9bbb     C2  219   1.734   2.552   0.579 -0.2704 -0.4169 -0.4445
    9bbb     H3  220   1.684   2.623   0.511 -0.2976  0.3938  0.4083
    9bbb     H4  221   1.661   2.526   0.656  0.2042  1.0956  0.5476
    9bbb     N1  222   1.877   2.418   0.421  0.4425  0.5572 -0.2888
    9bbb     C3  223   1.880   2.516   0.311 -0.0629 -0.1778 -0.2870
    9bbb     H5  224   1.827   2.608   0.338  0.3711  0.4248 -1.4556
    9bbb     H6  225   1.834   2.473   0.222 -1.2679  1.3967 -0.4352
    9bbb     C4  226   1.902   2.281   0.382 -0.1899 -0.3236  0.3270
    9bbb     H7  227   1.813   2.223   0.356  0.4819 -1.4226  0.4510
    9bbb     H8  228   1.971   2.277   0.297  2.1048  2.6784  1.9425
    9bbb     C5  229   1.973   2.213   0.498  0.0457 -0.9924 -0.6987
    9bbb     H9  230   2.077   2.248   0.504  0.5725 -2.4673 -1.1267
    9bbb    H10  231   1.921   2.233   0.592  1.7694  1.5507 -0.2286
    9bbb     C6  232   2.023   2.544   0.278  0.6228 -0.4665 -0.1511
    9bbb    H11  233   2.091   2.554   0.364 -1.7446  1.9494  1.5355
    9bbb    H12  234   2.060   2.466   0.211  2.9383  0.0573  0.4636
    9bbb     C7  235   2.001   2.074   0.468  0.4027  0.5227 -0.3927
    9bbb     C8  236   2.021   2.662   0.188  0.0147  0.1542 -0.0699
    9bbb     O1  237   2.030   2.029   0.356  0.0793 -0.0109 -0.1328
    9bbb     O2  238   1.941   2.689   0.103  0.1521 -0.2794 -0.3529
    9bbb     N4  239   1.864   2.614   0.636  0.3711  0.3748 -1.0303
    9bbb    H21  240   1.928   2.651   0.567  0.2015  2.7053  0.0041
   10bbb     C1  241   2.955   3.451   0.771 -0.1522  0.8211 -0.0785
   10bbb     H1  242   2.892   3.366   0.741  2.0423  0.2387 -3.3077
   10bbb     H2  243   2.889   3.538   0.782  0.5201  1.0077  2.9527
   10bbb     C2  244   3.046   3.488   0.650  0.0772  0.2411 -0.0475
   10bbb     H3  245   3.120   3.567   0.668 -0.9299  1.7125 -2.2372
   10bbb     H4  246   3.093   3.395   0.615 -1.3747  0.0028 -1.4243
   10bbb     N1  247   3.037   3.421   0.897 -0.4726  0.0474 -0.6879
   10bbb     C3  248   3.111   3.293   0.878  0.9377 -0.7636 -0.5692
   10bbb     H5  249   3.172   3.294   0.787  1.7066  1.9752 -0.0611
   10bbb     H6  250   3.038   3.211   0.882  1.2439 -0.9795  1.0174
   10bbb     C4  251   2.952   3.431   1.022  0.4643 -0.2881 -0.1809
   10bbb     H7  252   2.888   3.342   1.024 -0.2447  0.2308  0.1950
   10bbb     H8  253   3.013   3.425   1.112 -0.4821  0.3930  0.5162
   10bbb     C5  254   2.886   3.569   1.039 -0.1212  0.1976  0.4224
   10bbb     H9  255   2.965   3.644   1.022  1.5403 -1.7927 -0.9550
   10bbb    H10  256   2.808   3.591   0.965 -0.7056 -0.5253  0.8190
   10bbb     C6  257   3.212   3.270   0.983 -0.2964  0.1797  0.0869
   10bbb    H11  258   3.294   3.342   0.969  0.9166 -1.0134  0.9998
   10bbb    H12  259   3.176   3.281   1.086  0.6968 -0.5623  0.5238
   10bbb     C7  260   2.841   3.592   1.176 -0.3422  0.0290 -0.5386
   10bbb     C8  261   3.276   3.134   0.970  0.2231  0.4364 -0.0113
   10bbb     O1  262   2.834   3.507   1.260  0.6906  0.3269 -0.5223
   10bbb     O2  263   3.240   3.043   0.896  0.0783  0.1259 -0.5093
   10bbb     N4  264   2.960   3.540   0.541  0.2724  0.5395  0.0825
   10bbb    H21  265   2.862   3.553   0.561  0.2648  0.0955  0.3332
   11bbb     C1  266   2.426   3.526   0.857 -0.3815 -0.5239  0.3486
   11bbb     H1  267   2.332   3.471   0.846 -0.8894 -0.0611  2.2359
   11bbb     H2  268   2.409   3.613   0.792  0.4585 -0.7364 -0.1626
   11bbb     C2  269   2.535   3.441   0.796  0.4482 -0.1214 -0.6119
   11bbb     H3  270   2.632   3.482   0.827  0.0008  0.0627  0.5819
   11bbb     H4  271   2.522   3.339   0.835  0.1545  0.2910  0.4095
   11bbb     N1  272   2.447   3.558   1.004  0.0086 -0.7490  0.4830
   11bbb     C3  273   2.353   3.655   1.055 -0.0492  0.1093 -0.6086
   11bbb     H5  274   2.262   3.603   1.086 -0.2723  0.6530 -0.3370
   11bbb     H6  275   2.329   3.734   0.982  1.3947  2.1316  1.0299
   11bbb     C4  276   2.435   3.432   1.080  0.1556  0.0234  0.3576
   11bbb     H7  277   2.392   3.438   1.181  1.2965 -1.2750  0.9449
   11bbb     H8  278   2.378   3.357   1.023  1.9624  0.6509 -2.3658
   11bbb     C5  279   2.573   3.378   1.104 -0.9294 -0.3077 -0.6316
   11bbb     H9  280   2.611   3.320   1.019 -1.8257 -0.3295 -1.0291
   11bbb    H10  281   2.641   3.459   1.133 -1.4919 -0.6849  1.8192
   11bbb     C6  282   2.417   3.737   1.167 -0.5851  0.1006 -0.2579
   11bbb    H11  283   2.479   3.677   1.234  0.0603  0.1742 -0.7887
   11bbb    H12  284   2.484   3.806   1.115 -1.1248  0.3179 -0.6692
   11bbb     C7  285   2.570   3.280   1.215 -0.0411  0.6689 -0.8792
   11bbb     C8  286   2.327   3.837   1.232  0.3874 -0.6947 -0.4905
   11bbb     O1  287   2.486   3.191   1.237  0.3097 -0.5238 -0.3015
   11bbb     O2  288   2.284   3.932   1.173  0.4836 -0.5451 -0.1579
   11bbb     N4  289   2.516   3.440   0.649  0.2470  0.3090 -0.8035
   11bbb    H21  290   2.443   3.381   0.612 -1.8506  0.8493  2.3117
   12bbb     C1  291   2.755   2.306   0.615 -0.0788  0.0485  0.0715
   12bbb     H1  292   2.857   2.273   0.593 -0.7930 -1.3986 -1.1569
   12bbb     H2  293   2.762   2.414   0.597  2.1964 -0.0790  0.1396
   12bbb     C2  294   2.729   2.273   0.763  0.6146  0.7449  0.2424
   12bbb     H3  295   2.622   2.277   0.787  0.1390 -1.0360 -1.4564
   12bbb     H4  296   2.768   2.173   0.785  2.1815  1.4897  0.9450
   12bbb     N1  297   2.658   2.249   0.520  0.2862  0.3593  0.1343
   12bbb     C3  298   2.607   2.119   0.555  0.8608  0.8286  0.2184
   12bbb     H5  299   2.573   2.118   0.659 -5.3116  0.5772 -1.5634
   12bbb     H6  300   2.690   2.048   0.550  1.3757  1.4009  0.5183
   12bbb     C4  301   2.718   2.246   0.387 -0.1995  0.3358  0.1824
   12bbb     H7  302   2.826   2.226   0.395 -0.6374 -1.8522  0.8833
   12bbb     H8  303   2.686   2.167   0.317 -0.7831  2.5175 -2.0831
   12bbb     C5  304   2.693   2.382   0.317 -0.1443  0.3003 -0.1463
   12bbb     H9  305   2.585   2.376   0.295  0.0787  1.9068 -1.8924
   12bbb    H10  306   2.707   2.470   0.381 -2.5470 -0.5146  1.5810
   12bbb     C6  307   2.482   2.079   0.468  0.2232 -0.5268  0.0281
   12bbb    H11  308   2.410   2.161   0.476  0.3015 -0.4535 -0.0134
   12bbb    H12  309   2.500   2.074   0.360 -1.4291 -0.1245 -0.2784
   12bbb     C7  310   2.767   2.399   0.192 -0.2807  0.3483  0.1465
   12bbb     C8  311   2.396   1.959   0.516  0.4477 -0.0486 -0.1062
   12bbb     O1  312   2.741   2.326   0.098  0.2198  0.3689  0.6003
   12bbb     O2  313   2.301   1.966   0.595 -0.5403 -1.0738  0.3415
   12bbb     N4  314   2.796   2.365   0.858  0.0777  0.0616 -0.2457
   12bbb    H21  315   2.890   2.334   0.880 -0.1540 -0.8725 -0.5467
   13bbb     C1  316   2.378   2.877   1.641 -0.4813  0.0541  0.3753
   13bbb     H1  317   2.442   2.963   1.663 -2.7351  1.2745  2.4054
   13bbb     H2  318   2.305   2.859   1.721 -0.4756  1.1078  0.6162
   13bbb     C2  319   2.474   2.758   1.630  0.6474  0.5098 -0.0358
   13bbb     H3  320   2.532   2.758   1.723  1.9640  1.8352 -0.8354
   13bbb     H4  321   2.422   2.661   1.628  1.3856  0.1424 -3.8777
   13bbb     N1  322   2.301   2.898   1.521  0.0240  0.1510 -0.1312
   13bbb     C3  323   2.185   2.804   1.525  0.0153  0.1950  0.6556
   13bbb     H5  324   2.093   2.841   1.572  0.5944  0.7949  1.3374
   13bbb     H6  325   2.206   2.705   1.567 -2.4271 -0.9670 -0.7872
   13bbb     C4  326   2.262   3.040   1.498 -0.6617 -0.0950 -0.3646
   13bbb     H7  327   2.353   3.092   1.467 -1.4909  1.9001  0.4483
   13bbb     H8  328   2.188   3.039   1.416 -0.1123 -4.7532 -0.9508
   13bbb     C5  329   2.207   3.104   1.623  0.6101  0.2573  0.2318
   13bbb     H9  330   2.118   3.050   1.657 -0.9180  1.3156 -1.9216
   13bbb    H10  331   2.277   3.096   1.707 -0.5808 -1.9054  1.0296
   13bbb     C6  332   2.159   2.772   1.380 -0.2135 -0.4048 -0.5688
   13bbb    H11  333   2.151   2.862   1.318 -0.0783  0.1040  0.1390
   13bbb    H12  334   2.254   2.730   1.346  0.7016  1.9828 -1.1079
   13bbb     C7  335   2.163   3.247   1.608  0.5145 -0.7453 -0.4742
   13bbb     C8  336   2.036   2.685   1.366 -0.0108  0.4853 -0.1002
   13bbb     O1  337   2.172   3.310   1.502  0.2390 -0.1771  0.0113
   13bbb     O2  338   1.929   2.699   1.418 -0.3399 -0.6757  0.2838
   13bbb     N4  339   2.568   2.769   1.518 -0.0931 -0.2844  0.1649
   13bbb    H21  340   2.544   2.798   1.424  1.6186 -0.8696 -0.4788
   14ccc     N1  341   1.781   2.754   1.822  0.4174  0.0408 -0.4616
   14ccc     H1  342   1.764   2.709   1.911  3.1220  1.2482  0.7430
   14ccc     C1  343   1.742   2.682   1.702  0.4690 -0.0605  0.6430
   14ccc     H2  344   1.648   2.725   1.666  0.9330  0.7525  0.4070
   14ccc     C2  345   1.717   2.529   1.726 -0.4323 -0.2436 -0.0174
   14ccc     H3  346   1.814   2.688   1.621 -1.1221  1.1365 -0.7078
   14ccc     H4  347   1.694   2.487   1.627 -0.7791  0.8068 -0.3958
   14ccc     H5  348   1.636   2.518   1.799 -0.0542 -0.4584  0.3665
   14ccc     N2  349   1.838   2.457   1.788 -1.1507  0.2341 -0.0683
   14ccc     C3  350   1.806   2.317   1.826  0.3690 -0.0024 -0.3609
   14ccc     C4  351   1.973   2.488   1.738  0.7674  0.0368  0.1819
   14ccc     H6  352   1.992   2.455   1.635 -0.2399  0.2845 -0.0802
   14ccc     C5  353   2.086   2.429   1.823 -0.4789  0.0327 -0.0841
   14ccc     H7  354   1.974   2.598   1.730 -2.2307  0.1037  0.4019
   14ccc     H8  355   2.095   2.320   1.819  0.5063  0.1010  0.1863
   14ccc     H9  356   2.060   2.463   1.924 -0.4613 -2.9689  0.9809
   14ccc     C6  357   2.217   2.494   1.801  0.3266  0.1989 -0.3046
   14ccc     O1  358   2.287   2.432   1.711 -0.6344 -0.1007 -0.8218
   14ccc     O2  359   2.231   2.607   1.828 -0.3540 -0.3101 -0.3682
   14ccc    H10  360   1.721   2.307   1.895  0.2827  2.5004 -0.0448
   14ccc    H11  361   1.889   2.274   1.883 -0.2067  0.0202  0.5111
   14ccc     C7  362   1.780   2.236   1.704  0.0257  1.0270  0.5364
   14ccc    H12  363   1.846   2.267   1.621 -1.3906  0.1335 -0.9537
   14ccc    H13  364   1.678   2.261   1.672  0.4559  1.1032 -0.8162
   14ccc     C8  365   1.776   2.093   1.718 -0.0391 -0.5795 -0.4838
   14ccc     O3  366   1.824   2.028   1.808 -0.2827 -0.4000 -0.0898
   14ccc     O4  367   1.756   2.043   1.605 -0.0329 -0.2017  0.2498
   14ccc    H14  368   2.221   2.361   1.699 -0.5314 -0.6276  1.6193
   14ccc    H15  369   1.733   2.118   1.547 -0.4758 -0.0014  0.6748
   15ccc     N1  370   1.768   2.894   1.083  0.4094  0.0649 -0.0008
   15ccc     H1  371   1.853   2.947   1.068  0.5855 -0.2160 -0.0073
   15ccc     C1  372   1.744   2.788   0.992  0.3032 -0.3214 -0.7936
   15ccc     H2  373   1.841   2.761   0.948  1.2190 -0.4914  1.2460
   15ccc     C2  374   1.645   2.827   0.880 -0.1064  0.5814  1.1143
   15ccc     H3  375   1.701   2.705   1.048 -0.2946  1.3759  1.3510
   15ccc     H4  376   1.548   2.846   0.927 -0.4558 -0.7873  0.9578
   15ccc     H5  377   1.637   2.743   0.810  0.2369  2.8322 -1.7072
   15ccc     N2  378   1.667   2.950   0.792 -0.5613 -0.5077  1.0291
   15ccc     C3  379   1.804   2.959   0.749 -0.0938  0.7724 -0.5436
   15ccc     C4  380   1.564   2.967   0.682  0.1679  0.4273 -0.7556
   15ccc     H6  381   1.579   3.059   0.625  0.2390  1.9745  1.6881
   15ccc     C5  382   1.424   2.980   0.744 -1.4244  0.1815  0.4672
   15ccc     H7  383   1.565   2.885   0.609  0.2524 -0.0799 -0.1886
   15ccc     H8  384   1.397   2.897   0.811  3.0700  0.9741  3.4816
   15ccc     H9  385   1.362   2.978   0.653  0.0505 -0.0434 -0.5421
   15ccc     C6  386   1.394   3.104   0.815  0.0091 -0.1720  0.3947
   15ccc     O1  387   1.452   3.106   0.934  0.4365  0.0610  0.6500
   15ccc     O2  388   1.284   3.153   0.795  0.5461 -0.4136 -0.4403
   15ccc    H10  389   1.826   2.897   0.662  3.4387 -1.7899  2.0199
   15ccc    H11  390   1.866   2.908   0.824 -1.7339  0.9776  0.9837
   15ccc     C7  391   1.840   3.107   0.742  0.6894  0.7370 -0.4980
   15ccc    H12  392   1.795   3.149   0.652 -2.5608 -0.5226  0.4455
   15ccc    H13  393   1.795   3.162   0.826  0.4059  0.2568 -0.3331
   15ccc     C8  394   1.990   3.132   0.746  1.2397  0.1304  0.2006
   15ccc     O3  395   2.071   3.041   0.726 -0.2789  0.2024  0.2326
   15ccc     O4  396   2.018   3.260   0.724  0.2578  0.3323 -0.1298
   15ccc    H14  397   1.527   3.067   0.887 -0.8719 -0.0842 -1.4132
   15ccc    H15  398   1.933   3.301   0.747  0.8381  1.1287  0.6281
   16ccc     N1  399   2.820   3.822   0.719  0.0593 -0.1123 -0.4904
   16ccc     H1  400   2.769   3.777   0.644  1.6893 -4.1794  0.7154
   16ccc     C1  401   2.960   3.818   0.707  0.6566  0.2401  0.6371
   16ccc     H2  402   3.003   3.767   0.793 -0.3146 -0.0676  0.9508
   16ccc     C2  403   3.033   3.954   0.705  0.5552 -0.1227  0.2451
   16ccc     H3  404   2.983   3.770   0.611 -0.9011  1.4074 -0.3629
   16ccc     H4  405   3.137   3.933   0.734  1.1642 -0.7823 -2.2758
   16ccc     H5  406   3.000   4.024   0.783  0.7717 -0.3345  0.5303
   16ccc     N2  407   3.030   4.032   0.580  0.2383  0.2293  0.6131
   16ccc     C3  408   2.904   4.044   0.512 -0.1929 -0.5851  0.8151
   16ccc     C4  409   3.117   4.152   0.589 -0.5949  0.1087 -0.3072
   16ccc     H6  410   3.131   4.189   0.487 -0.8847 -1.1359 -0.8073
   16ccc     C5  411   3.270   4.123   0.619 -0.8580  1.1456 -0.0533
   16ccc     H7  412   3.073   4.222   0.661 -1.0968 -1.7244  1.1904
   16ccc     H8  413   3.298   4.077   0.714  1.3183 -0.7119 -1.5486
   16ccc     H9  414   3.317   4.061   0.541  0.7536  1.6066  0.5464
   16ccc     C6  415   3.342   4.252   0.612  0.6337  0.1761  0.0325
   16ccc     O1  416   3.458   4.233   0.548  0.5250 -0.1539  0.2172
   16ccc     O2  417   3.286   4.352   0.584 -0.6223  0.1040 -0.4047
   16ccc    H10  418   2.856   3.954   0.472 -1.2555  1.5466 -2.9311
   16ccc    H11  419   2.937   4.087   0.418  0.6236 -0.5100  1.1342
   16ccc     C7  420   2.810   4.131   0.584  0.0921 -0.0146 -0.0617
   16ccc    H12  421   2.860   4.222   0.616  1.6212 -0.8239 -0.1026
   16ccc    H13  422   2.782   4.073   0.673  2.1560 -2.2996 -0.8240
   16ccc     C8  423   2.675   4.166   0.511  0.1722 -0.1249 -0.4895
   16ccc     O3  424   2.642   4.120   0.405 -0.4399  0.3378 -0.0957
   16ccc     O4  425   2.598   4.237   0.587 -0.1180 -0.2496 -0.0074
   16ccc    H14  426   3.480   4.142   0.572 -0.3224 -0.3245  0.3738
   16ccc    H15  427   2.653   4.242   0.667  2.9076  0.3780 -2.0507
   17ccc     N1  428   2.472   3.912   0.322 -0.9343  0.4931 -0.3749
   17ccc     H1  429   2.520   3.999   0.341  1.1234 -0.5620 -0.6430
   17ccc     C1  430   2.418   3.908   0.183 -0.0900  0.2615 -0.2957
   17ccc     H2  431   2.431   3.805   0.147 -1.2073  0.5364 -1.5259
   17ccc     C2  432   2.475   4.010   0.087 -0.6894  0.1476 -0.2566
   17ccc     H3  433   2.314   3.939   0.196  0.4529  0.8804  2.7322
   17ccc     H4  434   2.470   4.106   0.138  2.1252  0.4390 -0.4181
   17ccc     H5  435   2.402   4.025   0.007 -0.5279  1.1331 -0.2189
   17ccc     N2  436   2.617   3.985   0.028 -1.0319  0.4949  0.1502
   17ccc     C3  437   2.680   4.107  -0.038 -0.6521  0.2408 -0.2389
   17ccc     C4  438   2.634   3.863  -0.054 -0.2512 -0.8219 -0.3008
   17ccc     H6  439   2.598   3.768  -0.011  3.0472 -2.3648 -0.7827
   17ccc     C5  440   2.781   3.819  -0.072  0.2528  0.2839 -0.0678
   17ccc     H7  441   2.572   3.882  -0.142  0.7320 -0.8931 -1.0111
   17ccc     H8  442   2.847   3.839   0.013 -0.4463 -0.6647  0.7089
   17ccc     H9  443   2.819   3.870  -0.162  0.0728  1.0774  0.2942
   17ccc     C6  444   2.796   3.672  -0.112  0.4013  0.3508 -0.2102
   17ccc     O1  445   2.918   3.632  -0.065 -0.0042 -0.2200 -0.3275
   17ccc     O2  446   2.719   3.606  -0.179  0.5574 -0.9036 -0.8384
   17ccc    H10  447   2.766   4.070  -0.095 -1.5951 -3.4648  0.6223
   17ccc    H11  448   2.605   4.146  -0.107  0.2169  0.7142 -0.9187
   17ccc     C7  449   2.729   4.202   0.076 -0.1866 -0.2452  0.2056
   17ccc    H12  450   2.764   4.292   0.024  3.3096 -1.2869  0.6120
   17ccc    H13  451   2.649   4.220   0.149 -0.9809  1.3911 -1.0420
   17ccc     C8  452   2.855   4.148   0.141 -0.3484 -0.0684 -0.4097
   17ccc     O3  453   2.969   4.194   0.127  0.1733  0.2421 -0.0423
   17ccc     O4  454   2.839   4.026   0.179  0.4712  0.4914 -0.3836
   17ccc    H14  455   2.953   3.718  -0.037 -1.3689  0.2312  0.0323
   17ccc    H15  456   2.749   4.019   0.142  0.4555  3.5801 -1.0230
   18ccc     N1  457   3.228   2.878   0.224  0.7196  0.6392  0.3499
   18ccc     H1  458   3.223   2.968   0.176  2.7359  0.9368  0.6461
   18ccc     C1  459   3.356   2.836   0.286  0.2258  0.6324  0.3247
   18ccc     H2  460   3.354   2.740   0.339 -2.6280  0.6696  0.3992
   18ccc     C2  461   3.416   2.947   0.383  0.5999  1.0873 -0.0691
   18ccc     H3  462   3.426   2.835   0.202  0.0575  1.3164  0.1742
   18ccc     H4  463   3.425   3.035   0.318 -2.7998  1.8651  0.3904
   18ccc     H5  464   3.507   2.914   0.434  0.0809  1.6576  1.2543
   18ccc     N2  465   3.330   2.995   0.492  0.0011 -0.1342 -0.5430
   18ccc     C3  466   3.380   3.120   0.567  0.3880 -0.3464  0.5464
   18ccc     C4  467   3.273   2.885   0.581  0.1630 -0.0462  0.3640
   18ccc     H6  468   3.283   2.788   0.529 -1.9199 -0.0970  0.0170
   18ccc     C5  469   3.130   2.925   0.633 -0.0259  0.9349  0.2321
   18ccc     H7  470   3.347   2.879   0.662  0.4107 -0.2212  0.1287
   18ccc     H8  471   3.073   2.919   0.539  0.6895 -0.3085 -0.1288
   18ccc     H9  472   3.126   3.018   0.690  0.4243  0.1107  1.6263
   18ccc     C6  473   3.061   2.828   0.719 -0.2544 -0.3588  0.6355
   18ccc     O1  474   3.116   2.822   0.845 -0.1054  0.6432  0.6545
   18ccc     O2  475   2.971   2.754   0.686  0.1990  0.1808  0.4366
   18ccc    H10  476   3.311   3.145   0.649  2.5299  1.6261  1.8224
   18ccc    H11  477   3.382   3.205   0.498 -2.7130 -1.9260 -1.5793
   18ccc     C7  478   3.521   3.093   0.624  0.3828 -0.3209  0.2432
   18ccc    H12  479   3.601   3.098   0.550 -2.2238  0.4921 -2.6443
   18ccc    H13  480   3.528   2.995   0.673  0.4334  0.4598  1.8399
   18ccc     C8  481   3.547   3.188   0.737  0.4221  0.1919  0.6720
   18ccc     O3  482   3.479   3.285   0.765  0.1908  0.2452 -0.8001
   18ccc     O4  483   3.675   3.185   0.779  0.0854 -0.5124 -0.4593
   18ccc    H14  484   3.162   2.907   0.851 -1.2294  1.2139  1.1984
   18ccc    H15  485   3.709   3.119   0.716 -0.4592 -0.0417 -1.2605
   19ccc     N1  486   2.827   3.150  -0.208  0.2796 -0.0741 -0.0213
   19ccc     H1  487   2.881   3.204  -0.141 -0.7403  2.0733 -0.8858
   19ccc     C1  488   2.767   3.229  -0.312 -0.2957  0.5317 -0.4487
   19ccc     H2  489   2.749   3.159  -0.395 -1.1246  0.9049 -0.5854
   19ccc     C2  490   2.857   3.343  -0.368  0.4127 -0.4559 -0.9988
   19ccc     H3  491   2.668   3.263  -0.282  1.5046  4.3188  1.4657
   19ccc     H4  492   2.842   3.432  -0.305  0.2072 -0.7930 -0.5691
   19ccc     H5  493   2.821   3.367  -0.469 -0.5980  0.4485 -0.4297
   19ccc     N2  494   3.002   3.321  -0.374  0.1916 -0.0831 -0.8249
   19ccc     C3  495   3.084   3.441  -0.410 -0.4520 -0.6638 -0.1151
   19ccc     C4  496   3.041   3.208  -0.464 -0.6593  0.1714 -0.0605
   19ccc     H6  497   2.972   3.123  -0.465 -1.6575  0.9825 -2.2362
   19ccc     C5  498   3.168   3.137  -0.399 -0.0940 -0.5520 -0.1021
   19ccc     H7  499   3.039   3.245  -0.567 -1.2943  0.8754  0.1992
   19ccc     H8  500   3.254   3.205  -0.402  1.6778 -2.5936  2.4582
   19ccc     H9  501   3.186   3.057  -0.472 -1.8190 -1.2181  0.1709
   19ccc     C6  502   3.144   3.074  -0.262 -0.0583 -0.1387 -0.1759
   19ccc     O1  503   3.109   3.166  -0.176  0.1963 -0.7405 -0.4102
   19ccc     O2  504   3.126   2.956  -0.234  0.5094 -0.4264 -0.2717
   19ccc    H10  505   3.019   3.519  -0.451  2.1981  1.8017  0.1680
   19ccc    H11  506   3.163   3.423  -0.484  0.1668 -1.5996  0.7618
   19ccc     C7  507   3.159   3.494  -0.282  0.3553  0.2046 -0.1863
   19ccc    H12  508   3.243   3.429  -0.256 -0.9848 -0.8887  1.5809
   19ccc    H13  509   3.094   3.474  -0.195 -0.0993 -0.5073 -0.6885
   19ccc     C8  510   3.197   3.636  -0.302 -0.1827 -0.0175 -0.1352
   19ccc     O3  511   3.135   3.716  -0.363 -0.0492 -0.1602 -0.2641
   19ccc     O4  512   3.263   3.679  -0.195 -0.1609  0.3124  0.3528
   19ccc    H14  513   3.093   3.235  -0.242  1.8848 -0.5014 -0.5808
   19ccc    H15  514   3.295   3.595  -0.157 -0.8987 -0.0619  0.1530
   20ccc     N1  515   1.971   1.994   0.576 -1.2622  0.2653  0.2342
   20ccc     H1  516   1.950   2.034   0.667 -0.1854  0.1951  0.5143
   20ccc     C1  517   1.984   1.848   0.584  0.5743 -0.2644 -0.3576
   20ccc     H2  518   2.062   1.804   0.521  2.1121 -0.5928  1.7152
   20ccc     C2  519   1.844   1.782   0.559  0.3810  0.1044 -0.4914
   20ccc     H3  520   2.014   1.828   0.688  0.8997 -3.9975 -1.1000
   20ccc     H4  521   1.766   1.823   0.625  0.1559 -2.6384  1.0573
   20ccc     H5  522   1.849   1.677   0.593 -0.1265 -0.0952 -1.0139
   20ccc     N2  523   1.802   1.764   0.419  0.5766 -0.4320 -0.1816
   20ccc     C3  524   1.658   1.799   0.397  0.5949  0.2209  0.2432
   20ccc     C4  525   1.850   1.637   0.365  0.0304  0.5812 -0.0917
   20ccc     H6  526   1.953   1.621   0.399  0.5429  1.4605 -1.2008
   20ccc     C5  527   1.852   1.637   0.212  0.8689  0.2848 -0.6486
   20ccc     H7  528   1.799   1.545   0.396 -0.6091  0.8216 -0.4100
   20ccc     H8  529   1.937   1.701   0.184  3.1285 -0.7282  3.4760
   20ccc     H9  530   1.757   1.675   0.172 -0.1327 -1.0128  0.4485
   20ccc     C6  531   1.894   1.500   0.165  0.6893  0.5495 -0.2281
   20ccc     O1  532   1.918   1.491   0.039 -0.4918  0.4042  0.0559
   20ccc     O2  533   1.909   1.410   0.241  0.9685  0.1042  0.6504
   20ccc    H10  534   1.589   1.782   0.480 -1.1330  1.9253 -0.8067
   20ccc    H11  535   1.615   1.745   0.312 -1.6616  2.8377 -0.3433
   20ccc     C7  536   1.640   1.949   0.371 -0.5475 -0.1799  0.0231
   20ccc    H12  537   1.700   2.009   0.440 -0.8099  0.8547 -0.6237
   20ccc    H13  538   1.535   1.970   0.398 -0.3514 -0.3344  0.9251
   20ccc     C8  539   1.677   1.992   0.232 -0.0014  0.5106  0.4188
   20ccc     O3  540   1.592   2.027   0.151  0.0964  0.2327 -0.0871
   20ccc     O4  541   1.803   1.952   0.191 -0.1432  0.3091  0.7449
   20ccc    H14  542   1.915   1.584   0.010  0.1120  0.6294  0.6797
   20ccc    H15  543   1.827   1.898   0.269  0.1689 -0.9234 -0.1866
   21ccc     N1  544   2.120   2.751   0.222 -0.2737 -0.2202 -0.1016
   21ccc     H1  545   2.176   2.719   0.301  1.5301  0.3283 -1.1371
   21ccc     C1  546   2.175   2.841   0.119 -0.2857  0.2063  0.0378
   21ccc     H2  547   2.280   2.852   0.150  0.4459 -3.0998 -1.0310
   21ccc     C2  548   2.110   2.980   0.129 -0.1461  0.4121  0.0840
   21ccc     H3  549   2.167   2.814   0.013 -0.4759  1.1821 -0.2022
   21ccc     H4  550   2.008   2.977   0.088 -0.3509  1.4567  0.5137
   21ccc     H5  551   2.162   3.047   0.059  0.5552 -0.2731 -0.0546
   21ccc     N2  552   2.099   3.035   0.270 -0.3241 -0.2510 -0.0147
   21ccc     C3  553   2.221   3.108   0.319 -0.2227 -0.3342 -0.4397
   21ccc     C4  554   1.975   3.115   0.285  0.1098  0.1270  0.3448
   21ccc     H6  555   1.987   3.164   0.383  1.6953  0.3425  0.0561
   21ccc     C5  556   1.846   3.026   0.286  0.1455 -0.4540  0.4632
   21ccc     H7  557   1.955   3.188   0.206 -0.3136 -0.5287 -0.1576
   21ccc     H8  558   1.823   2.986   0.187 -0.2877 -0.7825  0.6920
   21ccc     H9  559   1.761   3.089   0.314 -0.4117 -0.3854 -1.3224
   21ccc     C6  560   1.835   2.921   0.391  0.1193 -0.2646  0.4290
   21ccc     O1  561   1.951   2.889   0.452  0.2914  0.3008  0.4131
   21ccc     O2  562   1.735   2.861   0.412  0.1668 -0.1640 -0.1007
   21ccc    H10  563   2.210   3.213   0.290  0.7402 -0.0914  0.0761
   21ccc    H11  564   2.312   3.058   0.284  0.7859  1.5020 -0.4877
   21ccc     C7  565   2.219   3.096   0.473 -0.1349 -0.1853  0.1132
   21ccc    H12  566   2.176   3.002   0.509 -1.8875  0.5135 -0.1495
   21ccc    H13  567   2.165   3.178   0.522 -0.1780 -0.4219  0.4704
   21ccc     C8  568   2.353   3.113   0.538 -0.1223 -0.6867 -0.0444
   21ccc     O3  569   2.461   3.128   0.487 -0.2606  0.0418 -0.5319
   21ccc     O4  570   2.348   3.109   0.667  0.0919  0.4225 -0.1134
   21ccc    H14  571   2.016   2.941   0.400 -0.5250  0.7518 -0.1687
   21ccc    H15  572   2.257   3.080   0.688  1.4172 -1.5576  3.3558
   22ccc     N1  573   2.817   3.720   1.196 -0.6733 -0.0916  0.4994
   22ccc     H1  574   2.826   3.777   1.112 -2.0470 -1.8001 -0.8441
   22ccc     C1  575   2.754   3.779   1.309  0.8777  0.2848 -0.0406
   22ccc     H2  576   2.678   3.846   1.267  0.1204  0.3605  1.4532
   22ccc     C2  577   2.857   3.854   1.410  0.4198  0.3863  0.0231
   22ccc     H3  578   2.709   3.699   1.369  1.1756  0.0979 -0.0648
   22ccc     H4  579   2.908   3.770   1.458  1.6838  0.1898 -1.6162
   22ccc     H5  580   2.805   3.906   1.491 -1.4145  0.9678 -1.4848
   22ccc     N2  581   2.957   3.943   1.348 -0.2586  0.1892 -0.2810
   22ccc     C3  582   3.074   3.972   1.438  0.0819  0.0780 -0.0434
   22ccc     C4  583   2.894   4.068   1.296 -0.4140 -0.1920 -0.2224
   22ccc     H6  584   2.901   4.150   1.369  1.4690 -0.5120 -0.0133
   22ccc     C5  585   2.988   4.094   1.175  0.5619  0.4029  0.4019
   22ccc     H7  586   2.791   4.056   1.262 -0.8729  0.7207  0.8201
   22ccc     H8  587   2.974   4.001   1.118  0.3526 -0.7367  2.2746
   22ccc     H9  588   3.090   4.120   1.206  1.5276 -2.1551 -0.5041
   22ccc     C6  589   2.936   4.200   1.078 -0.1296 -0.6461 -0.0279
   22ccc     O1  590   3.021   4.239   0.982 -0.0257  0.4395 -0.1608
   22ccc     O2  591   2.825   4.249   1.075 -0.4651  0.2111  0.6159
   22ccc    H10  592   3.031   3.985   1.538  0.3206  0.2907  0.0309
   22ccc    H11  593   3.132   4.062   1.414  1.0149 -0.6079 -0.4132
   22ccc     C7  594   3.180   3.862   1.428 -0.0012 -0.5199 -0.1281
   22ccc    H12  595   3.264   3.891   1.493  0.7554 -0.5576 -1.0828
   22ccc    H13  596   3.140   3.766   1.464  1.0571  0.3487  3.5660
   22ccc     C8  597   3.244   3.850   1.289 -0.3684 -0.6749 -0.4473
   22ccc     O3  598   3.360   3.807   1.274  0.7150 -0.3014  0.3180
   22ccc     O4  599   3.154   3.813   1.198  0.3182 -0.3217  0.2746
   22ccc    H14  600   3.104   4.212   1.025  1.2673  1.3635 -2.0111
   22ccc    H15  601   3.071   3.830   1.246  0.5572  0.5282  0.4063
   23ccc     N1  602   3.381   3.123   1.056  1.1155 -0.0210 -0.3580
   23ccc     H1  603   3.407   3.208   1.105  1.4740  1.7360 -3.5238
   23ccc     C1  604   3.439   2.997   1.088 -0.3696  0.5413 -0.9820
   23ccc     H2  605   3.358   2.927   1.112  0.2096  0.0318 -0.5118
   23ccc     C2  606   3.525   3.004   1.218 -0.3790 -0.1532  1.1640
   23ccc     H3  607   3.500   2.962   1.004 -0.1101 -1.5467  0.0343
   23ccc     H4  608   3.620   3.055   1.201 -0.6105  0.9161  3.0117
   23ccc     H5  609   3.555   2.901   1.242  0.2470 -0.6501 -1.5563
   23ccc     N2  610   3.465   3.045   1.351  0.9461  0.3726 -0.2390
   23ccc     C3  611   3.335   2.985   1.388  0.4991  0.0684 -0.4720
   23ccc     C4  612   3.568   3.038   1.460  0.3652 -0.8603  0.3771
   23ccc     H6  613   3.517   3.042   1.557 -1.2097 -3.0728 -0.3051
   23ccc     C5  614   3.666   3.157   1.452 -1.1109 -0.5215 -0.0543
   23ccc     H7  615   3.621   2.942   1.460  1.2216 -0.3972  0.5089
   23ccc     H8  616   3.613   3.253   1.459  0.6087  0.2556  3.2270
   23ccc     H9  617   3.727   3.148   1.362 -0.3679  0.5170  0.3292
   23ccc     C6  618   3.779   3.155   1.559  0.0743  0.0953 -0.1549
   23ccc     O1  619   3.877   3.234   1.523  0.3360 -0.5406  0.0837
   23ccc     O2  620   3.787   3.085   1.649  0.2748 -0.7604  0.0952
   23ccc    H10  621   3.344   2.886   1.436 -0.7315  0.3900  0.4384
   23ccc    H11  622   3.280   2.969   1.295 -1.4830  0.4020  0.6087
   23ccc     C7  623   3.261   3.081   1.488 -0.0513  0.1061  0.3100
   23ccc    H12  624   3.307   3.098   1.585 -0.0084  0.8734  0.1600
   23ccc    H13  625   3.167   3.026   1.506 -0.4263  0.2537 -1.1215
   23ccc     C8  626   3.227   3.212   1.416 -0.2571 -0.0951 -0.4687
   23ccc     O3  627   3.307   3.299   1.418  0.0361  0.1466  0.6449
   23ccc     O4  628   3.097   3.239   1.383 -0.2147  0.0755 -0.9187
   23ccc    H14  629   3.834   3.281   1.450 -1.0139 -0.0395  1.1852
   23ccc    H15  630   3.058   3.153   1.362 -0.8954  0.0516  0.4320
   24ccc     N1  631   2.679   3.290   1.293  0.1036  0.3132  0.0326
   24ccc     H1  632   2.742   3.369   1.285 -0.5245  0.6012 -2.5360
   24ccc     C1  633   2.728   3.173   1.371 -0.4669 -0.0577 -0.0616
   24ccc     H2  634   2.722   3.073   1.327  0.1352  0.5187 -1.4929
   24ccc     C2  635   2.660   3.148   1.512 -0.1783 -0.2671 -0.2526
   24ccc     H3  636   2.835   3.198   1.382 -0.6027 -0.6039  2.8416
   24ccc     H4  637   2.706   3.056   1.549  0.3103  0.0481 -0.0654
   24ccc     H5  638   2.553   3.130   1.499 -0.3490  1.2924 -1.2277
   24ccc     N2  639   2.693   3.251   1.618 -0.1286  0.3129  0.0480
   24ccc     C3  640   2.835   3.260   1.668  0.0548  0.0543 -0.2692
   24ccc     C4  641   2.642   3.387   1.589  0.3535  0.5149  0.3132
   24ccc     H6  642   2.650   3.446   1.681 -0.7133 -0.5075  1.0736
   24ccc     C5  643   2.493   3.388   1.554  0.2300  0.3787  0.3942
   24ccc     H7  644   2.704   3.436   1.513  0.4416 -0.2404 -0.1155
   24ccc     H8  645   2.438   3.342   1.636  1.6062  2.2506  2.4193
   24ccc     H9  646   2.466   3.327   1.467  0.7674 -0.0245  0.5115
   24ccc     C6  647   2.439   3.523   1.516 -0.4598 -0.2376  0.4885
   24ccc     O1  648   2.321   3.526   1.449 -1.1955  0.5064  0.4134
   24ccc     O2  649   2.496   3.624   1.534 -0.2633 -0.3881 -0.3350
   24ccc    H10  650   2.845   3.330   1.752 -0.3320 -0.6704  0.3864
   24ccc    H11  651   2.897   3.294   1.585 -1.9590  1.2937 -1.3179
   24ccc     C7  652   2.896   3.120   1.708  0.2780  0.3089 -0.8590
   24ccc    H12  653   2.914   3.050   1.624 -0.2491 -2.1767  1.0325
   24ccc    H13  654   2.837   3.066   1.783 -0.1396  0.7543 -0.8710
   24ccc     C8  655   3.035   3.143   1.767  0.0034  0.7438  0.3197
   24ccc     O3  656   3.100   3.250   1.770  0.1017  0.6934  0.7701
   24ccc     O4  657   3.103   3.028   1.772 -0.1561 -0.1128 -0.6427
   24ccc    H14  658   2.291   3.434   1.453 -1.2168  0.4920 -0.0019
   24ccc    H15  659   3.034   2.961   1.784 -2.7612  2.1496 -2.1711
   25ccc     N1  660   2.292   3.807   1.354 -0.1217 -0.3722  0.2410
   25ccc     H1  661   2.343   3.734   1.402  0.0962 -1.4123 -1.5288
   25ccc     C1  662   2.181   3.873   1.428 -0.1930 -0.1146 -0.4550
   25ccc     H2  663   2.158   3.972   1.385 -1.1633 -0.8677 -1.7074
   25ccc     C2  664   2.189   3.869   1.580 -0.1266  0.3891  0.0283
   25ccc     H3  665   2.096   3.809   1.401  0.2411 -0.8064 -0.1796
   25ccc     H4  666   2.191   3.760   1.585 -1.0447  0.3718 -0.0096
   25ccc     H5  667   2.091   3.901   1.617 -0.6084  0.3258 -1.1822
   25ccc     N2  668   2.296   3.934   1.663 -0.6293  0.2044 -0.6963
   25ccc     C3  669   2.295   3.874   1.799  0.1261  0.3798 -0.0263
   25ccc     C4  670   2.287   4.080   1.672  0.4778  0.0125 -0.0739
   25ccc     H6  671   2.198   4.112   1.727 -0.0820 -2.2412  0.3769
   25ccc     C5  672   2.311   4.148   1.539 -0.1348  0.0494  0.2340
   25ccc     H7  673   2.376   4.103   1.732  0.1608 -1.6797  1.0739
   25ccc     H8  674   2.214   4.153   1.488 -0.7959 -2.8255  1.1301
   25ccc     H9  675   2.370   4.088   1.469 -0.7157 -0.2063 -0.0362
   25ccc     C6  676   2.363   4.288   1.554 -0.0663  0.2040 -0.6376
   25ccc     O1  677   2.319   4.372   1.463 -0.2744  0.1066 -0.4363
   25ccc     O2  678   2.400   4.338   1.659  0.0261  0.3077 -0.3937
   25ccc    H10  679   2.279   3.765   1.794 -1.3410  0.5732  0.1663
   25ccc    H11  680   2.216   3.916   1.863  0.2953 -0.6994  0.9115
   25ccc     C7  681   2.429   3.878   1.871 -0.6436 -0.3101  0.6099
   25ccc    H12  682   2.453   3.985   1.884 -3.3845  0.3680  0.4595
   25ccc    H13  683   2.508   3.828   1.813 -1.0056 -0.6099  0.3751
   25ccc     C8  684   2.433   3.822   2.009  0.0482  0.4650 -0.1294
   25ccc     O3  685   2.350   3.738   2.043  0.3956  0.1354 -0.4420
   25ccc     O4  686   2.551   3.835   2.070  0.3993  0.8211 -0.0950
   25ccc    H14  687   2.302   4.315   1.386  0.3841  0.6580 -1.0029
   25ccc    H15  688   2.595   3.899   2.011  0.1622  1.5946  0.5521
   26ccc     N1  689   2.862   2.491   0.197 -0.9338 -0.1374 -0.2528
   26ccc     H1  690   2.874   2.544   0.283  0.5798  0.3314 -0.7347
   26ccc     C1  691   2.934   2.531   0.079  0.1510  0.0697  0.4166
   26ccc     H2  692   2.864   2.587   0.016  0.8896  0.9999  0.3946
   26ccc     C2  693   3.011   2.427  -0.001  0.0664 -0.5612 -0.3971
   26ccc     H3  694   3.007   2.607   0.109  0.9341 -0.4262 -0.2036
   26ccc     H4  695   3.056   2.477  -0.087  0.1419 -1.7309 -1.0428
   26ccc     H5  696   2.940   2.353  -0.039  0.0607 -0.9797  0.4034
   26ccc     N2  697   3.121   2.357   0.075 -0.0803 -0.1701 -0.0648
   26ccc     C3  698   3.228   2.449   0.120 -0.1372 -0.9637 -0.2653
   26ccc     C4  699   3.162   2.219   0.025  0.5540 -0.8829  0.0150
   26ccc     H6  700   3.157   2.227  -0.084  1.7003 -1.7924 -0.1142
   26ccc     C5  701   3.060   2.119   0.078 -0.8689  0.1573 -0.0089
   26ccc     H7  702   3.261   2.183   0.056  0.7656  1.5631  2.3616
   26ccc     H8  703   3.063   2.029   0.014 -2.1061 -0.2537  0.4910
   26ccc     H9  704   2.960   2.150   0.047 -0.7201 -0.9708 -1.7241
   26ccc     C6  705   3.072   2.087   0.225 -0.3019 -0.1550 -0.8402
   26ccc     O1  706   3.062   2.198   0.308 -0.0672 -0.0045  1.1285
   26ccc     O2  707   3.109   1.981   0.275 -0.3324  0.6387 -0.3451
   26ccc    H10  708   3.301   2.399   0.184  0.4015 -0.0001 -0.1256
   26ccc    H11  709   3.187   2.527   0.186  0.4460 -1.1452  0.3167
   26ccc     C7  710   3.309   2.507   0.003  0.0417  0.6477  0.3386
   26ccc    H12  711   3.242   2.559  -0.067 -0.5562 -0.2419  0.2410
   26ccc    H13  712   3.353   2.428  -0.058  0.5364  1.5366 -0.4815
   26ccc     C8  713   3.421   2.590   0.057 -0.3026 -1.0869  1.2875
   26ccc     O3  714   3.455   2.596   0.171 -0.3950  0.2384  1.0408
   26ccc     O4  715   3.467   2.679  -0.035 -0.1838 -0.4487  1.1493
   26ccc    H14  716   3.064   2.253   0.228  1.1833  2.3329  2.7010
   26ccc    H15  717   3.407   2.670  -0.111 -0.4555 -0.6008  1.3791
   27ccc     N1  718   2.428   1.836   0.453 -0.0904  0.3757 -0.5308
   27ccc     H1  719   2.506   1.839   0.389  1.3543 -1.5396  1.0657
   27ccc     C1  720   2.332   1.729   0.438 -0.5335 -0.4013 -0.5776
   27ccc     H2  721   2.384   1.632   0.438  1.0654  0.4226  0.5753
   27ccc     C2  722   2.250   1.736   0.312 -0.0357 -0.4654  0.2416
   27ccc     H3  723   2.274   1.716   0.531  0.9325 -0.3100  0.3621
   27ccc     H4  724   2.196   1.831   0.329  0.2156 -0.1622 -0.6172
   27ccc     H5  725   2.181   1.652   0.323 -0.8895  0.2417  0.3890
   27ccc     N2  726   2.324   1.743   0.180  0.0777  0.4092  0.1906
   27ccc     C3  727   2.429   1.642   0.159 -0.5796  0.4550  0.2966
   27ccc     C4  728   2.251   1.780   0.058 -0.2129 -0.1740 -0.2136
   27ccc     H6  729   2.313   1.779  -0.032  0.0478  2.1153 -0.0884
   27ccc     C5  730   2.183   1.921   0.069 -0.3188 -0.5744  0.2847
   27ccc     H7  731   2.172   1.704   0.047 -0.1017 -0.0024 -2.4282
   27ccc     H8  732   2.109   1.908   0.148 -0.2115  0.7374  0.6184
   27ccc     H9  733   2.136   1.955  -0.024  0.0899 -1.4465 -0.2457
   27ccc     C6  734   2.280   2.028   0.105  0.3731  0.0550  0.4215
   27ccc     O1  735   2.238   2.114   0.202  0.0375 -0.1041 -0.2407
   27ccc     O2  736   2.388   2.034   0.049 -0.0958 -0.3719 -0.0275
   27ccc    H10  737   2.500   1.643   0.242  0.5025 -1.2620 -0.5564
   27ccc    H11  738   2.485   1.658   0.066  0.7748 -3.0696  0.4198
   27ccc     C7  739   2.353   1.505   0.141 -0.6697  0.3375  0.0990
   27ccc    H12  740   2.290   1.505   0.051  0.4067  2.0518 -0.6790
   27ccc    H13  741   2.285   1.488   0.225 -1.0183 -1.2124 -0.4860
   27ccc     C8  742   2.449   1.388   0.127 -0.6238 -0.3818  0.1671
   27ccc     O3  743   2.567   1.409   0.138  0.0057  0.6336 -0.1151
   27ccc     O4  744   2.404   1.278   0.167  0.4156  0.2778  0.3721
   27ccc    H14  745   2.145   2.086   0.214  0.1842 -0.7555 -0.5761
   27ccc    H15  746   2.310   1.300   0.183 -0.0245 -0.8512 -0.5453
   28ccc     N1  747   2.116   3.303   1.721  0.2214 -0.6813  0.2034
   28ccc     H1  748   2.080   3.242   1.793 -1.0077 -0.5107 -0.2520
   28ccc     C1  749   2.169   3.433   1.762  0.4686  1.1339 -0.4408
   28ccc     H2  750   2.272   3.462   1.737  1.5227 -0.0735  2.3308
   28ccc     C2  751   2.144   3.465   1.912  0.0022  0.6742 -0.2644
   28ccc     H3  752   2.102   3.499   1.706  0.0716  0.2534 -1.0227
   28ccc     H4  753   2.037   3.447   1.927 -0.4845  2.3033 -1.7605
   28ccc     H5  754   2.151   3.574   1.918 -0.8020  0.6316  1.9830
   28ccc     N2  755   2.226   3.396   2.014 -0.2280  0.8595 -0.3644
   28ccc     C3  756   2.372   3.426   2.011 -0.4599  0.1010  0.2512
   28ccc     C4  757   2.161   3.409   2.149  0.6372  0.8702 -0.4900
   28ccc     H6  758   2.200   3.505   2.186  0.4236  0.6872  0.2184
   28ccc     C5  759   2.213   3.302   2.247  0.5211  0.0510  0.5164
   28ccc     H7  760   2.052   3.416   2.155  0.6099 -0.3978  0.7631
   28ccc     H8  761   2.321   3.289   2.252  0.8371  2.5921  0.9601
   28ccc     H9  762   2.180   3.205   2.209 -0.7717  1.2441 -1.5280
   28ccc     C6  763   2.170   3.323   2.389  0.4100 -0.5629 -0.5222
   28ccc     O1  764   2.220   3.226   2.468 -0.3200 -0.1583 -0.0949
   28ccc     O2  765   2.142   3.428   2.431  0.2030 -0.4658  0.6685
   28ccc    H10  766   2.398   3.477   2.105 -1.0695  1.4668 -0.3205
   28ccc    H11  767   2.386   3.497   1.929  0.1011 -1.7974 -1.3407
   28ccc     C7  768   2.451   3.297   1.996  0.3011 -0.3107 -0.0720
   28ccc    H12  769   2.462   3.241   2.090  1.4812 -0.5379 -0.3354
   28ccc    H13  770   2.398   3.237   1.921 -0.4915  1.2118 -0.7513
   28ccc     C8  771   2.594   3.318   1.942  0.2591 -0.4704 -0.3036
   28ccc     O3  772   2.645   3.429   1.942  0.1440  0.1026  0.6842
   28ccc     O4  773   2.672   3.203   1.936  0.1694 -0.6229 -0.3207
   28ccc    H14  774   2.253   3.156   2.410  0.0248 -0.1204  0.0570
   28ccc    H15  775   2.600   3.137   1.937 -0.7338  0.3504  1.2354
   29ccc     N1  776   2.062   2.586   1.276  0.3326 -0.8902 -0.1647
   29ccc     H1  777   2.153   2.589   1.233 -0.3372 -0.3267 -1.5705
   29ccc     C1  778   1.966   2.547   1.177 -0.1808 -0.5962 -0.2431
   29ccc     H2  779   1.897   2.632   1.167  1.4774  0.6215 -1.7736
   29ccc     C2  780   1.876   2.428   1.220 -0.6052  0.7778 -0.0611
   29ccc     H3  781   2.009   2.538   1.076 -0.5710 -0.8665 -0.3842
   29ccc     H4  782   1.790   2.436   1.152  0.3918  1.1732 -1.2965
   29ccc     H5  783   1.830   2.446   1.318  0.2174 -1.2951  0.7338
   29ccc     N2  784   1.937   2.291   1.224  0.4256 -0.1553 -0.1101
   29ccc     C3  785   2.035   2.277   1.333  0.5091 -0.1686 -0.2232
   29ccc     C4  786   1.997   2.243   1.100 -0.5790 -0.2598  0.5140
   29ccc     H6  787   2.069   2.311   1.053  1.0661 -0.4080  2.7488
   29ccc     C5  788   1.882   2.211   1.005 -0.0663  0.5747 -0.2341
   29ccc     H7  789   2.039   2.143   1.116  1.8906  0.3882 -1.5663
   29ccc     H8  790   1.842   2.303   0.962 -0.2499  1.0071  0.8452
   29ccc     H9  791   1.807   2.150   1.057 -1.2393  1.0156 -1.3948
   29ccc     C6  792   1.938   2.145   0.882 -0.0102  0.7300 -0.1012
   29ccc     O1  793   1.841   2.106   0.799  0.2465 -0.2821  0.2720
   29ccc     O2  794   2.057   2.116   0.858 -0.4252  0.0488  0.4681
   29ccc    H10  795   2.002   2.327   1.425  0.3611 -1.2557  0.3227
   29ccc    H11  796   2.133   2.313   1.300 -0.4412  2.4878 -0.3042
   29ccc     C7  797   2.043   2.133   1.369  0.7068  0.4627 -0.0151
   29ccc    H12  798   2.109   2.078   1.300 -1.3662 -1.0052 -0.8883
   29ccc    H13  799   1.949   2.077   1.369  0.8131  0.2809  0.6555
   29ccc     C8  800   2.093   2.115   1.514 -0.2654  0.0587  0.0490
   29ccc     O3  801   2.108   2.203   1.592  0.6838 -0.1101 -0.7368
   29ccc     O4  802   2.172   2.014   1.522  0.0132  0.2415  0.3218
   29ccc    H14  803   1.756   2.132   0.838 -0.7004 -2.5304 -0.1676
   29ccc    H15  804   2.128   1.953   1.460  0.9954  1.0385 -1.1920
   30SOL     OW  805   6.157   1.386   3.328  0.0134  0.2638  0.0607
   30SOL    HW1  806   6.152   1.480   3.343  1.4216  0.2407  0.7157
   30SOL    HW2  807   6.161   1.348   3.416 -1.1775 -0.4534 -0.1867
   31SOL     OW  808   2.981   5.581   2.434  0.1234  0.5224  0.1037
   31SOL    HW1  809   3.026   5.510   2.388  0.8362 -1.4363  3.6322
   31SOL    HW2  810   2.890   5.553   2.438 -0.0196  0.8959 -0.4379
   32SOL     OW  811   6.287   2.323   0.076 -0.3254  0.2385  0.4967
   32SOL    HW1  812   6.331   2.295   0.156 -0.6665  0.7614  0.8705
   32SOL    HW2  813   6.329   2.272   0.007  1.5110  1.3677  0.7343
   33SOL     OW  814   3.840   2.931   0.979  0.0479 -0.2298 -0.3746
   33SOL    HW1  815   3.766   2.891   0.933  0.2952 -3.2062  1.7261
   33SOL    HW2  816   3.917   2.905   0.928 -0.0655  0.2613 -0.8019
   34SOL     OW  817   0.070   4.484   5.720 -0.1900 -0.1851  0.5745
   34SOL    HW1  818   0.053   4.462   5.812  0.6455 -1.3395  0.4558
   34SOL    HW2  819   0.142   4.546   5.723 -0.7206  0.4300  0.7430
   35SOL     OW  820   2.241   3.254   5.034  0.5638 -0.3568  0.1035
   35SOL    HW1  821   2.185   3.219   4.965  0.5226  0.3705 -0.2364
   35SOL    HW2  822   2.330   3.237   5.004  0.6275  2.4651 -1.5018
   36SOL     OW  823   5.041   0.729   3.787  0.4554  0.0409  0.5230
   36SOL    HW1  824   5.111   0.748   3.725  0.0245 -0.7280 -0.2120
   36SOL    HW2  825   5.054   0.638   3.811 -0.0788 -0.0013  0.6626
   37SOL     OW  826   2.590   1.200   6.669 -0.1223  0.9580  0.1774
   37SOL    HW1  827   2.578   1.107   6.649  1.3505  0.5580  1.0739
   37SOL    HW2  828   2.520   1.220   6.732 -0.6048  0.5273 -0.2212
   38SOL     OW  829   4.521   5.803   3.611 -0.4881 -0.1874 -0.1429
   38SOL    HW1  830   4.587   5.796   3.679 -2.0479  0.0672  1.4474
   38SOL    HW2  831   4.507   5.713   3.581  1.0969 -0.1505 -1.0271
   39SOL     OW  832   5.234   5.915   0.456  0.3722  0.4380 -0.4589
   39SOL    HW1  833   5.220   5.839   0.399 -0.8942  0.3937 -0.1007
   39SOL    HW2  834   5.150   5.928   0.499  1.3208  0.4684  1.4237
   40SOL     OW  835   2.871   6.616   0.301  0.3620 -0.4891 -0.3670
   40SOL    HW1  836   2.935   6.678   0.265 -0.6610  1.1553  0.5914
   40SOL    HW2  837   2.879   6.627   0.396 -2.4928  0.9814 -0.2506
   41SOL     OW  838   4.155   1.161   3.092  0.0650 -0.9354  0.0843
   41SOL    HW1  839   4.161   1.080   3.142 -0.5687 -1.1825 -0.2169
   41SOL    HW2  840   4.124   1.132   3.005 -0.2626 -0.3639  0.0094
   42SOL     OW  841   2.064   5.895   1.798 -0.3603  0.2928 -0.2006
   42SOL    HW1  842   2.054   5.867   1.889  1.3709  0.4340  0.0511
   42SOL    HW2  843   2.153   5.930   1.793 -1.1533  2.2679 -1.4284
   43SOL     OW  844   0.655   1.095   0.548 -0.1531 -0.0822  0.2528
   43SOL    HW1  845   0.628   1.139   0.628 -1.6061  0.0118 -0.2762
   43SOL    HW2  846   0.747   1.073   0.563  0.3046  2.1298  0.9705
   44SOL     OW  847   5.360   2.384   6.440 -0.3443 -0.0930  0.5120
   44SOL    HW1  848   5.361   2.297   6.400 -0.0010  0.3071 -0.3459
   44SOL    HW2  849   5.268   2.399   6.461 -0.5747 -0.1412 -0.4653
   45SOL     OW  850   2.238   5.316   1.012  0.0746  0.0033  0.0336
   45SOL    HW1  851   2.261   5.257   1.084 -1.7952  1.3684  1.7992
   45SOL    HW2  852   2.310   5.379   1.008 -0.4370  0.7113  1.6143
   46SOL     OW  853   5.506   3.937   2.140  0.0847  0.1449  0.3254
   46SOL    HW1  854   5.580   3.951   2.081  0.2292 -0.0619  0.4588
   46SOL    HW2  855   5.452   3.871   2.096 -2.0423  3.0496 -1.6518
   47SOL     OW  856   2.442   0.924   3.605 -0.1409 -0.0800 -0.3119
   47SOL    HW1  857   2.469   0.993   3.666 -0.2616 -0.0597 -0.2818
   47SOL    HW2  858   2.349   0.942   3.588  0.0621  0.3264 -1.0344
   48SOL     OW  859   2.370   6.223   2.525  0.1606  0.1951  0.1657
   48SOL    HW1  860   2.403   6.248   2.611  0.3278 -0.1632  0.2086
   48SOL    HW2  861   2.448   6.222   2.469  0.1863 -0.3889  0.2042
   49SOL     OW  862   5.112   5.994   1.406  0.2105  0.6637 -0.5941
   49SOL    HW1  863   5.147   6.012   1.319 -2.4256 -0.0828 -1.8521
   49SOL    HW2  864   5.019   6.018   1.400 -0.3150 -0.7206  1.5950
   50SOL     OW  865   5.641   2.019   2.132  0.3060  0.6071 -0.5049
   50SOL    HW1  866   5.718   2.066   2.102  0.2941  0.3074 -1.0004
   50SOL    HW2  867   5.675   1.944   2.180  0.3233  0.8757 -0.0920
   51SOL     OW  868   3.378   1.169   1.606  0.3484 -0.2472 -0.1938
   51SOL    HW1  869   3.327   1.088   1.610  0.7194 -0.4027  2.2435
   51SOL    HW2  870   3.459   1.148   1.653  1.3852  0.9111 -1.4119
   52SOL     OW  871   6.639   2.764   1.341  0.4063  0.3157  0.1236
   52SOL    HW1  872   6.581   2.824   1.294  1.6944  1.4933  0.0251
   52SOL    HW2  873   6.621   2.781   1.434  0.1348  0.2127  0.0918
   53SOL     OW  874   3.977   5.203   5.561  0.3153 -0.3598  0.3667
   53SOL    HW1  875   3.982   5.146   5.484  0.3913 -0.9946  0.8287
   53SOL    HW2  876   4.025   5.282   5.537  0.3787 -0.5790 -0.2186
   54SOL     OW  877   0.996   3.300   1.525  0.0588 -0.9185  0.1135
   54SOL    HW1  878   1.008   3.262   1.438 -1.1329  1.2049 -1.0276
   54SOL    HW2  879   0.952   3.232   1.575  0.0760 -1.8912 -1.1670
   55SOL     OW  880   3.397   0.595   2.898 -0.2606  0.4753  0.4687
   55SOL    HW1  881   3.429   0.505   2.899 -1.2763  0.1010  0.1376
   55SOL    HW2  882   3.342   0.601   2.977 -1.7444  0.2121 -0.5151
   56SOL     OW  883   1.145   1.683   2.704  0.1570  0.1734  0.0496
   56SOL    HW1  884   1.175   1.752   2.645  0.4556 -1.4313 -1.6879
   56SOL    HW2  885   1.153   1.602   2.654 -2.3369 -0.8896  1.2790
   57SOL     OW  886   1.959   4.756   2.648  0.5864  0.5450  0.3677
   57SOL    HW1  887   1.918   4.765   2.734 -1.0337  2.8823 -0.5923
   57SOL    HW2  888   1.910   4.686   2.606 -0.0008  0.8005  0.6082
   58SOL     OW  889   3.071   3.481   4.204 -0.3002  0.4852 -0.1348
   58SOL    HW1  890   3.086   3.433   4.286 -0.3807  0.7413  0.0287
   58SOL    HW2  891   3.103   3.422   4.136  0.3976  0.5553  0.1268
   59SOL     OW  892   5.949   4.330   5.973  0.0699 -0.4920  0.4477
   59SOL    HW1  893   5.894   4.356   6.047 -0.1854 -0.5294  0.2742
   59SOL    HW2  894   6.033   4.372   5.989 -0.2116  0.0992  0.3896
   60SOL     OW  895   1.260   4.620   2.957 -0.7093 -0.1393 -0.2161
   60SOL    HW1  896   1.350   4.651   2.944 -0.6387 -0.3245 -0.1687
   60SOL    HW2  897   1.206   4.682   2.907 -0.4809 -0.5147 -0.9446
   61SOL     OW  898   6.753   3.664   5.660 -0.2894 -0.5539  0.2882
   61SOL    HW1  899   6.823   3.601   5.677  0.1874  0.1117  0.8088
   61SOL    HW2  900   6.782   3.744   5.704 -0.9367 -0.0003 -0.2897
   62SOL     OW  901   0.396   5.050   0.004 -0.3550 -0.1669  0.1807
   62SOL    HW1  902   0.331   4.980   0.003 -0.4753 -0.0589 -2.5256
   62SOL    HW2  903   0.402   5.080  -0.087  1.9080  1.2942  0.7452
   63SOL     OW  904   1.075   3.798   5.036 -0.0521  0.2797 -0.2511
   63SOL    HW1  905   1.055   3.885   5.071  0.2397 -0.1388  0.9452
   63SOL    HW2  906   0.995   3.771   4.991 -0.6386  0.5399  0.6349
   64SOL     OW  907   2.240   1.712   3.617 -0.2384 -0.1549  0.2697
   64SOL    HW1  908   2.283   1.786   3.660  0.8684 -0.3614 -0.4608
   64SOL    HW2  909   2.148   1.723   3.638 -0.0493  1.2586  0.4446
   65SOL     OW  910   3.239   0.942   2.885 -0.3058 -0.3634 -0.1406
   65SOL    HW1  911   3.299   0.995   2.832 -1.6934  1.0722 -0.3178
   65SOL    HW2  912   3.178   0.904   2.822 -0.3774 -0.7509  0.1616
   66SOL     OW  913   4.200   2.392   4.281  0.0363  0.3731  0.2232
   66SOL    HW1  914   4.241   2.420   4.363 -0.6561  2.2341 -0.0402
   66SOL    HW2  915   4.204   2.296   4.283  4.6487  0.4824  0.0664
   67SOL     OW  916   3.999   0.767   2.814  0.1010 -0.8008 -0.0333
   67SOL    HW1  917   3.907   0.791   2.800 -0.1470 -2.0042 -0.5792
   67SOL    HW2  918   3.999   0.718   2.896  0.2842 -0.6530  0.0554
   68SOL     OW  919   4.182   5.556   6.484  0.6824  0.7281  0.2279
   68SOL    HW1  920   4.116   5.607   6.437 -0.1396 -0.2652  0.2927
   68SOL    HW2  921   4.191   5.601   6.568 -2.0881 -0.8141  1.4033
   69SOL     OW  922   5.531   3.238   3.695  0.7224  0.0425  0.1398
   69SOL    HW1  923   5.588   3.304   3.655  0.3272 -0.5382 -1.4367
   69SOL    HW2  924   5.574   3.154   3.676  0.2845 -0.2749  0.5304
   70SOL     OW  925   0.925   4.816   5.933 -0.7490  0.0070  0.8241
   70SOL    HW1  926   0.864   4.812   6.007 -2.1756 -0.6217 -0.3796
   70SOL    HW2  927   0.948   4.909   5.926 -0.3281  0.0345  2.2548
   71SOL     OW  928   1.312   4.820   2.462  0.2234  0.7725  0.1988
   71SOL    HW1  929   1.251   4.785   2.527  0.8045 -0.8253 -0.0662
   71SOL    HW2  930   1.265   4.814   2.379 -0.3201  2.2955  0.3999
   72SOL     OW  931   5.258   6.357   0.940 -0.6388 -0.1047  0.2529
   72SOL    HW1  932   5.308   6.305   0.877  2.0127  0.6632  1.6141
   72SOL    HW2  933   5.216   6.425   0.887  1.4491  0.4534 -0.7477
   73SOL     OW  934   2.955   6.312   4.642 -1.0466  0.2460 -0.2997
   73SOL    HW1  935   2.952   6.274   4.730  1.6785  0.1001 -0.2306
   73SOL    HW2  936   2.914   6.246   4.586  0.2363 -1.1788  0.3907
   74SOL     OW  937   5.867   1.305   1.810 -0.7997 -0.1327  0.4382
   74SOL    HW1  938   5.780   1.284   1.776  0.5470 -1.9691 -2.0543
   74SOL    HW2  939   5.897   1.378   1.755  0.1955 -1.1525 -0.4155
   75SOL     OW  940   5.134   3.627   1.270 -0.1375  0.4960 -0.4596
   75SOL    HW1  941   5.209   3.677   1.236 -0.1792 -1.4187 -3.4909
   75SOL    HW2  942   5.173   3.564   1.331  0.6406  0.1142 -1.3394
   76SOL     OW  943   1.861   2.557   5.399 -0.8861  0.2863  0.2449
   76SOL    HW1  944   1.829   2.479   5.352 -1.6396  1.5523 -1.3934
   76SOL    HW2  945   1.795   2.572   5.467 -1.0606 -0.1335  0.1707
   77SOL     OW  946   5.661   5.242   1.142  0.1976  0.2669  0.0862
   77SOL    HW1  947   5.646   5.154   1.107  0.7671  0.9841 -2.0516
   77SOL    HW2  948   5.634   5.236   1.233 -1.1424 -1.7458 -0.3955
   78SOL     OW  949   0.839   1.988   2.367 -0.8142  0.0689 -0.0527
   78SOL    HW1  950   0.796   1.929   2.305 -2.0538  0.9306 -0.0318
   78SOL    HW2  951   0.817   1.952   2.453  1.5746 -1.5930 -0.0869
   79SOL     OW  952   4.584   1.768   1.615  0.2272  0.1279 -0.4246
   79SOL    HW1  953   4.504   1.801   1.573 -0.0473 -1.2334 -0.9846
   79SOL    HW2  954   4.606   1.689   1.566  0.4161 -1.0061  1.4181
   80SOL     OW  955   4.628   6.162   5.936  0.0392  0.0221  0.2069
   80SOL    HW1  956   4.678   6.216   5.875 -0.2599 -1.8744 -1.7987
   80SOL    HW2  957   4.681   6.082   5.946 -2.4856 -2.0010 -1.9154
   81SOL     OW  958   0.960   5.988   3.175  0.3735  0.3379 -0.3869
   81SOL    HW1  959   0.922   5.901   3.158  1.1528 -0.3708  1.2974
   81SOL    HW2  960   0.893   6.049   3.146 -0.6376 -0.8468 -0.6213
   82SOL     OW  961   1.795   3.085   4.750 -0.2777 -0.3805  0.1056
   82SOL    HW1  962   1.837   3.154   4.802  1.0431 -0.4891 -0.8096
   82SOL    HW2  963   1.828   3.098   4.662 -1.9328 -0.6816 -0.5845
   83SOL     OW  964   1.110   2.135   0.343  0.5207 -0.7542 -0.0280
   83SOL    HW1  965   1.075   2.081   0.414 -1.2680 -0.0704 -0.3671
   83SOL    HW2  966   1.138   2.216   0.385 -1.4417  0.0467 -0.1999
   84SOL     OW  967   5.899   6.475   5.984  0.2737 -0.6332 -0.0443
   84SOL    HW1  968   5.892   6.468   6.079  1.0569 -0.3866  0.0328
   84SOL    HW2  969   5.844   6.404   5.950  0.7067 -1.2791  0.5979
   85SOL     OW  970   0.558   4.641   5.671  0.1997 -0.6305 -0.1890
   85SOL    HW1  971   0.596   4.728   5.666 -0.3819 -0.3746 -0.2159
   85SOL    HW2  972   0.553   4.611   5.581  2.8387 -1.7684  0.0084
   86SOL     OW  973   0.797   4.778   5.574 -0.3884  0.2983 -0.9344
   86SOL    HW1  974   0.854   4.788   5.498  1.4808  1.8689  0.6213
   86SOL    HW2  975   0.845   4.720   5.633 -0.5975  1.2370  0.1757
   87SOL     OW  976   0.550   2.870   0.801  0.4636  0.1764 -0.0884
   87SOL    HW1  977   0.613   2.903   0.737  0.3937 -1.2472 -0.9288
   87SOL    HW2  978   0.464   2.889   0.763  0.4164 -0.0590 -0.1047
   88SOL     OW  979   3.035   0.413   2.916 -0.1904  0.0482 -0.4028
   88SOL    HW1  980   3.022   0.501   2.950 -0.4129  0.4755 -1.5687
   88SOL    HW2  981   3.101   0.374   2.973  0.3648  1.1899 -0.2693
   89SOL     OW  982   1.235   2.815   2.447 -0.6049 -0.6131 -0.1299
   89SOL    HW1  983   1.173   2.800   2.376 -1.9090  0.5420  0.7256
   89SOL    HW2  984   1.181   2.849   2.519  1.0752  0.7746  0.5158
   90SOL     OW  985   5.444   2.080   1.510  0.2854  0.0928 -0.3259
   90SOL    HW1  986   5.381   2.016   1.545  1.3299  0.6267  2.7434
   90SOL    HW2  987   5.522   2.067   1.564  0.9145  3.1266 -0.4678
   91SOL     OW  988   5.295   2.804   0.926 -0.0064 -0.2483 -0.4647
   91SOL    HW1  989   5.205   2.794   0.956 -0.0621  2.8148  0.4779
   91SOL    HW2  990   5.288   2.852   0.844  0.7847  0.3092 -0.2110
   92SOL     OW  991   4.279   5.984   1.815  0.0755 -0.5121 -0.4184
   92SOL    HW1  992   4.279   5.890   1.832  2.1008 -0.3481  0.6121
   92SOL    HW2  993   4.190   6.013   1.838 -0.7723 -2.2676 -1.4208
   93SOL     OW  994   1.173   0.360   1.078  0.0469 -0.4527  0.2554
   93SOL    HW1  995   1.151   0.434   1.021 -1.2950 -2.3551 -1.7824
   93SOL    HW2  996   1.091   0.311   1.087  0.3826 -0.5316  3.3730
   94SOL     OW  997   3.471   3.238   0.044  0.4561  0.0756 -0.0935
   94SOL    HW1  998   3.520   3.209  -0.033  0.2994  0.5217 -0.3607
   94SOL    HW2  999   3.537   3.247   0.113  0.4830 -1.1003  0.0461
   95SOL     OW 1000   0.553   0.627   0.398 -0.5830  0.2832  0.1699
   95SOL    HW1 1001   0.522   0.540   0.372 -1.9527  0.4709  1.1284
   95SOL    HW2 1002   0.633   0.610   0.448 -1.4785 -0.4972  1.3439
   96SOL     OW 1003   0.477   1.647   0.924 -0.0357 -0.8981 -0.4536
   96SOL    HW1 1004   0.451   1.713   0.859  1.7536  1.8655  1.5231
   96SOL    HW2 1005   0.394   1.622   0.965 -0.5668  1.9452  0.3739
   97SOL     OW 1006   5.015   5.896   0.602 -0.2997 -0.0799 -0.3610
   97SOL    HW1 1007   4.993   5.933   0.687 -0.5117  0.9087 -0.8293
   97SOL    HW2 1008   4.936   5.850   0.574 -1.3778  2.3516 -1.4551
   98SOL     OW 1009   2.047   1.232   0.981  0.3564 -0.0483  0.3522
   98SOL    HW1 1010   2.091   1.314   0.958  2.1382 -0.6627  1.4174
   98SOL    HW2 1011   1.967   1.260   1.027  0.4707  1.0874 -0.1117
   99SOL     OW 1012   2.536   2.042   6.213 -0.5649 -0.1590  0.0035
   99SOL    HW1 1013   2.440   2.040   6.210 -0.5185 -1.5071 -0.9950
   99SOL    HW2 1014   2.560   1.956   6.249  0.2582  0.3926  0.8014
  100SOL     OW 1015   1.050   5.516   6.519 -0.7988  0.0277  0.8755
  100SOL    HW1 1016   0.976   5.550   6.470 -0.6575 -0.1079  0.5669
  100SOL    HW2 1017   1.027   5.529   6.611 -1.5028 -0.6506  0.7942
  101SOL     OW 1018   6.395   4.049   6.302  1.1801 -0.3049  0.3218
  101SOL    HW1 1019   6.479   4.050   6.255  0.5379 -1.4316 -0.8518
  101SOL    HW2 1020   6.366   4.141   6.299  0.2173 -0.6505 -3.2090
  102SOL     OW 1021   4.545   4.067   1.741 -0.1932 -0.5886 -0.3949
  102SOL    HW1 1022   4.620   4.016   1.709  1.0630  0.3857  0.9609
  102SOL    HW2 1023   4.473   4.043   1.682  1.3070 -1.1492 -2.0338
  103SOL     OW 1024   3.381   4.517   4.906  0.2150  0.7540 -0.3631
  103SOL    HW1 1025   3.319   4.446   4.919  1.7530 -0.0682  2.7920
  103SOL    HW2 1026   3.350   4.587   4.964  0.3468  1.5957 -1.2925
  104SOL     OW 1027   6.653   0.024   1.411  0.4603  0.2285  0.6891
  104SOL    HW1 1028   6.642  -0.042   1.479  0.3887  0.5051  0.9450
  104SOL    HW2 1029   6.574   0.017   1.358  1.4388 -1.4138 -0.6047
  105SOL     OW 1030   1.709   0.541   4.008 -0.2549  0.7220 -0.6177
  105SOL    HW1 1031   1.729   0.504   4.094  0.1758  0.2895 -0.9021
  105SOL    HW2 1032   1.625   0.502   3.984  1.8238 -2.8497 -2.4743
  106SOL     OW 1033   1.800   4.872   3.571  0.2757 -0.5497  0.0852
  106SOL    HW1 1034   1.720   4.843   3.526 -0.9679  1.4117  0.9656
  106SOL    HW2 1035   1.815   4.960   3.538  1.1782 -0.3030  1.1310
  107SOL     OW 1036   4.577   1.002   5.398  0.3746 -0.0016  0.2040
  107SOL    HW1 1037   4.645   0.942   5.366  0.0319 -0.3066  0.0443
  107SOL    HW2 1038   4.552   1.053   5.321  0.0621 -0.2421  0.1438
  108SOL     OW 1039   4.067   3.912   5.738  0.0041  0.3008  0.3788
  108SOL    HW1 1040   4.147   3.882   5.695  0.6494  0.8660  1.1925
  108SOL    HW2 1041   4.062   4.005   5.717 -0.2552  0.3421  0.6197
  109SOL     OW 1042   4.098   1.367   1.447  0.0998  0.3869 -0.0767
  109SOL    HW1 1043   4.040   1.432   1.408  0.5539  2.7206  2.9882
  109SOL    HW2 1044   4.159   1.418   1.500  1.9637 -2.3788  0.5186
  110SOL     OW 1045   1.838   5.772   4.518  0.2370 -0.2758  0.2042
  110SOL    HW1 1046   1.797   5.690   4.491  0.1804  0.0702 -0.7769
  110SOL    HW2 1047   1.925   5.770   4.478 -0.2489  0.7364 -0.9154
  111SOL     OW 1048   0.495   5.998   0.770  0.2024 -0.0785  0.0298
  111SOL    HW1 1049   0.515   5.977   0.679  0.2734 -2.9287  0.6515
  111SOL    HW2 1050   0.524   5.922   0.819 -1.4394  0.6686  2.2552
  112SOL     OW 1051   3.734   3.060   4.302 -0.1653  0.3175  1.0730
  112SOL    HW1 1052   3.732   3.046   4.397  3.1456 -1.2824  0.9792
  112SOL    HW2 1053   3.747   2.972   4.266  1.2722  1.2560 -0.7060
  113SOL     OW 1054   5.374   0.115   2.607 -0.4602 -0.1398  0.0156
  113SOL    HW1 1055   5.410   0.097   2.694  1.3945  1.4479 -0.3981
  113SOL    HW2 1056   5.444   0.091   2.547 -1.0243  0.5750 -0.9376
  114SOL     OW 1057   3.084   6.338   2.876 -0.2084 -0.1803 -0.3688
  114SOL    HW1 1058   2.997   6.298   2.886 -0.0415 -0.9459 -1.7569
  114SOL    HW2 1059   3.089   6.403   2.945 -0.5636 -2.4555  1.8951
  115SOL     OW 1060   5.566   3.368   6.056  0.3514 -0.3426 -0.3119
  115SOL    HW1 1061   5.658   3.395   6.053  0.1359  0.3617 -0.6261
  115SOL    HW2 1062   5.548   3.335   5.968 -0.2845  1.4841 -0.8843
  116SOL     OW 1063   2.132   4.928   4.580  0.0963 -0.3208 -0.2267
  116SOL    HW1 1064   2.105   4.843   4.546  1.2818 -0.8199  0.0592
  116SOL    HW2 1065   2.057   4.959   4.630 -0.5902 -0.8967 -0.8932
  117SOL     OW 1066   4.324   4.994   5.633  0.2168 -0.4790  0.5586
  117SOL    HW1 1067   4.284   5.069   5.677  2.3001  0.6271  0.6456
  117SOL    HW2 1068   4.399   5.032   5.586  3.2470 -2.9325  3.1946
  118SOL     OW 1069   0.694   1.280   0.035  1.0129  0.5577  0.2392
  118SOL    HW1 1070   0.745   1.215   0.084  0.8541  1.2167  1.2839
  118SOL    HW2 1071   0.665   1.233  -0.043 -2.0126 -1.6964  2.5895
  119SOL     OW 1072   2.054   4.589   1.922  1.1277 -0.2019 -0.6466
  119SOL    HW1 1073   2.079   4.523   1.986 -1.6666 -1.1367 -0.4420
  119SOL    HW2 1074   2.058   4.544   1.837 -0.2132 -0.4964 -0.5659
  120SOL     OW 1075   0.179   4.012   5.582 -0.0350  0.1036 -0.1627
  120SOL    HW1 1076   0.264   4.055   5.590 -0.1654  0.5662 -1.2081
  120SOL    HW2 1077   0.116   4.084   5.576 -0.5927 -0.2345  1.4048
  121SOL     OW 1078   2.451   5.370   1.861  0.7276  0.4788 -0.3478
  121SOL    HW1 1079   2.533   5.323   1.867  0.1282 -0.6696 -1.0039
  121SOL    HW2 1080   2.474   5.455   1.824  1.5795  0.0527 -0.8020
  122SOL     OW 1081   2.902   0.667   2.971  0.0094  0.3364 -0.3288
  122SOL    HW1 1082   2.889   0.684   2.878  0.5294 -2.3189 -0.9135
  122SOL    HW2 1083   2.934   0.751   3.006 -0.0744  1.3289 -2.5368
  123SOL     OW 1084   1.907   2.724   3.593 -0.1218 -0.6378 -0.0032
  123SOL    HW1 1085   1.828   2.686   3.630 -0.1524  0.1220  0.7134
  123SOL    HW2 1086   1.943   2.778   3.663  0.8441 -0.7053 -0.4410
  124SOL     OW 1087   1.650   5.671   4.144  0.7663 -0.4284  0.0404
  124SOL    HW1 1088   1.679   5.617   4.071  0.6642 -0.4740  0.0340
  124SOL    HW2 1089   1.567   5.632   4.172  1.4255 -1.1592  0.9981
  125SOL     OW 1090   1.230   6.489   4.498  0.0515  0.3283  0.7525
  125SOL    HW1 1091   1.281   6.532   4.567  1.5966 -1.1893  0.5790
  125SOL    HW2 1092   1.244   6.395   4.512 -1.4206 -0.0651 -0.2782
  126SOL     OW 1093   5.468   4.464   6.608  0.0709  0.1704  0.0334
  126SOL    HW1 1094   5.415   4.484   6.531 -0.4627 -0.9261  0.0981
  126SOL    HW2 1095   5.450   4.371   6.626 -1.9694  1.0990  3.1650
  127SOL     OW 1096   0.793   1.779   1.477  0.6093  0.0652  0.2036
  127SOL    HW1 1097   0.720   1.824   1.519 -1.1612 -1.6522 -0.8957
  127SOL    HW2 1098   0.785   1.688   1.506  2.5956 -0.0631  0.4117
  128SOL     OW 1099   2.866   5.881   1.435 -0.6928  1.2536 -0.5638
  128SOL    HW1 1100   2.950   5.864   1.393  0.6614  0.5772  2.3420
  128SOL    HW2 1101   2.808   5.813   1.402  0.3984  0.5939 -1.1423
  129SOL     OW 1102   1.680   2.205   1.405  0.7467  0.3617 -0.2326
  129SOL    HW1 1103   1.606   2.187   1.348  1.4957 -0.2236 -1.0377
  129SOL    HW2 1104   1.734   2.267   1.355  1.4138 -0.1634 -0.1782
  130SOL     OW 1105   0.011   4.903   3.201  0.0129 -0.0021 -0.4972
  130SOL    HW1 1106   0.031   4.815   3.170 -1.4780  0.0940 -1.8429
  130SOL    HW2 1107  -0.011   4.892   3.294  1.5937 -0.7650 -0.2042
  131SOL     OW 1108   6.101   5.285   0.450 -0.1988 -0.1594 -0.3415
  131SOL    HW1 1109   6.057   5.367   0.425  1.5915  1.0129  0.2222
  131SOL    HW2 1110   6.176   5.280   0.391  0.4428 -0.6970  0.5162
  132SOL     OW 1111   2.029   0.635   2.975  0.6183 -0.2674  0.1045
  132SOL    HW1 1112   1.947   0.607   3.016  0.8851  1.9242  2.2999
  132SOL    HW2 1113   2.020   0.611   2.883 -2.4121 -0.2363  0.3461
  133SOL     OW 1114   2.482   1.354   2.150  0.2268  0.1385 -0.5111
  133SOL    HW1 1115   2.462   1.266   2.116  1.8737 -0.3916 -0.1330
  133SOL    HW2 1116   2.418   1.411   2.106 -0.6556 -1.1910 -1.0020
  134SOL     OW 1117   3.996   1.379   6.301  0.0992  0.3845 -0.0742
  134SOL    HW1 1118   3.932   1.310   6.286 -1.7233  2.3770 -1.7482
  134SOL    HW2 1119   3.992   1.396   6.395 -0.5412 -0.6924  0.0993
  135SOL     OW 1120   0.845   2.746   2.549 -0.4430 -0.3071 -0.5734
  135SOL    HW1 1121   0.913   2.757   2.616  0.6331 -1.6692 -1.4296
  135SOL    HW2 1122   0.763   2.750   2.598  0.3501 -2.5572  1.0353
  136SOL     OW 1123   5.737   4.430   6.709 -0.3345 -0.4853 -0.5055
  136SOL    HW1 1124   5.779   4.483   6.641 -1.3691  0.4978 -0.3939
  136SOL    HW2 1125   5.644   4.430   6.686 -0.1745 -3.3756 -1.2441
  137SOL     OW 1126   0.257   3.955   4.241  0.2709 -0.1500 -0.0668
  137SOL    HW1 1127   0.302   3.871   4.232 -0.7287 -0.8896  1.5494
  137SOL    HW2 1128   0.264   3.975   4.334 -2.6465 -0.2610  0.2222
  138SOL     OW 1129   5.389   2.518   0.922  0.3624 -0.3267  0.0529
  138SOL    HW1 1130   5.354   2.527   1.010 -0.1216 -0.2757 -0.1441
  138SOL    HW2 1131   5.413   2.607   0.896  1.6479 -0.4986  0.5965
  139SOL     OW 1132   2.049   6.364   3.987 -0.2088 -0.3184  0.5083
  139SOL    HW1 1133   1.992   6.311   4.043  0.2269 -1.9553 -0.5385
  139SOL    HW2 1134   2.138   6.342   4.017 -0.0754  1.0231  1.1022
  140SOL     OW 1135   3.068   6.277   1.155 -0.5312 -0.3055 -0.6516
  140SOL    HW1 1136   3.043   6.188   1.181  0.2919 -0.7752 -1.4560
  140SOL    HW2 1137   3.157   6.288   1.188 -1.4128  1.0492  1.4211
  141SOL     OW 1138   5.452   0.729   3.734  0.0261 -0.4239  0.2682
  141SOL    HW1 1139   5.370   0.734   3.686  1.0068  0.1785 -1.3566
  141SOL    HW2 1140   5.446   0.646   3.783 -2.2519  0.4311  1.5341
  142SOL     OW 1141   4.846   1.810   3.216  0.4780 -0.1896 -0.0453
  142SOL    HW1 1142   4.831   1.717   3.200  1.5391 -0.3527 -0.1453
  142SOL    HW2 1143   4.795   1.830   3.294 -0.0447 -0.7684 -0.2345
  143SOL     OW 1144   4.982   3.982   4.323 -0.2371 -0.5386  0.2626
  143SOL    HW1 1145   5.014   3.898   4.289 -1.9601 -1.0435 -0.1644
  143SOL    HW2 1146   5.053   4.044   4.304  0.9727 -1.8386  0.4079
  144SOL     OW 1147   1.195   1.237   2.069  0.1220  0.1107 -0.0553
  144SOL    HW1 1148   1.229   1.190   1.993 -0.4907 -0.7450  0.1942
  144SOL    HW2 1149   1.137   1.303   2.032  1.3326  1.0003 -0.4333
  145SOL     OW 1150   2.650   2.332   3.475  0.1566 -0.4679  0.3883
  145SOL    HW1 1151   2.607   2.269   3.416  1.4811 -3.8077  2.8476
  145SOL    HW2 1152   2.578   2.367   3.529 -0.3970 -0.9083 -0.0579
  146SOL     OW 1153   1.122   3.514   1.132  0.4598  0.2626 -0.0393
  146SOL    HW1 1154   1.146   3.492   1.222  1.8636  1.7564 -0.0431
  146SOL    HW2 1155   1.194   3.480   1.079 -1.0444 -1.9164 -0.7746
  147SOL     OW 1156   4.640   3.709   6.226  0.4412 -0.4813  0.0169
  147SOL    HW1 1157   4.647   3.781   6.288  1.4568 -0.6953  0.1537
  147SOL    HW2 1158   4.683   3.742   6.146 -0.1338 -0.5086 -0.3100
  148SOL     OW 1159   1.341   2.184   5.142 -0.2440 -0.2682  0.0363
  148SOL    HW1 1160   1.395   2.123   5.091  1.1591  1.4467 -0.5546
  148SOL    HW2 1161   1.361   2.270   5.106 -2.6219  0.5171  0.5029
  149SOL     OW 1162   1.795   1.402   1.882  0.1430  0.1405 -0.1244
  149SOL    HW1 1163   1.866   1.344   1.912 -2.7262 -2.4631  1.8894
  149SOL    HW2 1164   1.764   1.444   1.962 -0.8330  0.9818 -0.9370
  150SOL     OW 1165   4.207   0.159   0.140  0.0237 -0.1868  0.9021
  150SOL    HW1 1166   4.261   0.208   0.203 -0.1940  2.1718 -0.6960
  150SOL    HW2 1167   4.154   0.226   0.098 -0.6424 -1.9005 -1.0165
  151SOL     OW 1168   2.725   4.984   3.052 -0.1625  0.2789 -0.7071
  151SOL    HW1 1169   2.788   5.018   2.988  0.1027  1.2895  0.0620
  151SOL    HW2 1170   2.652   5.046   3.049  0.4564  1.1387  0.9216
  152SOL     OW 1171   1.093   4.162   2.250  0.0533 -0.0557  0.4337
  152SOL    HW1 1172   1.102   4.257   2.240 -0.6191  0.0458  0.8041
  152SOL    HW2 1173   1.105   4.147   2.344  0.2409 -0.3461  0.3630
  153SOL     OW 1174   0.334   5.542   5.625 -0.2778  0.0853  0.6526
  153SOL    HW1 1175   0.370   5.626   5.652  0.5872 -0.0061 -0.2046
  153SOL    HW2 1176   0.388   5.514   5.552 -0.5002 -1.2702  0.9775
  154SOL     OW 1177   2.801   6.634   6.388  0.3897  0.2130  0.2529
  154SOL    HW1 1178   2.732   6.570   6.370  0.1745  0.5795 -0.2369
  154SOL    HW2 1179   2.782   6.707   6.328 -0.7376  1.7422  2.4154
  155SOL     OW 1180   6.764   0.206   3.290  0.1087 -0.6016 -0.0540
  155SOL    HW1 1181   6.718   0.280   3.330 -1.4152 -1.5910  0.0552
  155SOL    HW2 1182   6.856   0.235   3.287 -0.2908  0.8898  0.9059
  156SOL     OW 1183   1.315   0.883   4.270 -0.1515 -0.6069  0.4357
  156SOL    HW1 1184   1.249   0.949   4.247  1.8769  0.3619 -3.0095
  156SOL    HW2 1185   1.326   0.832   4.189  3.2197 -0.8016  0.9714
  157SOL     OW 1186   5.439   6.327   5.807 -0.3111  0.2125  0.3937
  157SOL    HW1 1187   5.438   6.411   5.852 -0.2100  0.8702 -0.8158
  157SOL    HW2 1188   5.478   6.346   5.721 -1.1608 -0.8881 -0.2462
  158SOL     OW 1189   2.254   3.996   2.344  0.1765 -0.0783  0.8114
  158SOL    HW1 1190   2.212   3.914   2.316  3.0756 -0.9537 -1.2383
  158SOL    HW2 1191   2.319   3.968   2.409  0.5906  0.7148  0.7353
  159SOL     OW 1192   2.685   5.264   6.015 -0.2312  0.1895  0.2165
  159SOL    HW1 1193   2.729   5.276   5.930 -0.5197  0.1937  0.0663
  159SOL    HW2 1194   2.682   5.351   6.053  0.7979  0.0385  0.6838
  160SOL     OW 1195   0.539   0.708   3.209 -0.0995  0.5675 -0.0611
  160SOL    HW1 1196   0.620   0.659   3.197  0.9385  2.2962 -0.3637
  160SOL    HW2 1197   0.471   0.641   3.220  1.2572 -0.9059 -0.4849
  161SOL     OW 1198   0.236   6.169   6.512 -0.1006 -0.0759  0.2544
  161SOL    HW1 1199   0.319   6.145   6.553  0.1801 -0.5248 -0.5586
  161SOL    HW2 1200   0.250   6.258   6.480  1.1441 -1.2339 -2.5951
  162SOL     OW 1201   6.006   4.344   1.338 -0.0649 -0.3289 -0.3330
  162SOL    HW1 1202   6.094   4.381   1.336 -0.1954  0.0030  0.2492
  162SOL    HW2 1203   6.010   4.274   1.403 -0.5627  0.5090  0.5998
  163SOL     OW 1204   1.810   6.188   2.704  0.0701 -0.0983 -0.3672
  163SOL    HW1 1205   1.893   6.197   2.749 -0.3918  1.4476  0.1859
  163SOL    HW2 1206   1.745   6.181   2.773 -0.5176  1.0985 -0.7945
  164SOL     OW 1207   0.563   2.971   2.303  0.0391  0.3552 -0.4995
  164SOL    HW1 1208   0.525   3.031   2.366  1.3958  1.3698 -0.6331
  164SOL    HW2 1209   0.658   2.979   2.315  0.2466 -1.8706 -0.4071
  165SOL     OW 1210   2.644   1.691   3.703 -0.3779 -0.4210  0.1711
  165SOL    HW1 1211   2.656   1.739   3.621 -2.1501 -0.1241  0.0795
  165SOL    HW2 1212   2.687   1.607   3.688  1.7905  0.6748 -0.0506
  166SOL     OW 1213   3.975   2.086   1.394  0.5365  0.0919 -0.1306
  166SOL    HW1 1214   3.967   2.162   1.336  1.1001  0.9805  0.9319
  166SOL    HW2 1215   3.896   2.087   1.447  0.1694 -0.5358 -0.6607
  167SOL     OW 1216   2.058   0.505   5.805  0.5871 -0.0685 -0.2057
  167SOL    HW1 1217   1.977   0.554   5.816 -0.6868 -1.4167 -3.0905
  167SOL    HW2 1218   2.127   0.570   5.816 -0.9504  1.5771 -0.0843
  168SOL     OW 1219   4.308   2.360   2.450 -0.0615 -0.3911  0.4937
  168SOL    HW1 1220   4.329   2.432   2.511  1.4057 -0.2679 -0.1373
  168SOL    HW2 1221   4.387   2.306   2.449 -0.6641 -1.2629 -0.0945
  169SOL     OW 1222   0.622   3.947   1.175 -1.3343  0.2358 -0.2292
  169SOL    HW1 1223   0.681   3.946   1.100  1.2849  1.7932  1.6816
  169SOL    HW2 1224   0.595   3.856   1.187  2.2133 -0.8526 -0.0656
  170SOL     OW 1225   1.881   3.012   4.390  0.1051 -0.4655  0.1308
  170SOL    HW1 1226   1.883   3.060   4.307  0.5611  0.2742  0.5705
  170SOL    HW2 1227   1.887   3.080   4.457  0.8880 -1.1403  0.7508
  171SOL     OW 1228   3.371   3.718   2.544 -0.2920  0.0219  0.1202
  171SOL    HW1 1229   3.291   3.726   2.595 -1.6845  0.3741 -2.0257
  171SOL    HW2 1230   3.399   3.627   2.556  0.5699  0.6364  3.0976
  172SOL     OW 1231   3.247   4.643   3.208  0.2151 -0.5802 -0.9005
  172SOL    HW1 1232   3.215   4.589   3.136 -0.4485 -1.3064 -0.0712
  172SOL    HW2 1233   3.169   4.662   3.260  0.7621 -0.4187 -0.1427
  173SOL     OW 1234   6.180   1.548   4.414  0.2826 -0.2967  0.1027
  173SOL    HW1 1235   6.149   1.585   4.497  0.7354  0.1727  0.0641
  173SOL    HW2 1236   6.200   1.457   4.434  0.7140 -0.0957  0.5927
  174SOL     OW 1237   5.270   1.284   5.162 -0.4476  0.3111 -0.2427
  174SOL    HW1 1238   5.283   1.205   5.109 -1.1216  0.0919 -0.0827
  174SOL    HW2 1239   5.359   1.317   5.177 -0.3037  1.0110 -2.4515
  175SOL     OW 1240   6.140   0.193   6.619 -0.2420  0.4038  0.0476
  175SOL    HW1 1241   6.099   0.165   6.537  0.9253  2.6241 -1.3358
  175SOL    HW2 1242   6.233   0.175   6.607 -0.2965 -1.2653  1.7816
  176SOL     OW 1243   1.457   5.245   1.745 -0.0509 -0.2035 -0.3655
  176SOL    HW1 1244   1.464   5.169   1.687 -0.1614 -1.4959  1.2769
  176SOL    HW2 1245   1.517   5.225   1.817  1.0118  1.9432 -0.6196
  177SOL     OW 1246   2.203   4.735   2.101 -0.0726 -0.3819 -0.4336
  177SOL    HW1 1247   2.131   4.721   2.039  0.5772 -0.5848 -1.1497
  177SOL    HW2 1248   2.281   4.742   2.046  0.3327  0.7897  0.2750
  178SOL     OW 1249   0.571   0.527   0.888  0.5962 -0.0888  0.5133
  178SOL    HW1 1250   0.614   0.612   0.877 -1.2590  0.9154  0.8181
  178SOL    HW2 1251   0.527   0.512   0.804  1.1578 -0.8986  0.3592
  179SOL     OW 1252   6.319   1.302   4.385 -0.4660  0.2228 -0.3950
  179SOL    HW1 1253   6.305   1.324   4.292 -0.1547 -2.0098 -1.0100
  179SOL    HW2 1254   6.326   1.207   4.385 -3.1350 -0.0362  2.2778
  180SOL     OW 1255   3.307   0.061   4.221  0.3220 -0.3006 -0.0633
  180SOL    HW1 1256   3.398   0.089   4.210  0.7409 -1.5714  0.0553
  180SOL    HW2 1257   3.278   0.106   4.300  0.4979  0.9608 -0.7038
  181SOL     OW 1258   5.623   1.688   2.432  0.1884 -0.0480  0.5471
  181SOL    HW1 1259   5.628   1.616   2.370  3.0162 -0.6098  1.3027
  181SOL    HW2 1260   5.552   1.664   2.492 -0.0490 -1.3577 -0.2471
  182SOL     OW 1261   1.968   0.922   0.672 -0.0022 -0.3983 -0.4229
  182SOL    HW1 1262   2.011   0.890   0.751 -0.1358  0.3270 -0.0553
  182SOL    HW2 1263   1.960   1.016   0.686 -0.1746 -0.2940 -1.2298
  183SOL     OW 1264   5.326   3.848   4.395  0.4506  0.1112 -0.4084
  183SOL    HW1 1265   5.353   3.837   4.486 -0.0310 -0.8266 -0.3744
  183SOL    HW2 1266   5.394   3.904   4.357  0.7166  0.4175  0.4933
  184SOL     OW 1267   3.988   4.531   4.312 -0.4861 -0.0754 -0.1823
  184SOL    HW1 1268   4.058   4.595   4.299 -1.0123  0.2673 -1.3275
  184SOL    HW2 1269   3.914   4.583   4.344 -0.0997 -0.5034  1.4879
  185SOL     OW 1270   4.918   4.158   2.796  0.2359  0.3882  0.1432
  185SOL    HW1 1271   4.842   4.213   2.777 -0.9570 -1.1611  0.4025
  185SOL    HW2 1272   4.993   4.212   2.769 -0.8708  2.3217  0.7947
  186SOL     OW 1273   1.387   0.189   6.259 -0.7903 -0.3525  0.4514
  186SOL    HW1 1274   1.317   0.128   6.234 -0.4560 -0.1970 -0.8848
  186SOL    HW2 1275   1.459   0.169   6.199  0.1990 -0.2587  1.5729
  187SOL     OW 1276   4.436   6.710   2.239 -0.0363  0.4726 -0.2984
  187SOL    HW1 1277   4.442   6.711   2.143 -0.4665 -0.3184 -0.3376
  187SOL    HW2 1278   4.407   6.798   2.262 -1.8864  0.0939 -1.0423
  188SOL     OW 1279   5.357   5.857   5.553  0.7146 -0.4265 -0.6538
  188SOL    HW1 1280   5.432   5.864   5.612  0.1606 -1.2456  0.1644
  188SOL    HW2 1281   5.337   5.763   5.551 -1.0983 -0.0796  0.1769
  189SOL     OW 1282   4.345   6.077   5.065 -0.4560  0.1740 -0.3796
  189SOL    HW1 1283   4.278   6.063   4.999  0.6554 -0.0659 -1.4831
  189SOL    HW2 1284   4.310   6.036   5.144 -2.6146  2.0901 -0.2865
  190SOL     OW 1285   0.807   3.050   0.244  0.3355  0.0573 -0.1381
  190SOL    HW1 1286   0.720   3.089   0.261  1.0778  1.5777  0.2780
  190SOL    HW2 1287   0.798   2.959   0.272 -1.1563  0.1769 -0.1721
  191SOL     OW 1288   2.818   4.432   5.833 -0.2526 -0.1019  0.4652
  191SOL    HW1 1289   2.754   4.384   5.781  0.7850 -2.6887  1.4767
  191SOL    HW2 1290   2.766   4.489   5.889 -1.5789 -0.6121 -0.2348
  192SOL     OW 1291   1.886   4.222   2.747  0.4090  0.4339 -0.6326
  192SOL    HW1 1292   1.876   4.308   2.706 -1.5516 -0.4739 -2.1970
  192SOL    HW2 1293   1.904   4.163   2.674  0.1034 -0.7147  0.2044
  193SOL     OW 1294   4.859   3.474   0.607  0.5925  0.1832 -0.0382
  193SOL    HW1 1295   4.867   3.444   0.517  0.8388  0.7850 -0.2178
  193SOL    HW2 1296   4.935   3.532   0.620  0.9209 -0.4027  0.7494
  194SOL     OW 1297   1.088   4.237   5.314  0.3194  0.8619 -0.4059
  194SOL    HW1 1298   1.051   4.222   5.400  0.0875 -0.6851 -0.7580
  194SOL    HW2 1299   1.025   4.296   5.270  1.5502  3.4790  1.2117
  195SOL     OW 1300   5.448   3.299   6.622  0.0921  0.3135  0.3244
  195SOL    HW1 1301   5.460   3.283   6.528 -0.4422  0.5880  0.2032
  195SOL    HW2 1302   5.443   3.394   6.629  3.3058  0.4863  1.0432
  196SOL     OW 1303   0.548   3.124   2.519  0.4598 -0.4741 -0.1141
  196SOL    HW1 1304   0.610   3.197   2.520 -1.7203  1.4815 -2.6605
  196SOL    HW2 1305   0.522   3.114   2.611  2.4326  0.4829  0.5880
  197SOL     OW 1306   6.583   5.589   3.923 -0.1136 -0.0767  0.7849
  197SOL    HW1 1307   6.564   5.617   4.013 -1.0345 -1.6268  1.0910
  197SOL    HW2 1308   6.655   5.527   3.932  0.0166  0.0230  0.4196
  198SOL     OW 1309   6.721   3.263   2.405  0.0529 -0.4258  0.4386
  198SOL    HW1 1310   6.734   3.169   2.397  0.7481 -0.2788 -0.2891
  198SOL    HW2 1311   6.787   3.301   2.347 -1.0374  0.4766 -0.2344
  199SOL     OW 1312   4.955   4.989   3.900  0.1649 -0.3049  0.2338
  199SOL    HW1 1313   4.998   4.921   3.953  1.0448 -1.1419 -1.4929
  199SOL    HW2 1314   4.986   4.972   3.811 -0.8089  1.4466 -0.4546
  200SOL     OW 1315   0.132   5.024   4.041  0.7211 -0.3797  0.4137
  200SOL    HW1 1316   0.189   4.952   4.014 -0.1307 -1.4942  1.5367
  200SOL    HW2 1317   0.190   5.085   4.087  1.4072 -0.4348 -0.3646
  201SOL     OW 1318   5.250   1.348   3.912 -0.2958  0.4457  0.1456
  201SOL    HW1 1319   5.276   1.418   3.971  2.3139  0.5678 -1.0843
  201SOL    HW2 1320   5.254   1.269   3.966 -1.8946  1.0280  1.1596
  202SOL     OW 1321   3.125   3.838   3.854  0.5493 -1.0137 -0.2435
  202SOL    HW1 1322   3.156   3.913   3.904 -1.4200 -0.4815  0.2180
  202SOL    HW2 1323   3.202   3.781   3.846  1.5342  0.0868  1.1670
  203SOL     OW 1324   3.234   5.971   3.202 -0.1811 -0.4827  0.6217
  203SOL    HW1 1325   3.327   5.987   3.188 -0.1696 -1.7540 -0.8456
  203SOL    HW2 1326   3.231   5.892   3.256 -0.4249 -2.5239 -2.2491
  204SOL     OW 1327   3.784   1.920   5.891  0.2538 -0.8177 -0.7209
  204SOL    HW1 1328   3.715   1.860   5.862  2.5397 -3.3305 -1.1734
  204SOL    HW2 1329   3.793   1.983   5.820 -0.7899 -1.1482 -1.1565
  205SOL     OW 1330   6.022   4.138   5.453  0.4265 -0.0756 -0.3002
  205SOL    HW1 1331   6.061   4.064   5.500  2.7934  1.6660  0.5840
  205SOL    HW2 1332   5.949   4.166   5.508  1.2218 -0.0292  0.7470
  206SOL     OW 1333   1.243   6.450   3.444  0.1026  0.5642  0.5582
  206SOL    HW1 1334   1.274   6.399   3.369  0.6137  2.4515 -0.5343
  206SOL    HW2 1335   1.176   6.394   3.484  2.1421 -1.8987  0.6849
  207SOL     OW 1336   1.402   1.947   1.113  0.2108  0.4731 -0.3356
  207SOL    HW1 1337   1.361   1.866   1.144 -0.2601  0.4242 -1.0574
  207SOL    HW2 1338   1.341   1.981   1.048  1.2299  0.5126 -1.2860
  208SOL     OW 1339   1.565   4.377   0.046  0.4643  0.5188 -0.0293
  208SOL    HW1 1340   1.599   4.467   0.052  0.5956  0.4057  0.8784
  208SOL    HW2 1341   1.545   4.352   0.136  0.3571 -0.3418 -0.2866
  209SOL     OW 1342   5.529   5.577   2.308 -0.2562 -0.6930  0.2054
  209SOL    HW1 1343   5.481   5.659   2.299 -0.0279 -0.4521  1.1156
  209SOL    HW2 1344   5.614   5.603   2.345  1.6966 -0.7617 -3.9640
  210SOL     OW 1345   3.874   5.960   1.215  0.4213  0.4125 -0.0350
  210SOL    HW1 1346   3.799   5.949   1.273  2.1007  0.1230  2.1099
  210SOL    HW2 1347   3.845   5.920   1.132 -0.9857 -1.7211  1.4206
  211SOL     OW 1348   6.090   5.865   2.500 -0.1945  0.0098 -0.0191
  211SOL    HW1 1349   6.115   5.905   2.583  5.0898 -1.3759 -0.7581
  211SOL    HW2 1350   6.103   5.934   2.435 -0.8128  0.0077 -0.1528
  212SOL     OW 1351   3.238   1.971   6.560 -0.1579  0.3574 -0.2301
  212SOL    HW1 1352   3.170   2.033   6.535  0.4553  1.1343  0.0465
  212SOL    HW2 1353   3.263   1.928   6.477  0.6678  1.7199 -0.6919
  213SOL     OW 1354   6.650   1.189   5.920 -0.2785  0.3193 -0.6369
  213SOL    HW1 1355   6.609   1.236   5.993  2.1813  0.6096  0.5876
  213SOL    HW2 1356   6.624   1.098   5.932  1.2110  0.1499  1.3898
  214SOL     OW 1357   5.745   2.407   3.240 -0.0607 -0.0295  0.1467
  214SOL    HW1 1358   5.794   2.449   3.169  0.7881  0.1753  0.8400
  214SOL    HW2 1359   5.664   2.457   3.247  0.1365  0.3487 -0.2520
  215SOL     OW 1360   0.844   6.671   5.620  0.1089  0.4713  0.5516
  215SOL    HW1 1361   0.909   6.639   5.682 -2.0715 -1.0869  2.0918
  215SOL    HW2 1362   0.797   6.740   5.667 -0.9021 -0.0396  0.3119
  216SOL     OW 1363   6.505   0.399   2.553 -0.5315 -0.0077  1.0900
  216SOL    HW1 1364   6.485   0.305   2.563 -1.7925  0.3933  2.5216
  216SOL    HW2 1365   6.466   0.422   2.468  0.1164 -0.8562  0.5471
  217SOL     OW 1366   4.976   3.942   4.586  0.2408 -0.5838  0.3357
  217SOL    HW1 1367   4.953   3.977   4.500 -1.0703  0.6075  1.1469
  217SOL    HW2 1368   4.926   3.860   4.591 -0.8932  0.1022  0.5544
  218SOL     OW 1369   0.710   0.911   4.855 -0.2675 -0.4375 -0.2031
  218SOL    HW1 1370   0.706   0.976   4.924  0.6033 -0.0837 -0.4819
  218SOL    HW2 1371   0.798   0.875   4.860 -0.8052 -1.7653  0.0915
  219SOL     OW 1372   3.760   6.257   6.419 -0.2929 -0.1833  0.3640
  219SOL    HW1 1373   3.797   6.344   6.406  1.2492 -0.8042  0.4523
  219SOL    HW2 1374   3.753   6.220   6.331 -0.3990 -0.1780  0.3710
  220SOL     OW 1375   3.612   1.958   2.999  0.6785  0.0325  0.3216
  220SOL    HW1 1376   3.705   1.965   3.021  0.4780 -0.3820  1.3128
  220SOL    HW2 1377   3.581   2.049   3.000  0.2607 -0.0805  3.6318
  221SOL     OW 1378   3.763   4.185   5.171  0.0062  0.3777 -0.2118
  221SOL    HW1 1379   3.781   4.165   5.079  1.3135 -0.9946  0.3320
  221SOL    HW2 1380   3.779   4.279   5.179 -3.2367  1.1957 -2.1029
  222SOL     OW 1381   3.864   4.319   2.485  0.0696 -0.7988 -0.1919
  222SOL    HW1 1382   3.792   4.327   2.548 -0.0912 -2.8191 -0.1053
  222SOL    HW2 1383   3.926   4.259   2.526  1.3930  0.1769 -0.6879
  223SOL     OW 1384   6.580   1.015   3.632 -0.4696 -0.0205 -0.0922
  223SOL    HW1 1385   6.663   0.980   3.666  0.1103 -0.5275 -1.9926
  223SOL    HW2 1386   6.543   1.063   3.706  2.0686  1.2003  0.4413
  224SOL     OW 1387   3.509   3.868   6.107 -0.0316 -0.4290  0.0134
  224SOL    HW1 1388   3.526   3.948   6.058 -0.8159 -0.5474 -0.4564
  224SOL    HW2 1389   3.592   3.849   6.151  0.2924  0.3823 -0.2395
  225SOL     OW 1390   5.364   5.695   1.843  0.0944  0.1821 -0.9592
  225SOL    HW1 1391   5.363   5.599   1.844  2.9682  0.0682 -2.2511
  225SOL    HW2 1392   5.455   5.718   1.863 -0.3904  2.6327 -1.4012
  226SOL     OW 1393   6.576   1.981   6.041  0.5976 -0.0587 -0.2149
  226SOL    HW1 1394   6.503   1.994   6.100  1.5718  0.8173  0.8317
  226SOL    HW2 1395   6.551   1.907   5.986 -0.8778 -0.0272  0.4123
  227SOL     OW 1396   6.362   3.156   3.221 -0.1856 -0.1241  0.7002
  227SOL    HW1 1397   6.438   3.194   3.177 -1.1902  0.0966 -0.8706
  227SOL    HW2 1398   6.314   3.111   3.152 -1.2475 -0.6593  1.7665
  228SOL     OW 1399   3.746   2.495   0.733  0.0174 -0.0720  0.1510
  228SOL    HW1 1400   3.805   2.516   0.660  3.4485 -1.4486  2.3773
  228SOL    HW2 1401   3.676   2.444   0.693  0.6017  1.1422 -2.5393
  229SOL     OW 1402   3.910   5.602   0.917  0.1340  0.0336  0.6591
  229SOL    HW1 1403   3.924   5.592   0.823  2.1328  0.0970  0.9259
  229SOL    HW2 1404   3.840   5.540   0.938  0.1146 -0.4391 -0.7541
  230SOL     OW 1405   3.316   5.501   4.145 -0.6418  0.7178  0.1898
  230SOL    HW1 1406   3.335   5.587   4.107 -0.0483 -0.1855 -1.6158
  230SOL    HW2 1407   3.384   5.444   4.109 -2.7473 -1.1136 -0.9543
  231SOL     OW 1408   2.618   1.223   5.549 -0.7762  0.0549  0.3285
  231SOL    HW1 1409   2.544   1.178   5.590 -0.2573 -0.7538  0.4120
  231SOL    HW2 1410   2.590   1.314   5.540 -1.5187 -0.1011  0.9878
  232SOL     OW 1411   4.299   0.619   5.966  0.3935 -0.2086 -0.7834
  232SOL    HW1 1412   4.323   0.664   5.885 -1.2310  1.9107 -0.1400
  232SOL    HW2 1413   4.228   0.560   5.941 -1.9176  2.3638 -0.4614
  233SOL     OW 1414   2.294   2.020   2.229  0.0692 -0.3801  0.2999
  233SOL    HW1 1415   2.320   2.106   2.263 -0.4569  0.3996 -1.2408
  233SOL    HW2 1416   2.202   2.031   2.203  0.7491 -0.6238 -2.3566
  234SOL     OW 1417   6.006   1.231   0.014  0.1108 -0.1512 -0.0350
  234SOL    HW1 1418   5.958   1.191   0.087  0.5525 -1.4402 -0.4375
  234SOL    HW2 1419   5.940   1.282  -0.033 -0.5708 -0.7764  0.2294
  235SOL     OW 1420   5.712   3.785   3.005  0.5368  0.1097 -0.1221
  235SOL    HW1 1421   5.649   3.717   3.027 -0.5654  0.9436 -0.6197
  235SOL    HW2 1422   5.695   3.804   2.912 -1.4627  3.3688  0.8212
  236SOL     OW 1423   0.163   1.990   1.716  0.2843 -0.0739  0.5540
  236SOL    HW1 1424   0.233   2.038   1.671 -0.4367 -0.3569 -0.9088
  236SOL    HW2 1425   0.126   1.934   1.648  0.6696 -2.2225  2.0597
  237SOL     OW 1426   2.102   0.772   1.872 -0.2350  0.4741  0.2933
  237SOL    HW1 1427   2.113   0.680   1.852 -0.9134  0.7016 -1.1686
  237SOL    HW2 1428   2.096   0.775   1.968  0.4030 -0.9155  0.3862
  238SOL     OW 1429   2.848   5.592   1.750 -0.0274  0.1021  0.6307
  238SOL    HW1 1430   2.763   5.615   1.788 -0.9272 -4.1226  1.4483
  238SOL    HW2 1431   2.901   5.564   1.824  1.9088  2.0049  0.0257
  239SOL     OW 1432   6.083   5.641   5.289  0.4759 -0.4945  0.1470
  239SOL    HW1 1433   6.121   5.555   5.269 -0.4318 -0.8654 -0.0058
  239SOL    HW2 1434   6.100   5.693   5.210 -1.5064 -1.4188 -0.9296
  240SOL     OW 1435   1.897   1.236   1.478 -0.0219 -0.3143  0.1494
  240SOL    HW1 1436   1.856   1.197   1.401 -1.5152 -2.2243  1.8512
  240SOL    HW2 1437   1.930   1.162   1.528  1.8807  0.9648  0.8552
  241SOL     OW 1438   2.355   5.304   5.263 -1.0753  0.2472 -0.1612
  241SOL    HW1 1439   2.445   5.272   5.269 -0.3771  1.9772 -0.9158
  241SOL    HW2 1440   2.346   5.363   5.339 -2.2242 -1.4191  1.0223
  242SOL     OW 1441   0.253   0.278   4.349 -0.2564  0.3401  0.5298
  242SOL    HW1 1442   0.302   0.196   4.346 -0.8019 -0.0482  1.8389
  242SOL    HW2 1443   0.165   0.252   4.375 -0.2838  1.3965  1.5284
  243SOL     OW 1444   2.920   2.217   2.402  0.1073  0.2209  0.0719
  243SOL    HW1 1445   2.889   2.229   2.492 -0.1746 -2.6519  0.4104
  243SOL    HW2 1446   3.000   2.165   2.412  0.3585  0.3363 -1.3337
  244SOL     OW 1447   3.340   5.256   2.083 -0.0745 -0.1711 -0.1075
  244SOL    HW1 1448   3.275   5.309   2.038 -0.2908  0.2629  0.7171
  244SOL    HW2 1449   3.423   5.278   2.040 -0.1392  0.9395  0.3254
  245SOL     OW 1450   4.256   3.087   4.219  0.1354  0.9799  0.0852
  245SOL    HW1 1451   4.235   3.156   4.282 -0.1451  0.8676  0.1160
  245SOL    HW2 1452   4.226   3.121   4.135  1.6081  1.6411 -0.1893
  246SOL     OW 1453   4.448   4.614   2.703 -0.3933 -0.5366  0.0729
  246SOL    HW1 1454   4.411   4.673   2.768  0.4923 -1.5781  1.5664
  246SOL    HW2 1455   4.374   4.562   2.673 -1.2694  1.6091 -1.6079
  247SOL     OW 1456   5.252   0.281   3.850 -0.2074  0.2280  0.0382
  247SOL    HW1 1457   5.199   0.358   3.867  0.1659  0.7711 -1.2043
  247SOL    HW2 1458   5.335   0.297   3.896 -0.7355 -0.1932  1.1704
  248SOL     OW 1459   3.241   4.089   1.841  0.8082  0.2136  0.1452
  248SOL    HW1 1460   3.151   4.071   1.866  0.5323  0.5658 -0.5878
  248SOL    HW2 1461   3.278   4.135   1.916  0.5437 -0.4280  0.6701
  249SOL     OW 1462   0.948   1.786   4.101 -0.3786 -0.4094 -0.1207
  249SOL    HW1 1463   0.969   1.875   4.074 -1.8071  0.2092  0.7395
  249SOL    HW2 1464   0.852   1.782   4.096 -0.2827 -2.0959 -0.7654
  250SOL     OW 1465   0.298   1.985   5.390 -0.0288  0.0601 -0.0292
  250SOL    HW1 1466   0.364   1.984   5.322  0.7203  0.8082  0.6593
  250SOL    HW2 1467   0.336   1.935   5.462 -0.3523  0.1980  0.2422
  251SOL     OW 1468   2.253   6.217   5.165  0.4929  0.4008 -0.3514
  251SOL    HW1 1469   2.304   6.295   5.143  0.6838  0.4803  0.3515
  251SOL    HW2 1470   2.318   6.154   5.197  0.5411 -0.6083 -2.3811
  252SOL     OW 1471   3.707   3.708   3.073  0.7909  0.2209 -0.5060
  252SOL    HW1 1472   3.713   3.655   2.994 -1.8088  0.7631 -1.1384
  252SOL    HW2 1473   3.658   3.654   3.135  1.6818  0.2998  0.2666
  253SOL     OW 1474   5.755   3.996   0.745 -0.4592 -0.4909  0.8519
  253SOL    HW1 1475   5.661   3.977   0.752 -1.1207  2.0720 -0.5106
  253SOL    HW2 1476   5.760   4.069   0.684  2.4778 -0.7923  0.6651
  254SOL     OW 1477   2.121   5.389   5.971 -0.3175  0.5442  0.7661
  254SOL    HW1 1478   2.052   5.323   5.976 -0.8216  1.0331  0.3665
  254SOL    HW2 1479   2.201   5.339   5.955 -1.1660  0.1982 -2.8963
  255SOL     OW 1480   0.997   4.070   1.373 -0.3549 -0.7287  0.0269
  255SOL    HW1 1481   0.943   3.991   1.373  1.5702 -2.0766 -0.5211
  255SOL    HW2 1482   1.084   4.039   1.349  0.3117  1.6515 -0.7452
  256SOL     OW 1483   3.608   6.288   0.089 -0.1536  0.5774 -0.0085
  256SOL    HW1 1484   3.572   6.302   0.177 -1.1988 -0.4359 -0.2625
  256SOL    HW2 1485   3.668   6.214   0.100 -2.3954 -1.3688 -0.6881
  257SOL     OW 1486   6.702   2.909   0.729 -0.1547 -0.6499  0.1403
  257SOL    HW1 1487   6.741   2.841   0.674  2.2847  0.1017  0.8768
  257SOL    HW2 1488   6.661   2.970   0.667  0.4055 -1.1244 -0.6987
  258SOL     OW 1489   2.134   0.794   0.885  0.3723  0.2094 -0.5446
  258SOL    HW1 1490   2.188   0.743   0.825  0.1430  0.0709 -0.6353
  258SOL    HW2 1491   2.130   0.741   0.964  0.0816  0.0560 -0.6613
  259SOL     OW 1492   2.216   6.458   0.507  0.0614  0.2708 -0.1901
  259SOL    HW1 1493   2.250   6.482   0.421 -3.8013  2.0304 -1.3333
  259SOL    HW2 1494   2.201   6.364   0.502  0.8942  0.1823 -1.0594
  260SOL     OW 1495   2.820   5.857   3.389  0.4709  0.4850 -0.6214
  260SOL    HW1 1496   2.879   5.784   3.407 -1.6693 -0.9071  0.9178
  260SOL    HW2 1497   2.811   5.902   3.473  0.3549  1.4681 -1.1491
  261SOL     OW 1498   1.693   0.281   6.145 -0.7032 -0.4346  0.2330
  261SOL    HW1 1499   1.622   0.262   6.084 -0.7099 -0.0669  0.1252
  261SOL    HW2 1500   1.730   0.195   6.166 -1.7539 -0.7188  0.9838
  262SOL     OW 1501   4.496   2.577   3.600  0.2652 -0.2544  0.3981
  262SOL    HW1 1502   4.531   2.533   3.677  0.0905 -3.1002 -1.1001
  262SOL    HW2 1503   4.444   2.511   3.555  2.9914  0.2887 -3.8880
  263SOL     OW 1504   2.717   5.557   2.181  0.1517  0.4087  0.2852
  263SOL    HW1 1505   2.796   5.509   2.157 -0.2634 -0.3936  0.4657
  263SOL    HW2 1506   2.646   5.493   2.168 -0.4664  1.1209  0.0955
  264SOL     OW 1507   4.021   3.809   3.084 -0.0030 -0.6647 -0.2206
  264SOL    HW1 1508   4.040   3.868   3.158 -0.3335  1.5947 -1.8714
  264SOL    HW2 1509   3.928   3.821   3.067  0.1459 -0.9011 -1.2280
  265SOL     OW 1510   6.752   0.219   4.449  1.0199 -0.8153 -0.5581
  265SOL    HW1 1511   6.698   0.140   4.442  0.5817 -0.3724 -2.4382
  265SOL    HW2 1512   6.692   0.287   4.479  1.1657 -0.9647  0.0702
  266SOL     OW 1513   1.904   3.873   2.849 -0.1087 -0.0509 -0.1648
  266SOL    HW1 1514   1.866   3.952   2.886  1.4060  0.4223  0.4059
  266SOL    HW2 1515   1.865   3.865   2.762 -1.4930  0.4197  0.4111
  267SOL     OW 1516   4.753   3.701   2.131  0.3865 -0.0054  1.0488
  267SOL    HW1 1517   4.685   3.743   2.184 -0.9553 -1.1674  0.2906
  267SOL    HW2 1518   4.766   3.616   2.173 -0.3058 -0.7186 -0.1769
  268SOL     OW 1519   0.253   0.022   3.226 -0.5104  0.7552  0.6957
  268SOL    HW1 1520   0.338   0.062   3.244  1.0068 -2.1181  0.2515
  268SOL    HW2 1521   0.230   0.053   3.138  2.0385 -1.4920 -0.8626
  269SOL     OW 1522   6.505   6.212   4.966 -0.9097 -0.0151  0.2178
  269SOL    HW1 1523   6.476   6.129   5.004 -0.7211 -0.3006 -0.2736
  269SOL    HW2 1524   6.424   6.257   4.942 -0.9373 -0.9650 -1.4824
  270SOL     OW 1525   4.868   4.587   4.305 -0.0893 -0.2061 -0.5403
  270SOL    HW1 1526   4.949   4.603   4.353  0.5406  0.3625 -1.7727
  270SOL    HW2 1527   4.799   4.596   4.371  0.8434 -0.7551  0.5344
  271SOL     OW 1528   0.612   0.060   2.867 -0.5748  0.3585 -0.0717
  271SOL    HW1 1529   0.612  -0.013   2.929 -1.0080 -1.2336 -1.9008
  271SOL    HW2 1530   0.590   0.020   2.783  1.4761  2.2333 -1.5531
  272SOL     OW 1531   1.035   2.148   5.176  0.2550  0.4876 -0.2509
  272SOL    HW1 1532   1.037   2.053   5.171  0.4226  0.4158  0.9218
  272SOL    HW2 1533   1.126   2.174   5.186  0.2572  0.8085 -1.0667
  273SOL     OW 1534   0.433   3.969   3.234  0.0520 -0.3502 -0.5499
  273SOL    HW1 1535   0.371   3.951   3.163 -1.0139 -2.1959  0.7940
  273SOL    HW2 1536   0.508   4.008   3.191 -0.8532 -0.8257 -2.6219
  274SOL     OW 1537   6.126   3.044   5.039 -0.3283 -0.0184 -0.3821
  274SOL    HW1 1538   6.088   3.088   5.114  0.9166  0.3651  0.0416
  274SOL    HW2 1539   6.053   3.030   4.979 -0.9839  1.4292  0.0614
  275SOL     OW 1540   3.916   0.484   2.349 -0.2476  0.0498 -0.1957
  275SOL    HW1 1541   3.938   0.517   2.262 -0.3488  1.0468  0.1500
  275SOL    HW2 1542   3.961   0.544   2.409 -0.8717 -0.1294  0.4537
  276SOL     OW 1543   0.823   0.005   3.453 -0.4532  0.3887 -0.1117
  276SOL    HW1 1544   0.834   0.100   3.458  1.1875  0.2417 -0.6857
  276SOL    HW2 1545   0.909  -0.031   3.476 -0.4245 -0.8911 -2.0781
  277SOL     OW 1546   3.695   2.286   6.375 -0.1357  0.2975 -0.0756
  277SOL    HW1 1547   3.703   2.323   6.463 -1.6019  1.3414 -0.3643
  277SOL    HW2 1548   3.699   2.191   6.389  0.3712  0.4692  1.0347
  278SOL     OW 1549   0.629   5.809   1.236  0.4438 -0.3088  0.3128
  278SOL    HW1 1550   0.553   5.810   1.177 -0.8729  0.7640  1.9676
  278SOL    HW2 1551   0.678   5.888   1.213 -1.9778  2.0807  2.9779
  279SOL     OW 1552   3.484   6.244   2.951  0.3920  0.5709  0.7234
  279SOL    HW1 1553   3.490   6.322   2.896 -0.3102  0.5980  0.6810
  279SOL    HW2 1554   3.435   6.181   2.898  0.1483  0.4266  1.1205
  280SOL     OW 1555   2.973   2.424   5.642  0.1692 -0.1661  0.4418
  280SOL    HW1 1556   2.977   2.336   5.681 -0.0351 -1.4797 -2.3435
  280SOL    HW2 1557   3.063   2.445   5.619 -0.0294 -0.5283 -0.7051
  281SOL     OW 1558   1.110   0.779   5.594  0.3182 -0.7415 -0.4806
  281SOL    HW1 1559   1.028   0.795   5.640  0.3015 -1.1680 -0.3662
  281SOL    HW2 1560   1.104   0.834   5.515 -1.1360 -2.6291 -1.7227
  282SOL     OW 1561   5.184   6.276   4.507  0.1528 -0.5901  0.1024
  282SOL    HW1 1562   5.104   6.323   4.486  0.8493  1.1017  1.1468
  282SOL    HW2 1563   5.247   6.304   4.440  0.5063 -0.1657  0.6045
  283SOL     OW 1564   0.206   4.159   4.612  0.6847  0.0621  0.0466
  283SOL    HW1 1565   0.194   4.188   4.521 -1.8826 -2.9226 -0.6499
  283SOL    HW2 1566   0.124   4.183   4.656  0.0262 -2.6436  0.3688
  284SOL     OW 1567   1.493   4.163   5.430 -0.0934 -0.1311 -0.2544
  284SOL    HW1 1568   1.408   4.133   5.462  0.4080 -1.6801 -0.3422
  284SOL    HW2 1569   1.502   4.251   5.466 -1.3446 -0.2941  0.4974
  285SOL     OW 1570   1.548   6.393   5.474 -0.2408 -0.0323  0.1463
  285SOL    HW1 1571   1.493   6.382   5.551 -0.0648  3.7958  0.9180
  285SOL    HW2 1572   1.499   6.453   5.418  1.7076  0.9137 -0.5924
  286SOL     OW 1573   4.885   6.339   3.518  0.1007  0.0160  0.0872
  286SOL    HW1 1574   4.812   6.283   3.492 -0.2268  1.1269 -1.4621
  286SOL    HW2 1575   4.962   6.298   3.478 -0.0969  0.4821 -0.7852
  287SOL     OW 1576   1.412   5.311   3.678 -0.4378 -0.1093  0.3275
  287SOL    HW1 1577   1.463   5.230   3.691  0.4743  0.1329 -1.5917
  287SOL    HW2 1578   1.330   5.281   3.638 -0.1411 -0.0901 -0.2923
  288SOL     OW 1579   2.620   3.170   2.428 -0.3278 -0.7319 -0.4198
  288SOL    HW1 1580   2.627   3.265   2.415  2.3979 -0.6827  1.0752
  288SOL    HW2 1581   2.615   3.135   2.339 -1.5264  0.7985 -0.9960
  289SOL     OW 1582   3.904   4.386   6.262 -0.0478  0.2819 -0.3373
  289SOL    HW1 1583   3.914   4.318   6.195  0.8145  1.7923 -1.7806
  289SOL    HW2 1584   3.972   4.450   6.241 -0.2873  1.1669  1.5290
  290SOL     OW 1585   4.126   6.575   6.139  0.4801  0.7227 -0.6007
  290SOL    HW1 1586   4.185   6.541   6.206 -0.1424  0.1928 -0.3119
  290SOL    HW2 1587   4.168   6.552   6.056  1.2396  1.3563 -0.3949
  291SOL     OW 1588   3.074   6.067   0.014 -0.5356  0.5624  0.3607
  291SOL    HW1 1589   3.094   6.149  -0.032 -1.6528  0.8989  0.4493
  291SOL    HW2 1590   3.028   6.095   0.093  0.2501 -0.0879  1.0443
  292SOL     OW 1591   3.105   5.943   6.130 -0.0454  0.1017  0.2081
  292SOL    HW1 1592   3.200   5.940   6.140  0.2017  0.3521 -1.8171
  292SOL    HW2 1593   3.072   5.878   6.193  1.7333 -3.0419 -1.9878
  293SOL     OW 1594   1.099   1.854   1.769 -0.3879  0.9556 -0.6112
  293SOL    HW1 1595   1.148   1.886   1.693  0.0063 -1.0178 -1.2348
  293SOL    HW2 1596   1.007   1.874   1.748 -0.5466 -1.7636 -2.8030
  294SOL     OW 1597   1.912   6.754   1.309 -0.1376  0.1390  0.5823
  294SOL    HW1 1598   1.938   6.745   1.401  0.0731 -0.3900  0.4674
  294SOL    HW2 1599   1.872   6.670   1.287 -1.2752  0.6820  0.5417
  295SOL     OW 1600   5.906   0.872   5.322  0.4541 -0.8635  0.2662
  295SOL    HW1 1601   5.942   0.960   5.328 -2.0164  0.1817  0.1904
  295SOL    HW2 1602   5.916   0.848   5.230 -1.0780  0.3346 -0.2378
  296SOL     OW 1603   0.698   6.010   5.810 -0.0552  0.4330  0.3176
  296SOL    HW1 1604   0.728   6.078   5.750 -0.2925 -0.7492 -1.1810
  296SOL    HW2 1605   0.740   5.930   5.778 -1.0185 -0.4006  1.0972
  297SOL     OW 1606   0.609   2.274   5.805  0.0604 -0.5446  0.6420
  297SOL    HW1 1607   0.618   2.329   5.882  1.6522 -0.2429  0.2623
  297SOL    HW2 1608   0.699   2.250   5.782 -0.3741 -0.5425 -1.1661
  298SOL     OW 1609   5.584   5.923   0.880 -0.2910 -0.8678 -0.4344
  298SOL    HW1 1610   5.535   5.879   0.811 -0.8088  1.1043 -1.3532
  298SOL    HW2 1611   5.668   5.877   0.882 -1.1320 -2.4633 -0.7486
  299SOL     OW 1612   0.967   4.466   0.157 -0.1320  0.2946 -0.0767
  299SOL    HW1 1613   1.031   4.479   0.227  0.8652 -0.2537 -0.8885
  299SOL    HW2 1614   0.995   4.525   0.087 -0.4343 -0.0573 -0.4937
  300SOL     OW 1615   0.635   3.460   1.559  0.0596  0.3108 -0.0436
  300SOL    HW1 1616   0.720   3.504   1.556 -0.7597  1.9354  0.0488
  300SOL    HW2 1617   0.630   3.423   1.647  1.4333 -1.3968 -0.6442
  301SOL     OW 1618   5.318   4.595   1.371 -0.8743  0.4765 -0.6052
  301SOL    HW1 1619   5.254   4.529   1.345 -0.9357 -0.0076  0.7365
  301SOL    HW2 1620   5.291   4.622   1.459  0.0973  1.1066 -0.4833
  302SOL     OW 1621   0.480   0.402   2.120 -0.4353  0.1098 -0.1846
  302SOL    HW1 1622   0.539   0.336   2.157 -1.4612 -1.3054 -1.0256
  302SOL    HW2 1623   0.459   0.458   2.194 -0.1233 -0.9402  0.7219
  303SOL     OW 1624   0.959   5.210   5.565  0.2105  0.1275 -0.1428
  303SOL    HW1 1625   1.053   5.196   5.551  0.1982  1.5654 -1.8663
  303SOL    HW2 1626   0.919   5.179   5.483 -0.5795  1.9039 -0.4336
  304SOL     OW 1627   5.871   2.551   6.408 -0.9151 -0.1215 -0.3613
  304SOL    HW1 1628   5.784   2.535   6.444 -0.9338 -0.5561 -0.5957
  304SOL    HW2 1629   5.862   2.631   6.357 -0.7999  0.7154  0.8979
  305SOL     OW 1630   1.077   4.814   3.288  0.7651 -0.0420  0.6577
  305SOL    HW1 1631   1.152   4.872   3.291  0.4685  0.3048  2.3413
  305SOL    HW2 1632   1.007   4.863   3.331  0.2954 -1.3293  1.3995
  306SOL     OW 1633   6.535   0.946   5.077  0.0301  0.5070 -0.2550
  306SOL    HW1 1634   6.587   1.026   5.062  0.5314 -0.1415 -2.0566
  306SOL    HW2 1635   6.446   0.970   5.050  0.1023  0.5762 -0.4337
  307SOL     OW 1636   2.438   3.048   5.248 -0.4167 -0.1849  0.1220
  307SOL    HW1 1637   2.388   3.020   5.324 -0.3895  0.8669  0.5419
  307SOL    HW2 1638   2.518   3.087   5.285  0.4734 -1.3828 -0.5174
  308SOL     OW 1639   5.215   5.265   0.393  0.1491  0.7996 -0.1391
  308SOL    HW1 1640   5.178   5.286   0.479  1.1064  1.9906 -0.0020
  308SOL    HW2 1641   5.309   5.252   0.409  0.2680  0.6231 -0.9287
  309SOL     OW 1642   3.559   4.175   1.599 -1.0632 -0.3040  0.2201
  309SOL    HW1 1643   3.569   4.210   1.688 -2.9647  1.0895 -0.0729
  309SOL    HW2 1644   3.643   4.193   1.556 -0.6645  0.4137  1.2736
  310SOL     OW 1645   4.605   3.130   1.108 -0.6632 -0.8564 -0.6834
  310SOL    HW1 1646   4.547   3.155   1.180 -0.1653  0.1552 -0.6131
  310SOL    HW2 1647   4.689   3.114   1.150 -0.5086 -0.7961 -0.9691
  311SOL     OW 1648   2.054   1.167   4.042  0.0509 -0.5759  0.5720
  311SOL    HW1 1649   1.985   1.215   3.997  0.9801  1.0608  0.8635
  311SOL    HW2 1650   2.123   1.158   3.977  1.0802  1.1089  1.4099
  312SOL     OW 1651   6.023   2.774   2.895 -0.4625  0.4929  0.6978
  312SOL    HW1 1652   5.949   2.832   2.910 -0.0415  1.4126 -0.6364
  312SOL    HW2 1653   6.022   2.758   2.800  0.2408 -0.5584  0.8565
  313SOL     OW 1654   0.692   1.499   0.396  0.4367 -0.3096 -0.4907
  313SOL    HW1 1655   0.632   1.534   0.461  2.4497  0.4465  1.0247
  313SOL    HW2 1656   0.755   1.447   0.447  2.1538  0.4344 -1.7972
  314SOL     OW 1657   1.667   5.918   6.400  0.1999  0.2693 -0.1116
  314SOL    HW1 1658   1.720   5.843   6.374 -1.4026 -0.7624 -0.4220
  314SOL    HW2 1659   1.604   5.883   6.462  1.1775  1.8820  1.8745
  315SOL     OW 1660   4.938   1.357   0.516 -0.4577 -0.4822  0.1882
  315SOL    HW1 1661   4.941   1.451   0.497  1.2842 -0.6358 -0.4359
  315SOL    HW2 1662   4.996   1.346   0.591 -1.0655 -0.9970  0.5872
  316SOL     OW 1663   4.821   6.687   0.577 -0.0350  0.5358 -0.1187
  316SOL    HW1 1664   4.729   6.665   0.595  0.6517 -1.4164  1.2418
  316SOL    HW2 1665   4.834   6.663   0.486 -1.1351  1.7966 -0.6282
  317SOL     OW 1666   0.444   0.588   5.868 -0.2909  0.3707 -0.3323
  317SOL    HW1 1667   0.426   0.629   5.953  0.0917  1.1035 -0.5983
  317SOL    HW2 1668   0.425   0.656   5.804  2.7207  0.9622 -0.6552
  318SOL     OW 1669   5.049   0.876   1.322  0.2827 -0.0179  0.2549
  318SOL    HW1 1670   5.085   0.861   1.235 -0.6865  0.6044 -0.2529
  318SOL    HW2 1671   4.955   0.883   1.309  0.0356 -0.8654  1.4798
  319SOL     OW 1672   0.577   1.416   4.569 -0.0625 -0.3813  0.5293
  319SOL    HW1 1673   0.510   1.484   4.563  0.5769  0.2005 -0.1811
  319SOL    HW2 1674   0.551   1.352   4.503 -0.9838 -1.1232  1.5951
  320SOL     OW 1675   6.277   3.454   0.408  0.9249  0.0099 -0.4311
  320SOL    HW1 1676   6.306   3.379   0.459 -1.6786 -0.9763 -0.3349
  320SOL    HW2 1677   6.260   3.522   0.473 -0.0775 -0.4637 -0.1930
  321SOL     OW 1678   6.344   3.308   1.361 -0.0444  0.0819 -0.1761
  321SOL    HW1 1679   6.353   3.394   1.321 -1.1304 -0.2569 -1.1860
  321SOL    HW2 1680   6.255   3.306   1.394  0.2512 -0.3413  0.5990
  322SOL     OW 1681   0.560   1.208   0.312  0.6814 -0.0151  1.0320
  322SOL    HW1 1682   0.644   1.246   0.288  0.6329  0.1847  1.1753
  322SOL    HW2 1683   0.578   1.160   0.393  0.6964 -0.1173  0.9674
  323SOL     OW 1684   1.142   3.912   1.180  0.2070  0.0243 -0.3857
  323SOL    HW1 1685   1.094   3.986   1.142 -0.7311 -0.6163 -0.4665
  323SOL    HW2 1686   1.076   3.843   1.190  1.0882 -0.8246 -0.3581
  324SOL     OW 1687   2.487   6.757   5.811 -0.0410  0.1765  0.1155
  324SOL    HW1 1688   2.458   6.836   5.857  0.0682 -0.5396  1.4640
  324SOL    HW2 1689   2.531   6.705   5.879 -1.0174 -1.5045 -0.5063
  325SOL     OW 1690   1.497   2.260   3.935 -0.3268 -0.0433 -0.1282
  325SOL    HW1 1691   1.555   2.279   4.009 -0.6163 -1.0546  0.3759
  325SOL    HW2 1692   1.442   2.338   3.926  0.7142  0.6830 -0.2383
  326SOL     OW 1693   5.411   5.698   6.309 -0.2037 -0.2040  0.1387
  326SOL    HW1 1694   5.492   5.648   6.303 -0.4166 -0.7399  1.5349
  326SOL    HW2 1695   5.434   5.778   6.356 -0.2007  0.3054 -0.7067
  327SOL     OW 1696   5.687   1.092   2.851  0.3185 -0.1951 -0.2699
  327SOL    HW1 1697   5.736   1.037   2.911  1.0512 -0.3264 -0.9702
  327SOL    HW2 1698   5.749   1.161   2.825  0.8169 -1.5122 -2.7229
  328SOL     OW 1699   3.044   5.927   4.365 -0.0456  0.4838  0.0887
  328SOL    HW1 1700   3.117   5.907   4.307  1.0530  0.2647  1.5110
  328SOL    HW2 1701   3.016   6.015   4.340  0.5501  0.4777 -0.6193
  329SOL     OW 1702   1.460   5.461   2.200  0.0601 -0.3961 -0.1528
  329SOL    HW1 1703   1.447   5.415   2.117  1.6154 -0.9128 -0.1307
  329SOL    HW2 1704   1.434   5.397   2.267 -0.5766 -0.2103 -0.2273
  330SOL     OW 1705   0.964   3.452   5.239 -0.0571 -0.0499  0.5115
  330SOL    HW1 1706   0.913   3.532   5.250  0.0233  0.2942 -1.3846
  330SOL    HW2 1707   1.040   3.479   5.187  0.4856 -1.1598  0.7111
  331SOL     OW 1708   5.769   4.633   2.613  0.0929 -0.0264  0.3702
  331SOL    HW1 1709   5.856   4.624   2.653  1.5531  2.0145 -2.1130
  331SOL    HW2 1710   5.760   4.727   2.599 -2.5891 -0.2227  0.6625
  332SOL     OW 1711   1.559   6.679   0.687 -0.1164 -0.2966  0.3030
  332SOL    HW1 1712   1.514   6.669   0.771  0.4812 -1.2251  0.5253
  332SOL    HW2 1713   1.646   6.641   0.702  0.2006  0.0737 -0.5668
  333SOL     OW 1714   1.348   2.648   3.627 -0.0565 -0.2830  0.1414
  333SOL    HW1 1715   1.420   2.702   3.659 -0.5120  0.0497  0.6266
  333SOL    HW2 1716   1.363   2.641   3.533  0.6554 -0.2908  0.2575
  334SOL     OW 1717   3.772   0.818   4.054 -0.3322 -0.4577 -0.0545
  334SOL    HW1 1718   3.847   0.763   4.078  0.3979  0.5915  0.0733
  334SOL    HW2 1719   3.800   0.907   4.072 -1.3274  0.0121 -0.7670
  335SOL     OW 1720   3.874   0.712   5.495 -0.5852  0.1899  0.2424
  335SOL    HW1 1721   3.895   0.804   5.479 -1.0201  0.2043 -0.2522
  335SOL    HW2 1722   3.935   0.664   5.440  0.1980  0.1548  1.1204
  336SOL     OW 1723   2.958   0.156   0.226 -0.2162  0.1048 -0.2110
  336SOL    HW1 1724   2.938   0.140   0.134 -0.8258  2.1390 -0.4503
  336SOL    HW2 1725   3.043   0.113   0.240  0.0445  0.0776 -1.8158
  337SOL     OW 1726   2.008   5.895   0.766 -0.1200  0.1843  0.1426
  337SOL    HW1 1727   2.094   5.888   0.725 -0.4277 -2.0819 -0.1330
  337SOL    HW2 1728   1.982   5.805   0.785 -1.6597  0.9465  1.8456
  338SOL     OW 1729   3.611   0.474   1.051  0.7853 -0.3061  0.2184
  338SOL    HW1 1730   3.621   0.559   1.092  1.1473  0.1674 -0.8272
  338SOL    HW2 1731   3.676   0.418   1.094  0.1341 -0.2207  1.3253
  339SOL     OW 1732   6.490   0.780   5.752 -0.0914  0.1532  0.8016
  339SOL    HW1 1733   6.477   0.706   5.693 -2.1504  0.5492  0.7445
  339SOL    HW2 1734   6.573   0.819   5.724 -0.6502 -0.1529 -1.3069
  340SOL     OW 1735   6.704   2.925   4.730  0.0946 -0.2280  0.3468
  340SOL    HW1 1736   6.769   2.899   4.665 -0.8505  1.5207 -1.3563
  340SOL    HW2 1737   6.755   2.959   4.804  1.1318  0.8689 -0.8611
  341SOL     OW 1738   5.862   3.067   0.893 -0.1209 -0.7169 -0.7336
  341SOL    HW1 1739   5.793   3.059   0.827  1.0871  0.7836 -2.2189
  341SOL    HW2 1740   5.940   3.091   0.843  1.0119 -0.3983  1.1537
  342SOL     OW 1741   0.599   1.089   4.386 -0.4620  0.2833  0.5193
  342SOL    HW1 1742   0.681   1.099   4.434  1.3493  1.5709 -2.7042
  342SOL    HW2 1743   0.604   1.002   4.347  0.1391  0.9668 -0.9761
  343SOL     OW 1744   1.837   4.480   2.611 -0.2107 -0.6941  0.0982
  343SOL    HW1 1745   1.825   4.461   2.518  0.0386  1.0799 -0.3107
  343SOL    HW2 1746   1.755   4.520   2.639  0.6950  1.2931 -0.0304
  344SOL     OW 1747   0.650   1.688   2.525 -0.2976 -0.1516  0.2267
  344SOL    HW1 1748   0.741   1.712   2.544  0.3801 -2.4637  0.1854
  344SOL    HW2 1749   0.612   1.766   2.487  2.0061  0.5420 -0.7736
  345SOL     OW 1750   0.469   5.010   2.476  0.2247 -0.1352  0.1062
  345SOL    HW1 1751   0.495   4.924   2.509  1.9415  0.3090 -0.0776
  345SOL    HW2 1752   0.441   5.059   2.554  2.5759  0.3150  0.6848
  346SOL     OW 1753   2.184   2.813   3.469 -0.3217  0.4554 -0.3136
  346SOL    HW1 1754   2.144   2.752   3.407 -1.5562  0.8999  0.0315
  346SOL    HW2 1755   2.121   2.819   3.541  2.1672 -1.9484  2.1799
  347SOL     OW 1756   4.886   5.101   2.751 -0.1369  0.2683  0.5328
  347SOL    HW1 1757   4.911   5.176   2.805 -0.2411 -0.2199  1.2628
  347SOL    HW2 1758   4.951   5.034   2.772  0.4460  0.4344 -0.7363
  348SOL     OW 1759   0.918   6.270   2.709 -0.1368 -0.4745  0.1297
  348SOL    HW1 1760   0.947   6.185   2.743 -0.0633 -0.4218  0.1991
  348SOL    HW2 1761   0.840   6.291   2.759 -1.5701 -1.6373 -1.5497
  349SOL     OW 1762   6.523   4.108   4.076 -0.0006  0.0871 -0.1993
  349SOL    HW1 1763   6.601   4.116   4.130 -0.1818 -1.0443  0.2561
  349SOL    HW2 1764   6.475   4.190   4.088  1.4398  1.0701 -1.0141
  350SOL     OW 1765   4.005   3.566   1.639 -0.4277 -0.4521  0.2116
  350SOL    HW1 1766   4.052   3.596   1.716 -0.9677 -1.1480  0.8186
  350SOL    HW2 1767   4.058   3.596   1.565  0.7897 -0.9338  0.8772
  351SOL     OW 1768   4.908   2.195   3.483 -0.4247 -0.4508 -0.3634
  351SOL    HW1 1769   4.947   2.274   3.520 -1.2704 -0.5082  0.6870
  351SOL    HW2 1770   4.962   2.123   3.519 -1.2197 -0.5037  0.7494
  352SOL     OW 1771   2.390   0.384   0.807  0.4603  0.6266 -0.3525
  352SOL    HW1 1772   2.373   0.293   0.781  1.3115  0.0498  1.0419
  352SOL    HW2 1773   2.484   0.396   0.791  0.2256  1.4920 -1.1643
  353SOL     OW 1774   3.987   6.474   5.656 -0.0909  0.1035  0.4518
  353SOL    HW1 1775   4.023   6.545   5.710 -0.6493  1.1005 -0.4789
  353SOL    HW2 1776   3.897   6.463   5.688 -0.0311 -0.1353  0.5397
  354SOL     OW 1777   4.248   4.148   4.095 -0.0932 -0.4079  0.1498
  354SOL    HW1 1778   4.262   4.116   4.185 -1.0183 -0.0068  0.4499
  354SOL    HW2 1779   4.156   4.128   4.078 -0.6212  1.8567  0.2498
  355SOL     OW 1780   6.522   4.504   2.800  0.0579 -0.3134 -0.7396
  355SOL    HW1 1781   6.617   4.509   2.811 -0.4430  0.0317  4.8655
  355SOL    HW2 1782   6.501   4.412   2.817 -0.8669  0.1859  0.8537
  356SOL     OW 1783   0.825   3.816   4.844  0.1283 -0.3731  0.1072
  356SOL    HW1 1784   0.791   3.763   4.771 -0.3948  0.7791 -0.4892
  356SOL    HW2 1785   0.857   3.896   4.803  0.8506 -0.1884  1.0209
  357SOL     OW 1786   0.072   1.676   1.181  0.0893 -0.0073 -0.1130
  357SOL    HW1 1787   0.073   1.722   1.264 -1.0813 -0.3789  0.1240
  357SOL    HW2 1788   0.085   1.744   1.115 -0.6435  0.5254  0.2859
  358SOL     OW 1789   6.400   6.506   1.479  0.0313  0.0167  0.1250
  358SOL    HW1 1790   6.437   6.563   1.412 -1.3687  0.1779 -0.5292
  358SOL    HW2 1791   6.362   6.566   1.544  0.9474 -0.1440  0.8147
  359SOL     OW 1792   2.779   0.117   0.497  0.2033  0.2577 -0.5832
  359SOL    HW1 1793   2.843   0.187   0.504  2.5907 -1.8055 -0.9835
  359SOL    HW2 1794   2.827   0.038   0.522 -2.3875 -1.2679 -0.1885
  360SOL     OW 1795   6.653   5.213   5.856  0.0465  0.3620  0.6356
  360SOL    HW1 1796   6.735   5.243   5.896  0.1016  0.8499  0.1649
  360SOL    HW2 1797   6.676   5.196   5.764 -0.0989 -0.6681  0.7789
  361SOL     OW 1798   6.755   3.459   4.190 -0.2641  0.3492  0.0448
  361SOL    HW1 1799   6.746   3.525   4.258 -0.9645  0.1222  0.1763
  361SOL    HW2 1800   6.804   3.388   4.231  0.3030  0.6942 -0.0326
  362SOL     OW 1801   3.310   6.117   5.648 -0.3326 -0.2436 -0.4178
  362SOL    HW1 1802   3.331   6.026   5.625  0.5700 -0.2107  0.2284
  362SOL    HW2 1803   3.346   6.128   5.736 -1.8846  0.2593  0.1679
  363SOL     OW 1804   1.672   3.226   6.380  0.1577  0.6821 -0.4774
  363SOL    HW1 1805   1.602   3.188   6.327 -1.6635  0.9086  1.6868
  363SOL    HW2 1806   1.654   3.320   6.381 -0.0118  0.6498  0.7556
  364SOL     OW 1807   4.517   5.018   0.307  0.4090 -0.1112  0.8991
  364SOL    HW1 1808   4.466   4.959   0.251  3.1648 -1.0147 -0.7609
  364SOL    HW2 1809   4.529   4.969   0.389 -0.3496 -0.3680  0.8615
  365SOL     OW 1810   5.360   2.563   0.252  0.5039  0.0638 -0.3582
  365SOL    HW1 1811   5.288   2.510   0.219  0.1269  1.1389 -1.2884
  365SOL    HW2 1812   5.407   2.505   0.312 -1.7638 -0.3371  1.0946
  366SOL     OW 1813   2.352   1.390   3.711 -0.6709 -0.7334 -0.3027
  366SOL    HW1 1814   2.377   1.441   3.788 -1.1218 -0.2441 -0.4681
  366SOL    HW2 1815   2.382   1.444   3.637  0.4026 -1.5420 -0.4615
  367SOL     OW 1816   0.418   2.479   0.129 -0.4082  0.7462  0.6874
  367SOL    HW1 1817   0.364   2.408   0.162 -1.6566  1.1960 -0.3362
  367SOL    HW2 1818   0.501   2.471   0.177 -0.3523 -1.6633  0.2373
  368SOL     OW 1819   4.393   3.830   0.877  0.0962 -0.2913  0.2941
  368SOL    HW1 1820   4.461   3.885   0.839  0.3313 -0.5316  0.3750
  368SOL    HW2 1821   4.398   3.847   0.971 -0.8214  0.6898  0.1743
  369SOL     OW 1822   2.362   2.479   4.413  0.4246  0.5962  0.2546
  369SOL    HW1 1823   2.454   2.500   4.433  0.4725  0.8790 -0.2797
  369SOL    HW2 1824   2.367   2.412   4.346  0.2693 -0.9700  1.7627
  370SOL     OW 1825   4.236   4.927   4.667  0.4016 -0.0505  0.3092
  370SOL    HW1 1826   4.314   4.959   4.713  0.5487 -1.9841  1.4603
  370SOL    HW2 1827   4.268   4.856   4.612 -0.2123  0.5612 -0.8599
  371SOL     OW 1828   1.185   5.968   4.683 -0.2764  0.6005 -0.3498
  371SOL    HW1 1829   1.139   5.888   4.657  2.3228 -0.4225 -2.0028
  371SOL    HW2 1830   1.131   6.038   4.647 -1.1672 -0.5098 -1.2569
  372SOL     OW 1831   3.854   0.104   3.205 -0.0396  0.0281  0.4868
  372SOL    HW1 1832   3.810   0.104   3.289 -0.5567  1.2882  0.2269
  372SOL    HW2 1833   3.784   0.115   3.140  0.3806 -0.6441 -0.0973
  373SOL     OW 1834   1.328   3.113   5.786 -0.1429  0.4448 -0.3670
  373SOL    HW1 1835   1.265   3.137   5.853  2.0647  0.4915  1.7756
  373SOL    HW2 1836   1.353   3.023   5.808 -0.9877 -0.3088 -2.4171
  374SOL     OW 1837   1.745   4.819   4.163 -0.5881 -0.4597  0.3384
  374SOL    HW1 1838   1.760   4.829   4.069  0.5738 -0.2663  0.5362
  374SOL    HW2 1839   1.651   4.833   4.174 -0.7939 -0.8613 -0.8426
  375SOL     OW 1840   1.761   3.366   1.957 -0.2809 -0.3848  0.0156
  375SOL    HW1 1841   1.685   3.345   1.902  0.7405 -1.4428 -1.0037
  375SOL    HW2 1842   1.803   3.440   1.912 -0.8532  0.3918  0.7355
  376SOL     OW 1843   1.560   5.645   0.242 -0.1674 -0.6271 -0.3263
  376SOL    HW1 1844   1.495   5.636   0.312 -0.0754  0.4387 -0.0921
  376SOL    HW2 1845   1.637   5.681   0.286 -0.7383  1.8540 -1.3054
  377SOL     OW 1846   0.830   3.615   2.565  0.4033  0.1272  0.2943
  377SOL    HW1 1847   0.892   3.601   2.637  0.7421  1.1707  0.2181
  377SOL    HW2 1848   0.767   3.543   2.573  2.2568 -1.5896 -0.2984
  378SOL     OW 1849   5.734   4.165   0.052  0.3207 -0.1696 -0.1859
  378SOL    HW1 1850   5.762   4.102  -0.014  0.0690  0.4942 -0.9395
  378SOL    HW2 1851   5.758   4.250   0.016  2.8892  0.0610  1.9043
  379SOL     OW 1852   6.722   5.151   1.658 -0.4245  0.4342  0.3682
  379SOL    HW1 1853   6.731   5.130   1.565  0.8445  1.0868  0.3218
  379SOL    HW2 1854   6.751   5.072   1.703 -2.1185 -0.2872  0.2264
  380SOL     OW 1855   6.107   2.610   6.053 -0.5682 -0.1574  0.1429
  380SOL    HW1 1856   6.063   2.685   6.092  2.6243  1.3824  0.9720
  380SOL    HW2 1857   6.154   2.647   5.978 -2.1086 -2.0898 -1.8640
  381SOL     OW 1858   2.731   2.489   3.996 -1.0682 -0.4696 -0.0322
  381SOL    HW1 1859   2.645   2.487   4.038 -0.8792 -1.2925  0.3242
  381SOL    HW2 1860   2.744   2.581   3.971 -1.5048 -0.1090  1.0369
  382SOL     OW 1861   1.988   3.660   5.329  0.1882  0.3244 -0.0160
  382SOL    HW1 1862   2.029   3.574   5.332  0.3005  0.3734 -0.2089
  382SOL    HW2 1863   1.999   3.695   5.418  1.4705  0.7715 -0.3490
  383SOL     OW 1864   2.281   5.587   6.090 -0.6399  0.2889  0.9297
  383SOL    HW1 1865   2.229   5.536   6.027 -0.1334  0.0786  0.6866
  383SOL    HW2 1866   2.341   5.637   6.036  0.5547 -0.7240  1.3016
  384SOL     OW 1867   5.067   5.590   0.024  0.7885 -0.4877  0.5434
  384SOL    HW1 1868   5.148   5.572   0.071 -0.3189 -1.2051  2.2039
  384SOL    HW2 1869   4.998   5.550   0.077 -0.6328 -0.1366 -0.9868
  385SOL     OW 1870   1.037   1.039   2.200  0.1843  0.2250  0.2904
  385SOL    HW1 1871   1.055   0.983   2.124 -1.7920  0.2906 -0.2476
  385SOL    HW2 1872   1.049   1.128   2.167  0.4152  0.2173  0.3531
  386SOL     OW 1873   2.922   5.743   3.070  0.5936 -0.8340 -0.4133
  386SOL    HW1 1874   2.940   5.837   3.065 -3.0477  0.0340  0.7043
  386SOL    HW2 1875   3.001   5.705   3.108  1.5292  2.0232  0.6384
  387SOL     OW 1876   4.993   1.764   2.591 -0.4293  0.1348 -0.1251
  387SOL    HW1 1877   4.931   1.826   2.631  0.8329  1.2811  0.0679
  387SOL    HW2 1878   4.941   1.718   2.525 -1.2363  1.8135 -0.6942
  388SOL     OW 1879   2.169   6.052   4.045 -0.3436  0.1816 -0.0551
  388SOL    HW1 1880   2.133   6.035   4.132 -0.9648 -2.6532 -0.8129
  388SOL    HW2 1881   2.262   6.035   4.054 -0.2549  0.8089  0.2604
  389SOL     OW 1882   4.193   4.189   3.079  0.2045  0.5336 -0.1047
  389SOL    HW1 1883   4.189   4.269   3.026 -0.1643 -0.2093 -1.1899
  389SOL    HW2 1884   4.250   4.130   3.030 -1.6671 -0.8651 -0.6559
  390SOL     OW 1885   3.371   2.761   2.696  0.6571 -0.3444 -0.0860
  390SOL    HW1 1886   3.322   2.803   2.766 -1.0692  0.0917 -1.5267
  390SOL    HW2 1887   3.421   2.831   2.656 -3.2803  0.7623 -3.3866
  391SOL     OW 1888   2.554   2.377   5.438  0.2812 -0.2037  0.0922
  391SOL    HW1 1889   2.461   2.369   5.458 -0.0146 -0.7476 -1.4309
  391SOL    HW2 1890   2.557   2.426   5.356  1.2818 -1.0262 -0.3774
  392SOL     OW 1891   0.718   0.288   5.509 -0.3232  0.1922  0.2591
  392SOL    HW1 1892   0.672   0.293   5.593 -1.7455 -0.6529 -0.4394
  392SOL    HW2 1893   0.741   0.195   5.500 -2.3482 -0.1869 -1.3858
  393SOL     OW 1894   0.272   2.517   5.041  0.4480  0.1138 -0.0013
  393SOL    HW1 1895   0.228   2.597   5.070  0.5025  0.0441  0.2744
  393SOL    HW2 1896   0.361   2.545   5.019  0.6483  0.0132  0.6874
  394SOL     OW 1897   2.976   4.747   0.696  0.0714 -0.4706 -0.1205
  394SOL    HW1 1898   3.045   4.808   0.723  0.7516 -0.1604 -2.4529
  394SOL    HW2 1899   2.896   4.785   0.732  0.6649  1.0623 -0.3505
  395SOL     OW 1900   0.854   0.420   1.469  0.1576  0.5044 -0.1233
  395SOL    HW1 1901   0.813   0.365   1.535 -0.0082  2.5926  1.5999
  395SOL    HW2 1902   0.947   0.419   1.492  0.4870 -0.8585 -1.4711
  396SOL     OW 1903   0.843   5.277   2.994 -0.0331 -0.3716  0.2225
  396SOL    HW1 1904   0.808   5.192   2.969  0.4496 -0.9470  1.5131
  396SOL    HW2 1905   0.769   5.322   3.035 -0.7487  0.4690 -1.8855
  397SOL     OW 1906   3.134   4.982   1.759  0.0218  0.6212 -0.0532
  397SOL    HW1 1907   3.189   4.984   1.837 -1.5566  0.8516  1.0910
  397SOL    HW2 1908   3.103   5.072   1.749  0.2261  0.6031 -0.9744
  398SOL     OW 1909   3.893   5.473   2.433 -0.5444  0.0058  0.1983
  398SOL    HW1 1910   3.844   5.461   2.351  0.6590 -2.8740 -0.1394
  398SOL    HW2 1911   3.907   5.385   2.466  2.3772  0.8897  1.4854
  399SOL     OW 1912   4.043   1.670   4.197 -0.2059 -0.0258  0.1597
  399SOL    HW1 1913   4.070   1.739   4.136 -0.4889  0.3034  0.4063
  399SOL    HW2 1914   3.969   1.707   4.244 -0.9806 -0.8665 -0.3784
  400SOL     OW 1915   4.964   4.040   0.806 -0.0661  0.1067  0.6199
  400SOL    HW1 1916   4.942   3.983   0.732 -0.3710  1.8595 -0.6574
  400SOL    HW2 1917   5.034   3.993   0.851 -0.4440 -1.3888 -0.2848
  401SOL     OW 1918   4.374   5.620   3.930  0.6262  0.1688 -0.3119
  401SOL    HW1 1919   4.307   5.672   3.885 -1.1842 -1.9010 -0.1029
  401SOL    HW2 1920   4.451   5.629   3.875 -0.9445 -0.5454 -2.7321
  402SOL     OW 1921   4.634   6.471   5.909  0.1286 -0.1590 -0.1320
  402SOL    HW1 1922   4.561   6.477   5.847  0.5755  2.3681 -0.4333
  402SOL    HW2 1923   4.709   6.444   5.856  0.8082  3.2631 -0.9676
  403SOL     OW 1924   1.644   0.301   4.162  0.0523  0.4808  0.0943
  403SOL    HW1 1925   1.555   0.318   4.194 -0.0118 -0.7847  0.6362
  403SOL    HW2 1926   1.631   0.243   4.086  0.4119  0.3096  0.1645
  404SOL     OW 1927   0.314   4.543   2.093  0.0886 -0.8465 -0.3828
  404SOL    HW1 1928   0.358   4.518   2.174 -0.3504  1.1922  0.5357
  404SOL    HW2 1929   0.234   4.490   2.092 -0.1535 -0.5187  0.7858
  405SOL     OW 1930   3.895   3.938   2.145  0.5930  0.3652 -0.0270
  405SOL    HW1 1931   3.865   3.871   2.205  1.5896  0.6367  0.7968
  405SOL    HW2 1932   3.971   3.978   2.189  1.3010  0.6054 -1.4218
  406SOL     OW 1933   1.524   1.892   0.721 -0.2175 -0.2936 -0.3176
  406SOL    HW1 1934   1.431   1.903   0.705  0.0725  0.9787 -1.2194
  406SOL    HW2 1935   1.549   1.967   0.775 -0.1811 -1.9259  2.0080
  407SOL     OW 1936   4.026   0.600   0.289 -0.4349 -0.4405  0.1020
  407SOL    HW1 1937   4.004   0.510   0.314 -1.2646 -0.1383  0.4612
  407SOL    HW2 1938   4.116   0.612   0.320  0.0506 -1.4663 -0.8134
  408SOL     OW 1939   6.730   5.124   5.593  0.1232  0.7159  0.1361
  408SOL    HW1 1940   6.655   5.151   5.540 -0.7228 -1.6584  0.0382
  408SOL    HW2 1941   6.804   5.174   5.559 -0.8754  0.9493 -1.7355
  409SOL     OW 1942   5.396   0.568   1.964  0.3307  0.0775 -0.1644
  409SOL    HW1 1943   5.414   0.627   2.038  2.0522 -1.6036  0.8122
  409SOL    HW2 1944   5.478   0.565   1.915 -0.2635 -0.2093 -1.1568
  410SOL     OW 1945   0.584   5.516   6.516 -0.0150  0.0563 -0.0284
  410SOL    HW1 1946   0.637   5.576   6.463  1.9636 -2.8164 -1.4388
  410SOL    HW2 1947   0.494   5.543   6.500  0.8515  3.0607 -0.0667
  411SOL     OW 1948   2.969   4.173   2.059 -0.5394 -0.1803 -0.5749
  411SOL    HW1 1949   2.882   4.162   2.098 -0.3809  1.0493  0.1385
  411SOL    HW2 1950   3.021   4.101   2.094 -0.5818  0.5378  0.9987
  412SOL     OW 1951   0.458   6.634   4.218  0.2796 -0.2964 -0.2761
  412SOL    HW1 1952   0.373   6.637   4.173 -0.4609 -1.3973  1.0219
  412SOL    HW2 1953   0.442   6.675   4.303  0.7662 -1.5177  0.4162
  413SOL     OW 1954   0.589   4.619   4.454  0.0385 -0.5168 -0.1417
  413SOL    HW1 1955   0.531   4.669   4.511  1.8641 -0.0798  1.3796
  413SOL    HW2 1956   0.605   4.537   4.501  0.4045 -0.7641 -0.6818
  414SOL     OW 1957   6.593   5.887   2.879 -0.1067 -0.0246 -0.1694
  414SOL    HW1 1958   6.611   5.907   2.971 -0.2792 -0.3337 -0.0677
  414SOL    HW2 1959   6.606   5.970   2.834  0.3642  0.0425  0.0781
  415SOL     OW 1960   3.127   5.561   5.414  0.2143  0.1592  0.8367
  415SOL    HW1 1961   3.125   5.508   5.494  0.1478 -0.4863  0.4127
  415SOL    HW2 1962   3.211   5.539   5.373 -0.6564 -1.1279 -0.3392
  416SOL     OW 1963   1.609   4.545   2.763 -0.0677 -0.0199 -0.2536
  416SOL    HW1 1964   1.519   4.513   2.774 -0.0668 -0.0786 -0.4115
  416SOL    HW2 1965   1.625   4.600   2.839 -0.7700  1.2054 -0.9700
  417SOL     OW 1966   5.082   2.131   3.082  0.6439 -0.2522 -0.0027
  417SOL    HW1 1967   5.072   2.188   3.006  0.7382  1.3201  1.1359
  417SOL    HW2 1968   5.083   2.043   3.046  1.4490  0.5095 -1.9018
  418SOL     OW 1969   0.195   5.196   0.857  0.6910 -0.4541  0.0473
  418SOL    HW1 1970   0.267   5.151   0.902  1.5379 -0.5158 -1.3390
  418SOL    HW2 1971   0.128   5.130   0.845  1.5466 -1.1116 -1.1432
  419SOL     OW 1972   2.580   4.577   2.305 -0.1728 -0.0812 -0.4153
  419SOL    HW1 1973   2.629   4.561   2.225 -0.9997 -1.2698 -0.6923
  419SOL    HW2 1974   2.647   4.583   2.374  0.5017  0.4616 -1.1084
  420SOL     OW 1975   4.332   6.025   1.554 -0.4536 -0.2563 -0.1615
  420SOL    HW1 1976   4.425   6.048   1.553 -0.9581  1.8410 -0.9451
  420SOL    HW2 1977   4.312   6.009   1.646  0.5255 -0.0225  0.0990
  421SOL     OW 1978   0.789   1.726   2.235 -0.3751 -0.5424  0.0514
  421SOL    HW1 1979   0.862   1.664   2.228 -0.8876 -1.3124  1.3655
  421SOL    HW2 1980   0.732   1.704   2.162  0.6047 -0.0658 -0.8712
  422SOL     OW 1981   1.976   4.083   6.597  0.3993 -0.2523 -0.1554
  422SOL    HW1 1982   1.937   4.050   6.678  2.5340 -1.2363  0.5063
  422SOL    HW2 1983   2.008   4.005   6.552  4.1267  0.6901  0.6904
  423SOL     OW 1984   1.654   2.674   1.359  0.4582  0.2913  0.5313
  423SOL    HW1 1985   1.747   2.689   1.380  0.4677  0.7787  0.1446
  423SOL    HW2 1986   1.630   2.748   1.304 -0.4550  0.7145  1.5061
  424SOL     OW 1987   2.942   4.065   2.992  0.1218  0.3041  0.3045
  424SOL    HW1 1988   3.037   4.055   2.985  0.2587 -0.8874  3.3624
  424SOL    HW2 1989   2.907   4.000   2.931  1.2408  0.7797 -0.8740
  425SOL     OW 1990   6.300   4.055   1.810  0.3897  0.2693 -0.1423
  425SOL    HW1 1991   6.268   4.096   1.891 -0.0836 -0.2376 -0.0663
  425SOL    HW2 1992   6.386   4.020   1.833  0.0859 -0.2179  0.2490
  426SOL     OW 1993   0.771   3.308   4.716  0.4597 -0.0612 -0.1533
  426SOL    HW1 1994   0.804   3.328   4.628 -0.5346 -0.5558 -0.6503
  426SOL    HW2 1995   0.754   3.214   4.715  0.3186 -0.0467  0.5230
  427SOL     OW 1996   5.198   6.698   1.806 -0.3758 -0.3930  0.5274
  427SOL    HW1 1997   5.140   6.633   1.845 -2.4034  0.3180 -1.2284
  427SOL    HW2 1998   5.141   6.751   1.750  1.8148  0.8275 -0.6199
  428SOL     OW 1999   3.559   2.241   5.087 -0.1633 -0.2341  0.2491
  428SOL    HW1 2000   3.505   2.320   5.079 -0.3336 -0.4251 -0.5388
  428SOL    HW2 2001   3.642   2.265   5.047  0.3693  0.0835  1.5343
  429SOL     OW 2002   4.971   2.645   0.362 -0.2461 -0.2994  0.5350
  429SOL    HW1 2003   5.019   2.577   0.410 -0.2120  0.0557  1.0094
  429SOL    HW2 2004   4.993   2.629   0.270  0.3636 -0.4696  0.7046
  430SOL     OW 2005   6.496   1.333   4.982  0.6009  0.2510  0.4332
  430SOL    HW1 2006   6.507   1.417   4.936 -0.5258 -0.5019 -1.2854
  430SOL    HW2 2007   6.441   1.281   4.923  2.1197 -2.0690  0.9981
  431SOL     OW 2008   0.777   4.731   0.575 -0.4837  0.6638  0.0461
  431SOL    HW1 2009   0.824   4.730   0.658  0.2240 -1.5279 -0.3381
  431SOL    HW2 2010   0.846   4.734   0.509 -1.0683  4.0512 -0.5018
  432SOL     OW 2011   0.737   3.565   5.493 -0.1552 -0.4947  0.1288
  432SOL    HW1 2012   0.645   3.542   5.479 -0.4419  0.1114  0.9784
  432SOL    HW2 2013   0.783   3.481   5.491 -0.5765 -0.7064 -1.3613
  433SOL     OW 2014   4.666   3.240   1.717 -0.1907 -0.2721  0.3997
  433SOL    HW1 2015   4.713   3.162   1.687 -0.7963 -0.8834  1.0378
  433SOL    HW2 2016   4.613   3.267   1.641  0.6839  0.0344 -0.1028
  434SOL     OW 2017   0.892   0.262   5.188 -0.5805  0.0079  0.1282
  434SOL    HW1 2018   0.835   0.329   5.227 -0.8664  0.5441 -1.1853
  434SOL    HW2 2019   0.973   0.269   5.238 -0.5294  1.5060 -0.1187
  435SOL     OW 2020   5.947   0.385   6.362 -0.4581 -0.1043 -0.7983
  435SOL    HW1 2021   6.019   0.428   6.316  0.5548 -0.3906  0.4916
  435SOL    HW2 2022   5.876   0.450   6.360  0.4279  0.8934 -0.5077
  436SOL     OW 2023   3.903   2.703   2.553  0.3862 -0.0608 -0.5957
  436SOL    HW1 2024   3.864   2.691   2.640  1.3068 -1.1114 -0.3331
  436SOL    HW2 2025   3.872   2.628   2.502  0.9013 -0.1237 -0.8122
  437SOL     OW 2026   1.620   6.255   0.360  0.1869  0.0007 -0.5488
  437SOL    HW1 2027   1.535   6.289   0.387  2.0004  5.3467 -1.0296
  437SOL    HW2 2028   1.651   6.317   0.295  5.2428 -0.8331  0.8934
  438SOL     OW 2029   4.386   1.690   6.657 -0.6188 -0.5259  0.0003
  438SOL    HW1 2030   4.374   1.777   6.618  0.8612 -0.7130 -0.9079
  438SOL    HW2 2031   4.424   1.708   6.743 -1.1256 -0.2306  0.1609
  439SOL     OW 2032   0.249   0.605   6.266  0.2875  0.4010 -0.0323
  439SOL    HW1 2033   0.207   0.659   6.333  0.4569  0.9432 -0.3543
  439SOL    HW2 2034   0.210   0.519   6.276  0.2475  0.5016  0.7082
  440SOL     OW 2035   5.616   2.330   1.920  0.2410 -0.0795 -0.6680
  440SOL    HW1 2036   5.708   2.333   1.894  0.6893  3.0852  1.0304
  440SOL    HW2 2037   5.567   2.352   1.841  0.8667 -2.2698 -1.7017
  441SOL     OW 2038   5.802   5.099   2.183  0.1207 -0.1898  0.0681
  441SOL    HW1 2039   5.864   5.095   2.110  1.2005 -0.5683  0.9853
  441SOL    HW2 2040   5.854   5.073   2.260 -0.0809  3.5809  1.5621
  442SOL     OW 2041   2.475   2.069   2.918 -0.0079 -0.2189 -0.0801
  442SOL    HW1 2042   2.490   1.988   2.869 -0.0081 -1.3601  1.7344
  442SOL    HW2 2043   2.390   2.099   2.888  0.1022 -0.7463 -0.9625
  443SOL     OW 2044   3.685   5.538   0.074 -0.1632 -0.1336  0.1400
  443SOL    HW1 2045   3.624   5.597   0.029 -1.1080 -1.2263 -0.0262
  443SOL    HW2 2046   3.771   5.578   0.060 -0.6793  0.6481 -0.8843
  444SOL     OW 2047   3.394   6.189   0.714 -0.0563 -0.5785 -0.4084
  444SOL    HW1 2048   3.480   6.230   0.702 -0.3692 -0.2344 -1.5578
  444SOL    HW2 2049   3.378   6.143   0.632 -1.3050 -0.0173 -0.4797
  445SOL     OW 2050   2.414   6.207   1.049  0.2488 -0.2082 -0.4811
  445SOL    HW1 2051   2.382   6.297   1.054 -2.4136 -1.0584 -1.0385
  445SOL    HW2 2052   2.409   6.175   1.140 -1.3118 -0.5545 -0.6598
  446SOL     OW 2053   3.895   5.799   4.405  0.2091 -0.4306 -0.1816
  446SOL    HW1 2054   3.885   5.705   4.415  1.0393 -0.5414 -0.3527
  446SOL    HW2 2055   3.860   5.836   4.486 -1.4769 -0.7949 -0.7310
  447SOL     OW 2056   2.084   1.032   1.798  0.3111  0.1247 -0.0984
  447SOL    HW1 2057   2.167   1.047   1.752  0.2299 -2.3346 -1.1207
  447SOL    HW2 2058   2.089   0.940   1.826 -0.4432  1.0417  3.1999
  448SOL     OW 2059   1.516   0.847   3.408 -0.1481 -0.1696 -0.4611
  448SOL    HW1 2060   1.522   0.942   3.397  1.2237  0.0930  2.1173
  448SOL    HW2 2061   1.546   0.812   3.325  2.6287  1.6620 -0.3152
  449SOL     OW 2062   5.646   2.311   0.647 -0.3216 -0.1734 -0.6606
  449SOL    HW1 2063   5.649   2.314   0.743 -0.6680  1.8231 -0.6892
  449SOL    HW2 2064   5.698   2.234   0.624  1.6588  0.6032  1.0451
  450SOL     OW 2065   5.434   0.995   3.779 -0.5119  0.0992 -0.2043
  450SOL    HW1 2066   5.428   0.903   3.754 -1.4132 -0.2754  1.3533
  450SOL    HW2 2067   5.433   1.042   3.696 -2.1660 -1.1790 -0.9325
  451SOL     OW 2068   5.842   6.010   2.351  0.2204  0.3386 -0.2638
  451SOL    HW1 2069   5.916   6.069   2.341  1.2567 -0.6055  1.5315
  451SOL    HW2 2070   5.784   6.054   2.414 -0.7361  1.0574 -1.6336
  452SOL     OW 2071   4.024   6.503   1.415  0.1729 -0.2210  0.4212
  452SOL    HW1 2072   4.034   6.595   1.392 -2.9263  0.3992  1.3735
  452SOL    HW2 2073   4.019   6.502   1.511  1.5935 -1.5684  0.5150
  453SOL     OW 2074   5.820   2.420   5.661 -0.4877 -0.0462  0.1010
  453SOL    HW1 2075   5.870   2.404   5.741 -1.4384 -1.8740  0.3419
  453SOL    HW2 2076   5.884   2.457   5.599  0.6290 -0.2326  1.1355
  454SOL     OW 2077   6.591   2.159   5.811 -0.1832  0.1319  0.3420
  454SOL    HW1 2078   6.593   2.109   5.730  0.7912  0.6522  0.0398
  454SOL    HW2 2079   6.609   2.095   5.880 -1.9583 -0.4904  0.2521
  455SOL     OW 2080   5.770   6.299   5.165 -0.0279  0.2109 -0.1426
  455SOL    HW1 2081   5.844   6.294   5.105 -0.5059 -1.5078 -0.6264
  455SOL    HW2 2082   5.696   6.326   5.109 -0.4929 -1.4792 -0.3697
  456SOL     OW 2083   1.354   4.061   4.283  0.1308  0.7216  0.0229
  456SOL    HW1 2084   1.364   4.052   4.377 -0.1197  1.3849  0.1120
  456SOL    HW2 2085   1.363   3.971   4.249 -0.3635  0.4053  0.7259
  457SOL     OW 2086   6.220   5.030   5.787  0.8406  0.0461 -0.1918
  457SOL    HW1 2087   6.131   5.043   5.818  1.1816 -0.1233  0.8953
  457SOL    HW2 2088   6.217   4.946   5.740  1.1448 -1.7165  2.8012
  458SOL     OW 2089   0.893   2.260   2.552 -0.1090  0.0653 -0.1460
  458SOL    HW1 2090   0.943   2.182   2.573  1.9922  1.7189  1.2787
  458SOL    HW2 2091   0.802   2.234   2.562  0.5776 -2.1110  0.5960
  459SOL     OW 2092   3.432   6.706   5.920  0.1650 -0.7322  0.0616
  459SOL    HW1 2093   3.520   6.740   5.901  0.4012  0.9923  3.7248
  459SOL    HW2 2094   3.412   6.649   5.847  3.6382  0.2096 -1.7400
  460SOL     OW 2095   1.413   6.603   4.657 -0.4519 -0.2236  0.1118
  460SOL    HW1 2096   1.457   6.606   4.742  0.5341  0.4935 -0.4140
  460SOL    HW2 2097   1.478   6.637   4.595 -1.1667 -0.7304 -0.9262
  461SOL     OW 2098   0.393   3.610   2.986  0.4921 -0.0034 -0.3821
  461SOL    HW1 2099   0.339   3.666   2.930  2.3273  0.8213 -1.3690
  461SOL    HW2 2100   0.453   3.566   2.926 -0.0161 -2.0282  0.5346
  462SOL     OW 2101   4.347   0.039   3.175 -0.1356 -0.3277 -0.2530
  462SOL    HW1 2102   4.341  -0.051   3.144  0.4480 -0.1974 -0.7565
  462SOL    HW2 2103   4.268   0.052   3.228 -0.2426 -1.1142 -0.2226
  463SOL     OW 2104   3.169   3.627   4.508 -0.3529  0.0535 -0.5876
  463SOL    HW1 2105   3.238   3.602   4.447 -1.3266  2.7046 -2.8441
  463SOL    HW2 2106   3.112   3.550   4.512  1.2249 -1.1541 -0.8265
  464SOL     OW 2107   5.977   2.609   1.257 -0.3136 -0.3455 -0.1060
  464SOL    HW1 2108   5.905   2.555   1.290  1.2306 -2.3206  0.1618
  464SOL    HW2 2109   5.936   2.666   1.192 -2.3773 -0.3574  1.1338
  465SOL     OW 2110   3.831   4.925   5.942  0.0774  0.3184 -0.6568
  465SOL    HW1 2111   3.742   4.894   5.953  0.4888  0.0096  2.2661
  465SOL    HW2 2112   3.866   4.875   5.868 -1.2525 -1.6706  0.0322
  466SOL     OW 2113   4.582   2.147   5.417 -0.1255  0.7520  0.2579
  466SOL    HW1 2114   4.645   2.166   5.348  3.0545 -1.2082  2.4897
  466SOL    HW2 2115   4.589   2.222   5.477 -0.2679  0.7703  0.2515
  467SOL     OW 2116   4.555   2.209   1.192 -0.3254  0.3544  0.2769
  467SOL    HW1 2117   4.646   2.233   1.205 -0.5187  1.4974 -0.3876
  467SOL    HW2 2118   4.544   2.126   1.240  1.1394  0.0194  0.0447
  468SOL     OW 2119   1.295   4.179   3.688 -0.1318 -0.6616  0.6518
  468SOL    HW1 2120   1.289   4.156   3.780 -0.1985 -1.2488  0.4994
  468SOL    HW2 2121   1.296   4.095   3.642  2.4809 -0.4507  0.2564
  469SOL     OW 2122   5.381   6.552   2.606 -0.3260 -0.0281 -0.3514
  469SOL    HW1 2123   5.313   6.603   2.649 -0.2150 -0.7667  0.7534
  469SOL    HW2 2124   5.334   6.483   2.559 -0.3311 -1.0343  1.0845
  470SOL     OW 2125   0.228   3.832   5.363  0.3970 -0.3784  0.0690
  470SOL    HW1 2126   0.147   3.819   5.314 -0.4655  0.3762  1.2983
  470SOL    HW2 2127   0.202   3.876   5.443  1.9159 -0.8527  0.8500
  471SOL     OW 2128   6.435   0.761   4.713 -0.0422 -0.8202 -0.1111
  471SOL    HW1 2129   6.342   0.738   4.709 -0.1187 -0.1853 -2.1973
  471SOL    HW2 2130   6.453   0.770   4.807 -2.8002  1.9926  0.2233
  472SOL     OW 2131   2.748   2.866   5.840  0.4901 -0.2632  0.2623
  472SOL    HW1 2132   2.725   2.902   5.754  0.7647 -0.4773  0.0974
  472SOL    HW2 2133   2.733   2.772   5.831 -0.4513 -0.1602  0.7668
  473SOL     OW 2134   1.004   5.280   2.461  0.0082  0.5565 -0.2423
  473SOL    HW1 2135   0.934   5.321   2.409 -0.4667  1.3714  0.9968
  473SOL    HW2 2136   1.024   5.199   2.415 -0.2401  1.3509 -1.8198
  474SOL     OW 2137   4.330   6.251   5.666 -0.3237  0.5384 -0.1404
  474SOL    HW1 2138   4.252   6.245   5.612 -0.4667  0.2440  0.0952
  474SOL    HW2 2139   4.376   6.168   5.651  0.5311  1.1830 -1.1747
  475SOL     OW 2140   1.245   2.986   6.744  0.3433 -0.9321 -0.0996
  475SOL    HW1 2141   1.200   3.035   6.812  0.3568 -1.5790  0.3857
  475SOL    HW2 2142   1.317   3.043   6.717 -0.1671 -0.3222 -0.1704
  476SOL     OW 2143   3.347   0.655   0.636  0.2206 -0.1490 -0.2356
  476SOL    HW1 2144   3.403   0.731   0.619  0.7930 -0.7165 -0.9432
  476SOL    HW2 2145   3.388   0.611   0.711  0.1785 -0.0359 -0.1466
  477SOL     OW 2146   6.341   6.701   4.601 -0.2086  0.3624  0.4619
  477SOL    HW1 2147   6.252   6.705   4.564  0.1230  1.6979 -0.2260
  477SOL    HW2 2148   6.329   6.724   4.694 -0.9598 -2.4155  1.0937
  478SOL     OW 2149   3.732   0.868   5.691  0.3371  0.0942  0.5977
  478SOL    HW1 2150   3.809   0.841   5.641  0.3407  0.3558  0.4645
  478SOL    HW2 2151   3.679   0.788   5.696  0.8392 -0.2137  1.1080
  479SOL     OW 2152   1.569   0.476   3.089 -0.4668 -0.1936 -0.6661
  479SOL    HW1 2153   1.613   0.446   3.010  0.7811  2.7178 -1.1320
  479SOL    HW2 2154   1.490   0.521   3.058 -0.9660 -0.6801 -0.1291
  480SOL     OW 2155   3.468   0.713   3.455  0.2391  0.3032  0.4485
  480SOL    HW1 2156   3.396   0.775   3.441 -0.1758 -0.0671  0.8880
  480SOL    HW2 2157   3.544   0.768   3.472 -0.3483  0.6989  1.8734
  481SOL     OW 2158   0.911   6.352   3.171  0.2386 -0.2337 -0.5455
  481SOL    HW1 2159   0.995   6.342   3.127  0.9310 -1.2968  0.9904
  481SOL    HW2 2160   0.908   6.281   3.234 -2.5187 -1.1431 -1.6447
  482SOL     OW 2161   2.144   2.618   5.669 -0.6051 -0.1705  0.0958
  482SOL    HW1 2162   2.201   2.616   5.745  0.8635 -2.2130 -1.0193
  482SOL    HW2 2163   2.085   2.692   5.685  2.6473  2.2899  1.0338
  483SOL     OW 2164   5.448   5.457   2.061 -0.3269 -0.7100  0.3516
  483SOL    HW1 2165   5.539   5.427   2.056 -0.4753 -0.9179 -1.1972
  483SOL    HW2 2166   5.444   5.507   2.143  0.7908 -1.9763  1.1939
  484SOL     OW 2167   4.567   1.272   0.004 -0.1118  0.0991 -0.3655
  484SOL    HW1 2168   4.558   1.191  -0.046 -0.7428  0.3823 -0.7200
  484SOL    HW2 2169   4.623   1.328  -0.051  1.4941 -0.5940  0.5141
  485SOL     OW 2170   3.896   1.769   1.967  0.2770  0.5215  0.2887
  485SOL    HW1 2171   3.824   1.778   2.030 -0.8240 -0.0341 -0.8654
  485SOL    HW2 2172   3.916   1.859   1.942 -0.6560  0.6353 -0.0802
  486SOL     OW 2173   1.570   6.359   3.726  0.0160 -0.0797 -0.3329
  486SOL    HW1 2174   1.615   6.397   3.802 -0.4978 -0.0853 -0.0213
  486SOL    HW2 2175   1.508   6.296   3.764 -1.2587  0.9501 -0.6561
  487SOL     OW 2176   1.856   3.385   2.823 -0.0306  0.4529 -0.1041
  487SOL    HW1 2177   1.889   3.361   2.910 -0.1626 -0.3347 -0.2707
  487SOL    HW2 2178   1.934   3.409   2.774  0.1269  0.1740  0.0058
  488SOL     OW 2179   6.350   0.560   6.759  0.4356 -0.1579 -0.0625
  488SOL    HW1 2180   6.273   0.507   6.739 -1.4668  1.8668  1.5548
  488SOL    HW2 2181   6.381   0.590   6.673 -0.6707 -0.8804 -0.7264
  489SOL     OW 2182   5.428   1.809   4.149  0.2830 -0.1578 -0.1295
  489SOL    HW1 2183   5.517   1.840   4.166 -0.0105  0.2058  0.7822
  489SOL    HW2 2184   5.394   1.870   4.084  1.2353 -1.2409 -1.6671
  490SOL     OW 2185   5.710   5.278   5.523 -0.2892  0.5459 -0.0963
  490SOL    HW1 2186   5.671   5.291   5.436 -0.8017 -0.0364  0.0413
  490SOL    HW2 2187   5.789   5.227   5.505  0.0242  1.0995 -0.2994
  491SOL     OW 2188   5.569   3.090   3.346  0.5443 -0.3820  0.4515
  491SOL    HW1 2189   5.586   3.081   3.252  2.0071 -1.0831  0.7779
  491SOL    HW2 2190   5.480   3.124   3.350  0.8132  0.6151 -1.2260
  492SOL     OW 2191   5.359   6.657   3.374 -0.8535 -0.1313 -0.3889
  492SOL    HW1 2192   5.353   6.587   3.439  0.3052 -1.5179 -1.7416
  492SOL    HW2 2193   5.453   6.664   3.355 -0.9652  1.7565 -0.3165
  493SOL     OW 2194   0.865   6.532   0.199  0.0076 -0.0394 -0.1954
  493SOL    HW1 2195   0.852   6.599   0.132  0.4811  1.9276  1.6119
  493SOL    HW2 2196   0.778   6.519   0.237  0.3098  1.1986  0.9462
  494SOL     OW 2197   1.932   4.414   3.554  0.2962 -0.0989 -0.1538
  494SOL    HW1 2198   1.865   4.383   3.493 -0.3010 -0.3245  0.6102
  494SOL    HW2 2199   1.912   4.371   3.636  1.1871  0.0958  0.1717
  495SOL     OW 2200   1.658   3.798   0.812  0.1116  0.2575  0.5860
  495SOL    HW1 2201   1.591   3.856   0.847 -1.1123  0.6678 -2.2949
  495SOL    HW2 2202   1.741   3.843   0.830 -0.7461  2.4228 -0.6627
  496SOL     OW 2203   4.453   5.083   1.285 -0.4594 -0.0722  0.2527
  496SOL    HW1 2204   4.416   5.157   1.238  0.6019 -0.3324 -1.0412
  496SOL    HW2 2205   4.380   5.023   1.297 -0.7560 -0.0007 -1.1046
  497SOL     OW 2206   3.614   0.211   2.010 -0.1798 -0.2858  0.4380
  497SOL    HW1 2207   3.620   0.299   1.973 -0.8892 -0.5777 -0.3782
  497SOL    HW2 2208   3.521   0.195   2.019 -0.1500 -1.8558 -1.6275
  498SOL     OW 2209   3.976   4.589   5.293  0.6195  0.1675 -0.4419
  498SOL    HW1 2210   3.953   4.682   5.295  0.1514  0.0608 -0.7563
  498SOL    HW2 2211   3.937   4.557   5.212  2.2175  0.0664 -1.1832
  499SOL     OW 2212   4.348   3.429   5.292  0.6002  0.6382 -0.2691
  499SOL    HW1 2213   4.410   3.455   5.225  1.4216 -1.4800 -0.3835
  499SOL    HW2 2214   4.275   3.491   5.284  1.1285  0.9916 -2.4444
  500SOL     OW 2215   4.345   3.518   2.354  0.7294  0.4945  0.2836
  500SOL    HW1 2216   4.327   3.525   2.448  0.2238 -0.5662  0.2639
  500SOL    HW2 2217   4.396   3.438   2.345  2.5034  1.6338 -0.1122
  501SOL     OW 2218   4.700   0.333   6.483  0.1249 -0.2498  0.3293
  501SOL    HW1 2219   4.707   0.413   6.535 -2.5798  0.5997 -0.5198
  501SOL    HW2 2220   4.763   0.345   6.412  0.8855  0.4107  1.1070
  502SOL     OW 2221   2.303   1.936   1.860  0.1245 -0.4526  0.2366
  502SOL    HW1 2222   2.225   1.972   1.902  0.6918  1.9571 -0.7232
  502SOL    HW2 2223   2.287   1.841   1.858 -2.3401 -0.0883  0.9078
  503SOL     OW 2224   3.916   3.611   3.691  0.0482 -0.2625 -0.1752
  503SOL    HW1 2225   3.927   3.534   3.636  0.0597 -0.6316  0.3403
  503SOL    HW2 2226   3.824   3.635   3.680  0.0172 -0.4149 -0.2527
  504SOL     OW 2227   3.045   5.205   6.292  0.2751 -0.1127  0.2843
  504SOL    HW1 2228   2.986   5.252   6.233  0.6280 -0.3957 -0.2898
  504SOL    HW2 2229   3.123   5.187   6.240 -0.1934 -2.0919  0.2294
  505SOL     OW 2230   4.942   2.432   4.256  0.0604  0.0478  0.3478
  505SOL    HW1 2231   4.964   2.421   4.163 -2.0135 -1.0759 -0.0559
  505SOL    HW2 2232   4.848   2.448   4.256  0.5174  3.0218  2.0797
  506SOL     OW 2233   6.590   1.764   6.602 -0.0067  0.1230  0.2627
  506SOL    HW1 2234   6.519   1.704   6.579  0.0662  0.0335  0.2709
  506SOL    HW2 2235   6.590   1.765   6.698  0.3964 -0.3471  0.2678
  507SOL     OW 2236   1.252   1.072   4.825 -0.4428 -0.1635  0.1768
  507SOL    HW1 2237   1.181   1.048   4.885 -0.3209  1.1343  0.8859
  507SOL    HW2 2238   1.268   1.165   4.845  1.5672 -0.4876  0.1657
  508SOL     OW 2239   2.578   1.488   5.536 -0.3454 -0.1461 -0.0504
  508SOL    HW1 2240   2.658   1.531   5.506 -0.0971 -0.6786 -0.1712
  508SOL    HW2 2241   2.508   1.549   5.515 -0.0839 -0.1420 -0.9514
  509SOL     OW 2242   3.179   4.550   1.033  0.1456  0.0590  0.3758
  509SOL    HW1 2243   3.162   4.500   1.113 -2.4812 -0.7439 -0.6406
  509SOL    HW2 2244   3.266   4.521   1.005 -0.9633 -3.4095  0.2797
  510SOL     OW 2245   0.102   2.401   0.936  0.0327  0.2740 -0.1421
  510SOL    HW1 2246   0.154   2.407   1.017  0.5341 -0.2180 -0.4281
  510SOL    HW2 2247   0.091   2.492   0.909 -0.0616  0.4364  0.4365
  511SOL     OW 2248   1.705   1.431   1.640 -0.4777 -0.2401  0.3328
  511SOL    HW1 2249   1.731   1.422   1.732  0.7984  0.7552  0.0918
  511SOL    HW2 2250   1.784   1.406   1.591  0.5471  4.0674 -0.4291
  512SOL     OW 2251   2.857   0.119   2.220  0.0856 -0.4063 -0.4868
  512SOL    HW1 2252   2.890   0.161   2.140 -1.4396  0.6763 -0.5632
  512SOL    HW2 2253   2.887   0.176   2.291  0.4857 -0.7676 -0.3618
  513SOL     OW 2254   2.259   6.388   1.486 -0.2009  0.3326  0.5892
  513SOL    HW1 2255   2.203   6.379   1.564  1.5313 -1.3997  1.6861
  513SOL    HW2 2256   2.282   6.481   1.484 -2.1089  0.8329  0.8153
  514SOL     OW 2257   6.110   2.079   0.378 -0.1948 -0.4251  0.4287
  514SOL    HW1 2258   6.015   2.076   0.362 -0.6342  1.4519  2.4082
  514SOL    HW2 2259   6.118   2.088   0.473  1.9703 -0.1913  0.2423
  515SOL     OW 2260   2.761   5.992   2.044  0.2528 -0.6052  0.6499
  515SOL    HW1 2261   2.747   5.948   1.960  0.3639  0.3267  0.1288
  515SOL    HW2 2262   2.679   6.039   2.060  0.8695  0.6385  0.1885
  516SOL     OW 2263   0.716   5.809   0.317 -0.0439 -0.1352 -0.1087
  516SOL    HW1 2264   0.640   5.757   0.342 -0.2623  0.5645  0.6706
  516SOL    HW2 2265   0.680   5.885   0.271  0.3439 -1.3972 -2.6139
  517SOL     OW 2266   2.175   1.899   2.479  0.6111 -1.1439  0.7477
  517SOL    HW1 2267   2.238   1.828   2.477  0.9916 -0.8985  2.7170
  517SOL    HW2 2268   2.228   1.979   2.478  0.2698 -0.9134  0.8402
  518SOL     OW 2269   5.540   6.518   0.130  0.3185 -0.4726  0.7994
  518SOL    HW1 2270   5.484   6.492   0.203 -1.7358  0.7281 -0.2930
  518SOL    HW2 2271   5.567   6.607   0.152 -1.2055  0.3037 -0.3912
  519SOL     OW 2272   5.154   2.007   4.211 -0.1426 -0.4234  0.2218
  519SOL    HW1 2273   5.124   2.064   4.282 -0.4712 -0.1215 -0.1577
  519SOL    HW2 2274   5.218   2.060   4.162 -0.3662 -0.4165 -0.0651
  520SOL     OW 2275   2.739   5.271   4.810  0.1581  0.0967 -0.4389
  520SOL    HW1 2276   2.731   5.183   4.774 -1.7888  0.1545 -0.2491
  520SOL    HW2 2277   2.668   5.320   4.768 -0.6424  0.7780  1.6628
  521SOL     OW 2278   5.269   1.905   6.589 -0.0838  0.4159  0.0678
  521SOL    HW1 2279   5.287   1.960   6.665  1.6690 -0.5283  0.3535
  521SOL    HW2 2280   5.174   1.893   6.590  0.0601 -0.6346  2.8475
  522SOL     OW 2281   5.486   5.117   5.860 -0.6148 -0.1333 -0.2376
  522SOL    HW1 2282   5.422   5.149   5.924 -0.5787  1.4704 -1.0081
  522SOL    HW2 2283   5.524   5.195   5.822  1.9988 -1.0547  0.3680
  523SOL     OW 2284   1.357   4.550   1.754  0.0400 -0.1557  0.7512
  523SOL    HW1 2285   1.283   4.504   1.793  0.5052 -0.2097  1.5830
  523SOL    HW2 2286   1.329   4.570   1.665 -1.3158  0.5790  1.3193
  524SOL     OW 2287   1.852   3.130   2.480  0.1900 -0.0918 -0.3354
  524SOL    HW1 2288   1.790   3.171   2.420  0.1883 -0.5477 -0.6519
  524SOL    HW2 2289   1.910   3.200   2.507 -0.3930  0.3165 -0.1297
  525SOL     OW 2290   5.471   0.202   3.436  0.7570 -0.3543  0.2378
  525SOL    HW1 2291   5.448   0.294   3.444  2.4699 -0.0878  2.7017
  525SOL    HW2 2292   5.410   0.157   3.494  0.0943 -0.7536 -0.7592
  526SOL     OW 2293   6.108   4.914   5.467  0.1050  0.1515  0.1454
  526SOL    HW1 2294   6.074   4.824   5.461  0.6959 -0.2004  1.8014
  526SOL    HW2 2295   6.199   4.904   5.494  0.7027  1.2009 -1.4556
  527SOL     OW 2296   4.651   0.051   2.942  0.1081  0.4588 -0.6489
  527SOL    HW1 2297   4.596   0.009   2.876 -1.2975  1.7122 -0.3232
  527SOL    HW2 2298   4.672   0.137   2.904  2.6444 -0.3594 -1.1623
  528SOL     OW 2299   0.296   3.608   3.929  0.2685  0.4101  0.3841
  528SOL    HW1 2300   0.337   3.598   4.015  1.4306  2.9715  0.1497
  528SOL    HW2 2301   0.312   3.699   3.904 -1.1595  0.0630 -1.9929
  529SOL     OW 2302   3.674   1.818   0.368  0.4258  0.2787  0.1889
  529SOL    HW1 2303   3.593   1.866   0.384  0.6844  1.1654 -1.0587
  529SOL    HW2 2304   3.649   1.726   0.371 -0.8491  0.5594 -1.2662
  530SOL     OW 2305   3.305   3.461   2.258  0.4022 -0.6532 -0.0032
  530SOL    HW1 2306   3.242   3.524   2.291 -0.5469 -2.0978  1.0121
  530SOL    HW2 2307   3.351   3.507   2.187 -0.4633  1.0455  0.5184
  531SOL     OW 2308   1.123   3.602   0.534 -0.2921 -0.1507 -0.2464
  531SOL    HW1 2309   1.046   3.660   0.539  1.8065  2.6710  0.8314
  531SOL    HW2 2310   1.128   3.561   0.621 -0.6219 -0.3951 -0.3423
  532SOL     OW 2311   6.387   5.252   3.499 -0.4207  1.0505 -0.1884
  532SOL    HW1 2312   6.353   5.262   3.588 -0.2377 -2.6325  0.3859
  532SOL    HW2 2313   6.309   5.257   3.443 -0.8948  0.6660  0.4254
  533SOL     OW 2314   0.567   5.056   6.169  0.1740 -0.0746  0.5009
  533SOL    HW1 2315   0.539   5.100   6.250 -0.5306  0.0888  0.1728
  533SOL    HW2 2316   0.526   4.969   6.174  0.6575 -0.2956  0.6225
  534SOL     OW 2317   3.993   1.164   3.956  0.4354 -0.2059  0.3239
  534SOL    HW1 2318   4.020   1.227   4.022  1.7214  1.0335 -1.3482
  534SOL    HW2 2319   3.913   1.201   3.919  1.9277  1.2274 -1.6145
  535SOL     OW 2320   4.623   2.625   1.669  0.2549  0.3123 -0.8276
  535SOL    HW1 2321   4.591   2.537   1.688  0.2796  0.2180 -1.2285
  535SOL    HW2 2322   4.641   2.625   1.575  2.8483 -0.0786 -0.3432
  536SOL     OW 2323   4.295   1.481   0.247  0.0327 -0.1651  0.5755
  536SOL    HW1 2324   4.319   1.421   0.317  0.6521  0.0563  0.5580
  536SOL    HW2 2325   4.234   1.543   0.287 -0.8660 -1.0018  0.5094
  537SOL     OW 2326   4.486   0.117   3.970 -0.2430  0.1758  0.0465
  537SOL    HW1 2327   4.434   0.164   3.905 -0.8866 -4.6575 -3.2162
  537SOL    HW2 2328   4.572   0.107   3.929  0.0214 -1.0671  0.8650
  538SOL     OW 2329   4.904   5.269   2.507  0.1648 -0.3979 -0.4367
  538SOL    HW1 2330   4.908   5.180   2.542  1.0628 -0.5753 -0.9822
  538SOL    HW2 2331   4.902   5.325   2.585  0.5184 -0.8539 -0.0945
  539SOL     OW 2332   0.393   3.657   2.042  0.2009 -0.2271  0.2173
  539SOL    HW1 2333   0.462   3.723   2.047 -0.9981  1.3086 -2.4907
  539SOL    HW2 2334   0.394   3.614   2.127  0.0014  4.3329  2.6514
  540SOL     OW 2335   2.723   1.249   5.830  0.7410 -0.4433  0.0803
  540SOL    HW1 2336   2.700   1.248   5.737  1.7228  1.4795 -0.2043
  540SOL    HW2 2337   2.686   1.167   5.864  1.0402 -1.5722 -2.1602
  541SOL     OW 2338   5.796   4.678   1.658  0.1640  0.3166 -0.6189
  541SOL    HW1 2339   5.760   4.590   1.648  1.2570 -0.2991  0.7062
  541SOL    HW2 2340   5.890   4.667   1.645  0.2265  1.4070 -1.1356
  542SOL     OW 2341   5.020   2.194   4.382  0.4474  0.3868  0.2817
  542SOL    HW1 2342   4.960   2.184   4.308 -2.1222 -0.9378  2.4621
  542SOL    HW2 2343   5.031   2.288   4.392 -2.2799  0.7074  0.5804
  543SOL     OW 2344   4.814   5.941   2.684  0.4172  0.0621 -0.2700
  543SOL    HW1 2345   4.854   6.016   2.726  1.0039  0.3438 -1.2992
  543SOL    HW2 2346   4.722   5.944   2.710  0.2065  1.7520 -1.1716
  544SOL     OW 2347   1.811   6.039   4.409  0.0046  0.0835 -0.2376
  544SOL    HW1 2348   1.779   6.013   4.323  0.4644  2.2773 -1.1253
  544SOL    HW2 2349   1.807   5.960   4.462 -2.3669 -0.7957 -1.6638
  545SOL     OW 2350   3.353   1.499   5.721  0.1357  0.9411  0.0660
  545SOL    HW1 2351   3.262   1.473   5.714 -0.0980  1.6554  0.4351
  545SOL    HW2 2352   3.357   1.555   5.799  0.5926  2.1706 -0.8200
  546SOL     OW 2353   1.019   5.264   0.431  0.4033  0.0499  0.1257
  546SOL    HW1 2354   1.038   5.287   0.522  2.5414  0.7106 -0.4676
  546SOL    HW2 2355   1.062   5.332   0.379 -0.6918 -0.3802 -1.4039
  547SOL     OW 2356   5.306   3.654   6.184 -0.0330 -0.6446 -0.1036
  547SOL    HW1 2357   5.385   3.631   6.233  1.0860 -0.0248 -1.5811
  547SOL    HW2 2358   5.296   3.748   6.198  0.3144 -0.4583 -1.0884
  548SOL     OW 2359   3.228   3.611   1.014  0.0190  0.1135 -0.2260
  548SOL    HW1 2360   3.151   3.573   0.974  0.4816  1.4835 -2.5133
  548SOL    HW2 2361   3.194   3.674   1.077 -0.7238 -0.7299  0.2148
  549SOL     OW 2362   2.647   0.699   5.618  0.0989  0.0011 -0.1054
  549SOL    HW1 2363   2.660   0.792   5.599  0.4961  0.3802  1.8860
  549SOL    HW2 2364   2.734   0.667   5.642 -0.3823 -0.3769  1.2236
  550SOL     OW 2365   2.860   4.230   6.506 -0.3049  0.5945 -0.5658
  550SOL    HW1 2366   2.913   4.309   6.516  0.4679  0.3165 -2.2160
  550SOL    HW2 2367   2.919   4.158   6.529 -1.0020  0.4763  0.9198
  551SOL     OW 2368   4.650   4.615   1.583 -0.2857 -0.3215  0.4879
  551SOL    HW1 2369   4.599   4.564   1.646 -0.4711 -2.1929 -1.1268
  551SOL    HW2 2370   4.584   4.665   1.535 -0.2355  0.2629  1.0107
  552SOL     OW 2371   0.790   3.062   6.723 -0.0935 -0.0086  0.8325
  552SOL    HW1 2372   0.818   2.971   6.710  0.0300 -0.0491  1.3820
  552SOL    HW2 2373   0.803   3.078   6.816 -0.6379  0.4023  0.8371
  553SOL     OW 2374   2.977   1.961   4.814 -0.5307  0.4819 -0.4911
  553SOL    HW1 2375   3.042   1.985   4.880 -1.2774  2.1469 -0.3511
  553SOL    HW2 2376   3.011   1.879   4.777  0.9638  0.6242  0.4977
  554SOL     OW 2377   5.612   2.622   1.053 -0.7875 -0.2256  0.7254
  554SOL    HW1 2378   5.597   2.554   1.119 -0.2482 -0.6819  0.3830
  554SOL    HW2 2379   5.585   2.582   0.971  1.5290 -0.8167  0.1971
  555SOL     OW 2380   0.142   3.985   1.134 -0.3621 -0.4478 -0.0428
  555SOL    HW1 2381   0.181   3.950   1.214 -0.7469  0.0965  0.3966
  555SOL    HW2 2382   0.164   4.078   1.135  0.7010 -0.6810 -1.2245
  556SOL     OW 2383   2.377   1.193   5.146 -0.5001 -0.5441  1.0033
  556SOL    HW1 2384   2.472   1.186   5.158  0.0046  0.2875 -2.1565
  556SOL    HW2 2385   2.362   1.285   5.124 -1.5409 -1.3790 -2.0848
  557SOL     OW 2386   2.174   0.937   3.686  0.0341 -0.5572 -0.1601
  557SOL    HW1 2387   2.112   0.929   3.614 -1.1875 -0.5115  0.8536
  557SOL    HW2 2388   2.128   0.899   3.761  1.4419 -0.9875  0.4977
  558SOL     OW 2389   3.181   6.255   6.633 -0.1291 -0.2668  0.0173
  558SOL    HW1 2390   3.215   6.317   6.698  0.4334  1.7575 -2.1329
  558SOL    HW2 2391   3.198   6.298   6.549 -0.0806 -3.2070 -1.5075
  559SOL     OW 2392   4.691   3.418   6.214 -0.3476  0.3285 -0.0424
  559SOL    HW1 2393   4.722   3.396   6.302 -0.9068 -0.1615  0.0314
  559SOL    HW2 2394   4.692   3.514   6.212 -0.8206  0.3558  0.6739
  560SOL     OW 2395   1.237   4.622   6.007  0.0947 -0.5380  0.1480
  560SOL    HW1 2396   1.158   4.602   5.958 -0.7348 -1.0408  1.6624
  560SOL    HW2 2397   1.220   4.587   6.095  2.1978 -1.1349  0.3425
  561SOL     OW 2398   1.160   5.226   3.581 -0.8207 -0.3716  0.3227
  561SOL    HW1 2399   1.116   5.148   3.547 -0.1421 -1.1163  1.1428
  561SOL    HW2 2400   1.123   5.238   3.668 -0.0465 -0.4744  0.6645
  562SOL     OW 2401   3.589   2.236   3.653 -0.4485 -0.4697 -0.2195
  562SOL    HW1 2402   3.503   2.215   3.688 -1.2783  0.3003 -1.7678
  562SOL    HW2 2403   3.620   2.309   3.706 -1.1068 -0.2091 -0.1895
  563SOL     OW 2404   3.144   0.337   2.089  0.4669 -0.4727 -0.7292
  563SOL    HW1 2405   3.165   0.315   1.998  1.1805 -1.0582 -0.4286
  563SOL    HW2 2406   3.223   0.314   2.138  0.5036  0.9280 -0.1223
  564SOL     OW 2407   3.876   0.572   0.035 -0.1489 -0.2695 -0.1749
  564SOL    HW1 2408   3.899   0.621  -0.044  1.0629 -1.3175 -0.4976
  564SOL    HW2 2409   3.935   0.607   0.102 -0.8658  0.3090  0.1484
  565SOL     OW 2410   0.678   5.482   3.635  0.3188  0.0210  0.4053
  565SOL    HW1 2411   0.669   5.576   3.617 -0.0499 -0.1645 -0.3737
  565SOL    HW2 2412   0.588   5.451   3.646  0.3507 -0.5864 -1.0616
  566SOL     OW 2413   5.494   6.018   1.114 -0.2426  0.8564  0.6934
  566SOL    HW1 2414   5.413   5.968   1.125 -1.1694  1.9626 -0.9918
  566SOL    HW2 2415   5.532   5.984   1.033  1.2376  0.0092  1.7269
  567SOL     OW 2416   5.587   0.618   1.540  0.3166 -0.3176 -0.0599
  567SOL    HW1 2417   5.638   0.538   1.550  0.8179  0.3598  3.1121
  567SOL    HW2 2418   5.498   0.593   1.561  0.5181  0.0153  1.1925
  568SOL     OW 2419   4.991   5.680   4.592 -0.1841 -0.1561 -0.5768
  568SOL    HW1 2420   5.065   5.628   4.621 -0.9437 -0.2048  1.3553
  568SOL    HW2 2421   5.023   5.771   4.596  0.0125 -0.2280 -0.4855
  569SOL     OW 2422   5.113   6.629   1.538 -0.6010 -0.1192 -0.9485
  569SOL    HW1 2423   5.075   6.576   1.608  0.1445  1.1500  0.4682
  569SOL    HW2 2424   5.183   6.574   1.502  0.3229 -0.0365  0.6659
  570SOL     OW 2425   6.531   6.469   4.649  0.0485 -0.3121  0.3744
  570SOL    HW1 2426   6.495   6.558   4.655 -1.4582 -0.6897 -2.1036
  570SOL    HW2 2427   6.459   6.417   4.615  1.2197 -2.3114  0.8940
  571SOL     OW 2428   1.930   4.695   4.929  0.3049 -0.0471  0.4059
  571SOL    HW1 2429   1.859   4.634   4.910  1.4899 -1.3104 -0.0919
  571SOL    HW2 2430   1.929   4.704   5.024  0.9340 -1.8704  0.5994
  572SOL     OW 2431   4.123   1.083   6.507  0.3358  0.3092  0.7909
  572SOL    HW1 2432   4.166   1.012   6.460  1.3856 -0.4831  2.8835
  572SOL    HW2 2433   4.029   1.068   6.494  0.5970  0.8817 -2.0954
  573SOL     OW 2434   1.548   4.516   3.457  0.0631 -0.2962  0.4027
  573SOL    HW1 2435   1.513   4.557   3.536 -1.3233 -1.4766  0.4207
  573SOL    HW2 2436   1.545   4.422   3.476 -0.8405 -0.6185 -1.2811
  574SOL     OW 2437   0.595   4.414   1.364  0.6474 -0.3391 -0.4131
  574SOL    HW1 2438   0.586   4.491   1.307 -0.7170 -0.9862 -1.0993
  574SOL    HW2 2439   0.664   4.362   1.323  0.2628 -0.3879 -1.0040
  575SOL     OW 2440   0.496   1.330   3.620 -0.2216 -0.0674 -0.0166
  575SOL    HW1 2441   0.438   1.358   3.691  1.6962 -1.4186  2.1791
  575SOL    HW2 2442   0.468   1.241   3.600 -0.0143 -0.1083 -0.1305
  576SOL     OW 2443   2.406   5.784   3.282 -0.4619 -0.3968  0.8990
  576SOL    HW1 2444   2.441   5.696   3.296  1.1734  0.1521  0.3940
  576SOL    HW2 2445   2.420   5.801   3.189 -1.9551 -0.0866  0.7198
  577SOL     OW 2446   6.611   2.375   5.195  0.0579 -0.3741 -0.2141
  577SOL    HW1 2447   6.616   2.449   5.134  2.3680  0.6318  1.1240
  577SOL    HW2 2448   6.536   2.396   5.251 -0.6524 -0.1604 -1.2193
  578SOL     OW 2449   1.590   0.641   0.879 -0.2618  0.3217 -0.5717
  578SOL    HW1 2450   1.602   0.729   0.846  0.2388  0.2550 -0.5756
  578SOL    HW2 2451   1.546   0.653   0.964  0.0049  0.5833 -0.4708
  579SOL     OW 2452   5.091   4.760   0.826 -0.8501 -0.5006 -0.3124
  579SOL    HW1 2453   5.123   4.674   0.800  0.0820 -0.2866  0.1111
  579SOL    HW2 2454   5.092   4.758   0.921  2.8315  1.2720 -0.2220
  580SOL     OW 2455   1.729   2.862   2.423  0.4823 -0.0560 -0.2630
  580SOL    HW1 2456   1.661   2.882   2.358 -0.5521  0.5639  0.9798
  580SOL    HW2 2457   1.747   2.945   2.466 -0.2688 -0.7862  1.5551
  581SOL     OW 2458   1.077   2.363   3.273 -0.6231  0.2953 -0.0739
  581SOL    HW1 2459   1.046   2.288   3.323 -0.9681  0.3743 -0.1669
  581SOL    HW2 2460   1.149   2.399   3.325 -1.0717  0.4658  0.4366
  582SOL     OW 2461   4.715   5.280   4.849 -0.5338  0.1537 -0.6877
  582SOL    HW1 2462   4.651   5.352   4.851  0.3026  0.8938  0.2286
  582SOL    HW2 2463   4.663   5.202   4.832 -1.8428  0.5903  1.0876
  583SOL     OW 2464   0.956   5.504   0.007  0.2663 -0.2872 -0.2367
  583SOL    HW1 2465   0.883   5.444   0.022  0.4016 -0.2678  0.5373
  583SOL    HW2 2466   0.920   5.590   0.026  0.0293 -0.0910 -1.4999
  584SOL     OW 2467   2.794   3.008   2.940 -0.2375 -0.0026 -0.2421
  584SOL    HW1 2468   2.824   2.965   3.020 -0.2833 -0.0542 -0.2530
  584SOL    HW2 2469   2.735   2.945   2.899  0.7731 -0.5063 -0.9570
  585SOL     OW 2470   0.674   2.429   1.766  0.4461 -0.2949 -0.1562
  585SOL    HW1 2471   0.673   2.407   1.859  0.1802  0.0600 -0.0750
  585SOL    HW2 2472   0.654   2.522   1.763  0.0259 -0.3971 -0.5934
  586SOL     OW 2473   4.181   1.820   4.443  0.1779  0.6553  0.3023
  586SOL    HW1 2474   4.160   1.731   4.416  0.2252  0.7439 -0.0259
  586SOL    HW2 2475   4.255   1.845   4.387  1.7559  0.0113  2.0574
  587SOL     OW 2476   5.350   4.713   2.528  0.8246  0.2333  0.3735
  587SOL    HW1 2477   5.422   4.724   2.465  0.2682  0.0528 -0.3026
  587SOL    HW2 2478   5.392   4.715   2.614  1.5471  0.8484  0.0043
  588SOL     OW 2479   5.764   6.580   4.401  0.5276 -0.5972  0.0493
  588SOL    HW1 2480   5.837   6.591   4.340  0.2953 -0.1307 -0.1449
  588SOL    HW2 2481   5.693   6.630   4.362  0.8109  0.9681  1.4529
  589SOL     OW 2482   4.330   1.860   5.662 -0.2935  0.3955  0.0580
  589SOL    HW1 2483   4.263   1.810   5.615 -0.4028  0.8167 -0.2314
  589SOL    HW2 2484   4.317   1.950   5.635 -0.8787  0.7636  1.5296
  590SOL     OW 2485   2.114   4.966   2.283 -0.1098 -0.2048  0.4986
  590SOL    HW1 2486   2.104   5.059   2.266  0.5983 -0.3261 -0.5642
  590SOL    HW2 2487   2.183   4.937   2.224  1.0416 -1.0173  2.1830
  591SOL     OW 2488   0.348   6.654   1.324  0.5416  0.3171  0.3282
  591SOL    HW1 2489   0.277   6.692   1.375  1.3283 -0.9845  2.4802
  591SOL    HW2 2490   0.305   6.601   1.257 -0.5236  2.7565 -0.9728
  592SOL     OW 2491   3.329   6.673   2.138 -0.2197  0.2837  0.0531
  592SOL    HW1 2492   3.340   6.756   2.091 -0.3612  0.9471  1.1875
  592SOL    HW2 2493   3.239   6.647   2.120 -0.5770  1.0291  0.7503
  593SOL     OW 2494   4.425   4.708   4.946  0.2658 -0.0434 -1.0106
  593SOL    HW1 2495   4.407   4.802   4.952  1.9378  0.1658  1.1446
  593SOL    HW2 2496   4.341   4.667   4.966 -0.4077  0.9679 -1.6751
  594SOL     OW 2497   3.955   1.613   1.035  0.5021  0.3914 -0.1490
  594SOL    HW1 2498   3.924   1.685   0.980  2.0187  1.8465  0.8600
  594SOL    HW2 2499   3.875   1.574   1.070 -0.3305  1.8212 -0.4086
  595SOL     OW 2500   1.186   2.630   5.467 -0.2453 -0.1395  0.1795
  595SOL    HW1 2501   1.100   2.593   5.448  0.4033 -1.0235 -1.0978
  595SOL    HW2 2502   1.242   2.599   5.396  1.0261  0.8076  0.7437
  596SOL     OW 2503   5.010   3.505   4.803 -0.1721  0.4915 -0.7340
  596SOL    HW1 2504   5.019   3.510   4.898 -1.0606 -0.7009 -0.5655
  596SOL    HW2 2505   5.076   3.565   4.769  2.7683 -1.8801  0.5323
  597SOL     OW 2506   4.143   4.720   4.020  0.5318 -0.1878  0.1022
  597SOL    HW1 2507   4.161   4.739   4.112  0.0356  1.1570 -0.0622
  597SOL    HW2 2508   4.128   4.626   4.017  2.4253 -0.5407  1.0886
  598SOL     OW 2509   4.471   1.823   3.437 -0.3876 -0.6900 -0.0100
  598SOL    HW1 2510   4.386   1.831   3.481  0.1004 -2.1140  1.2579
  598SOL    HW2 2511   4.461   1.747   3.380 -0.5924  0.3636 -1.3972
  599SOL     OW 2512   0.181   4.625   0.689 -0.3121  0.0124 -0.3081
  599SOL    HW1 2513   0.135   4.705   0.662 -0.9166 -0.0737  0.4498
  599SOL    HW2 2514   0.249   4.656   0.749 -0.5599 -0.0455  0.0021
  600SOL     OW 2515   2.509   2.072   4.315 -0.4587 -0.3034 -0.0222
  600SOL    HW1 2516   2.539   2.153   4.356 -0.9125 -0.0145 -0.2585
  600SOL    HW2 2517   2.430   2.097   4.268 -0.0294 -0.6649 -0.9503
  601SOL     OW 2518   1.380   4.908   5.413 -0.2673  0.1140  0.4563
  601SOL    HW1 2519   1.344   4.849   5.480 -1.4612  1.0988  0.6984
  601SOL    HW2 2520   1.403   4.849   5.340 -1.5156 -0.6570  0.6645
  602SOL     OW 2521   4.915   2.877   6.761  0.1002 -0.1302  0.8202
  602SOL    HW1 2522   4.938   2.870   6.669 -0.1972  2.0263  0.5564
  602SOL    HW2 2523   4.990   2.840   6.807  0.4987 -0.6821 -0.2496
  603SOL     OW 2524   6.158   2.089   4.434 -0.4529  0.4014  0.4850
  603SOL    HW1 2525   6.189   2.108   4.345  0.1222 -1.9741  0.1473
  603SOL    HW2 2526   6.237   2.068   4.483 -1.0222 -0.6572  0.9482
  604SOL     OW 2527   3.096   1.443   3.658  0.1630  0.1632 -0.0267
  604SOL    HW1 2528   3.172   1.493   3.626 -0.2668  0.9156  0.1199
  604SOL    HW2 2529   3.065   1.493   3.734 -0.8668  0.1936 -0.4628
  605SOL     OW 2530   2.115   1.484   0.879  0.0591  0.1161 -0.4079
  605SOL    HW1 2531   2.209   1.470   0.879  0.0545  0.0439  0.3737
  605SOL    HW2 2532   2.104   1.578   0.895 -0.0101  0.0131  0.1630
  606SOL     OW 2533   3.287   4.865   3.863  0.0515 -0.2860  0.2847
  606SOL    HW1 2534   3.378   4.889   3.846 -0.1684 -0.0181 -0.5332
  606SOL    HW2 2535   3.261   4.813   3.787 -0.7150  0.2944  0.1424
  607SOL     OW 2536   3.350   2.343   0.941 -0.0491  0.2965 -0.2500
  607SOL    HW1 2537   3.393   2.341   0.856  0.6229  1.7592  0.0441
  607SOL    HW2 2538   3.346   2.251   0.969 -0.1530 -0.1701 -1.7848
  608SOL     OW 2539   1.514   5.715   3.483  0.1467  0.3096 -0.4598
  608SOL    HW1 2540   1.559   5.673   3.556 -1.1490 -1.2872 -0.5484
  608SOL    HW2 2541   1.577   5.713   3.412  0.0332 -1.7664 -0.5339
  609SOL     OW 2542   1.994   1.719   2.556  0.1146 -0.4704  0.6268
  609SOL    HW1 2543   1.984   1.790   2.619  0.2652 -0.4317  0.6062
  609SOL    HW2 2544   2.075   1.739   2.510 -0.0600 -0.4288  0.3327
  610SOL     OW 2545   2.042   3.791   0.343 -0.0051  0.2068 -0.6234
  610SOL    HW1 2546   2.007   3.703   0.353 -1.2549  0.8734  1.2795
  610SOL    HW2 2547   2.121   3.792   0.396  0.2748  0.0883 -1.0389
  611SOL     OW 2548   4.567   6.532   3.285  0.2532 -0.3211 -0.0620
  611SOL    HW1 2549   4.621   6.597   3.329  1.8154 -1.8120  0.2621
  611SOL    HW2 2550   4.484   6.533   3.333  0.3131  1.2598  0.0548
  612SOL     OW 2551   6.055   1.909   2.215 -0.0537  0.2122  0.2157
  612SOL    HW1 2552   6.069   1.819   2.242 -0.7392 -0.1616 -0.6597
  612SOL    HW2 2553   6.135   1.933   2.168 -1.7771 -1.5512 -3.8136
  613SOL     OW 2554   5.609   5.108   3.678 -0.1218 -0.4262 -0.3160
  613SOL    HW1 2555   5.586   5.172   3.745 -0.7254  0.0302 -0.9595
  613SOL    HW2 2556   5.566   5.027   3.707  0.8575 -0.6144  0.6320
  614SOL     OW 2557   1.196   3.654   2.317 -0.3076  0.1828 -0.2029
  614SOL    HW1 2558   1.112   3.610   2.328  1.0423 -2.5550 -0.2079
  614SOL    HW2 2559   1.195   3.686   2.227 -0.9345 -0.8122 -0.5677
  615SOL     OW 2560   6.719   4.501   4.416 -0.1713 -0.0997 -0.6151
  615SOL    HW1 2561   6.739   4.581   4.465  0.8943 -0.6627 -0.0960
  615SOL    HW2 2562   6.694   4.531   4.329  1.7072  0.7375 -0.8853
  616SOL     OW 2563   3.550   1.269   2.028  0.1371  0.3004 -0.0260
  616SOL    HW1 2564   3.538   1.302   1.939 -0.5417  0.3320  0.0746
  616SOL    HW2 2565   3.644   1.275   2.043  0.5667 -1.7907 -1.5545
  617SOL     OW 2566   4.301   3.233   4.943  0.0203  0.1347  0.4790
  617SOL    HW1 2567   4.269   3.324   4.941 -0.7752 -0.1516 -0.2119
  617SOL    HW2 2568   4.304   3.211   5.036 -1.2527  0.3703  0.5922
  618SOL     OW 2569   5.805   5.773   5.239 -0.0876 -0.5190  0.1506
  618SOL    HW1 2570   5.874   5.715   5.272 -1.5896 -1.3612  1.8734
  618SOL    HW2 2571   5.742   5.714   5.199 -0.5126  0.1241 -0.1275
  619SOL     OW 2572   2.515   3.300   6.723  0.0749 -0.3795  0.2045
  619SOL    HW1 2573   2.461   3.335   6.794 -0.3129 -0.1538 -0.1968
  619SOL    HW2 2574   2.597   3.350   6.728  0.5375 -1.2477  1.2851
  620SOL     OW 2575   0.036   1.692   4.002 -0.0871 -0.3745  0.1657
  620SOL    HW1 2576   0.033   1.644   4.084  0.7688  0.4016  0.6551
  620SOL    HW2 2577   0.073   1.777   4.025  2.3997 -0.9800 -1.4307
  621SOL     OW 2578   1.506   5.829   5.015  0.0628 -0.4294 -0.1400
  621SOL    HW1 2579   1.461   5.911   5.036  0.4785 -0.6057  1.4932
  621SOL    HW2 2580   1.554   5.848   4.935  0.4756  1.0526  0.4409
  622SOL     OW 2581   1.645   4.376   2.404 -0.4082 -0.3430 -0.1320
  622SOL    HW1 2582   1.566   4.424   2.380 -0.5488 -0.2744  0.4689
  622SOL    HW2 2583   1.717   4.439   2.392 -0.4322 -0.4253 -0.7372
  623SOL     OW 2584   0.925   2.193   0.141 -0.0495 -0.4228 -0.6755
  623SOL    HW1 2585   0.994   2.191   0.208 -1.5661 -0.1167  0.9207
  623SOL    HW2 2586   0.844   2.209   0.190 -1.2639 -0.7566 -2.5313
  624SOL     OW 2587   5.752   0.572   6.303 -0.3242 -0.1018  0.5165
  624SOL    HW1 2588   5.727   0.645   6.360  0.0222  0.4553 -0.0406
  624SOL    HW2 2589   5.801   0.613   6.232  0.8099 -1.0090  0.7734
  625SOL     OW 2590   1.384   5.999   6.268 -0.1200 -0.6502  0.0662
  625SOL    HW1 2591   1.366   6.046   6.186 -0.1408  1.4801  1.2357
  625SOL    HW2 2592   1.464   5.950   6.251 -0.4769 -0.7434 -1.4282
  626SOL     OW 2593   1.228   5.655   0.779  0.0545  0.2059 -0.6429
  626SOL    HW1 2594   1.285   5.698   0.716  2.1671 -1.8673 -0.2391
  626SOL    HW2 2595   1.277   5.658   0.862  0.4191 -3.1214 -0.6715
  627SOL     OW 2596   0.054   0.637   3.886 -0.0058 -0.3997  0.0775
  627SOL    HW1 2597  -0.017   0.695   3.916  1.3278 -0.0083  2.5885
  627SOL    HW2 2598   0.029   0.614   3.796 -2.9760  0.2692  0.6558
  628SOL     OW 2599   5.296   1.002   4.526 -0.0463  0.3564 -0.1889
  628SOL    HW1 2600   5.261   1.090   4.509  0.7292  0.7830  0.4088
  628SOL    HW2 2601   5.315   1.002   4.620  1.7483  0.1996 -0.5383
  629SOL     OW 2602   3.234   1.192   3.199 -0.1292  0.7250  0.2881
  629SOL    HW1 2603   3.247   1.263   3.262 -1.7017 -0.1279  1.6134
  629SOL    HW2 2604   3.285   1.119   3.235 -1.8213 -0.0739  1.1347
  630SOL     OW 2605   4.874   5.731   5.301  0.3066 -0.9126 -0.2090
  630SOL    HW1 2606   4.841   5.807   5.254  0.4669 -0.3655  0.5407
  630SOL    HW2 2607   4.953   5.762   5.345 -0.1367 -1.2444  0.8563
  631SOL     OW 2608   2.959   3.802   4.625  0.0181  0.2411 -0.1297
  631SOL    HW1 2609   2.961   3.826   4.532 -0.1711 -0.1976 -0.2466
  631SOL    HW2 2610   3.046   3.824   4.657  0.8355 -1.7177 -0.9353
  632SOL     OW 2611   5.754   0.244   2.902 -0.0879 -0.8124 -0.1252
  632SOL    HW1 2612   5.712   0.159   2.909  0.1177 -0.7820  1.4847
  632SOL    HW2 2613   5.684   0.304   2.877 -0.1249 -1.5300 -1.8598
  633SOL     OW 2614   4.844   2.455   1.946 -0.6173  0.5750  0.1119
  633SOL    HW1 2615   4.893   2.375   1.965 -0.2265  1.1308  1.4450
  633SOL    HW2 2616   4.879   2.485   1.862  0.6019  0.4215  0.5661
  634SOL     OW 2617   5.286   3.194   5.064 -0.1623 -0.4753  0.0407
  634SOL    HW1 2618   5.364   3.155   5.104  0.3582  0.0806 -0.4272
  634SOL    HW2 2619   5.263   3.135   4.993 -0.8237 -1.2276  0.8759
  635SOL     OW 2620   3.101   4.479   4.289  0.1180  0.2743 -0.0243
  635SOL    HW1 2621   3.054   4.549   4.334  0.0513  0.6561 -0.6818
  635SOL    HW2 2622   3.032   4.424   4.252  0.1828  0.7073 -0.7945
  636SOL     OW 2623   0.511   2.185   1.965  0.3441  0.5301 -0.0877
  636SOL    HW1 2624   0.438   2.220   1.914 -1.9485 -1.4440  1.7745
  636SOL    HW2 2625   0.566   2.142   1.900  0.0013  2.1947 -1.5322
  637SOL     OW 2626   6.495   0.120   0.468  0.2539  0.1051 -0.0943
  637SOL    HW1 2627   6.543   0.178   0.409 -0.5138  0.2705 -0.5648
  637SOL    HW2 2628   6.533   0.136   0.554  0.9423  0.3366 -0.4376
  638SOL     OW 2629   3.111   1.643   5.547  0.3474 -0.2492  0.2764
  638SOL    HW1 2630   3.138   1.733   5.562  1.3250 -0.5732  0.5277
  638SOL    HW2 2631   3.114   1.632   5.452 -0.8994  0.3215  0.1726
  639SOL     OW 2632   2.767   5.669   0.146 -0.1997  0.0326 -0.5526
  639SOL    HW1 2633   2.847   5.686   0.194 -0.9971 -0.7153  1.0660
  639SOL    HW2 2634   2.735   5.755   0.121  0.7749  0.3638 -0.6640
  640SOL     OW 2635   4.884   4.316   4.472  0.4896 -0.1309  0.1553
  640SOL    HW1 2636   4.820   4.309   4.402  0.8690 -0.5230 -0.1551
  640SOL    HW2 2637   4.967   4.334   4.427  0.5036  0.9325  0.5903
  641SOL     OW 2638   4.714   4.831   3.962  0.2184 -0.0467  0.2041
  641SOL    HW1 2639   4.751   4.756   3.914 -1.4517 -0.2540 -0.8371
  641SOL    HW2 2640   4.755   4.908   3.923  0.8807 -0.3596  0.2867
  642SOL     OW 2641   3.973   0.407   3.217 -0.5494  0.2440 -0.3132
  642SOL    HW1 2642   3.918   0.338   3.254 -0.6511  0.2004 -0.5476
  642SOL    HW2 2643   3.957   0.403   3.123 -1.0046  0.9702 -0.2774
  643SOL     OW 2644   1.327   6.343   0.431  0.6441 -0.2686  0.4159
  643SOL    HW1 2645   1.358   6.304   0.512 -0.6916  1.2250  1.6954
  643SOL    HW2 2646   1.377   6.424   0.423  1.3390 -0.8041 -0.6766
  644SOL     OW 2647   0.955   5.830   0.464  0.2457 -0.5586 -0.1695
  644SOL    HW1 2648   1.015   5.900   0.441  0.0450 -0.0216  0.8993
  644SOL    HW2 2649   0.895   5.824   0.390  0.6144  0.0021 -0.5181
  645SOL     OW 2650   5.519   2.910   1.391  0.6234 -0.1258 -0.3596
  645SOL    HW1 2651   5.557   2.822   1.399 -0.5769 -0.5485  0.7576
  645SOL    HW2 2652   5.483   2.929   1.477 -2.0841  0.0954 -1.4998
  646SOL     OW 2653   4.576   3.342   6.744 -0.7443  0.3033  0.4529
  646SOL    HW1 2654   4.651   3.373   6.692 -0.7667  0.6851  0.6427
  646SOL    HW2 2655   4.501   3.353   6.685 -0.4290 -1.7921 -0.3993
  647SOL     OW 2656   3.493   0.256   4.511  0.0173 -0.7363 -0.4250
  647SOL    HW1 2657   3.588   0.254   4.523  0.0586  0.3792 -0.5224
  647SOL    HW2 2658   3.459   0.276   4.598 -0.1099 -0.7577 -0.4707
  648SOL     OW 2659   3.263   4.124   6.314 -0.7547 -0.5804 -0.4346
  648SOL    HW1 2660   3.272   4.182   6.390  1.7972 -0.3069 -0.9236
  648SOL    HW2 2661   3.301   4.041   6.343  1.0895 -0.1933 -1.7035
  649SOL     OW 2662   2.879   5.935   0.510 -0.3717  0.2212  0.1634
  649SOL    HW1 2663   2.818   5.971   0.574  0.3575  0.0676  0.9502
  649SOL    HW2 2664   2.966   5.956   0.544  0.0310 -0.0276 -0.6767
  650SOL     OW 2665   2.187   4.128   1.988 -0.3533 -0.1171  0.5195
  650SOL    HW1 2666   2.176   4.042   2.027 -0.0906 -0.7485 -0.7884
  650SOL    HW2 2667   2.097   4.159   1.972 -0.5126  0.8580  3.1294
  651SOL     OW 2668   5.308   3.495   0.432 -0.4172 -0.1018 -0.2696
  651SOL    HW1 2669   5.337   3.411   0.467  1.3561  0.7003  0.2298
  651SOL    HW2 2670   5.253   3.472   0.357 -0.4479 -1.7045  0.2271
  652SOL     OW 2671   2.605   6.068   0.909  0.1635 -0.1202  0.2635
  652SOL    HW1 2672   2.575   6.125   0.980 -0.6263 -0.7571  0.4482
  652SOL    HW2 2673   2.685   6.028   0.944  2.7910  3.6266 -1.2597
  653SOL     OW 2674   6.358   1.005   0.297  0.0028 -0.1983 -0.3620
  653SOL    HW1 2675   6.439   0.975   0.339 -0.4525 -0.7629  0.1207
  653SOL    HW2 2676   6.388   1.046   0.216  0.7864 -0.2952 -0.1345
  654SOL     OW 2677   2.407   3.853   4.284 -0.3972  0.0167  0.3521
  654SOL    HW1 2678   2.427   3.861   4.191 -1.4866 -2.1662 -0.0827
  654SOL    HW2 2679   2.313   3.869   4.290 -0.3682 -0.0575  1.0567
  655SOL     OW 2680   0.110   6.103   5.065  0.5872  0.3494  0.4796
  655SOL    HW1 2681   0.163   6.035   5.106 -0.7317 -1.7486 -1.1910
  655SOL    HW2 2682   0.032   6.109   5.119  0.1216 -0.3955 -0.1069
  656SOL     OW 2683   6.256   0.172   3.420 -0.0605 -0.0197 -0.1929
  656SOL    HW1 2684   6.222   0.242   3.364  0.9748  1.3640  0.8821
  656SOL    HW2 2685   6.345   0.157   3.389 -0.3139 -0.9691 -0.4967
  657SOL     OW 2686   5.805   5.721   0.285 -0.1954  0.1637  0.4537
  657SOL    HW1 2687   5.885   5.762   0.251  0.7164 -2.1530 -0.2519
  657SOL    HW2 2688   5.776   5.780   0.354  1.0907  2.0043 -0.5171
  658SOL     OW 2689   2.281   1.788   4.404 -0.1836  0.7093  0.0995
  658SOL    HW1 2690   2.305   1.873   4.369  0.1250  0.8969  0.7579
  658SOL    HW2 2691   2.220   1.807   4.474 -0.1769  0.3860  0.1944
  659SOL     OW 2692   5.405   4.923   3.046 -0.2251 -0.5620  0.4657
  659SOL    HW1 2693   5.354   4.995   3.009 -0.6361 -0.8176  0.5285
  659SOL    HW2 2694   5.493   4.958   3.056  0.3633 -1.0187 -2.4338
  660SOL     OW 2695   5.504   2.788   5.926  0.1333 -0.1434  0.5146
  660SOL    HW1 2696   5.425   2.747   5.890  0.0449 -1.0365  1.6894
  660SOL    HW2 2697   5.575   2.752   5.873 -0.0298 -1.1595  0.9735
  661SOL     OW 2698   2.920   5.103   5.466 -0.1482 -0.2855  0.2140
  661SOL    HW1 2699   2.986   5.106   5.396  1.6933 -0.0577  1.9106
  661SOL    HW2 2700   2.935   5.018   5.509  0.7030  0.8234  2.1582
  662SOL     OW 2701   0.901   2.160   5.814  0.2019  0.1765 -0.0423
  662SOL    HW1 2702   0.979   2.215   5.807  0.1190  0.2086 -0.8630
  662SOL    HW2 2703   0.919   2.101   5.887  0.8126  0.4700  0.0476
  663SOL     OW 2704   4.832   5.247   4.037  0.0676  0.3111 -0.1490
  663SOL    HW1 2705   4.793   5.186   4.100 -0.2547  1.0477  0.3794
  663SOL    HW2 2706   4.879   5.192   3.975  0.5773 -0.4181  0.8746
  664SOL     OW 2707   2.617   4.291   6.366  0.0307 -0.2297 -0.4399
  664SOL    HW1 2708   2.702   4.276   6.408 -0.8537  0.0049  1.4283
  664SOL    HW2 2709   2.578   4.204   6.360  0.4571 -0.3613 -1.4573
  665SOL     OW 2710   0.921   6.166   6.459 -0.3376  0.3343  0.0316
  665SOL    HW1 2711   0.963   6.182   6.544  0.4760 -1.5010  0.0010
  665SOL    HW2 2712   0.993   6.148   6.399 -0.9895  0.1641 -0.7159
  666SOL     OW 2713   4.322   3.572   2.099  0.7513 -0.3528 -0.3567
  666SOL    HW1 2714   4.403   3.621   2.084  1.6253 -2.2006 -2.0501
  666SOL    HW2 2715   4.324   3.550   2.192  1.9890  0.0040 -0.2854
  667SOL     OW 2716   0.535   0.888   6.444  0.1344 -0.1320  0.2748
  667SOL    HW1 2717   0.536   0.852   6.533 -2.5499  0.2668  0.5150
  667SOL    HW2 2718   0.541   0.811   6.387  0.4256 -0.5117  0.8126
  668SOL     OW 2719   6.238   6.552   6.657 -0.6236  0.3194  0.0521
  668SOL    HW1 2720   6.160   6.604   6.673 -1.3778 -0.3603 -1.2717
  668SOL    HW2 2721   6.309   6.616   6.650 -1.3086  1.0564 -0.2051
  669SOL     OW 2722   1.989   5.865   5.460 -0.6857  0.1499 -0.4468
  669SOL    HW1 2723   2.019   5.938   5.513 -2.2545  0.7016 -0.2852
  669SOL    HW2 2724   1.945   5.807   5.522  0.5928 -0.9681 -0.5652
  670SOL     OW 2725   0.366   5.250   1.768  0.1039  0.0277 -0.4524
  670SOL    HW1 2726   0.284   5.273   1.813  0.4729  0.5755 -0.0509
  670SOL    HW2 2727   0.385   5.326   1.712  0.8212  0.3004  0.1511
  671SOL     OW 2728   4.162   1.661   2.338  0.0332 -0.3070  0.4451
  671SOL    HW1 2729   4.236   1.638   2.393 -0.4922  0.3232  1.4400
  671SOL    HW2 2730   4.128   1.742   2.377 -0.4267  0.0658 -0.7275
  672SOL     OW 2731   1.691   5.177   4.809 -0.7628 -0.0112  0.0696
  672SOL    HW1 2732   1.631   5.251   4.813 -0.3241  0.3383  0.1609
  672SOL    HW2 2733   1.637   5.104   4.777 -0.6985  0.8439 -2.0453
  673SOL     OW 2734   5.529   0.955   0.912 -0.5211 -0.3050 -0.4237
  673SOL    HW1 2735   5.546   0.927   1.002 -1.1491  1.3687  0.2317
  673SOL    HW2 2736   5.566   0.885   0.858 -0.6510 -1.6075  1.1361
  674SOL     OW 2737   1.377   5.850   0.602  0.2827  0.4171  0.0291
  674SOL    HW1 2738   1.316   5.922   0.615 -0.3639 -0.1403  0.0990
  674SOL    HW2 2739   1.453   5.873   0.656  0.7076  1.7793 -1.1276
  675SOL     OW 2740   5.110   2.501   1.612 -0.3900 -0.1191 -0.3539
  675SOL    HW1 2741   5.024   2.462   1.625 -0.9404  1.2220  0.1026
  675SOL    HW2 2742   5.101   2.591   1.645  0.7393  0.5058 -1.6938
  676SOL     OW 2743   5.096   1.092   4.202 -0.0594 -0.9630  0.4351
  676SOL    HW1 2744   5.075   1.023   4.140  1.1520 -0.8193 -0.1439
  676SOL    HW2 2745   5.185   1.120   4.179 -0.6764  1.0598  0.4058
  677SOL     OW 2746   5.567   5.768   1.463 -0.1813 -0.2063 -0.2140
  677SOL    HW1 2747   5.577   5.790   1.370  0.1047 -0.1106 -0.1599
  677SOL    HW2 2748   5.520   5.842   1.500 -2.5807 -1.3538 -0.7892
  678SOL     OW 2749   5.416   0.855   3.201 -0.4069  0.3309 -0.8786
  678SOL    HW1 2750   5.454   0.816   3.280 -1.9372 -0.8661 -0.7240
  678SOL    HW2 2751   5.460   0.811   3.129 -3.8155 -3.5282 -0.7466
  679SOL     OW 2752   5.373   5.302   1.302 -0.0848 -0.3165 -0.9470
  679SOL    HW1 2753   5.457   5.313   1.346 -0.9457 -0.5462  0.7779
  679SOL    HW2 2754   5.383   5.223   1.248  0.7281 -0.4430 -0.6043
  680SOL     OW 2755   0.988   1.304   2.425 -0.0248 -0.3485  0.3913
  680SOL    HW1 2756   0.995   1.209   2.418 -0.8077 -0.2876 -1.4001
  680SOL    HW2 2757   0.895   1.321   2.440  0.0746  0.1598  0.4717
  681SOL     OW 2758   5.663   0.122   6.285 -0.0658 -0.1938  0.1835
  681SOL    HW1 2759   5.637   0.113   6.377  1.9641  3.5518  1.1880
  681SOL    HW2 2760   5.604   0.188   6.249  0.5726 -0.0436 -0.6094
  682SOL     OW 2761   0.474   2.335   2.405 -0.3467 -0.0175  0.3655
  682SOL    HW1 2762   0.502   2.407   2.461 -0.7896 -0.5851  1.3209
  682SOL    HW2 2763   0.556   2.296   2.374 -0.0877 -0.3130  1.4061
  683SOL     OW 2764   3.688   0.338   2.340 -0.5799 -0.3704  0.1767
  683SOL    HW1 2765   3.732   0.264   2.299 -2.0687 -0.3383 -1.5101
  683SOL    HW2 2766   3.754   0.408   2.340 -0.8252 -0.0689 -3.0286
  684SOL     OW 2767   1.820   3.436   0.750 -0.2765  0.3384  0.3710
  684SOL    HW1 2768   1.769   3.442   0.831  0.7222  2.5528  0.8676
  684SOL    HW2 2769   1.785   3.506   0.695  0.6440  0.3480 -0.2039
  685SOL     OW 2770   6.511   6.529   2.222  0.4414  0.2405 -0.4339
  685SOL    HW1 2771   6.449   6.522   2.149 -1.0930 -1.8743  1.0297
  685SOL    HW2 2772   6.480   6.605   2.272 -2.0560 -1.7877  1.2177
  686SOL     OW 2773   1.811   6.061   1.829 -0.4042  0.6572  0.2058
  686SOL    HW1 2774   1.887   6.004   1.818 -0.4365  0.5839  0.3683
  686SOL    HW2 2775   1.788   6.053   1.921 -2.3934 -1.5787 -0.4148
  687SOL     OW 2776   4.177   0.939   2.591 -0.2010 -0.2991  0.1368
  687SOL    HW1 2777   4.155   1.032   2.586 -0.6159 -0.4245 -0.5052
  687SOL    HW2 2778   4.101   0.894   2.552 -0.6435 -0.9954  1.7378
  688SOL     OW 2779   1.120   2.095   4.776  0.4891  0.1847  0.1851
  688SOL    HW1 2780   1.113   2.036   4.700 -0.2135  1.2354 -0.5648
  688SOL    HW2 2781   1.045   2.072   4.831  0.8855 -0.4355  0.4837
  689SOL     OW 2782   6.130   5.713   3.493  0.3699  0.4141 -0.3040
  689SOL    HW1 2783   6.212   5.664   3.496  0.3638  0.3552 -0.9811
  689SOL    HW2 2784   6.144   5.780   3.426 -0.3219  0.0490 -0.8331
  690SOL     OW 2785   0.786   1.207   5.450  0.2213 -0.5492 -0.1676
  690SOL    HW1 2786   0.870   1.217   5.404 -0.4574  0.8291 -1.1438
  690SOL    HW2 2787   0.733   1.279   5.418 -1.6341 -1.9029 -0.1954
  691SOL     OW 2788   1.354   3.463   0.989 -0.4168  0.6791  0.3249
  691SOL    HW1 2789   1.441   3.484   0.954 -0.4468  1.1239  0.5174
  691SOL    HW2 2790   1.368   3.388   1.047 -0.5776 -1.0003 -1.7229
  692SOL     OW 2791   2.073   1.017   4.452  0.0316  0.2789 -0.3071
  692SOL    HW1 2792   2.000   1.077   4.434  0.0484 -0.2352 -2.1437
  692SOL    HW2 2793   2.148   1.058   4.409  0.5100  0.0478  0.3074
  693SOL     OW 2794   6.266   5.083   3.058 -0.0801  0.2371  0.3175
  693SOL    HW1 2795   6.193   5.026   3.035 -0.0252  1.0798 -2.0990
  693SOL    HW2 2796   6.319   5.030   3.119 -2.7804 -0.2675  2.3172
  694SOL     OW 2797   5.352   2.205   4.895  0.1830 -0.1539 -0.2691
  694SOL    HW1 2798   5.413   2.158   4.953  0.6161  0.6289 -0.0863
  694SOL    HW2 2799   5.277   2.146   4.886  0.9404 -1.0995 -0.4426
  695SOL     OW 2800   4.835   4.249   1.101 -0.6729  0.5822 -0.0301
  695SOL    HW1 2801   4.790   4.189   1.160  0.2648 -0.4748 -0.3605
  695SOL    HW2 2802   4.776   4.258   1.026 -0.4854 -0.5636 -0.3314
  696SOL     OW 2803   0.189   2.075   2.305  0.1250 -0.1551  0.3880
  696SOL    HW1 2804   0.172   1.981   2.296  0.3746 -0.0503 -1.4323
  696SOL    HW2 2805   0.284   2.083   2.292 -0.1739  0.5513 -1.6447
  697SOL     OW 2806   6.678   1.609   3.128  0.2509  0.1830  0.7447
  697SOL    HW1 2807   6.708   1.595   3.218 -1.9357 -2.3602  1.1343
  697SOL    HW2 2808   6.713   1.534   3.080 -1.7342 -0.4626  0.2763
  698SOL     OW 2809   2.974   2.999   4.629 -0.1399  0.6259  0.5113
  698SOL    HW1 2810   2.943   2.926   4.575  0.3089  0.7633  0.0642
  698SOL    HW2 2811   3.054   2.966   4.669  0.1302  0.9146  0.2106
  699SOL     OW 2812   3.923   5.416   2.957  0.0451 -0.1206 -0.7144
  699SOL    HW1 2813   3.867   5.457   3.023  4.0934  3.3922  0.8275
  699SOL    HW2 2814   3.978   5.356   3.008  2.7662  2.1428 -0.8651
  700SOL     OW 2815   6.504   2.690   2.718 -0.3637 -0.1719 -0.2730
  700SOL    HW1 2816   6.577   2.656   2.667 -1.8016 -2.5082 -0.8543
  700SOL    HW2 2817   6.526   2.669   2.809  0.0196 -0.2036 -0.3717
  701SOL     OW 2818   4.327   1.595   3.344  0.1208  0.4354  0.1447
  701SOL    HW1 2819   4.306   1.654   3.272 -1.4151 -0.4216 -0.1327
  701SOL    HW2 2820   4.353   1.514   3.301 -0.1361  0.1392  0.5464
  702SOL     OW 2821   1.118   2.833   3.581  0.0706 -0.1224  0.1731
  702SOL    HW1 2822   1.156   2.892   3.516 -1.0852 -1.3557 -1.6984
  702SOL    HW2 2823   1.192   2.786   3.618  0.8362  1.2845  0.4562
  703SOL     OW 2824   4.029   0.257   4.592  0.0531 -0.3955 -0.1316
  703SOL    HW1 2825   4.101   0.193   4.597 -0.1607 -0.5379  1.5012
  703SOL    HW2 2826   4.069   0.340   4.619 -0.5227 -0.6018  1.4122
  704SOL     OW 2827   1.570   4.068   1.818  0.1034  0.4933 -0.3412
  704SOL    HW1 2828   1.595   3.979   1.841 -0.3892  0.6896  1.0009
  704SOL    HW2 2829   1.476   4.063   1.801  0.3290  0.4937 -1.6445
  705SOL     OW 2830   3.656   2.497   1.049 -0.0225  0.0011 -0.9226
  705SOL    HW1 2831   3.688   2.548   0.975  1.9185 -1.2271 -0.9801
  705SOL    HW2 2832   3.681   2.407   1.028 -0.2751 -0.4784  0.7895
  706SOL     OW 2833   3.902   1.186   2.289  0.7213  0.2503 -0.1620
  706SOL    HW1 2834   3.835   1.126   2.323 -0.2415  1.8131  0.7850
  706SOL    HW2 2835   3.969   1.129   2.252 -1.1587 -1.3649 -1.1776
  707SOL     OW 2836   4.724   4.620   5.166  0.1155  0.5681  0.0308
  707SOL    HW1 2837   4.726   4.583   5.078  2.6191  0.6064  0.0361
  707SOL    HW2 2838   4.662   4.566   5.214 -0.3637 -0.2039 -1.4355
  708SOL     OW 2839   4.798   5.624   6.017  0.4841  0.2405 -0.1590
  708SOL    HW1 2840   4.878   5.591   5.976  0.1542 -0.1516 -0.4907
  708SOL    HW2 2841   4.734   5.553   6.004  0.2018  0.3824  0.4637
  709SOL     OW 2842   4.062   3.920   6.037  0.2829  0.1328  0.1661
  709SOL    HW1 2843   3.997   3.932   5.968 -1.6945 -0.8573  1.7974
  709SOL    HW2 2844   4.094   3.831   6.026 -0.8955 -0.4378  1.2010
  710SOL     OW 2845   4.454   2.113   2.444 -0.2822 -0.2402  0.1319
  710SOL    HW1 2846   4.487   2.027   2.468 -2.8124 -1.5272 -0.8574
  710SOL    HW2 2847   4.495   2.132   2.359  0.9494 -0.0788  0.7607
  711SOL     OW 2848   5.888   1.278   2.858  0.0419  0.1890 -0.3331
  711SOL    HW1 2849   5.959   1.272   2.794  0.0474  1.2259 -0.4444
  711SOL    HW2 2850   5.927   1.249   2.940 -0.1602 -1.8375 -0.9231
  712SOL     OW 2851   1.423   6.113   6.025  0.5220  0.5231  0.0744
  712SOL    HW1 2852   1.439   6.197   5.982 -2.0484  1.8688  1.5979
  712SOL    HW2 2853   1.383   6.058   5.957 -1.8527  2.0320  0.1978
  713SOL     OW 2854   0.418   4.219   1.604 -0.5448  0.2416 -0.3432
  713SOL    HW1 2855   0.444   4.140   1.557 -0.4731  0.7293 -1.1327
  713SOL    HW2 2856   0.338   4.248   1.561 -2.0440 -0.8660  1.6361
  714SOL     OW 2857   4.556   5.348   3.397  0.0629  0.0728  0.6068
  714SOL    HW1 2858   4.531   5.256   3.391 -1.1243  0.1516  3.4550
  714SOL    HW2 2859   4.498   5.393   3.337 -0.9728 -0.7674  0.9606
  715SOL     OW 2860   4.557   0.968   2.011 -0.0159 -0.3469  0.1484
  715SOL    HW1 2861   4.648   0.948   1.990 -0.2489 -1.7651  0.3908
  715SOL    HW2 2862   4.551   1.063   2.008  1.2578 -0.2884 -0.7488
  716SOL     OW 2863   3.265   5.101   3.332 -0.0089 -0.0974 -0.1898
  716SOL    HW1 2864   3.270   5.081   3.426 -0.9651 -0.3825 -0.1990
  716SOL    HW2 2865   3.177   5.074   3.306  0.3468 -0.2642 -1.2344
  717SOL     OW 2866   2.713   1.737   5.935 -0.2937 -0.0715  0.1885
  717SOL    HW1 2867   2.726   1.727   6.029  0.6349 -1.8508 -0.1060
  717SOL    HW2 2868   2.773   1.674   5.896 -0.5337  0.7905 -1.6091
  718SOL     OW 2869   4.425   5.547   6.379 -0.0387 -0.1528 -0.0582
  718SOL    HW1 2870   4.463   5.478   6.433 -0.8308  0.0297  0.7421
  718SOL    HW2 2871   4.335   5.556   6.410  0.6508  2.6989  1.3422
  719SOL     OW 2872   1.735   5.929   4.187 -0.0967  0.2565 -0.0193
  719SOL    HW1 2873   1.722   5.975   4.105 -0.3273  0.4872  0.1476
  719SOL    HW2 2874   1.739   5.836   4.163  0.2351  0.3510 -0.3376
  720SOL     OW 2875   5.451   6.683   1.699  0.0913  0.3939  0.4201
  720SOL    HW1 2876   5.360   6.710   1.715  0.0134  1.2697 -1.4067
  720SOL    HW2 2877   5.450   6.588   1.713 -0.9591  0.4872  1.0515
  721SOL     OW 2878   2.252   5.599   5.639 -0.5215 -0.2090 -1.2601
  721SOL    HW1 2879   2.293   5.640   5.564 -0.9832 -1.3451 -2.1615
  721SOL    HW2 2880   2.190   5.536   5.601 -0.7230 -0.8364  0.0658
  722SOL     OW 2881   3.651   2.619   3.458 -0.1439  0.7397  0.3234
  722SOL    HW1 2882   3.651   2.524   3.466  0.6493  0.6030 -1.0664
  722SOL    HW2 2883   3.566   2.641   3.420 -0.1931  0.5376  0.3192
  723SOL     OW 2884   1.299   5.312   2.013 -0.1933 -0.2669 -0.2896
  723SOL    HW1 2885   1.276   5.300   1.921  0.7228  0.1604 -0.5750
  723SOL    HW2 2886   1.315   5.223   2.045 -0.5005 -0.4151 -0.5453
  724SOL     OW 2887   6.491   2.841   3.924 -0.2491 -0.6416 -0.0584
  724SOL    HW1 2888   6.586   2.834   3.909 -0.3197 -0.3025 -0.7180
  724SOL    HW2 2889   6.455   2.762   3.885 -0.0262 -1.9659  2.3361
  725SOL     OW 2890   1.999   1.231   1.961  0.2716 -0.1107 -0.5325
  725SOL    HW1 2891   1.975   1.192   2.045  3.7593  1.3062  1.2200
  725SOL    HW2 2892   2.040   1.159   1.912 -0.5025 -0.5921 -0.4805
  726SOL     OW 2893   4.874   0.571   4.536  0.3885 -0.7382 -0.0003
  726SOL    HW1 2894   4.902   0.530   4.617  0.9624  0.2234  0.2989
  726SOL    HW2 2895   4.932   0.647   4.526 -0.9617  0.2724 -0.2946
  727SOL     OW 2896   5.451   5.326   1.771  0.5604  0.3330  0.1495
  727SOL    HW1 2897   5.545   5.327   1.791  0.3537  0.1323  1.1716
  727SOL    HW2 2898   5.410   5.302   1.854 -0.4098  0.6207 -0.2513
  728SOL     OW 2899   5.118   0.935   0.816 -0.2142 -0.5034 -0.2767
  728SOL    HW1 2900   5.081   0.858   0.773  0.0051 -1.4916  1.2814
  728SOL    HW2 2901   5.043   0.992   0.833 -0.2438  0.1536 -2.4236
  729SOL     OW 2902   2.974   3.756   3.108 -0.4766 -0.0227 -0.4363
  729SOL    HW1 2903   2.983   3.775   3.014 -0.4917 -3.4479 -1.2175
  729SOL    HW2 2904   3.043   3.692   3.126 -0.7832  0.2368  1.7847
  730SOL     OW 2905   4.438   6.255   5.330  0.2587  0.5751  0.1266
  730SOL    HW1 2906   4.480   6.195   5.269 -0.0392  0.3423  0.1443
  730SOL    HW2 2907   4.389   6.198   5.390  1.0402  0.7646  0.9606
  731SOL     OW 2908   5.985   0.108   1.344 -0.0362  0.5958  0.3849
  731SOL    HW1 2909   5.891   0.095   1.337  0.2096 -2.0938  1.2931
  731SOL    HW2 2910   6.020   0.075   1.261  0.2775 -0.6474  0.9991
  732SOL     OW 2911   4.986   6.278   6.291 -0.1523 -0.3186 -0.1997
  732SOL    HW1 2912   4.953   6.291   6.202  0.1528  2.3016  0.0365
  732SOL    HW2 2913   4.912   6.297   6.348  0.6069  1.5879  0.1983
  733SOL     OW 2914   1.388   6.206   3.846 -0.0713 -0.1169  0.6988
  733SOL    HW1 2915   1.347   6.139   3.899  0.4562  0.5285  1.9336
  733SOL    HW2 2916   1.316   6.265   3.822 -0.3825 -0.6461  0.3112
  734SOL     OW 2917   1.387   2.625   5.679  0.3355 -0.2676 -0.0467
  734SOL    HW1 2918   1.325   2.615   5.606  0.4901  0.5970 -0.3032
  734SOL    HW2 2919   1.366   2.553   5.738 -1.1317  0.1885  0.0261
  735SOL     OW 2920   3.461   4.108   5.590  0.2755  0.7809  0.3900
  735SOL    HW1 2921   3.523   4.067   5.650  1.3514 -0.0967 -1.2875
  735SOL    HW2 2922   3.387   4.048   5.587  0.7311  0.2319 -0.0543
  736SOL     OW 2923   6.436   4.646   0.427 -0.1133  0.0939  0.7783
  736SOL    HW1 2924   6.520   4.622   0.466  0.9286  0.8855 -0.9156
  736SOL    HW2 2925   6.398   4.709   0.488  0.4945 -0.3272  1.5899
  737SOL     OW 2926   3.695   3.740   3.580 -0.1684  0.1408 -0.1633
  737SOL    HW1 2927   3.638   3.813   3.555  0.4038  0.4183 -0.6695
  737SOL    HW2 2928   3.733   3.710   3.497 -1.5960 -1.7557 -0.1704
  738SOL     OW 2929   2.853   4.358   2.429  0.0652  0.2644 -0.2404
  738SOL    HW1 2930   2.810   4.422   2.484 -1.4212 -1.1794  0.3089
  738SOL    HW2 2931   2.930   4.404   2.394 -2.6523  3.3365 -2.4088
  739SOL     OW 2932   4.830   2.593   3.816  0.3809 -0.0200 -0.6426
  739SOL    HW1 2933   4.851   2.675   3.862  0.4653 -0.3647 -0.0556
  739SOL    HW2 2934   4.735   2.587   3.822  0.4326 -0.3025 -0.0978
  740SOL     OW 2935   1.262   3.556   2.611 -0.0214 -0.1292  0.5611
  740SOL    HW1 2936   1.178   3.517   2.635  0.2513 -0.4689  0.9563
  740SOL    HW2 2937   1.240   3.645   2.584 -0.7807 -0.9015 -1.4035
  741SOL     OW 2938   1.254   2.043   6.281  0.3180  0.3998 -0.0276
  741SOL    HW1 2939   1.234   2.045   6.375  0.6166  3.0219  0.0200
  741SOL    HW2 2940   1.170   2.061   6.239  0.6045  1.3893 -0.1813
  742SOL     OW 2941   6.048   0.306   2.934 -0.3351 -0.0533  0.3140
  742SOL    HW1 2942   6.006   0.369   2.992  0.7898  0.2602  0.7932
  742SOL    HW2 2943   5.975   0.263   2.889 -1.2490 -0.7016  2.3612
  743SOL     OW 2944   4.078   6.025   4.377  0.6405 -0.5687  0.6282
  743SOL    HW1 2945   4.022   5.952   4.402  1.9289 -1.5287  0.7658
  743SOL    HW2 2946   4.032   6.067   4.305 -0.4318 -1.1204  0.9816
  744SOL     OW 2947   6.704   1.167   5.041 -0.2803 -0.3844  0.4100
  744SOL    HW1 2948   6.637   1.234   5.025 -0.4808 -0.4828  0.8358
  744SOL    HW2 2949   6.784   1.204   5.004 -0.5072 -0.1465  0.1456
  745SOL     OW 2950   4.403   1.240   0.762  0.1911 -0.3295 -0.2426
  745SOL    HW1 2951   4.387   1.303   0.833  1.9304 -1.6306  1.3486
  745SOL    HW2 2952   4.330   1.179   0.767 -1.2577  1.2803 -1.4913
  746SOL     OW 2953   3.932   5.707   1.607  0.0377 -0.2963  0.2442
  746SOL    HW1 2954   4.024   5.731   1.608 -0.2962  0.9893  1.2398
  746SOL    HW2 2955   3.930   5.616   1.638  0.8393  0.1519  1.6308
  747SOL     OW 2956   4.933   1.012   6.759 -0.8019 -0.2011 -0.1666
  747SOL    HW1 2957   5.026   1.006   6.739 -0.9148  1.3606 -1.1897
  747SOL    HW2 2958   4.895   0.933   6.719 -0.1370 -0.0857 -1.0375
  748SOL     OW 2959   3.262   1.702   6.760  0.1247  0.1002 -0.1607
  748SOL    HW1 2960   3.356   1.707   6.742  0.4710 -0.1995  1.5201
  748SOL    HW2 2961   3.233   1.793   6.761  0.0161  0.1208 -2.5495
  749SOL     OW 2962   4.958   1.234   1.303  0.3514  0.1297  0.1595
  749SOL    HW1 2963   5.036   1.197   1.262 -0.1141 -0.8952  0.1960
  749SOL    HW2 2964   4.940   1.314   1.253  0.8122 -0.1858 -0.5205
  750SOL     OW 2965   4.880   4.106   3.505  0.4146  0.2196 -0.5510
  750SOL    HW1 2966   4.922   4.057   3.577 -0.3919 -0.9016 -0.8248
  750SOL    HW2 2967   4.897   4.198   3.526  0.6118 -0.1093  0.8166
  751SOL     OW 2968   2.017   4.569   0.901  0.2278 -0.1526  0.3868
  751SOL    HW1 2969   2.011   4.655   0.944  2.8244  0.2827 -0.0707
  751SOL    HW2 2970   1.930   4.556   0.863 -1.4615  0.4206  3.8712
  752SOL     OW 2971   4.702   1.670   5.439  0.1654  0.0103 -0.7345
  752SOL    HW1 2972   4.651   1.705   5.512  0.7853 -0.1051 -0.2366
  752SOL    HW2 2973   4.792   1.672   5.471  0.5981  1.2758 -2.0378
  753SOL     OW 2974   4.075   2.489   0.617 -0.5053 -0.0820  0.3889
  753SOL    HW1 2975   4.170   2.482   0.626 -0.3749 -2.3947 -2.0149
  753SOL    HW2 2976   4.042   2.407   0.654 -1.4021 -0.0367 -0.2898
  754SOL     OW 2977   4.198   3.647   1.458 -0.1674 -0.0637  0.3402
  754SOL    HW1 2978   4.287   3.680   1.445 -0.4384  0.1428 -1.1245
  754SOL    HW2 2979   4.142   3.723   1.440 -0.7465 -0.9634 -1.8566
  755SOL     OW 2980   6.593   2.025   5.424  0.3057  0.4977 -0.8044
  755SOL    HW1 2981   6.680   2.053   5.453  0.3055  0.5943 -0.8951
  755SOL    HW2 2982   6.553   1.985   5.501  1.1199 -1.1850 -1.2339
  756SOL     OW 2983   3.881   3.682   5.095 -0.1638 -0.1937 -0.5552
  756SOL    HW1 2984   3.888   3.764   5.047 -0.1160 -0.0721 -0.3419
  756SOL    HW2 2985   3.859   3.617   5.028  0.4765 -0.1283 -0.8353
  757SOL     OW 2986   1.564   0.893   1.232 -0.3808 -0.1545  0.0597
  757SOL    HW1 2987   1.519   0.823   1.184 -1.4130 -0.0861  0.8997
  757SOL    HW2 2988   1.546   0.874   1.324  1.4699 -0.2109  0.4264
  758SOL     OW 2989   6.691   2.412   0.028  0.6018  0.0714 -0.4464
  758SOL    HW1 2990   6.633   2.380   0.098  0.3196  0.0917 -0.6697
  758SOL    HW2 2991   6.693   2.507   0.041  0.5563  0.0745 -0.4599
  759SOL     OW 2992   3.577   0.797   5.235  0.3402 -0.3892 -0.0620
  759SOL    HW1 2993   3.579   0.869   5.297 -2.3024 -0.9332  0.7290
  759SOL    HW2 2994   3.603   0.720   5.286  0.0399 -0.5155 -0.0971
  760SOL     OW 2995   1.900   5.665   0.141  1.0118  0.4595 -0.0785
  760SOL    HW1 2996   1.960   5.739   0.151  1.2104  0.3745 -0.6278
  760SOL    HW2 2997   1.813   5.702   0.159  0.8153  1.3973 -2.7977
  761SOL     OW 2998   6.396   0.550   5.603 -0.7643 -0.4377  0.0011
  761SOL    HW1 2999   6.460   0.548   5.532 -1.4739  0.4865 -0.6706
  761SOL    HW2 3000   6.336   0.477   5.584 -1.5406  0.4271 -0.9073
  762SOL     OW 3001   2.262   2.313   3.101  0.0252  0.3601 -0.4017
  762SOL    HW1 3002   2.214   2.354   3.173  0.7113 -2.0568  1.5311
  762SOL    HW2 3003   2.278   2.383   3.039 -3.2364  1.8698  0.3998
  763SOL     OW 3004   3.376   2.558   6.083 -0.3599  0.1009  0.0692
  763SOL    HW1 3005   3.346   2.499   6.152 -0.2582 -1.7393 -1.4177
  763SOL    HW2 3006   3.466   2.531   6.065  0.2644  1.8103  0.5001
  764SOL     OW 3007   1.564   1.103   4.570  0.3735 -0.3378 -0.3095
  764SOL    HW1 3008   1.486   1.137   4.527 -0.4598 -0.5536  1.0175
  764SOL    HW2 3009   1.577   1.016   4.530  0.2882 -0.0677 -0.9392
  765SOL     OW 3010   3.485   5.111   4.646  0.3802  0.1485  0.1909
  765SOL    HW1 3011   3.564   5.060   4.628  0.8051  1.3705 -1.5469
  765SOL    HW2 3012   3.416   5.067   4.596  0.9227  1.7126 -2.0234
  766SOL     OW 3013   4.590   2.849   4.981 -0.0061  0.2006 -0.4247
  766SOL    HW1 3014   4.536   2.837   4.903  0.0738  0.0517 -0.4578
  766SOL    HW2 3015   4.529   2.840   5.054 -0.5860  2.9983 -0.5171
  767SOL     OW 3016   0.090   0.982   6.134 -0.3623  0.4467 -0.6673
  767SOL    HW1 3017   0.159   1.048   6.126  0.1292  0.2093  1.2652
  767SOL    HW2 3018   0.121   0.910   6.079  1.6199 -0.1851  1.1901
  768SOL     OW 3019   4.070   0.232   5.197  0.0327 -0.4864  0.1622
  768SOL    HW1 3020   4.027   0.259   5.116  0.2927 -1.3834 -0.2879
  768SOL    HW2 3021   4.012   0.263   5.267 -0.7470 -0.6582 -0.3986
  769SOL     OW 3022   6.693   4.888   1.209  0.1741 -0.1527 -0.3429
  769SOL    HW1 3023   6.615   4.875   1.263 -0.2985 -0.0492 -1.0008
  769SOL    HW2 3024   6.748   4.812   1.227  1.3097  1.2690  2.4716
  770SOL     OW 3025   3.334   6.701   2.481  0.3151  0.2382  0.0496
  770SOL    HW1 3026   3.425   6.712   2.511  0.6442  0.4875 -1.0171
  770SOL    HW2 3027   3.332   6.612   2.446  0.5575  0.7773 -1.3369
  771SOL     OW 3028   4.659   3.345   3.187  0.3911  0.0010  0.5494
  771SOL    HW1 3029   4.672   3.438   3.203 -1.9471  0.3242  0.6775
  771SOL    HW2 3030   4.726   3.302   3.241  2.6791  1.6231 -0.8925
  772SOL     OW 3031   3.571   4.849   4.377  0.3673 -0.2817 -0.3991
  772SOL    HW1 3032   3.613   4.868   4.461  1.3274 -1.7173 -0.5320
  772SOL    HW2 3033   3.478   4.845   4.397  0.5372  0.0563  0.4721
  773SOL     OW 3034   4.274   0.596   5.198 -0.3942  0.3451 -0.0515
  773SOL    HW1 3035   4.248   0.540   5.271  1.3611 -0.7976 -0.2788
  773SOL    HW2 3036   4.253   0.545   5.120  0.2327  0.4389 -0.2850
  774SOL     OW 3037   0.607   6.542   3.920  0.4598 -0.6702 -0.1126
  774SOL    HW1 3038   0.536   6.593   3.959  0.3838  0.3868 -1.5810
  774SOL    HW2 3039   0.669   6.529   3.991 -0.6195 -0.5167  0.8687
  775SOL     OW 3040   3.019   3.502   1.478 -0.0785  0.1116  0.4354
  775SOL    HW1 3041   3.071   3.428   1.447 -0.4888  0.1997 -0.4960
  775SOL    HW2 3042   2.963   3.524   1.404 -0.9024  0.5036  1.1704
  776SOL     OW 3043   4.059   4.946   2.969 -0.6186 -0.6867  0.5864
  776SOL    HW1 3044   4.086   4.967   3.058  0.7641  2.2613 -0.4395
  776SOL    HW2 3045   3.976   4.992   2.958  0.1615  0.5547 -0.2299
  777SOL     OW 3046   5.626   2.676   4.177 -0.1600  0.0354  0.2718
  777SOL    HW1 3047   5.652   2.655   4.087 -1.0011 -0.5191  0.1470
  777SOL    HW2 3048   5.564   2.749   4.166 -0.4644 -0.2060  0.3747
  778SOL     OW 3049   2.254   5.456   2.893  0.3433  0.6509 -0.0215
  778SOL    HW1 3050   2.245   5.538   2.845  0.4354  1.0061  0.5688
  778SOL    HW2 3051   2.324   5.472   2.956  0.0792  0.2587  0.3769
  779SOL     OW 3052   4.105   3.838   4.963 -0.3093 -0.1142  0.1463
  779SOL    HW1 3053   4.151   3.918   4.987 -0.7404 -0.7920  3.4141
  779SOL    HW2 3054   4.174   3.776   4.941  0.3014 -0.4358  2.8288
  780SOL     OW 3055   3.196   6.435   5.796  0.5870  0.0721  0.0256
  780SOL    HW1 3056   3.128   6.376   5.763 -0.2160  1.0942 -0.1475
  780SOL    HW2 3057   3.228   6.480   5.718  1.6301 -0.5607  0.0730
  781SOL     OW 3058   5.267   4.385   5.912 -0.2711 -0.0128 -0.3743
  781SOL    HW1 3059   5.238   4.445   5.980 -0.8332  1.8420 -2.1796
  781SOL    HW2 3060   5.322   4.321   5.957 -1.8768  0.2695  2.0335
  782SOL     OW 3061   4.943   2.197   6.758  0.1067 -0.2905  0.7864
  782SOL    HW1 3062   5.004   2.258   6.800 -0.4751 -0.1713  1.4595
  782SOL    HW2 3063   4.873   2.185   6.822  0.0032 -1.3359  0.4775
  783SOL     OW 3064   3.906   4.671   0.734 -0.0843  0.5588 -0.4538
  783SOL    HW1 3065   3.886   4.727   0.810  0.2061 -0.7050  0.5637
  783SOL    HW2 3066   4.001   4.679   0.723 -0.1319  0.7719 -0.7129
  784SOL     OW 3067   4.975   0.175   1.783  0.1745  0.5787 -0.0663
  784SOL    HW1 3068   4.959   0.128   1.865 -0.0201  1.4564  0.4064
  784SOL    HW2 3069   5.044   0.237   1.805 -0.9508  1.8819 -0.1559
  785SOL     OW 3070   4.322   5.807   5.838  0.1391 -0.4947  0.2137
  785SOL    HW1 3071   4.312   5.777   5.928 -0.0546  0.3509  0.4759
  785SOL    HW2 3072   4.416   5.795   5.820  0.1862 -0.6231  0.5391
  786SOL     OW 3073   2.270   5.176   2.961  0.3445  0.6213 -0.2239
  786SOL    HW1 3074   2.245   5.244   2.898 -0.1022 -0.3820 -1.1403
  786SOL    HW2 3075   2.210   5.104   2.944  0.4260  0.2058  1.1462
  787SOL     OW 3076   6.521   4.809   5.219 -0.4748  0.0530  0.0304
  787SOL    HW1 3077   6.538   4.902   5.229  0.4987 -0.0481 -0.5192
  787SOL    HW2 3078   6.532   4.772   5.307  1.6037  0.0990 -0.1888
  788SOL     OW 3079   0.064   0.143   0.065 -0.8757 -0.2813  0.1299
  788SOL    HW1 3080  -0.015   0.162   0.014 -0.8360 -0.3599  0.0388
  788SOL    HW2 3081   0.135   0.141   0.000 -0.8304 -0.4179  0.1825
  789SOL     OW 3082   1.064   6.113   6.235 -0.2589  0.6203 -0.3314
  789SOL    HW1 3083   1.070   6.041   6.171 -2.8401  0.2168 -0.1703
  789SOL    HW2 3084   1.087   6.191   6.185  0.5116 -0.0335 -1.0296
  790SOL     OW 3085   4.197   3.485   4.109 -0.1520  0.3105 -0.1870
  790SOL    HW1 3086   4.198   3.395   4.078 -1.1821 -0.4404  1.8418
  790SOL    HW2 3087   4.141   3.531   4.047 -0.6892 -0.7461 -0.5038
  791SOL     OW 3088   4.499   4.465   3.859 -0.2401 -0.1649 -0.1301
  791SOL    HW1 3089   4.575   4.508   3.819  0.2556 -0.0351  0.9357
  791SOL    HW2 3090   4.519   4.463   3.952 -1.0332 -1.1848  0.0245
  792SOL     OW 3091   2.392   5.674   4.269  0.2313  0.4399 -0.3685
  792SOL    HW1 3092   2.471   5.653   4.220 -0.1389  0.0105 -0.7858
  792SOL    HW2 3093   2.327   5.695   4.202 -1.0594 -2.7931 -0.2117
  793SOL     OW 3094   6.497   4.756   6.396  0.1597  0.1032 -0.2621
  793SOL    HW1 3095   6.486   4.842   6.435 -0.2374  0.7455 -1.7817
  793SOL    HW2 3096   6.412   4.713   6.407  0.2304  0.0651  0.1217
  794SOL     OW 3097   0.093   3.320   4.927  0.1162  0.1569  0.0052
  794SOL    HW1 3098   0.107   3.283   5.014 -0.8200  1.5198  0.7329
  794SOL    HW2 3099   0.179   3.314   4.885  0.6263 -0.2827  1.0991
  795SOL     OW 3100   0.169   2.635   5.915  0.1801 -0.5307 -0.2640
  795SOL    HW1 3101   0.152   2.542   5.933 -3.0337  0.1816  0.7769
  795SOL    HW2 3102   0.189   2.637   5.821 -0.2230 -2.2156 -0.4092
  796SOL     OW 3103   4.949   3.954   5.504 -0.0872  0.4768  0.7149
  796SOL    HW1 3104   4.860   3.991   5.510 -0.3645  0.1512 -1.0791
  796SOL    HW2 3105   5.005   4.029   5.484 -0.1353  0.4895  0.6274
  797SOL     OW 3106   5.551   3.560   6.277  0.4461 -0.0905  0.8946
  797SOL    HW1 3107   5.602   3.503   6.335 -3.0873 -2.0045  2.2506
  797SOL    HW2 3108   5.554   3.517   6.192  1.4048  0.0374  0.8566
  798SOL     OW 3109   4.353   1.164   0.151  0.0105 -0.1278  0.1067
  798SOL    HW1 3110   4.280   1.186   0.094  0.7634 -1.3059 -1.3516
  798SOL    HW2 3111   4.424   1.222   0.123  1.5328 -3.2041 -2.7401
  799SOL     OW 3112   5.040   5.635   5.882 -0.4531  0.6297 -0.3848
  799SOL    HW1 3113   5.077   5.549   5.860 -0.2445  1.0931 -1.9034
  799SOL    HW2 3114   5.071   5.652   5.971  2.9459  0.9532 -1.5593
  800SOL     OW 3115   0.496   6.377   4.289 -0.4834 -0.1334 -1.0992
  800SOL    HW1 3116   0.504   6.462   4.245 -1.1331  0.3755 -0.2360
  800SOL    HW2 3117   0.407   6.376   4.325  0.5597  0.1311  1.6104
  801SOL     OW 3118   1.807   0.329   5.614  0.4233  0.1345 -0.1176
  801SOL    HW1 3119   1.834   0.421   5.605  1.4265 -0.0852  0.6115
  801SOL    HW2 3120   1.887   0.283   5.639 -0.1839 -0.8693 -0.0176
  802SOL     OW 3121   3.224   3.931   4.932 -0.1614 -0.1938 -0.4484
  802SOL    HW1 3122   3.302   3.918   4.987 -0.6271  0.3328  0.3559
  802SOL    HW2 3123   3.232   3.867   4.862  0.5446 -0.7485  0.1395
  803SOL     OW 3124   1.998   5.141   6.045  0.0167 -0.1615  1.2799
  803SOL    HW1 3125   1.979   5.094   6.126  3.3617 -0.5172  1.9572
  803SOL    HW2 3126   2.014   5.072   5.980  0.1783  0.0778  1.0638
  804SOL     OW 3127   4.584   1.677   5.074 -0.0683  0.6099  0.6645
  804SOL    HW1 3128   4.624   1.752   5.116  2.9326 -0.9899  0.8421
  804SOL    HW2 3129   4.638   1.661   4.996 -1.0122 -0.9602  0.2871
  805SOL     OW 3130   0.575   5.173   3.606 -0.1095  0.0169  0.4619
  805SOL    HW1 3131   0.506   5.107   3.611 -0.9802  0.9260  0.7964
  805SOL    HW2 3132   0.585   5.204   3.696 -2.7638  3.3659 -0.3000
  806SOL     OW 3133   0.380   1.775   2.864  0.1918 -0.2568 -0.3095
  806SOL    HW1 3134   0.298   1.755   2.819  0.2438 -1.3686  0.0743
  806SOL    HW2 3135   0.413   1.853   2.820  0.2260 -1.2869 -2.1538
  807SOL     OW 3136   3.827   3.797   1.165  0.5744  0.3528  0.4339
  807SOL    HW1 3137   3.790   3.757   1.086 -0.7037  1.8840  0.2338
  807SOL    HW2 3138   3.777   3.758   1.237 -1.2986  2.1929  0.1819
  808SOL     OW 3139   5.110   3.948   1.273  0.1872 -0.2628  0.0713
  808SOL    HW1 3140   5.188   3.914   1.228  0.0735 -1.3215  0.6511
  808SOL    HW2 3141   5.131   4.040   1.290 -0.2104  0.4900 -3.1061
  809SOL     OW 3142   3.966   4.010   0.215  0.1907 -0.1685 -0.2524
  809SOL    HW1 3143   3.972   3.916   0.197  2.1201 -0.5057  1.8884
  809SOL    HW2 3144   3.992   4.051   0.132 -0.4926 -1.4922 -1.1546
  810SOL     OW 3145   4.956   6.625   4.001 -0.3387 -0.1754  0.0603
  810SOL    HW1 3146   5.034   6.571   4.000  0.4596  0.9530 -0.2065
  810SOL    HW2 3147   4.981   6.703   3.951 -1.4253  0.4744  0.5232
  811SOL     OW 3148   6.120   0.499   6.177 -0.2344 -0.0733  0.0661
  811SOL    HW1 3149   6.095   0.583   6.214 -1.4489 -1.0094  1.4738
  811SOL    HW2 3150   6.200   0.517   6.127 -0.8416  2.0054 -0.1984
  812SOL     OW 3151   5.825   2.127   5.049 -0.1542  0.0043  0.1209
  812SOL    HW1 3152   5.863   2.200   5.098  0.2027 -0.3813  0.4230
  812SOL    HW2 3153   5.766   2.168   4.987 -0.1605  0.5375  0.4756
  813SOL     OW 3154   1.514   2.279   1.149 -0.4970  0.0938  0.1598
  813SOL    HW1 3155   1.464   2.334   1.208 -0.1829  0.6221 -0.0587
  813SOL    HW2 3156   1.479   2.191   1.162 -0.9855  0.3411  0.5284
  814SOL     OW 3157   5.986   0.832   4.818  0.2702  0.1441  0.0664
  814SOL    HW1 3158   6.064   0.786   4.788  0.1722  0.7666 -1.1520
  814SOL    HW2 3159   5.981   0.910   4.762 -1.2562  0.0654  0.0866
  815SOL     OW 3160   2.457   0.266   0.166  0.0677  0.5365 -0.0316
  815SOL    HW1 3161   2.419   0.237   0.083 -0.4885  1.5819 -0.1568
  815SOL    HW2 3162   2.551   0.268   0.151 -0.0042  0.3193 -0.5118
  816SOL     OW 3163   4.102   2.238   4.977 -0.1223  0.2475 -0.3614
  816SOL    HW1 3164   4.098   2.202   4.888 -0.2868 -2.5194  0.7116
  816SOL    HW2 3165   4.162   2.180   5.023 -0.5884  1.2345  1.5491
  817SOL     OW 3166   1.118   6.669   0.771 -0.1826  0.1535  0.3394
  817SOL    HW1 3167   1.188   6.682   0.834  0.3502 -0.7546 -0.0458
  817SOL    HW2 3168   1.089   6.579   0.786 -0.5549  0.1812 -0.1967
  818SOL     OW 3169   3.017   2.600   2.290 -0.1465  0.6801  0.0594
  818SOL    HW1 3170   3.018   2.685   2.335  0.5423 -0.9936  3.3777
  818SOL    HW2 3171   3.107   2.586   2.263 -0.2555  0.9857 -0.4674
  819SOL     OW 3172   3.179   3.554   5.328 -0.0605 -0.0860 -0.3634
  819SOL    HW1 3173   3.187   3.471   5.374  0.0845 -0.2530 -0.6832
  819SOL    HW2 3174   3.244   3.549   5.258 -0.4832  0.0334 -0.7716
  820SOL     OW 3175   5.368   2.869   0.017  0.1847  0.2322  0.6652
  820SOL    HW1 3176   5.392   2.851  -0.074 -2.5026 -2.7030  0.4343
  820SOL    HW2 3177   5.431   2.818   0.069  1.9423  2.1877  0.5330
  821SOL     OW 3178   4.992   6.192   0.193  0.5303  0.0255  0.0771
  821SOL    HW1 3179   5.029   6.111   0.159  2.2420  0.3932  0.9970
  821SOL    HW2 3180   4.977   6.247   0.116 -0.2603 -0.9913 -0.5073
  822SOL     OW 3181   3.291   2.062   1.034 -0.2178 -0.2157 -0.3175
  822SOL    HW1 3182   3.247   1.977   1.028  0.9266 -0.8036 -0.5272
  822SOL    HW2 3183   3.355   2.051   1.104  0.2031  0.3503 -0.6077
  823SOL     OW 3184   1.510   6.661   6.336 -0.1214 -0.6353  0.2882
  823SOL    HW1 3185   1.581   6.686   6.396 -0.4387  0.5737  0.1640
  823SOL    HW2 3186   1.534   6.702   6.253 -1.8175  1.1589  0.6751
  824SOL     OW 3187   5.113   3.196   3.626 -0.0874 -0.5269 -0.3147
  824SOL    HW1 3188   5.024   3.184   3.593 -0.3522 -0.9147  0.5213
  824SOL    HW2 3189   5.114   3.284   3.663  0.0535 -0.2944 -0.8687
  825SOL     OW 3190   6.410   1.718   2.632 -0.2028  0.1689  0.3854
  825SOL    HW1 3191   6.316   1.735   2.627 -0.2662  0.2293  1.7003
  825SOL    HW2 3192   6.447   1.799   2.666  0.1501 -0.3629  1.2834
  826SOL     OW 3193   3.355   4.291   3.765  0.3914 -0.4955 -0.2290
  826SOL    HW1 3194   3.357   4.257   3.854  0.0124  0.7987  0.2877
  826SOL    HW2 3195   3.375   4.216   3.710  2.2410 -0.9749  1.0399
  827SOL     OW 3196   0.136   3.952   1.629  0.1893  0.9030  0.1413
  827SOL    HW1 3197   0.223   3.921   1.655  0.5984  2.2031  0.3404
  827SOL    HW2 3198   0.152   4.017   1.562 -0.5418  2.3086  1.3049
  828SOL     OW 3199   0.505   2.711   2.393  0.4315 -0.3322  0.0620
  828SOL    HW1 3200   0.527   2.796   2.355 -2.0885 -0.3392 -1.5518
  828SOL    HW2 3201   0.433   2.679   2.339  0.3778 -2.8500  1.5490
  829SOL     OW 3202   0.867   2.882   5.872 -0.5695 -0.3029 -0.1764
  829SOL    HW1 3203   0.920   2.821   5.820  0.8209  0.3505  0.4456
  829SOL    HW2 3204   0.842   2.950   5.810 -0.4289 -0.4609 -0.4072
  830SOL     OW 3205   2.303   5.556   0.290 -0.0027  0.2889 -0.2273
  830SOL    HW1 3206   2.250   5.565   0.369 -0.4693 -0.1658 -0.4889
  830SOL    HW2 3207   2.247   5.587   0.219 -0.0656 -0.5908 -0.5605
  831SOL     OW 3208   5.311   1.546   1.217  0.0502 -0.1596 -0.1512
  831SOL    HW1 3209   5.375   1.477   1.210 -0.9943 -1.1203 -0.3740
  831SOL    HW2 3210   5.349   1.620   1.168  2.2240  0.2491  2.0869
  832SOL     OW 3211   5.268   2.691   6.488  0.6029 -0.3942  0.4731
  832SOL    HW1 3212   5.258   2.679   6.393  0.7348 -2.3091  0.6707
  832SOL    HW2 3213   5.183   2.724   6.517  0.1706 -0.9286 -0.1623
  833SOL     OW 3214   2.829   1.554   1.327  0.2237 -0.7493 -0.1485
  833SOL    HW1 3215   2.742   1.536   1.293  0.0901  0.4595 -0.4454
  833SOL    HW2 3216   2.888   1.530   1.255 -0.0946  2.5728 -1.5860
  834SOL     OW 3217   5.858   4.368   0.725 -0.4866  0.2210  0.0037
  834SOL    HW1 3218   5.793   4.349   0.793 -0.1024  1.0515  0.6005
  834SOL    HW2 3219   5.866   4.463   0.725 -1.0794  0.2835 -1.7561
  835SOL     OW 3220   4.497   0.241   1.737  0.0389 -0.9594 -0.1391
  835SOL    HW1 3221   4.431   0.279   1.795  0.0709  0.3209 -0.9103
  835SOL    HW2 3222   4.574   0.297   1.749  1.2920 -2.9867  1.4279
  836SOL     OW 3223   5.067   6.509   2.443  0.0335 -0.1586 -0.4505
  836SOL    HW1 3224   5.047   6.556   2.524  0.4440  0.4566 -0.7047
  836SOL    HW2 3225   5.085   6.420   2.471  2.0398  0.4723  0.3756
  837SOL     OW 3226   4.137   4.772   5.687  0.4114 -0.0946 -0.5152
  837SOL    HW1 3227   4.076   4.784   5.614 -1.9737  1.0736  1.5770
  837SOL    HW2 3228   4.190   4.851   5.687  1.8978 -1.0548 -2.2666
  838SOL     OW 3229   6.299   1.037   4.938  0.4083  0.2494 -0.6840
  838SOL    HW1 3230   6.207   1.057   4.957 -0.2121 -2.6965 -0.2987
  838SOL    HW2 3231   6.313   1.067   4.849 -0.8010  1.1946 -0.5613
  839SOL     OW 3232   2.348   2.623   5.909  0.6920  0.4689 -0.3239
  839SOL    HW1 3233   2.346   2.530   5.887 -0.7854  0.4329 -0.0867
  839SOL    HW2 3234   2.435   2.638   5.946  0.2677 -1.2137  1.3697
  840SOL     OW 3235   2.020   3.588   2.634  0.2463 -0.2799  0.7361
  840SOL    HW1 3236   2.082   3.528   2.593 -1.8268 -0.8681 -1.7218
  840SOL    HW2 3237   2.074   3.653   2.679  2.5801 -1.7073  0.0581
  841SOL     OW 3238   6.642   0.037   0.704 -0.2505  0.2989 -0.7246
  841SOL    HW1 3239   6.594  -0.034   0.661  0.4094 -1.1710  0.8720
  841SOL    HW2 3240   6.733   0.025   0.675  0.0192 -0.0864  0.2444
  842SOL     OW 3241   6.186   0.472   3.632  0.1367 -0.0855  0.1553
  842SOL    HW1 3242   6.131   0.413   3.581  0.9614 -0.7691  0.0426
  842SOL    HW2 3243   6.186   0.554   3.582  0.7316 -0.6718 -0.8127
  843SOL     OW 3244   3.303   1.070   5.177 -0.3251 -0.2089 -0.1266
  843SOL    HW1 3245   3.389   1.091   5.141 -0.4647  0.4303 -0.0911
  843SOL    HW2 3246   3.242   1.092   5.107 -0.5608  0.6102  0.3297
  844SOL     OW 3247   6.357   2.916   5.335 -0.4223 -0.6113  0.4356
  844SOL    HW1 3248   6.413   2.839   5.336 -0.3985 -0.6734 -1.9423
  844SOL    HW2 3249   6.268   2.882   5.334 -0.4434 -0.5716  0.8201
  845SOL     OW 3250   1.033   1.624   2.171  0.0585 -0.4717 -0.1363
  845SOL    HW1 3251   1.046   1.566   2.096 -2.6040  0.3913 -1.3397
  845SOL    HW2 3252   1.054   1.711   2.138 -0.7118 -0.1361  0.2534
  846SOL     OW 3253   1.568   2.576   0.072 -0.5813 -0.2814  0.3047
  846SOL    HW1 3254   1.601   2.650   0.022  0.8761 -1.2206 -0.1416
  846SOL    HW2 3255   1.512   2.616   0.139 -0.1305  1.1902 -0.1764
  847SOL     OW 3256   2.513   5.417   4.727 -0.0859 -0.2014  0.0100
  847SOL    HW1 3257   2.427   5.424   4.685  0.1144  0.6486 -0.2567
  847SOL    HW2 3258   2.493   5.393   4.817 -0.5185 -2.2880 -0.5947
  848SOL     OW 3259   0.024   5.117   0.109  0.1779 -0.0726 -0.0379
  848SOL    HW1 3260   0.052   5.048   0.169  1.0472 -1.4418 -1.9670
  848SOL    HW2 3261  -0.007   5.071   0.031 -2.0503  1.6216 -0.2036
  849SOL     OW 3262   3.565   1.953   4.193  0.7981  0.4638  0.1308
  849SOL    HW1 3263   3.565   2.001   4.276  0.1657 -1.0479  1.0155
  849SOL    HW2 3264   3.473   1.954   4.165  0.8993  0.3633 -0.2083
  850SOL     OW 3265   5.808   6.735   3.147  0.1157  0.0508  0.0796
  850SOL    HW1 3266   5.879   6.800   3.151 -0.0447  0.2863 -0.7833
  850SOL    HW2 3267   5.849   6.657   3.110 -0.3677  0.6284 -1.7718
  851SOL     OW 3268   2.179   4.393   0.621 -0.1820  0.2463 -0.0053
  851SOL    HW1 3269   2.087   4.410   0.600 -0.7770 -2.7930 -0.1038
  851SOL    HW2 3270   2.223   4.386   0.536 -0.2087  0.0209 -0.0021
  852SOL     OW 3271   4.921   6.577   4.775 -0.3645 -0.0977  0.0151
  852SOL    HW1 3272   4.983   6.597   4.705 -1.0741  0.8680 -0.3552
  852SOL    HW2 3273   4.949   6.492   4.809  0.8701  0.1130 -0.4533
  853SOL     OW 3274   5.131   5.876   3.272 -0.4416  0.2030 -0.0228
  853SOL    HW1 3275   5.165   5.791   3.301 -2.2486 -0.8141 -0.7978
  853SOL    HW2 3276   5.158   5.883   3.181 -0.3167  0.4600  0.0333
  854SOL     OW 3277   2.421   1.633   6.153  0.3972 -0.1446  0.3715
  854SOL    HW1 3278   2.483   1.567   6.123  1.0983  0.7353 -0.1230
  854SOL    HW2 3279   2.415   1.695   6.080 -2.0339 -0.8953 -0.1149
  855SOL     OW 3280   6.368   2.906   0.600 -0.3262  0.0019  0.1081
  855SOL    HW1 3281   6.397   2.824   0.560 -0.5528 -0.6204  1.1953
  855SOL    HW2 3282   6.412   2.908   0.685 -2.2201 -0.2240  1.1447
  856SOL     OW 3283   0.125   1.280   3.875 -0.0663 -0.1402 -0.1658
  856SOL    HW1 3284   0.162   1.346   3.816 -0.6734  1.4255  1.1587
  856SOL    HW2 3285   0.180   1.283   3.953 -1.1860  0.1436  0.6385
  857SOL     OW 3286   2.361   1.076   0.503 -0.8409 -0.1716  0.5046
  857SOL    HW1 3287   2.449   1.037   0.495 -0.4857  0.9445 -1.1854
  857SOL    HW2 3288   2.303   1.000   0.516  0.0267 -1.1669 -1.2169
  858SOL     OW 3289   0.418   6.610   0.934 -0.0895 -0.0589  0.0775
  858SOL    HW1 3290   0.428   6.517   0.952  2.4346  0.1874  0.1545
  858SOL    HW2 3291   0.372   6.615   0.851 -0.4640 -1.3690  0.2051
  859SOL     OW 3292   1.395   1.339   0.993 -0.4312  0.5159 -0.1467
  859SOL    HW1 3293   1.333   1.401   1.032  0.2671  1.1260 -0.0135
  859SOL    HW2 3294   1.402   1.269   1.058 -1.9259 -0.1778 -0.6912
  860SOL     OW 3295   2.049   1.800   5.964  0.0236 -0.2262 -0.4778
  860SOL    HW1 3296   2.032   1.880   5.915  0.2882  0.7192  0.9688
  860SOL    HW2 3297   2.142   1.782   5.948  0.3465  0.5978  0.4085
  861SOL     OW 3298   0.454   5.591   1.849  0.4774  0.3979  0.7733
  861SOL    HW1 3299   0.374   5.632   1.818  0.3500 -0.6146 -0.3141
  861SOL    HW2 3300   0.425   5.521   1.908  0.5605  0.1694  0.5473
  862SOL     OW 3301   6.275   3.737   0.853 -0.0586 -0.1670 -0.0333
  862SOL    HW1 3302   6.209   3.668   0.858 -1.0917  0.8500  0.8439
  862SOL    HW2 3303   6.226   3.818   0.870  1.1922  0.7417 -0.6647
  863SOL     OW 3304   1.900   3.746   2.182 -0.2902 -0.4278  0.0593
  863SOL    HW1 3305   1.844   3.669   2.182  0.5748 -1.1063  2.2943
  863SOL    HW2 3306   1.845   3.815   2.219  0.1398 -0.9696  1.7749
  864SOL     OW 3307   0.803   2.443   4.970  0.0545  0.4970  0.0006
  864SOL    HW1 3308   0.753   2.423   4.891  1.1856 -0.9864 -0.3744
  864SOL    HW2 3309   0.868   2.507   4.941  1.0121 -0.6796 -0.4842
  865SOL     OW 3310   2.518   6.482   1.093 -0.1519  0.1638  0.2682
  865SOL    HW1 3311   2.568   6.428   1.031 -1.1676  0.2777 -0.6717
  865SOL    HW2 3312   2.551   6.571   1.080 -1.1033  0.3654 -0.9061
  866SOL     OW 3313   1.468   2.848   5.815 -0.3095  0.0593 -0.2274
  866SOL    HW1 3314   1.454   2.757   5.790  2.2941 -0.2429 -0.7489
  866SOL    HW2 3315   1.430   2.855   5.903 -2.6640 -0.8868 -1.1510
  867SOL     OW 3316   0.245   5.210   5.310 -0.0341  0.2768  0.1798
  867SOL    HW1 3317   0.281   5.297   5.292  0.5780  0.2855  1.3771
  867SOL    HW2 3318   0.211   5.217   5.399 -1.7974 -0.1323 -0.4444
  868SOL     OW 3319   2.990   2.473   5.194  0.2019  0.8653  0.6723
  868SOL    HW1 3320   2.918   2.431   5.148  0.9556  0.6421 -0.3074
  868SOL    HW2 3321   2.950   2.508   5.274 -1.4156  2.5638 -0.8340
  869SOL     OW 3322   6.240   3.550   3.440  0.0246 -0.1846 -0.2142
  869SOL    HW1 3323   6.278   3.489   3.504  2.9548 -0.1592 -1.8358
  869SOL    HW2 3324   6.267   3.514   3.355  0.9769  2.8416 -1.2354
  870SOL     OW 3325   5.355   0.783   6.189  0.1760  0.4087  0.5361
  870SOL    HW1 3326   5.436   0.833   6.178  1.2378 -0.6607  2.9351
  870SOL    HW2 3327   5.294   0.845   6.228  0.7336  0.4958  1.2862
  871SOL     OW 3328   1.059   1.568   6.717 -0.4780  0.3892  0.5222
  871SOL    HW1 3329   1.127   1.513   6.678 -0.7803  0.6495 -0.3764
  871SOL    HW2 3330   1.043   1.528   6.803 -0.9902 -1.1812 -0.2839
  872SOL     OW 3331   5.242   1.286   4.471  0.7985  0.1716 -0.1067
  872SOL    HW1 3332   5.314   1.318   4.417 -0.1422  1.7771 -0.4473
  872SOL    HW2 3333   5.205   1.364   4.511 -1.8624 -0.4192 -1.3238
  873SOL     OW 3334   3.291   5.587   4.950  0.3386 -0.3473  0.0162
  873SOL    HW1 3335   3.318   5.673   4.919 -2.1014  1.4826  2.7934
  873SOL    HW2 3336   3.269   5.539   4.871  0.1001  2.1350 -1.4628
  874SOL     OW 3337   5.449   3.296   4.399  0.1130 -0.0306 -0.3356
  874SOL    HW1 3338   5.429   3.380   4.357  0.9727  0.0937 -0.5101
  874SOL    HW2 3339   5.541   3.303   4.424  0.2217 -0.9575 -0.4482
  875SOL     OW 3340   0.599   5.241   3.891  0.3375 -0.2309  0.1794
  875SOL    HW1 3341   0.645   5.320   3.921 -0.0758  0.0288  0.1369
  875SOL    HW2 3342   0.626   5.173   3.952  2.0292 -0.4481 -0.7987
  876SOL     OW 3343   5.260   0.268   1.617  0.7952 -0.0666 -0.3576
  876SOL    HW1 3344   5.186   0.292   1.672 -0.7316 -0.7150 -2.0427
  876SOL    HW2 3345   5.307   0.349   1.602 -0.2102  0.5688 -0.1295
  877SOL     OW 3346   4.367   3.316   3.543 -0.4452  0.6015 -0.2767
  877SOL    HW1 3347   4.340   3.261   3.470 -1.3359  0.5880  0.0554
  877SOL    HW2 3348   4.446   3.361   3.512 -1.1352  1.0253 -1.4559
  878SOL     OW 3349   1.987   6.124   0.612 -0.3390  0.6811  0.6578
  878SOL    HW1 3350   2.066   6.171   0.639 -1.9052  2.8521  1.5237
  878SOL    HW2 3351   2.000   6.035   0.644  1.8387  0.9699  0.6376
  879SOL     OW 3352   0.722   1.177   2.398  0.2774  0.8340  0.3173
  879SOL    HW1 3353   0.667   1.161   2.322 -1.1994 -0.9712  1.7062
  879SOL    HW2 3354   0.689   1.259   2.435  1.3389  1.9838 -1.2516
  880SOL     OW 3355   3.500   3.842   6.615 -0.0765  0.4165 -0.4438
  880SOL    HW1 3356   3.448   3.763   6.634 -0.7880  0.6640 -1.2732
  880SOL    HW2 3357   3.467   3.871   6.530 -0.6963  2.3271  0.4202
  881SOL     OW 3358   6.447   0.274   4.180 -0.3942 -0.1397  0.2686
  881SOL    HW1 3359   6.517   0.225   4.138 -0.1307 -0.5374  1.1502
  881SOL    HW2 3360   6.372   0.215   4.178 -0.7395  0.3171 -0.7479
  882SOL     OW 3361   1.150   2.910   3.001 -0.2258 -0.5949  0.0977
  882SOL    HW1 3362   1.129   2.898   3.093  0.5538  1.8061  0.6052
  882SOL    HW2 3363   1.084   2.859   2.954 -1.3418 -0.8513  1.9263
  883SOL     OW 3364   0.981   1.110   3.565  1.0829 -0.1396 -0.7325
  883SOL    HW1 3365   0.914   1.058   3.610  0.6034  0.5484 -0.6338
  883SOL    HW2 3366   0.931   1.167   3.506  1.5478  0.7110 -0.3206
  884SOL     OW 3367   4.492   6.097   1.934 -0.4496 -0.1937 -0.1665
  884SOL    HW1 3368   4.499   6.072   2.027  0.3013 -0.8791 -0.4049
  884SOL    HW2 3369   4.411   6.055   1.905 -0.6779  0.0073  0.1693
  885SOL     OW 3370   5.795   3.981   6.328 -0.3759 -0.5325 -0.8886
  885SOL    HW1 3371   5.815   4.005   6.238  1.3425 -1.5053 -0.7757
  885SOL    HW2 3372   5.880   3.974   6.371 -1.1981  0.7775  1.0523
  886SOL     OW 3373   2.999   0.548   3.317  0.1124  0.1946 -0.3039
  886SOL    HW1 3374   2.912   0.511   3.303 -0.1253 -0.1602  1.8945
  886SOL    HW2 3375   3.058   0.487   3.273 -0.8416  1.3238 -3.2433
  887SOL     OW 3376   5.839   3.717   0.764  0.6292  0.2988  0.4061
  887SOL    HW1 3377   5.883   3.740   0.683  2.0376  2.0045  1.6077
  887SOL    HW2 3378   5.825   3.801   0.808  1.6851 -0.7195  2.8063
  888SOL     OW 3379   1.934   4.730   5.756  0.1921 -0.4361  0.3697
  888SOL    HW1 3380   1.974   4.768   5.678  0.1314  0.2070  0.6541
  888SOL    HW2 3381   1.840   4.735   5.740  0.1933 -0.9358  0.1870
  889SOL     OW 3382   4.296   0.882   3.199  0.3821 -0.4854  0.8113
  889SOL    HW1 3383   4.232   0.811   3.196  1.0037 -1.0288  0.0854
  889SOL    HW2 3384   4.312   0.904   3.108  0.4839  0.3254  1.0242
  890SOL     OW 3385   1.219   4.396   6.194  0.0597  0.3738  0.1203
  890SOL    HW1 3386   1.146   4.339   6.167  0.8583 -0.2132 -0.8671
  890SOL    HW2 3387   1.191   4.433   6.277 -2.9345  2.9533 -1.8920
  891SOL     OW 3388   0.916   5.500   6.014  0.2154  0.0887 -0.1049
  891SOL    HW1 3389   0.827   5.514   6.046  0.1458 -1.2649  0.3020
  891SOL    HW2 3390   0.962   5.458   6.086  0.7939 -0.5301 -0.8230
  892SOL     OW 3391   6.514   2.703   0.274  0.6656 -0.4573  0.0307
  892SOL    HW1 3392   6.575   2.740   0.211  0.4147  2.1414  1.2412
  892SOL    HW2 3393   6.427   2.729   0.243  0.4284 -0.7564  0.4258
  893SOL     OW 3394   5.365   6.500   4.694 -0.0234  0.2061  0.5383
  893SOL    HW1 3395   5.444   6.449   4.708  0.4876  0.9043  0.1819
  893SOL    HW2 3396   5.294   6.438   4.712  0.5802 -1.0021 -1.1466
  894SOL     OW 3397   2.333   0.661   0.771 -0.4960  0.0533 -0.1223
  894SOL    HW1 3398   2.322   0.567   0.784 -1.8786 -0.0211 -1.6323
  894SOL    HW2 3399   2.388   0.689   0.844 -2.5371 -1.4080  2.0540
  895SOL     OW 3400   1.394   0.869   5.230 -0.6068 -0.0752  0.8185
  895SOL    HW1 3401   1.399   0.775   5.245  1.1952 -0.4282 -1.7307
  895SOL    HW2 3402   1.312   0.881   5.182 -0.1937 -0.5231 -0.0073
  896SOL     OW 3403   6.362   3.410   3.634 -0.3422 -0.2980  0.0571
  896SOL    HW1 3404   6.395   3.466   3.705 -0.6270  0.7307 -0.6045
  896SOL    HW2 3405   6.408   3.327   3.645  0.9649  0.4515  0.3689
  897SOL     OW 3406   1.106   1.344   4.930 -0.4776 -0.0851 -0.1911
  897SOL    HW1 3407   1.182   1.362   4.874 -0.9148 -0.3579 -0.8853
  897SOL    HW2 3408   1.058   1.275   4.884 -0.5871 -0.6616  0.7748
  898SOL     OW 3409   3.570   5.070   0.355  0.6554 -0.1509 -0.2049
  898SOL    HW1 3410   3.567   5.058   0.450  0.1140  2.4145  0.1476
  898SOL    HW2 3411   3.485   5.039   0.324  0.5060 -0.2037  0.2577
  899SOL     OW 3412   3.324   2.155   3.553 -0.4865  0.1817  0.4806
  899SOL    HW1 3413   3.374   2.119   3.480  0.5320 -0.2647  1.3896
  899SOL    HW2 3414   3.349   2.101   3.628 -2.7549 -0.4143  0.8335
  900SOL     OW 3415   2.888   0.886   1.169 -0.2886  0.0690 -0.1796
  900SOL    HW1 3416   2.968   0.938   1.177 -1.5509  2.1729 -0.8186
  900SOL    HW2 3417   2.855   0.877   1.258 -0.0965  0.4071 -0.0748
  901SOL     OW 3418   1.381   5.774   3.846  0.3412 -0.0586 -0.6418
  901SOL    HW1 3419   1.453   5.797   3.905  1.1965  1.3806 -2.1897
  901SOL    HW2 3420   1.416   5.705   3.791 -0.3262 -1.1304  0.2707
  902SOL     OW 3421   6.097   2.376   0.877  0.0991 -0.4217 -0.4101
  902SOL    HW1 3422   6.037   2.449   0.863  1.1344  0.5634  0.2742
  902SOL    HW2 3423   6.173   2.396   0.823  1.6998  0.5777  2.1274
  903SOL     OW 3424   2.452   0.965   4.410  0.4423  0.1101 -0.1304
  903SOL    HW1 3425   2.393   1.025   4.455  0.3917 -1.2183  1.6171
  903SOL    HW2 3426   2.394   0.897   4.374  0.5899  0.5963 -1.3189
  904SOL     OW 3427   5.074   5.400   1.739 -0.0590 -0.1955 -0.3488
  904SOL    HW1 3428   5.110   5.423   1.653 -0.8979 -1.4578 -1.0451
  904SOL    HW2 3429   4.981   5.384   1.723 -0.0307 -1.3487  0.6304
  905SOL     OW 3430   4.068   5.710   4.644 -0.5669  0.2303 -0.2784
  905SOL    HW1 3431   3.990   5.763   4.631 -0.7677 -0.2607 -1.1626
  905SOL    HW2 3432   4.047   5.626   4.603  0.5040  0.1814 -0.7551
  906SOL     OW 3433   3.175   5.548   2.861 -0.6704  0.1971  0.5385
  906SOL    HW1 3434   3.170   5.630   2.811 -1.6419 -0.3794 -0.3232
  906SOL    HW2 3435   3.245   5.498   2.820 -1.1664 -0.0847  0.0278
  907SOL     OW 3436   3.310   4.825   2.242 -0.5255  0.0866  0.2545
  907SOL    HW1 3437   3.296   4.738   2.205  0.3591  0.0632 -0.0294
  907SOL    HW2 3438   3.232   4.841   2.295 -1.1693 -0.4552 -0.5077
  908SOL     OW 3439   6.216   2.465   1.158  0.1145 -0.6385 -0.8402
  908SOL    HW1 3440   6.135   2.507   1.188 -0.6800 -2.2561 -0.6952
  908SOL    HW2 3441   6.191   2.418   1.079  0.7852 -1.6574 -0.4493
  909SOL     OW 3442   4.333   4.951   6.260 -0.3362  0.3885 -0.4563
  909SOL    HW1 3443   4.339   4.875   6.203 -2.7530 -0.3969  0.2501
  909SOL    HW2 3444   4.287   5.017   6.208 -0.9354  0.2927 -0.0642
  910SOL     OW 3445   0.772   3.067   5.345  0.5593  0.3889  0.0700
  910SOL    HW1 3446   0.856   3.103   5.318  0.4156 -0.3557 -1.4512
  910SOL    HW2 3447   0.794   2.984   5.387  0.6916  0.9340  1.0846
  911SOL     OW 3448   0.284   3.618   1.783  0.4570 -0.1511 -0.5572
  911SOL    HW1 3449   0.222   3.545   1.785  2.6753 -2.1384 -1.6643
  911SOL    HW2 3450   0.310   3.631   1.874 -0.7206 -0.0712 -0.2350
  912SOL     OW 3451   6.729   1.106   6.335 -0.1571  0.0536 -0.2927
  912SOL    HW1 3452   6.726   1.071   6.246 -1.0796 -0.7117  0.0286
  912SOL    HW2 3453   6.763   1.195   6.325  1.0580 -0.5051 -1.2592
  913SOL     OW 3454   0.042   0.211   3.596 -0.3176  0.3856 -0.5800
  913SOL    HW1 3455  -0.006   0.285   3.559  0.3111  1.5680  0.9492
  913SOL    HW2 3456   0.086   0.172   3.521 -3.0201 -0.2676 -1.8931
  914SOL     OW 3457   0.178   4.270   1.190 -0.0546  0.2095 -0.0183
  914SOL    HW1 3458   0.226   4.280   1.107 -0.7153  1.1774 -0.2853
  914SOL    HW2 3459   0.092   4.307   1.173 -0.9542 -1.6385  0.4298
  915SOL     OW 3460   4.303   0.288   0.583 -0.3917  0.0695  0.1929
  915SOL    HW1 3461   4.316   0.291   0.488 -0.5988 -0.1436  0.1558
  915SOL    HW2 3462   4.213   0.257   0.593 -0.5379  0.5862  0.4535
  916SOL     OW 3463   4.445   2.692   0.229  0.3668  0.4870  0.1291
  916SOL    HW1 3464   4.441   2.746   0.307 -0.5405 -0.7324  0.9453
  916SOL    HW2 3465   4.522   2.724   0.181 -0.0960  2.4047  0.6308
  917SOL     OW 3466   1.007   5.675   4.651  0.7530 -0.9827 -0.4964
  917SOL    HW1 3467   0.993   5.583   4.672 -0.9264 -0.7094 -0.3133
  917SOL    HW2 3468   0.987   5.722   4.732  1.3677 -0.4406 -0.6507
  918SOL     OW 3469   6.645   0.741   1.413 -0.1058 -0.1660 -0.4972
  918SOL    HW1 3470   6.569   0.682   1.415 -0.9239  0.8898  0.7553
  918SOL    HW2 3471   6.711   0.696   1.465 -0.3082 -0.5334 -0.5549
  919SOL     OW 3472   2.148   1.214   3.786  0.1315  0.2372 -0.1052
  919SOL    HW1 3473   2.210   1.267   3.736 -0.2675  1.5519  0.7438
  919SOL    HW2 3474   2.136   1.135   3.734  1.4748  0.5677 -0.9394
  920SOL     OW 3475   6.625   0.887   6.437  0.3930  0.6900  0.4368
  920SOL    HW1 3476   6.672   0.959   6.395  1.4038 -1.8031 -2.9251
  920SOL    HW2 3477   6.540   0.924   6.461  1.7456  3.6099  0.9694
  921SOL     OW 3478   4.228   4.116   3.339  0.4485 -0.1992 -0.3742
  921SOL    HW1 3479   4.225   4.145   3.248 -0.3354  0.6758 -0.0660
  921SOL    HW2 3480   4.320   4.094   3.353  0.7166  0.3868 -1.1517
  922SOL     OW 3481   4.487   5.792   4.332  0.0794  0.3934  0.1724
  922SOL    HW1 3482   4.438   5.724   4.286 -0.3042  1.2109 -0.6372
  922SOL    HW2 3483   4.441   5.803   4.415 -0.1758  0.0513  0.0752
  923SOL     OW 3484   0.641   4.312   3.698 -0.0271  0.1297 -0.1684
  923SOL    HW1 3485   0.731   4.342   3.692  0.0761 -0.2948 -0.9431
  923SOL    HW2 3486   0.643   4.225   3.656 -0.9531  0.4818 -0.9475
  924SOL     OW 3487   4.267   2.506   5.384  0.2892 -0.7160  0.5815
  924SOL    HW1 3488   4.356   2.541   5.395  0.1824 -0.0546 -0.6427
  924SOL    HW2 3489   4.279   2.411   5.384  0.9013 -0.6467  1.2109
  925SOL     OW 3490   1.220   2.451   6.586 -0.3632 -0.1314  0.1969
  925SOL    HW1 3491   1.129   2.443   6.559  0.1457 -0.0156 -1.5692
  925SOL    HW2 3492   1.221   2.418   6.676 -2.3038  0.6933  0.5477
  926SOL     OW 3493   4.510   4.786   1.423  0.1369 -0.7555 -0.5765
  926SOL    HW1 3494   4.415   4.784   1.433  0.0699 -0.6707 -1.2270
  926SOL    HW2 3495   4.534   4.876   1.444 -0.0331 -0.5142 -1.4022
  927SOL     OW 3496   4.535   6.671   4.226  0.6511 -0.1267  0.1694
  927SOL    HW1 3497   4.604   6.703   4.285 -1.1092  2.4969  0.8834
  927SOL    HW2 3498   4.561   6.702   4.140  2.1800 -2.2509 -0.1971
  928SOL     OW 3499   0.553   1.609   4.846 -0.6680  0.6496  0.0568
  928SOL    HW1 3500   0.493   1.537   4.866 -0.9015  0.9405  0.4022
  928SOL    HW2 3501   0.496   1.684   4.830 -0.4692  0.5549 -1.2068
  929SOL     OW 3502   3.345   3.682   3.853 -0.5906  0.1710 -0.4010
  929SOL    HW1 3503   3.344   3.692   3.758 -0.1846 -1.7291 -0.6186
  929SOL    HW2 3504   3.433   3.651   3.873 -0.5774  0.8502  0.6431
  930SOL     OW 3505   4.658   4.830   2.328  0.7429  0.0524 -0.6869
  930SOL    HW1 3506   4.685   4.749   2.283 -1.8317 -2.0427  1.3918
  930SOL    HW2 3507   4.564   4.822   2.337  0.7348  2.2715  1.6169
  931SOL     OW 3508   1.479   1.308   0.733 -0.1138 -0.1742  0.1598
  931SOL    HW1 3509   1.472   1.213   0.725  2.7998 -0.6352  2.5223
  931SOL    HW2 3510   1.447   1.328   0.821  0.2754  0.9239  0.0681
  932SOL     OW 3511   1.153   0.792   5.166  0.4024  0.5285 -0.5178
  932SOL    HW1 3512   1.207   0.714   5.157 -1.1837 -0.6492  0.0146
  932SOL    HW2 3513   1.099   0.793   5.086 -1.2555 -0.2514  0.5650
  933SOL     OW 3514   3.453   1.968   6.029  0.2172  0.0033  0.1404
  933SOL    HW1 3515   3.509   1.891   6.029 -0.9548 -0.8912 -1.4446
  933SOL    HW2 3516   3.493   2.027   6.093  1.6698 -1.5150  0.6810
  934SOL     OW 3517   3.864   1.831   4.332 -0.3022  0.4995  0.1324
  934SOL    HW1 3518   3.901   1.881   4.404  0.9423  1.2876 -1.0259
  934SOL    HW2 3519   3.833   1.898   4.270 -2.5026 -0.1464  0.4825
  935SOL     OW 3520   3.798   2.856   0.439 -0.0225 -0.1974  0.2938
  935SOL    HW1 3521   3.872   2.828   0.384  0.6177 -1.4091  1.7585
  935SOL    HW2 3522   3.763   2.776   0.476 -0.1565  0.6480  2.0464
  936SOL     OW 3523   1.124   0.517   4.456 -0.0939  0.1513  0.5354
  936SOL    HW1 3524   1.166   0.591   4.414  0.4113 -0.6483 -0.4015
  936SOL    HW2 3525   1.048   0.498   4.402  0.4733 -0.7864  0.0435
  937SOL     OW 3526   1.635   0.168   0.897 -0.1007  0.0900 -0.4208
  937SOL    HW1 3527   1.554   0.193   0.853 -0.5548 -0.4741  0.0787
  937SOL    HW2 3528   1.620   0.078   0.925 -0.0245  0.6017  1.3273
  938SOL     OW 3529   3.370   5.146   2.663 -0.5300  0.0756  0.1422
  938SOL    HW1 3530   3.402   5.131   2.574 -0.6809  0.2554  0.0593
  938SOL    HW2 3531   3.278   5.119   2.661 -0.1487 -1.3095  0.6110
  939SOL     OW 3532   0.457   0.567   1.541  0.2756  0.3010  0.5625
  939SOL    HW1 3533   0.438   0.543   1.631  1.5332  0.5227  0.9016
  939SOL    HW2 3534   0.492   0.487   1.502 -0.1309  0.2458  0.3043
  940SOL     OW 3535   1.514   1.063   3.204 -0.7241 -0.2122  0.3795
  940SOL    HW1 3536   1.464   0.988   3.171 -0.4407 -0.7452  1.1457
  940SOL    HW2 3537   1.449   1.132   3.217 -0.9549 -0.2455 -0.5482
  941SOL     OW 3538   0.668   2.665   4.145 -0.2923  0.8510  0.3163
  941SOL    HW1 3539   0.733   2.687   4.079 -1.2577  2.0176 -0.2734
  941SOL    HW2 3540   0.659   2.570   4.139  0.4794  0.8145 -0.4089
  942SOL     OW 3541   0.099   2.717   5.117  0.5275 -0.0999 -0.4564
  942SOL    HW1 3542   0.083   2.689   5.207  3.6464  2.4701  1.0001
  942SOL    HW2 3543   0.028   2.779   5.098  0.1290 -0.3034  0.3775
  943SOL     OW 3544   3.457   5.175   0.983  0.3582  0.6116  0.0314
  943SOL    HW1 3545   3.535   5.121   0.972  0.3734  0.4502  0.9008
  943SOL    HW2 3546   3.434   5.202   0.894  0.4698 -0.6579 -0.4028
  944SOL     OW 3547   0.420   4.947   3.633 -0.0563  0.1057  0.1164
  944SOL    HW1 3548   0.452   4.958   3.544 -1.0407  3.9132  0.1163
  944SOL    HW2 3549   0.327   4.925   3.623 -0.1876  0.6169  0.1518
  945SOL     OW 3550   0.731   4.335   6.053 -0.3440  0.5449 -0.0044
  945SOL    HW1 3551   0.676   4.410   6.030 -2.3005 -0.8724 -0.1170
  945SOL    HW2 3552   0.691   4.261   6.007  2.1927 -0.3848 -0.7628
  946SOL     OW 3553   0.144   1.255   5.582  0.6476 -0.0156 -0.2908
  946SOL    HW1 3554   0.070   1.220   5.532 -0.0296  1.8819 -0.6546
  946SOL    HW2 3555   0.136   1.215   5.668 -1.3328  0.8239 -0.0570
  947SOL     OW 3556   5.622   0.502   1.103  0.2434 -0.1151  0.0541
  947SOL    HW1 3557   5.716   0.507   1.090  0.2823 -1.6187 -0.2796
  947SOL    HW2 3558   5.610   0.461   1.188 -0.1159 -1.2737 -0.5486
  948SOL     OW 3559   5.195   0.480   0.759 -0.1998  0.3971 -0.5839
  948SOL    HW1 3560   5.232   0.406   0.709  1.1113  0.1752  0.6937
  948SOL    HW2 3561   5.207   0.455   0.850 -3.9985  0.0891 -0.0713
  949SOL     OW 3562   4.044   5.500   0.652  0.1268 -0.5594  0.4475
  949SOL    HW1 3563   4.139   5.494   0.648  0.2126  0.6483  0.5305
  949SOL    HW2 3564   4.013   5.416   0.617  1.2132 -0.8348  0.1366
  950SOL     OW 3565   6.376   6.713   0.979  0.2028 -0.3269  0.2707
  950SOL    HW1 3566   6.323   6.776   0.930  3.4788  0.7541 -2.1100
  950SOL    HW2 3567   6.325   6.632   0.977 -0.9726  0.4195 -2.7152
  951SOL     OW 3568   0.560   6.270   3.890  0.4901  0.0120 -0.1898
  951SOL    HW1 3569   0.564   6.365   3.889  1.0759  0.0026  1.1219
  951SOL    HW2 3570   0.566   6.245   3.798 -0.0819  1.2494 -0.5770
  952SOL     OW 3571   4.630   2.203   3.170 -0.0763 -0.4543  0.8040
  952SOL    HW1 3572   4.704   2.254   3.202 -0.4676  0.2208  0.6399
  952SOL    HW2 3573   4.580   2.180   3.248  0.8922 -1.8475  1.0297
  953SOL     OW 3574   4.826   1.391   5.944  0.3462 -0.1951 -0.2215
  953SOL    HW1 3575   4.889   1.340   5.995 -0.0808  0.6310  1.1301
  953SOL    HW2 3576   4.868   1.476   5.932 -1.3372  1.0358  2.3935
  954SOL     OW 3577   4.542   2.493   0.880  0.5085  0.0598  0.4973
  954SOL    HW1 3578   4.566   2.501   0.787  2.1818 -0.2367  0.8895
  954SOL    HW2 3579   4.566   2.578   0.918  1.5861 -0.4683  1.0250
  955SOL     OW 3580   1.804   4.974   2.053 -0.2103  0.5767 -0.0254
  955SOL    HW1 3581   1.893   4.950   2.027 -0.9147 -1.6605 -0.4671
  955SOL    HW2 3582   1.782   4.912   2.122 -1.6854  0.6951 -0.3863
  956SOL     OW 3583   3.403   2.601   1.406 -0.4270 -0.0318 -0.2059
  956SOL    HW1 3584   3.487   2.584   1.448  0.0020  1.2965 -0.5014
  956SOL    HW2 3585   3.404   2.549   1.326  0.5802  0.8189 -0.7602
  957SOL     OW 3586   5.628   0.019   0.124 -0.0363 -0.2514 -0.1914
  957SOL    HW1 3587   5.664   0.031   0.036 -2.0375 -0.2757 -1.0485
  957SOL    HW2 3588   5.641   0.104   0.166  1.1209 -0.2992 -0.4391
  958SOL     OW 3589   1.396   1.244   4.390  0.5690  0.2527  0.1870
  958SOL    HW1 3590   1.406   1.309   4.460  0.4531 -0.0872  0.5171
  958SOL    HW2 3591   1.303   1.246   4.368  0.3050 -0.8122  1.1715
  959SOL     OW 3592   1.838   5.893   2.898 -0.3584  0.1148  0.1217
  959SOL    HW1 3593   1.744   5.902   2.885 -0.3862  0.0109  0.2548
  959SOL    HW2 3594   1.864   5.974   2.941 -0.2337  0.5510 -0.7559
  960SOL     OW 3595   2.937   0.867   4.613  0.1315  0.1957 -0.0567
  960SOL    HW1 3596   2.930   0.963   4.614  0.5028  0.2265 -0.5361
  960SOL    HW2 3597   2.940   0.843   4.705 -0.0837  0.6358  0.0707
  961SOL     OW 3598   5.379   6.424   1.777  0.3781  0.2528  0.0119
  961SOL    HW1 3599   5.396   6.344   1.726 -1.0138 -0.6043  0.8808
  961SOL    HW2 3600   5.284   6.429   1.783  0.5107  0.7266  1.9466
  962SOL     OW 3601   2.827   2.771   5.335  0.5700  0.0501 -0.1927
  962SOL    HW1 3602   2.858   2.684   5.359  1.8259  0.6567  0.4565
  962SOL    HW2 3603   2.821   2.818   5.418  0.0028  0.6172 -0.5513
  963SOL     OW 3604   0.524   6.113   4.361 -0.3548  0.1725  0.2138
  963SOL    HW1 3605   0.512   6.085   4.270 -2.1078  0.2843  0.3888
  963SOL    HW2 3606   0.516   6.209   4.357  0.8164  0.2844  0.3184
  964SOL     OW 3607   4.528   1.750   2.100 -0.3482  0.2462 -0.7775
  964SOL    HW1 3608   4.560   1.690   2.032  0.7311 -0.8196  0.6427
  964SOL    HW2 3609   4.607   1.796   2.130 -1.1011  2.0955 -1.5489
  965SOL     OW 3610   0.497   1.235   1.516  0.1049  0.0344 -0.6840
  965SOL    HW1 3611   0.557   1.187   1.573 -0.2893  1.9469  1.4038
  965SOL    HW2 3612   0.552   1.267   1.445  1.3894  0.7900  0.6009
  966SOL     OW 3613   3.412   4.352   0.313 -0.3806 -0.0228  0.2547
  966SOL    HW1 3614   3.412   4.322   0.404  3.2240 -0.6928  0.1256
  966SOL    HW2 3615   3.387   4.444   0.318 -0.9502 -0.2576  1.8300
  967SOL     OW 3616   0.508   5.650   4.546 -0.3055 -1.1685 -0.0304
  967SOL    HW1 3617   0.579   5.699   4.586  0.0184 -0.3196 -1.6055
  967SOL    HW2 3618   0.552   5.582   4.494 -0.6812 -1.2483 -0.2459
  968SOL     OW 3619   1.306   3.339   2.055 -0.4776 -0.1668  0.2233
  968SOL    HW1 3620   1.307   3.362   2.148  0.9404 -0.1668  0.2220
  968SOL    HW2 3621   1.271   3.250   2.053 -1.9578  0.3943  0.6122
  969SOL     OW 3622   5.534   3.623   4.494  0.2671 -0.0881  0.1307
  969SOL    HW1 3623   5.520   3.697   4.553 -0.1301  0.6459 -0.8698
  969SOL    HW2 3624   5.611   3.648   4.443 -0.8048  0.3433 -1.2981
  970SOL     OW 3625   4.297   5.801   2.453 -0.2456 -0.7742 -0.2715
  970SOL    HW1 3626   4.269   5.885   2.489  0.7597  0.0025 -1.2997
  970SOL    HW2 3627   4.217   5.748   2.453 -0.8646  0.1368  0.4781
  971SOL     OW 3628   2.992   2.647   6.061 -0.5754  0.0225 -0.3682
  971SOL    HW1 3629   2.937   2.643   6.139  1.5783 -0.3473  1.1823
  971SOL    HW2 3630   3.034   2.733   6.065 -1.5777  0.5906 -1.9176
  972SOL     OW 3631   1.151   2.476   3.737  0.2332 -0.7297 -0.4187
  972SOL    HW1 3632   1.219   2.515   3.682  0.7994 -0.8421  0.1890
  972SOL    HW2 3633   1.073   2.528   3.719  0.8740  0.4179  0.0476
  973SOL     OW 3634   4.134   0.002   4.677  0.0853 -0.2389  0.5205
  973SOL    HW1 3635   4.187  -0.024   4.752 -0.4795 -0.3316  0.8932
  973SOL    HW2 3636   4.052  -0.046   4.688  0.8223 -1.9872 -1.3571
  974SOL     OW 3637   5.215   0.733   1.820 -0.3481  0.1921 -0.0036
  974SOL    HW1 3638   5.218   0.827   1.837  1.6697  0.1935 -0.1961
  974SOL    HW2 3639   5.274   0.695   1.886 -0.4173 -0.8309 -0.5206
  975SOL     OW 3640   2.589   2.799   3.295 -0.2641 -0.6786  0.3042
  975SOL    HW1 3641   2.603   2.800   3.390  0.6239 -2.5035  0.2072
  975SOL    HW2 3642   2.530   2.726   3.280  0.4637 -1.0756 -0.6762
  976SOL     OW 3643   5.651   6.002   2.935  0.1472 -0.0807 -0.3322
  976SOL    HW1 3644   5.710   5.997   2.859  0.9449  1.8957  0.1226
  976SOL    HW2 3645   5.580   6.059   2.906  0.5757  0.8783  0.4474
  977SOL     OW 3646   0.139   0.091   3.809 -0.4078 -0.0763  0.3420
  977SOL    HW1 3647   0.193   0.168   3.828 -1.0817  0.1097  1.5567
  977SOL    HW2 3648   0.080   0.120   3.740  0.3276  0.0501 -0.2342
  978SOL     OW 3649   1.575   2.581   6.326 -0.6369 -0.7222 -0.5440
  978SOL    HW1 3650   1.539   2.643   6.390 -0.9862  0.1197 -1.5364
  978SOL    HW2 3651   1.516   2.506   6.329 -0.1041 -1.1027  0.8063
  979SOL     OW 3652   5.478   5.236   3.099  0.2479  0.9084 -0.2562
  979SOL    HW1 3653   5.397   5.280   3.123 -0.4437 -0.2562 -0.4376
  979SOL    HW2 3654   5.498   5.270   3.012 -1.2220 -0.3977 -1.1394
  980SOL     OW 3655   5.298   0.138   0.040  0.3252  0.6202 -0.0201
  980SOL    HW1 3656   5.207   0.152   0.014  0.3187  0.5233 -0.0462
  980SOL    HW2 3657   5.295   0.063   0.099  0.4505  0.3301 -0.3804
  981SOL     OW 3658   0.505   0.419   5.169  0.1164 -0.0349 -0.3707
  981SOL    HW1 3659   0.413   0.398   5.187  0.3653 -0.0296  0.9559
  981SOL    HW2 3660   0.531   0.476   5.241  0.7844  1.0586 -1.4581
  982SOL     OW 3661   6.360   3.974   2.794 -0.2175 -0.4372 -0.3158
  982SOL    HW1 3662   6.403   3.915   2.732 -0.5721 -0.0523 -0.9345
  982SOL    HW2 3663   6.358   3.925   2.877  0.2382 -0.9597 -0.6149
  983SOL     OW 3664   4.087   0.831   4.312 -0.8594  0.1113  0.5135
  983SOL    HW1 3665   4.167   0.868   4.272 -0.1340 -1.4432  0.4731
  983SOL    HW2 3666   4.026   0.904   4.316  0.3160  1.1510 -0.1658
  984SOL     OW 3667   1.264   6.680   6.590  0.1749 -0.1066 -0.1507
  984SOL    HW1 3668   1.335   6.736   6.559  1.7017 -0.4444  2.5869
  984SOL    HW2 3669   1.184   6.724   6.561  1.4210  1.7291 -0.8616
  985SOL     OW 3670   0.307   1.226   1.080  0.1563  0.1764  0.2737
  985SOL    HW1 3671   0.277   1.145   1.122  1.6343  0.2671  1.5498
  985SOL    HW2 3672   0.381   1.199   1.026 -1.6196  0.0929 -2.2155
  986SOL     OW 3673   6.684   0.457   2.796 -0.2241  0.2323 -0.0735
  986SOL    HW1 3674   6.753   0.391   2.786 -0.2317  0.4950 -1.9484
  986SOL    HW2 3675   6.609   0.420   2.749 -0.2538  1.5219 -1.0601
  987SOL     OW 3676   0.369   5.276   1.435 -0.4328 -0.2393 -0.5787
  987SOL    HW1 3677   0.457   5.306   1.459 -0.9556  1.1064 -0.2964
  987SOL    HW2 3678   0.378   5.182   1.425  0.6398 -0.3677  1.3002
  988SOL     OW 3679   4.574   3.157   5.132  0.1266  0.1214 -0.1167
  988SOL    HW1 3680   4.586   3.179   5.225  1.0816 -0.3819 -0.1141
  988SOL    HW2 3681   4.525   3.075   5.133  2.0198 -1.0285 -0.0062
  989SOL     OW 3682   5.399   4.195   1.884 -0.1335 -0.0501  0.0364
  989SOL    HW1 3683   5.317   4.183   1.933 -1.3093  1.1325 -1.5741
  989SOL    HW2 3684   5.395   4.128   1.815  2.0911 -2.5286  2.2080
  990SOL     OW 3685   2.652   0.291   4.353 -0.1641  0.0975  0.0615
  990SOL    HW1 3686   2.739   0.274   4.318 -0.5664 -0.9755 -0.4395
  990SOL    HW2 3687   2.649   0.386   4.366  1.1789  0.1033  0.3660
  991SOL     OW 3688   3.322   1.443   2.788 -0.6725 -0.0716  0.2786
  991SOL    HW1 3689   3.363   1.397   2.861  0.1871 -0.4331 -0.4256
  991SOL    HW2 3690   3.272   1.513   2.830 -1.7738 -1.4478  1.3484
  992SOL     OW 3691   0.503   1.765   3.413 -0.4515 -0.0480 -0.7098
  992SOL    HW1 3692   0.500   1.670   3.430  3.1131 -0.0155  0.5058
  992SOL    HW2 3693   0.539   1.771   3.325 -1.3781  0.1754 -1.0746
  993SOL     OW 3694   3.216   2.147   5.187 -0.5869  0.1228  0.1812
  993SOL    HW1 3695   3.289   2.092   5.215 -0.0385  0.1268 -1.1865
  993SOL    HW2 3696   3.152   2.140   5.257 -1.3296 -3.7519 -0.7792
  994SOL     OW 3697   6.512   0.472   5.341 -0.0190  0.3034 -0.1930
  994SOL    HW1 3698   6.502   0.399   5.402 -0.7874 -0.5616 -1.3255
  994SOL    HW2 3699   6.439   0.461   5.279  1.3701  0.5211 -1.9136
  995SOL     OW 3700   4.387   1.829   3.869  0.0008 -0.0868  0.5759
  995SOL    HW1 3701   4.402   1.787   3.785 -0.7476 -1.9991  1.3648
  995SOL    HW2 3702   4.368   1.920   3.848 -2.2703 -0.9983 -1.4857
  996SOL     OW 3703   4.717   5.760   3.173 -0.3623 -0.3592 -0.0470
  996SOL    HW1 3704   4.753   5.747   3.086  1.2735  0.4177  0.5045
  996SOL    HW2 3705   4.624   5.738   3.164  0.5030 -3.8101 -1.1458
  997SOL     OW 3706   2.825   2.483   3.341 -0.2754 -0.0527  0.3455
  997SOL    HW1 3707   2.777   2.566   3.334 -0.4576 -0.2472 -0.7904
  997SOL    HW2 3708   2.765   2.424   3.386 -0.7451 -0.0242 -0.2413
  998SOL     OW 3709   1.226   5.786   1.938 -0.1250 -0.3279 -0.4515
  998SOL    HW1 3710   1.298   5.723   1.937 -0.6930 -1.1199  2.6355
  998SOL    HW2 3711   1.160   5.748   1.881  1.4214 -0.1416 -2.4347
  999SOL     OW 3712   1.647   6.145   2.927  0.2623 -0.3862 -0.4355
  999SOL    HW1 3713   1.674   6.117   3.014  0.1833 -0.7356 -0.5225
  999SOL    HW2 3714   1.581   6.213   2.943  0.9355  0.2204 -0.2275
 1000SOL     OW 3715   1.705   6.382   2.262 -0.0427  0.0899  0.2660
 1000SOL    HW1 3716   1.798   6.372   2.283 -0.0218 -0.8458 -0.2282
 1000SOL    HW2 3717   1.681   6.299   2.222 -0.5620  1.1255 -1.6161
 1001SOL     OW 3718   3.687   4.893   4.635  0.1049  0.1366 -0.3541
 1001SOL    HW1 3719   3.639   4.834   4.693  0.0667 -0.9072 -1.4302
 1001SOL    HW2 3720   3.779   4.877   4.656  0.0792  0.0571 -0.3015
 1002SOL     OW 3721   0.542   6.753   6.412  0.2914  0.4442  0.5306
 1002SOL    HW1 3722   0.618   6.803   6.381  0.4285 -0.0594  0.0438
 1002SOL    HW2 3723   0.476   6.766   6.344  1.1742 -2.0693 -0.8778
 1003SOL     OW 3724   1.405   1.206   1.782  0.3650 -0.2324 -0.2042
 1003SOL    HW1 3725   1.435   1.164   1.863 -0.9158  1.7938  1.3560
 1003SOL    HW2 3726   1.315   1.177   1.772  0.3092  0.0577 -0.5528
 1004SOL     OW 3727   1.493   4.368   6.550  0.3061  0.1736 -0.5044
 1004SOL    HW1 3728   1.408   4.325   6.558  0.3163 -0.2308 -2.2347
 1004SOL    HW2 3729   1.529   4.369   6.639 -0.8873 -0.9188 -0.0001
 1005SOL     OW 3730   1.642   6.187   2.110 -0.0406  0.0526  0.0667
 1005SOL    HW1 3731   1.705   6.115   2.108 -0.0669  0.0316 -0.0239
 1005SOL    HW2 3732   1.557   6.144   2.122  0.0048  0.1086  0.6129
 1006SOL     OW 3733   5.741   2.223   5.897  0.2471  0.1658 -0.2777
 1006SOL    HW1 3734   5.824   2.271   5.905 -0.4964  1.2903  0.8163
 1006SOL    HW2 3735   5.756   2.142   5.945  0.8711  0.1588 -0.4799
 1007SOL     OW 3736   4.994   5.393   4.157  0.1486 -0.6194 -0.1647
 1007SOL    HW1 3737   4.925   5.346   4.110  0.2748 -1.5535  0.5679
 1007SOL    HW2 3738   5.075   5.349   4.130  0.5136  0.7557 -1.3611
 1008SOL     OW 3739   0.179   3.170   5.575  0.3915 -0.0734 -0.8631
 1008SOL    HW1 3740   0.272   3.193   5.569  0.1954  1.2660  0.7661
 1008SOL    HW2 3741   0.161   3.124   5.493  2.6460 -0.9754 -0.9015
 1009SOL     OW 3742   4.535   5.814   0.357 -0.1026 -0.3496 -0.6058
 1009SOL    HW1 3743   4.623   5.842   0.332 -0.7721  0.0068 -2.7369
 1009SOL    HW2 3744   4.493   5.893   0.390  0.8002 -0.8225  1.7067
 1010SOL     OW 3745   2.126   3.882   4.248 -0.4907  0.3768  0.2948
 1010SOL    HW1 3746   2.047   3.829   4.259  0.2686 -1.3457 -2.2466
 1010SOL    HW2 3747   2.106   3.963   4.294 -2.5711 -1.1970  2.2919
 1011SOL     OW 3748   3.195   2.771   4.645 -0.5120 -0.0453 -0.1257
 1011SOL    HW1 3749   3.267   2.709   4.658  1.1935  1.4842 -1.9263
 1011SOL    HW2 3750   3.116   2.720   4.662  0.8629 -2.5555 -1.0110
 1012SOL     OW 3751   1.173   6.093   2.876  0.0692 -0.0177  0.3913
 1012SOL    HW1 3752   1.143   6.159   2.939  0.9828 -0.0730  0.8972
 1012SOL    HW2 3753   1.268   6.106   2.872  0.1520 -0.7937 -0.0864
 1013SOL     OW 3754   4.679   0.275   0.839 -0.2600 -0.0510 -0.3755
 1013SOL    HW1 3755   4.706   0.363   0.866 -0.0340  0.0133 -0.8100
 1013SOL    HW2 3756   4.760   0.226   0.831 -0.2583  0.1861 -1.8212
 1014SOL     OW 3757   2.442   6.005   4.095 -0.1770 -0.6009  0.0803
 1014SOL    HW1 3758   2.466   6.003   4.002  0.3841  0.5395  0.1916
 1014SOL    HW2 3759   2.522   6.034   4.140 -0.9320  0.4981  0.7486
 1015SOL     OW 3760   4.979   3.106   0.421 -0.3028 -0.6695  0.2368
 1015SOL    HW1 3761   5.001   3.014   0.410 -0.4302 -0.8794  1.5907
 1015SOL    HW2 3762   4.976   3.141   0.333 -0.3513 -1.9894 -0.2985
 1016SOL     OW 3763   3.065   0.909   4.351 -0.3868  0.4539  0.4322
 1016SOL    HW1 3764   3.021   0.888   4.434 -1.6385 -0.4551 -0.4336
 1016SOL    HW2 3765   3.011   0.867   4.284  0.9315  0.6845 -0.8076
 1017SOL     OW 3766   0.246   6.152   1.221  0.0181  0.8836 -0.3256
 1017SOL    HW1 3767   0.180   6.141   1.153  0.2104  1.6990 -0.6512
 1017SOL    HW2 3768   0.196   6.173   1.300 -0.2334 -0.5228 -0.1036
 1018SOL     OW 3769   1.376   2.655   6.515  0.1236 -0.3694 -0.0911
 1018SOL    HW1 3770   1.313   2.705   6.463 -1.6463  0.5314  2.7554
 1018SOL    HW2 3771   1.325   2.580   6.548  1.1434 -0.8140  0.4910
 1019SOL     OW 3772   5.009   1.206   2.969 -0.3428 -0.5250  0.0243
 1019SOL    HW1 3773   4.986   1.248   3.052 -0.0877  2.1090 -1.1901
 1019SOL    HW2 3774   4.951   1.247   2.904 -0.3810 -2.3860 -1.1460
 1020SOL     OW 3775   2.363   2.262   2.342  0.3964  0.0463 -0.6119
 1020SOL    HW1 3776   2.433   2.326   2.354  0.4784 -0.2916  0.8108
 1020SOL    HW2 3777   2.336   2.239   2.431 -2.8261  1.5522 -1.1739
 1021SOL     OW 3778   6.540   3.909   1.847 -0.4609  0.0564  0.1054
 1021SOL    HW1 3779   6.580   3.977   1.793  0.7818  0.5525  1.6111
 1021SOL    HW2 3780   6.551   3.829   1.796  0.2718  0.5822 -0.5885
 1022SOL     OW 3781   2.028   6.003   2.599  0.0836 -0.1343  0.3816
 1022SOL    HW1 3782   1.949   6.052   2.622 -1.1465 -2.2376  0.8666
 1022SOL    HW2 3783   2.075   6.059   2.538  0.3410  2.9714  3.3021
 1023SOL     OW 3784   4.641   1.593   6.163  0.3516 -0.1601 -0.1422
 1023SOL    HW1 3785   4.587   1.580   6.085  0.3941 -1.7832  0.0715
 1023SOL    HW2 3786   4.669   1.504   6.187  0.8219  0.3900  1.3717
 1024SOL     OW 3787   2.105   5.377   4.411 -0.6707 -0.1486  0.7524
 1024SOL    HW1 3788   2.082   5.300   4.358  2.4583 -0.9027  0.3893
 1024SOL    HW2 3789   2.108   5.449   4.348  3.4929 -1.1251 -0.3371
 1025SOL     OW 3790   3.708   0.118   5.575 -0.3167 -0.1766  0.6190
 1025SOL    HW1 3791   3.736   0.053   5.511 -2.2716 -1.2436  0.8384
 1025SOL    HW2 3792   3.660   0.183   5.524  0.4342  0.3809  0.6126
 1026SOL     OW 3793   4.892   2.965   6.271 -0.2159 -0.5783  0.3015
 1026SOL    HW1 3794   4.810   3.009   6.251 -0.0309  0.9913  2.8020
 1026SOL    HW2 3795   4.959   3.030   6.250  0.2747 -1.1056  0.2331
 1027SOL     OW 3796   2.854   2.368   3.729  0.0607  0.9856  0.1583
 1027SOL    HW1 3797   2.928   2.377   3.669  0.9715  0.7103  1.2396
 1027SOL    HW2 3798   2.885   2.403   3.812 -0.6272 -0.2587  0.9492
 1028SOL     OW 3799   5.040   5.827   2.877  0.0861 -0.5638 -0.1155
 1028SOL    HW1 3800   5.051   5.738   2.843  1.7036 -0.4548  0.0632
 1028SOL    HW2 3801   4.973   5.820   2.944  1.5256 -2.0179  1.2210
 1029SOL     OW 3802   2.816   0.273   3.256 -0.1630 -0.0066 -0.5425
 1029SOL    HW1 3803   2.887   0.272   3.321 -0.2393 -0.3662 -0.4667
 1029SOL    HW2 3804   2.778   0.360   3.264  1.1259  0.6743 -1.4980
 1030SOL     OW 3805   6.043   4.787   0.205  0.6547  0.1897  0.3875
 1030SOL    HW1 3806   5.971   4.806   0.146  1.1894 -0.0775 -0.3579
 1030SOL    HW2 3807   6.008   4.721   0.265  0.5769 -0.6555 -0.5776
 1031SOL     OW 3808   4.579   5.754   5.784  0.0313  0.0847  0.5153
 1031SOL    HW1 3809   4.658   5.782   5.830  0.2060 -1.6817  1.3478
 1031SOL    HW2 3810   4.607   5.742   5.694 -0.1233  2.8198  0.0657
 1032SOL     OW 3811   5.002   2.906   4.858 -0.1171 -0.0029 -0.3888
 1032SOL    HW1 3812   5.024   2.966   4.930 -0.0461  0.6108 -0.9159
 1032SOL    HW2 3813   5.010   2.960   4.779  0.5798 -0.8868 -0.9226
 1033SOL     OW 3814   0.250   5.850   5.113  0.4015 -0.2279  0.3570
 1033SOL    HW1 3815   0.168   5.820   5.152 -0.0993  1.0440  0.3063
 1033SOL    HW2 3816   0.247   5.814   5.024  0.4575 -1.1657  0.7218
 1034SOL     OW 3817   3.689   3.807   2.471 -0.6038  0.4789 -0.0101
 1034SOL    HW1 3818   3.769   3.859   2.481 -0.1904 -0.0841 -0.3744
 1034SOL    HW2 3819   3.636   3.830   2.548 -0.3204  1.2514 -0.0420
 1035SOL     OW 3820   2.089   4.935   3.730  0.0547  0.1528  0.3564
 1035SOL    HW1 3821   2.045   4.955   3.813  0.0306  1.6082  0.0005
 1035SOL    HW2 3822   2.019   4.933   3.665 -0.6575 -5.7512  1.0518
 1036SOL     OW 3823   0.058   0.586   1.582  0.0937 -0.8275  0.0188
 1036SOL    HW1 3824   0.085   0.605   1.672  0.3236  1.6613 -0.5412
 1036SOL    HW2 3825   0.133   0.613   1.529 -0.1328 -2.0641 -0.9458
 1037SOL     OW 3826   0.422   4.157   3.885  0.6487  0.0506 -0.3274
 1037SOL    HW1 3827   0.387   4.192   3.803 -0.0924 -1.5540 -0.7148
 1037SOL    HW2 3828   0.352   4.171   3.949  1.0287  0.8387 -0.0786
 1038SOL     OW 3829   6.069   6.271   3.926 -0.0386  0.7622 -0.6572
 1038SOL    HW1 3830   6.130   6.199   3.912  0.5651  1.5178 -1.9177
 1038SOL    HW2 3831   6.074   6.289   4.020  1.4042  0.5970 -0.7013
 1039SOL     OW 3832   4.516   1.038   1.026  0.5808  0.0786  0.7332
 1039SOL    HW1 3833   4.575   1.112   1.042 -1.0618  0.9244  3.1816
 1039SOL    HW2 3834   4.504   0.998   1.112 -1.5512 -0.7218  0.0892
 1040SOL     OW 3835   3.859   3.335   6.653 -0.1807 -0.0866 -0.1335
 1040SOL    HW1 3836   3.871   3.243   6.675  2.4924  0.4366  0.7977
 1040SOL    HW2 3837   3.855   3.380   6.737  2.3486  1.0282 -0.5404
 1041SOL     OW 3838   3.695   4.244   2.218 -0.3106  0.1051  0.1198
 1041SOL    HW1 3839   3.677   4.150   2.219 -0.5186  0.1412  2.1886
 1041SOL    HW2 3840   3.710   4.266   2.310  0.5927  1.9391 -0.4465
 1042SOL     OW 3841   6.187   5.587   2.222 -0.0193  0.2508  0.1391
 1042SOL    HW1 3842   6.219   5.587   2.312  2.1165 -1.3501 -0.5650
 1042SOL    HW2 3843   6.211   5.673   2.188  0.6102  0.2735  0.6256
 1043SOL     OW 3844   3.638   5.959   4.308  0.2410 -0.4674 -0.1361
 1043SOL    HW1 3845   3.648   5.968   4.403  1.8204  0.2612 -0.3584
 1043SOL    HW2 3846   3.566   6.017   4.286  0.5082  0.1160  0.4943
 1044SOL     OW 3847   1.475   5.177   0.038  0.2024 -0.5381 -0.0384
 1044SOL    HW1 3848   1.525   5.244   0.085 -2.2476  0.0256  1.9180
 1044SOL    HW2 3849   1.539   5.110   0.015  2.1020  0.8594  1.0038
 1045SOL     OW 3850   0.601   4.710   4.954 -0.0759 -0.0642  0.2361
 1045SOL    HW1 3851   0.549   4.636   4.984  1.7143 -0.7928  1.6016
 1045SOL    HW2 3852   0.553   4.787   4.987 -0.8158 -0.6801  0.6233
 1046SOL     OW 3853   3.146   1.598   2.526 -0.1448  0.0096  0.3382
 1046SOL    HW1 3854   3.061   1.562   2.554  0.1723  0.7768  2.3407
 1046SOL    HW2 3855   3.196   1.521   2.498 -1.3339 -0.4989 -0.4517
 1047SOL     OW 3856   2.003   6.727   4.604  0.1250  0.2432  0.0215
 1047SOL    HW1 3857   2.066   6.704   4.536  0.4145 -0.5752  0.5543
 1047SOL    HW2 3858   1.951   6.647   4.616  0.3416  0.2489  1.0506
 1048SOL     OW 3859   3.536   6.421   3.782 -0.4051  0.3806  0.2296
 1048SOL    HW1 3860   3.570   6.461   3.701 -1.1940  1.9927  0.6740
 1048SOL    HW2 3861   3.587   6.340   3.791 -0.3985  0.0874 -1.9577
 1049SOL     OW 3862   2.852   1.846   2.457  0.1381  0.9392  0.0425
 1049SOL    HW1 3863   2.759   1.869   2.461 -0.0530  0.2087 -0.1303
 1049SOL    HW2 3864   2.888   1.874   2.541 -0.4666  0.2641  0.5317
 1050SOL     OW 3865   0.592   3.329   3.833  0.1755 -0.3106  0.0604
 1050SOL    HW1 3866   0.664   3.266   3.821 -0.5508 -0.7947 -2.0009
 1050SOL    HW2 3867   0.514   3.281   3.806 -0.5861  1.0183 -0.1400
 1051SOL     OW 3868   0.070   0.654   5.674  0.0384 -0.2823  0.4081
 1051SOL    HW1 3869   0.082   0.725   5.737  1.0492  0.1242 -0.2377
 1051SOL    HW2 3870  -0.005   0.681   5.622  0.5289  0.4018  0.0504
 1052SOL     OW 3871   3.823   1.722   5.599 -0.0561  0.7024  0.4834
 1052SOL    HW1 3872   3.847   1.720   5.506  0.9211 -0.7125  0.7406
 1052SOL    HW2 3873   3.788   1.810   5.613  0.7109  1.2677 -0.9897
 1053SOL     OW 3874   4.575   2.881   0.523 -0.0195 -0.1556 -0.2780
 1053SOL    HW1 3875   4.634   2.811   0.496  0.2302  0.0205 -0.1994
 1053SOL    HW2 3876   4.537   2.913   0.441  1.1622  0.7486 -0.4881
 1054SOL     OW 3877   6.580   4.205   3.430 -0.5184 -0.8011  0.3512
 1054SOL    HW1 3878   6.604   4.155   3.352 -3.3418 -0.8667 -0.5366
 1054SOL    HW2 3879   6.557   4.138   3.495 -0.2769 -0.7095  0.5314
 1055SOL     OW 3880   3.397   5.430   2.387  0.3991 -0.0004  0.0852
 1055SOL    HW1 3881   3.437   5.345   2.371  1.4380  0.4003  0.5233
 1055SOL    HW2 3882   3.458   5.475   2.445  0.9685  1.9074 -1.9359
 1056SOL     OW 3883   2.357   6.035   6.177 -0.6220  0.1151  0.0971
 1056SOL    HW1 3884   2.433   6.004   6.128 -0.3693  1.6892 -0.5281
 1056SOL    HW2 3885   2.299   5.959   6.183 -0.9141  0.0172 -3.1185
 1057SOL     OW 3886   5.194   5.340   1.992 -0.1629  0.2088 -1.0252
 1057SOL    HW1 3887   5.177   5.359   1.900 -0.7059  2.5506 -0.4619
 1057SOL    HW2 3888   5.284   5.369   2.006 -0.2264  0.2436 -0.6931
 1058SOL     OW 3889   4.268   1.060   4.404 -0.1200  0.0483 -0.2430
 1058SOL    HW1 3890   4.287   0.999   4.475 -0.6244  0.8342  0.5736
 1058SOL    HW2 3891   4.352   1.076   4.362  0.2999  0.1508  0.6382
 1059SOL     OW 3892   3.305   2.957   2.019  0.5017 -0.3146 -0.0314
 1059SOL    HW1 3893   3.310   3.050   1.997 -0.3433 -0.2450  0.0586
 1059SOL    HW2 3894   3.370   2.945   2.088 -1.7439  0.9272  2.3759
 1060SOL     OW 3895   6.390   1.268   0.250  0.5817 -0.3590 -0.1869
 1060SOL    HW1 3896   6.377   1.183   0.293  2.1030 -0.8685 -0.7113
 1060SOL    HW2 3897   6.386   1.248   0.157  2.7164 -0.1772 -0.3455
 1061SOL     OW 3898   5.854   1.317   1.400 -0.9151 -0.2777  0.4780
 1061SOL    HW1 3899   5.912   1.259   1.351  1.5811  1.7244  0.9512
 1061SOL    HW2 3900   5.820   1.378   1.335 -1.7339 -0.8609  0.3606
 1062SOL     OW 3901   0.339   2.286   1.784 -0.7645  0.1957 -0.2594
 1062SOL    HW1 3902   0.388   2.293   1.702 -0.8136  1.2779 -0.1926
 1062SOL    HW2 3903   0.317   2.376   1.807 -2.7508 -0.2766 -0.2590
 1063SOL     OW 3904   0.818   2.693   0.256 -0.2667 -0.3568 -1.1917
 1063SOL    HW1 3905   0.764   2.652   0.189 -2.3102  4.1992 -2.5400
 1063SOL    HW2 3906   0.779   2.664   0.339 -1.8442 -0.8424 -2.0772
 1064SOL     OW 3907   3.773   4.635   2.552  0.2003  0.2978 -0.3220
 1064SOL    HW1 3908   3.851   4.620   2.499  0.0113 -0.3308 -0.4304
 1064SOL    HW2 3909   3.733   4.714   2.515  0.1041 -0.0984 -1.0796
 1065SOL     OW 3910   0.279   1.542   1.069  0.0354  0.2247  0.2565
 1065SOL    HW1 3911   0.281   1.447   1.068  1.3614  0.2373 -0.2001
 1065SOL    HW2 3912   0.198   1.565   1.113  0.4750 -1.1238  1.7959
 1066SOL     OW 3913   1.309   1.185   5.524 -0.1829  0.0968 -0.0035
 1066SOL    HW1 3914   1.232   1.155   5.571  1.2386 -2.6003  0.7019
 1066SOL    HW2 3915   1.362   1.107   5.511  1.4673  1.5101 -2.3625
 1067SOL     OW 3916   6.147   0.773   6.634 -0.0274 -0.1417  0.0085
 1067SOL    HW1 3917   6.184   0.772   6.722 -0.8295  3.4618  0.4330
 1067SOL    HW2 3918   6.053   0.761   6.647 -0.1833  0.6995 -0.3350
 1068SOL     OW 3919   5.000   2.975   3.845  0.0509 -0.1776  0.4764
 1068SOL    HW1 3920   5.054   2.922   3.904  0.5790 -0.3294 -0.1393
 1068SOL    HW2 3921   5.027   2.949   3.757 -1.1195 -0.3332  0.1600
 1069SOL     OW 3922   1.932   4.190   1.871 -0.2677 -0.2836  0.0190
 1069SOL    HW1 3923   1.850   4.230   1.901 -0.2908 -0.8338  0.6904
 1069SOL    HW2 3924   1.927   4.197   1.775 -1.3838 -0.8607  0.0174
 1070SOL     OW 3925   1.584   1.625   0.698  0.5204 -0.2434 -0.2311
 1070SOL    HW1 3926   1.582   1.719   0.681 -0.9766 -0.4760 -1.4258
 1070SOL    HW2 3927   1.583   1.618   0.793 -1.6685  0.9195 -0.1298
 1071SOL     OW 3928   0.234   5.597   4.622 -0.4114  0.2063 -0.2868
 1071SOL    HW1 3929   0.185   5.546   4.557  0.3599  1.7209 -2.1050
 1071SOL    HW2 3930   0.319   5.613   4.581  0.6948 -0.2017  1.7972
 1072SOL     OW 3931   1.078   0.196   0.067 -0.2057  0.2131  0.1529
 1072SOL    HW1 3932   1.173   0.203   0.068  0.0745 -2.9522  0.4371
 1072SOL    HW2 3933   1.053   0.210   0.159 -0.0537  1.2386  0.0459
 1073SOL     OW 3934   0.536   1.495   0.018  0.7386  0.0633  0.0216
 1073SOL    HW1 3935   0.584   1.417   0.046 -0.2868 -0.6544 -0.1662
 1073SOL    HW2 3936   0.568   1.565   0.075  1.4395 -0.5674  0.4106
 1074SOL     OW 3937   1.796   6.376   5.194 -0.0682 -0.0037 -0.2696
 1074SOL    HW1 3938   1.877   6.426   5.209 -0.0971  0.0154 -0.1790
 1074SOL    HW2 3939   1.764   6.356   5.282 -0.7913  1.0107 -0.2899
 1075SOL     OW 3940   4.282   2.291   5.782 -0.4646 -0.1994 -0.0896
 1075SOL    HW1 3941   4.345   2.263   5.715  0.5722  0.5627  0.5517
 1075SOL    HW2 3942   4.235   2.364   5.740 -0.5169 -0.3757 -0.3444
 1076SOL     OW 3943   1.262   0.471   4.681  0.3006 -0.1821  0.1552
 1076SOL    HW1 3944   1.239   0.467   4.588 -0.4051  1.9117  0.2329
 1076SOL    HW2 3945   1.343   0.420   4.687  0.5193 -0.0825 -1.6526
 1077SOL     OW 3946   6.188   5.594   1.779  0.4212  0.3645  0.3291
 1077SOL    HW1 3947   6.218   5.507   1.752 -0.9120  0.0937 -0.3194
 1077SOL    HW2 3948   6.246   5.654   1.733 -0.0996 -0.1534 -1.0438
 1078SOL     OW 3949   0.354   2.345   6.498 -0.0533  0.1143 -0.3249
 1078SOL    HW1 3950   0.329   2.294   6.421 -0.1896  1.2844 -1.0707
 1078SOL    HW2 3951   0.272   2.360   6.544 -0.1240  0.3297 -0.5214
 1079SOL     OW 3952   3.499   5.633   5.456  0.7319  0.5935 -0.5652
 1079SOL    HW1 3953   3.431   5.625   5.388 -0.8069 -2.2952  1.2547
 1079SOL    HW2 3954   3.552   5.555   5.446  0.7657  0.3755  1.2732
 1080SOL     OW 3955   2.413   3.788   4.880 -0.1472 -0.3814  0.5664
 1080SOL    HW1 3956   2.428   3.796   4.974 -1.8304 -0.7961  0.8759
 1080SOL    HW2 3957   2.466   3.713   4.853  0.8631  0.1457  1.0506
 1081SOL     OW 3958   1.945   2.049   6.418 -0.7361 -0.2437  0.1586
 1081SOL    HW1 3959   2.028   2.088   6.443 -1.2186 -0.2299  1.8115
 1081SOL    HW2 3960   1.902   2.116   6.365  0.1226 -0.0832 -0.3359
 1082SOL     OW 3961   0.882   2.054   4.884 -0.0341  0.6074  0.0520
 1082SOL    HW1 3962   0.853   2.091   4.968  0.5079  0.6609  0.2161
 1082SOL    HW2 3963   0.804   2.056   4.829  0.3059  3.2379 -0.3816
 1083SOL     OW 3964   4.070   2.780   1.016 -0.4000 -0.0800  0.1154
 1083SOL    HW1 3965   4.084   2.686   1.004  1.7954  0.0736  1.2998
 1083SOL    HW2 3966   4.020   2.786   1.097  0.7040 -0.1793  0.8204
 1084SOL     OW 3967   1.832   3.512   0.257 -0.2390  0.5438 -0.0306
 1084SOL    HW1 3968   1.819   3.603   0.283  0.1543  0.1917  1.4846
 1084SOL    HW2 3969   1.772   3.498   0.185 -0.2470  2.0290 -0.3245
 1085SOL     OW 3970   2.948   0.982   0.350 -0.3060  0.0632  0.2207
 1085SOL    HW1 3971   2.883   0.913   0.366 -0.3527  0.3334  1.2251
 1085SOL    HW2 3972   3.011   0.972   0.421 -0.7847  1.6126  0.8781
 1086SOL     OW 3973   0.301   5.773   5.422 -0.3000  0.1399 -0.4305
 1086SOL    HW1 3974   0.331   5.709   5.358 -0.0582 -0.0987 -0.0832
 1086SOL    HW2 3975   0.215   5.801   5.390 -0.6991 -0.8427 -0.2432
 1087SOL     OW 3976   3.791   3.253   3.997 -0.7144  0.3641 -0.1353
 1087SOL    HW1 3977   3.810   3.246   4.091 -1.2088 -1.1019 -0.1176
 1087SOL    HW2 3978   3.852   3.318   3.964  1.1493 -0.8983  0.7605
 1088SOL     OW 3979   2.759   1.654   5.442  0.6814  0.0437  0.1707
 1088SOL    HW1 3980   2.727   1.719   5.504  1.5034 -0.2382  0.9070
 1088SOL    HW2 3981   2.785   1.704   5.365  1.2131  0.5799  0.6932
 1089SOL     OW 3982   4.455   4.285   5.049  0.2276  0.2411  0.6700
 1089SOL    HW1 3983   4.538   4.323   5.019  0.8211 -0.6084  1.1932
 1089SOL    HW2 3984   4.430   4.224   4.980  1.2286 -1.1892  1.5395
 1090SOL     OW 3985   5.614   3.557   1.104 -0.4962 -0.0327 -0.1955
 1090SOL    HW1 3986   5.670   3.548   1.181 -0.5866  0.2635 -0.0946
 1090SOL    HW2 3987   5.648   3.492   1.042  0.1032  0.2947 -0.2175
 1091SOL     OW 3988   5.278   3.645   5.925  0.0979  0.2770 -0.7015
 1091SOL    HW1 3989   5.304   3.646   6.017  0.3441 -2.1462 -0.7133
 1091SOL    HW2 3990   5.334   3.578   5.885 -0.5046  0.7869 -2.4523
 1092SOL     OW 3991   4.232   2.247   1.253 -0.2101  0.4559 -0.2345
 1092SOL    HW1 3992   4.140   2.276   1.259  0.5108  2.6190  1.1978
 1092SOL    HW2 3993   4.254   2.256   1.160 -1.0387  1.3371 -0.3593
 1093SOL     OW 3994   5.779   2.000   6.375 -0.4153  0.0376  0.8299
 1093SOL    HW1 3995   5.688   1.973   6.369 -0.2479 -0.1998 -1.2172
 1093SOL    HW2 3996   5.779   2.077   6.431 -2.2775  1.8004 -1.5382
 1094SOL     OW 3997   1.362   1.291   3.006  0.0752 -0.7353 -0.1352
 1094SOL    HW1 3998   1.268   1.278   2.989 -0.1840  1.0695 -0.2216
 1094SOL    HW2 3999   1.404   1.212   2.973 -1.4820 -1.8603  0.5124
 1095SOL     OW 4000   4.373   2.608   6.005  0.9300 -0.0356  0.2368
 1095SOL    HW1 4001   4.363   2.634   6.096  2.2840  0.5285  0.2308
 1095SOL    HW2 4002   4.297   2.552   5.987  0.6057 -0.0532  1.6643
 1096SOL     OW 4003   1.637   0.889   5.029 -0.0058 -0.0384  0.1715
 1096SOL    HW1 4004   1.577   0.875   5.102 -0.4390  2.0595  0.2355
 1096SOL    HW2 4005   1.583   0.881   4.951 -0.2322  1.1030  0.2044
 1097SOL     OW 4006   3.156   1.260   4.649  0.3277  0.6256 -0.0246
 1097SOL    HW1 4007   3.209   1.226   4.577 -1.0714 -1.7714  0.0243
 1097SOL    HW2 4008   3.216   1.260   4.724  0.6737 -0.7978 -0.2710
 1098SOL     OW 4009   4.874   2.206   0.541  0.2167  0.2926 -0.1322
 1098SOL    HW1 4010   4.889   2.255   0.622 -1.2321 -1.6744  1.3533
 1098SOL    HW2 4011   4.815   2.262   0.490  1.2222  1.5872  0.0720
 1099SOL     OW 4012   1.149   0.037   6.240 -0.4528  0.3658 -0.1906
 1099SOL    HW1 4013   1.126  -0.035   6.182  0.9175 -0.1434 -0.1229
 1099SOL    HW2 4014   1.090   0.028   6.315  1.9219 -2.7235  1.4201
 1100SOL     OW 4015   5.018   0.220   4.457  0.1566 -0.0956  0.1534
 1100SOL    HW1 4016   4.958   0.263   4.397  0.5054  0.9270  0.5355
 1100SOL    HW2 4017   4.963   0.158   4.506 -0.0866 -1.0904 -1.3509
 1101SOL     OW 4018   5.291   3.031   3.203 -0.6482  0.3155 -0.1277
 1101SOL    HW1 4019   5.261   3.122   3.208 -0.2668  0.4515 -0.2747
 1101SOL    HW2 4020   5.269   3.004   3.114 -1.3770  0.0429  0.1299
 1102SOL     OW 4021   3.224   3.837   4.659  0.2559 -0.1694  0.2098
 1102SOL    HW1 4022   3.200   3.752   4.622  0.1036  0.3462 -0.8854
 1102SOL    HW2 4023   3.307   3.859   4.617  1.6067 -0.9401  2.3769
 1103SOL     OW 4024   1.036   1.537   3.520  0.2129 -0.5162 -0.4093
 1103SOL    HW1 4025   1.030   1.579   3.434 -1.7891 -0.7910 -0.4304
 1103SOL    HW2 4026   0.998   1.450   3.507 -5.3185  1.3211  1.9219
 1104SOL     OW 4027   1.614   1.841   5.725  0.6185  0.4256  0.2244
 1104SOL    HW1 4028   1.626   1.858   5.632 -0.2626 -0.0778  0.0049
 1104SOL    HW2 4029   1.527   1.800   5.731  0.1388  1.5665  1.4023
 1105SOL     OW 4030   3.990   0.059   0.933  0.0634  0.0872  0.1223
 1105SOL    HW1 4031   3.962   0.103   1.013 -0.9961  1.0001 -0.7359
 1105SOL    HW2 4032   4.076   0.096   0.914 -0.5751  1.3833 -0.2815
 1106SOL     OW 4033   4.603   0.891   1.341  0.3445 -0.3949  0.0714
 1106SOL    HW1 4034   4.665   0.879   1.269 -1.5051 -0.5167 -1.5673
 1106SOL    HW2 4035   4.588   0.803   1.376  1.0084 -0.3785  0.3898
 1107SOL     OW 4036   2.654   5.866   5.504 -0.9773  0.7623 -0.1934
 1107SOL    HW1 4037   2.729   5.808   5.489 -1.5542 -0.0144 -0.0994
 1107SOL    HW2 4038   2.676   5.915   5.583 -0.3341  0.9236 -0.4699
 1108SOL     OW 4039   3.991   3.300   3.770  0.3841  0.1072 -0.2808
 1108SOL    HW1 4040   3.908   3.289   3.722  0.6078  1.0949 -0.9181
 1108SOL    HW2 4041   4.047   3.347   3.708  1.4136 -0.5384  0.1657
 1109SOL     OW 4042   4.698   3.090   1.488  0.4183  0.2123 -0.0417
 1109SOL    HW1 4043   4.740   3.008   1.515  1.0019  0.3441 -0.5415
 1109SOL    HW2 4044   4.611   3.063   1.457  2.1520 -0.8267 -4.3529
 1110SOL     OW 4045   0.169   3.152   5.159 -0.0670 -0.0745  0.0708
 1110SOL    HW1 4046   0.143   3.084   5.221  0.8691 -0.3965  0.1222
 1110SOL    HW2 4047   0.259   3.129   5.135 -0.2298  0.3527 -0.9893
 1111SOL     OW 4048   3.022   2.979   2.689 -0.0339 -0.2961 -0.0601
 1111SOL    HW1 4049   2.927   2.992   2.679 -0.2256 -1.5998 -0.0017
 1111SOL    HW2 4050   3.058   3.068   2.692 -1.4374  0.2482  1.5606
 1112SOL     OW 4051   2.474   5.225   6.662  0.2709 -0.3847  0.1574
 1112SOL    HW1 4052   2.568   5.211   6.652  0.3445 -1.3030  2.0479
 1112SOL    HW2 4053   2.467   5.308   6.710  0.1564 -0.9774  1.1777
 1113SOL     OW 4054   2.747   0.257   6.145  0.4026 -0.0272 -0.1284
 1113SOL    HW1 4055   2.790   0.284   6.226  1.4701 -0.3209 -0.5890
 1113SOL    HW2 4056   2.819   0.229   6.088 -0.3549  0.0175 -1.1126
 1114SOL     OW 4057   3.630   5.693   4.213 -0.1557  0.9028  0.2724
 1114SOL    HW1 4058   3.625   5.782   4.248 -0.3040  0.2225  2.0311
 1114SOL    HW2 4059   3.589   5.638   4.281  0.9580 -0.6356 -0.2802
 1115SOL     OW 4060   3.534   1.725   6.734 -0.0366 -0.0419 -0.0282
 1115SOL    HW1 4061   3.586   1.763   6.663 -0.4491 -2.3099 -1.5762
 1115SOL    HW2 4062   3.597   1.708   6.804  0.7021  0.4028 -0.5770
 1116SOL     OW 4063   1.279   3.243   2.842  0.3485 -0.1432 -0.1433
 1116SOL    HW1 4064   1.283   3.189   2.921  3.0034 -0.3715 -0.3922
 1116SOL    HW2 4065   1.299   3.331   2.872  0.4030 -0.0643 -0.4113
 1117SOL     OW 4066   1.015   1.297   5.323 -0.3082  0.2467  0.6927
 1117SOL    HW1 4067   1.098   1.297   5.370  1.3161 -0.4120 -2.0820
 1117SOL    HW2 4068   0.999   1.389   5.303  1.9107  0.0291 -2.3583
 1118SOL     OW 4069   4.442   2.511   1.272 -0.4044 -0.5056 -0.4082
 1118SOL    HW1 4070   4.347   2.520   1.276 -0.4705 -1.4776  0.4291
 1118SOL    HW2 4071   4.457   2.419   1.249  0.3327 -0.6110  0.4545
 1119SOL     OW 4072   0.827   2.115   4.513  0.0544 -0.5352  0.4283
 1119SOL    HW1 4073   0.874   2.172   4.574  0.2416  0.7268 -0.8341
 1119SOL    HW2 4074   0.844   2.154   4.427 -0.9318 -1.7413 -0.3372
 1120SOL     OW 4075   0.942   2.537   4.425  0.1267  0.0064  0.6072
 1120SOL    HW1 4076   0.942   2.628   4.397  0.4638  0.3981  1.8568
 1120SOL    HW2 4077   0.857   2.524   4.467  0.5733  0.0783  1.5211
 1121SOL     OW 4078   3.863   0.107   3.738  0.7234 -0.2888 -0.5322
 1121SOL    HW1 4079   3.906   0.048   3.800  2.2318  1.8006  0.4632
 1121SOL    HW2 4080   3.887   0.195   3.767  0.5343  0.7882 -3.4123
 1122SOL     OW 4081   4.841   1.535   4.921 -0.1395 -0.0277 -0.7400
 1122SOL    HW1 4082   4.878   1.577   4.844  0.2740 -0.6063 -0.8681
 1122SOL    HW2 4083   4.881   1.581   4.996 -1.8469  1.6676 -0.8457
 1123SOL     OW 4084   3.899   3.841   4.756 -0.3214  0.1688 -0.7107
 1123SOL    HW1 4085   3.972   3.862   4.814  0.1508 -0.4872 -1.0548
 1123SOL    HW2 4086   3.852   3.923   4.746 -1.8385 -0.1891  2.5813
 1124SOL     OW 4087   5.001   1.867   0.856  0.3719  0.1582  0.0071
 1124SOL    HW1 4088   5.013   1.961   0.860  0.4976  0.0814  2.3027
 1124SOL    HW2 4089   5.087   1.830   0.878 -0.6613 -0.4418  3.2664
 1125SOL     OW 4090   2.042   5.593   3.584  0.3409 -0.1082 -0.5168
 1125SOL    HW1 4091   2.118   5.535   3.579 -0.0612 -0.6287 -0.6144
 1125SOL    HW2 4092   1.968   5.538   3.560 -0.1285  0.2830  0.0270
 1126SOL     OW 4093   4.195   1.577   4.878 -0.3559 -0.0866 -0.0459
 1126SOL    HW1 4094   4.253   1.565   4.953 -1.3954 -0.3881  0.7191
 1126SOL    HW2 4095   4.236   1.527   4.807  1.1865  1.0568  0.0005
 1127SOL     OW 4096   4.612   1.437   0.470  0.4959 -0.3654 -0.1966
 1127SOL    HW1 4097   4.520   1.411   0.471  0.6982 -1.0792 -0.0829
 1127SOL    HW2 4098   4.651   1.388   0.397  0.1055  2.3364 -2.3191
 1128SOL     OW 4099   4.917   1.869   3.978 -0.4984  0.5154  0.2593
 1128SOL    HW1 4100   4.898   1.957   4.011 -0.0127  0.8851 -0.4276
 1128SOL    HW2 4101   4.845   1.851   3.917 -0.1063  0.8174 -0.2993
 1129SOL     OW 4102   1.389   0.310   1.521  0.5353  0.3098 -0.7704
 1129SOL    HW1 4103   1.429   0.394   1.502  0.9358 -0.1234 -1.8729
 1129SOL    HW2 4104   1.458   0.260   1.566 -0.1126  1.0081  1.0331
 1130SOL     OW 4105   0.280   4.637   4.201 -0.1532 -0.2483 -0.1208
 1130SOL    HW1 4106   0.305   4.547   4.222 -1.6875 -0.7713 -0.4873
 1130SOL    HW2 4107   0.289   4.642   4.106  0.9963  0.3322  0.0058
 1131SOL     OW 4108   5.052   2.483   5.845 -0.0220  0.2613  0.0349
 1131SOL    HW1 4109   5.046   2.390   5.865 -2.4467  0.3370 -0.1977
 1131SOL    HW2 4110   5.115   2.488   5.773 -0.5754 -1.3014 -0.5685
 1132SOL     OW 4111   3.173   1.719   0.320  0.3965  0.2159 -0.2836
 1132SOL    HW1 4112   3.125   1.796   0.290  0.1589  0.6020  1.0425
 1132SOL    HW2 4113   3.126   1.690   0.398  1.3171 -0.4291  0.0490
 1133SOL     OW 4114   3.744   5.942   5.761 -0.7635 -0.1394 -0.1619
 1133SOL    HW1 4115   3.707   6.030   5.773  2.6959  1.3612  0.1042
 1133SOL    HW2 4116   3.773   5.917   5.849 -0.9552 -1.1827 -0.3957
 1134SOL     OW 4117   5.656   4.065   0.302  0.5024  0.4837 -0.0233
 1134SOL    HW1 4118   5.679   4.130   0.235 -0.7780  0.8278 -0.1356
 1134SOL    HW2 4119   5.718   4.080   0.373 -0.0114  2.0688  0.0967
 1135SOL     OW 4120   2.309   4.933   6.196  0.1675  0.4729  0.0659
 1135SOL    HW1 4121   2.300   5.001   6.129  2.9103  0.5611 -0.2652
 1135SOL    HW2 4122   2.280   4.852   6.152  0.2518  0.8337 -0.6663
 1136SOL     OW 4123   5.567   1.926   5.437  0.6271 -0.4566 -0.3665
 1136SOL    HW1 4124   5.624   1.858   5.475  0.7566 -0.3396 -0.3508
 1136SOL    HW2 4125   5.503   1.945   5.506 -0.5420 -1.8745 -1.0293
 1137SOL     OW 4126   3.263   1.726   1.808 -0.9594 -0.2289  0.6204
 1137SOL    HW1 4127   3.168   1.719   1.796 -1.0317 -0.4880  1.2920
 1137SOL    HW2 4128   3.278   1.696   1.898 -0.0110 -1.9843 -0.0982
 1138SOL     OW 4129   3.327   1.752   2.693 -0.0910 -0.1195  0.4693
 1138SOL    HW1 4130   3.333   1.662   2.661  0.1520 -0.3518  1.1645
 1138SOL    HW2 4131   3.405   1.764   2.747 -1.3512 -0.2808  2.3569
 1139SOL     OW 4132   5.060   1.468   1.902 -0.2828 -0.1972  0.2324
 1139SOL    HW1 4133   5.095   1.497   1.986  1.0644 -0.2700 -0.2989
 1139SOL    HW2 4134   4.973   1.509   1.897  0.6237  1.8197  0.5519
 1140SOL     OW 4135   2.643   3.541   4.904  0.6892 -0.4798  0.0921
 1140SOL    HW1 4136   2.705   3.605   4.937 -0.5920 -0.0060  1.6641
 1140SOL    HW2 4137   2.615   3.492   4.981 -0.2347 -1.2487 -0.7102
 1141SOL     OW 4138   2.062   4.127   3.612  0.1464  0.4155 -0.5026
 1141SOL    HW1 4139   2.133   4.176   3.654 -0.2544 -0.1638  0.8982
 1141SOL    HW2 4140   2.105   4.048   3.579  0.4527  0.8324 -1.0966
 1142SOL     OW 4141   1.789   3.913   5.189  0.7771  0.1963  0.6614
 1142SOL    HW1 4142   1.724   3.983   5.184  1.7199  1.2284  2.1712
 1142SOL    HW2 4143   1.806   3.889   5.098 -1.2044  0.3699  0.2245
 1143SOL     OW 4144   2.469   0.992   3.204  0.2852  0.5729 -0.3686
 1143SOL    HW1 4145   2.453   0.943   3.124 -1.8631  0.9384 -0.1873
 1143SOL    HW2 4146   2.407   1.065   3.201  0.8447  1.1462  1.1629
 1144SOL     OW 4147   5.397   1.774   2.211 -0.3305  0.2093 -0.5561
 1144SOL    HW1 4148   5.459   1.817   2.271 -1.1749  1.2637 -0.4345
 1144SOL    HW2 4149   5.311   1.789   2.251 -0.6099 -1.8758 -0.3423
 1145SOL     OW 4150   6.072   4.707   2.155  0.6494 -0.4025 -0.0824
 1145SOL    HW1 4151   6.076   4.662   2.240 -1.7619  0.9064  0.7532
 1145SOL    HW2 4152   6.006   4.660   2.105 -1.1928  1.5831  0.4425
 1146SOL     OW 4153   6.621   1.360   3.892 -0.1305 -0.3620 -0.0252
 1146SOL    HW1 4154   6.600   1.382   3.983 -0.5818  0.2212 -0.2700
 1146SOL    HW2 4155   6.712   1.332   3.894  0.3228  1.1353  0.3484
 1147SOL     OW 4156   6.521   4.385   6.482  0.4177  0.2665  0.0635
 1147SOL    HW1 4157   6.461   4.363   6.553  0.6593 -2.1524 -0.4313
 1147SOL    HW2 4158   6.481   4.347   6.404  1.4291  0.6206 -0.6468
 1148SOL     OW 4159   1.963   4.031   6.179 -0.2279  0.3245 -0.4944
 1148SOL    HW1 4160   1.955   3.995   6.267 -1.9663 -0.2386 -0.8656
 1148SOL    HW2 4161   1.960   3.955   6.121  2.2421  0.5786 -1.0008
 1149SOL     OW 4162   5.567   4.703   3.573 -0.5311 -0.0752 -0.0570
 1149SOL    HW1 4163   5.573   4.614   3.607  0.1155 -0.7133 -1.7670
 1149SOL    HW2 4164   5.614   4.757   3.637  1.5820 -1.3862 -0.4586
 1150SOL     OW 4165   6.567   0.696   2.050 -0.3225 -0.2618  0.5388
 1150SOL    HW1 4166   6.541   0.616   2.004 -0.0162 -0.3039  0.4394
 1150SOL    HW2 4167   6.655   0.715   2.018 -0.4867  0.2510  0.3797
 1151SOL     OW 4168   5.861   3.429   6.757 -0.2798 -0.2532  0.0226
 1151SOL    HW1 4169   5.815   3.505   6.723 -0.6013 -0.8873 -0.9710
 1151SOL    HW2 4170   5.831   3.422   6.848  0.7548  1.5744  0.5371
 1152SOL     OW 4171   5.984   3.760   0.536 -0.0590  0.2904  0.1390
 1152SOL    HW1 4172   6.077   3.740   0.549 -0.5049  0.0648  3.4207
 1152SOL    HW2 4173   5.984   3.845   0.492  1.6939  0.0540 -0.3709
 1153SOL     OW 4174   2.761   2.530   2.169  0.2848  0.2064  0.5514
 1153SOL    HW1 4175   2.849   2.543   2.206  0.8898 -1.3092 -0.3099
 1153SOL    HW2 4176   2.760   2.586   2.092  0.7009 -0.2101  0.2413
 1154SOL     OW 4177   1.369   4.894   6.717  0.0932  0.2971  0.3594
 1154SOL    HW1 4178   1.285   4.866   6.680  0.8529 -0.5591 -0.7661
 1154SOL    HW2 4179   1.351   4.978   6.758 -1.1932  0.3916 -0.3884
 1155SOL     OW 4180   4.579   5.201   4.396 -0.3776 -0.3413  0.5962
 1155SOL    HW1 4181   4.606   5.127   4.451  0.5445  0.2545  0.9681
 1155SOL    HW2 4182   4.570   5.164   4.308 -0.9186 -1.1020  0.9660
 1156SOL     OW 4183   0.970   1.413   0.153 -0.5195  0.0676  0.0657
 1156SOL    HW1 4184   0.882   1.414   0.114  0.3957 -0.2556 -2.0559
 1156SOL    HW2 4185   0.959   1.458   0.237 -2.4352  1.2684 -0.7864
 1157SOL     OW 4186   4.971   2.472   2.496  0.2723  0.0603 -0.6449
 1157SOL    HW1 4187   4.919   2.447   2.572 -0.9423 -0.4912 -1.6394
 1157SOL    HW2 4188   4.970   2.568   2.497  1.9852  0.1014  1.1659
 1158SOL     OW 4189   0.296   3.679   4.341 -0.2135  0.1983  0.1552
 1158SOL    HW1 4190   0.303   3.719   4.427 -0.0753  1.0810 -0.2584
 1158SOL    HW2 4191   0.206   3.648   4.336 -0.1375 -0.1192  0.7311
 1159SOL     OW 4192   5.492   1.273   0.301 -0.0870 -0.0453 -0.3760
 1159SOL    HW1 4193   5.444   1.305   0.378  0.6654 -1.0104  0.4978
 1159SOL    HW2 4194   5.573   1.238   0.335  0.4895 -0.0285 -1.6802
 1160SOL     OW 4195   0.534   5.233   3.098 -0.1999 -0.3071 -0.2165
 1160SOL    HW1 4196   0.534   5.219   3.193 -0.2910 -1.5901 -0.3902
 1160SOL    HW2 4197   0.445   5.262   3.077 -0.3470 -0.5837  0.0223
 1161SOL     OW 4198   4.230   3.509   4.963 -0.2497  0.4771  0.9865
 1161SOL    HW1 4199   4.202   3.545   5.047 -1.1545  1.9697  0.0795
 1161SOL    HW2 4200   4.285   3.578   4.924  0.5085 -0.3673  0.5359
 1162SOL     OW 4201   2.541   3.448   5.136 -0.1471  0.4257  0.6360
 1162SOL    HW1 4202   2.463   3.501   5.154  0.8538  1.5811  1.6525
 1162SOL    HW2 4203   2.561   3.407   5.220  1.2548  1.3871  0.7893
 1163SOL     OW 4204   1.632   4.197   5.986 -0.2647 -0.3059  0.5142
 1163SOL    HW1 4205   1.601   4.143   6.058 -0.1144  0.2263  0.9856
 1163SOL    HW2 4206   1.563   4.262   5.973 -0.1681 -0.2333  0.3634
 1164SOL     OW 4207   5.538   5.672   5.134 -0.2474 -0.2259  0.3792
 1164SOL    HW1 4208   5.448   5.691   5.107  0.5328  1.9987 -0.8419
 1164SOL    HW2 4209   5.533   5.663   5.229 -1.7911 -0.2845  0.3126
 1165SOL     OW 4210   0.835   3.483   0.108 -0.4811 -0.5180 -0.0429
 1165SOL    HW1 4211   0.861   3.431   0.184 -0.7775 -0.8118 -0.1426
 1165SOL    HW2 4212   0.759   3.438   0.072 -0.1244 -0.5872 -0.7333
 1166SOL     OW 4213   1.877   4.124   3.192  0.6670 -0.4452 -0.0981
 1166SOL    HW1 4214   1.836   4.067   3.257  0.6056 -0.5255 -0.2065
 1166SOL    HW2 4215   1.853   4.212   3.220  1.3845 -0.4314  0.4880
 1167SOL     OW 4216   0.056   0.288   5.946 -0.4470 -0.7357 -0.2045
 1167SOL    HW1 4217   0.087   0.252   6.029 -1.4087 -1.2143 -0.0490
 1167SOL    HW2 4218  -0.026   0.332   5.967  0.5897  1.4068 -0.4366
 1168SOL     OW 4219   3.092   2.279   1.653 -0.0951 -0.0710 -0.2141
 1168SOL    HW1 4220   3.118   2.273   1.561 -0.2362  0.7474 -0.3121
 1168SOL    HW2 4221   3.135   2.205   1.695 -0.4486 -0.7547 -1.0405
 1169SOL     OW 4222   1.232   5.165   5.441  0.0759  0.1623  0.6345
 1169SOL    HW1 4223   1.280   5.083   5.430  0.6384  0.5443  0.2098
 1169SOL    HW2 4224   1.273   5.206   5.518 -1.2080 -0.6513  1.7752
 1170SOL     OW 4225   2.379   3.641   6.676  0.5670  0.1375 -0.8674
 1170SOL    HW1 4226   2.371   3.656   6.582  1.1070 -1.2966 -1.1565
 1170SOL    HW2 4227   2.356   3.549   6.688  0.7500  0.2412  0.3703
 1171SOL     OW 4228   3.164   1.459   0.021 -0.7417  0.8145 -0.3456
 1171SOL    HW1 4229   3.153   1.437  -0.072  0.3422  2.9111 -0.9864
 1171SOL    HW2 4230   3.183   1.553   0.022 -1.1267  0.9022  2.0340
 1172SOL     OW 4231   3.411   5.781   2.486 -0.3918  0.2840  0.0376
 1172SOL    HW1 4232   3.462   5.765   2.406 -2.9392  1.4703 -1.8620
 1172SOL    HW2 4233   3.410   5.876   2.496 -0.7533  0.1818  1.0912
 1173SOL     OW 4234   6.100   6.162   1.380 -0.4079 -0.7890 -0.8957
 1173SOL    HW1 4235   6.113   6.147   1.473 -2.0082 -2.1408 -0.8703
 1173SOL    HW2 4236   6.091   6.257   1.372  2.4025 -0.4210 -0.0635
 1174SOL     OW 4237   6.169   1.325   2.320  0.5578 -0.0148  0.6334
 1174SOL    HW1 4238   6.213   1.259   2.374 -0.2688 -0.5587  0.6648
 1174SOL    HW2 4239   6.088   1.343   2.367 -0.3142 -0.7246 -0.5766
 1175SOL     OW 4240   4.420   1.603   2.435 -0.2175  0.3964  0.4980
 1175SOL    HW1 4241   4.482   1.621   2.505  0.7435  0.9251 -0.4782
 1175SOL    HW2 4242   4.453   1.524   2.392 -1.0141 -0.1505  0.8663
 1176SOL     OW 4243   3.870   1.521   3.619  0.4143  0.3234  0.6801
 1176SOL    HW1 4244   3.806   1.462   3.580 -0.5848  1.0613  1.1733
 1176SOL    HW2 4245   3.950   1.505   3.570 -0.4603  0.2434 -0.7478
 1177SOL     OW 4246   2.432   0.167   5.574 -0.1147 -0.0559 -0.4206
 1177SOL    HW1 4247   2.420   0.128   5.660 -0.6196 -2.5887 -1.5886
 1177SOL    HW2 4248   2.480   0.100   5.524 -0.9545  0.8385 -2.4807
 1178SOL     OW 4249   4.439   5.729   3.157  0.0125 -0.2153 -0.1366
 1178SOL    HW1 4250   4.389   5.742   3.076  1.6761 -1.9257 -1.4823
 1178SOL    HW2 4251   4.401   5.650   3.195  1.0498 -0.9902 -0.6874
 1179SOL     OW 4252   1.621   6.412   0.118  0.3638  0.2855 -0.3693
 1179SOL    HW1 4253   1.584   6.374   0.039  0.8186  0.5403 -0.7045
 1179SOL    HW2 4254   1.567   6.489   0.136 -0.8528 -0.7605  0.5735
 1180SOL     OW 4255   5.754   4.802   4.859  0.0510  0.5668 -0.3198
 1180SOL    HW1 4256   5.754   4.752   4.777 -0.2715  1.8514 -1.1113
 1180SOL    HW2 4257   5.846   4.807   4.885 -0.0516 -1.7917  0.6133
 1181SOL     OW 4258   3.656   5.848   5.440  0.1160 -0.3422 -0.3032
 1181SOL    HW1 4259   3.605   5.902   5.379  0.1863  0.1699  0.0896
 1181SOL    HW2 4260   3.602   5.769   5.452  0.3444 -0.6810 -1.4260
 1182SOL     OW 4261   4.597   0.702   0.646  0.4006  0.9195 -0.1482
 1182SOL    HW1 4262   4.623   0.783   0.692  1.0599  1.4115 -1.3595
 1182SOL    HW2 4263   4.679   0.654   0.635  0.1104  0.4023 -0.0371
 1183SOL     OW 4264   1.549   3.619   4.562  0.3584 -0.3124 -0.7868
 1183SOL    HW1 4265   1.643   3.603   4.559  0.6018  0.3993  2.0795
 1183SOL    HW2 4266   1.539   3.711   4.538  0.6227  0.2608  1.2507
 1184SOL     OW 4267   4.632   0.322   3.034 -0.1527  0.1651  0.1678
 1184SOL    HW1 4268   4.616   0.258   3.104 -1.9662 -1.4617 -1.6819
 1184SOL    HW2 4269   4.616   0.407   3.075  1.6569 -0.5503  2.4903
 1185SOL     OW 4270   0.482   5.212   0.207 -0.2809  0.2751 -0.6589
 1185SOL    HW1 4271   0.429   5.171   0.138 -1.2020  1.2577 -0.5590
 1185SOL    HW2 4272   0.490   5.145   0.275 -1.4361  0.1065 -0.6748
 1186SOL     OW 4273   3.599   5.049   5.183 -0.2015 -0.8950  0.1476
 1186SOL    HW1 4274   3.607   5.144   5.197 -1.0095 -0.9365  0.9515
 1186SOL    HW2 4275   3.555   5.041   5.099 -0.4270 -0.5464  0.2293
 1187SOL     OW 4276   2.312   3.406   0.092  0.9867 -0.1724 -1.5133
 1187SOL    HW1 4277   2.227   3.368   0.073  1.2690 -3.0245  2.3885
 1187SOL    HW2 4278   2.297   3.465   0.165  2.3344 -0.5761 -0.8877
 1188SOL     OW 4279   1.838   1.898   4.056 -0.2870 -0.1877 -0.6178
 1188SOL    HW1 4280   1.790   1.951   4.119 -1.4604 -2.3563  0.3822
 1188SOL    HW2 4281   1.770   1.850   4.008  0.7620 -1.4013 -0.9403
 1189SOL     OW 4282   2.437   1.771   2.193  0.1430  0.1449 -0.0028
 1189SOL    HW1 4283   2.389   1.853   2.179 -0.9051 -0.5855 -0.7187
 1189SOL    HW2 4284   2.388   1.706   2.143  3.5640 -0.0618 -3.3671
 1190SOL     OW 4285   5.422   1.784   6.222  0.0045 -0.1864  0.4993
 1190SOL    HW1 4286   5.444   1.748   6.136 -0.0507 -0.3253  0.5434
 1190SOL    HW2 4287   5.454   1.875   6.219  2.1721 -0.8972  1.1684
 1191SOL     OW 4288   1.200   2.987   4.820  0.3479 -0.4969  0.3738
 1191SOL    HW1 4289   1.159   3.060   4.773 -0.0555  0.3708  2.0274
 1191SOL    HW2 4290   1.133   2.958   4.882  1.0906 -1.2163  0.8543
 1192SOL     OW 4291   4.088   6.278   2.301 -0.1110 -0.1274  0.3376
 1192SOL    HW1 4292   4.002   6.241   2.319 -0.8264  0.8496 -0.9648
 1192SOL    HW2 4293   4.094   6.354   2.359 -0.1309 -0.1974  0.4310
 1193SOL     OW 4294   3.134   5.351   5.910 -0.5171 -0.1644  0.5250
 1193SOL    HW1 4295   3.069   5.402   5.958 -0.1661 -1.0616  2.0101
 1193SOL    HW2 4296   3.182   5.303   5.978 -2.0934 -3.9613 -0.8880
 1194SOL     OW 4297   1.843   4.469   4.615  0.2382  0.6923  0.3090
 1194SOL    HW1 4298   1.804   4.407   4.553  1.0864 -0.9052  1.3368
 1194SOL    HW2 4299   1.777   4.538   4.624 -1.6139 -1.0657  0.6645
 1195SOL     OW 4300   4.599   0.815   6.547  0.1288  0.3196 -0.1780
 1195SOL    HW1 4301   4.513   0.777   6.530  0.4203 -0.4032 -0.0441
 1195SOL    HW2 4302   4.632   0.767   6.622 -0.4707  2.4064  1.4644
 1196SOL     OW 4303   6.658   4.213   2.407 -0.5364 -0.1329 -0.1588
 1196SOL    HW1 4304   6.621   4.205   2.319 -0.5534  1.7198 -0.3423
 1196SOL    HW2 4305   6.591   4.261   2.457 -0.9384 -1.9927  1.1329
 1197SOL     OW 4306   0.794   3.546   5.966  0.1141 -0.2293  0.0482
 1197SOL    HW1 4307   0.823   3.465   6.007 -2.0663 -0.5605  1.0113
 1197SOL    HW2 4308   0.702   3.531   5.946  0.7155  0.4982 -3.6318
 1198SOL     OW 4309   1.200   3.713   4.688  0.0158 -0.6043 -0.5353
 1198SOL    HW1 4310   1.273   3.745   4.741 -0.3850 -0.5464 -0.0122
 1198SOL    HW2 4311   1.122   3.735   4.740 -0.4413  0.4072 -1.6294
 1199SOL     OW 4312   5.238   5.495   2.672  0.3638  0.3363  0.3257
 1199SOL    HW1 4313   5.210   5.501   2.580  0.8030 -1.7183  0.0245
 1199SOL    HW2 4314   5.326   5.531   2.672 -0.0898  1.4634  0.1762
 1200SOL     OW 4315   3.963   5.328   4.353  0.1109  0.0205 -0.9866
 1200SOL    HW1 4316   4.058   5.320   4.351  0.0778 -0.3773 -0.9804
 1200SOL    HW2 4317   3.933   5.254   4.406  0.0546  2.4833  2.5641
 1201SOL     OW 4318   4.021   5.868   2.233  0.4305  0.1375 -0.8559
 1201SOL    HW1 4319   4.045   5.807   2.303 -1.2999  0.0705 -0.2815
 1201SOL    HW2 4320   4.090   5.934   2.234  0.8180 -0.2645  0.4433
 1202SOL     OW 4321   1.210   1.224   3.666  0.6130 -0.1292  0.4217
 1202SOL    HW1 4322   1.137   1.181   3.621  1.1340  0.4417 -1.0375
 1202SOL    HW2 4323   1.234   1.165   3.737 -0.3565 -0.9873  0.0489
 1203SOL     OW 4324   3.957   1.458   5.917  0.0412 -0.4865 -0.1990
 1203SOL    HW1 4325   3.945   1.546   5.953 -0.9530 -0.0362 -1.5768
 1203SOL    HW2 4326   3.966   1.472   5.823 -1.4092 -1.9546 -0.5711
 1204SOL     OW 4327   1.103   5.220   1.432  0.5088  0.5999  0.6966
 1204SOL    HW1 4328   1.098   5.142   1.378 -1.6076  0.6619  0.7632
 1204SOL    HW2 4329   1.157   5.281   1.382  1.8673 -0.7590  0.4823
 1205SOL     OW 4330   0.895   0.576   2.984  0.0741  0.2096 -0.0364
 1205SOL    HW1 4331   0.845   0.547   2.908 -0.5101 -0.4276  0.5898
 1205SOL    HW2 4332   0.840   0.554   3.060  1.3262 -0.5688  0.6615
 1206SOL     OW 4333   1.162   3.373   3.383  0.0511 -0.9889 -0.0349
 1206SOL    HW1 4334   1.080   3.414   3.356  0.0417 -0.2459  1.1341
 1206SOL    HW2 4335   1.172   3.299   3.323  0.0198  0.6317 -2.1017
 1207SOL     OW 4336   5.942   6.391   6.652  0.2647 -0.2230 -0.3435
 1207SOL    HW1 4337   6.016   6.353   6.700 -0.1026 -0.6669 -0.1175
 1207SOL    HW2 4338   5.974   6.476   6.622  0.6450 -0.1164  0.3344
 1208SOL     OW 4339   1.604   4.819   2.601  0.2545 -0.3173 -0.4242
 1208SOL    HW1 4340   1.525   4.771   2.575  0.2645  0.6146 -2.2145
 1208SOL    HW2 4341   1.582   4.856   2.687 -1.1790 -0.2185 -0.8180
 1209SOL     OW 4342   4.361   0.661   5.511 -0.6498 -0.0095  0.4546
 1209SOL    HW1 4343   4.279   0.617   5.490 -0.0425 -1.9542  1.9667
 1209SOL    HW2 4344   4.429   0.610   5.467 -0.0104 -0.0625  1.4797
 1210SOL     OW 4345   5.949   1.113   4.782  0.1080  0.0453  0.2834
 1210SOL    HW1 4346   5.915   1.117   4.871  0.0940 -0.0107  0.2806
 1210SOL    HW2 4347   5.913   1.191   4.739  0.5428  0.3438  0.4702
 1211SOL     OW 4348   6.706   3.941   4.835  0.5987  0.2912  0.0757
 1211SOL    HW1 4349   6.653   3.897   4.769  0.6984  1.9961 -1.1710
 1211SOL    HW2 4350   6.726   4.027   4.797  1.0600  1.1232  2.1140
 1212SOL     OW 4351   3.977   5.319   4.776  0.4799 -0.0588  0.1324
 1212SOL    HW1 4352   3.947   5.242   4.825  0.5114 -0.1583 -0.0066
 1212SOL    HW2 4353   3.897   5.369   4.760  0.5969  0.4913  1.1813
 1213SOL     OW 4354   4.005   2.814   5.317  0.6212  0.2181  0.0941
 1213SOL    HW1 4355   3.924   2.853   5.285  0.6589 -0.2237 -0.5429
 1213SOL    HW2 4356   3.986   2.793   5.409 -0.1151 -0.2337 -0.1568
 1214SOL     OW 4357   2.193   1.017   1.003  0.1883 -0.0154  0.3856
 1214SOL    HW1 4358   2.149   0.939   0.971 -0.3378 -0.1176  1.3355
 1214SOL    HW2 4359   2.132   1.088   0.986  0.8398  0.2630 -0.8583
 1215SOL     OW 4360   6.017   2.558   2.135  0.0158  0.1719  0.3845
 1215SOL    HW1 4361   6.014   2.639   2.083  1.8828  0.4683  0.7058
 1215SOL    HW2 4362   5.925   2.532   2.144 -0.6357  2.3347  0.3812
 1216SOL     OW 4363   3.087   0.217   6.484 -0.1224 -0.2392  0.0824
 1216SOL    HW1 4364   3.122   0.181   6.402 -0.5553 -1.9741  0.6495
 1216SOL    HW2 4365   3.164   0.231   6.538  0.2569  1.7506 -0.9273
 1217SOL     OW 4366   1.537   2.477   2.918 -0.4733  0.0703  0.1337
 1217SOL    HW1 4367   1.582   2.393   2.918  2.0715  1.3768 -0.3813
 1217SOL    HW2 4368   1.470   2.469   2.850 -2.0822 -2.4208  1.9492
 1218SOL     OW 4369   4.696   5.320   3.153  0.0366 -0.3019 -0.0995
 1218SOL    HW1 4370   4.667   5.283   3.236 -0.1630  2.4303  1.0898
 1218SOL    HW2 4371   4.629   5.385   3.131  0.4255 -0.5485 -2.0790
 1219SOL     OW 4372   4.911   6.431   1.029 -0.0840 -0.3145 -0.0165
 1219SOL    HW1 4373   4.907   6.446   0.935  0.5797  2.2675  0.3073
 1219SOL    HW2 4374   4.946   6.343   1.038  1.7634  0.1445 -2.2006
 1220SOL     OW 4375   2.144   6.638   3.007 -0.6926  0.6687 -0.4273
 1220SOL    HW1 4376   2.101   6.723   3.018  0.0002  0.7109  2.2912
 1220SOL    HW2 4377   2.175   6.615   3.095 -2.1081 -3.0755 -0.8041
 1221SOL     OW 4378   0.848   0.845   4.179 -0.0041  0.1795  0.2467
 1221SOL    HW1 4379   0.760   0.867   4.150  0.0113 -1.0187 -0.7263
 1221SOL    HW2 4380   0.837   0.818   4.271 -0.4284  1.4350  0.5720
 1222SOL     OW 4381   3.424   4.064   4.507  0.4058  0.0252  0.5880
 1222SOL    HW1 4382   3.462   3.977   4.496 -0.7700 -0.4740  0.3361
 1222SOL    HW2 4383   3.462   4.116   4.437 -1.4214 -1.1967 -1.3949
 1223SOL     OW 4384   4.780   6.757   4.940 -0.3228  0.1642  0.2387
 1223SOL    HW1 4385   4.833   6.688   4.900  0.0747 -0.5785  2.0080
 1223SOL    HW2 4386   4.843   6.815   4.982 -0.7388  0.9439 -0.1922
 1224SOL     OW 4387   4.520   5.878   2.676 -0.2665  0.0544 -0.3365
 1224SOL    HW1 4388   4.473   5.830   2.744 -1.7278  1.8080 -0.0713
 1224SOL    HW2 4389   4.477   5.854   2.595  0.1936 -0.5028 -0.4172
 1225SOL     OW 4390   6.535   2.703   3.258 -0.5810 -0.1258  0.3603
 1225SOL    HW1 4391   6.469   2.721   3.324 -0.6918 -1.5457  0.6485
 1225SOL    HW2 4392   6.614   2.681   3.308 -0.5126 -0.6486  0.0292
 1226SOL     OW 4393   2.440   5.507   3.065 -0.7868  0.1792  0.2234
 1226SOL    HW1 4394   2.480   5.487   3.150 -1.0081 -0.5456  0.1645
 1226SOL    HW2 4395   2.508   5.552   3.016  0.1446 -1.4892 -0.0644
 1227SOL     OW 4396   3.623   4.015   0.030 -0.2469  0.0852  0.0504
 1227SOL    HW1 4397   3.581   3.971  -0.043  0.6735 -2.4445  0.9865
 1227SOL    HW2 4398   3.582   3.979   0.108 -0.6775  2.1824  0.8320
 1228SOL     OW 4399   4.593   3.225   2.051  0.4901  0.3930 -0.1191
 1228SOL    HW1 4400   4.536   3.168   1.999  2.5545 -0.0333 -1.9997
 1228SOL    HW2 4401   4.653   3.165   2.096  0.8076  0.9454  0.2078
 1229SOL     OW 4402   0.429   1.553   2.633 -0.3935  0.7914  0.0819
 1229SOL    HW1 4403   0.513   1.595   2.651 -0.1848  0.0061  0.9813
 1229SOL    HW2 4404   0.377   1.621   2.591  0.6085  1.3566 -0.2759
 1230SOL     OW 4405   1.899   2.839   5.492  0.2197 -0.8496  0.2878
 1230SOL    HW1 4406   1.834   2.770   5.506 -1.7958  1.0967  0.8835
 1230SOL    HW2 4407   1.952   2.839   5.572 -0.8177 -0.6382  0.9863
 1231SOL     OW 4408   4.055   2.671   6.542  0.4268 -0.4602 -0.2145
 1231SOL    HW1 4409   4.090   2.613   6.609  0.1809 -2.2676 -1.6061
 1231SOL    HW2 4410   4.110   2.654   6.465  1.6643  2.6301 -0.1233
 1232SOL     OW 4411   3.887   4.888   1.832  0.0273 -0.5343  0.1810
 1232SOL    HW1 4412   3.866   4.825   1.763  1.8787 -2.6167  1.4752
 1232SOL    HW2 4413   3.965   4.853   1.874  1.0708  2.6062  1.0137
 1233SOL     OW 4414   5.816   4.819   0.020 -0.2458  0.2913  0.3470
 1233SOL    HW1 4415   5.780   4.907   0.033 -0.7643  0.1213  0.0736
 1233SOL    HW2 4416   5.747   4.771  -0.026  0.5272  0.1165 -0.6553
 1234SOL     OW 4417   0.418   3.982   0.894 -0.0023  0.0283  0.0587
 1234SOL    HW1 4418   0.349   4.012   0.954 -0.9816 -0.3431 -0.8523
 1234SOL    HW2 4419   0.402   3.887   0.885 -0.3039  0.1940 -1.3135
 1235SOL     OW 4420   4.263   3.342   6.616 -0.2537 -0.1821 -0.2942
 1235SOL    HW1 4421   4.333   3.391   6.575  0.6051 -1.2277 -0.1042
 1235SOL    HW2 4422   4.223   3.403   6.678  0.9396  0.2002  0.1016
 1236SOL     OW 4423   0.726   6.605   3.243  0.7762  0.2227  0.0830
 1236SOL    HW1 4424   0.717   6.685   3.296  0.8146 -0.8618  1.7726
 1236SOL    HW2 4425   0.809   6.567   3.271  0.9325 -0.2337 -0.9797
 1237SOL     OW 4426   0.674   4.175   3.976 -0.7367  0.2181  0.0605
 1237SOL    HW1 4427   0.725   4.229   3.915 -2.8366  0.9068 -1.1341
 1237SOL    HW2 4428   0.583   4.196   3.956 -1.6268 -3.7924 -0.4339
 1238SOL     OW 4429   2.247   1.662   1.253 -0.5268 -0.6522  0.2832
 1238SOL    HW1 4430   2.327   1.627   1.292 -0.1357 -1.3816 -1.1550
 1238SOL    HW2 4431   2.193   1.584   1.238 -0.0460 -0.5549 -2.0615
 1239SOL     OW 4432   1.132   6.616   4.848 -0.3916  0.4263 -0.2995
 1239SOL    HW1 4433   1.131   6.522   4.826  3.4275  0.1758  0.1875
 1239SOL    HW2 4434   1.167   6.619   4.937 -0.5212  2.3319 -0.2943
 1240SOL     OW 4435   2.933   4.285   6.058  0.3258  0.2384  0.4085
 1240SOL    HW1 4436   2.883   4.297   6.139 -0.1875  1.0675 -0.0265
 1240SOL    HW2 4437   2.868   4.259   5.993  0.9868 -2.0431  0.6301
 1241SOL     OW 4438   4.756   5.103   0.934  0.5210 -0.2871 -0.0214
 1241SOL    HW1 4439   4.711   5.018   0.935  1.4375 -0.7723  1.3396
 1241SOL    HW2 4440   4.747   5.136   1.023 -0.9560  1.6700 -0.8596
 1242SOL     OW 4441   4.615   1.377   1.482  0.7845  0.2894 -0.4913
 1242SOL    HW1 4442   4.639   1.310   1.418  0.7133 -0.1208 -0.0904
 1242SOL    HW2 4443   4.614   1.458   1.432 -1.1163 -0.2825 -1.4401
 1243SOL     OW 4444   4.573   6.486   6.168 -0.2181  0.3704  0.3036
 1243SOL    HW1 4445   4.515   6.413   6.148  1.5179 -0.8676 -0.2950
 1243SOL    HW2 4446   4.599   6.520   6.082  0.3604  0.5975  0.5648
 1244SOL     OW 4447   1.457   6.351   1.598  0.2948 -0.3110  0.5673
 1244SOL    HW1 4448   1.471   6.286   1.667  0.5018  0.5773  1.3760
 1244SOL    HW2 4449   1.546   6.373   1.568  0.1250 -2.2083 -1.4328
 1245SOL     OW 4450   0.078   0.063   5.746  0.1732  0.3127  0.2376
 1245SOL    HW1 4451   0.141   0.081   5.676 -0.0134 -1.8369 -0.5066
 1245SOL    HW2 4452   0.041   0.149   5.767  1.3601  1.2081 -1.2013
 1246SOL     OW 4453   4.028   3.542   0.634 -0.0228 -0.1604  0.0597
 1246SOL    HW1 4454   3.958   3.491   0.595 -0.9909  2.3247 -1.5735
 1246SOL    HW2 4455   3.983   3.606   0.690  1.2091 -1.7574  3.0092
 1247SOL     OW 4456   5.142   4.911   6.607  0.2184 -0.0402 -0.1984
 1247SOL    HW1 4457   5.185   4.990   6.642 -1.0777  0.2964  0.6669
 1247SOL    HW2 4458   5.056   4.941   6.579 -0.0505 -1.0293 -0.4414
 1248SOL     OW 4459   0.879   1.615   5.623 -0.4053  0.1243  0.5480
 1248SOL    HW1 4460   0.910   1.633   5.534 -0.4926 -0.8732  0.3041
 1248SOL    HW2 4461   0.924   1.679   5.677  0.2966  0.2069 -0.1118
 1249SOL     OW 4462   5.213   1.797   5.828  0.5424 -0.3579 -0.9550
 1249SOL    HW1 4463   5.249   1.830   5.746  1.4613  2.8386  0.6476
 1249SOL    HW2 4464   5.288   1.758   5.873  0.6675  0.4347 -0.4548
 1250SOL     OW 4465   5.875   6.656   3.468  0.2995 -0.5183  0.2619
 1250SOL    HW1 4466   5.961   6.691   3.444  1.1912 -2.5500  0.3329
 1250SOL    HW2 4467   5.878   6.647   3.563 -0.8389  1.4951  0.5074
 1251SOL     OW 4468   4.161   3.086   3.619 -0.7353  0.2802 -0.0677
 1251SOL    HW1 4469   4.233   3.129   3.664 -0.0271 -0.7066 -0.2375
 1251SOL    HW2 4470   4.203   3.026   3.557 -1.6764  1.5413 -2.0178
 1252SOL     OW 4471   0.352   1.095   0.821  0.1843 -0.5403 -0.9774
 1252SOL    HW1 4472   0.284   1.142   0.773 -0.2141  0.1593  0.2339
 1252SOL    HW2 4473   0.346   1.005   0.790 -1.6219 -0.5896 -0.5385
 1253SOL     OW 4474   6.422   3.356   4.443 -0.4631 -0.0223 -0.4924
 1253SOL    HW1 4475   6.480   3.281   4.431 -0.3828  0.0788 -0.7390
 1253SOL    HW2 4476   6.425   3.374   4.537  0.7052  0.6263 -0.6476
 1254SOL     OW 4477   2.523   2.995   1.913 -0.0638 -0.6536 -0.0628
 1254SOL    HW1 4478   2.577   2.916   1.922 -0.4840 -0.7146  2.2523
 1254SOL    HW2 4479   2.434   2.965   1.931 -0.4159  0.0810 -0.5756
 1255SOL     OW 4480   0.287   4.800   4.940  0.1890  0.1401  0.5167
 1255SOL    HW1 4481   0.277   4.777   5.033  0.5679  0.4475  0.6384
 1255SOL    HW2 4482   0.273   4.895   4.938 -2.9750 -0.3051 -0.2118
 1256SOL     OW 4483   4.049   4.573   2.199 -0.2983 -0.0900  0.5196
 1256SOL    HW1 4484   4.050   4.604   2.290 -0.5998  1.9115 -0.1362
 1256SOL    HW2 4485   4.070   4.480   2.205 -1.5635 -0.2590  2.7396
 1257SOL     OW 4486   0.940   4.817   4.103  0.2182  0.3593  0.0839
 1257SOL    HW1 4487   0.898   4.805   4.189 -0.1130  1.5856  0.0966
 1257SOL    HW2 4488   1.028   4.849   4.124 -0.4603  2.3903 -0.0647
 1258SOL     OW 4489   3.112   4.567   2.971 -0.1075 -0.6445 -0.4202
 1258SOL    HW1 4490   3.027   4.604   2.950  0.5698  0.1106 -1.8645
 1258SOL    HW2 4491   3.169   4.595   2.900  1.4803 -0.6677  0.8099
 1259SOL     OW 4492   0.849   1.849   0.336 -0.2994 -0.4487  0.0538
 1259SOL    HW1 4493   0.854   1.906   0.412 -0.1491  0.5100 -0.6612
 1259SOL    HW2 4494   0.867   1.761   0.370 -0.8767 -0.1280  1.2198
 1260SOL     OW 4495   0.577   1.278   5.889  0.1285  0.6609  0.2226
 1260SOL    HW1 4496   0.506   1.216   5.907 -0.5423  1.6066  0.8575
 1260SOL    HW2 4497   0.656   1.232   5.919 -0.3714  0.1571  0.7914
 1261SOL     OW 4498   2.372   0.373   3.786 -0.1131 -0.9680  0.3298
 1261SOL    HW1 4499   2.324   0.455   3.794  0.3901 -0.6206 -0.1761
 1261SOL    HW2 4500   2.358   0.345   3.695 -0.1453 -1.3564  0.4512
 1262SOL     OW 4501   4.518   3.041   4.111 -0.2188  0.0926 -0.2720
 1262SOL    HW1 4502   4.480   2.955   4.127 -1.1550  0.7024  0.9123
 1262SOL    HW2 4503   4.463   3.101   4.162 -0.2575  1.5215 -1.9188
 1263SOL     OW 4504   2.664   4.186   5.910 -0.0195 -0.3353 -0.7200
 1263SOL    HW1 4505   2.653   4.135   5.830 -2.7313 -0.1881 -0.4844
 1263SOL    HW2 4506   2.584   4.238   5.916 -0.1245 -0.7848  2.4037
 1264SOL     OW 4507   0.559   1.118   6.214  0.5054 -0.0821  0.3449
 1264SOL    HW1 4508   0.628   1.185   6.209 -0.6358  1.2077  1.5232
 1264SOL    HW2 4509   0.606   1.038   6.240  1.4255  1.0212  2.1653
 1265SOL     OW 4510   0.555   4.814   0.970  0.1647  0.1638  0.3199
 1265SOL    HW1 4511   0.617   4.879   0.939  0.6979 -0.1318  0.7678
 1265SOL    HW2 4512   0.546   4.752   0.897  0.4775  0.1493  0.2934
 1266SOL     OW 4513   4.211   5.199   4.933 -0.1593 -0.1214 -0.0643
 1266SOL    HW1 4514   4.133   5.234   4.888  0.6961  2.8901  0.6968
 1266SOL    HW2 4515   4.192   5.210   5.026  1.0375  0.3278  0.1311
 1267SOL     OW 4516   4.406   0.630   3.447 -0.0106 -0.6400  0.5628
 1267SOL    HW1 4517   4.314   0.615   3.422  0.1794 -0.7544 -0.0735
 1267SOL    HW2 4518   4.410   0.605   3.539 -0.3800 -1.6681  0.3035
 1268SOL     OW 4519   3.693   3.457   5.135  0.4827 -0.4366 -0.3900
 1268SOL    HW1 4520   3.623   3.498   5.084 -0.1081 -1.3885 -0.3651
 1268SOL    HW2 4521   3.706   3.514   5.210  1.8529  1.3799 -1.9555
 1269SOL     OW 4522   1.060   6.491   1.093 -0.2528 -0.3052 -0.3988
 1269SOL    HW1 4523   1.111   6.509   1.172 -1.5575 -0.1530  0.4335
 1269SOL    HW2 4524   1.119   6.513   1.020  1.7279 -2.4899  0.4860
 1270SOL     OW 4525   4.283   3.861   3.566  0.4288 -0.0847  0.6247
 1270SOL    HW1 4526   4.355   3.897   3.617  1.1618 -0.1860 -0.3266
 1270SOL    HW2 4527   4.278   3.917   3.489 -0.2658 -0.3103  0.4987
 1271SOL     OW 4528   3.644   0.962   5.438  0.3100  0.4540 -0.0156
 1271SOL    HW1 4529   3.722   1.000   5.397  2.0125 -2.0171  0.8224
 1271SOL    HW2 4530   3.662   0.963   5.532 -0.4574 -0.5279  0.1572
 1272SOL     OW 4531   6.278   6.620   2.557 -0.0137  0.0362  0.2601
 1272SOL    HW1 4532   6.324   6.620   2.641  0.2165  0.0237  0.1364
 1272SOL    HW2 4533   6.213   6.689   2.565 -0.1981 -0.1701  0.5585
 1273SOL     OW 4534   0.236   2.261   1.205  0.2201 -0.5589  0.3936
 1273SOL    HW1 4535   0.281   2.343   1.185 -1.9215  0.5908  0.2231
 1273SOL    HW2 4536   0.253   2.205   1.130  2.7492 -0.7555  1.0667
 1274SOL     OW 4537   6.209   3.379   0.163 -0.2862 -0.2812  0.1356
 1274SOL    HW1 4538   6.232   3.407   0.252 -0.1271  1.2163 -0.3660
 1274SOL    HW2 4539   6.291   3.385   0.114 -0.4664 -0.6850 -0.2179
 1275SOL     OW 4540   0.426   1.002   3.893  0.0641  0.1970  0.2002
 1275SOL    HW1 4541   0.492   0.977   3.828 -0.6452 -0.9605 -0.1023
 1275SOL    HW2 4542   0.350   0.948   3.871 -0.6556  0.8060  1.1480
 1276SOL     OW 4543   4.130   1.857   3.955  0.5453  0.4247 -0.2835
 1276SOL    HW1 4544   4.101   1.768   3.934  1.4612  0.0796 -0.0771
 1276SOL    HW2 4545   4.225   1.854   3.950  0.5702  1.5067 -0.7112
 1277SOL     OW 4546   2.834   0.104   0.941 -0.5548 -0.0417 -0.0292
 1277SOL    HW1 4547   2.921   0.076   0.910 -0.9453 -0.4501 -0.7754
 1277SOL    HW2 4548   2.773   0.052   0.889 -1.2823  1.5870 -0.8001
 1278SOL     OW 4549   1.830   0.706   5.146  0.5019  0.4876  0.8382
 1278SOL    HW1 4550   1.913   0.748   5.167  1.2554  0.3660 -1.7300
 1278SOL    HW2 4551   1.776   0.776   5.111  0.5779 -0.0066 -0.2802
 1279SOL     OW 4552   0.309   2.022   1.025 -0.0833 -0.3498  0.1773
 1279SOL    HW1 4553   0.329   2.009   0.932 -0.4253 -1.4708  0.2466
 1279SOL    HW2 4554   0.231   1.968   1.040  0.0460 -0.2721  1.1459
 1280SOL     OW 4555   5.244   4.549   5.680 -0.3960 -0.6079 -0.3548
 1280SOL    HW1 4556   5.238   4.467   5.728 -1.0322 -1.3907 -1.7735
 1280SOL    HW2 4557   5.209   4.530   5.593  2.0835  0.4202 -1.6345
 1281SOL     OW 4558   3.487   4.896   5.703  0.3354 -0.3706  0.4651
 1281SOL    HW1 4559   3.530   4.973   5.666 -0.6544  0.8680  1.8568
 1281SOL    HW2 4560   3.397   4.923   5.718  0.0081 -1.7626  1.0979
 1282SOL     OW 4561   4.534   4.491   3.476 -0.1559  0.0225  0.4705
 1282SOL    HW1 4562   4.448   4.460   3.450 -0.0678  1.9008 -2.3577
 1282SOL    HW2 4563   4.518   4.572   3.525 -0.0288  0.3757 -0.0601
 1283SOL     OW 4564   4.616   4.692   6.209  1.0737  0.2181 -0.0014
 1283SOL    HW1 4565   4.645   4.724   6.124 -0.1968  1.9096  0.1903
 1283SOL    HW2 4566   4.543   4.634   6.189  1.8932 -0.7794 -0.1716
 1284SOL     OW 4567   2.725   1.483   1.964  0.2115  0.4820  0.1098
 1284SOL    HW1 4568   2.636   1.499   1.997  0.4425  2.0134  0.0332
 1284SOL    HW2 4569   2.747   1.396   1.997 -0.7237  0.7227  1.4372
 1285SOL     OW 4570   4.223   0.592   6.690 -0.1500  0.2421  0.2984
 1285SOL    HW1 4571   4.319   0.593   6.687 -0.1455 -0.3994  0.1614
 1285SOL    HW2 4572   4.198   0.684   6.693  0.4750  0.4096  0.4109
 1286SOL     OW 4573   6.662   6.317   5.165 -0.4039  0.9187  0.8889
 1286SOL    HW1 4574   6.658   6.410   5.142 -0.1762  1.0811  1.4939
 1286SOL    HW2 4575   6.609   6.274   5.099  0.0730  1.4008  0.1765
 1287SOL     OW 4576   6.474   4.952   4.279 -0.1552  0.2362  0.1726
 1287SOL    HW1 4577   6.480   4.882   4.345 -4.8038  1.1851  1.8219
 1287SOL    HW2 4578   6.422   4.914   4.209  0.8240  0.7570 -0.8510
 1288SOL     OW 4579   1.793   0.043   6.258  0.3966 -0.8726  0.5045
 1288SOL    HW1 4580   1.777  -0.017   6.185 -0.5626 -0.2233  0.1579
 1288SOL    HW2 4581   1.880   0.021   6.289 -0.0865 -2.6614  0.6043
 1289SOL     OW 4582   5.525   6.332   5.039  0.5159  0.5004  0.4140
 1289SOL    HW1 4583   5.484   6.246   5.029 -0.2846  0.7887  1.1243
 1289SOL    HW2 4584   5.515   6.374   4.953  1.4132 -0.3204 -0.1035
 1290SOL     OW 4585   2.324   1.643   6.458  0.3407 -0.2218 -0.1207
 1290SOL    HW1 4586   2.271   1.649   6.379 -0.9887 -0.6520  0.7197
 1290SOL    HW2 4587   2.346   1.734   6.479  0.7413 -0.1107 -1.0004
 1291SOL     OW 4588   2.970   1.178   2.587  0.2215  0.1091 -0.7008
 1291SOL    HW1 4589   2.960   1.141   2.499  0.9284 -0.9179 -0.3627
 1291SOL    HW2 4590   3.020   1.112   2.635  1.3429  1.4212 -0.0193
 1292SOL     OW 4591   0.671   2.140   4.009 -0.0377 -0.1318 -0.4759
 1292SOL    HW1 4592   0.710   2.103   3.930  1.2176 -0.0901  0.0942
 1292SOL    HW2 4593   0.611   2.072   4.041  0.0970 -0.4962 -0.9997
 1293SOL     OW 4594   2.019   5.250   0.865  0.1602  0.3536 -0.1073
 1293SOL    HW1 4595   2.003   5.196   0.788  0.4108 -1.3562  0.9977
 1293SOL    HW2 4596   2.114   5.248   0.876  0.0409 -0.5099  0.9684
 1294SOL     OW 4597   4.673   5.792   2.044 -0.3467  0.1394  0.0859
 1294SOL    HW1 4598   4.614   5.733   2.089  0.2295 -0.9732 -0.5792
 1294SOL    HW2 4599   4.742   5.735   2.010  0.9511  1.3719  0.6022
 1295SOL     OW 4600   2.314   0.573   4.050  0.0598 -0.1390 -0.4439
 1295SOL    HW1 4601   2.234   0.567   4.102  0.4622 -3.0198 -0.0516
 1295SOL    HW2 4602   2.285   0.591   3.961 -0.9359  0.2764 -0.0329
 1296SOL     OW 4603   4.344   0.924   6.695  0.2039 -0.1034 -0.3387
 1296SOL    HW1 4604   4.369   1.016   6.709 -3.4051  0.5134  2.9314
 1296SOL    HW2 4605   4.387   0.877   6.766 -1.0129 -0.3035  0.2830
 1297SOL     OW 4606   4.463   5.111   3.316  0.5172  0.1048 -0.0908
 1297SOL    HW1 4607   4.437   5.083   3.228  1.8600 -0.7353 -0.2438
 1297SOL    HW2 4608   4.382   5.114   3.366 -0.3101  0.9383 -1.4589
 1298SOL     OW 4609   0.815   0.585   0.483  0.0974 -0.2306  0.2945
 1298SOL    HW1 4610   0.877   0.658   0.484 -1.9288  1.5372  0.6241
 1298SOL    HW2 4611   0.856   0.519   0.427  1.8539  1.2393 -0.1960
 1299SOL     OW 4612   3.757   2.469   5.496  0.0719  0.2920 -0.8021
 1299SOL    HW1 4613   3.759   2.409   5.422  1.8392  0.5938 -1.0131
 1299SOL    HW2 4614   3.801   2.422   5.567 -1.2989  0.1377 -0.0242
 1300SOL     OW 4615   2.954   5.446   2.117  0.5507 -0.9471 -0.3961
 1300SOL    HW1 4616   3.012   5.478   2.048  1.2861  0.2736  0.7603
 1300SOL    HW2 4617   3.012   5.427   2.191 -0.6309  1.8096  1.3350
 1301SOL     OW 4618   5.521   3.343   4.084  0.5549 -0.4565  0.6657
 1301SOL    HW1 4619   5.486   3.405   4.149  0.5044  0.8451 -0.5649
 1301SOL    HW2 4620   5.444   3.317   4.033  1.0245  0.7813 -0.7069
 1302SOL     OW 4621   4.745   1.898   1.086 -0.2661  0.4638  0.2699
 1302SOL    HW1 4622   4.777   1.927   1.171 -0.5143 -1.9299  1.2370
 1302SOL    HW2 4623   4.816   1.846   1.050 -0.4574  0.8322 -0.6554
 1303SOL     OW 4624   1.683   1.509   4.291  0.1194 -0.0885  0.1775
 1303SOL    HW1 4625   1.696   1.604   4.297  0.4228 -0.0650 -0.8104
 1303SOL    HW2 4626   1.766   1.472   4.321  0.4804 -0.0209 -0.7342
 1304SOL     OW 4627   4.197   5.895   0.917  0.1326  0.6003  0.5905
 1304SOL    HW1 4628   4.192   5.963   0.849 -0.1473 -0.1943 -0.1997
 1304SOL    HW2 4629   4.108   5.862   0.923  0.7891 -1.5420 -0.9590
 1305SOL     OW 4630   5.313   3.733   4.065 -0.3119 -0.1831 -0.4477
 1305SOL    HW1 4631   5.306   3.816   4.113  0.3446 -1.1268  1.3231
 1305SOL    HW2 4632   5.225   3.696   4.070 -0.0527 -0.6474  0.7208
 1306SOL     OW 4633   3.312   3.497   0.003  0.1026 -0.0999  0.3476
 1306SOL    HW1 4634   3.346   3.570   0.054  0.1801 -0.5348  0.9256
 1306SOL    HW2 4635   3.364   3.422   0.031  0.6139 -0.2187 -0.8758
 1307SOL     OW 4636   1.887   2.403   4.462  0.2005 -0.5086 -0.0288
 1307SOL    HW1 4637   1.944   2.450   4.523  0.3219 -0.6288 -0.0512
 1307SOL    HW2 4638   1.934   2.405   4.379  0.3564 -0.9710  0.0525
 1308SOL     OW 4639   6.428   3.452   5.682  0.2476  0.0013  0.1670
 1308SOL    HW1 4640   6.487   3.382   5.656 -1.5953 -1.3260 -0.5817
 1308SOL    HW2 4641   6.435   3.455   5.777  0.9503 -0.6595  0.1380
 1309SOL     OW 4642   2.458   1.524   3.317  0.3867 -0.0426 -0.2632
 1309SOL    HW1 4643   2.514   1.601   3.309 -0.0231  0.2579 -0.2294
 1309SOL    HW2 4644   2.414   1.517   3.232 -0.8739  0.7694  0.3102
 1310SOL     OW 4645   1.090   4.546   3.360  0.0137  0.1783  0.0683
 1310SOL    HW1 4646   1.105   4.577   3.449  0.5209  0.0943  0.0163
 1310SOL    HW2 4647   1.074   4.626   3.309 -3.4514  0.0187  0.8060
 1311SOL     OW 4648   5.719   2.168   5.429  0.3484 -0.2329  0.6750
 1311SOL    HW1 4649   5.659   2.219   5.483  0.4986 -1.4791  2.0642
 1311SOL    HW2 4650   5.685   2.079   5.434 -0.3007 -0.1986 -2.2574
 1312SOL     OW 4651   4.733   5.792   3.772 -0.1707  0.2125 -0.0260
 1312SOL    HW1 4652   4.801   5.858   3.783 -1.7030  1.5907  1.5350
 1312SOL    HW2 4653   4.759   5.721   3.831  0.0612  0.6175  0.3595
 1313SOL     OW 4654   2.751   6.584   1.716 -0.3711  0.4047  0.3170
 1313SOL    HW1 4655   2.739   6.539   1.632  1.7019 -1.3776  0.9481
 1313SOL    HW2 4656   2.830   6.546   1.753 -2.5115 -0.5192  4.1849
 1314SOL     OW 4657   3.325   2.846   5.733  0.4776  0.1461 -0.4821
 1314SOL    HW1 4658   3.349   2.791   5.658 -0.6356  0.3545 -0.9995
 1314SOL    HW2 4659   3.409   2.873   5.770  1.0399 -2.3802  0.1527
 1315SOL     OW 4660   6.130   3.815   4.985  0.4233 -0.2322 -0.2026
 1315SOL    HW1 4661   6.045   3.779   5.008  0.5239  0.3963  1.1942
 1315SOL    HW2 4662   6.111   3.903   4.953  0.3021 -1.0275 -2.4412
 1316SOL     OW 4663   6.167   4.538   4.051  0.3162 -0.4831  0.3117
 1316SOL    HW1 4664   6.178   4.596   3.976  0.3620  0.1281  0.7830
 1316SOL    HW2 4665   6.249   4.488   4.055  0.0376 -1.0170 -0.4520
 1317SOL     OW 4666   6.687   4.915   5.768  0.4735  0.0222 -0.2208
 1317SOL    HW1 4667   6.779   4.929   5.791  0.3396 -0.3846  0.5784
 1317SOL    HW2 4668   6.669   4.981   5.701  0.8221  1.4091  1.0054
 1318SOL     OW 4669   6.469   2.256   1.780 -0.0555 -0.0668  0.1238
 1318SOL    HW1 4670   6.522   2.306   1.718  0.3188  0.2622  0.6968
 1318SOL    HW2 4671   6.496   2.165   1.766 -1.5341 -0.2607 -1.6901
 1319SOL     OW 4672   5.274   6.175   0.384  0.3271  0.3935 -0.1743
 1319SOL    HW1 4673   5.273   6.151   0.292  0.7419  0.5211 -0.2135
 1319SOL    HW2 4674   5.283   6.092   0.431 -2.1977  0.1059 -0.1536
 1320SOL     OW 4675   2.968   4.457   0.870  0.1531 -0.2027  0.3199
 1320SOL    HW1 4676   2.988   4.372   0.909  0.1952 -1.0428 -1.4778
 1320SOL    HW2 4677   3.044   4.512   0.892  1.5423 -1.5195 -1.0608
 1321SOL     OW 4678   5.707   0.191   3.278  0.3878  0.5162  0.1572
 1321SOL    HW1 4679   5.695   0.120   3.216 -1.3241  1.9044 -1.1474
 1321SOL    HW2 4680   5.639   0.177   3.344  0.3329  0.6878  0.1371
 1322SOL     OW 4681   5.057   0.071   6.107 -0.2579  0.0288 -0.2971
 1322SOL    HW1 4682   5.150   0.083   6.124 -0.1794 -1.0824  0.0398
 1322SOL    HW2 4683   5.043   0.113   6.022  0.7755 -0.7868 -0.8841
 1323SOL     OW 4684   0.916   0.469   4.268 -0.2244 -0.7063 -0.5713
 1323SOL    HW1 4685   0.822   0.479   4.280 -0.0496 -1.7614  1.9546
 1323SOL    HW2 4686   0.934   0.378   4.290  1.4879 -0.3152 -0.2241
 1324SOL     OW 4687   5.264   0.066   2.034  0.2406 -0.1766  0.2335
 1324SOL    HW1 4688   5.262   0.013   1.954 -1.6669 -1.1580  0.8882
 1324SOL    HW2 4689   5.171   0.077   2.057  0.6622  2.0960  1.0156
 1325SOL     OW 4690   0.308   1.382   3.115  0.0376  0.5976 -0.4605
 1325SOL    HW1 4691   0.223   1.426   3.107 -0.2891 -0.1691 -1.2760
 1325SOL    HW2 4692   0.301   1.331   3.195  0.7624  2.7617  1.0109
 1326SOL     OW 4693   2.139   5.610   5.082  0.3086  0.8562 -0.4029
 1326SOL    HW1 4694   2.073   5.677   5.068  0.3354  1.0905  0.5457
 1326SOL    HW2 4695   2.128   5.550   5.008 -1.5894  0.3879  0.2246
 1327SOL     OW 4696   1.168   3.489   1.429  0.0752 -0.2189 -0.3762
 1327SOL    HW1 4697   1.107   3.425   1.467 -0.6114  1.6368  1.6845
 1327SOL    HW2 4698   1.172   3.560   1.492  3.5187  0.2522 -1.0315
 1328SOL     OW 4699   1.107   0.100   1.842 -0.0342 -0.2558  0.1511
 1328SOL    HW1 4700   1.058   0.163   1.894 -3.3817 -1.6580 -1.1392
 1328SOL    HW2 4701   1.094   0.016   1.887 -0.6524 -1.0104 -1.3958
 1329SOL     OW 4702   2.709   4.429   1.740  0.5452  0.1631  0.1255
 1329SOL    HW1 4703   2.725   4.357   1.678 -0.6888  1.1469 -1.3926
 1329SOL    HW2 4704   2.655   4.491   1.690  1.9983  2.3718  1.2427
 1330SOL     OW 4705   3.127   4.380   3.884  0.6540 -0.1256  0.0820
 1330SOL    HW1 4706   3.195   4.353   3.821  0.8401 -0.9225  0.6134
 1330SOL    HW2 4707   3.049   4.332   3.857  0.1362  1.1965 -0.8527
 1331SOL     OW 4708   4.864   3.996   2.432 -0.0364 -0.2805  0.0703
 1331SOL    HW1 4709   4.888   4.088   2.443 -0.2308 -0.2514  0.2497
 1331SOL    HW2 4710   4.841   3.987   2.339 -2.7133  0.4816  0.6135
 1332SOL     OW 4711   6.651   3.422   2.009  0.0801  0.5459  0.5190
 1332SOL    HW1 4712   6.743   3.437   2.031  0.0149  2.2407 -0.3251
 1332SOL    HW2 4713   6.636   3.330   2.032  2.1340  0.0841  0.1195
 1333SOL     OW 4714   4.566   0.267   4.633 -0.0095  0.0496  0.3677
 1333SOL    HW1 4715   4.478   0.238   4.610  0.8211 -1.8004 -0.5363
 1333SOL    HW2 4716   4.592   0.323   4.560 -0.2190  0.1658  0.3802
 1334SOL     OW 4717   2.581   6.175   3.620 -0.0879  0.3448  0.4742
 1334SOL    HW1 4718   2.665   6.217   3.600 -0.3714  0.3332 -0.7941
 1334SOL    HW2 4719   2.523   6.203   3.548 -0.3661 -1.9332 -0.2194
 1335SOL     OW 4720   2.251   5.089   6.643 -0.3170 -0.4165 -0.0372
 1335SOL    HW1 4721   2.190   5.152   6.605 -2.2482 -1.3023  1.5069
 1335SOL    HW2 4722   2.335   5.135   6.644 -0.9672  0.8837 -2.0493
 1336SOL     OW 4723   6.736   2.617   1.630  0.1500 -0.0769 -0.0619
 1336SOL    HW1 4724   6.737   2.550   1.561  0.9254 -0.9554  0.7945
 1336SOL    HW2 4725   6.824   2.654   1.629 -0.1452  0.6362 -0.2318
 1337SOL     OW 4726   0.144   2.923   4.511  1.1473 -0.5177 -0.1001
 1337SOL    HW1 4727   0.111   2.936   4.422  1.4633 -0.9173 -0.2798
 1337SOL    HW2 4728   0.215   2.859   4.501  2.9607  1.4183  0.0906
 1338SOL     OW 4729   2.438   1.971   1.502 -0.0893 -0.4358 -0.2938
 1338SOL    HW1 4730   2.462   1.884   1.535  0.1497  0.1024  1.0034
 1338SOL    HW2 4731   2.345   1.964   1.481 -0.1787 -0.8942  0.2231
 1339SOL     OW 4732   6.366   2.836   6.025  0.1477 -0.4738  0.1818
 1339SOL    HW1 4733   6.421   2.908   6.056  0.6846 -1.2909  1.1625
 1339SOL    HW2 4734   6.429   2.767   6.001 -0.4331 -1.3907  1.2493
 1340SOL     OW 4735   5.068   4.983   1.788  0.2895 -0.3700 -0.0096
 1340SOL    HW1 4736   5.072   5.023   1.874 -0.2758  1.5742 -0.8542
 1340SOL    HW2 4737   4.986   4.932   1.788  0.2490 -0.3012  0.5663
 1341SOL     OW 4738   0.629   4.367   4.567 -0.2487 -0.1653 -0.3031
 1341SOL    HW1 4739   0.557   4.373   4.631 -1.0247  1.7600 -1.3028
 1341SOL    HW2 4740   0.605   4.294   4.510 -1.0159 -0.0295 -0.1571
 1342SOL     OW 4741   3.443   1.386   5.167  0.2339  0.3958  0.0166
 1342SOL    HW1 4742   3.451   1.328   5.242  0.1072  1.6980  1.0688
 1342SOL    HW2 4743   3.501   1.460   5.187  0.4312  0.6277 -1.3065
 1343SOL     OW 4744   4.399   6.219   3.411 -0.3809  0.2303  0.7594
 1343SOL    HW1 4745   4.465   6.163   3.370 -1.5850 -0.0028 -0.8691
 1343SOL    HW2 4746   4.451   6.283   3.460  1.0444 -0.3976  0.1190
 1344SOL     OW 4747   2.721   1.839   0.235  0.1039  0.1722 -0.1310
 1344SOL    HW1 4748   2.723   1.915   0.177  4.5264 -1.2753 -2.1342
 1344SOL    HW2 4749   2.778   1.863   0.308 -0.9618 -0.1006  0.8077
 1345SOL     OW 4750   4.500   5.083   5.257  0.0983 -0.0912 -0.0010
 1345SOL    HW1 4751   4.480   5.095   5.349 -0.2169  1.7551 -0.2958
 1345SOL    HW2 4752   4.560   5.008   5.255  0.6683  0.2993  1.7654
 1346SOL     OW 4753   1.646   1.505   3.435 -0.0420 -0.2910  0.0454
 1346SOL    HW1 4754   1.592   1.488   3.357 -1.3810  2.1607  0.3493
 1346SOL    HW2 4755   1.705   1.575   3.408  1.5220 -1.4654  0.3789
 1347SOL     OW 4756   0.397   5.677   3.326  0.4003  0.4051  0.2529
 1347SOL    HW1 4757   0.446   5.716   3.398 -1.8464 -0.2185  2.2023
 1347SOL    HW2 4758   0.343   5.610   3.368 -1.4307  0.4595 -1.9280
 1348SOL     OW 4759   0.801   3.874   0.279  0.4256 -0.7490 -0.2543
 1348SOL    HW1 4760   0.883   3.840   0.243  0.8401  0.7352 -0.7963
 1348SOL    HW2 4761   0.741   3.876   0.204 -0.2064 -2.1100  0.2059
 1349SOL     OW 4762   6.384   1.992   6.261 -0.0860  0.0327  0.1790
 1349SOL    HW1 4763   6.312   2.023   6.316  0.3671 -0.6822  1.1966
 1349SOL    HW2 4764   6.457   1.979   6.322  1.2339  1.7311 -0.9882
 1350SOL     OW 4765   5.061   4.307   5.654  0.0084  0.4649  1.0076
 1350SOL    HW1 4766   5.062   4.283   5.561 -0.5537  2.9166  0.3365
 1350SOL    HW2 4767   5.041   4.225   5.699  0.4896 -0.8144 -1.0092
 1351SOL     OW 4768   6.270   1.502   5.446  0.2291  0.0947  0.2101
 1351SOL    HW1 4769   6.257   1.433   5.512  1.9790 -0.2746  0.2037
 1351SOL    HW2 4770   6.316   1.458   5.374 -1.7362  0.4795 -1.3154
 1352SOL     OW 4771   6.176   1.996   6.694  0.3992  0.2762  0.4757
 1352SOL    HW1 4772   6.222   2.026   6.616  0.1080  0.9537  0.5531
 1352SOL    HW2 4773   6.223   1.918   6.722  0.8696  0.3772 -0.0294
 1353SOL     OW 4774   2.040   6.672   2.210 -0.0432  0.3263  0.4250
 1353SOL    HW1 4775   2.032   6.673   2.305 -0.0718 -0.6144  0.4354
 1353SOL    HW2 4776   2.130   6.698   2.193  0.1250 -0.0561  0.7318
 1354SOL     OW 4777   4.289   5.201   1.575  0.1451 -0.1942  0.1032
 1354SOL    HW1 4778   4.316   5.283   1.533 -1.2334  0.3922  0.3180
 1354SOL    HW2 4779   4.368   5.148   1.578  0.7490  0.6043 -1.2745
 1355SOL     OW 4780   0.682   3.179   0.821 -0.0916  0.0845  0.0791
 1355SOL    HW1 4781   0.758   3.227   0.852 -1.1024  1.3174  0.7121
 1355SOL    HW2 4782   0.620   3.181   0.894 -1.4948  0.7990 -1.0923
 1356SOL     OW 4783   2.459   6.338   6.749  0.1481  0.5288  0.1181
 1356SOL    HW1 4784   2.390   6.303   6.693  1.4811 -1.8717 -0.0704
 1356SOL    HW2 4785   2.434   6.312   6.837  0.7653 -0.3082  0.0538
 1357SOL     OW 4786   6.354   3.640   1.557  0.2552 -0.3205  0.1060
 1357SOL    HW1 4787   6.428   3.672   1.506  0.6798 -2.1604 -0.4370
 1357SOL    HW2 4788   6.317   3.719   1.597  0.3382  1.0788 -2.4765
 1358SOL     OW 4789   2.828   0.092   3.606 -0.0867 -0.2316  0.4863
 1358SOL    HW1 4790   2.799   0.161   3.667  0.6243  0.1881  0.3498
 1358SOL    HW2 4791   2.747   0.057   3.569 -0.4153  1.1031 -0.0642
 1359SOL     OW 4792   1.616   5.129   3.679  0.1764 -0.2310 -0.5881
 1359SOL    HW1 4793   1.666   5.143   3.760 -0.6218  0.3759 -0.1911
 1359SOL    HW2 4794   1.680   5.098   3.616  0.3899 -3.2265  0.9855
 1360SOL     OW 4795   3.461   0.273   0.417 -0.0188 -0.2554  0.0935
 1360SOL    HW1 4796   3.493   0.238   0.500  0.3603 -0.6572 -0.2170
 1360SOL    HW2 4797   3.541   0.300   0.371 -0.2542  0.2933  0.0114
 1361SOL     OW 4798   2.574   5.480   3.311  0.2609 -0.1266  0.4857
 1361SOL    HW1 4799   2.564   5.526   3.395  1.5701  0.1922  0.4790
 1361SOL    HW2 4800   2.669   5.481   3.295  0.0921 -0.9887 -0.5502
 1362SOL     OW 4801   0.149   3.444   2.282 -0.0430  0.0771  0.5744
 1362SOL    HW1 4802   0.241   3.463   2.268 -0.0164  0.9398  1.8059
 1362SOL    HW2 4803   0.103   3.509   2.229  0.0568 -0.2254  0.1168
 1363SOL     OW 4804   0.260   2.568   4.033 -0.1369 -0.3745 -0.2558
 1363SOL    HW1 4805   0.273   2.544   4.125  0.7644  0.3616 -0.1835
 1363SOL    HW2 4806   0.180   2.523   4.008 -1.4447  0.9394  1.4395
 1364SOL     OW 4807   2.920   0.776   2.432 -0.1957  0.3438 -0.0287
 1364SOL    HW1 4808   2.937   0.865   2.399  1.5900 -0.6072 -1.7343
 1364SOL    HW2 4809   2.986   0.722   2.390 -0.4910 -1.6184  1.9729
 1365SOL     OW 4810   0.834   3.411   3.994 -0.3520 -0.4194 -0.6893
 1365SOL    HW1 4811   0.833   3.369   3.908  1.3728 -0.1160 -0.8615
 1365SOL    HW2 4812   0.805   3.342   4.054  1.4500 -1.5862 -1.1137
 1366SOL     OW 4813   5.462   1.879   5.179  0.7860  0.4848 -0.1806
 1366SOL    HW1 4814   5.483   1.965   5.142  0.2993  0.9180  0.5439
 1366SOL    HW2 4815   5.492   1.884   5.270  1.9492 -0.5627 -0.4821
 1367SOL     OW 4816   4.082   5.975   3.901 -0.0114  0.0982  0.1050
 1367SOL    HW1 4817   4.083   5.891   3.946 -1.2243  0.4307  0.7555
 1367SOL    HW2 4818   4.170   5.983   3.864  1.0988 -0.0284  2.6521
 1368SOL     OW 4819   3.143   4.459   1.856 -1.2034  0.1547  0.3050
 1368SOL    HW1 4820   3.170   4.380   1.809  0.7713 -0.6511  2.6867
 1368SOL    HW2 4821   3.161   4.531   1.796  0.6412 -0.9054 -0.4417
 1369SOL     OW 4822   5.895   6.104   1.830  0.2668  0.1619  0.1301
 1369SOL    HW1 4823   5.845   6.161   1.771 -0.5348  0.4493  1.0620
 1369SOL    HW2 4824   5.849   6.112   1.914 -0.2966 -2.4295  0.1034
 1370SOL     OW 4825   3.773   4.314   4.334  0.0055  0.2900 -0.5339
 1370SOL    HW1 4826   3.858   4.272   4.334  0.4461  1.1693 -0.0662
 1370SOL    HW2 4827   3.792   4.407   4.319 -0.8666  0.4826 -0.4690
 1371SOL     OW 4828   1.762   5.751   0.380  0.3155  0.0553 -0.5045
 1371SOL    HW1 4829   1.840   5.719   0.425  1.3565  0.8507 -1.7064
 1371SOL    HW2 4830   1.739   5.832   0.427 -0.5044 -0.8034  0.5980
 1372SOL     OW 4831   2.921   5.401   0.618  0.1080 -0.5350  0.1984
 1372SOL    HW1 4832   3.004   5.449   0.624  0.6311 -1.1738 -1.5739
 1372SOL    HW2 4833   2.873   5.445   0.548 -0.7688 -0.6116  0.7453
 1373SOL     OW 4834   3.535   3.186   5.627  0.0813  0.1327  0.4552
 1373SOL    HW1 4835   3.569   3.191   5.538  0.7755  2.5321  0.8345
 1373SOL    HW2 4836   3.449   3.143   5.618 -0.9764  2.6133 -1.7022
 1374SOL     OW 4837   2.228   1.482   3.453 -0.4350 -0.6141 -0.3081
 1374SOL    HW1 4838   2.307   1.474   3.401  0.6397 -3.0480  1.5849
 1374SOL    HW2 4839   2.234   1.568   3.494  1.0374 -0.6396 -0.4732
 1375SOL     OW 4840   1.986   5.466   2.582 -0.4363  0.1528  0.5004
 1375SOL    HW1 4841   1.931   5.452   2.505  1.3112  0.3578 -0.8179
 1375SOL    HW2 4842   1.968   5.557   2.607 -2.4722 -0.5064  1.5484
 1376SOL     OW 4843   2.398   5.440   0.591  0.1427 -0.3296 -0.2719
 1376SOL    HW1 4844   2.365   5.522   0.629 -1.4526 -0.8096 -0.5508
 1376SOL    HW2 4845   2.421   5.463   0.501 -1.1724 -0.3652 -0.6367
 1377SOL     OW 4846   0.284   0.040   2.677 -0.1442 -0.2623 -0.1663
 1377SOL    HW1 4847   0.281   0.085   2.592  0.0644 -0.3546 -0.2240
 1377SOL    HW2 4848   0.340  -0.036   2.661 -0.3570 -0.4464 -0.0254
 1378SOL     OW 4849   0.237   0.424   0.418 -0.4898 -0.0411  0.6394
 1378SOL    HW1 4850   0.312   0.390   0.468  0.2082  0.3006 -0.1602
 1378SOL    HW2 4851   0.213   0.504   0.463  1.1548  1.1115 -0.4741
 1379SOL     OW 4852   0.941   0.359   4.598 -0.2751 -0.0235  0.0926
 1379SOL    HW1 4853   0.851   0.375   4.571 -0.1848  0.3532  0.0217
 1379SOL    HW2 4854   0.993   0.425   4.552 -0.1801  0.9186  1.5210
 1380SOL     OW 4855   2.520   4.901   6.408  0.2537 -0.3679 -0.1808
 1380SOL    HW1 4856   2.464   4.857   6.472 -0.1891  1.1284  0.4736
 1380SOL    HW2 4857   2.460   4.928   6.339  0.4494 -0.4000 -0.3602
 1381SOL     OW 4858   2.799   2.440   4.687 -0.3787 -0.3391  0.1931
 1381SOL    HW1 4859   2.814   2.374   4.755  2.4410  0.5493  0.4822
 1381SOL    HW2 4860   2.798   2.523   4.734 -2.0496  0.0192 -0.4258
 1382SOL     OW 4861   4.325   4.883   0.168 -0.1800  0.3716 -0.4138
 1382SOL    HW1 4862   4.394   4.837   0.121  0.0694  0.4407 -0.1156
 1382SOL    HW2 4863   4.247   4.828   0.159 -0.3275  0.7545 -1.5565
 1383SOL     OW 4864   4.779   2.537   2.260  0.0097 -0.0446  0.1439
 1383SOL    HW1 4865   4.864   2.574   2.281  0.0589  0.2647 -0.5798
 1383SOL    HW2 4866   4.784   2.516   2.167 -0.7891  0.2128  0.0356
 1384SOL     OW 4867   0.550   4.975   4.306  0.5292 -0.0104  0.7915
 1384SOL    HW1 4868   0.517   4.886   4.307 -0.7233  0.3149 -3.1405
 1384SOL    HW2 4869   0.645   4.966   4.309  0.3901 -1.4284  1.1205
 1385SOL     OW 4870   5.553   3.076   5.479  0.3948 -0.9096 -0.1921
 1385SOL    HW1 4871   5.597   3.092   5.396 -0.6289  0.5112 -0.4851
 1385SOL    HW2 4872   5.512   3.160   5.501 -0.0602 -1.5039  1.3159
 1386SOL     OW 4873   1.404   3.998   0.918  0.0023  0.1603 -0.2611
 1386SOL    HW1 4874   1.327   3.941   0.914  1.9810 -2.7637  1.4153
 1386SOL    HW2 4875   1.379   4.068   0.977 -0.9499 -1.4969  1.3394
 1387SOL     OW 4876   6.753   2.430   2.832 -0.1206  0.2361 -0.5584
 1387SOL    HW1 4877   6.670   2.386   2.813  0.1274 -0.0510 -0.9848
 1387SOL    HW2 4878   6.750   2.446   2.927 -0.2390 -0.6719 -0.3972
 1388SOL     OW 4879   1.239   1.918   1.521  0.5031 -0.7062  0.1256
 1388SOL    HW1 4880   1.272   1.996   1.478 -1.7529 -0.3885 -1.0731
 1388SOL    HW2 4881   1.314   1.884   1.570  2.2270  0.7207 -1.4641
 1389SOL     OW 4882   4.847   5.325   5.975 -0.3193 -0.1139  0.0017
 1389SOL    HW1 4883   4.916   5.266   5.945  2.0857  2.8085 -0.4640
 1389SOL    HW2 4884   4.864   5.336   6.068  0.1475  0.9847 -0.2104
 1390SOL     OW 4885   2.385   0.676   5.520 -0.5270  0.4263  0.4249
 1390SOL    HW1 4886   2.377   0.582   5.506 -3.0377  0.0020  4.0827
 1390SOL    HW2 4887   2.467   0.686   5.569 -0.9600 -0.0617  1.2720
 1391SOL     OW 4888   3.925   1.371   1.797 -0.1751  0.1906 -0.5076
 1391SOL    HW1 4889   3.931   1.464   1.773  2.1901  0.2545  0.2126
 1391SOL    HW2 4890   3.871   1.371   1.876  0.2741  1.0164 -0.1934
 1392SOL     OW 4891   0.100   4.311   1.856 -0.4927  0.1107  0.0670
 1392SOL    HW1 4892   0.120   4.232   1.906 -1.7495 -0.7438 -0.7318
 1392SOL    HW2 4893   0.185   4.344   1.828  0.0437 -1.0694  0.2644
 1393SOL     OW 4894   1.292   0.706   4.006  0.0208 -0.0789 -0.1187
 1393SOL    HW1 4895   1.283   0.645   3.932 -2.4188  1.9564 -1.5736
 1393SOL    HW2 4896   1.211   0.695   4.056  0.6122  0.2819  0.9265
 1394SOL     OW 4897   0.616   3.348   5.754  0.0206  0.0476 -0.0045
 1394SOL    HW1 4898   0.553   3.291   5.798  1.2150  0.2476  2.0444
 1394SOL    HW2 4899   0.583   3.357   5.665 -2.0293 -1.0499  0.6235
 1395SOL     OW 4900   1.877   0.103   0.035  0.2266 -0.3119 -0.0050
 1395SOL    HW1 4901   1.863   0.014   0.002 -0.9549  0.2026 -0.9017
 1395SOL    HW2 4902   1.829   0.106   0.118 -0.0991 -0.3658 -0.1931
 1396SOL     OW 4903   6.761   6.574   2.059 -0.2749  0.1171 -0.2064
 1396SOL    HW1 4904   6.827   6.529   2.007 -0.9621 -0.4838 -0.5680
 1396SOL    HW2 4905   6.678   6.535   2.032 -0.9700  2.0533 -1.0157
 1397SOL     OW 4906   4.350   0.640   0.706  0.4329  0.2376  0.0412
 1397SOL    HW1 4907   4.356   0.585   0.784 -0.2275 -0.3259 -0.2952
 1397SOL    HW2 4908   4.438   0.677   0.696  0.7723 -0.4318  0.5122
 1398SOL     OW 4909   0.756   6.091   2.960 -0.4077  0.1169  0.3801
 1398SOL    HW1 4910   0.669   6.095   2.919  0.0082  1.6890 -0.3718
 1398SOL    HW2 4911   0.812   6.051   2.894 -0.2077  0.6097  0.2528
 1399SOL     OW 4912   1.087   3.290   4.935 -0.2438 -0.3866  0.2036
 1399SOL    HW1 4913   1.043   3.271   4.852  1.1637 -0.9762 -0.4269
 1399SOL    HW2 4914   1.177   3.310   4.910 -0.2815  1.3339  1.4231
 1400SOL     OW 4915   0.021   4.234   5.560  0.0498 -0.6095  0.6062
 1400SOL    HW1 4916   0.028   4.318   5.606 -0.4524  0.2956 -0.9152
 1400SOL    HW2 4917  -0.054   4.245   5.502  0.8670 -1.6033 -0.6747
 1401SOL     OW 4918   3.519   2.014   6.671 -0.2021  0.5904 -0.0631
 1401SOL    HW1 4919   3.431   2.005   6.634  0.3312 -0.0951 -1.1738
 1401SOL    HW2 4920   3.505   2.006   6.766 -1.1754 -0.8826 -0.3006
 1402SOL     OW 4921   6.664   5.245   3.888 -0.5400  0.2567  0.2366
 1402SOL    HW1 4922   6.693   5.158   3.913 -1.8801 -0.4388 -0.5950
 1402SOL    HW2 4923   6.569   5.243   3.899 -0.7193  1.2126 -0.9886
 1403SOL     OW 4924   5.004   2.975   1.729 -0.1565 -0.5446 -0.2118
 1403SOL    HW1 4925   5.078   2.915   1.725  0.6758  0.4656 -0.1340
 1403SOL    HW2 4926   4.949   2.950   1.655 -0.7694 -2.6249  0.9185
 1404SOL     OW 4927   3.538   4.968   3.825 -0.5658 -0.1391 -0.2407
 1404SOL    HW1 4928   3.608   4.912   3.857 -0.1965 -0.1094 -0.9691
 1404SOL    HW2 4929   3.567   4.994   3.737 -1.2675  0.2551 -0.3596
 1405SOL     OW 4930   2.127   3.877   2.086  0.1026  0.6128 -0.0578
 1405SOL    HW1 4931   2.045   3.830   2.100 -0.7719  2.4167  1.0637
 1405SOL    HW2 4932   2.187   3.811   2.051 -0.6273 -1.7299  2.8514
 1406SOL     OW 4933   3.799   0.114   2.845 -0.4207 -0.5117 -0.0759
 1406SOL    HW1 4934   3.713   0.122   2.886 -0.1510  2.6063  0.0016
 1406SOL    HW2 4935   3.787   0.146   2.756  0.2033 -2.0880 -0.7415
 1407SOL     OW 4936   3.032   3.835   5.154 -0.0190  0.1494  0.2147
 1407SOL    HW1 4937   3.047   3.878   5.238 -0.4750  0.1570  0.2957
 1407SOL    HW2 4938   3.103   3.865   5.098 -0.0180  0.5670  0.4415
 1408SOL     OW 4939   3.646   2.265   0.061  0.1191 -0.6080  0.4496
 1408SOL    HW1 4940   3.655   2.184   0.112  0.2510 -0.4264  0.7164
 1408SOL    HW2 4941   3.573   2.248   0.002  0.2789 -1.0006  0.3585
 1409SOL     OW 4942   0.369   5.495   2.345  0.1774 -0.3314 -0.4226
 1409SOL    HW1 4943   0.434   5.458   2.406 -0.0816 -0.5471 -0.2719
 1409SOL    HW2 4944   0.326   5.564   2.395 -0.5850 -1.0381 -0.0798
 1410SOL     OW 4945   4.743   5.913   5.095  0.0643 -0.1253 -0.3014
 1410SOL    HW1 4946   4.681   5.874   5.034  1.0055 -1.4126 -0.4541
 1410SOL    HW2 4947   4.772   5.993   5.052  1.6153 -1.6189 -2.1034
 1411SOL     OW 4948   5.976   6.651   6.513  0.6040 -0.1590  0.0798
 1411SOL    HW1 4949   5.900   6.705   6.535  0.8560  0.7676 -1.2489
 1411SOL    HW2 4950   5.958   6.619   6.425  1.4155 -0.5544  0.0512
 1412SOL     OW 4951   6.421   4.687   5.460  0.3996 -0.8397  0.4199
 1412SOL    HW1 4952   6.364   4.731   5.523 -0.1766  0.2717 -0.8658
 1412SOL    HW2 4953   6.502   4.671   5.509 -0.4913 -1.1480  1.8275
 1413SOL     OW 4954   0.681   5.587   6.069  0.1916 -0.6070  0.3107
 1413SOL    HW1 4955   0.603   5.535   6.089  0.2648 -0.3608  1.2635
 1413SOL    HW2 4956   0.660   5.630   5.986 -1.2654  0.6079  1.2880
 1414SOL     OW 4957   2.150   5.426   4.900  0.4842 -0.2812  0.0241
 1414SOL    HW1 4958   2.179   5.429   4.809 -1.8515  0.3386 -0.7466
 1414SOL    HW2 4959   2.107   5.340   4.908  2.4961 -1.2088  1.1497
 1415SOL     OW 4960   1.107   3.786   1.827  0.1651  0.2231 -0.2986
 1415SOL    HW1 4961   1.095   3.858   1.765 -2.2722  0.1988  0.0997
 1415SOL    HW2 4962   1.057   3.714   1.789  1.8629 -1.0009 -0.2518
 1416SOL     OW 4963   4.663   2.228   4.206 -0.0916 -0.3926  0.2335
 1416SOL    HW1 4964   4.609   2.277   4.144  1.1613  0.2070 -0.3967
 1416SOL    HW2 4965   4.738   2.199   4.154  1.3703  0.7940  1.6555
 1417SOL     OW 4966   2.965   6.453   3.712 -0.2633 -0.3405 -1.0012
 1417SOL    HW1 4967   2.991   6.545   3.699 -2.0268  0.2120 -0.7187
 1417SOL    HW2 4968   3.048   6.405   3.714  0.9588  1.6941  2.5013
 1418SOL     OW 4969   0.183   3.341   3.967  0.2477 -0.0864  0.3415
 1418SOL    HW1 4970   0.193   3.431   3.935  3.2338  0.0665  1.5124
 1418SOL    HW2 4971   0.124   3.349   4.042  1.1294  1.0663  0.9420
 1419SOL     OW 4972   4.992   4.231   4.089 -0.0395  0.2977  0.1984
 1419SOL    HW1 4973   4.961   4.146   4.057 -1.4594  0.3878  1.3271
 1419SOL    HW2 4974   5.085   4.215   4.110  0.5489 -0.1402 -2.4964
 1420SOL     OW 4975   4.569   4.247   2.165  0.2976 -0.0179 -0.0471
 1420SOL    HW1 4976   4.514   4.210   2.234  0.2071  0.6270  0.2344
 1420SOL    HW2 4977   4.640   4.291   2.213  0.0938  0.6489 -0.3605
 1421SOL     OW 4978   4.145   6.157   1.384 -0.3223  0.8129 -0.0641
 1421SOL    HW1 4979   4.214   6.141   1.447  0.8152  4.0484 -0.4432
 1421SOL    HW2 4980   4.151   6.083   1.323 -0.0458 -1.1841  2.3387
 1422SOL     OW 4981   3.004   4.642   1.305 -0.1556 -0.3034 -0.1187
 1422SOL    HW1 4982   2.976   4.711   1.245  2.4675  0.3762 -0.6341
 1422SOL    HW2 4983   3.057   4.686   1.370  0.6249 -1.6572  0.1896
 1423SOL     OW 4984   5.947   2.198   4.595  0.1200  0.1016 -0.5382
 1423SOL    HW1 4985   5.952   2.224   4.687  0.4058  0.9264 -0.7824
 1423SOL    HW2 4986   6.038   2.202   4.564  0.0223 -0.1520 -0.8573
 1424SOL     OW 4987   0.765   1.964   6.112 -0.4744 -0.1888 -0.4499
 1424SOL    HW1 4988   0.713   1.937   6.187  2.2183 -1.8453  0.8684
 1424SOL    HW2 4989   0.776   1.885   6.060 -0.4131  0.4513 -1.4214
 1425SOL     OW 4990   3.699   2.664   1.264  0.3385 -0.0177  0.0851
 1425SOL    HW1 4991   3.694   2.606   1.188 -0.1280 -1.8308  1.4525
 1425SOL    HW2 4992   3.699   2.604   1.339 -2.7631  1.8134  1.6456
 1426SOL     OW 4993   5.168   3.296   6.688  0.1999  0.6455  0.7005
 1426SOL    HW1 4994   5.131   3.294   6.600  0.1981 -0.0604  0.7137
 1426SOL    HW2 4995   5.261   3.315   6.676  0.1823  0.6328  0.5505
 1427SOL     OW 4996   2.822   6.033   6.241  0.6101 -0.3976 -0.2088
 1427SOL    HW1 4997   2.869   6.000   6.318  1.4560 -1.9950 -1.3686
 1427SOL    HW2 4998   2.885   6.089   6.197 -0.7245  2.5932  1.5871
 1428SOL     OW 4999   2.020   5.461   1.650  0.3848  0.4126  0.0665
 1428SOL    HW1 5000   1.997   5.553   1.635 -0.1808  0.2945  0.2082
 1428SOL    HW2 5001   1.968   5.412   1.587  0.5964  0.1736  0.0733
 1429SOL     OW 5002   1.587   2.745   5.220 -0.1217 -0.5440 -0.1590
 1429SOL    HW1 5003   1.502   2.788   5.214 -0.0934 -0.1071  2.1673
 1429SOL    HW2 5004   1.576   2.679   5.289  1.4790 -0.3291  0.3261
 1430SOL     OW 5005   1.470   2.132   5.748  0.1494  0.5758  0.6948
 1430SOL    HW1 5006   1.522   2.116   5.669  0.6207  0.6308  0.9942
 1430SOL    HW2 5007   1.532   2.122   5.820 -0.1531  1.0952  1.0298
 1431SOL     OW 5008   5.552   0.003   3.718 -0.0461 -0.0344 -0.7120
 1431SOL    HW1 5009   5.578  -0.076   3.765  0.4059  1.0090  0.7992
 1431SOL    HW2 5010   5.560   0.074   3.781 -1.3674  1.1119 -1.7711
 1432SOL     OW 5011   0.068   1.513   2.279  0.0304  0.3117  0.4005
 1432SOL    HW1 5012  -0.011   1.482   2.235  0.4416  0.0314 -0.1279
 1432SOL    HW2 5013   0.131   1.529   2.209  0.4343  0.5821  0.8194
 1433SOL     OW 5014   5.250   2.940   2.195 -0.0110 -0.0430  0.0849
 1433SOL    HW1 5015   5.339   2.917   2.224  0.5334  0.0181 -1.4870
 1433SOL    HW2 5016   5.237   2.890   2.115 -0.2308  2.2114 -1.3511
 1434SOL     OW 5017   6.653   5.124   2.854  0.2089 -0.1130 -0.2571
 1434SOL    HW1 5018   6.562   5.122   2.824  0.2240 -0.3268 -0.2861
 1434SOL    HW2 5019   6.658   5.201   2.910 -0.1493 -0.4616  0.2510
 1435SOL     OW 5020   6.562   1.570   0.949 -0.1158  0.5655  0.5013
 1435SOL    HW1 5021   6.554   1.542   1.040 -0.3023  1.5924  0.7962
 1435SOL    HW2 5022   6.646   1.615   0.944 -0.0402  0.3884  0.1345
 1436SOL     OW 5023   0.926   3.211   6.517  0.3106  0.2163  0.4336
 1436SOL    HW1 5024   0.865   3.222   6.444  0.4422  1.6298  0.5227
 1436SOL    HW2 5025   0.873   3.175   6.588  0.3401 -1.8881 -0.5734
 1437SOL     OW 5026   1.845   4.982   3.928 -0.8121  0.1699 -0.6408
 1437SOL    HW1 5027   1.761   5.021   3.950 -0.3335  0.2274  1.1970
 1437SOL    HW2 5028   1.905   5.056   3.920 -0.6351  0.0382 -0.5430
 1438SOL     OW 5029   6.581   0.167   2.372 -0.5311 -0.3096 -0.0201
 1438SOL    HW1 5030   6.631   0.172   2.290  0.6373  1.2917  0.7382
 1438SOL    HW2 5031   6.500   0.123   2.349  0.0460 -0.4247 -1.9119
 1439SOL     OW 5032   1.301   5.351   2.416 -0.5969  0.0660  0.1078
 1439SOL    HW1 5033   1.332   5.314   2.498  0.3988 -0.5789 -0.5599
 1439SOL    HW2 5034   1.215   5.311   2.403  0.0387 -1.2587 -0.1018
 1440SOL     OW 5035   5.726   0.406   4.682 -0.2505  0.3308 -0.2667
 1440SOL    HW1 5036   5.679   0.433   4.761 -0.0565  0.6196 -0.2526
 1440SOL    HW2 5037   5.817   0.430   4.697 -0.2831  0.7870 -0.7558
 1441SOL     OW 5038   6.216   4.356   1.107 -0.4170  0.1447 -0.5107
 1441SOL    HW1 5039   6.238   4.388   1.194  2.2021  1.2020 -1.5028
 1441SOL    HW2 5040   6.242   4.263   1.108  2.3848  0.8697 -1.0213
 1442SOL     OW 5041   2.179   3.145   2.920 -0.2530  0.0056  0.0962
 1442SOL    HW1 5042   2.190   3.224   2.973  0.7347 -0.5516  0.7309
 1442SOL    HW2 5043   2.267   3.106   2.916 -0.8727 -1.4418  0.3883
 1443SOL     OW 5044   1.339   6.141   5.077  0.4430 -0.3415  0.6297
 1443SOL    HW1 5045   1.299   6.226   5.061 -0.0333 -0.3856  1.5272
 1443SOL    HW2 5046   1.354   6.103   4.990  1.8272  1.1908  0.1764
 1444SOL     OW 5047   5.739   3.191   2.777  0.0410 -0.1120 -0.5552
 1444SOL    HW1 5048   5.716   3.102   2.752  0.3992 -0.6998  1.1785
 1444SOL    HW2 5049   5.831   3.200   2.751  0.2012 -0.4673 -0.0949
 1445SOL     OW 5050   1.811   1.656   1.269 -0.2022  1.0473  0.1828
 1445SOL    HW1 5051   1.833   1.691   1.183  0.3453 -0.4998 -0.3164
 1445SOL    HW2 5052   1.721   1.626   1.261  0.3327 -0.4931 -0.3292
 1446SOL     OW 5053   0.396   4.758   3.211  0.0098 -0.0526 -0.2668
 1446SOL    HW1 5054   0.325   4.698   3.232 -1.5769  1.2530 -1.8384
 1446SOL    HW2 5055   0.459   4.705   3.162 -0.7078 -0.7649 -0.4232
 1447SOL     OW 5056   4.283   2.218   6.038  0.5845  0.2826 -0.5167
 1447SOL    HW1 5057   4.203   2.165   6.037 -0.2739  1.5011  1.3695
 1447SOL    HW2 5058   4.296   2.243   5.946 -1.2143  0.0748 -0.8506
 1448SOL     OW 5059   2.273   2.929   2.013  0.2879  0.7706  0.7065
 1448SOL    HW1 5060   2.247   2.840   2.035  0.2731 -0.2262 -3.0035
 1448SOL    HW2 5061   2.191   2.973   1.992  0.6759  0.3059 -1.9139
 1449SOL     OW 5062   0.689   5.129   1.127  0.1529  0.1981 -0.4497
 1449SOL    HW1 5063   0.745   5.105   1.201  1.0259  0.6953 -0.9489
 1449SOL    HW2 5064   0.736   5.098   1.050 -0.0024  1.1001 -0.9105
 1450SOL     OW 5065   3.067   0.514   6.099 -0.1730 -0.3453  0.1102
 1450SOL    HW1 5066   3.151   0.557   6.111  0.4687 -1.2920 -0.8998
 1450SOL    HW2 5067   3.017   0.535   6.178  1.1258 -0.0548  0.8534
 1451SOL     OW 5068   5.502   1.697   2.914 -0.4366  0.1743 -0.5558
 1451SOL    HW1 5069   5.544   1.623   2.959  0.2417 -1.2476 -3.4470
 1451SOL    HW2 5070   5.574   1.756   2.892 -0.7434  0.7559 -0.0246
 1452SOL     OW 5071   4.839   6.474   1.316  0.3368  0.1440  0.3715
 1452SOL    HW1 5072   4.883   6.465   1.231 -1.0685  2.1652 -0.6174
 1452SOL    HW2 5073   4.804   6.563   1.315 -1.0358 -0.3477  2.4399
 1453SOL     OW 5074   3.658   3.347   1.888 -0.5784  0.0442  0.0181
 1453SOL    HW1 5075   3.670   3.406   1.814 -0.2025  1.3109  1.0592
 1453SOL    HW2 5076   3.742   3.301   1.895 -0.0190  1.1412  0.6803
 1454SOL     OW 5077   0.932   3.838   4.231  0.7448 -0.3864 -0.1817
 1454SOL    HW1 5078   0.961   3.771   4.169  0.8810  0.0705 -0.6168
 1454SOL    HW2 5079   0.926   3.918   4.179 -3.2321 -0.8319 -0.6128
 1455SOL     OW 5080   5.385   6.531   3.637  0.1250  0.4540 -0.3652
 1455SOL    HW1 5081   5.409   6.439   3.647  0.4349  0.3069 -2.2113
 1455SOL    HW2 5082   5.464   6.579   3.661  0.3780  0.1836 -0.6558
 1456SOL     OW 5083   3.460   0.795   5.665 -0.1550  0.1853  0.7293
 1456SOL    HW1 5084   3.509   0.877   5.669  1.1787 -0.4408 -1.5646
 1456SOL    HW2 5085   3.415   0.789   5.749  0.7612  2.6236  1.4257
 1457SOL     OW 5086   1.320   1.441   1.622 -0.2274 -0.6087 -0.4447
 1457SOL    HW1 5087   1.398   1.386   1.622  0.4735  0.3789 -0.9336
 1457SOL    HW2 5088   1.304   1.461   1.714  0.9039  0.3167 -0.4363
 1458SOL     OW 5089   6.146   3.907   5.875 -0.1423 -0.3037  0.2741
 1458SOL    HW1 5090   6.059   3.866   5.870 -0.1531 -0.3085  0.5205
 1458SOL    HW2 5091   6.132   3.995   5.840  0.0921 -0.8391 -1.2306
 1459SOL     OW 5092   0.927   1.162   6.353 -0.1213  0.3096  0.2556
 1459SOL    HW1 5093   0.863   1.093   6.371 -0.1596  0.5680  1.1416
 1459SOL    HW2 5094   0.949   1.198   6.439  4.0156 -2.2445  0.3929
 1460SOL     OW 5095   2.577   0.672   0.960  0.3854 -0.3228 -0.3131
 1460SOL    HW1 5096   2.564   0.757   1.002  0.5554 -1.4030  1.9858
 1460SOL    HW2 5097   2.664   0.645   0.988  0.6199 -0.9555 -1.6138
 1461SOL     OW 5098   3.492   3.594   5.011 -0.2055  0.5866  0.4097
 1461SOL    HW1 5099   3.406   3.635   5.012 -0.6358 -0.2659 -0.2403
 1461SOL    HW2 5100   3.542   3.645   4.947 -0.3624  0.8282  0.4805
 1462SOL     OW 5101   4.077   0.345   1.127 -0.2901  0.2418  0.6763
 1462SOL    HW1 5102   4.100   0.310   1.212  1.5069  1.7553  0.8237
 1462SOL    HW2 5103   4.133   0.298   1.065 -1.5050 -0.7700  0.3237
 1463SOL     OW 5104   5.629   5.526   5.364 -0.6782  0.2009  0.5116
 1463SOL    HW1 5105   5.690   5.556   5.431 -0.1549 -2.5429  1.3179
 1463SOL    HW2 5106   5.684   5.487   5.297 -1.2658  2.0596 -1.1100
 1464SOL     OW 5107   3.250   4.048   3.963 -0.2712 -0.2462  0.2376
 1464SOL    HW1 5108   3.326   4.092   3.999  0.5992 -0.9730 -0.6799
 1464SOL    HW2 5109   3.194   4.030   4.038  0.7858 -0.3435  1.0049
 1465SOL     OW 5110   2.882   2.317   4.260  0.3164 -0.1243 -0.5298
 1465SOL    HW1 5111   2.816   2.370   4.215  1.1236  0.4196 -1.0936
 1465SOL    HW2 5112   2.913   2.372   4.332  0.2574 -0.3243 -0.3511
 1466SOL     OW 5113   1.921   3.323   5.189 -0.1708 -0.4039 -0.5255
 1466SOL    HW1 5114   2.003   3.354   5.228 -0.8848 -0.3725  1.0008
 1466SOL    HW2 5115   1.913   3.233   5.219 -1.6126  0.1754  0.9171
 1467SOL     OW 5116   6.516   4.705   4.023  0.0878 -0.5567  0.8954
 1467SOL    HW1 5117   6.435   4.730   4.068  0.2862  0.8052  0.5267
 1467SOL    HW2 5118   6.570   4.783   4.026 -0.4138  0.0159 -2.8008
 1468SOL     OW 5119   2.892   2.600   4.197  0.3118 -0.0424  0.4068
 1468SOL    HW1 5120   2.987   2.589   4.189  0.5080  1.8114  0.1675
 1468SOL    HW2 5121   2.857   2.567   4.115  0.6589 -1.6177  0.8699
 1469SOL     OW 5122   2.549   4.411   4.550  0.1328  0.1046  0.5720
 1469SOL    HW1 5123   2.512   4.324   4.561 -0.1899  0.0312 -0.9836
 1469SOL    HW2 5124   2.474   4.470   4.562 -0.5205 -0.0379 -2.4520
 1470SOL     OW 5125   3.326   2.853   6.151  0.2432 -0.1309  0.2827
 1470SOL    HW1 5126   3.304   2.761   6.163  0.0292 -0.4054 -1.9709
 1470SOL    HW2 5127   3.286   2.877   6.067  3.9701  0.8035 -1.3423
 1471SOL     OW 5128   0.256   0.349   5.237  0.2338 -0.3054 -0.7116
 1471SOL    HW1 5129   0.187   0.412   5.217 -1.0659 -1.3080  0.5033
 1471SOL    HW2 5130   0.272   0.359   5.331  2.2015  0.3487 -1.0887
 1472SOL     OW 5131   1.402   0.634   2.421 -0.1630 -0.3910 -0.4623
 1472SOL    HW1 5132   1.336   0.596   2.480 -0.2325  0.6316  0.1412
 1472SOL    HW2 5133   1.469   0.566   2.413 -0.6351 -0.9237  0.0121
 1473SOL     OW 5134   3.000   4.834   5.525 -0.1667  0.2115 -0.5209
 1473SOL    HW1 5135   3.051   4.783   5.463  1.5028 -1.0501  1.8143
 1473SOL    HW2 5136   2.943   4.770   5.568  0.9969  0.4606  1.4795
 1474SOL     OW 5137   4.174   3.215   2.190 -0.1795  0.5465  0.2585
 1474SOL    HW1 5138   4.174   3.119   2.195  1.1522  0.5674  0.7155
 1474SOL    HW2 5139   4.247   3.242   2.244 -0.7778  1.8545  0.4246
 1475SOL     OW 5140   4.430   1.065   4.859  0.0412  0.2075  0.5191
 1475SOL    HW1 5141   4.501   1.035   4.802  0.2918  0.6257  0.6064
 1475SOL    HW2 5142   4.473   1.081   4.944 -0.4483 -1.0433  1.0183
 1476SOL     OW 5143   4.299   5.968   2.916  0.2821  0.2507  0.6382
 1476SOL    HW1 5144   4.236   6.036   2.895  0.0572  0.3346  1.5497
 1476SOL    HW2 5145   4.341   5.998   2.997 -0.2521 -0.9809  1.3902
 1477SOL     OW 5146   2.792   2.964   3.605 -0.1169  0.4331  0.8602
 1477SOL    HW1 5147   2.796   3.023   3.529 -1.0050 -0.8529 -0.2129
 1477SOL    HW2 5148   2.767   3.021   3.678  1.8424  1.8969  0.4467
 1478SOL     OW 5149   0.749   0.540   0.126 -0.3554 -0.0169 -0.3116
 1478SOL    HW1 5150   0.749   0.563   0.033 -0.7653 -0.1426 -0.3446
 1478SOL    HW2 5151   0.767   0.622   0.171 -2.5643  0.5530 -0.3948
 1479SOL     OW 5152   5.271   4.972   3.462 -0.3197 -0.0377  0.5475
 1479SOL    HW1 5153   5.313   4.895   3.422 -1.2683 -0.8267  1.0389
 1479SOL    HW2 5154   5.235   5.020   3.387  1.4224  0.6446  0.1235
 1480SOL     OW 5155   2.460   3.663   2.321 -0.0058  0.5965 -0.7587
 1480SOL    HW1 5156   2.371   3.636   2.345  0.6380  0.7752  2.0018
 1480SOL    HW2 5157   2.455   3.682   2.227 -2.9178  0.7402 -0.6209
 1481SOL     OW 5158   6.672   3.861   5.956 -0.2958  0.9305  0.0800
 1481SOL    HW1 5159   6.630   3.945   5.941  0.6175  1.2470 -0.7627
 1481SOL    HW2 5160   6.756   3.867   5.910 -0.2137 -0.4322  0.0124
 1482SOL     OW 5161   5.820   2.666   4.811 -0.2365 -0.3038 -0.0383
 1482SOL    HW1 5162   5.897   2.638   4.761  0.2416  0.5169  0.2170
 1482SOL    HW2 5163   5.754   2.687   4.744  0.9379  2.3594 -0.4459
 1483SOL     OW 5164   3.187   1.704   4.362 -0.0918  1.0189  0.1915
 1483SOL    HW1 5165   3.125   1.656   4.307  0.4605 -0.5121  0.8892
 1483SOL    HW2 5166   3.239   1.636   4.405  1.4574  2.2710  0.3220
 1484SOL     OW 5167   4.500   5.769   5.433 -0.4641 -0.3495  0.0147
 1484SOL    HW1 5168   4.453   5.686   5.443 -2.4540  0.6876 -0.3515
 1484SOL    HW2 5169   4.584   5.754   5.475 -1.9113 -1.6379  2.6280
 1485SOL     OW 5170   0.943   6.145   5.545 -0.6163  0.4551  0.6621
 1485SOL    HW1 5171   0.939   6.176   5.455 -1.2618  0.1194  0.5722
 1485SOL    HW2 5172   0.942   6.050   5.538 -0.4816  0.4259  1.0164
 1486SOL     OW 5173   4.001   2.907   2.308  0.1827 -0.0134  0.1158
 1486SOL    HW1 5174   4.096   2.922   2.309 -0.1066  1.9487  1.0805
 1486SOL    HW2 5175   3.982   2.869   2.393  0.2224 -1.3556 -0.4604
 1487SOL     OW 5176   5.339   1.504   1.799  0.0865 -0.1422  0.3904
 1487SOL    HW1 5177   5.252   1.488   1.836 -1.0490  0.2548 -2.0279
 1487SOL    HW2 5178   5.378   1.570   1.857 -2.1004  1.3632  0.2128
 1488SOL     OW 5179   3.315   4.628   0.516  0.0403 -0.6418 -0.2471
 1488SOL    HW1 5180   3.288   4.545   0.555 -0.8931 -0.2408 -0.0226
 1488SOL    HW2 5181   3.406   4.640   0.546 -0.1557 -1.0928  0.5383
 1489SOL     OW 5182   0.611   4.279   5.307 -0.1208 -0.0133  0.5786
 1489SOL    HW1 5183   0.631   4.260   5.399  0.7155 -0.5293  0.2898
 1489SOL    HW2 5184   0.580   4.196   5.272 -0.0002  0.0711  0.2734
 1490SOL     OW 5185   5.160   0.244   5.152  0.2402  0.0894 -0.5309
 1490SOL    HW1 5186   5.238   0.296   5.167  1.4413 -1.9772  0.7092
 1490SOL    HW2 5187   5.090   0.290   5.199  1.3232  0.4608  0.7292
 1491SOL     OW 5188   0.670   4.425   0.702  0.0257 -0.8913 -0.5097
 1491SOL    HW1 5189   0.655   4.341   0.660  0.3808 -0.9245 -0.5770
 1491SOL    HW2 5190   0.624   4.419   0.786  2.4376 -2.2560  0.7776
 1492SOL     OW 5191   2.159   5.137   5.137 -0.7105 -0.4772 -0.3793
 1492SOL    HW1 5192   2.217   5.206   5.170 -1.8425  0.2127  0.2021
 1492SOL    HW2 5193   2.173   5.137   5.042 -1.3064  1.1228 -0.4826
 1493SOL     OW 5194   0.030   1.634   3.372 -1.1206 -0.3125  0.6235
 1493SOL    HW1 5195   0.125   1.619   3.371 -0.8602  1.3851 -1.5898
 1493SOL    HW2 5196   0.020   1.723   3.405 -2.1201 -1.2949  3.1339
 1494SOL     OW 5197   2.372   6.399   4.370  0.1912 -0.4315 -0.0748
 1494SOL    HW1 5198   2.457   6.374   4.406 -0.0279 -2.1793 -0.7372
 1494SOL    HW2 5199   2.309   6.381   4.440  0.2053 -0.3755 -0.0481
 1495SOL     OW 5200   4.180   4.733   1.453 -0.1920 -0.1365  0.1812
 1495SOL    HW1 5201   4.152   4.788   1.526 -0.6894 -0.5170  0.2844
 1495SOL    HW2 5202   4.098   4.699   1.416  0.0185  0.6166 -0.9967
 1496SOL     OW 5203   4.123   6.549   0.936 -0.2161  0.3958  0.4393
 1496SOL    HW1 5204   4.060   6.614   0.904  0.1524 -0.1864 -1.5694
 1496SOL    HW2 5205   4.207   6.576   0.898  0.4022  0.1317  1.6012
 1497SOL     OW 5206   3.082   0.717   0.803 -0.6426 -0.2149  0.4265
 1497SOL    HW1 5207   3.055   0.632   0.767  0.0351 -1.1043  1.9355
 1497SOL    HW2 5208   3.000   0.758   0.831 -1.1312  0.3094 -1.6902
 1498SOL     OW 5209   0.791   1.099   3.988 -0.3233 -0.2525  0.0675
 1498SOL    HW1 5210   0.733   1.140   4.053  0.7518  0.8344  0.3538
 1498SOL    HW2 5211   0.745   1.019   3.963 -2.5022  1.1562 -0.5674
 1499SOL     OW 5212   2.798   2.718   4.963  0.5499 -0.3406 -0.4424
 1499SOL    HW1 5213   2.795   2.802   5.009  2.1738 -0.4638 -0.1013
 1499SOL    HW2 5214   2.768   2.739   4.874  0.4070  0.4837 -0.2043
 1500SOL     OW 5215   1.331   5.258   0.745  0.4451  0.3422  0.3000
 1500SOL    HW1 5216   1.309   5.177   0.791 -1.0318 -0.6351 -2.0451
 1500SOL    HW2 5217   1.387   5.230   0.673  0.1693  1.4480 -0.3562
 1501SOL     OW 5218   3.596   5.682   2.301 -0.6943  0.0583  0.0978
 1501SOL    HW1 5219   3.633   5.595   2.287  0.1719  0.2142  1.3033
 1501SOL    HW2 5220   3.659   5.742   2.261 -0.9807  0.1699 -0.1885
 1502SOL     OW 5221   4.738   2.989   3.851 -0.2358 -0.6227 -0.0623
 1502SOL    HW1 5222   4.722   2.918   3.912 -1.1800  0.5924  1.1133
 1502SOL    HW2 5223   4.834   2.991   3.841 -0.0423 -0.5901  1.6676
 1503SOL     OW 5224   2.029   1.469   3.115 -0.1242  0.0978  0.2423
 1503SOL    HW1 5225   2.020   1.411   3.040 -0.3013  0.2147  0.1703
 1503SOL    HW2 5226   1.964   1.538   3.099  1.3488  1.2999 -0.5846
 1504SOL     OW 5227   1.058   4.238   3.400 -0.0947 -0.0860 -0.1187
 1504SOL    HW1 5228   1.100   4.305   3.347 -0.1839  0.1094  0.0551
 1504SOL    HW2 5229   1.074   4.156   3.353 -1.4703  0.2635 -1.2362
 1505SOL     OW 5230   5.320   5.365   0.839 -0.2475  0.0392  0.1432
 1505SOL    HW1 5231   5.247   5.412   0.880 -0.2161 -0.6076  0.9389
 1505SOL    HW2 5232   5.398   5.398   0.884 -0.2317 -0.8283  0.7509
 1506SOL     OW 5233   3.636   2.796   0.839  0.0796  0.2667 -0.6710
 1506SOL    HW1 5234   3.681   2.717   0.809 -0.0133 -0.2404  0.4912
 1506SOL    HW2 5235   3.552   2.764   0.872  0.8293  0.5975  1.6111
 1507SOL     OW 5236   5.771   5.837   6.318 -0.3344 -0.4916  0.1586
 1507SOL    HW1 5237   5.860   5.866   6.300 -0.4081 -1.5934 -2.2826
 1507SOL    HW2 5238   5.716   5.910   6.288 -0.2940 -0.4470  0.1945
 1508SOL     OW 5239   0.396   0.852   0.720  0.3812  0.0636  0.5831
 1508SOL    HW1 5240   0.486   0.820   0.719  0.4143  0.1403  0.9005
 1508SOL    HW2 5241   0.360   0.820   0.803 -0.3310 -1.1872 -0.1906
 1509SOL     OW 5242   1.056   2.791   0.568  0.0616 -0.3128  0.1204
 1509SOL    HW1 5243   1.044   2.884   0.551  0.2321 -0.3847 -0.4070
 1509SOL    HW2 5244   1.043   2.749   0.483  0.9068 -0.6779  0.1657
 1510SOL     OW 5245   2.847   5.165   4.275 -0.0643 -0.0830  0.3395
 1510SOL    HW1 5246   2.756   5.188   4.254  0.2976  0.0962 -1.1474
 1510SOL    HW2 5247   2.893   5.249   4.274  0.2697 -0.2669  0.2215
 1511SOL     OW 5248   4.872   1.088   5.403  0.6146  0.1037  0.4139
 1511SOL    HW1 5249   4.828   1.016   5.357  1.6027  0.2315 -0.7689
 1511SOL    HW2 5250   4.888   1.055   5.491 -0.8127 -0.3579  0.5119
 1512SOL     OW 5251   5.606   5.089   6.562  0.4859  0.2468  0.5483
 1512SOL    HW1 5252   5.519   5.103   6.526  0.5205 -0.5846  0.1455
 1512SOL    HW2 5253   5.661   5.069   6.486  1.0193  0.7212  0.8017
 1513SOL     OW 5254   6.110   4.078   3.159  0.5717  0.1230  0.2018
 1513SOL    HW1 5255   6.068   3.993   3.149 -0.1569  0.4442  0.5209
 1513SOL    HW2 5256   6.178   4.064   3.225 -0.2484  0.0380  1.0422
 1514SOL     OW 5257   5.425   5.339   2.368 -0.0646  0.0874  0.3585
 1514SOL    HW1 5258   5.470   5.423   2.369 -0.1438  0.1387 -0.3413
 1514SOL    HW2 5259   5.495   5.274   2.359  0.0901  0.0078  2.0769
 1515SOL     OW 5260   1.867   0.494   3.578  0.0722  0.0887  0.0419
 1515SOL    HW1 5261   1.799   0.435   3.547 -0.8964  1.3889 -0.3802
 1515SOL    HW2 5262   1.868   0.564   3.512  0.0640  1.3681  1.3836
 1516SOL     OW 5263   3.783   1.449   4.532  0.3791 -0.2572  0.5467
 1516SOL    HW1 5264   3.714   1.403   4.579  0.7856  1.0979  2.5281
 1516SOL    HW2 5265   3.853   1.384   4.521 -0.3132 -0.9962  0.4727
 1517SOL     OW 5266   0.297   0.102   5.547  0.2463  0.3201  0.5121
 1517SOL    HW1 5267   0.246   0.065   5.475  2.6102  0.9447 -1.5597
 1517SOL    HW2 5268   0.298   0.196   5.529  0.6571  0.5053  1.5041
 1518SOL     OW 5269   1.132   1.745   0.810  0.0140 -0.0968 -0.0507
 1518SOL    HW1 5270   1.216   1.777   0.779  1.1106 -1.5209  1.3805
 1518SOL    HW2 5271   1.118   1.791   0.893  0.7567 -1.9227  1.1263
 1519SOL     OW 5272   3.605   0.059   0.562 -0.2276 -0.1238  0.0901
 1519SOL    HW1 5273   3.594   0.019   0.649 -1.6020 -2.1112 -0.9534
 1519SOL    HW2 5274   3.695   0.090   0.561 -0.1277 -0.2652  2.1624
 1520SOL     OW 5275   0.877   3.190   6.035  0.5345 -0.2511  0.3387
 1520SOL    HW1 5276   0.852   3.150   5.951 -0.2703 -0.6692  0.7726
 1520SOL    HW2 5277   0.853   3.125   6.100 -1.1930  1.1005  1.0995
 1521SOL     OW 5278   0.001   4.440   2.870 -0.0288  0.3371  0.3941
 1521SOL    HW1 5279  -0.007   4.365   2.929 -1.3903  0.3431  0.2321
 1521SOL    HW2 5280   0.062   4.411   2.802  0.2340 -0.2552  0.8805
 1522SOL     OW 5281   4.163   4.005   6.286 -0.3468 -0.0257 -0.0263
 1522SOL    HW1 5282   4.090   3.994   6.346 -0.8528  2.1962 -0.2046
 1522SOL    HW2 5283   4.131   3.970   6.202 -1.3416  1.2712 -0.1986
 1523SOL     OW 5284   2.211   6.393   4.596 -0.0386 -0.2793 -0.2909
 1523SOL    HW1 5285   2.130   6.409   4.644  1.1292 -0.4421  1.7992
 1523SOL    HW2 5286   2.214   6.298   4.586 -1.0911 -0.1446 -2.2039
 1524SOL     OW 5287   5.598   0.843   2.387 -0.2858  0.0933 -0.3600
 1524SOL    HW1 5288   5.690   0.846   2.362 -0.4234 -0.0315 -0.8791
 1524SOL    HW2 5289   5.597   0.872   2.478  0.2073  0.6340 -0.5254
 1525SOL     OW 5290   0.952   4.243   3.051  0.1291 -0.0078  0.4143
 1525SOL    HW1 5291   0.892   4.289   2.992  0.3377 -2.7963 -2.1184
 1525SOL    HW2 5292   1.022   4.305   3.069 -0.9955  1.5890 -0.6432
 1526SOL     OW 5293   4.116   3.005   5.984  0.2314 -0.6278 -0.1887
 1526SOL    HW1 5294   4.088   2.915   6.004  0.5158 -0.4779  0.9148
 1526SOL    HW2 5295   4.100   3.053   6.065  3.4997 -0.5021  0.4809
 1527SOL     OW 5296   1.536   2.344   6.734 -0.1564 -0.4359  0.0173
 1527SOL    HW1 5297   1.463   2.310   6.786 -0.3236  1.3989  1.0378
 1527SOL    HW2 5298   1.547   2.434   6.764  2.0137 -0.4212 -0.6907
 1528SOL     OW 5299   0.600   5.679   2.138 -0.1172  0.5270 -0.0506
 1528SOL    HW1 5300   0.523   5.629   2.110  0.2201  0.8697 -1.6266
 1528SOL    HW2 5301   0.566   5.741   2.203 -0.7278 -0.9841  1.0802
 1529SOL     OW 5302   4.337   5.568   4.240 -0.4696 -0.1675  0.0124
 1529SOL    HW1 5303   4.321   5.489   4.292 -2.6282  0.9268  1.0878
 1529SOL    HW2 5304   4.338   5.537   4.149  0.6675 -1.7006  0.5298
 1530SOL     OW 5305   4.877   3.834   4.877 -0.4649 -0.1073  0.1104
 1530SOL    HW1 5306   4.897   3.774   4.806  1.3578  2.1502 -1.3655
 1530SOL    HW2 5307   4.957   3.839   4.929 -1.3155 -0.6251  1.5003
 1531SOL     OW 5308   5.742   3.848   1.391 -0.2237 -0.2862  0.2856
 1531SOL    HW1 5309   5.807   3.851   1.461  0.8187 -0.7549 -0.6444
 1531SOL    HW2 5310   5.721   3.939   1.374  0.6686 -0.0937  0.1735
 1532SOL     OW 5311   1.430   4.738   4.462 -0.0153 -0.0926 -1.0981
 1532SOL    HW1 5312   1.362   4.677   4.488  0.7075 -0.6737 -0.5431
 1532SOL    HW2 5313   1.389   4.825   4.472 -1.0274 -0.4685 -1.8753
 1533SOL     OW 5314   1.167   2.358   0.085 -1.0685  0.1585  0.3500
 1533SOL    HW1 5315   1.223   2.280   0.075 -1.0004  0.2626 -0.0562
 1533SOL    HW2 5316   1.114   2.338   0.163  0.2347  0.4851  1.3469
 1534SOL     OW 5317   2.391   2.356   5.813  0.5720 -0.6419 -0.0468
 1534SOL    HW1 5318   2.391   2.266   5.780  1.6665 -0.5575 -0.2923
 1534SOL    HW2 5319   2.483   2.380   5.816  0.2452  0.7493 -0.7297
 1535SOL     OW 5320   0.566   2.498   5.394 -1.0339  0.1064 -0.2912
 1535SOL    HW1 5321   0.570   2.578   5.447 -0.4784  0.3086 -0.6438
 1535SOL    HW2 5322   0.509   2.440   5.445 -1.3839  0.6926  0.0039
 1536SOL     OW 5323   3.673   4.581   4.374  0.0955 -0.4457 -0.1416
 1536SOL    HW1 5324   3.597   4.532   4.405  0.7224 -0.0290  2.1847
 1536SOL    HW2 5325   3.643   4.672   4.371 -0.1902 -0.5814 -1.5497
 1537SOL     OW 5326   0.016   5.555   1.469 -0.0030  0.2557 -0.4630
 1537SOL    HW1 5327   0.039   5.640   1.507  1.4965  0.2702 -1.3696
 1537SOL    HW2 5328   0.080   5.494   1.506 -2.0080 -0.8204  1.3980
 1538SOL     OW 5329   6.266   5.023   4.829 -0.9120 -0.0078  0.3028
 1538SOL    HW1 5330   6.279   5.002   4.737 -0.8663 -2.5748  0.8741
 1538SOL    HW2 5331   6.274   5.119   4.833  1.2271 -0.0480 -2.0051
 1539SOL     OW 5332   3.806   6.285   0.348 -0.3155  0.2416  0.2144
 1539SOL    HW1 5333   3.898   6.300   0.373 -0.5591  1.1907  0.5549
 1539SOL    HW2 5334   3.809   6.270   0.253  0.0627  1.4045  0.0358
 1540SOL     OW 5335   5.349   2.206   4.138 -0.1451  0.3669  0.0048
 1540SOL    HW1 5336   5.405   2.218   4.215 -0.8702  0.5896  0.4967
 1540SOL    HW2 5337   5.371   2.279   4.080 -1.7051  1.8798  1.2723
 1541SOL     OW 5338   0.247   0.967   5.490  0.0540  0.6939 -0.4437
 1541SOL    HW1 5339   0.304   1.042   5.475 -0.7177  1.4066  0.1404
 1541SOL    HW2 5340   0.217   0.978   5.580 -0.5622  0.0211 -0.5648
 1542SOL     OW 5341   1.439   0.098   1.959  0.1407  0.0760 -0.0149
 1542SOL    HW1 5342   1.446   0.009   1.993  0.3838 -0.2735 -0.9495
 1542SOL    HW2 5343   1.359   0.133   1.998 -0.5376 -0.9286 -0.4855
 1543SOL     OW 5344   3.239   0.972   4.744 -0.5249  0.2536  0.4004
 1543SOL    HW1 5345   3.160   0.923   4.722  0.2391 -0.2267 -1.3439
 1543SOL    HW2 5346   3.226   1.058   4.703  0.9396 -0.6696 -2.0599
 1544SOL     OW 5347   0.256   4.366   5.440  0.3197 -0.5169  0.2025
 1544SOL    HW1 5348   0.209   4.435   5.392  1.0706 -2.4958 -3.5363
 1544SOL    HW2 5349   0.187   4.306   5.469 -0.2447  1.2203  2.6977
 1545SOL     OW 5350   1.548   2.005   3.835  0.2344  0.3064 -0.2826
 1545SOL    HW1 5351   1.526   2.084   3.885  1.6772  0.8006 -0.4170
 1545SOL    HW2 5352   1.471   1.949   3.844 -0.0299  0.9182  1.4352
 1546SOL     OW 5353   0.866   0.382   1.211  0.1028  0.2576 -0.0117
 1546SOL    HW1 5354   0.906   0.467   1.193  1.2438 -0.2916 -0.1393
 1546SOL    HW2 5355   0.850   0.382   1.305 -0.6710  0.9325 -0.1377
 1547SOL     OW 5356   4.417   0.516   3.722 -0.1763 -0.0794  0.0972
 1547SOL    HW1 5357   4.394   0.492   3.812  1.6509 -0.2335  0.5423
 1547SOL    HW2 5358   4.510   0.492   3.714 -0.6526 -1.2696 -2.2283
 1548SOL     OW 5359   2.344   5.935   2.495 -0.3842  0.0913  0.1690
 1548SOL    HW1 5360   2.410   5.927   2.427  1.0764  0.7199  1.4815
 1548SOL    HW2 5361   2.346   6.028   2.519 -0.8861 -0.1272  1.0716
 1549SOL     OW 5362   0.033   5.629   5.751  0.2701 -0.0494  0.1877
 1549SOL    HW1 5363   0.062   5.550   5.796  2.2403  0.6662  0.2178
 1549SOL    HW2 5364   0.052   5.613   5.658 -1.3892 -0.4818 -0.0966
 1550SOL     OW 5365   5.921   6.390   3.711 -0.5511  0.5213  0.0134
 1550SOL    HW1 5366   5.955   6.360   3.796 -2.1047 -1.1038  0.0946
 1550SOL    HW2 5367   5.959   6.477   3.700  2.2617 -0.5171  0.8608
 1551SOL     OW 5368   3.857   4.580   4.761  0.1598 -0.3117 -0.4593
 1551SOL    HW1 5369   3.853   4.565   4.856 -0.7450 -0.1044 -0.4591
 1551SOL    HW2 5370   3.782   4.531   4.726  0.0213  0.2595 -0.9803
 1552SOL     OW 5371   0.900   4.089   2.048  0.5522  0.2724 -0.1010
 1552SOL    HW1 5372   0.940   4.003   2.045 -0.1602 -0.1320  1.4136
 1552SOL    HW2 5373   0.953   4.138   2.112  0.7403  0.8442 -0.6890
 1553SOL     OW 5374   6.212   5.561   0.378 -0.1018  0.1328  0.1640
 1553SOL    HW1 5375   6.233   5.635   0.435 -1.0630  0.5240  0.0261
 1553SOL    HW2 5376   6.277   5.494   0.400 -0.0166  0.5453  1.1945
 1554SOL     OW 5377   0.835   2.995   2.348 -0.8007  0.3112 -0.1629
 1554SOL    HW1 5378   0.892   3.069   2.369  0.2131  0.1637 -2.2536
 1554SOL    HW2 5379   0.844   2.936   2.423  0.2963  1.1740  0.4037
 1555SOL     OW 5380   0.427   2.998   4.255  0.2569 -0.0775 -0.3581
 1555SOL    HW1 5381   0.494   3.058   4.287 -1.2692  1.2029  0.5319
 1555SOL    HW2 5382   0.380   2.970   4.334 -1.7334  0.8833 -1.1654
 1556SOL     OW 5383   1.648   1.606   6.328 -0.3293 -0.6582 -0.0402
 1556SOL    HW1 5384   1.734   1.646   6.314  0.0864 -1.2618  0.6965
 1556SOL    HW2 5385   1.591   1.679   6.352  0.7336 -0.6288  2.6167
 1557SOL     OW 5386   4.576   2.184   6.718  0.0214 -0.0887  0.0505
 1557SOL    HW1 5387   4.634   2.216   6.787 -1.1940  0.7452  0.6825
 1557SOL    HW2 5388   4.538   2.103   6.753  1.3047 -1.0065 -0.6342
 1558SOL     OW 5389   3.689   3.716   0.877  0.1926 -0.0705 -0.0939
 1558SOL    HW1 5390   3.652   3.803   0.892 -0.3164 -0.1082 -1.0622
 1558SOL    HW2 5391   3.617   3.656   0.894  0.5070 -0.2948  0.4430
 1559SOL     OW 5392   1.050   1.627   3.267 -0.3720  0.5119  0.3963
 1559SOL    HW1 5393   1.055   1.698   3.203  0.3086 -0.8679 -1.1529
 1559SOL    HW2 5394   1.053   1.547   3.213 -0.2045 -0.6848  2.1368
 1560SOL     OW 5395   0.129   4.664   3.778 -0.0345 -0.2096 -0.7372
 1560SOL    HW1 5396   0.169   4.653   3.692 -1.6975 -0.5249 -1.4924
 1560SOL    HW2 5397   0.035   4.650   3.763 -0.5019  1.0173  0.8828
 1561SOL     OW 5398   6.001   3.861   3.049 -0.1646  0.5983 -0.6371
 1561SOL    HW1 5399   6.009   3.854   2.954  1.2806  0.6723 -0.5258
 1561SOL    HW2 5400   5.912   3.831   3.068  0.3235 -1.7087 -1.7924
 1562SOL     OW 5401   5.165   3.940   0.956 -0.4216  0.7035 -0.1235
 1562SOL    HW1 5402   5.235   3.908   0.900 -0.1898  1.3405 -0.1926
 1562SOL    HW2 5403   5.209   3.970   1.036 -0.7964 -0.6612  0.6082
 1563SOL     OW 5404   1.819   4.779   2.903 -0.5323  0.5141  0.6269
 1563SOL    HW1 5405   1.729   4.808   2.886  0.1208  2.4965  0.4606
 1563SOL    HW2 5406   1.830   4.789   2.997 -0.4284  0.3647  0.6314
 1564SOL     OW 5407   5.641   0.694   4.076  0.6504  0.2441  0.3140
 1564SOL    HW1 5408   5.699   0.721   4.005  0.3683  0.2825  0.0976
 1564SOL    HW2 5409   5.581   0.767   4.086  0.2412 -0.0634  0.1111
 1565SOL     OW 5410   2.406   0.315   4.681  0.3135  0.0255 -0.4382
 1565SOL    HW1 5411   2.339   0.353   4.737 -1.2167 -0.7381 -1.7158
 1565SOL    HW2 5412   2.390   0.220   4.685  0.5238 -0.0788 -1.7213
 1566SOL     OW 5413   5.654   6.468   3.765 -0.2494 -0.1665  0.2097
 1566SOL    HW1 5414   5.730   6.414   3.744 -1.3274 -0.5297 -3.0100
 1566SOL    HW2 5415   5.580   6.408   3.760 -1.1974  1.0723 -0.9382
 1567SOL     OW 5416   3.444   1.791   5.627 -0.0443  0.0102  0.2135
 1567SOL    HW1 5417   3.477   1.708   5.593 -1.7615  0.5943 -3.0955
 1567SOL    HW2 5418   3.488   1.858   5.575 -3.2960  0.9022 -1.5715
 1568SOL     OW 5419   3.212   6.562   1.842 -0.2481  0.2648  0.2177
 1568SOL    HW1 5420   3.243   6.483   1.886  0.2782  0.4299  0.1478
 1568SOL    HW2 5421   3.122   6.542   1.817  0.1481 -0.6204 -0.5282
 1569SOL     OW 5422   4.820   4.813   1.193 -0.4159  0.3891  0.5720
 1569SOL    HW1 5423   4.874   4.849   1.263  0.7160 -0.4014  0.1254
 1569SOL    HW2 5424   4.794   4.727   1.225  2.4851 -1.2036 -1.0986
 1570SOL     OW 5425   4.392   0.295   5.594 -0.1753  0.6882  0.3481
 1570SOL    HW1 5426   4.444   0.355   5.541 -1.3056  0.0570 -1.5403
 1570SOL    HW2 5427   4.450   0.221   5.611 -0.2529  0.2287 -1.2943
 1571SOL     OW 5428   5.581   5.383   4.989 -0.0938  0.9070  0.2112
 1571SOL    HW1 5429   5.492   5.418   4.991 -0.9551 -1.1422 -1.1360
 1571SOL    HW2 5430   5.621   5.420   4.910  0.5096  2.3447  1.1571
 1572SOL     OW 5431   4.694   4.292   1.841  0.0337 -0.0152  0.3464
 1572SOL    HW1 5432   4.622   4.355   1.846  1.1916  1.4109 -0.8031
 1572SOL    HW2 5433   4.650   4.208   1.823 -1.2757  1.0631 -1.6830
 1573SOL     OW 5434   3.725   3.153   5.848  0.0219 -0.5725  0.4631
 1573SOL    HW1 5435   3.655   3.175   5.787 -0.0094 -0.3014  0.5954
 1573SOL    HW2 5436   3.715   3.216   5.920  0.8649 -0.0315  0.1203
 1574SOL     OW 5437   2.834   2.171   1.138 -0.1545 -0.2944  0.3232
 1574SOL    HW1 5438   2.738   2.165   1.129 -0.1232 -0.1423 -0.0814
 1574SOL    HW2 5439   2.848   2.168   1.233 -0.6958  1.5980  0.4874
 1575SOL     OW 5440   1.343   1.873   4.849  0.2616  0.8289  0.5896
 1575SOL    HW1 5441   1.410   1.925   4.892 -0.5226  1.7820  0.6793
 1575SOL    HW2 5442   1.356   1.890   4.755  0.6668  0.3494  0.5508
 1576SOL     OW 5443   4.860   4.367   2.238  0.5021  0.0861 -0.1719
 1576SOL    HW1 5444   4.864   4.303   2.167 -2.2806 -1.1006  0.6674
 1576SOL    HW2 5445   4.909   4.327   2.309 -0.2004 -0.5901 -0.0610
 1577SOL     OW 5446   2.973   4.516   0.544 -0.3378  0.2754  0.3264
 1577SOL    HW1 5447   2.939   4.590   0.595 -0.6355  0.7849 -0.6079
 1577SOL    HW2 5448   3.043   4.480   0.599 -0.8156  0.6670  1.2063
 1578SOL     OW 5449   4.090   1.219   6.007 -0.0394 -0.3449  0.0214
 1578SOL    HW1 5450   4.053   1.234   5.919  1.9707  0.5354 -0.7069
 1578SOL    HW2 5451   4.074   1.300   6.054  2.2492  0.6004 -0.7826
 1579SOL     OW 5452   5.544   5.045   5.301  0.6512  0.3047  0.3752
 1579SOL    HW1 5453   5.618   4.989   5.324  0.8934  1.1764  1.7698
 1579SOL    HW2 5454   5.584   5.124   5.263  0.3411 -0.1564 -0.9301
 1580SOL     OW 5455   1.964   3.607   5.818  0.0161 -0.3221 -0.1463
 1580SOL    HW1 5456   2.047   3.563   5.804  0.5091  1.0261 -1.6090
 1580SOL    HW2 5457   1.910   3.582   5.743 -0.7669 -0.8698  0.5891
 1581SOL     OW 5458   1.191   6.421   5.085  0.3853 -0.0937 -0.6665
 1581SOL    HW1 5459   1.145   6.488   5.135 -0.3125 -0.9356 -0.1481
 1581SOL    HW2 5460   1.128   6.393   5.019 -0.7911 -2.8993  1.4962
 1582SOL     OW 5461   4.815   5.529   4.304  0.6665 -0.5403 -0.1459
 1582SOL    HW1 5462   4.747   5.538   4.238  1.2597  0.4745 -0.6260
 1582SOL    HW2 5463   4.889   5.489   4.257  0.5970 -1.1431  0.2462
 1583SOL     OW 5464   2.519   3.208   4.955  0.4878  0.5844  0.1295
 1583SOL    HW1 5465   2.544   3.292   4.916 -1.8882  1.4715  0.4387
 1583SOL    HW2 5466   2.545   3.215   5.047  1.5232  0.4326 -0.1406
 1584SOL     OW 5467   1.444   6.195   5.651 -0.1281 -0.3887 -0.5262
 1584SOL    HW1 5468   1.519   6.239   5.692  0.6856 -1.4413 -0.8683
 1584SOL    HW2 5469   1.419   6.127   5.714 -1.0011  0.1584 -0.2719
 1585SOL     OW 5470   2.384   0.762   2.206  0.6213 -0.3797  0.3647
 1585SOL    HW1 5471   2.362   0.682   2.160 -0.3400 -0.0042  0.1718
 1585SOL    HW2 5472   2.467   0.742   2.250  0.2052 -1.5920  0.6158
 1586SOL     OW 5473   0.168   1.241   5.878 -0.0795  0.3630  0.9530
 1586SOL    HW1 5474   0.075   1.251   5.900 -0.4570 -0.2069 -0.3210
 1586SOL    HW2 5475   0.212   1.236   5.962 -1.1161  1.4329  1.5783
 1587SOL     OW 5476   3.037   4.963   4.245  0.1992  0.0381  0.0073
 1587SOL    HW1 5477   2.987   5.033   4.286  0.3449  0.4370 -0.5080
 1587SOL    HW2 5478   3.078   5.003   4.169  2.8887  0.2275  1.4884
 1588SOL     OW 5479   2.397   6.241   3.429  0.1119  0.0161 -0.3525
 1588SOL    HW1 5480   2.374   6.266   3.340  0.0988 -0.0248 -0.3606
 1588SOL    HW2 5481   2.327   6.183   3.457 -1.5101  2.4167  0.7727
 1589SOL     OW 5482   2.687   2.476   1.786 -0.2243  0.5206 -0.9495
 1589SOL    HW1 5483   2.631   2.536   1.835 -0.9177 -0.4147 -0.5878
 1589SOL    HW2 5484   2.706   2.522   1.704  0.4677  1.8525 -0.0699
 1590SOL     OW 5485   1.467   5.375   4.325  0.5135  0.0687  0.0593
 1590SOL    HW1 5486   1.459   5.422   4.408  0.9438  1.3142 -0.5995
 1590SOL    HW2 5487   1.546   5.321   4.337  0.2652 -0.1677  0.6569
 1591SOL     OW 5488   4.015   6.080   5.295  0.1381  0.7035 -0.0640
 1591SOL    HW1 5489   3.984   6.035   5.216  1.9614  0.7509 -0.8320
 1591SOL    HW2 5490   3.958   6.048   5.365 -0.0465 -1.0613 -0.9931
 1592SOL     OW 5491   1.344   6.251   4.559  0.1576  0.2284  0.5995
 1592SOL    HW1 5492   1.293   6.199   4.497 -0.5761  2.2819 -0.5771
 1592SOL    HW2 5493   1.426   6.202   4.569 -0.3729 -0.9854 -0.7097
 1593SOL     OW 5494   3.065   5.061   2.630  0.1082  0.3453  0.2849
 1593SOL    HW1 5495   3.005   5.106   2.570 -0.6947 -1.3089 -0.1932
 1593SOL    HW2 5496   3.021   5.064   2.715 -0.3820 -0.3171  0.0630
 1594SOL     OW 5497   3.286   4.121   4.739  0.1358  0.6296  0.8189
 1594SOL    HW1 5498   3.322   4.096   4.654  0.8689  0.3011  1.2239
 1594SOL    HW2 5499   3.257   4.038   4.777 -0.4874  0.8164  0.7551
 1595SOL     OW 5500   6.717   2.205   6.123  0.1021  0.5091 -0.1028
 1595SOL    HW1 5501   6.656   2.276   6.146 -0.6984 -0.1372 -0.1763
 1595SOL    HW2 5502   6.659   2.132   6.100  0.9238  0.1733 -1.0728
 1596SOL     OW 5503   3.473   4.615   1.359  0.3614 -0.1398  0.0041
 1596SOL    HW1 5504   3.447   4.700   1.324  0.1288 -0.2129 -0.0063
 1596SOL    HW2 5505   3.392   4.579   1.396  0.5991 -0.0723  0.5973
 1597SOL     OW 5506   0.880   1.114   0.939 -0.1296  0.3442 -0.3831
 1597SOL    HW1 5507   0.916   1.124   1.027 -0.9255 -0.5929  0.0541
 1597SOL    HW2 5508   0.944   1.061   0.892  0.4810  1.1655 -0.4909
 1598SOL     OW 5509   0.690   4.388   2.912  0.4786 -0.1031  0.4574
 1598SOL    HW1 5510   0.736   4.408   2.830 -0.5679 -0.0963 -0.1407
 1598SOL    HW2 5511   0.654   4.300   2.898  0.7947 -0.3432  1.1390
 1599SOL     OW 5512   2.288   6.451   1.199  0.5495  0.0549  0.0265
 1599SOL    HW1 5513   2.300   6.472   1.292  0.5079  0.2025 -0.0031
 1599SOL    HW2 5514   2.372   6.472   1.159  0.5954 -0.0885  0.0446
 1600SOL     OW 5515   6.378   5.263   0.858  0.2941  0.4838 -0.2714
 1600SOL    HW1 5516   6.320   5.225   0.793 -1.3506  1.1725  0.7483
 1600SOL    HW2 5517   6.422   5.188   0.898  0.1394 -0.0495 -1.0950
 1601SOL     OW 5518   5.292   4.730   4.888 -0.2763 -0.4542 -0.1045
 1601SOL    HW1 5519   5.228   4.794   4.920 -0.9001  0.8486 -3.6962
 1601SOL    HW2 5520   5.372   4.749   4.937 -1.6526  0.1794  1.9827
 1602SOL     OW 5521   0.437   4.313   0.011 -0.2856  0.5379 -0.3380
 1602SOL    HW1 5522   0.444   4.246  -0.057 -1.4323 -0.1242  0.1906
 1602SOL    HW2 5523   0.346   4.342   0.008 -0.1974  0.9304  0.5125
 1603SOL     OW 5524   6.016   2.122   0.801 -0.1106 -0.1528 -0.0273
 1603SOL    HW1 5525   6.061   2.206   0.813 -0.8912  0.2168  0.3493
 1603SOL    HW2 5526   6.010   2.085   0.889  0.8807 -0.9558 -0.2839
 1604SOL     OW 5527   1.735   0.404   3.318  0.2117  0.4303 -0.0339
 1604SOL    HW1 5528   1.697   0.316   3.312  0.6814  0.2679 -0.8303
 1604SOL    HW2 5529   1.706   0.448   3.239 -1.4603  1.5965  1.2087
 1605SOL     OW 5530   2.629   5.284   5.316  0.4594 -0.0272  0.0625
 1605SOL    HW1 5531   2.692   5.282   5.244 -0.6419  1.2506 -0.9599
 1605SOL    HW2 5532   2.629   5.375   5.346 -0.6520 -0.0894  0.2722
 1606SOL     OW 5533   3.468   3.193   4.474 -0.1503  0.4441  0.3080
 1606SOL    HW1 5534   3.448   3.266   4.415 -0.1853  0.8445  0.8147
 1606SOL    HW2 5535   3.396   3.131   4.460 -0.8971  1.1608  0.9463
 1607SOL     OW 5536   4.524   5.014   1.596  0.0656 -0.2215 -0.2623
 1607SOL    HW1 5537   4.559   5.000   1.684 -2.8617  1.5409  1.2658
 1607SOL    HW2 5538   4.584   5.076   1.556  1.4793 -1.1064  0.4582
 1608SOL     OW 5539   4.043   4.944   3.249 -0.0619 -0.4680  0.3054
 1608SOL    HW1 5540   3.958   4.970   3.285  0.0274 -0.0736  0.2373
 1608SOL    HW2 5541   4.107   4.996   3.298  0.0513  0.1496 -0.4832
 1609SOL     OW 5542   6.360   6.052   4.671  0.1281 -0.1230  0.4967
 1609SOL    HW1 5543   6.352   6.107   4.593 -0.0210 -1.1907 -0.2442
 1609SOL    HW2 5544   6.454   6.046   4.686  0.1166  1.2539  1.2516
 1610SOL     OW 5545   6.204   5.548   3.854 -0.0296 -0.0789  0.2161
 1610SOL    HW1 5546   6.118   5.572   3.820 -0.0102  0.2728  0.4091
 1610SOL    HW2 5547   6.190   5.466   3.901  0.0268 -0.7867 -0.9896
 1611SOL     OW 5548   4.592   5.533   3.586  0.3765 -0.2954  0.1063
 1611SOL    HW1 5549   4.681   5.519   3.620  2.1032  0.1590 -3.9736
 1611SOL    HW2 5550   4.586   5.476   3.510 -1.4133  2.5209 -1.9812
 1612SOL     OW 5551   5.095   4.535   3.689 -0.2249  0.0793  0.0414
 1612SOL    HW1 5552   5.145   4.580   3.621 -1.7237  0.6246 -0.7181
 1612SOL    HW2 5553   5.155   4.468   3.722  0.8310  0.4002 -1.1724
 1613SOL     OW 5554   0.479   6.404   6.263  0.0779  0.1996  0.5369
 1613SOL    HW1 5555   0.505   6.341   6.196 -0.0989  0.2134  0.4537
 1613SOL    HW2 5556   0.561   6.443   6.293  0.3319 -1.2881  1.7979
 1614SOL     OW 5557   6.717   2.591   2.592 -0.1472 -0.1133 -0.2789
 1614SOL    HW1 5558   6.728   2.575   2.499  0.5808  2.7577 -0.7303
 1614SOL    HW2 5559   6.803   2.621   2.622 -1.5532  3.6510  0.2705
 1615SOL     OW 5560   0.274   2.046   6.738  0.3825 -0.1419  0.8886
 1615SOL    HW1 5561   0.181   2.053   6.759  0.6691  0.0288  2.1828
 1615SOL    HW2 5562   0.277   2.030   6.644 -0.8617  2.0213  0.4537
 1616SOL     OW 5563   1.007   2.707   2.839  0.1033 -0.3544  0.4938
 1616SOL    HW1 5564   0.993   2.626   2.791 -2.2726  0.4976 -0.3047
 1616SOL    HW2 5565   0.922   2.729   2.875  0.3407  2.5956 -0.6177
 1617SOL     OW 5566   0.975   6.159   5.256  0.2738 -0.0603  0.2402
 1617SOL    HW1 5567   0.949   6.232   5.200 -2.3537 -0.1919  1.2099
 1617SOL    HW2 5568   0.937   6.082   5.215  0.1359 -0.4244  1.0402
 1618SOL     OW 5569   6.433   3.339   2.340  0.5145  0.2576  0.3832
 1618SOL    HW1 5570   6.421   3.256   2.294 -1.1394  1.1043 -0.8051
 1618SOL    HW2 5571   6.519   3.333   2.382  1.2698 -1.2442 -1.3589
 1619SOL     OW 5572   1.930   4.567   3.261 -0.4098  0.2582 -0.1633
 1619SOL    HW1 5573   1.961   4.555   3.351  2.2021  0.8949 -0.9417
 1619SOL    HW2 5574   1.949   4.658   3.241 -3.4254  0.8825 -0.5094
 1620SOL     OW 5575   0.240   5.882   2.346  0.3380  0.2267 -0.5088
 1620SOL    HW1 5576   0.239   5.968   2.387 -0.0059  1.0375 -2.1708
 1620SOL    HW2 5577   0.157   5.876   2.299 -0.0108 -1.3592  0.2622
 1621SOL     OW 5578   3.997   0.808   2.026  0.4431  0.4223 -0.1209
 1621SOL    HW1 5579   3.931   0.793   2.094 -0.6525  4.1258 -0.2644
 1621SOL    HW2 5580   3.949   0.797   1.944  0.6471  0.5245 -0.2538
 1622SOL     OW 5581   0.799   5.271   4.166  0.1232 -0.9293 -0.2656
 1622SOL    HW1 5582   0.737   5.206   4.134 -2.7003  1.4056  0.2547
 1622SOL    HW2 5583   0.826   5.320   4.088 -1.2515  0.1774 -0.0515
 1623SOL     OW 5584   5.667   4.449   1.575  0.1039 -0.2994 -0.7524
 1623SOL    HW1 5585   5.585   4.420   1.614 -1.1429  2.0244 -1.5424
 1623SOL    HW2 5586   5.642   4.483   1.489  1.7346  1.3122 -0.6197
 1624SOL     OW 5587   1.546   5.727   5.612 -0.7487 -0.3335 -0.7493
 1624SOL    HW1 5588   1.451   5.734   5.611 -0.5527  3.6401 -2.5637
 1624SOL    HW2 5589   1.573   5.759   5.525  2.1824 -2.4803 -0.6967
 1625SOL     OW 5590   4.943   0.522   4.169 -0.4205  0.1347  0.5457
 1625SOL    HW1 5591   4.870   0.584   4.174 -1.9404 -1.5487 -0.4021
 1625SOL    HW2 5592   4.907   0.440   4.204  1.0097 -0.7191  0.0338
 1626SOL     OW 5593   1.809   2.293   6.753 -0.2394 -0.4494 -0.4716
 1626SOL    HW1 5594   1.716   2.309   6.769 -0.5665 -1.3889 -1.4764
 1626SOL    HW2 5595   1.851   2.318   6.836 -1.3653  0.0691 -0.0434
 1627SOL     OW 5596   4.873   4.322   5.354  0.2205  0.5095 -0.0454
 1627SOL    HW1 5597   4.892   4.416   5.347 -0.5669  0.7199  0.5053
 1627SOL    HW2 5598   4.785   4.319   5.391  0.3056 -0.4521  0.0828
 1628SOL     OW 5599   0.750   2.377   6.711  0.2614  0.0791 -0.0284
 1628SOL    HW1 5600   0.820   2.334   6.759  0.6255  0.1624 -0.4797
 1628SOL    HW2 5601   0.716   2.310   6.652  0.0287  0.0688  0.1166
 1629SOL     OW 5602   1.182   3.271   0.484 -0.0851 -0.3277 -0.7748
 1629SOL    HW1 5603   1.251   3.222   0.442 -0.8328 -1.8159 -0.2989
 1629SOL    HW2 5604   1.228   3.342   0.531  0.9693 -0.4356 -1.6312
 1630SOL     OW 5605   6.692   0.757   4.910  0.1067  0.5344 -0.0675
 1630SOL    HW1 5606   6.674   0.830   4.970 -1.7593 -0.2435  0.3784
 1630SOL    HW2 5607   6.625   0.692   4.932  1.2397 -0.9671 -1.0213
 1631SOL     OW 5608   6.251   4.434   5.979 -0.2178  0.0477 -0.2702
 1631SOL    HW1 5609   6.229   4.527   5.982 -0.1354  0.1367 -2.0530
 1631SOL    HW2 5610   6.343   4.432   5.950  0.2931 -0.5356  1.3596
 1632SOL     OW 5611   0.641   1.331   0.761 -0.2019 -0.7252 -0.2353
 1632SOL    HW1 5612   0.604   1.352   0.847  0.9163 -4.3931  1.2463
 1632SOL    HW2 5613   0.735   1.344   0.771 -0.0463 -1.3514 -0.8096
 1633SOL     OW 5614   1.730   1.206   0.210 -0.4048 -0.6678 -0.0383
 1633SOL    HW1 5615   1.810   1.257   0.222 -0.7612 -0.1024 -0.0567
 1633SOL    HW2 5616   1.701   1.186   0.299 -1.8343  1.6309  0.0599
 1634SOL     OW 5617   0.742   0.428   6.037  0.4262  0.2202  0.4204
 1634SOL    HW1 5618   0.754   0.338   6.010 -3.7224 -0.6120  0.9367
 1634SOL    HW2 5619   0.699   0.422   6.123 -1.7982  2.5866 -0.4281
 1635SOL     OW 5620   6.221   4.680   3.035 -0.0650 -0.0101 -0.4686
 1635SOL    HW1 5621   6.167   4.747   2.994  0.1041 -0.0192 -0.7112
 1635SOL    HW2 5622   6.189   4.598   2.998  0.7256  0.0556 -1.3253
 1636SOL     OW 5623   1.044   1.985   0.549  0.1463  0.3319 -0.5887
 1636SOL    HW1 5624   1.026   1.891   0.548  1.1638  0.1066  0.6869
 1636SOL    HW2 5625   0.958   2.026   0.554 -0.2867 -0.5398 -0.7738
 1637SOL     OW 5626   4.408   5.987   5.597 -0.3612  0.0378  0.2052
 1637SOL    HW1 5627   4.415   5.936   5.516  0.9958  0.4920  0.0107
 1637SOL    HW2 5628   4.448   5.931   5.663  1.4072  0.9531 -0.0690
 1638SOL     OW 5629   0.929   4.389   4.635  0.1149  0.7582  0.3249
 1638SOL    HW1 5630   0.837   4.407   4.616  0.8998  1.5637 -2.9314
 1638SOL    HW2 5631   0.937   4.294   4.626 -0.3229  0.7155  0.3746
 1639SOL     OW 5632   0.920   6.725   1.123 -0.4669  0.3889  0.0180
 1639SOL    HW1 5633   0.963   6.642   1.102  0.1034  0.2923  1.5071
 1639SOL    HW2 5634   0.831   6.700   1.148 -0.6400  0.3449 -0.6281
 1640SOL     OW 5635   5.816   1.920   2.722 -0.0965  0.1014  0.4178
 1640SOL    HW1 5636   5.856   1.864   2.788 -1.4111 -0.0189  1.1282
 1640SOL    HW2 5637   5.843   1.882   2.638  1.0109 -0.1431  0.8816
 1641SOL     OW 5638   1.896   0.575   1.759 -0.2997  0.1245  0.6165
 1641SOL    HW1 5639   1.860   0.644   1.703  0.2207  1.2554  1.6575
 1641SOL    HW2 5640   1.989   0.570   1.733 -0.6180 -1.0802 -0.3441
 1642SOL     OW 5641   4.823   4.859   1.837 -0.1077 -0.2987 -0.0159
 1642SOL    HW1 5642   4.813   4.786   1.897 -2.1594  0.3049  0.4176
 1642SOL    HW2 5643   4.765   4.927   1.872  0.9791  1.1505 -0.9847
 1643SOL     OW 5644   5.301   1.260   2.178 -0.3705 -0.5004  0.5531
 1643SOL    HW1 5645   5.376   1.245   2.234 -3.2930 -0.8778  4.5499
 1643SOL    HW2 5646   5.260   1.174   2.168 -0.9752 -0.0968 -0.6316
 1644SOL     OW 5647   4.028   4.843   0.222 -0.1672  0.3183 -0.0877
 1644SOL    HW1 5648   3.941   4.825   0.257  0.4231  1.2348  1.9063
 1644SOL    HW2 5649   4.011   4.879   0.135 -1.6694 -1.8506 -0.7235
 1645SOL     OW 5650   1.483   5.329   6.388 -0.2974 -0.4451  0.1579
 1645SOL    HW1 5651   1.543   5.294   6.453 -1.5617 -1.0485  1.0177
 1645SOL    HW2 5652   1.435   5.398   6.434 -0.7776 -0.4597 -0.3071
 1646SOL     OW 5653   1.807   5.902   1.499  0.1949  0.1783 -0.2174
 1646SOL    HW1 5654   1.827   5.981   1.549  0.2075  0.2254 -0.2971
 1646SOL    HW2 5655   1.858   5.833   1.542 -1.1608 -0.1265  0.9402
 1647SOL     OW 5656   6.679   1.951   4.489  0.3319  0.2169  0.0184
 1647SOL    HW1 5657   6.662   1.931   4.581 -0.3738 -0.8359 -0.3311
 1647SOL    HW2 5658   6.684   2.047   4.486  5.5376  0.1748  2.0421
 1648SOL     OW 5659   1.183   3.201   3.928  0.0266 -0.4420 -0.4689
 1648SOL    HW1 5660   1.273   3.169   3.936  0.7812  1.0848 -2.3640
 1648SOL    HW2 5661   1.180   3.242   3.842 -2.3594 -0.0316 -0.2189
 1649SOL     OW 5662   2.784   2.129   6.564 -0.5321  0.4873 -0.4427
 1649SOL    HW1 5663   2.713   2.101   6.621  1.1166 -1.0519  0.9294
 1649SOL    HW2 5664   2.796   2.056   6.502 -1.1799  1.4129 -1.6809
 1650SOL     OW 5665   5.579   0.861   1.146 -0.4405  0.3671  0.3491
 1650SOL    HW1 5666   5.622   0.780   1.118 -0.3158  0.0946  1.3135
 1650SOL    HW2 5667   5.564   0.849   1.240 -1.3251  1.0555  0.2996
 1651SOL     OW 5668   6.360   2.876   6.381  0.0417 -0.4679  0.0036
 1651SOL    HW1 5669   6.282   2.915   6.422 -2.1185 -2.9643 -1.5648
 1651SOL    HW2 5670   6.372   2.793   6.426  1.2935 -0.5028 -0.3804
 1652SOL     OW 5671   6.758   1.378   6.299 -0.6878 -0.0033 -0.0020
 1652SOL    HW1 5672   6.762   1.445   6.368 -0.1978  0.7589 -0.7629
 1652SOL    HW2 5673   6.766   1.427   6.217  0.9876 -1.1104 -0.5347
 1653SOL     OW 5674   6.408   4.269   5.470  0.1239  0.5030  0.3607
 1653SOL    HW1 5675   6.469   4.340   5.490 -0.0545  1.3310 -1.9132
 1653SOL    HW2 5676   6.350   4.265   5.546  1.3305  1.4977  1.3602
 1654SOL     OW 5677   2.348   2.195   3.890 -0.4742 -0.7995  0.1829
 1654SOL    HW1 5678   2.356   2.203   3.985 -0.4464  0.5010  0.0893
 1654SOL    HW2 5679   2.436   2.209   3.856 -0.6268 -0.4202 -0.0704
 1655SOL     OW 5680   2.847   2.113   3.490  0.0374 -0.1264  0.7245
 1655SOL    HW1 5681   2.788   2.063   3.435  1.0485  0.1160 -0.6181
 1655SOL    HW2 5682   2.802   2.197   3.504  0.0432  0.0483 -0.2709
 1656SOL     OW 5683   3.578   0.735   6.639  0.3574 -0.7376  0.4756
 1656SOL    HW1 5684   3.516   0.808   6.634 -0.1012 -1.1628 -0.2119
 1656SOL    HW2 5685   3.645   0.757   6.574  0.6395 -0.5461  0.8289
 1657SOL     OW 5686   5.745   2.917   5.589  0.3889  0.3427 -0.2635
 1657SOL    HW1 5687   5.667   2.955   5.549  0.4637  0.6609 -0.1085
 1657SOL    HW2 5688   5.717   2.830   5.618  0.7020 -0.4629 -2.2544
 1658SOL     OW 5689   3.868   4.073   5.388  0.0951 -0.0227 -0.0881
 1658SOL    HW1 5690   3.928   4.146   5.405 -0.6536  0.5209  0.2175
 1658SOL    HW2 5691   3.830   4.093   5.302 -0.4998  0.2107  0.2305
 1659SOL     OW 5692   3.128   1.591   0.796 -0.4197 -0.1746 -0.7600
 1659SOL    HW1 5693   3.161   1.501   0.799 -0.8245 -0.3688 -1.9830
 1659SOL    HW2 5694   3.034   1.582   0.813 -0.1469  0.2254  1.1187
 1660SOL     OW 5695   1.813   1.888   3.214  0.5031  0.1870 -0.4381
 1660SOL    HW1 5696   1.891   1.900   3.268  1.0151 -0.7134 -0.9863
 1660SOL    HW2 5697   1.750   1.846   3.273  0.9371 -0.4635 -0.4425
 1661SOL     OW 5698   5.731   4.789   4.024  0.0294  0.1489  0.0232
 1661SOL    HW1 5699   5.674   4.845   4.077  1.4117  0.6313  1.0345
 1661SOL    HW2 5700   5.762   4.722   4.085  2.3943  1.2658  0.1027
 1662SOL     OW 5701   1.695   6.110   3.964  0.7510  0.0271 -0.1973
 1662SOL    HW1 5702   1.620   6.161   3.934 -0.4701 -0.9383  1.1829
 1662SOL    HW2 5703   1.740   6.168   4.026  0.6807  0.2837 -0.3829
 1663SOL     OW 5704   4.962   0.380   1.303  0.2951 -0.2071 -0.1103
 1663SOL    HW1 5705   4.968   0.333   1.220  2.0360  0.0627 -0.1669
 1663SOL    HW2 5706   4.943   0.471   1.278  1.1141 -0.0667 -0.2414
 1664SOL     OW 5707   1.409   2.337   6.376 -0.2379  0.2916  0.5263
 1664SOL    HW1 5708   1.458   2.295   6.447 -1.2667 -0.7812  0.6018
 1664SOL    HW2 5709   1.317   2.321   6.398 -0.5922  1.1581 -0.3203
 1665SOL     OW 5710   2.409   3.408   6.269 -0.5680  0.4053  0.1840
 1665SOL    HW1 5711   2.386   3.413   6.361  0.7815  1.5515  0.4620
 1665SOL    HW2 5712   2.490   3.459   6.260  1.6902 -3.1544 -0.8570
 1666SOL     OW 5713   6.008   5.200   4.318  0.0482  0.6921  0.1955
 1666SOL    HW1 5714   6.081   5.232   4.370  0.2643 -1.2021  1.0845
 1666SOL    HW2 5715   6.043   5.196   4.229  1.3839 -1.1521  0.7619
 1667SOL     OW 5716   0.649   0.052   1.564  0.4997  0.0538 -0.3923
 1667SOL    HW1 5717   0.623   0.081   1.477  1.2042 -1.7782 -1.2352
 1667SOL    HW2 5718   0.718  -0.013   1.549 -0.1809 -1.1535  1.4722
 1668SOL     OW 5719   2.136   0.812   5.482  0.1765 -0.8231 -0.2389
 1668SOL    HW1 5720   2.173   0.893   5.448  0.8403 -1.1577 -0.3243
 1668SOL    HW2 5721   2.212   0.759   5.505 -0.2726 -0.6946  1.5671
 1669SOL     OW 5722   1.677   6.729   1.065 -0.7068  0.1220 -0.2914
 1669SOL    HW1 5723   1.695   6.635   1.069  1.6003  0.5909  0.9475
 1669SOL    HW2 5724   1.635   6.749   1.149 -2.2786  0.0186 -1.0250
 1670SOL     OW 5725   0.012   4.148   5.189  0.2513  0.1067 -0.1786
 1670SOL    HW1 5726  -0.050   4.197   5.135 -1.1037 -1.1835  0.1899
 1670SOL    HW2 5727  -0.042   4.099   5.251  1.6022 -1.3059 -0.0695
 1671SOL     OW 5728   3.609   6.615   2.494  0.0115  0.1804  0.1280
 1671SOL    HW1 5729   3.584   6.523   2.486  0.9937 -0.1111  0.2780
 1671SOL    HW2 5730   3.695   6.613   2.537 -0.5987  1.2360  1.4557
 1672SOL     OW 5731   0.457   1.670   3.662 -0.0654  0.4400  0.4504
 1672SOL    HW1 5732   0.473   1.736   3.595  0.8339 -0.6218 -0.4062
 1672SOL    HW2 5733   0.541   1.661   3.707 -0.0796 -0.3529  0.3359
 1673SOL     OW 5734   4.360   3.728   4.873  0.1641  0.0264 -0.1894
 1673SOL    HW1 5735   4.443   3.777   4.877 -0.2526  0.7947 -0.8302
 1673SOL    HW2 5736   4.330   3.740   4.783 -0.8065  0.0163  0.1306
 1674SOL     OW 5737   3.298   3.406   0.355 -0.0214  0.6193  0.2831
 1674SOL    HW1 5738   3.242   3.484   0.354 -0.8637  0.0484  1.4609
 1674SOL    HW2 5739   3.240   3.336   0.385  0.8974 -0.3338 -0.1495
 1675SOL     OW 5740   3.528   1.538   5.532 -0.7441 -0.1065 -0.0136
 1675SOL    HW1 5741   3.468   1.504   5.598 -3.1371  1.0891 -1.5072
 1675SOL    HW2 5742   3.523   1.474   5.461 -0.9604  0.4708 -0.5212
 1676SOL     OW 5743   0.788   6.450   3.724 -0.2421  0.4925  0.3047
 1676SOL    HW1 5744   0.724   6.503   3.772 -1.0846  1.1106 -1.4751
 1676SOL    HW2 5745   0.739   6.372   3.697 -0.2797  1.0016 -1.1348
 1677SOL     OW 5746   3.695   5.134   6.374 -0.0123  0.2376  0.1334
 1677SOL    HW1 5747   3.668   5.044   6.358 -0.5647  0.2049  1.2055
 1677SOL    HW2 5748   3.698   5.174   6.287 -2.3404 -0.0985 -0.1531
 1678SOL     OW 5749   3.221   1.824   3.384  0.4732 -0.5289 -0.2110
 1678SOL    HW1 5750   3.293   1.851   3.327 -0.1367  0.2421 -0.6342
 1678SOL    HW2 5751   3.173   1.905   3.400 -1.7143 -1.4516 -1.9344
 1679SOL     OW 5752   0.100   5.053   3.715  0.2527 -0.2770  0.1781
 1679SOL    HW1 5753   0.146   5.057   3.630 -1.6308 -0.4009 -0.8675
 1679SOL    HW2 5754   0.049   4.973   3.711 -0.9294  0.4301  0.8712
 1680SOL     OW 5755   3.457   6.238   2.243 -0.0892 -0.1155 -0.1392
 1680SOL    HW1 5756   3.432   6.164   2.187 -1.3694  1.0314 -1.1096
 1680SOL    HW2 5757   3.495   6.302   2.183 -0.5473  0.7147  0.4518
 1681SOL     OW 5758   6.302   2.217   2.614 -0.0507  0.2467  0.2224
 1681SOL    HW1 5759   6.257   2.294   2.647  0.0683 -0.0800  1.1555
 1681SOL    HW2 5760   6.276   2.212   2.522 -1.4434  0.4010  0.5923
 1682SOL     OW 5761   0.218   3.358   2.578  0.2514  0.4363 -0.1294
 1682SOL    HW1 5762   0.174   3.420   2.520  0.2179  0.2512 -0.3010
 1682SOL    HW2 5763   0.148   3.297   2.605  0.2040  0.6896  0.3289
 1683SOL     OW 5764   4.462   6.490   5.712  0.0376 -0.0610  0.5337
 1683SOL    HW1 5765   4.421   6.405   5.699  0.8030 -0.4007  0.3341
 1683SOL    HW2 5766   4.524   6.498   5.640  1.5050 -0.2680  1.7515
 1684SOL     OW 5767   1.427   2.002   6.049 -0.0380 -0.3435 -0.2297
 1684SOL    HW1 5768   1.477   2.071   6.093 -1.0896  1.3515 -1.6429
 1684SOL    HW2 5769   1.338   2.011   6.084 -0.0452 -1.3467  0.0054
 1685SOL     OW 5770   3.520   1.932   5.078 -0.0263  0.1145  0.1561
 1685SOL    HW1 5771   3.470   1.905   5.001  0.3530 -0.5190  0.1231
 1685SOL    HW2 5772   3.532   2.026   5.067 -0.2748  0.0889 -0.3826
 1686SOL     OW 5773   6.174   1.057   2.468  0.4699 -0.0556  0.2514
 1686SOL    HW1 5774   6.240   1.101   2.522 -0.9508 -0.7221  2.6131
 1686SOL    HW2 5775   6.211   0.970   2.452  0.9195  0.1624  0.0698
 1687SOL     OW 5776   1.853   3.538   6.418 -0.0292  0.0743  0.5662
 1687SOL    HW1 5777   1.946   3.526   6.399 -0.2250 -0.1631 -0.2788
 1687SOL    HW2 5778   1.850   3.561   6.511  0.8177 -0.6129  0.7688
 1688SOL     OW 5779   4.346   0.061   3.560 -0.2676 -0.8264  0.2940
 1688SOL    HW1 5780   4.316   0.081   3.649 -0.4711  0.6139 -0.0905
 1688SOL    HW2 5781   4.442   0.064   3.566 -0.2733 -1.1991  0.5677
 1689SOL     OW 5782   1.443   0.380   1.870  0.0789  0.0719 -0.5959
 1689SOL    HW1 5783   1.451   0.287   1.891  2.0708  0.3603  0.0098
 1689SOL    HW2 5784   1.509   0.395   1.804  1.4301  1.5616  1.0507
 1690SOL     OW 5785   0.173   0.122   6.570 -0.1361 -0.4340 -0.1818
 1690SOL    HW1 5786   0.087   0.105   6.531 -0.6186  1.7879 -0.1198
 1690SOL    HW2 5787   0.234   0.074   6.513 -1.4193 -2.4236  0.0560
 1691SOL     OW 5788   4.855   3.487   5.658  0.3233  0.1354 -0.2757
 1691SOL    HW1 5789   4.910   3.420   5.698  1.6553  1.7149  0.6093
 1691SOL    HW2 5790   4.801   3.520   5.729  1.1891  1.4789 -0.2374
 1692SOL     OW 5791   5.292   3.028   4.807  0.4283  0.3219 -0.1765
 1692SOL    HW1 5792   5.216   3.053   4.753 -0.6154  0.5414  1.3468
 1692SOL    HW2 5793   5.281   2.934   4.822  0.7275  0.2582 -0.3585
 1693SOL     OW 5794   5.484   3.397   4.811  0.5409 -0.2884  0.1315
 1693SOL    HW1 5795   5.430   3.406   4.890  0.0870 -0.8709 -0.1050
 1693SOL    HW2 5796   5.420   3.388   4.740  0.9417  0.8569 -0.3850
 1694SOL     OW 5797   5.405   3.574   5.304 -0.2541  0.1418  0.4659
 1694SOL    HW1 5798   5.345   3.501   5.320 -1.3771  1.2584  1.5357
 1694SOL    HW2 5799   5.490   3.533   5.286 -0.9800 -1.4201  0.5479
 1695SOL     OW 5800   2.424   3.573   2.782 -0.7308 -0.0737  0.2453
 1695SOL    HW1 5801   2.489   3.590   2.714  0.0081 -1.1899  0.6689
 1695SOL    HW2 5802   2.387   3.488   2.760  0.6055 -1.1685  2.0892
 1696SOL     OW 5803   5.365   0.034   0.375  0.0491 -0.0131  0.0452
 1696SOL    HW1 5804   5.397   0.042   0.465 -2.3028  0.5893  0.8711
 1696SOL    HW2 5805   5.439   0.060   0.320  0.2183  3.8328  1.9461
 1697SOL     OW 5806   3.361   4.551   6.573 -0.0588 -0.2269  0.3372
 1697SOL    HW1 5807   3.367   4.461   6.539 -0.7664  0.7539 -2.5549
 1697SOL    HW2 5808   3.451   4.576   6.591  0.1135 -1.6342  1.5285
 1698SOL     OW 5809   3.969   0.482   1.686  0.1678  0.2156  0.2214
 1698SOL    HW1 5810   4.030   0.508   1.755 -1.2989  0.7027  1.3502
 1698SOL    HW2 5811   3.908   0.555   1.679  0.3568  0.2049 -1.6582
 1699SOL     OW 5812   6.120   4.091   0.084 -0.0511 -0.4799  0.9973
 1699SOL    HW1 5813   6.069   4.016   0.054  0.3353 -0.2031 -0.3520
 1699SOL    HW2 5814   6.092   4.163   0.028  2.8398 -0.6350 -0.7385
 1700SOL     OW 5815   0.029   6.250   4.232  0.5948  0.7950  0.3915
 1700SOL    HW1 5816  -0.027   6.325   4.211  0.0314  0.2398 -0.1130
 1700SOL    HW2 5817  -0.032   6.182   4.260  1.1681  0.7852  1.6322
 1701SOL     OW 5818   4.997   0.031   1.368 -0.1302  0.0004 -0.2032
 1701SOL    HW1 5819   5.028  -0.034   1.431  0.7375  1.6035  1.0585
 1701SOL    HW2 5820   5.074   0.083   1.347 -1.3143  2.2126  0.7358
 1702SOL     OW 5821   0.480   5.643   4.891 -0.6696 -0.5616 -0.2532
 1702SOL    HW1 5822   0.512   5.589   4.818  0.0066  0.7914 -0.9826
 1702SOL    HW2 5823   0.477   5.732   4.855  0.0968  0.1949  1.4962
 1703SOL     OW 5824   4.707   2.370   0.385  0.2939  0.2098 -0.0241
 1703SOL    HW1 5825   4.627   2.317   0.384 -0.2139  0.9347  0.8152
 1703SOL    HW2 5826   4.714   2.404   0.296  0.5376 -1.1364 -0.5236
 1704SOL     OW 5827   3.769   0.005   4.047  0.0755 -0.6761 -0.3215
 1704SOL    HW1 5828   3.848   0.017   3.994 -0.1378 -1.0609 -0.7355
 1704SOL    HW2 5829   3.783  -0.079   4.090 -0.3001 -0.9512 -0.7355
 1705SOL     OW 5830   0.242   6.324   4.399 -0.1578 -0.5820  0.4273
 1705SOL    HW1 5831   0.221   6.274   4.478 -0.6788 -1.1599 -0.0677
 1705SOL    HW2 5832   0.171   6.304   4.338  0.7399 -0.9053 -0.5347
 1706SOL     OW 5833   3.742   3.252   0.272 -0.2371 -0.0356 -0.4024
 1706SOL    HW1 5834   3.811   3.245   0.339  1.4661  0.8546 -2.0271
 1706SOL    HW2 5835   3.731   3.163   0.239  0.7877 -0.0296 -0.7719
 1707SOL     OW 5836   0.372   0.650   5.091  1.0881  0.0798  0.3601
 1707SOL    HW1 5837   0.431   0.575   5.095  0.2656 -0.5587  0.7188
 1707SOL    HW2 5838   0.379   0.681   5.001 -0.9049 -2.3684 -0.7021
 1708SOL     OW 5839   0.949   2.474   2.727  0.1626 -0.1518 -0.5554
 1708SOL    HW1 5840   0.858   2.455   2.750  0.4003 -0.0831  0.5070
 1708SOL    HW2 5841   0.968   2.415   2.654 -1.0998  0.7177 -1.5894
 1709SOL     OW 5842   4.993   4.709   4.586 -0.2008  0.4545  0.0790
 1709SOL    HW1 5843   4.963   4.757   4.663  1.1246  0.9601  0.2904
 1709SOL    HW2 5844   5.006   4.619   4.617  2.1281  1.0687  0.9091
 1710SOL     OW 5845   4.426   0.641   4.782  0.1055 -0.3433  0.3269
 1710SOL    HW1 5846   4.399   0.689   4.860  3.0778  1.4613  0.3127
 1710SOL    HW2 5847   4.401   0.698   4.709 -0.7540 -1.0611  0.0548
 1711SOL     OW 5848   3.310   1.331   1.384  0.4384  0.2348 -0.5369
 1711SOL    HW1 5849   3.373   1.309   1.315  0.0895  0.7468 -1.0226
 1711SOL    HW2 5850   3.331   1.271   1.455  2.2502  1.1843 -0.2403
 1712SOL     OW 5851   6.187   5.439   1.445  0.1733  0.0334 -0.0269
 1712SOL    HW1 5852   6.160   5.358   1.400 -0.4466  0.4944 -0.4973
 1712SOL    HW2 5853   6.231   5.409   1.524 -3.4086 -0.7537  1.7710
 1713SOL     OW 5854   5.797   2.474   5.000  1.2282 -0.2375  0.2296
 1713SOL    HW1 5855   5.829   2.529   4.928  2.4142 -0.9732  0.1820
 1713SOL    HW2 5856   5.726   2.526   5.040 -0.5262 -0.4923 -2.4239
 1714SOL     OW 5857   4.825   4.927   4.424 -0.0328 -0.1496  0.2593
 1714SOL    HW1 5858   4.911   4.890   4.401 -1.0169 -3.0414  1.0850
 1714SOL    HW2 5859   4.843   4.985   4.498  1.2129 -0.6104  0.3350
 1715SOL     OW 5860   1.074   2.150   5.533 -0.1731 -0.2781  0.5878
 1715SOL    HW1 5861   1.003   2.117   5.477  0.8533 -1.2573 -0.1739
 1715SOL    HW2 5862   1.090   2.080   5.595  0.7461 -0.4584  0.1619
 1716SOL     OW 5863   3.392   0.394   3.123  0.7534  0.0757  0.0666
 1716SOL    HW1 5864   3.446   0.411   3.200 -1.0081  2.3533  0.8698
 1716SOL    HW2 5865   3.413   0.304   3.098  2.6846 -0.0893  2.1180
 1717SOL     OW 5866   6.203   0.843   4.351 -0.8387  0.5868  0.5690
 1717SOL    HW1 5867   6.153   0.874   4.427 -3.5506  1.8908 -1.6340
 1717SOL    HW2 5868   6.137   0.803   4.295  0.5110  2.6774 -2.6191
 1718SOL     OW 5869   5.976   3.842   1.833  0.6367 -0.5604 -0.3720
 1718SOL    HW1 5870   6.070   3.859   1.820  1.2623 -2.8638  0.7743
 1718SOL    HW2 5871   5.934   3.874   1.754  2.5238 -0.4594 -1.3640
 1719SOL     OW 5872   5.871   3.763   5.023  0.0805  0.0777  0.3555
 1719SOL    HW1 5873   5.807   3.760   4.951  1.1805  2.7674 -0.8224
 1719SOL    HW2 5874   5.842   3.838   5.076  1.8239  0.8599  0.2167
 1720SOL     OW 5875   2.489   5.410   3.646  0.1367 -0.0269  0.3237
 1720SOL    HW1 5876   2.542   5.483   3.615  2.1389 -1.7388 -0.3859
 1720SOL    HW2 5877   2.465   5.434   3.736  0.7102  1.5038  0.0841
 1721SOL     OW 5878   1.098   4.183   1.626  0.0771  0.0460 -0.3804
 1721SOL    HW1 5879   1.092   4.191   1.531  0.9618  1.2390 -0.3430
 1721SOL    HW2 5880   1.007   4.174   1.655 -0.2033 -0.2160 -1.3179
 1722SOL     OW 5881   4.118   0.370   3.626 -0.2179 -0.0532  0.2720
 1722SOL    HW1 5882   4.067   0.388   3.705  0.2182  2.6148 -0.0029
 1722SOL    HW2 5883   4.090   0.438   3.564  1.6731 -0.2242 -0.7989
 1723SOL     OW 5884   2.018   6.273   4.797 -0.1654 -0.4328 -0.1360
 1723SOL    HW1 5885   1.999   6.280   4.890  1.1888 -0.7969  0.1787
 1723SOL    HW2 5886   2.052   6.184   4.786 -2.0431 -1.0387 -1.2922
 1724SOL     OW 5887   5.385   0.072   4.094 -0.2448  0.3389  0.2781
 1724SOL    HW1 5888   5.362   0.014   4.022 -0.3505  1.0635 -0.2725
 1724SOL    HW2 5889   5.310   0.067   4.154 -0.9016  1.0484 -0.4803
 1725SOL     OW 5890   1.419   5.229   2.635  0.3260  0.0311  0.3575
 1725SOL    HW1 5891   1.377   5.174   2.701  0.7389  0.3098  0.8583
 1725SOL    HW2 5892   1.484   5.280   2.684  0.6813  0.1935 -0.2727
 1726SOL     OW 5893   2.417   1.066   6.225 -0.0033  0.4500 -0.2483
 1726SOL    HW1 5894   2.493   1.116   6.252  0.7819 -0.4599 -0.7317
 1726SOL    HW2 5895   2.452   0.980   6.200 -1.2596 -0.1881  0.1329
 1727SOL     OW 5896   0.329   0.556   4.414 -0.0584  0.3263  0.2314
 1727SOL    HW1 5897   0.300   0.467   4.432  1.0547  0.0683  0.8249
 1727SOL    HW2 5898   0.323   0.601   4.499 -0.9154  0.8965 -0.1341
 1728SOL     OW 5899   2.006   0.213   2.892  0.5904 -0.0714  0.1215
 1728SOL    HW1 5900   2.029   0.258   2.974  0.5171 -0.7864  0.5330
 1728SOL    HW2 5901   2.078   0.235   2.832  1.7994 -1.3565  1.0503
 1729SOL     OW 5902   6.330   2.188   4.209  0.0012 -0.2246  0.1458
 1729SOL    HW1 5903   6.296   2.165   4.122  0.3129  1.8778 -0.5639
 1729SOL    HW2 5904   6.425   2.194   4.197  0.3785 -2.9076  1.3755
 1730SOL     OW 5905   1.408   4.803   1.828 -0.4929 -0.3891 -0.0195
 1730SOL    HW1 5906   1.397   4.709   1.817 -0.4365 -0.1848 -1.8501
 1730SOL    HW2 5907   1.494   4.822   1.791 -0.1885  0.2806  1.0017
 1731SOL     OW 5908   5.701   0.205   3.841  0.3450  0.3691  0.2349
 1731SOL    HW1 5909   5.681   0.298   3.828  2.5257  1.0895  1.7123
 1731SOL    HW2 5910   5.724   0.198   3.933 -1.9776 -2.1056  0.6788
 1732SOL     OW 5911   6.391   4.951   3.494 -0.3387 -0.0281 -0.0336
 1732SOL    HW1 5912   6.351   4.907   3.419 -1.8723  0.5300  0.4428
 1732SOL    HW2 5913   6.388   5.044   3.472 -0.5552  0.1210  0.6159
 1733SOL     OW 5914   6.025   3.051   0.495 -0.1690 -0.6529 -0.1669
 1733SOL    HW1 5915   6.025   3.064   0.400 -0.7705  1.5994  0.1059
 1733SOL    HW2 5916   5.935   3.071   0.522  0.5254  0.8315  1.1200
 1734SOL     OW 5917   0.680   5.791   2.794  0.3893 -0.1746 -0.6358
 1734SOL    HW1 5918   0.661   5.829   2.880 -2.2050 -0.2912 -1.1093
 1734SOL    HW2 5919   0.752   5.730   2.810  1.4506  1.4438  1.0052
 1735SOL     OW 5920   4.876   3.646   0.274  0.0050  0.2495 -0.4031
 1735SOL    HW1 5921   4.869   3.577   0.208 -0.2370 -1.2132  1.1479
 1735SOL    HW2 5922   4.786   3.677   0.287 -0.4423 -1.8567  1.7571
 1736SOL     OW 5923   3.340   2.445   4.256  1.0192  0.5763 -0.1900
 1736SOL    HW1 5924   3.413   2.493   4.294  1.9762 -0.6427 -0.4677
 1736SOL    HW2 5925   3.319   2.378   4.322  1.7025 -0.5775 -1.1327
 1737SOL     OW 5926   5.185   4.056   4.696 -0.2154 -0.3965  0.1349
 1737SOL    HW1 5927   5.116   4.014   4.646  0.7662 -0.2170 -1.4039
 1737SOL    HW2 5928   5.259   3.996   4.689  1.0808  1.3406 -1.7506
 1738SOL     OW 5929   0.178   5.062   3.447 -0.2262  0.4474 -0.4163
 1738SOL    HW1 5930   0.228   5.071   3.366 -0.1118 -0.9320 -0.5044
 1738SOL    HW2 5931   0.089   5.087   3.423  0.2186  2.0047 -0.4798
 1739SOL     OW 5932   2.499   6.297   1.609 -0.8784  0.5644 -0.1633
 1739SOL    HW1 5933   2.436   6.244   1.657  0.1408 -2.2228 -1.8263
 1739SOL    HW2 5934   2.453   6.324   1.530 -0.8370  0.7474 -0.1261
 1740SOL     OW 5935   4.405   6.056   6.534  0.4410  0.1686 -0.3455
 1740SOL    HW1 5936   4.496   6.027   6.527  0.2107 -0.3755 -1.1648
 1740SOL    HW2 5937   4.359   6.005   6.467 -0.3768  0.7978 -0.2611
 1741SOL     OW 5938   4.369   4.855   2.413 -0.3925 -0.3731 -0.1151
 1741SOL    HW1 5939   4.356   4.890   2.501 -0.3292  0.3479 -0.3956
 1741SOL    HW2 5940   4.382   4.932   2.358  1.1902 -0.8919 -0.4904
 1742SOL     OW 5941   4.052   6.337   2.698  0.1880 -0.3204 -0.9871
 1742SOL    HW1 5942   4.025   6.391   2.624 -0.5032  0.2996 -0.3044
 1742SOL    HW2 5943   3.973   6.331   2.753  1.3795  1.3981  0.9969
 1743SOL     OW 5944   5.771   0.666   2.636 -0.3485  0.3380 -0.0290
 1743SOL    HW1 5945   5.693   0.716   2.612 -2.0450 -0.2525  3.8821
 1743SOL    HW2 5946   5.840   0.732   2.645 -1.4778  1.4160  0.7820
 1744SOL     OW 5947   0.973   1.784   4.374  0.0892  0.0425  0.3772
 1744SOL    HW1 5948   0.973   1.766   4.280  1.0176 -1.0286  0.5705
 1744SOL    HW2 5949   0.885   1.762   4.403  0.5951 -2.2952  0.2276
 1745SOL     OW 5950   6.644   1.445   1.483  0.0867 -0.2659  0.0892
 1745SOL    HW1 5951   6.681   1.533   1.472 -0.2256 -0.0513  0.7294
 1745SOL    HW2 5952   6.640   1.432   1.578  0.7204 -1.2276 -0.0081
 1746SOL     OW 5953   6.230   1.490   6.058 -0.0619 -0.0010 -0.2115
 1746SOL    HW1 5954   6.172   1.446   6.120  2.3683 -0.6945  1.6340
 1746SOL    HW2 5955   6.239   1.579   6.092  3.4704 -1.1476  2.0973
 1747SOL     OW 5956   0.220   0.390   2.856  0.2620  0.4718 -0.1810
 1747SOL    HW1 5957   0.215   0.483   2.878 -0.0362  0.7620 -1.4293
 1747SOL    HW2 5958   0.229   0.389   2.761  1.7294 -0.7364 -0.0366
 1748SOL     OW 5959   6.095   5.198   1.346  0.1149  0.5771 -0.0566
 1748SOL    HW1 5960   6.030   5.141   1.385  0.2819  0.4134 -0.0204
 1748SOL    HW2 5961   6.173   5.143   1.335  1.4730  1.6834  3.2727
 1749SOL     OW 5962   4.212   3.178   0.519  0.1087 -0.0631  0.1213
 1749SOL    HW1 5963   4.251   3.177   0.606  0.2096 -0.3137  0.0758
 1749SOL    HW2 5964   4.229   3.090   0.485 -0.8095 -0.2862  0.2322
 1750SOL     OW 5965   6.361   4.989   1.620  0.2334 -0.1680 -0.3382
 1750SOL    HW1 5966   6.362   5.076   1.582  0.2471  0.7698  1.7046
 1750SOL    HW2 5967   6.449   4.955   1.607  1.3955  1.6827  2.1867
 1751SOL     OW 5968   2.248   5.686   3.866  0.2150  0.2005 -0.0759
 1751SOL    HW1 5969   2.179   5.752   3.881 -0.0489  0.5273 -2.4697
 1751SOL    HW2 5970   2.325   5.737   3.843  1.1407 -0.1958  2.0590
 1752SOL     OW 5971   1.825   4.912   2.446 -0.0491 -0.3352  0.5091
 1752SOL    HW1 5972   1.781   4.889   2.364 -0.3173 -2.4216  1.1941
 1752SOL    HW2 5973   1.756   4.906   2.513  0.5251 -0.2837  1.1101
 1753SOL     OW 5974   0.656   0.247   2.276 -0.3987 -0.8109  0.1296
 1753SOL    HW1 5975   0.678   0.209   2.361  1.7937 -0.3375 -0.1990
 1753SOL    HW2 5976   0.674   0.178   2.213 -1.4646 -0.9626 -0.0281
 1754SOL     OW 5977   2.775   4.865   4.594  0.0697 -0.3214  0.0135
 1754SOL    HW1 5978   2.730   4.817   4.665  1.4950 -0.5647  0.7739
 1754SOL    HW2 5979   2.862   4.884   4.630  0.4145  0.5535 -1.2681
 1755SOL     OW 5980   1.968   3.799   3.284 -0.7329 -0.9308 -0.0286
 1755SOL    HW1 5981   2.009   3.822   3.201 -0.2727  2.1475  1.0190
 1755SOL    HW2 5982   2.029   3.737   3.324  1.5113  1.3431  0.1918
 1756SOL     OW 5983   3.939   4.855   5.495  0.0409  0.1825 -0.7852
 1756SOL    HW1 5984   3.890   4.816   5.567  0.6370  2.1824  0.7572
 1756SOL    HW2 5985   3.882   4.846   5.419 -1.1958 -0.6981  0.2279
 1757SOL     OW 5986   3.577   1.123   0.364  0.3971  0.5678 -0.4653
 1757SOL    HW1 5987   3.514   1.161   0.303  1.0919  1.3202 -0.7302
 1757SOL    HW2 5988   3.591   1.191   0.430  1.1439  0.5214 -0.5726
 1758SOL     OW 5989   5.565   2.868   4.710  0.6281  0.5406  0.6199
 1758SOL    HW1 5990   5.575   2.955   4.749 -2.5025  0.7520  1.0945
 1758SOL    HW2 5991   5.590   2.879   4.618 -0.2956  2.0959  0.5415
 1759SOL     OW 5992   1.217   4.525   0.237  0.1943  0.1008 -0.7366
 1759SOL    HW1 5993   1.303   4.551   0.205  0.0689  0.6037 -0.6602
 1759SOL    HW2 5994   1.214   4.558   0.327 -0.3063  0.5892 -0.9339
 1760SOL     OW 5995   4.389   5.513   5.417  0.3887  0.2717 -0.0416
 1760SOL    HW1 5996   4.386   5.450   5.345  0.8177 -1.3981  1.3677
 1760SOL    HW2 5997   4.306   5.499   5.464  0.9614  0.0034  0.8924
 1761SOL     OW 5998   2.851   2.362   1.594 -0.1794  0.0188 -0.2695
 1761SOL    HW1 5999   2.919   2.301   1.619 -0.6982 -0.5666 -0.2629
 1761SOL    HW2 6000   2.848   2.426   1.665  0.3196  0.0166 -0.2446
 1762SOL     OW 6001   3.547   4.483   2.181 -0.1551  0.8578  0.0903
 1762SOL    HW1 6002   3.597   4.401   2.186  0.1340  1.0105 -0.2969
 1762SOL    HW2 6003   3.606   4.545   2.138 -0.3781  1.2692  0.3763
 1763SOL     OW 6004   0.483   2.079   5.188  0.1935  0.2787 -0.1976
 1763SOL    HW1 6005   0.560   2.124   5.153  0.6889  0.5364  1.2268
 1763SOL    HW2 6006   0.426   2.150   5.219 -0.5052  0.0765 -0.9910
 1764SOL     OW 6007   5.354   5.526   4.458  0.3862  0.1723  0.0532
 1764SOL    HW1 6008   5.440   5.485   4.465  0.3262  0.0786  0.2564
 1764SOL    HW2 6009   5.353   5.567   4.371  0.1559 -0.9309 -0.4873
 1765SOL     OW 6010   0.762   6.079   2.214  0.3897 -0.5335  0.4896
 1765SOL    HW1 6011   0.855   6.079   2.235  0.3925 -0.7313  0.4796
 1765SOL    HW2 6012   0.726   6.004   2.261  0.4751 -1.2421 -0.5546
 1766SOL     OW 6013   4.741   5.506   1.329 -0.2443  0.1314  0.2803
 1766SOL    HW1 6014   4.812   5.441   1.322  0.0885  0.4215  0.9506
 1766SOL    HW2 6015   4.672   5.472   1.272  0.0615 -0.6441  0.3654
 1767SOL     OW 6016   1.836   2.458   2.181 -0.0511 -0.6580 -0.1212
 1767SOL    HW1 6017   1.931   2.457   2.188  0.0443 -1.2823 -1.2925
 1767SOL    HW2 6018   1.805   2.436   2.269  0.8947 -1.0447  0.1203
 1768SOL     OW 6019   3.170   3.434   2.541  0.4912 -0.3149 -0.2170
 1768SOL    HW1 6020   3.133   3.518   2.567  1.5151 -0.7613  2.8632
 1768SOL    HW2 6021   3.259   3.455   2.512  0.2843 -0.1699 -0.7521
 1769SOL     OW 6022   2.525   5.925   1.233  0.0266  0.1754  1.0812
 1769SOL    HW1 6023   2.449   5.924   1.174  0.2801  0.5244  0.7443
 1769SOL    HW2 6024   2.509   5.999   1.291 -0.1823 -0.1180  1.4054
 1770SOL     OW 6025   5.305   3.111   4.273 -0.9116  0.4153 -0.3707
 1770SOL    HW1 6026   5.360   3.179   4.313 -1.0272  0.5826 -0.4946
 1770SOL    HW2 6027   5.280   3.149   4.188 -1.3691  0.4117 -0.2336
 1771SOL     OW 6028   2.551   0.688   4.108 -0.0271 -0.5490 -0.6832
 1771SOL    HW1 6029   2.476   0.632   4.092  0.1639 -1.3734  1.1526
 1771SOL    HW2 6030   2.526   0.773   4.071 -2.1039 -0.6442  0.4452
 1772SOL     OW 6031   0.130   4.349   0.642 -0.0169 -0.3295 -0.0532
 1772SOL    HW1 6032   0.165   4.438   0.635  2.1600 -1.1810 -0.4786
 1772SOL    HW2 6033   0.208   4.293   0.645 -1.3463 -2.1986  0.6225
 1773SOL     OW 6034   3.417   5.425   1.859 -0.0664  0.5560 -0.1707
 1773SOL    HW1 6035   3.455   5.459   1.940  0.5231 -0.7808  0.1383
 1773SOL    HW2 6036   3.491   5.420   1.798  0.1590 -1.3739  0.2095
 1774SOL     OW 6037   5.799   0.354   0.153  0.1244  0.5538 -0.1095
 1774SOL    HW1 6038   5.777   0.446   0.171 -0.3103  0.7176 -1.3743
 1774SOL    HW2 6039   5.895   0.353   0.149  0.1886  0.6651  1.3239
 1775SOL     OW 6040   1.741   3.632   0.607  0.3486  0.0395  0.1976
 1775SOL    HW1 6041   1.696   3.627   0.523  0.2677  0.4123  0.2145
 1775SOL    HW2 6042   1.693   3.700   0.655  0.6802  0.1527  0.3687
 1776SOL     OW 6043   1.451   2.945   3.267 -0.3906 -0.0788  0.0639
 1776SOL    HW1 6044   1.430   2.887   3.194 -0.1918 -1.2006  0.8775
 1776SOL    HW2 6045   1.367   2.960   3.310 -0.0369 -2.0457  1.4920
 1777SOL     OW 6046   0.549   0.781   2.110  0.5224  0.2931 -0.0153
 1777SOL    HW1 6047   0.512   0.717   2.049  0.7505  0.7052 -0.5818
 1777SOL    HW2 6048   0.551   0.735   2.194 -0.6860  0.0632 -0.1157
 1778SOL     OW 6049   4.515   2.982   2.718  0.1289 -0.3343  0.1143
 1778SOL    HW1 6050   4.547   2.914   2.777 -0.5312 -3.4014 -2.8642
 1778SOL    HW2 6051   4.423   2.993   2.742  0.4422  0.0462  1.1198
 1779SOL     OW 6052   1.428   2.157   4.250  0.1107  0.1001 -0.0952
 1779SOL    HW1 6053   1.363   2.092   4.277 -0.3881  0.6059 -0.0792
 1779SOL    HW2 6054   1.388   2.203   4.177  0.2446  0.7453  0.2310
 1780SOL     OW 6055   6.292   0.977   6.226  0.1087  0.4324 -0.1185
 1780SOL    HW1 6056   6.268   1.003   6.314 -0.9607 -1.0509  0.0498
 1780SOL    HW2 6057   6.302   1.059   6.178 -0.4496  1.2062  1.0863
 1781SOL     OW 6058   0.496   4.493   5.434 -0.5831  0.0998 -0.3839
 1781SOL    HW1 6059   0.408   4.457   5.448 -0.1742 -0.2466  1.4156
 1781SOL    HW2 6060   0.533   4.439   5.364 -1.0532 -1.0771  0.2708
 1782SOL     OW 6061   5.801   0.674   3.826 -0.4345 -0.0422  0.5568
 1782SOL    HW1 6062   5.830   0.752   3.874  1.2146 -0.2812 -0.0294
 1782SOL    HW2 6063   5.794   0.704   3.735 -1.2982 -0.1939  0.5684
 1783SOL     OW 6064   4.976   0.840   0.511 -0.5921 -0.0532  0.0744
 1783SOL    HW1 6065   4.936   0.922   0.538 -1.4611 -0.5293  0.2378
 1783SOL    HW2 6066   4.969   0.783   0.587 -1.1116 -0.6875 -0.4360
 1784SOL     OW 6067   6.156   6.433   2.857  0.2069 -0.0841 -0.1055
 1784SOL    HW1 6068   6.083   6.495   2.870  0.0997 -0.1736 -0.2799
 1784SOL    HW2 6069   6.193   6.421   2.945  0.9285  1.0879 -0.2407
 1785SOL     OW 6070   5.303   1.842   1.536 -0.3418 -0.2312  0.2717
 1785SOL    HW1 6071   5.277   1.785   1.608 -0.8122  0.9134  1.0159
 1785SOL    HW2 6072   5.382   1.801   1.500 -0.4756 -1.1595  1.0108
 1786SOL     OW 6073   1.694   0.484   5.227 -0.0095  0.1192  0.1044
 1786SOL    HW1 6074   1.741   0.560   5.193  1.0987 -1.0308 -0.9749
 1786SOL    HW2 6075   1.755   0.443   5.289 -0.4017 -0.1625  0.3069
 1787SOL     OW 6076   5.716   5.429   3.185  0.0167 -0.0929  0.0628
 1787SOL    HW1 6077   5.677   5.356   3.234 -1.8831  0.4375 -0.6328
 1787SOL    HW2 6078   5.642   5.472   3.143  0.9528  2.9698  1.4113
 1788SOL     OW 6079   6.293   2.603   5.769 -0.3457  0.9698  0.0118
 1788SOL    HW1 6080   6.294   2.513   5.736 -1.0642  0.9299  0.1022
 1788SOL    HW2 6081   6.370   2.608   5.826 -0.2485  0.4448 -0.0690
 1789SOL     OW 6082   4.924   0.395   5.601 -0.3846  0.1502 -0.0370
 1789SOL    HW1 6083   5.018   0.411   5.615 -0.5389  1.0386  0.0502
 1789SOL    HW2 6084   4.882   0.473   5.636 -1.2974 -1.0901  1.6552
 1790SOL     OW 6085   3.958   6.713   2.338  0.1461 -0.1653 -0.1940
 1790SOL    HW1 6086   3.872   6.754   2.334  0.1873 -0.1930 -1.4529
 1790SOL    HW2 6087   4.017   6.773   2.293  0.8096 -0.1131  0.7178
 1791SOL     OW 6088   2.593   4.564   3.876 -0.1471  0.1288  0.5258
 1791SOL    HW1 6089   2.606   4.618   3.953 -0.1916  2.1479 -0.8619
 1791SOL    HW2 6090   2.603   4.624   3.802 -0.9869 -1.5891 -1.0242
 1792SOL     OW 6091   6.625   5.564   2.481 -0.0441  0.2753  0.0884
 1792SOL    HW1 6092   6.609   5.585   2.388 -1.1076 -0.4234  0.1158
 1792SOL    HW2 6093   6.600   5.644   2.528 -2.5521 -0.4640  0.0459
 1793SOL     OW 6094   0.159   4.344   0.019  0.3844 -0.0282 -0.4060
 1793SOL    HW1 6095   0.157   4.297   0.102  0.5757  0.3990 -0.1564
 1793SOL    HW2 6096   0.072   4.383   0.011  1.2584  2.3848  1.0354
 1794SOL     OW 6097   1.608   2.522   6.019  0.4335  0.9057  0.0096
 1794SOL    HW1 6098   1.607   2.562   6.106 -2.3305  2.1502 -0.5532
 1794SOL    HW2 6099   1.673   2.571   5.970  0.7184  1.3664  0.8513
 1795SOL     OW 6100   0.206   5.687   0.876 -0.1826 -0.3857  0.4789
 1795SOL    HW1 6101   0.173   5.597   0.873 -0.4931 -0.2040 -2.5115
 1795SOL    HW2 6102   0.130   5.741   0.853 -0.2047  0.7405  3.0287
 1796SOL     OW 6103   3.139   2.778   3.416 -0.1592  0.7594  0.3732
 1796SOL    HW1 6104   3.179   2.712   3.358 -0.0041  0.5297  0.7377
 1796SOL    HW2 6105   3.167   2.752   3.504 -0.5087  1.0270  0.5629
 1797SOL     OW 6106   2.949   2.207   5.796  0.7650  0.1740 -0.3662
 1797SOL    HW1 6107   2.924   2.123   5.758  2.5660 -0.0607 -1.1084
 1797SOL    HW2 6108   2.988   2.185   5.880 -1.3516  0.5265  0.7399
 1798SOL     OW 6109   0.022   1.403   0.822  0.0487  0.2092 -0.5004
 1798SOL    HW1 6110   0.043   1.314   0.850  2.6032  1.1310  0.6328
 1798SOL    HW2 6111  -0.065   1.419   0.859  0.3378 -1.1553  0.8415
 1799SOL     OW 6112   1.301   5.787   4.216  0.2343 -0.8117 -0.1381
 1799SOL    HW1 6113   1.260   5.789   4.303  1.5979 -0.0302  0.5075
 1799SOL    HW2 6114   1.307   5.694   4.195  0.8691 -1.0768  1.1012
 1800SOL     OW 6115   3.565   2.439   4.725  0.0996  0.4375 -0.1435
 1800SOL    HW1 6116   3.613   2.516   4.756  1.0691 -0.4032  0.4558
 1800SOL    HW2 6117   3.511   2.413   4.799  0.6402 -0.1469  0.0496
 1801SOL     OW 6118   2.634   4.046   4.971 -0.5302 -0.2448  0.3677
 1801SOL    HW1 6119   2.559   3.993   4.996 -1.2215  0.4639 -0.1515
 1801SOL    HW2 6120   2.690   3.987   4.920 -0.3297 -0.9978  1.4584
 1802SOL     OW 6121   5.260   2.794   3.028 -0.2480 -0.2357 -0.4740
 1802SOL    HW1 6122   5.298   2.775   2.943  0.1244  1.1004 -0.6262
 1802SOL    HW2 6123   5.173   2.754   3.025 -0.7821  0.9687 -2.0214
 1803SOL     OW 6124   4.209   2.090   4.261 -0.0385 -0.3512 -0.4055
 1803SOL    HW1 6125   4.267   2.097   4.337 -1.3940 -1.6974  0.7994
 1803SOL    HW2 6126   4.247   2.018   4.209  0.4232  0.0245 -0.5965
 1804SOL     OW 6127   5.422   1.635   2.647  0.3770 -0.7059  0.0991
 1804SOL    HW1 6128   5.443   1.544   2.627  0.2869 -0.8754  0.7728
 1804SOL    HW2 6129   5.430   1.642   2.742  2.2761  0.4789 -0.1328
 1805SOL     OW 6130   6.167   2.374   3.735  0.5289 -0.2197  0.4103
 1805SOL    HW1 6131   6.097   2.318   3.768  1.1183 -1.0260  0.3050
 1805SOL    HW2 6132   6.194   2.333   3.653  0.8244  0.3278  0.2348
 1806SOL     OW 6133   3.149   4.866   2.977 -0.1924  0.0706 -0.0665
 1806SOL    HW1 6134   3.144   4.821   3.061 -0.8181  0.3793  0.0683
 1806SOL    HW2 6135   3.212   4.816   2.926  0.9120  0.4438  0.9269
 1807SOL     OW 6136   2.999   4.291   4.120 -0.1441  0.0018  0.1157
 1807SOL    HW1 6137   3.026   4.202   4.142  1.8958  0.3252 -0.9358
 1807SOL    HW2 6138   3.035   4.306   4.032 -1.1685  1.5659 -0.0581
 1808SOL     OW 6139   0.645   4.378   1.662 -0.1348  0.4453 -0.1967
 1808SOL    HW1 6140   0.649   4.372   1.566 -0.3067  2.2777 -0.3356
 1808SOL    HW2 6141   0.555   4.358   1.684 -0.2052  0.4704 -0.4586
 1809SOL     OW 6142   2.144   2.670   2.133  0.4410 -0.2673  0.2119
 1809SOL    HW1 6143   2.095   2.747   2.164 -0.5530 -0.8597  0.1417
 1809SOL    HW2 6144   2.086   2.596   2.153  0.7556 -0.8606 -1.0462
 1810SOL     OW 6145   1.239   4.886   5.793  0.0631 -0.4334 -0.1337
 1810SOL    HW1 6146   1.149   4.918   5.782 -0.8651 -2.2818  1.8002
 1810SOL    HW2 6147   1.277   4.944   5.860 -0.4854 -1.1696  0.8224
 1811SOL     OW 6148   2.947   6.554   5.971  0.7601  0.2617  0.0766
 1811SOL    HW1 6149   3.014   6.501   6.015  0.2102 -1.3744 -0.9966
 1811SOL    HW2 6150   2.988   6.583   5.890  0.5170  0.1285 -0.0936
 1812SOL     OW 6151   3.661   4.907   6.680  0.0746 -0.1498  0.0228
 1812SOL    HW1 6152   3.704   4.978   6.729 -3.2034  0.1383  2.6726
 1812SOL    HW2 6153   3.732   4.864   6.633  2.9591  1.5162  2.6451
 1813SOL     OW 6154   5.582   5.553   4.771 -0.4188  0.7564 -0.0890
 1813SOL    HW1 6155   5.615   5.627   4.720  0.3767  0.0789 -0.5714
 1813SOL    HW2 6156   5.490   5.574   4.787 -0.4510  1.3928 -1.0547
 1814SOL     OW 6157   4.779   3.734   0.785 -0.1893 -0.0740 -0.1173
 1814SOL    HW1 6158   4.840   3.720   0.858  1.1007  0.8413 -0.9878
 1814SOL    HW2 6159   4.720   3.659   0.788  0.6027 -0.6650  1.1297
 1815SOL     OW 6160   0.748   2.538   2.994  0.0560  0.1164  0.1801
 1815SOL    HW1 6161   0.837   2.512   3.016 -0.7587 -1.5332  1.6593
 1815SOL    HW2 6162   0.712   2.464   2.947 -0.3529  1.0284 -0.9663
 1816SOL     OW 6163   4.024   3.384   5.625  0.1228  0.0190 -0.3771
 1816SOL    HW1 6164   3.929   3.388   5.616 -0.0340 -0.0067  1.1834
 1816SOL    HW2 6165   4.056   3.459   5.575 -0.7836  0.6498 -0.0224
 1817SOL     OW 6166   0.090   3.821   6.623  0.0259  0.0723  0.1934
 1817SOL    HW1 6167   0.122   3.908   6.600  1.1754 -0.3112  0.3369
 1817SOL    HW2 6168   0.019   3.805   6.561  0.9048  0.4259 -0.9309
 1818SOL     OW 6169   1.558   5.590   2.424  0.0652 -0.4641 -0.6689
 1818SOL    HW1 6170   1.481   5.616   2.475  1.4554  2.3204  0.1148
 1818SOL    HW2 6171   1.522   5.537   2.353 -2.7115  1.6151 -0.9085
 1819SOL     OW 6172   3.071   1.180   3.642  0.5549 -0.2881  0.2080
 1819SOL    HW1 6173   3.093   1.272   3.628 -0.2749 -0.1591 -0.2849
 1819SOL    HW2 6174   3.110   1.134   3.568  0.9570 -0.3422  0.4466
 1820SOL     OW 6175   4.512   6.162   4.885 -0.1036  0.1113  0.0459
 1820SOL    HW1 6176   4.456   6.123   4.952 -0.0577 -0.7617 -0.4057
 1820SOL    HW2 6177   4.473   6.133   4.802 -0.5568  1.7367 -0.3233
 1821SOL     OW 6178   3.725   6.161   2.627 -0.0429  0.2108 -0.3013
 1821SOL    HW1 6179   3.759   6.213   2.700  0.6857 -0.1759 -0.3607
 1821SOL    HW2 6180   3.753   6.072   2.646 -2.2393 -0.3599  0.3611
 1822SOL     OW 6181   2.917   6.085   0.246  0.3382 -0.1804  0.3318
 1822SOL    HW1 6182   2.906   6.166   0.296  0.8957  0.6980 -0.9485
 1822SOL    HW2 6183   2.887   6.016   0.306 -1.0028  1.0388  1.1163
 1823SOL     OW 6184   6.504   3.777   0.416  0.1152  0.1296  0.4404
 1823SOL    HW1 6185   6.513   3.722   0.339  0.3600  1.2648 -0.3560
 1823SOL    HW2 6186   6.590   3.776   0.457 -0.2236 -1.1073  1.1482
 1824SOL     OW 6187   3.832   0.064   1.271 -0.0608 -0.1944  0.2694
 1824SOL    HW1 6188   3.784   0.033   1.348  1.0827 -0.0453  1.0385
 1824SOL    HW2 6189   3.844   0.158   1.286  0.4073 -0.2177  0.0367
 1825SOL     OW 6190   6.756   2.429   0.469  0.0070  0.0387  0.1333
 1825SOL    HW1 6191   6.716   2.348   0.499 -1.2835  0.3096 -0.8054
 1825SOL    HW2 6192   6.842   2.403   0.437 -0.3909 -0.9614 -0.1521
 1826SOL     OW 6193   2.182   4.635   2.816 -0.4792 -0.1718  0.2629
 1826SOL    HW1 6194   2.126   4.620   2.893  0.4662 -2.5389  0.5174
 1826SOL    HW2 6195   2.124   4.678   2.753 -1.4022  1.3456  2.0965
 1827SOL     OW 6196   5.735   5.867   0.508  0.3751  0.1669 -0.2618
 1827SOL    HW1 6197   5.798   5.905   0.569 -0.6392 -0.3553  1.1383
 1827SOL    HW2 6198   5.659   5.925   0.513  0.3110  0.1561 -1.0788
 1828SOL     OW 6199   1.547   1.090   2.016 -0.6259 -0.3106 -0.5434
 1828SOL    HW1 6200   1.501   1.088   2.101  0.7042 -1.2781  0.1579
 1828SOL    HW2 6201   1.639   1.080   2.038 -0.1881  0.2469 -2.0662
 1829SOL     OW 6202   6.475   6.685   4.215  0.5198  0.8539 -0.4014
 1829SOL    HW1 6203   6.513   6.698   4.302 -0.7865 -0.2531  0.3662
 1829SOL    HW2 6204   6.380   6.690   4.230  0.2833  0.6476 -1.7635
 1830SOL     OW 6205   4.089   4.533   6.102 -0.2896 -0.3716  0.7179
 1830SOL    HW1 6206   4.091   4.628   6.096  0.9956 -0.1749  3.5232
 1830SOL    HW2 6207   4.056   4.504   6.016 -0.4569  2.5520 -0.2569
 1831SOL     OW 6208   3.214   0.333   1.831 -0.4671  0.1186 -0.0831
 1831SOL    HW1 6209   3.140   0.348   1.773  0.6611  1.5101 -1.1932
 1831SOL    HW2 6210   3.282   0.296   1.774  1.3465  3.3590 -0.1592
 1832SOL     OW 6211   1.258   6.100   1.367 -0.4781  0.5135  0.1393
 1832SOL    HW1 6212   1.196   6.050   1.314 -0.4882 -0.1851  0.7848
 1832SOL    HW2 6213   1.203   6.157   1.421 -0.5919 -0.3517  0.9572
 1833SOL     OW 6214   2.783   4.580   2.634 -0.4680  0.3271 -0.3124
 1833SOL    HW1 6215   2.830   4.542   2.709 -0.4838 -1.3715 -1.1423
 1833SOL    HW2 6216   2.690   4.565   2.654 -0.4513 -0.6034 -0.9080
 1834SOL     OW 6217   2.136   2.584   5.394  0.2050 -0.0820  0.2824
 1834SOL    HW1 6218   2.043   2.589   5.372  0.2989  1.9469  0.2259
 1834SOL    HW2 6219   2.144   2.633   5.475  1.5997  1.8541 -0.9853
 1835SOL     OW 6220   2.313   3.343   3.068  0.2071  0.2678  0.3752
 1835SOL    HW1 6221   2.346   3.342   3.158  1.6329 -0.1894 -0.1423
 1835SOL    HW2 6222   2.383   3.382   3.017 -0.8618  1.1235 -0.4560
 1836SOL     OW 6223   1.030   1.723   2.968 -0.0463  0.1300  0.2256
 1836SOL    HW1 6224   1.069   1.712   2.881 -3.2999  1.1700 -1.4387
 1836SOL    HW2 6225   1.061   1.809   2.997 -2.1069  1.5511 -1.6647
 1837SOL     OW 6226   3.335   6.704   6.593 -0.3376 -0.0829  0.7825
 1837SOL    HW1 6227   3.307   6.793   6.615 -1.7626 -0.0875 -0.8850
 1837SOL    HW2 6228   3.273   6.647   6.638 -1.3626 -0.1441 -0.6512
 1838SOL     OW 6229   3.378   2.340   1.761  0.7450  0.3167 -0.6765
 1838SOL    HW1 6230   3.343   2.360   1.848 -0.8651  2.6932 -1.8083
 1838SOL    HW2 6231   3.378   2.244   1.757 -0.4652  0.1885  1.4405
 1839SOL     OW 6232   3.213   1.609   1.345 -0.0860  0.0748 -0.2082
 1839SOL    HW1 6233   3.257   1.524   1.345 -1.2141 -0.5637  2.4617
 1839SOL    HW2 6234   3.173   1.616   1.432 -3.0935  1.7365 -1.6124
 1840SOL     OW 6235   1.810   5.323   0.505  0.1884 -0.0760  0.2288
 1840SOL    HW1 6236   1.832   5.233   0.481  0.0856 -0.3767  1.2503
 1840SOL    HW2 6237   1.724   5.338   0.465 -0.2754 -0.7889  0.9479
 1841SOL     OW 6238   6.418   4.050   2.253  0.1863 -0.3127 -0.4528
 1841SOL    HW1 6239   6.362   4.094   2.189 -1.9538 -3.5844 -1.0001
 1841SOL    HW2 6240   6.369   4.056   2.335  0.4881 -0.5329 -0.2568
 1842SOL     OW 6241   3.560   2.054   1.203  0.0585  0.6744  0.0754
 1842SOL    HW1 6242   3.619   2.067   1.128 -1.1407  1.6150 -0.7138
 1842SOL    HW2 6243   3.568   1.961   1.223  0.7039  0.4928 -0.9532
 1843SOL     OW 6244   4.142   5.123   5.247 -0.5382 -0.1570 -0.1110
 1843SOL    HW1 6245   4.049   5.103   5.241 -0.6588  0.0969  0.7868
 1843SOL    HW2 6246   4.180   5.046   5.289 -0.2731 -0.4426 -0.8721
 1844SOL     OW 6247   4.559   6.376   0.851 -0.6502 -0.5011  0.0822
 1844SOL    HW1 6248   4.616   6.443   0.815 -1.1335  1.4200  2.7612
 1844SOL    HW2 6249   4.618   6.313   0.893 -0.3532 -0.1134  0.2417
 1845SOL     OW 6250   3.951   4.831   4.681 -0.8325  0.1577  0.2187
 1845SOL    HW1 6251   3.925   4.755   4.732 -0.6513  1.3676  2.2049
 1845SOL    HW2 6252   4.037   4.855   4.716  0.1003 -0.0135 -1.8781
 1846SOL     OW 6253   4.777   0.869   5.276  0.3098 -0.0417 -0.2704
 1846SOL    HW1 6254   4.864   0.833   5.259  1.1691  1.3137  1.1230
 1846SOL    HW2 6255   4.717   0.812   5.228  1.9172 -1.3522 -0.7436
 1847SOL     OW 6256   6.365   2.330   5.716  0.1370  0.4944 -0.3344
 1847SOL    HW1 6257   6.393   2.303   5.804 -1.2747  0.2003  0.0364
 1847SOL    HW2 6258   6.358   2.248   5.667 -0.2219  0.5595 -0.3883
 1848SOL     OW 6259   6.757   2.620   3.441  0.4771  0.4792  0.1461
 1848SOL    HW1 6260   6.729   2.550   3.501 -1.1489 -1.2306 -2.5094
 1848SOL    HW2 6261   6.721   2.700   3.480  1.8534 -0.1776  2.9230
 1849SOL     OW 6262   1.322   5.309   0.373 -0.1084 -0.3101 -0.5687
 1849SOL    HW1 6263   1.371   5.274   0.447  1.8841  0.7782 -1.3397
 1849SOL    HW2 6264   1.320   5.403   0.388 -0.1698 -0.1377 -1.6165
 1850SOL     OW 6265   3.554   0.126   3.913  0.9042  0.1543  0.0101
 1850SOL    HW1 6266   3.578   0.099   3.824  1.8562 -1.0078  0.5979
 1850SOL    HW2 6267   3.630   0.102   3.967  0.1251  0.3466  1.2248
 1851SOL     OW 6268   0.532   0.748   2.699 -0.2646 -0.1646  0.1696
 1851SOL    HW1 6269   0.535   0.840   2.674 -2.3537 -0.2208 -0.3571
 1851SOL    HW2 6270   0.554   0.701   2.618 -0.3364 -0.1537  0.1434
 1852SOL     OW 6271   2.917   0.812   4.138  0.1526  0.2543  0.5675
 1852SOL    HW1 6272   2.896   0.892   4.089 -0.0415  0.3890  0.8699
 1852SOL    HW2 6273   2.878   0.742   4.086  1.7553  0.1819 -0.5837
 1853SOL     OW 6274   0.347   0.875   4.277 -0.2896 -1.0636  0.3219
 1853SOL    HW1 6275   0.320   0.958   4.237  2.2447  0.8615  2.4971
 1853SOL    HW2 6276   0.265   0.834   4.303 -1.5601  1.0287 -0.2375
 1854SOL     OW 6277   6.456   0.373   3.657  0.3366  0.0125 -0.5845
 1854SOL    HW1 6278   6.476   0.397   3.566 -0.1720  0.3435 -0.6095
 1854SOL    HW2 6279   6.375   0.419   3.676  0.2352 -0.3763 -0.0888
 1855SOL     OW 6280   5.010   0.666   0.724  0.5913  0.4809 -0.3575
 1855SOL    HW1 6281   4.947   0.646   0.792 -0.4654  0.4506 -1.3319
 1855SOL    HW2 6282   5.083   0.607   0.740 -0.1258 -0.2869  0.0817
 1856SOL     OW 6283   0.408   0.709   1.811 -0.2227 -0.1183  0.1412
 1856SOL    HW1 6284   0.391   0.737   1.721 -1.4039  0.3343  0.5073
 1856SOL    HW2 6285   0.333   0.654   1.834  0.2065 -0.4548  0.7633
 1857SOL     OW 6286   2.556   1.274   1.600  0.0077 -0.0867  1.0361
 1857SOL    HW1 6287   2.532   1.284   1.508 -0.2580  0.7062  1.1915
 1857SOL    HW2 6288   2.651   1.281   1.600 -0.1535  2.2933  1.1161
 1858SOL     OW 6289   0.674   1.813   4.077  0.0619 -0.1003 -0.0301
 1858SOL    HW1 6290   0.643   1.797   3.988 -0.5863  0.1420  0.1464
 1858SOL    HW2 6291   0.639   1.740   4.128 -1.0323  0.6744  0.3519
 1859SOL     OW 6292   0.237   4.573   1.042  0.6956  0.1262 -0.4858
 1859SOL    HW1 6293   0.251   4.617   1.126  1.7737 -0.9473 -0.0904
 1859SOL    HW2 6294   0.309   4.511   1.035  0.4089 -0.0630 -2.0418
 1860SOL     OW 6295   3.954   3.047   5.765  0.4814  0.6154  0.0849
 1860SOL    HW1 6296   3.997   3.051   5.850 -0.4974  0.3226  0.6053
 1860SOL    HW2 6297   3.872   3.095   5.778 -0.5350 -1.0378 -0.1689
 1861SOL     OW 6298   6.443   3.646   0.162  0.2715  0.0808  0.2394
 1861SOL    HW1 6299   6.353   3.658   0.132  0.4714 -0.6441 -0.6753
 1861SOL    HW2 6300   6.464   3.556   0.138  0.6455 -0.3225  2.0517
 1862SOL     OW 6301   5.232   2.982   6.413  0.0633  0.0634 -0.1933
 1862SOL    HW1 6302   5.223   3.054   6.351 -1.0741 -0.7770 -1.0388
 1862SOL    HW2 6303   5.323   2.953   6.404  0.1426  0.5118 -0.8485
 1863SOL     OW 6304   0.023   3.798   0.465  0.1500  0.0609  0.8382
 1863SOL    HW1 6305   0.068   3.783   0.381  0.1205  1.0081  0.6415
 1863SOL    HW2 6306   0.071   3.744   0.528  1.7753  1.2674  0.6852
 1864SOL     OW 6307   4.653   4.868   5.244  0.2641  0.6240 -0.5186
 1864SOL    HW1 6308   4.657   4.772   5.237  1.2811  0.6624 -0.5771
 1864SOL    HW2 6309   4.704   4.899   5.169  0.4519  1.2058 -0.1474
 1865SOL     OW 6310   4.776   0.522   0.562  0.3655  0.0596 -0.3903
 1865SOL    HW1 6311   4.835   0.467   0.615  0.3482  0.3976 -0.0157
 1865SOL    HW2 6312   4.807   0.511   0.472  0.6166 -0.2457 -0.2678
 1866SOL     OW 6313   0.985   3.182   5.204  0.6180 -0.2557  0.0558
 1866SOL    HW1 6314   1.000   3.276   5.214 -1.5064  0.2131 -0.8114
 1866SOL    HW2 6315   1.011   3.162   5.114  2.5652 -0.8462  0.7187
 1867SOL     OW 6316   4.259   2.043   5.076  0.0348 -0.0102  0.0947
 1867SOL    HW1 6317   4.214   1.960   5.094 -1.8641  1.3078  1.5297
 1867SOL    HW2 6318   4.327   2.019   5.012  0.2658 -2.8703  1.3070
 1868SOL     OW 6319   6.398   6.228   3.979  0.0137 -0.2223  0.1044
 1868SOL    HW1 6320   6.466   6.264   4.035  0.8994 -1.1019 -0.3810
 1868SOL    HW2 6321   6.357   6.160   4.032 -0.2642  0.0721  0.2718
 1869SOL     OW 6322   1.366   2.366   1.933 -0.1347  0.3290 -0.2894
 1869SOL    HW1 6323   1.270   2.366   1.938 -0.0357  0.4668  2.6476
 1869SOL    HW2 6324   1.393   2.428   2.001  2.0539 -0.8565 -0.0398
 1870SOL     OW 6325   4.939   6.566   5.694 -0.1071  0.3289 -0.3565
 1870SOL    HW1 6326   4.948   6.652   5.736  2.5662  0.4006 -0.9760
 1870SOL    HW2 6327   5.015   6.516   5.724 -2.9290 -2.7594  1.9937
 1871SOL     OW 6328   3.213   0.473   3.831 -0.2308 -0.0931  0.4857
 1871SOL    HW1 6329   3.156   0.487   3.755 -1.4184  2.9344  1.8445
 1871SOL    HW2 6330   3.301   0.488   3.797 -0.4084 -2.1312 -1.0150
 1872SOL     OW 6331   5.628   0.500   3.540 -0.2880  0.2188  0.2327
 1872SOL    HW1 6332   5.545   0.467   3.505 -0.1428  0.1902 -0.0853
 1872SOL    HW2 6333   5.619   0.490   3.635 -0.4729 -0.2001  0.1733
 1873SOL     OW 6334   5.300   5.386   4.972  0.0326 -0.2461 -0.5436
 1873SOL    HW1 6335   5.232   5.326   4.941 -1.1915  1.9345 -2.2935
 1873SOL    HW2 6336   5.275   5.408   5.061 -0.1633 -1.4058 -0.3090
 1874SOL     OW 6337   4.167   5.225   4.600 -0.5162 -0.4085 -0.9692
 1874SOL    HW1 6338   4.141   5.134   4.591  0.5881 -0.7672 -0.5525
 1874SOL    HW2 6339   4.121   5.256   4.678  1.7859 -1.5924  0.8976
 1875SOL     OW 6340   0.039   3.504   1.778 -0.4849 -0.2827 -0.2055
 1875SOL    HW1 6341  -0.025   3.486   1.846  0.1651  0.5375  0.6355
 1875SOL    HW2 6342   0.014   3.590   1.743  0.8498  0.6023  0.9544
 1876SOL     OW 6343   0.743   5.474   3.358 -0.0168  0.1901 -0.1355
 1876SOL    HW1 6344   0.743   5.506   3.448 -1.7975  1.4764 -0.5816
 1876SOL    HW2 6345   0.689   5.395   3.361  1.8322 -1.0954  0.3505
 1877SOL     OW 6346   4.958   5.333   4.968  0.1682 -0.3480  0.8491
 1877SOL    HW1 6347   4.866   5.306   4.958 -0.1608  1.0830 -0.0689
 1877SOL    HW2 6348   4.954   5.419   5.010  1.0512  0.2299 -0.2306
 1878SOL     OW 6349   2.123   6.185   3.139  0.0923 -0.0212  0.1979
 1878SOL    HW1 6350   2.186   6.121   3.172 -0.6301 -1.2732 -0.7943
 1878SOL    HW2 6351   2.061   6.197   3.210 -0.2131 -1.0426  0.1190
 1879SOL     OW 6352   5.032   3.611   6.695 -0.5158  0.7761  0.0091
 1879SOL    HW1 6353   5.059   3.612   6.603 -0.6902  0.0605 -0.0503
 1879SOL    HW2 6354   5.066   3.693   6.731  0.3628  0.6234 -0.4596
 1880SOL     OW 6355   2.538   0.401   6.274  0.6024  0.0935  0.0861
 1880SOL    HW1 6356   2.586   0.476   6.308 -0.7574  0.4580  1.2361
 1880SOL    HW2 6357   2.607   0.339   6.247  1.7333  1.7088 -0.8764
 1881SOL     OW 6358   6.186   2.256   1.749  0.2384  0.6349  0.0464
 1881SOL    HW1 6359   6.280   2.276   1.757  0.5711 -0.2372 -1.4162
 1881SOL    HW2 6360   6.149   2.278   1.834  2.2688 -1.7992  1.6025
 1882SOL     OW 6361   3.814   2.129   1.831  0.0684 -0.3923 -0.0827
 1882SOL    HW1 6362   3.802   2.104   1.739 -3.1382  0.7590 -0.0585
 1882SOL    HW2 6363   3.831   2.223   1.829 -2.7913  0.2004  0.5772
 1883SOL     OW 6364   1.370   0.192   1.256 -0.1216  0.2686  0.4172
 1883SOL    HW1 6365   1.421   0.239   1.190 -1.4288  1.2652  0.0883
 1883SOL    HW2 6366   1.355   0.257   1.325 -1.1781  0.0736  0.3807
 1884SOL     OW 6367   1.483   5.505   4.583  0.3070  1.0258 -0.0396
 1884SOL    HW1 6368   1.456   5.594   4.608  0.6399  0.5443  2.1164
 1884SOL    HW2 6369   1.563   5.490   4.632  0.2955 -0.4527 -0.4639
 1885SOL     OW 6370   2.511   1.682   5.015 -0.4878 -0.3510  0.0573
 1885SOL    HW1 6371   2.482   1.760   5.063 -0.2496  0.1788 -0.6546
 1885SOL    HW2 6372   2.553   1.717   4.936  1.4640 -1.1364  0.7260
 1886SOL     OW 6373   4.776   0.540   3.337  0.3739 -1.1145  0.0703
 1886SOL    HW1 6374   4.867   0.566   3.326 -0.2850  1.4624  0.4213
 1886SOL    HW2 6375   4.772   0.502   3.425  0.7745  0.3215  0.7209
 1887SOL     OW 6376   6.579   0.005   4.486  0.2029 -0.0298 -0.7751
 1887SOL    HW1 6377   6.640  -0.062   4.517  0.0342  1.2031  2.4154
 1887SOL    HW2 6378   6.494  -0.022   4.520 -0.3230  0.4521 -1.6810
 1888SOL     OW 6379   5.572   5.438   0.941  0.7069 -0.2382  0.7956
 1888SOL    HW1 6380   5.587   5.530   0.960 -0.0333 -0.1645  1.0189
 1888SOL    HW2 6381   5.588   5.393   1.024  1.1077 -0.3137  0.6767
 1889SOL     OW 6382   5.420   1.751   3.767 -0.1548  0.3903  0.3396
 1889SOL    HW1 6383   5.384   1.713   3.687 -0.9578  0.4057  0.6902
 1889SOL    HW2 6384   5.344   1.775   3.819  0.3650  0.2201  1.1926
 1890SOL     OW 6385   6.389   6.126   2.647  0.4117  0.8384  0.1183
 1890SOL    HW1 6386   6.440   6.167   2.717 -0.6252  0.8132  0.9007
 1890SOL    HW2 6387   6.308   6.177   2.644 -1.7758 -2.3013  2.4746
 1891SOL     OW 6388   0.894   4.396   3.791 -0.1737 -0.2513 -0.1592
 1891SOL    HW1 6389   0.918   4.457   3.860  0.6053 -0.8721  0.1332
 1891SOL    HW2 6390   0.965   4.403   3.727 -0.8487  0.2641 -0.8651
 1892SOL     OW 6391   0.272   3.860   1.342  0.3859  0.2795  0.0283
 1892SOL    HW1 6392   0.264   3.780   1.394  0.7760 -0.4052 -0.9528
 1892SOL    HW2 6393   0.364   3.864   1.318  0.4228  1.1752  0.2946
 1893SOL     OW 6394   1.637   4.097   4.119 -0.9756  0.7570  0.4154
 1893SOL    HW1 6395   1.544   4.075   4.126 -0.8683  0.6145  1.5895
 1893SOL    HW2 6396   1.674   4.073   4.204  0.1042  0.9725  0.0219
 1894SOL     OW 6397   0.678   0.994   5.735 -0.8303 -0.4204 -0.0074
 1894SOL    HW1 6398   0.669   0.990   5.640 -1.9687  0.4588  0.0601
 1894SOL    HW2 6399   0.768   0.963   5.751 -0.7552 -0.9394 -1.3244
 1895SOL     OW 6400   4.195   2.668   5.179  0.4084  0.0426 -0.0991
 1895SOL    HW1 6401   4.126   2.727   5.210  0.5075  0.6598 -1.0126
 1895SOL    HW2 6402   4.219   2.616   5.256  1.3826  2.2410  1.1120
 1896SOL     OW 6403   3.652   5.822   4.969  0.1534 -0.9264  0.2107
 1896SOL    HW1 6404   3.566   5.827   4.927  0.2477  0.8920  0.1634
 1896SOL    HW2 6405   3.660   5.906   5.016  0.5585 -2.3838  2.8564
 1897SOL     OW 6406   3.889   5.146   1.898  0.7742  0.2573 -0.3609
 1897SOL    HW1 6407   3.866   5.163   1.807 -1.4290  1.1547  0.3225
 1897SOL    HW2 6408   3.900   5.051   1.903  0.3120  0.1440 -1.4387
 1898SOL     OW 6409   0.419   1.404   1.740 -0.3659 -0.2684  0.3649
 1898SOL    HW1 6410   0.347   1.427   1.681 -0.1070 -0.1797  0.0883
 1898SOL    HW2 6411   0.466   1.334   1.696 -0.9791 -1.1478  1.0785
 1899SOL     OW 6412   0.030   2.910   1.097 -0.9206  0.2945 -0.0828
 1899SOL    HW1 6413  -0.065   2.919   1.102 -0.7608  2.9590 -1.3484
 1899SOL    HW2 6414   0.062   2.955   1.175 -0.6207  0.5977 -0.3837
 1900SOL     OW 6415   0.430   3.683   2.517 -0.0769 -0.0826  0.3406
 1900SOL    HW1 6416   0.482   3.761   2.534  0.7880 -0.5605 -0.0443
 1900SOL    HW2 6417   0.340   3.714   2.514  0.3662  1.1584 -1.2303
 1901SOL     OW 6418   0.554   5.921   1.498  0.0097  0.3895 -0.0980
 1901SOL    HW1 6419   0.603   5.980   1.556 -1.9054  1.1782  0.7612
 1901SOL    HW2 6420   0.613   5.907   1.423  1.8365  0.7028  1.2459
 1902SOL     OW 6421   3.113   0.230   1.411  0.2151 -0.2214 -0.6655
 1902SOL    HW1 6422   3.085   0.143   1.442  0.1500 -0.0898 -0.3540
 1902SOL    HW2 6423   3.098   0.227   1.317  1.3208 -0.9606 -0.8269
 1903SOL     OW 6424   4.302   1.050   5.422 -0.5466 -0.1841 -0.3407
 1903SOL    HW1 6425   4.396   1.043   5.436 -0.3652 -0.7280 -1.7763
 1903SOL    HW2 6426   4.291   1.130   5.371 -0.6611 -1.1425 -1.8533
 1904SOL     OW 6427   3.003   5.127   1.438  0.4212 -0.2642 -0.1349
 1904SOL    HW1 6428   3.083   5.178   1.426 -1.2312  2.4657 -0.0274
 1904SOL    HW2 6429   2.947   5.153   1.365 -1.6608  0.4572  1.6560
 1905SOL     OW 6430   4.397   1.827   4.218 -0.3897  0.1649  0.5863
 1905SOL    HW1 6431   4.473   1.873   4.255  0.5936 -0.7346 -0.2718
 1905SOL    HW2 6432   4.415   1.734   4.236  0.0041 -0.2741 -1.9088
 1906SOL     OW 6433   1.013   0.825   3.040  0.4368 -0.3213 -0.1112
 1906SOL    HW1 6434   1.020   0.832   3.135  0.7169  1.2434 -0.2329
 1906SOL    HW2 6435   0.995   0.732   3.024  0.0619 -0.5422  1.4840
 1907SOL     OW 6436   2.829   1.030   0.084  0.3439 -0.1071 -0.1967
 1907SOL    HW1 6437   2.746   1.075   0.097 -0.1848 -1.5049  1.4270
 1907SOL    HW2 6438   2.868   1.027   0.171  1.8237 -0.0101 -0.8388
 1908SOL     OW 6439   0.958   3.351   6.215  0.1224  0.8794 -0.4163
 1908SOL    HW1 6440   0.937   3.296   6.139 -0.7630  0.2742  0.2567
 1908SOL    HW2 6441   1.035   3.400   6.188  0.1591  0.2484 -1.5029
 1909SOL     OW 6442   5.647   1.625   3.933 -0.6342 -0.2253  0.2429
 1909SOL    HW1 6443   5.694   1.565   3.991  0.1422 -0.5127 -0.6594
 1909SOL    HW2 6444   5.621   1.698   3.989 -0.4200 -0.7814  1.0731
 1910SOL     OW 6445   3.391   4.712   2.802 -0.5496  0.0597 -0.0941
 1910SOL    HW1 6446   3.331   4.662   2.747  1.2340 -1.5186 -0.6887
 1910SOL    HW2 6447   3.439   4.645   2.851  0.6546  1.2787  0.4243
 1911SOL     OW 6448   0.274   0.687   0.525  0.1102  0.3140 -0.5804
 1911SOL    HW1 6449   0.291   0.752   0.593 -0.2843 -0.4935  0.3104
 1911SOL    HW2 6450   0.357   0.640   0.516 -0.4707 -1.0547  0.9683
 1912SOL     OW 6451   4.777   1.351   3.637 -0.0239  0.3914  0.4337
 1912SOL    HW1 6452   4.827   1.339   3.718 -1.3337  0.0817  1.2090
 1912SOL    HW2 6453   4.736   1.266   3.622  2.0220 -0.2721 -1.8213
 1913SOL     OW 6454   6.408   1.486   1.937 -0.1859  0.0463 -0.0625
 1913SOL    HW1 6455   6.420   1.467   1.844  1.0442 -0.8062  0.2673
 1913SOL    HW2 6456   6.343   1.556   1.938 -1.7310 -1.3016 -1.4853
 1914SOL     OW 6457   1.377   2.598   3.362  0.4256  0.9465 -0.0605
 1914SOL    HW1 6458   1.362   2.590   3.268  1.2580  0.9600 -0.1939
 1914SOL    HW2 6459   1.472   2.604   3.371  0.4014  0.0950  0.8470
 1915SOL     OW 6460   1.261   2.618   1.603  0.9842 -0.0646  0.0912
 1915SOL    HW1 6461   1.203   2.542   1.593  2.1652 -1.0974  0.9559
 1915SOL    HW2 6462   1.346   2.580   1.628  1.3348  1.6121  1.4820
 1916SOL     OW 6463   0.151   3.246   4.239  0.4160  0.2393 -0.0348
 1916SOL    HW1 6464   0.166   3.275   4.329 -0.5806  3.0811 -0.7097
 1916SOL    HW2 6465   0.235   3.209   4.212  0.6598 -0.8960  2.1128
 1917SOL     OW 6466   3.479   1.235   2.302 -0.5027 -0.5632 -0.1280
 1917SOL    HW1 6467   3.486   1.245   2.207 -0.1516  0.4077 -0.0097
 1917SOL    HW2 6468   3.570   1.229   2.332 -0.4561  2.4643  0.4734
 1918SOL     OW 6469   4.009   4.369   1.248  0.2242 -0.1633 -0.2817
 1918SOL    HW1 6470   3.920   4.335   1.242  0.2458 -0.3868  0.5654
 1918SOL    HW2 6471   4.038   4.377   1.157 -0.7700  0.2049 -0.5712
 1919SOL     OW 6472   3.118   2.088   1.926 -0.4927 -0.3833 -0.0618
 1919SOL    HW1 6473   3.113   2.057   2.016 -0.3250  2.1636  0.8697
 1919SOL    HW2 6474   3.205   2.062   1.896  0.2281  0.4696  1.2126
 1920SOL     OW 6475   4.357   1.818   1.476 -0.0140 -0.2068 -0.1026
 1920SOL    HW1 6476   4.268   1.840   1.501 -0.1930 -0.1791 -0.7407
 1920SOL    HW2 6477   4.380   1.883   1.410  0.4926 -0.1843  0.0945
 1921SOL     OW 6478   1.798   5.457   3.491  0.1168  0.5636 -0.3171
 1921SOL    HW1 6479   1.762   5.503   3.415 -2.2926 -1.4413 -0.4547
 1921SOL    HW2 6480   1.737   5.476   3.562  0.9331  0.2988  0.4661
 1922SOL     OW 6481   6.172   4.005   3.603  0.0383 -0.0870 -0.4222
 1922SOL    HW1 6482   6.086   4.025   3.566 -0.3467 -0.0145  0.4828
 1922SOL    HW2 6483   6.221   4.087   3.598 -0.7528  0.5154  1.1936
 1923SOL     OW 6484   3.918   5.093   4.514  0.0317 -0.5065 -0.0752
 1923SOL    HW1 6485   3.970   5.027   4.560  0.5231  0.2196  0.4119
 1923SOL    HW2 6486   3.827   5.072   4.538  0.0885 -1.7306 -0.8714
 1924SOL     OW 6487   4.396   4.162   6.238  0.5699  0.2402  0.5086
 1924SOL    HW1 6488   4.308   4.131   6.218  0.5560 -0.5027  1.6620
 1924SOL    HW2 6489   4.430   4.195   6.155 -0.8205  0.6040  0.0782
 1925SOL     OW 6490   5.127   1.019   3.657  0.3668 -0.4745  0.6322
 1925SOL    HW1 6491   5.210   1.022   3.705  0.4720  0.2701  0.3987
 1925SOL    HW2 6492   5.137   0.945   3.597  1.0122 -0.1270  0.3123
 1926SOL     OW 6493   5.583   6.713   1.128  0.1667  0.2693  0.5295
 1926SOL    HW1 6494   5.502   6.668   1.106  0.6092 -0.3868  0.2029
 1926SOL    HW2 6495   5.640   6.697   1.052  0.3580  1.3168  0.4482
 1927SOL     OW 6496   1.043   4.298   4.883 -0.6719  0.2014  0.0828
 1927SOL    HW1 6497   1.045   4.215   4.835  1.3809  0.5625 -0.5179
 1927SOL    HW2 6498   0.987   4.355   4.829 -1.1895 -0.4500 -0.0754
 1928SOL     OW 6499   6.014   2.312   2.859  0.0186  0.2265  0.1037
 1928SOL    HW1 6500   5.926   2.276   2.869  0.3302 -0.7454 -0.6147
 1928SOL    HW2 6501   6.013   2.351   2.772 -0.0861  1.3330  0.5904
 1929SOL     OW 6502   4.648   6.314   4.454 -0.3389 -0.4282 -0.6086
 1929SOL    HW1 6503   4.666   6.375   4.525 -1.0557 -0.2031 -0.6135
 1929SOL    HW2 6504   4.576   6.354   4.406 -1.4516 -1.7113 -0.0541
 1930SOL     OW 6505   2.423   4.830   6.710 -0.2120 -0.1612  0.1070
 1930SOL    HW1 6506   2.427   4.922   6.681 -0.3253 -0.2700 -0.2551
 1930SOL    HW2 6507   2.333   4.818   6.738 -0.9493 -0.9637 -2.5080
 1931SOL     OW 6508   0.624   3.752   6.254  0.6969 -0.2085 -0.1365
 1931SOL    HW1 6509   0.576   3.802   6.188 -2.6133 -0.6351  1.8237
 1931SOL    HW2 6510   0.590   3.663   6.246  1.7063 -0.6880  0.7811
 1932SOL     OW 6511   2.616   0.303   4.848  0.7008 -0.1919 -0.2256
 1932SOL    HW1 6512   2.553   0.319   4.778 -1.3643  1.7103  1.9784
 1932SOL    HW2 6513   2.701   0.326   4.809 -0.7115  3.5997 -1.2714
 1933SOL     OW 6514   2.157   0.755   6.581  0.5322  0.0281 -0.2826
 1933SOL    HW1 6515   2.234   0.726   6.631 -0.0566  1.4597  1.4970
 1933SOL    HW2 6516   2.086   0.700   6.612  0.1541  0.9568  0.5300
 1934SOL     OW 6517   5.077   2.202   0.345 -0.2301 -0.8883  0.1290
 1934SOL    HW1 6518   5.015   2.202   0.418 -1.3739 -1.7064 -0.8065
 1934SOL    HW2 6519   5.068   2.289   0.306 -1.2656 -1.2055 -0.3703
 1935SOL     OW 6520   4.539   4.281   4.425 -0.6210  0.0104  0.2242
 1935SOL    HW1 6521   4.568   4.343   4.359 -0.1396  0.3338  0.7347
 1935SOL    HW2 6522   4.534   4.332   4.506  1.4006 -0.9857  1.0074
 1936SOL     OW 6523   2.122   2.293   0.021 -0.3878 -0.1169 -0.7341
 1936SOL    HW1 6524   2.088   2.376  -0.013 -0.4796 -0.4852 -1.5586
 1936SOL    HW2 6525   2.201   2.317   0.069  0.8931  0.1869 -2.9467
 1937SOL     OW 6526   5.205   1.618   6.261 -0.3332 -0.1127  0.2228
 1937SOL    HW1 6527   5.127   1.673   6.252  0.0901  0.4428 -0.0758
 1937SOL    HW2 6528   5.278   1.675   6.235  0.0785 -0.9120 -0.3932
 1938SOL     OW 6529   2.874   0.767   6.517  0.2369 -0.0537 -0.7759
 1938SOL    HW1 6530   2.836   0.760   6.604 -1.0009  1.6742 -1.1451
 1938SOL    HW2 6531   2.835   0.847   6.480  1.2414 -0.3953 -2.6505
 1939SOL     OW 6532   2.398   6.206   4.893 -0.1987 -0.2600  0.0484
 1939SOL    HW1 6533   2.417   6.116   4.867 -1.6226 -0.3936 -0.6468
 1939SOL    HW2 6534   2.308   6.220   4.863 -0.1668  1.2252  0.6089
 1940SOL     OW 6535   3.302   5.330   4.515 -0.2228 -0.1198  0.1277
 1940SOL    HW1 6536   3.247   5.256   4.489  1.2205 -1.1373 -0.0982
 1940SOL    HW2 6537   3.379   5.324   4.458  1.8144 -0.8696  2.8318
 1941SOL     OW 6538   4.952   6.169   1.092 -1.1252 -0.1630  0.2411
 1941SOL    HW1 6539   4.913   6.111   1.157  0.6009 -1.2756  0.3003
 1941SOL    HW2 6540   5.045   6.173   1.115 -1.1601  2.4077  0.0779
 1942SOL     OW 6541   2.755   4.225   5.130 -0.4464  0.0563  0.0241
 1942SOL    HW1 6542   2.710   4.173   5.063 -1.0240  0.3847  0.1591
 1942SOL    HW2 6543   2.729   4.315   5.113  1.8791  0.5377 -1.2610
 1943SOL     OW 6544   0.158   1.738   1.863 -0.2438 -0.4812  0.8882
 1943SOL    HW1 6545   0.176   1.826   1.833 -1.5295 -0.8236 -0.9437
 1943SOL    HW2 6546   0.084   1.748   1.924 -1.2496 -0.4417 -0.3287
 1944SOL     OW 6547   6.033   0.697   1.879 -0.3257  0.1086  0.2305
 1944SOL    HW1 6548   6.075   0.778   1.907  1.2745 -0.6170 -0.0051
 1944SOL    HW2 6549   5.957   0.688   1.938 -0.6672  1.8735  0.0950
 1945SOL     OW 6550   0.548   4.888   3.392 -0.0164  0.9073 -0.0418
 1945SOL    HW1 6551   0.625   4.897   3.336 -0.4964  0.2847 -0.7954
 1945SOL    HW2 6552   0.484   4.842   3.339  0.1177 -1.2558  1.5738
 1946SOL     OW 6553   4.644   4.492   2.864  0.2806  0.0623  0.4728
 1946SOL    HW1 6554   4.588   4.513   2.790 -0.1501  0.0778  0.7965
 1946SOL    HW2 6555   4.723   4.454   2.826 -0.1618 -0.4176  0.0349
 1947SOL     OW 6556   3.369   0.775   5.917  0.3978  0.3620 -0.9701
 1947SOL    HW1 6557   3.315   0.845   5.955 -0.4924 -0.5307 -0.5777
 1947SOL    HW2 6558   3.454   0.784   5.961 -0.2150  0.1769  0.2578
 1948SOL     OW 6559   4.504   1.873   2.734  0.2255 -0.1417  0.3281
 1948SOL    HW1 6560   4.496   1.914   2.819 -0.8414  0.4346 -0.0416
 1948SOL    HW2 6561   4.414   1.850   2.709  0.5140 -0.2508 -0.6667
 1949SOL     OW 6562   2.622   1.329   5.097 -0.2093  0.4196  0.2010
 1949SOL    HW1 6563   2.606   1.419   5.068 -1.6563  0.0356 -0.2348
 1949SOL    HW2 6564   2.717   1.323   5.103  0.0230  1.3623 -1.8353
 1950SOL     OW 6565   5.020   3.408   1.919 -0.3214  0.0085 -0.0140
 1950SOL    HW1 6566   5.045   3.318   1.940 -1.2077 -0.1859  0.2078
 1950SOL    HW2 6567   4.924   3.406   1.914 -0.2330  0.2859 -2.8537
 1951SOL     OW 6568   5.132   2.429   2.074  0.0438 -0.2859 -0.1844
 1951SOL    HW1 6569   5.159   2.351   2.025 -1.8097 -0.9931 -0.1373
 1951SOL    HW2 6570   5.093   2.395   2.154 -2.4718  0.5712 -0.9854
 1952SOL     OW 6571   2.897   0.608   0.533  1.1850  0.1451 -0.5976
 1952SOL    HW1 6572   2.827   0.637   0.591  0.4317  0.0828 -1.4654
 1952SOL    HW2 6573   2.938   0.690   0.503 -0.8425  0.3809 -2.9231
 1953SOL     OW 6574   3.608   2.568   0.427 -0.0123 -0.2555  0.1589
 1953SOL    HW1 6575   3.559   2.564   0.345 -0.2111 -0.6734  0.2981
 1953SOL    HW2 6576   3.562   2.508   0.486  2.1163 -2.5670 -0.4657
 1954SOL     OW 6577   4.716   5.215   1.553 -0.0396 -0.1811 -0.4698
 1954SOL    HW1 6578   4.791   5.175   1.597 -0.2554 -1.4520 -1.2434
 1954SOL    HW2 6579   4.752   5.249   1.471 -0.4957 -1.7444 -1.3422
 1955SOL     OW 6580   3.733   0.445   4.791 -0.3795 -0.0757 -0.2424
 1955SOL    HW1 6581   3.690   0.517   4.839 -0.8108  0.2500 -1.1032
 1955SOL    HW2 6582   3.789   0.489   4.728  1.1129 -0.5050  0.7603
 1956SOL     OW 6583   5.559   4.555   3.193  0.0133  0.0154  0.2499
 1956SOL    HW1 6584   5.527   4.639   3.161  0.8966 -0.2258 -1.3039
 1956SOL    HW2 6585   5.480   4.501   3.202 -0.4969  0.8259  0.7706
 1957SOL     OW 6586   5.382   1.374   0.681 -0.2676  0.0209 -0.1790
 1957SOL    HW1 6587   5.369   1.319   0.758 -1.1566 -0.4415 -0.6488
 1957SOL    HW2 6588   5.317   1.343   0.618  1.4998 -0.6889 -1.7207
 1958SOL     OW 6589   4.420   0.208   6.014  0.8278 -0.1556 -0.1231
 1958SOL    HW1 6590   4.454   0.225   6.101  1.5066  0.8764 -0.5729
 1958SOL    HW2 6591   4.349   0.145   6.027  1.6165 -0.8227  1.0471
 1959SOL     OW 6592   1.178   2.777   6.323  0.1970 -0.0055  0.1484
 1959SOL    HW1 6593   1.148   2.784   6.233 -0.7666  2.0423  0.5951
 1959SOL    HW2 6594   1.102   2.802   6.376  0.8249 -0.9161  1.5271
 1960SOL     OW 6595   5.219   5.965   2.061  0.2038  0.0576 -0.5580
 1960SOL    HW1 6596   5.309   5.988   2.035  0.1451  0.5130 -0.3591
 1960SOL    HW2 6597   5.190   6.039   2.115  0.0477 -0.5252  0.1638
 1961SOL     OW 6598   3.597   3.942   1.295 -0.1503 -0.1962  0.1610
 1961SOL    HW1 6599   3.529   3.877   1.312  0.0137 -0.3408  0.2698
 1961SOL    HW2 6600   3.665   3.924   1.360 -0.0713  0.0388  0.1457
 1962SOL     OW 6601   6.095   2.315   2.000  0.3507  0.3005 -0.0934
 1962SOL    HW1 6602   6.186   2.297   2.022  0.6031 -0.7992 -1.8606
 1962SOL    HW2 6603   6.078   2.403   2.033  2.0899  0.5490  0.1647
 1963SOL     OW 6604   3.957   3.846   6.444 -0.3618  0.1470  0.3817
 1963SOL    HW1 6605   4.000   3.762   6.460  0.0730  0.0456 -1.2275
 1963SOL    HW2 6606   3.894   3.856   6.516  0.5503 -0.9064  1.3275
 1964SOL     OW 6607   4.108   6.109   0.760 -0.6446 -0.2590  0.2773
 1964SOL    HW1 6608   4.039   6.151   0.811 -0.6205  0.8206 -0.5602
 1964SOL    HW2 6609   4.147   6.180   0.709  0.8600 -0.9187  0.4803
 1965SOL     OW 6610   2.643   4.663   5.359 -0.0329 -0.1424 -0.2474
 1965SOL    HW1 6611   2.590   4.652   5.438  0.2424 -0.3352 -0.0851
 1965SOL    HW2 6612   2.663   4.756   5.354  1.0812 -0.3198  0.6574
 1966SOL     OW 6613   6.753   2.469   3.992 -0.3392  0.6289 -0.1319
 1966SOL    HW1 6614   6.774   2.390   4.043 -2.4143  0.5630  0.6599
 1966SOL    HW2 6615   6.729   2.534   4.059 -1.0844  1.1594 -0.9087
 1967SOL     OW 6616   1.027   1.873   5.143  0.0867 -0.5945  0.4519
 1967SOL    HW1 6617   0.950   1.880   5.198 -0.7082 -0.7842 -0.6188
 1967SOL    HW2 6618   0.994   1.838   5.060  1.3935 -1.1549  0.1579
 1968SOL     OW 6619   0.285   0.660   0.172 -0.0135 -0.0836 -0.8396
 1968SOL    HW1 6620   0.260   0.745   0.209  1.4307 -0.9011  2.1628
 1968SOL    HW2 6621   0.202   0.614   0.160 -0.5927  0.5488  0.5981
 1969SOL     OW 6622   6.013   0.433   6.641 -0.0774  0.2929  0.0727
 1969SOL    HW1 6623   6.010   0.447   6.546 -0.5722  0.3332  0.0944
 1969SOL    HW2 6624   6.010   0.338   6.652 -0.3473  0.3004  0.0606
 1970SOL     OW 6625   0.654   3.380   3.039 -0.5431 -0.3553  0.5887
 1970SOL    HW1 6626   0.659   3.445   3.109 -0.4847 -0.2297  0.4673
 1970SOL    HW2 6627   0.560   3.370   3.023 -0.6491 -1.6717  1.8847
 1971SOL     OW 6628   2.439   2.310   1.501 -0.0110  0.4047 -0.4409
 1971SOL    HW1 6629   2.432   2.231   1.555 -1.2844  0.3649 -0.6488
 1971SOL    HW2 6630   2.404   2.380   1.557  1.8148  0.9698  0.0264
 1972SOL     OW 6631   5.483   5.931   4.589 -0.1337 -0.2069 -0.0510
 1972SOL    HW1 6632   5.510   6.012   4.546  2.8134 -0.9214  0.3055
 1972SOL    HW2 6633   5.431   5.960   4.664  1.4029  1.4027  0.4239
 1973SOL     OW 6634   2.325   5.127   4.629 -0.2749 -0.1015 -0.1683
 1973SOL    HW1 6635   2.349   5.071   4.703 -0.4661 -0.9566 -0.7400
 1973SOL    HW2 6636   2.264   5.073   4.578  0.0957  0.3620 -1.1073
 1974SOL     OW 6637   6.503   1.729   2.281 -0.4172  0.4868  0.3048
 1974SOL    HW1 6638   6.512   1.728   2.377  0.6587 -0.9325  0.2089
 1974SOL    HW2 6639   6.427   1.673   2.263  0.8486 -1.2626  0.2253
 1975SOL     OW 6640   0.807   4.596   1.587 -0.1001  0.7150 -0.0543
 1975SOL    HW1 6641   0.750   4.528   1.623  0.1421  1.3837  1.6716
 1975SOL    HW2 6642   0.757   4.634   1.515 -0.7039 -0.5096 -0.3001
 1976SOL     OW 6643   0.045   5.462   4.474  0.0054  0.0045  0.1528
 1976SOL    HW1 6644   0.050   5.489   4.383  1.9723 -3.2166 -0.7765
 1976SOL    HW2 6645  -0.049   5.451   4.491 -0.5477  3.0848 -0.6517
 1977SOL     OW 6646   6.134   3.757   4.642  0.0536  0.2024 -0.3324
 1977SOL    HW1 6647   6.171   3.810   4.713  1.0506  0.9474 -1.3834
 1977SOL    HW2 6648   6.126   3.669   4.679  0.8675  0.5068  0.6037
 1978SOL     OW 6649   3.552   5.662   3.775 -0.2002 -0.2327  0.2441
 1978SOL    HW1 6650   3.588   5.645   3.687 -0.9814  1.9275 -0.5237
 1978SOL    HW2 6651   3.585   5.749   3.798 -1.2599 -0.1319  1.4362
 1979SOL     OW 6652   6.440   4.255   0.212  0.3142  0.3954 -0.4603
 1979SOL    HW1 6653   6.456   4.181   0.153 -0.0331  0.5263 -0.7193
 1979SOL    HW2 6654   6.522   4.265   0.261  0.5438  0.1769 -0.7975
 1980SOL     OW 6655   4.535   5.411   0.608  0.4089 -0.2536  0.5357
 1980SOL    HW1 6656   4.612   5.355   0.603  0.2391 -0.5572  1.2249
 1980SOL    HW2 6657   4.482   5.385   0.533  0.1820 -1.2498  1.0312
 1981SOL     OW 6658   3.050   2.976   4.903 -0.7004 -0.1871  0.4970
 1981SOL    HW1 6659   3.068   3.033   4.979  1.1399  0.5239 -0.4508
 1981SOL    HW2 6660   3.091   2.893   4.925  3.0265  1.0941 -1.1815
 1982SOL     OW 6661   1.803   6.483   1.898 -0.0815 -0.2302  0.7651
 1982SOL    HW1 6662   1.708   6.478   1.891 -0.1172  0.1457  0.9934
 1982SOL    HW2 6663   1.823   6.577   1.899  0.1480 -0.2799  2.5753
 1983SOL     OW 6664   6.069   2.808   6.270  0.2930 -0.1335  0.4221
 1983SOL    HW1 6665   6.046   2.827   6.361 -0.1243  2.3333 -0.1555
 1983SOL    HW2 6666   6.147   2.861   6.253 -0.6356  0.7655 -1.1620
 1984SOL     OW 6667   5.615   4.362   5.413  0.1777 -0.6472  0.1761
 1984SOL    HW1 6668   5.549   4.413   5.368 -0.8244 -0.9571  1.2632
 1984SOL    HW2 6669   5.695   4.376   5.363 -0.0581  2.0164  0.4686
 1985SOL     OW 6670   2.319   0.677   4.609 -0.3215 -0.2122  0.1913
 1985SOL    HW1 6671   2.325   0.709   4.699 -0.1587  1.0025 -0.2416
 1985SOL    HW2 6672   2.226   0.683   4.587 -0.4151 -0.8663  0.4030
 1986SOL     OW 6673   2.513   3.151   3.466  0.0897 -0.0645  0.0371
 1986SOL    HW1 6674   2.478   3.101   3.540 -0.3376 -0.8203 -0.6656
 1986SOL    HW2 6675   2.516   3.088   3.394  2.1422  0.2046 -0.1439
 1987SOL     OW 6676   6.133   5.007   1.059  0.0029  0.6032 -0.5487
 1987SOL    HW1 6677   6.049   5.030   1.099  0.5032  2.6773 -0.6535
 1987SOL    HW2 6678   6.198   5.029   1.125  0.4350 -2.2673  0.0712
 1988SOL     OW 6679   0.583   1.069   1.240 -0.1918  0.3289 -0.0780
 1988SOL    HW1 6680   0.588   1.162   1.261  0.6153  0.1857  0.3956
 1988SOL    HW2 6681   0.594   1.065   1.145  1.1992  0.6214  0.0592
 1989SOL     OW 6682   4.088   0.982   3.645  0.7217 -0.0768  0.0615
 1989SOL    HW1 6683   4.019   0.921   3.671  2.3592 -1.2012  1.8659
 1989SOL    HW2 6684   4.121   0.947   3.563 -0.0489 -0.1838 -0.2098
 1990SOL     OW 6685   1.647   1.933   2.965  0.2266 -0.3568  0.3321
 1990SOL    HW1 6686   1.578   1.877   3.001  0.0158  0.0696  0.5913
 1990SOL    HW2 6687   1.713   1.938   3.035  0.2254 -0.2466  0.3258
 1991SOL     OW 6688   5.201   1.846   5.489 -0.5432  0.2387 -0.2318
 1991SOL    HW1 6689   5.275   1.785   5.493 -0.3968  0.3295 -1.3191
 1991SOL    HW2 6690   5.237   1.929   5.519 -0.4867  0.0298  0.2878
 1992SOL     OW 6691   2.721   6.116   0.662 -0.0431 -0.3408 -0.0676
 1992SOL    HW1 6692   2.652   6.090   0.723  0.5294  0.8204  1.1018
 1992SOL    HW2 6693   2.800   6.117   0.716  0.1608  2.5665 -0.3687
 1993SOL     OW 6694   6.408   4.352   3.758  0.6194 -0.2549  0.2899
 1993SOL    HW1 6695   6.416   4.390   3.845 -0.7778 -1.7026  1.0824
 1993SOL    HW2 6696   6.494   4.315   3.740  0.8280 -0.2051  1.1833
 1994SOL     OW 6697   1.809   0.831   0.976  0.3743  0.8924 -0.0656
 1994SOL    HW1 6698   1.735   0.825   1.037  1.0986  0.9290  0.8128
 1994SOL    HW2 6699   1.767   0.837   0.889 -0.6440 -0.2677  0.3258
 1995SOL     OW 6700   3.523   3.600   6.046 -0.1550 -0.2123  0.0278
 1995SOL    HW1 6701   3.521   3.689   6.079 -2.8929 -0.1639 -0.2077
 1995SOL    HW2 6702   3.491   3.546   6.118  3.3090 -1.2802  0.8539
 1996SOL     OW 6703   5.017   5.431   5.520  0.3203  0.3947  0.0204
 1996SOL    HW1 6704   4.970   5.432   5.436 -0.4854 -0.0279  0.4536
 1996SOL    HW2 6705   5.049   5.341   5.528 -0.8347  0.0412  0.8223
 1997SOL     OW 6706   3.710   2.840   6.090  0.0830  0.1117  0.2373
 1997SOL    HW1 6707   3.806   2.836   6.087  0.0022 -1.6487 -2.2168
 1997SOL    HW2 6708   3.689   2.853   6.182  2.6725 -0.1265  0.9013
 1998SOL     OW 6709   0.708   0.235   3.687  0.3145  0.3652 -0.5976
 1998SOL    HW1 6710   0.686   0.309   3.743  0.4191 -0.6894  0.8649
 1998SOL    HW2 6711   0.797   0.211   3.714  0.1271 -0.5426 -0.7791
 1999SOL     OW 6712   3.736   6.624   0.849 -0.0964  0.0662 -0.2480
 1999SOL    HW1 6713   3.748   6.594   0.939  0.4557  0.3340 -0.2323
 1999SOL    HW2 6714   3.754   6.718   0.852  0.6774 -0.0625 -0.7859
 2000SOL     OW 6715   1.568   1.254   4.181 -0.4051  0.1986 -0.2009
 2000SOL    HW1 6716   1.519   1.219   4.255  2.0443 -2.4512  0.2559
 2000SOL    HW2 6717   1.605   1.336   4.214 -1.5455  0.3984  0.6124
 2001SOL     OW 6718   6.454   6.240   4.485 -0.2881  0.1565  0.3400
 2001SOL    HW1 6719   6.490   6.198   4.406  1.9233 -1.4962  2.1523
 2001SOL    HW2 6720   6.531   6.270   4.533 -1.6467  1.8071  1.5628
 2002SOL     OW 6721   1.052   1.506   4.020  0.1018 -0.1226 -0.0268
 2002SOL    HW1 6722   1.036   1.600   4.031  1.1773 -0.1225  1.6652
 2002SOL    HW2 6723   1.146   1.496   4.035 -0.1500 -1.5836  0.6255
 2003SOL     OW 6724   4.765   4.724   0.789  0.0762  0.2397  0.3777
 2003SOL    HW1 6725   4.850   4.725   0.746  0.4212 -1.0995  0.9901
 2003SOL    HW2 6726   4.765   4.643   0.840 -1.3896  0.4482  0.7362
 2004SOL     OW 6727   0.232   1.899   3.644 -0.1500 -0.5046  0.7581
 2004SOL    HW1 6728   0.203   1.990   3.653  0.1857 -0.1212 -1.6940
 2004SOL    HW2 6729   0.159   1.848   3.680 -1.2804  0.6665  0.1896
 2005SOL     OW 6730   3.531   3.491   6.507 -0.0750  0.2449 -0.7052
 2005SOL    HW1 6731   3.611   3.541   6.491 -0.3190  0.3160 -1.7819
 2005SOL    HW2 6732   3.558   3.418   6.562  1.2656 -1.1998 -3.1712
 2006SOL     OW 6733   5.942   5.042   4.951 -0.2031  0.6055 -0.1890
 2006SOL    HW1 6734   6.033   5.046   4.920 -0.4372  0.2432 -0.9504
 2006SOL    HW2 6735   5.892   5.022   4.872 -0.9571  0.9186  0.2114
 2007SOL     OW 6736   3.456   0.302   5.984  0.7545  0.0286 -0.4593
 2007SOL    HW1 6737   3.455   0.373   5.920 -0.2715 -0.0827 -0.5678
 2007SOL    HW2 6738   3.505   0.338   6.059  1.9262  0.1722 -1.2730
 2008SOL     OW 6739   5.078   1.982   3.509 -0.5544  0.8029  0.1698
 2008SOL    HW1 6740   5.019   1.914   3.476 -1.7339  2.5431 -1.3768
 2008SOL    HW2 6741   5.165   1.953   3.483 -1.1503  0.4022 -1.4329
 2009SOL     OW 6742   0.946   6.398   1.746 -0.2526  0.5434 -0.5586
 2009SOL    HW1 6743   0.991   6.464   1.692 -0.5893  1.4226  0.2126
 2009SOL    HW2 6744   1.016   6.338   1.773  0.0647  0.5983 -1.2519
 2010SOL     OW 6745   5.823   4.928   5.202 -0.4934  0.1852  0.0464
 2010SOL    HW1 6746   5.871   5.001   5.240 -0.7591  1.7202 -2.4568
 2010SOL    HW2 6747   5.850   4.926   5.110 -3.1905 -0.6016 -0.7947
 2011SOL     OW 6748   5.123   1.074   5.849 -0.3434  0.2414 -0.4075
 2011SOL    HW1 6749   5.097   1.159   5.886 -1.8180 -0.2391 -0.3259
 2011SOL    HW2 6750   5.097   1.010   5.914  0.3359 -0.3283 -0.6853
 2012SOL     OW 6751   6.608   2.223   4.218  0.5107  0.0751  0.2645
 2012SOL    HW1 6752   6.636   2.236   4.309  0.1657 -0.8046  0.5019
 2012SOL    HW2 6753   6.690   2.222   4.168  0.8076 -0.9086  0.7574
 2013SOL     OW 6754   5.954   1.781   1.922  0.2424 -0.2515 -0.2203
 2013SOL    HW1 6755   5.897   1.790   1.998 -0.1348 -1.4110 -0.3454
 2013SOL    HW2 6756   5.895   1.790   1.847  0.7218  1.5499 -0.3839
 2014SOL     OW 6757   5.627   1.905   3.884  0.0494  0.0795  0.2847
 2014SOL    HW1 6758   5.655   1.982   3.933 -0.9303  0.6171  0.0025
 2014SOL    HW2 6759   5.533   1.917   3.870  0.1041 -0.6076 -0.7679
 2015SOL     OW 6760   0.261   2.515   5.659  0.7415 -0.2071  0.4484
 2015SOL    HW1 6761   0.193   2.447   5.661  0.8718 -0.3623 -0.5987
 2015SOL    HW2 6762   0.333   2.476   5.610  1.2284  0.3139  0.7443
 2016SOL     OW 6763   3.862   1.089   0.742  0.3611 -0.1435 -0.0825
 2016SOL    HW1 6764   3.947   1.076   0.699 -0.4241  0.0916 -1.7466
 2016SOL    HW2 6765   3.880   1.154   0.810  1.1863  1.1476 -1.4975
 2017SOL     OW 6766   5.421   2.609   5.197 -0.1434  0.6266 -0.6510
 2017SOL    HW1 6767   5.387   2.560   5.122  0.5794  0.4249 -0.8464
 2017SOL    HW2 6768   5.484   2.670   5.160 -0.4650  1.1683 -0.3102
 2018SOL     OW 6769   3.927   0.511   5.270  0.2300 -0.2765  0.3842
 2018SOL    HW1 6770   3.884   0.575   5.213 -1.0328 -0.3091  1.2767
 2018SOL    HW2 6771   3.867   0.437   5.273  0.5960 -0.5452  1.2359
 2019SOL     OW 6772   0.217   1.610   0.166 -0.8706 -0.3723  0.0410
 2019SOL    HW1 6773   0.183   1.545   0.104 -0.0645 -1.6979  0.9677
 2019SOL    HW2 6774   0.303   1.576   0.192 -1.3990 -0.0943  2.2557
 2020SOL     OW 6775   3.111   6.233   3.511 -0.1268 -0.0565 -0.0268
 2020SOL    HW1 6776   3.186   6.242   3.452  0.4642 -0.5481  0.6381
 2020SOL    HW2 6777   3.150   6.220   3.597 -0.9756 -0.7232  0.2632
 2021SOL     OW 6778   3.777   1.564   3.862  0.2047 -0.2626  0.1525
 2021SOL    HW1 6779   3.700   1.620   3.873 -0.1022 -0.5859 -0.3450
 2021SOL    HW2 6780   3.803   1.575   3.771 -0.8826 -2.2365 -0.4199
 2022SOL     OW 6781   1.692   0.539   4.366  0.1230 -0.5642 -0.1726
 2022SOL    HW1 6782   1.725   0.607   4.307 -0.6978 -0.1485 -0.1631
 2022SOL    HW2 6783   1.770   0.491   4.393  1.1725  2.4126  2.4627
 2023SOL     OW 6784   1.042   5.647   1.775  0.7891 -0.4513 -0.3893
 2023SOL    HW1 6785   1.043   5.555   1.802  0.0285 -0.6816 -1.1303
 2023SOL    HW2 6786   0.952   5.675   1.788  0.7307 -0.1706 -1.3407
 2024SOL     OW 6787   4.112   6.264   0.387  0.5019  0.0451 -0.5733
 2024SOL    HW1 6788   4.178   6.203   0.354  0.8837 -0.4178  1.0458
 2024SOL    HW2 6789   4.141   6.286   0.475 -0.0106  2.0195 -0.8638
 2025SOL     OW 6790   2.225   0.606   0.435 -0.3855  0.1646  0.5822
 2025SOL    HW1 6791   2.215   0.641   0.346 -2.0771 -0.4395  0.5113
 2025SOL    HW2 6792   2.315   0.574   0.438 -0.1294  0.7184 -0.7287
 2026SOL     OW 6793   5.613   1.666   6.418 -0.1429 -0.3646  0.7489
 2026SOL    HW1 6794   5.580   1.577   6.429 -1.3277  0.0815  0.8562
 2026SOL    HW2 6795   5.545   1.711   6.369  0.4298  0.4953  0.7333
 2027SOL     OW 6796   1.533   3.107   0.126 -0.5112 -0.3682 -0.7343
 2027SOL    HW1 6797   1.503   3.092   0.036 -3.5339 -1.5475  0.3905
 2027SOL    HW2 6798   1.476   3.177   0.158 -1.0189 -1.5288  0.9711
 2028SOL     OW 6799   4.039   4.302   1.944 -0.5321 -0.2169 -0.7135
 2028SOL    HW1 6800   4.060   4.281   2.035  0.8211  0.4160 -0.8723
 2028SOL    HW2 6801   4.118   4.279   1.895 -0.3598  1.7639 -1.3869
 2029SOL     OW 6802   0.508   3.516   0.763  0.3899  0.0393 -0.3513
 2029SOL    HW1 6803   0.486   3.431   0.802  2.2020 -0.9543 -1.4066
 2029SOL    HW2 6804   0.562   3.494   0.687 -0.7107  2.0583 -1.7714
 2030SOL     OW 6805   4.354   2.141   5.560 -0.0842  0.1758  0.2167
 2030SOL    HW1 6806   4.446   2.121   5.543  0.4651  1.0902  1.9162
 2030SOL    HW2 6807   4.317   2.163   5.475  1.1603 -0.6255 -0.5408
 2031SOL     OW 6808   3.658   6.137   3.735 -0.2327  0.6369 -0.1365
 2031SOL    HW1 6809   3.643   6.147   3.641 -0.4532 -1.2053 -0.3211
 2031SOL    HW2 6810   3.752   6.123   3.744 -0.4554 -1.0307 -0.2767
 2032SOL     OW 6811   0.191   3.773   0.250 -0.1554  0.3290 -0.5049
 2032SOL    HW1 6812   0.147   3.733   0.176 -0.7610  1.2704 -0.6504
 2032SOL    HW2 6813   0.242   3.845   0.212  1.8505 -0.9756 -0.4058
 2033SOL     OW 6814   3.068   1.863   2.679 -0.2216 -0.1292 -0.1880
 2033SOL    HW1 6815   3.130   1.792   2.664  1.7973  1.5010  0.0634
 2033SOL    HW2 6816   3.022   1.839   2.759  0.7549 -0.9655  0.1354
 2034SOL     OW 6817   2.728   2.711   0.641 -0.2469 -0.4091 -0.4172
 2034SOL    HW1 6818   2.817   2.737   0.663 -0.4925 -0.2615  0.4068
 2034SOL    HW2 6819   2.683   2.703   0.725 -0.9552 -0.6878 -0.8137
 2035SOL     OW 6820   3.762   2.646   3.865  0.3281  0.0648  0.3192
 2035SOL    HW1 6821   3.808   2.565   3.887 -1.6964 -1.2531 -0.1442
 2035SOL    HW2 6822   3.822   2.715   3.893  1.7655 -1.5746  1.4755
 2036SOL     OW 6823   4.673   6.041   4.456  0.1200 -0.3058  0.3222
 2036SOL    HW1 6824   4.611   6.014   4.388 -0.6970 -0.8777  1.2910
 2036SOL    HW2 6825   4.662   6.136   4.462  0.5046 -0.1939 -0.6362
 2037SOL     OW 6826   3.056   6.454   6.455 -0.0186 -0.6108  0.7347
 2037SOL    HW1 6827   3.062   6.548   6.439  0.5972 -0.7197  0.2980
 2037SOL    HW2 6828   3.066   6.445   6.550 -0.8101 -0.1839  0.8628
 2038SOL     OW 6829   5.464   5.113   2.815  0.3911  0.0813 -0.2026
 2038SOL    HW1 6830   5.458   5.095   2.722 -0.1683  1.1201 -0.3816
 2038SOL    HW2 6831   5.373   5.109   2.846  0.8050 -2.7412  0.8047
 2039SOL     OW 6832   5.844   4.800   6.224 -0.0337  0.6131  0.1925
 2039SOL    HW1 6833   5.925   4.754   6.246  0.1675  0.6665 -0.4146
 2039SOL    HW2 6834   5.830   4.781   6.131 -1.6444 -0.8157  0.7002
 2040SOL     OW 6835   0.967   5.574   1.172  0.2513 -0.6466 -0.7125
 2040SOL    HW1 6836   1.016   5.588   1.254 -0.7594  0.0388 -0.2218
 2040SOL    HW2 6837   0.903   5.506   1.194  0.0563 -0.5476 -0.9739
 2041SOL     OW 6838   2.970   0.634   2.124 -0.1419 -0.0825 -0.5857
 2041SOL    HW1 6839   3.026   0.568   2.083  1.9629  0.7860  0.8459
 2041SOL    HW2 6840   2.991   0.629   2.217  0.1949  2.7248 -0.4872
 2042SOL     OW 6841   6.454   1.407   5.657 -0.4851  0.1071 -0.0406
 2042SOL    HW1 6842   6.517   1.424   5.728 -1.6450 -0.2908  1.0999
 2042SOL    HW2 6843   6.500   1.436   5.578  0.9109  0.3823  0.8370
 2043SOL     OW 6844   4.631   3.608   5.823  0.0286  0.6797  0.0118
 2043SOL    HW1 6845   4.671   3.690   5.793 -0.7244  1.1020  0.1415
 2043SOL    HW2 6846   4.541   3.613   5.793 -0.5188  0.7496  1.6161
 2044SOL     OW 6847   1.495   5.924   4.326 -0.3392 -0.2361  0.0403
 2044SOL    HW1 6848   1.580   5.886   4.304  0.6434  0.3108  2.6882
 2044SOL    HW2 6849   1.431   5.867   4.284  1.3290 -0.6524 -2.0029
 2045SOL     OW 6850   1.077   0.963   0.803  0.4090  0.2151 -0.2757
 2045SOL    HW1 6851   1.106   0.904   0.872 -0.3773  0.2518  0.0951
 2045SOL    HW2 6852   1.044   0.905   0.734 -0.0800  0.2062 -0.0391
 2046SOL     OW 6853   0.947   0.730   6.277  0.0277 -0.4608  0.5598
 2046SOL    HW1 6854   1.040   0.752   6.286 -0.0241 -0.8209  1.9798
 2046SOL    HW2 6855   0.914   0.725   6.366 -1.0525 -1.6741  0.1111
 2047SOL     OW 6856   5.126   2.752   0.092 -0.6824  0.9466 -0.1859
 2047SOL    HW1 6857   5.208   2.796   0.067 -0.3463 -0.1236 -0.9998
 2047SOL    HW2 6858   5.148   2.659   0.091 -2.1797  0.6021 -1.4095
 2048SOL     OW 6859   5.183   6.689   2.723  0.2202 -0.7422  0.4130
 2048SOL    HW1 6860   5.170   6.779   2.694  0.3850  0.0905  2.8520
 2048SOL    HW2 6861   5.105   6.669   2.774  0.2391 -1.9499 -0.0176
 2049SOL     OW 6862   2.423   0.436   3.207 -0.1382  0.0222 -0.1425
 2049SOL    HW1 6863   2.391   0.507   3.150  0.0333  1.8244  1.9615
 2049SOL    HW2 6864   2.365   0.437   3.282  0.7989 -1.0929  0.6156
 2050SOL     OW 6865   1.876   0.355   4.902  0.1285  0.1200  0.6107
 2050SOL    HW1 6866   1.846   0.439   4.868  1.8381  0.2921 -0.5307
 2050SOL    HW2 6867   1.852   0.292   4.834 -1.7228 -0.4357  1.7479
 2051SOL     OW 6868   5.926   4.096   1.013  0.1586 -0.9084 -0.0392
 2051SOL    HW1 6869   5.933   4.190   1.029 -0.9107 -1.0140  1.0678
 2051SOL    HW2 6870   5.876   4.089   0.932 -0.2477 -0.5430  0.1820
 2052SOL     OW 6871   5.234   1.544   4.526  0.5248  0.7667  0.1151
 2052SOL    HW1 6872   5.279   1.597   4.460  2.7746  0.9822  1.7665
 2052SOL    HW2 6873   5.199   1.608   4.588  0.1072  0.4859  0.1694
 2053SOL     OW 6874   6.699   4.581   6.455 -0.6834  0.0087 -1.0355
 2053SOL    HW1 6875   6.662   4.493   6.463 -0.2144 -0.2849 -1.9988
 2053SOL    HW2 6876   6.625   4.636   6.430 -0.9781 -0.1184 -0.4334
 2054SOL     OW 6877   1.714   4.774   2.214  0.1757 -0.1793  0.2497
 2054SOL    HW1 6878   1.719   4.685   2.177 -0.9564 -0.2868  0.3434
 2054SOL    HW2 6879   1.623   4.799   2.204  0.7205  1.4414 -0.8166
 2055SOL     OW 6880   1.606   1.715   4.032 -0.3109 -0.4355 -0.0404
 2055SOL    HW1 6881   1.612   1.653   4.105  0.5127 -0.5073 -0.1693
 2055SOL    HW2 6882   1.512   1.718   4.011 -0.5677 -0.2776  1.1284
 2056SOL     OW 6883   4.969   4.908   0.166  0.0181 -0.1110  0.3316
 2056SOL    HW1 6884   5.042   4.969   0.155 -0.1144  0.0672  0.4266
 2056SOL    HW2 6885   4.894   4.955   0.130  0.1472 -0.7085 -0.7368
 2057SOL     OW 6886   0.194   5.781   2.889  0.0475  0.3441  0.1601
 2057SOL    HW1 6887   0.196   5.842   2.962 -2.6374  0.2239  0.3807
 2057SOL    HW2 6888   0.223   5.698   2.926  0.0676  0.6106  0.7443
 2058SOL     OW 6889   6.694   3.011   5.514 -0.0415 -0.3288 -0.3675
 2058SOL    HW1 6890   6.712   2.931   5.564  0.8975  0.1911  0.1513
 2058SOL    HW2 6891   6.748   3.003   5.435 -0.4232 -0.4903 -0.6140
 2059SOL     OW 6892   5.714   3.459   6.460  0.0114  0.0947  0.2321
 2059SOL    HW1 6893   5.724   3.515   6.537  0.6577 -0.3554  0.4820
 2059SOL    HW2 6894   5.716   3.370   6.495  0.8510 -0.1296 -0.3598
 2060SOL     OW 6895   0.884   2.414   6.136 -0.2567  0.0761 -0.1645
 2060SOL    HW1 6896   0.810   2.358   6.115 -2.1666  1.8855  1.5567
 2060SOL    HW2 6897   0.906   2.457   6.053  0.0948 -1.8156 -1.0898
 2061SOL     OW 6898   1.627   3.947   1.444  0.2670 -0.0987  0.5458
 2061SOL    HW1 6899   1.561   3.929   1.377  0.2963 -2.0036  1.0080
 2061SOL    HW2 6900   1.620   4.042   1.460 -0.2603  0.2398 -1.5758
 2062SOL     OW 6901   5.247   3.520   2.045  0.3992  0.4295 -0.0627
 2062SOL    HW1 6902   5.199   3.589   2.091 -0.9751 -0.8248  0.4348
 2062SOL    HW2 6903   5.182   3.479   1.988  1.0848 -0.7175 -0.0513
 2063SOL     OW 6904   1.763   5.193   3.082  0.0369  0.0699 -0.2952
 2063SOL    HW1 6905   1.828   5.161   3.145 -2.2018 -1.8100  1.1124
 2063SOL    HW2 6906   1.772   5.288   3.086  1.7709 -0.1061  0.8557
 2064SOL     OW 6907   3.209   5.593   1.133  0.5813 -0.1900 -0.2491
 2064SOL    HW1 6908   3.204   5.656   1.061  1.2428 -1.0229 -1.0363
 2064SOL    HW2 6909   3.118   5.564   1.147  0.4696 -0.1108 -0.8272
 2065SOL     OW 6910   3.458   4.764   3.591  0.3729 -0.3053 -0.2507
 2065SOL    HW1 6911   3.405   4.842   3.606  0.7505 -0.0545 -0.2071
 2065SOL    HW2 6912   3.481   4.767   3.498 -0.0983 -0.6734 -0.3797
 2066SOL     OW 6913   5.078   4.648   2.045  0.4578 -0.1459 -0.1055
 2066SOL    HW1 6914   5.143   4.672   1.979 -0.3927  0.9594 -0.5634
 2066SOL    HW2 6915   4.994   4.661   2.002 -0.0903 -0.5710  0.8146
 2067SOL     OW 6916   5.810   2.818   1.114 -0.4683 -0.5145  0.4016
 2067SOL    HW1 6917   5.748   2.751   1.084 -0.2756  0.1182 -1.4547
 2067SOL    HW2 6918   5.810   2.884   1.045  1.0039  0.3316  1.1809
 2068SOL     OW 6919   2.447   5.949   0.066 -0.4999 -0.2520 -1.0669
 2068SOL    HW1 6920   2.437   5.936   0.161  0.6935  0.1643 -0.8777
 2068SOL    HW2 6921   2.370   6.001   0.041 -0.6050  0.0015 -0.2547
 2069SOL     OW 6922   6.511   3.139   5.253 -0.3470  0.0795  0.0191
 2069SOL    HW1 6923   6.480   3.067   5.307 -0.0368 -0.4218 -0.4626
 2069SOL    HW2 6924   6.469   3.217   5.289 -0.5688 -0.3245  0.6317
 2070SOL     OW 6925   2.378   6.747   3.892 -0.0466  0.8041  0.2602
 2070SOL    HW1 6926   2.331   6.780   3.816  0.4819  1.1328  0.0701
 2070SOL    HW2 6927   2.391   6.654   3.874 -3.1894  0.0529  1.6507
 2071SOL     OW 6928   5.222   2.424   3.726 -0.3972  0.5537  0.3644
 2071SOL    HW1 6929   5.282   2.406   3.798  0.2437 -0.6262 -0.4484
 2071SOL    HW2 6930   5.232   2.518   3.709  1.9520  0.2035 -0.3874
 2072SOL     OW 6931   0.191   0.162   0.765  0.1665  0.2472  0.0957
 2072SOL    HW1 6932   0.279   0.193   0.785 -0.3191  2.2053 -0.7028
 2072SOL    HW2 6933   0.150   0.148   0.851  1.6573 -1.9861  0.4970
 2073SOL     OW 6934   0.206   1.484   1.531 -0.0567  0.0626  0.2500
 2073SOL    HW1 6935   0.134   1.538   1.562 -0.2618  0.0121 -0.1379
 2073SOL    HW2 6936   0.164   1.409   1.488  0.2025  1.3897 -2.3885
 2074SOL     OW 6937   4.919   5.663   1.967  0.2378  0.0366 -0.1173
 2074SOL    HW1 6938   4.893   5.620   1.886 -1.1035  0.2784  0.1663
 2074SOL    HW2 6939   4.985   5.727   1.940 -3.0201  2.9183 -1.6733
 2075SOL     OW 6940   4.674   4.315   3.612  0.0698 -0.2169 -0.0849
 2075SOL    HW1 6941   4.760   4.356   3.599 -0.2950  0.8282  0.6943
 2075SOL    HW2 6942   4.615   4.361   3.553  0.3018 -1.8556 -1.6225
 2076SOL     OW 6943   2.412   4.985   1.264  0.0388  0.2967  0.6300
 2076SOL    HW1 6944   2.360   4.952   1.191  1.7031 -0.2324 -0.3400
 2076SOL    HW2 6945   2.428   4.907   1.318  1.9503 -0.0463 -0.4064
 2077SOL     OW 6946   3.161   0.463   4.475  0.4715  0.3407  0.4973
 2077SOL    HW1 6947   3.202   0.531   4.529 -1.6681  0.3421  2.2245
 2077SOL    HW2 6948   3.067   0.483   4.480  0.2291  0.5154 -3.5338
 2078SOL     OW 6949   6.175   3.037   2.264  0.1059  0.0686 -0.2701
 2078SOL    HW1 6950   6.090   3.065   2.297  0.1784 -2.1077  1.8677
 2078SOL    HW2 6951   6.197   2.960   2.316  1.8963 -1.3474 -3.0109
 2079SOL     OW 6952   1.440   4.800   1.422  0.0037  0.4595 -0.1233
 2079SOL    HW1 6953   1.501   4.732   1.394  0.3374  0.8271 -0.2856
 2079SOL    HW2 6954   1.354   4.768   1.395  0.2019  0.2803 -0.5451
 2080SOL     OW 6955   4.081   0.028   3.556 -0.5968 -0.5376 -0.2368
 2080SOL    HW1 6956   4.175   0.042   3.569 -0.4519 -1.8907  0.2900
 2080SOL    HW2 6957   4.039   0.084   3.621 -0.1424 -0.2663 -0.1738
 2081SOL     OW 6958   2.399   3.840   6.170  0.0616  0.0914 -0.0345
 2081SOL    HW1 6959   2.322   3.817   6.118  0.0496 -1.5380  0.6538
 2081SOL    HW2 6960   2.467   3.780   6.139  0.7164  0.7155  0.1875
 2082SOL     OW 6961   1.526   0.390   2.416  0.3361  0.0975 -0.2160
 2082SOL    HW1 6962   1.594   0.327   2.439 -1.3382 -1.8210 -0.4399
 2082SOL    HW2 6963   1.469   0.344   2.355  0.0648  2.4261 -1.7963
 2083SOL     OW 6964   0.614   0.306   4.123 -0.0731 -0.4355  0.6119
 2083SOL    HW1 6965   0.538   0.363   4.131 -0.3249 -0.6459 -0.2525
 2083SOL    HW2 6966   0.625   0.267   4.210  0.5496  1.4932  1.4255
 2084SOL     OW 6967   5.484   0.367   0.027 -0.1310  0.1235 -0.4211
 2084SOL    HW1 6968   5.443   0.281   0.014 -0.0266  0.1686 -1.0310
 2084SOL    HW2 6969   5.445   0.423  -0.040  0.4281  0.3427 -0.5632
 2085SOL     OW 6970   3.415   0.544   2.455 -0.0363 -0.1965  0.0298
 2085SOL    HW1 6971   3.420   0.567   2.548 -2.3318 -2.7818  0.8720
 2085SOL    HW2 6972   3.470   0.467   2.446 -1.8842 -1.5426 -0.1402
 2086SOL     OW 6973   0.312   5.927   1.370  0.4388 -0.1591 -0.0088
 2086SOL    HW1 6974   0.399   5.907   1.403  0.9224  1.4750 -0.2558
 2086SOL    HW2 6975   0.314   6.021   1.350 -1.5534  0.0331  0.5244
 2087SOL     OW 6976   0.251   6.458   3.590  0.1107 -0.4403  0.3304
 2087SOL    HW1 6977   0.256   6.543   3.632  0.8742 -0.7479  0.8692
 2087SOL    HW2 6978   0.193   6.407   3.647 -0.3778 -0.2752 -0.0130
 2088SOL     OW 6979   3.443   4.257   0.059  0.4018  0.5514 -0.5692
 2088SOL    HW1 6980   3.486   4.172   0.069 -0.6444  0.0762 -0.0830
 2088SOL    HW2 6981   3.443   4.294   0.148 -0.6462  0.3248 -0.4687
 2089SOL     OW 6982   5.141   5.085   2.020 -0.0566 -0.4477  0.2906
 2089SOL    HW1 6983   5.141   5.180   2.027  1.0063 -0.4686  0.6428
 2089SOL    HW2 6984   5.232   5.062   2.000 -0.2219 -1.4189  0.6092
 2090SOL     OW 6985   1.515   3.699   3.036  0.7071  0.8489  0.0373
 2090SOL    HW1 6986   1.606   3.684   3.009  1.1525  0.4222  1.6955
 2090SOL    HW2 6987   1.464   3.638   2.984  1.4623  0.4963 -0.3006
 2091SOL     OW 6988   5.850   3.494   3.851 -0.5271 -0.8723  0.0194
 2091SOL    HW1 6989   5.845   3.400   3.830  0.0979 -0.4369 -2.1797
 2091SOL    HW2 6990   5.941   3.518   3.832 -0.9098  0.3664 -0.2635
 2092SOL     OW 6991   4.497   2.718   4.040  0.2216  0.5288  0.2528
 2092SOL    HW1 6992   4.421   2.751   4.088 -0.3064  1.9943 -1.5418
 2092SOL    HW2 6993   4.559   2.692   4.108 -2.3575 -1.8864  1.8022
 2093SOL     OW 6994   1.312   2.288   4.775  0.3150 -0.0615  0.5503
 2093SOL    HW1 6995   1.244   2.221   4.788 -0.2095  0.5778  1.1160
 2093SOL    HW2 6996   1.348   2.268   4.688  0.4145 -1.3050  0.8622
 2094SOL     OW 6997   1.523   6.386   1.950 -0.0175  0.7066  0.2566
 2094SOL    HW1 6998   1.496   6.309   1.900  1.6580 -0.0326  0.4575
 2094SOL    HW2 6999   1.583   6.352   2.017 -1.7403  1.7541  2.4080
 2095SOL     OW 7000   5.692   2.096   4.520  0.3515 -0.1774  0.3962
 2095SOL    HW1 7001   5.777   2.123   4.556  0.3813  1.3148 -0.7477
 2095SOL    HW2 7002   5.638   2.078   4.598  0.7845  1.8327  1.1963
 2096SOL     OW 7003   1.139   2.756   0.032 -0.1998 -0.2097  0.0246
 2096SOL    HW1 7004   1.155   2.848   0.010 -0.3442  0.0279  0.9132
 2096SOL    HW2 7005   1.222   2.713   0.013  0.4510  0.4246  1.3455
 2097SOL     OW 7006   1.338   4.892   4.933  0.1465  0.2212  0.4639
 2097SOL    HW1 7007   1.334   4.933   5.020  0.6869 -1.6459  1.3828
 2097SOL    HW2 7008   1.315   4.963   4.873 -1.8279  1.1541  2.2291
 2098SOL     OW 7009   0.724   1.124   2.911  0.2858 -0.2787 -0.2973
 2098SOL    HW1 7010   0.679   1.062   2.970  0.5676 -1.4007 -1.2476
 2098SOL    HW2 7011   0.801   1.076   2.882  0.4211  0.4777 -1.1666
 2099SOL     OW 7012   3.235   2.422   5.244  0.5201  0.4367 -0.3750
 2099SOL    HW1 7013   3.226   2.329   5.224 -0.0422  0.9651 -2.7040
 2099SOL    HW2 7014   3.148   2.459   5.228  0.8471  1.4495  0.1417
 2100SOL     OW 7015   3.279   1.193   6.674 -1.2306 -0.0274 -0.2697
 2100SOL    HW1 7016   3.184   1.191   6.663 -1.2037 -0.6608 -0.4008
 2100SOL    HW2 7017   3.308   1.265   6.618 -1.3806 -1.4594 -2.2716
 2101SOL     OW 7018   3.621   4.844   4.096 -0.1284 -0.1817 -0.0920
 2101SOL    HW1 7019   3.624   4.854   4.191  0.4980  0.5362 -0.1776
 2101SOL    HW2 7020   3.710   4.864   4.068 -0.4690  0.2478 -0.8862
 2102SOL     OW 7021   2.589   5.475   5.654 -0.0058  0.3288 -0.1437
 2102SOL    HW1 7022   2.609   5.519   5.571 -0.5370  0.9601  0.0605
 2102SOL    HW2 7023   2.611   5.539   5.721 -1.9652  0.7717  0.1118
 2103SOL     OW 7024   5.684   3.301   5.015  0.3977  0.3631  0.1142
 2103SOL    HW1 7025   5.626   3.341   4.949 -1.0084 -0.0037  1.1102
 2103SOL    HW2 7026   5.770   3.340   4.998 -0.2164  1.1909 -1.1559
 2104SOL     OW 7027   4.523   2.565   5.387  0.0949  0.3456 -0.9924
 2104SOL    HW1 7028   4.569   2.567   5.303  1.9464 -1.2137 -0.0821
 2104SOL    HW2 7029   4.558   2.640   5.435  1.0901 -0.3318 -0.6297
 2105SOL     OW 7030   6.277   4.748   5.956  0.1611 -0.5492 -0.1564
 2105SOL    HW1 7031   6.358   4.772   6.002  0.0077  0.9558 -0.6722
 2105SOL    HW2 7032   6.210   4.803   5.995 -0.5286 -1.4233 -0.1032
 2106SOL     OW 7033   6.757   6.245   4.849 -0.3064 -0.3389 -0.3081
 2106SOL    HW1 7034   6.813   6.220   4.923  1.4767  3.0002 -0.4480
 2106SOL    HW2 7035   6.669   6.251   4.887  0.6668  1.8881  1.7337
 2107SOL     OW 7036   2.239   5.478   6.344  0.3255 -0.1405  0.3288
 2107SOL    HW1 7037   2.250   5.496   6.251 -0.5446 -0.8074  0.0960
 2107SOL    HW2 7038   2.261   5.561   6.387 -0.5155  0.5453 -0.5433
 2108SOL     OW 7039   5.753   1.922   3.120  0.0618  0.0013 -0.4457
 2108SOL    HW1 7040   5.697   1.945   3.194 -1.6876  1.4176 -2.1499
 2108SOL    HW2 7041   5.815   1.995   3.114  0.2490 -0.1486 -0.3294
 2109SOL     OW 7042   0.299   6.078   0.562  0.1038 -0.4128  0.1451
 2109SOL    HW1 7043   0.299   6.112   0.651  0.5646  0.2846 -0.1163
 2109SOL    HW2 7044   0.392   6.073   0.537 -0.0634  0.4826 -0.6962
 2110SOL     OW 7045   1.898   1.329   3.888  0.3050  0.0280  0.5155
 2110SOL    HW1 7046   1.962   1.313   3.818  1.0294  1.4975  0.8146
 2110SOL    HW2 7047   1.896   1.424   3.897 -1.3185 -0.0461  1.0960
 2111SOL     OW 7048   1.987   5.195   3.860  0.3587 -0.7497 -0.2688
 2111SOL    HW1 7049   2.045   5.200   3.783  0.0694  0.2560 -0.4345
 2111SOL    HW2 7050   1.987   5.284   3.895 -0.4622 -0.9320  0.1980
 2112SOL     OW 7051   5.209   6.171   6.064  0.3051 -0.2643 -0.2114
 2112SOL    HW1 7052   5.203   6.126   6.149 -1.2548 -0.3960 -0.3657
 2112SOL    HW2 7053   5.285   6.132   6.021  0.5562 -0.8623  0.7495
 2113SOL     OW 7054   5.666   5.975   3.189 -1.0292 -0.3148 -0.3121
 2113SOL    HW1 7055   5.667   5.966   3.094  0.3915 -0.2695 -0.3136
 2113SOL    HW2 7056   5.652   6.069   3.203 -2.3205 -0.4768 -0.4529
 2114SOL     OW 7057   5.914   1.629   2.483 -0.0213  0.2708  0.4310
 2114SOL    HW1 7058   5.962   1.663   2.558  0.7618 -2.8742  1.4489
 2114SOL    HW2 7059   5.836   1.684   2.477  1.4587  2.5531  1.5723
 2115SOL     OW 7060   5.763   6.239   3.962 -0.0404 -0.4257  0.1694
 2115SOL    HW1 7061   5.838   6.292   3.933 -0.8285  0.9688  0.6426
 2115SOL    HW2 7062   5.801   6.153   3.981  1.2735 -0.0213 -0.5461
 2116SOL     OW 7063   6.557   3.911   5.603 -0.0673  0.3820  0.5509
 2116SOL    HW1 7064   6.622   3.846   5.627  1.6420  2.0315  0.5475
 2116SOL    HW2 7065   6.499   3.917   5.679  0.0451 -0.7929  0.7259
 2117SOL     OW 7066   4.188   1.064   5.101 -0.2310 -0.2127  0.4495
 2117SOL    HW1 7067   4.203   1.007   5.176 -1.9164 -0.6242  0.4999
 2117SOL    HW2 7068   4.266   1.120   5.097 -0.3146  0.1232  2.7850
 2118SOL     OW 7069   5.541   4.543   4.477  0.0460  0.1304 -0.0151
 2118SOL    HW1 7070   5.578   4.481   4.415 -0.5594  0.2988 -0.5575
 2118SOL    HW2 7071   5.582   4.627   4.454  0.2632  0.0826  0.1970
 2119SOL     OW 7072   6.396   2.310   1.352 -0.5007  0.3524  0.1747
 2119SOL    HW1 7073   6.320   2.342   1.400 -1.2300 -0.2940 -0.5258
 2119SOL    HW2 7074   6.405   2.370   1.278 -0.6010  0.1535  0.0034
 2120SOL     OW 7075   5.526   2.198   0.315 -0.0834 -0.0201  0.8864
 2120SOL    HW1 7076   5.492   2.147   0.389 -0.4395  0.7112  1.2330
 2120SOL    HW2 7077   5.563   2.132   0.256 -1.7618 -0.7982  0.6697
 2121SOL     OW 7078   4.320   6.375   2.701 -0.7646 -0.5135  0.1503
 2121SOL    HW1 7079   4.322   6.444   2.634  0.5925  0.0325  0.7405
 2121SOL    HW2 7080   4.227   6.363   2.720 -1.0209  1.2244  0.1032
 2122SOL     OW 7081   6.031   0.771   3.049 -0.3109  0.1209 -0.6770
 2122SOL    HW1 7082   6.004   0.778   3.141 -1.0048  0.8275 -0.9345
 2122SOL    HW2 7083   6.097   0.702   3.050  0.2259  0.6225  0.4751
 2123SOL     OW 7084   5.543   6.499   1.343  0.4960 -0.8807  0.0631
 2123SOL    HW1 7085   5.558   6.561   1.272 -1.3907 -0.6742 -0.1584
 2123SOL    HW2 7086   5.608   6.523   1.410  1.5464 -0.3827 -1.1205
 2124SOL     OW 7087   1.432   0.752   6.243 -0.0727 -0.5516 -0.3559
 2124SOL    HW1 7088   1.505   0.795   6.199 -0.4904  1.4508  0.8207
 2124SOL    HW2 7089   1.462   0.662   6.257  2.2316  0.2701  0.2580
 2125SOL     OW 7090   3.002   4.861   6.247  0.7169 -0.4143  0.0944
 2125SOL    HW1 7091   2.928   4.816   6.206  2.8448 -2.7162 -1.3638
 2125SOL    HW2 7092   3.044   4.909   6.175  1.6224 -0.5205  0.5405
 2126SOL     OW 7093   1.049   0.544   5.313  0.3540  0.0257 -0.5417
 2126SOL    HW1 7094   1.035   0.635   5.337 -0.9329  0.0850 -1.4450
 2126SOL    HW2 7095   1.007   0.494   5.383  0.6332  0.1312 -0.2984
 2127SOL     OW 7096   5.886   1.483   3.729 -0.0354  0.4886 -0.1232
 2127SOL    HW1 7097   5.866   1.466   3.637  0.1153  0.4927 -0.1565
 2127SOL    HW2 7098   5.851   1.570   3.746 -1.2510 -0.0456  0.1813
 2128SOL     OW 7099   2.114   3.282   4.015 -0.2144  0.2647 -0.0855
 2128SOL    HW1 7100   2.199   3.316   3.989  1.7074 -2.0069  2.9787
 2128SOL    HW2 7101   2.111   3.193   3.981  0.3227 -1.0356  3.1462
 2129SOL     OW 7102   6.716   2.083   2.623  0.3084 -0.3738 -0.1598
 2129SOL    HW1 7103   6.664   2.164   2.618  0.4582 -0.2422  0.3807
 2129SOL    HW2 7104   6.774   2.097   2.698  1.1145 -0.5328 -0.7535
 2130SOL     OW 7105   3.628   3.087   2.887  0.3452  0.2361  0.0648
 2130SOL    HW1 7106   3.545   3.084   2.839  0.0930  1.0336  0.4334
 2130SOL    HW2 7107   3.661   3.175   2.871 -0.0856  0.7600  1.9129
 2131SOL     OW 7108   0.880   2.512   2.407 -0.4899 -0.0266 -0.4881
 2131SOL    HW1 7109   0.874   2.449   2.479 -0.9015  0.8349  0.2488
 2131SOL    HW2 7110   0.837   2.591   2.441 -0.9154  0.3041 -1.7820
 2132SOL     OW 7111   5.576   2.584   3.651 -0.1853  0.5818  0.0711
 2132SOL    HW1 7112   5.638   2.574   3.724 -0.2233  0.0860  0.0378
 2132SOL    HW2 7113   5.577   2.499   3.607 -1.3769  0.3503  0.4560
 2133SOL     OW 7114   0.561   6.082   4.102 -0.4922  0.3498  0.5257
 2133SOL    HW1 7115   0.528   6.013   4.044  0.9301  0.8717 -0.9281
 2133SOL    HW2 7116   0.565   6.160   4.047  4.0047  0.1205  0.3259
 2134SOL     OW 7117   0.487   1.102   1.932 -0.3262  0.2458  0.0476
 2134SOL    HW1 7118   0.392   1.101   1.944 -0.2478 -1.3051  0.6724
 2134SOL    HW2 7119   0.523   1.121   2.019  0.0094 -3.0355  0.7127
 2135SOL     OW 7120   3.049   1.974   6.024  0.1246 -0.2073 -0.1070
 2135SOL    HW1 7121   3.030   1.883   6.043 -1.5352  0.0396 -0.5374
 2135SOL    HW2 7122   3.106   1.971   5.947 -1.2122 -0.8425 -1.0979
 2136SOL     OW 7123   4.307   4.640   3.185 -0.6114  0.1043 -0.0404
 2136SOL    HW1 7124   4.337   4.708   3.245  0.2211  0.1542 -0.5098
 2136SOL    HW2 7125   4.216   4.625   3.210 -0.1016 -0.3181  1.6302
 2137SOL     OW 7126   2.846   3.455   2.203 -0.0745 -0.4946 -0.0055
 2137SOL    HW1 7127   2.876   3.446   2.113 -1.8173  1.2082 -0.7939
 2137SOL    HW2 7128   2.854   3.549   2.222  0.0895 -0.8118  1.5358
 2138SOL     OW 7129   5.040   2.970   0.947  0.0088  0.7768  0.2768
 2138SOL    HW1 7130   5.028   2.930   0.860 -1.4248  0.9960  0.3649
 2138SOL    HW2 7131   5.037   3.064   0.930 -0.2057  0.8193  0.5557
 2139SOL     OW 7132   2.255   3.956   4.729 -0.1346 -0.3012 -0.4769
 2139SOL    HW1 7133   2.196   3.995   4.793 -0.2285  3.0394 -2.4924
 2139SOL    HW2 7134   2.318   3.907   4.781 -0.8694  1.4026  2.0860
 2140SOL     OW 7135   6.609   5.736   0.200 -0.1452  0.2378  0.1677
 2140SOL    HW1 7136   6.659   5.779   0.270 -1.5198  0.3342  1.1138
 2140SOL    HW2 7137   6.585   5.651   0.237 -0.2804  0.0132 -0.4460
 2141SOL     OW 7138   2.243   4.427   0.883 -0.0572  0.7881  0.3454
 2141SOL    HW1 7139   2.158   4.467   0.901  0.1624  1.6586 -0.5138
 2141SOL    HW2 7140   2.232   4.384   0.798  0.6168  1.6606 -0.1914
 2142SOL     OW 7141   6.678   2.476   1.970 -0.1327 -0.1854 -0.0892
 2142SOL    HW1 7142   6.629   2.521   1.901  0.5145  1.3325  0.4289
 2142SOL    HW2 7143   6.681   2.384   1.941 -0.4198  0.3188 -1.7551
 2143SOL     OW 7144   5.340   5.385   2.905 -0.0432 -0.2633 -0.0552
 2143SOL    HW1 7145   5.316   5.420   2.819  2.0329 -0.8753 -0.9047
 2143SOL    HW2 7146   5.285   5.307   2.915 -0.1179 -0.3306 -0.9372
 2144SOL     OW 7147   2.283   6.511   6.279 -0.4040 -0.5436  0.0161
 2144SOL    HW1 7148   2.239   6.584   6.236  1.5523  0.5842 -0.1258
 2144SOL    HW2 7149   2.266   6.435   6.223 -0.7281  0.2298 -0.9427
 2145SOL     OW 7150   1.497   1.711   3.078  0.4777 -0.5177 -0.1037
 2145SOL    HW1 7151   1.433   1.744   3.142  1.6807  0.8290  0.4223
 2145SOL    HW2 7152   1.540   1.639   3.124  1.3671  0.4711  0.6503
 2146SOL     OW 7153   1.395   5.747   4.665  0.0549 -0.1978 -0.4401
 2146SOL    HW1 7154   1.471   5.796   4.697  0.6630 -1.4134 -0.0111
 2146SOL    HW2 7155   1.344   5.812   4.616 -0.0416  1.2890  1.5614
 2147SOL     OW 7156   5.059   3.894   5.061 -0.4959 -0.0321 -0.4523
 2147SOL    HW1 7157   5.076   3.988   5.060 -0.8802  0.0642  1.0841
 2147SOL    HW2 7158   5.146   3.854   5.068 -0.2928  0.1828 -1.6270
 2148SOL     OW 7159   6.533   1.256   2.785 -0.1831 -0.0898 -0.4444
 2148SOL    HW1 7160   6.567   1.324   2.727  1.4101  2.1626  2.9691
 2148SOL    HW2 7161   6.611   1.213   2.820 -1.0399 -0.2368  1.3383
 2149SOL     OW 7162   6.659   0.965   2.150 -0.3310  0.3076  0.1491
 2149SOL    HW1 7163   6.596   0.897   2.126  2.8237 -2.2313 -1.2360
 2149SOL    HW2 7164   6.605   1.038   2.180 -3.8774 -2.1753  0.0734
 2150SOL     OW 7165   6.543   3.261   6.284 -0.1406 -0.1213  0.3012
 2150SOL    HW1 7166   6.616   3.319   6.306  0.4321 -0.6156 -0.2673
 2150SOL    HW2 7167   6.485   3.265   6.360  1.4417 -1.2475  1.6123
 2151SOL     OW 7168   5.007   1.418   4.264 -0.1435  0.4930  0.6149
 2151SOL    HW1 7169   5.078   1.354   4.271 -1.8422 -1.4623  0.1286
 2151SOL    HW2 7170   5.048   1.494   4.222  1.8221 -0.3439  0.9539
 2152SOL     OW 7171   4.855   2.718   3.332 -0.6273 -0.7095 -0.4085
 2152SOL    HW1 7172   4.876   2.759   3.249 -0.0391  0.3716  0.2622
 2152SOL    HW2 7173   4.920   2.753   3.394 -1.8822 -0.4182  0.7931
 2153SOL     OW 7174   5.792   6.741   5.248  0.1241  0.2674 -0.2406
 2153SOL    HW1 7175   5.875   6.783   5.272  0.8678 -1.5741  0.5154
 2153SOL    HW2 7176   5.745   6.733   5.331 -0.3432  0.3101 -0.5016
 2154SOL     OW 7177   0.253   0.406   5.784 -0.0673  0.6152 -0.9881
 2154SOL    HW1 7178   0.311   0.466   5.830  0.5379 -0.1769 -0.6989
 2154SOL    HW2 7179   0.185   0.383   5.847  1.3791 -1.3444 -0.0704
 2155SOL     OW 7180   2.212   3.647   3.355  0.5239  0.4954  0.3574
 2155SOL    HW1 7181   2.279   3.713   3.338 -0.1336  1.1700  0.3854
 2155SOL    HW2 7182   2.260   3.564   3.351  1.2985  0.9461  0.0296
 2156SOL     OW 7183   6.752   2.680   4.213 -0.4043  0.0791 -0.3436
 2156SOL    HW1 7184   6.688   2.734   4.260  0.8149  1.5866 -0.3628
 2156SOL    HW2 7185   6.807   2.744   4.167  0.6997 -1.2212 -0.8572
 2157SOL     OW 7186   5.521   6.026   6.691 -0.2955  0.0494 -0.3712
 2157SOL    HW1 7187   5.479   5.994   6.771  1.6016  1.2480  1.1456
 2157SOL    HW2 7188   5.530   5.948   6.636 -0.1983 -1.0938  1.2284
 2158SOL     OW 7189   0.141   4.281   4.384  0.3315  0.1343 -0.8044
 2158SOL    HW1 7190   0.091   4.358   4.410 -1.4661 -0.7891 -1.4881
 2158SOL    HW2 7191   0.211   4.316   4.328 -0.5184  1.2632 -1.1867
 2159SOL     OW 7192   1.343   5.668   2.571  0.0767 -0.7451  0.0594
 2159SOL    HW1 7193   1.263   5.632   2.534 -0.1760  0.6368 -0.7624
 2159SOL    HW2 7194   1.315   5.717   2.648  0.2342 -0.9285  0.2360
 2160SOL     OW 7195   4.205   3.392   0.324 -0.0974  0.5056 -0.5363
 2160SOL    HW1 7196   4.220   3.326   0.392 -0.0339 -0.6055 -1.6110
 2160SOL    HW2 7197   4.289   3.397   0.278 -0.2325  1.0195 -0.7228
 2161SOL     OW 7198   0.303   6.255   0.069  0.1711  0.3721 -0.0499
 2161SOL    HW1 7199   0.311   6.169   0.110 -0.3987  1.2714  1.9843
 2161SOL    HW2 7200   0.221   6.249   0.019  0.9035 -0.7472 -1.1500
 2162SOL     OW 7201   5.604   4.796   6.613  0.1648  0.3635  0.2725
 2162SOL    HW1 7202   5.573   4.748   6.536 -0.5346  0.2400  0.6279
 2162SOL    HW2 7203   5.598   4.888   6.588 -1.4977  0.4004  0.6845
 2163SOL     OW 7204   4.290   4.510   4.771  0.3428  0.2987 -0.2629
 2163SOL    HW1 7205   4.246   4.510   4.856  1.5208 -0.5110  0.3680
 2163SOL    HW2 7206   4.219   4.502   4.707 -0.4280 -1.2174  0.7489
 2164SOL     OW 7207   0.502   6.135   6.570 -0.2630  0.1173  0.0425
 2164SOL    HW1 7208   0.555   6.095   6.501  1.2031  0.9183  0.6711
 2164SOL    HW2 7209   0.562   6.144   6.644 -0.9967  1.9705  0.4436
 2165SOL     OW 7210   2.523   5.851   1.666 -0.9083 -0.0503  0.0480
 2165SOL    HW1 7211   2.454   5.909   1.700  0.1426  2.0856 -1.3084
 2165SOL    HW2 7212   2.485   5.813   1.587 -0.6103  1.0133 -0.6191
 2166SOL     OW 7213   5.878   5.479   0.855  0.4209 -0.2396 -0.2988
 2166SOL    HW1 7214   5.827   5.439   0.924 -0.7057 -1.0266 -1.5832
 2166SOL    HW2 7215   5.870   5.420   0.780  0.4726  1.2995 -1.5477
 2167SOL     OW 7216   0.958   4.677   0.358  0.2446  0.3389 -0.5248
 2167SOL    HW1 7217   0.883   4.624   0.330 -0.5142 -0.1451  2.2690
 2167SOL    HW2 7218   0.951   4.757   0.307 -1.4227 -0.2541 -1.2676
 2168SOL     OW 7219   4.815   6.714   3.136 -0.2644  0.0364 -0.3640
 2168SOL    HW1 7220   4.783   6.725   3.226 -1.0734  0.1747 -0.6622
 2168SOL    HW2 7221   4.762   6.775   3.084  0.0998 -0.1461 -0.9563
 2169SOL     OW 7222   0.910   5.765   0.997 -0.7551 -0.0103 -0.5830
 2169SOL    HW1 7223   0.946   5.692   1.047 -3.2161 -0.9436 -0.1116
 2169SOL    HW2 7224   0.815   5.752   1.000 -1.2769  3.4105 -0.1990
 2170SOL     OW 7225   3.895   1.828   3.646  0.0081  0.4488  0.0241
 2170SOL    HW1 7226   3.884   1.736   3.621 -0.2366  0.3264  0.5950
 2170SOL    HW2 7227   3.829   1.844   3.713  0.3486  0.9199  0.2530
 2171SOL     OW 7228   4.343   2.785   4.244 -0.4493  0.5357 -0.1882
 2171SOL    HW1 7229   4.345   2.723   4.317 -1.2769  0.4094 -0.2685
 2171SOL    HW2 7230   4.280   2.853   4.272  0.1806  1.1500 -0.2502
 2172SOL     OW 7231   4.902   5.819   6.380 -0.6147  0.9174 -0.2661
 2172SOL    HW1 7232   4.873   5.774   6.300 -1.0315 -0.8476  0.8536
 2172SOL    HW2 7233   4.828   5.873   6.405 -0.8554  0.7138 -0.5310
 2173SOL     OW 7234   1.610   3.201   4.146  0.7609  0.4499  0.0208
 2173SOL    HW1 7235   1.607   3.294   4.169  1.8894  0.6928 -0.8211
 2173SOL    HW2 7236   1.699   3.185   4.117  0.6506 -0.9673  0.3983
 2174SOL     OW 7237   4.568   3.402   4.095 -0.0923 -0.2950 -0.6842
 2174SOL    HW1 7238   4.496   3.461   4.116  1.6522  1.9947 -1.0026
 2174SOL    HW2 7239   4.606   3.379   4.180  0.0514  0.1161 -0.6352
 2175SOL     OW 7240   6.385   3.135   1.715  0.4598 -0.1074 -0.3420
 2175SOL    HW1 7241   6.387   3.131   1.619 -1.5240 -0.5304 -0.3998
 2175SOL    HW2 7242   6.415   3.223   1.736 -0.9344  0.6674 -1.4682
 2176SOL     OW 7243   6.016   4.299   6.688  0.0486  0.3250 -0.3728
 2176SOL    HW1 7244   6.002   4.389   6.717  1.5704  0.9079 -1.3823
 2176SOL    HW2 7245   6.035   4.306   6.595  1.9515 -0.8475 -0.1056
 2177SOL     OW 7246   4.336   1.277   6.550 -0.3123 -0.1663  0.1594
 2177SOL    HW1 7247   4.262   1.228   6.513 -0.6831  0.7046 -0.2785
 2177SOL    HW2 7248   4.407   1.213   6.554 -1.3838 -1.3152  1.6165
 2178SOL     OW 7249   4.496   6.516   5.372  0.4159  0.5455 -0.2142
 2178SOL    HW1 7250   4.540   6.541   5.291  0.7515 -0.5786 -0.3972
 2178SOL    HW2 7251   4.486   6.421   5.365 -3.2495  0.9180 -0.7498
 2179SOL     OW 7252   3.592   0.322   2.618 -0.8690 -0.6576 -0.0847
 2179SOL    HW1 7253   3.640   0.401   2.643 -0.6013 -1.0840  0.7702
 2179SOL    HW2 7254   3.630   0.296   2.534 -2.4680  1.3629 -1.4814
 2180SOL     OW 7255   0.497   3.813   5.445  0.1065  0.1732 -0.1755
 2180SOL    HW1 7256   0.416   3.807   5.394 -0.1778 -2.1135  0.5025
 2180SOL    HW2 7257   0.565   3.833   5.380 -0.3736 -1.8840 -1.3496
 2181SOL     OW 7258   0.682   5.056   0.011 -0.0332 -0.5166 -0.4963
 2181SOL    HW1 7259   0.681   5.152   0.011  1.1612 -0.4846 -1.5143
 2181SOL    HW2 7260   0.590   5.031   0.014 -0.2950  0.6293  2.0692
 2182SOL     OW 7261   3.493   3.078   4.925 -0.2277 -0.0631 -0.0305
 2182SOL    HW1 7262   3.555   3.128   4.872 -0.8051  0.9419  0.2234
 2182SOL    HW2 7263   3.411   3.080   4.875 -0.4187 -0.2366  0.2725
 2183SOL     OW 7264   4.575   2.393   5.594 -0.6191  0.2574  0.2810
 2183SOL    HW1 7265   4.564   2.445   5.514 -0.6149  1.5022  1.0816
 2183SOL    HW2 7266   4.596   2.457   5.662  1.0570 -0.9641  0.9548
 2184SOL     OW 7267   1.964   2.735   4.009  0.1047  0.2215  0.0359
 2184SOL    HW1 7268   1.975   2.813   3.956  0.8254  0.3699  0.4057
 2184SOL    HW2 7269   1.974   2.765   4.100  2.1064 -0.5859  0.1051
 2185SOL     OW 7270   4.695   4.320   4.879  0.1040  1.2458 -0.2267
 2185SOL    HW1 7271   4.762   4.388   4.874 -0.6825  2.2377  1.9699
 2185SOL    HW2 7272   4.744   4.238   4.879  1.2537  1.9177  0.1010
 2186SOL     OW 7273   3.453   5.968   1.199  0.5402 -0.2418  0.1565
 2186SOL    HW1 7274   3.463   5.874   1.211 -1.2032 -0.4224  0.3993
 2186SOL    HW2 7275   3.393   5.995   1.270 -0.1524  0.7769 -0.7913
 2187SOL     OW 7276   6.227   5.666   6.454 -0.0980  0.9088 -0.2306
 2187SOL    HW1 7277   6.311   5.620   6.455 -0.9465 -0.6876  0.1580
 2187SOL    HW2 7278   6.183   5.633   6.376 -1.4321 -0.3094  0.9985
 2188SOL     OW 7279   2.922   3.911   3.688  0.2883 -0.1071  0.4329
 2188SOL    HW1 7280   2.996   3.919   3.747  1.7395  1.9364 -1.5773
 2188SOL    HW2 7281   2.960   3.880   3.606 -1.0847  0.7133 -0.5404
 2189SOL     OW 7282   1.659   6.061   2.434  0.0889  0.5693  0.2550
 2189SOL    HW1 7283   1.723   6.101   2.492  1.3683 -0.7602 -0.2122
 2189SOL    HW2 7284   1.598   6.016   2.493  0.2500  0.8613  0.6471
 2190SOL     OW 7285   2.350   0.158   4.294  0.1913 -0.0178 -0.0290
 2190SOL    HW1 7286   2.401   0.232   4.327 -0.7005  0.0897  1.1396
 2190SOL    HW2 7287   2.262   0.172   4.329 -0.1837 -1.1969 -0.4728
 2191SOL     OW 7288   6.514   1.755   5.909 -0.4367  0.5097  0.3160
 2191SOL    HW1 7289   6.545   1.689   5.971 -1.7678 -0.5454 -0.0957
 2191SOL    HW2 7290   6.422   1.732   5.895 -0.6074  1.7858 -0.7067
 2192SOL     OW 7291   5.396   4.164   1.188 -0.1120  0.1404 -0.7058
 2192SOL    HW1 7292   5.472   4.198   1.141 -0.1979  0.9585 -0.2525
 2192SOL    HW2 7293   5.407   4.194   1.278 -0.2890 -0.8655 -0.3332
 2193SOL     OW 7294   4.982   0.518   6.467 -0.4533 -1.0555  0.0572
 2193SOL    HW1 7295   4.985   0.572   6.546 -0.1333 -2.2084  0.8448
 2193SOL    HW2 7296   5.043   0.447   6.484 -0.2368 -1.2096 -1.3210
 2194SOL     OW 7297   6.432   3.512   5.373 -0.4991 -0.0382 -0.2094
 2194SOL    HW1 7298   6.515   3.471   5.348 -0.5116 -1.4270  1.9591
 2194SOL    HW2 7299   6.454   3.570   5.445 -1.1935  0.7039 -0.5788
 2195SOL     OW 7300   1.405   4.921   3.629 -0.0493 -0.1642  0.0864
 2195SOL    HW1 7301   1.448   4.995   3.673 -1.3182  1.1427 -0.8071
 2195SOL    HW2 7302   1.461   4.903   3.553  0.0065  0.1885  0.0426
 2196SOL     OW 7303   4.333   0.900   4.614 -0.0538  0.1032 -0.0372
 2196SOL    HW1 7304   4.381   0.976   4.647 -0.2011 -0.0127  0.4551
 2196SOL    HW2 7305   4.249   0.904   4.659 -0.5689  0.4034 -1.0325
 2197SOL     OW 7306   4.096   0.014   3.289 -0.1871  0.5782 -0.3883
 2197SOL    HW1 7307   4.025   0.068   3.254 -0.4907  0.0230 -0.6500
 2197SOL    HW2 7308   4.094   0.029   3.384 -1.5353 -0.4391 -0.2299
 2198SOL     OW 7309   0.336   2.244   4.422  0.4737 -0.0216  0.1154
 2198SOL    HW1 7310   0.274   2.202   4.481  0.0847  0.0941 -0.2090
 2198SOL    HW2 7311   0.309   2.217   4.335  2.1146 -1.6136  0.0822
 2199SOL     OW 7312   4.522   5.959   6.130 -0.0315 -0.4201  0.2943
 2199SOL    HW1 7313   4.543   6.053   6.129  1.5565 -0.7429  1.6099
 2199SOL    HW2 7314   4.578   5.922   6.062  0.3018 -0.5991  0.6644
 2200SOL     OW 7315   6.604   4.617   3.765 -0.1555  0.6040 -0.3416
 2200SOL    HW1 7316   6.585   4.646   3.855  0.2724  1.8838 -0.6478
 2200SOL    HW2 7317   6.527   4.644   3.715  1.1375  3.1757 -1.0300
 2201SOL     OW 7318   3.546   2.441   2.646  0.0414  0.4849 -0.2266
 2201SOL    HW1 7319   3.453   2.461   2.636  0.1321  1.2241  0.3772
 2201SOL    HW2 7320   3.547   2.349   2.673 -0.6410  1.1305  2.0988
 2202SOL     OW 7321   2.490   2.463   4.153  0.4761  0.2290  0.3593
 2202SOL    HW1 7322   2.445   2.389   4.113  1.8762 -2.2747  3.1765
 2202SOL    HW2 7323   2.423   2.531   4.160 -1.3022 -1.3506 -0.7343
 2203SOL     OW 7324   1.748   1.129   4.037  0.5078  0.4015 -0.9470
 2203SOL    HW1 7325   1.699   1.156   4.115  1.1999 -0.3019 -0.2594
 2203SOL    HW2 7326   1.772   1.211   3.994  0.1035  0.7908 -0.4390
 2204SOL     OW 7327   0.032   1.457   4.945 -0.6625 -0.2466  0.5984
 2204SOL    HW1 7328  -0.012   1.395   4.887  0.3830 -0.7662  0.3637
 2204SOL    HW2 7329   0.041   1.537   4.892 -0.2580 -0.5224  0.2487
 2205SOL     OW 7330   1.379   1.117   6.632 -0.3126 -0.3471  0.1876
 2205SOL    HW1 7331   1.455   1.061   6.648 -0.4288 -0.9260 -1.2077
 2205SOL    HW2 7332   1.304   1.057   6.631 -0.9117  0.3132  2.2881
 2206SOL     OW 7333   0.978   3.730   0.118 -0.1502 -0.1994  0.0223
 2206SOL    HW1 7334   0.888   3.708   0.096  0.0031 -0.6702 -0.1456
 2206SOL    HW2 7335   1.029   3.654   0.089  0.5777  0.9741 -1.8882
 2207SOL     OW 7336   2.352   0.728   4.910 -0.0412  0.1368  0.9826
 2207SOL    HW1 7337   2.424   0.678   4.950  0.7873  0.3870 -0.1756
 2207SOL    HW2 7338   2.338   0.801   4.970  1.7811  0.9851  0.3996
 2208SOL     OW 7339   4.627   3.991   5.006  0.8133 -0.4863 -0.3894
 2208SOL    HW1 7340   4.621   3.987   4.911  2.0240  0.3593 -0.5062
 2208SOL    HW2 7341   4.704   4.045   5.024 -0.2444  0.5943  1.0688
 2209SOL     OW 7342   5.157   1.276   0.997 -0.2136 -0.2061 -0.4218
 2209SOL    HW1 7343   5.161   1.277   1.092  2.0455  2.8676 -0.4460
 2209SOL    HW2 7344   5.249   1.270   0.969 -0.8548 -1.2847 -2.4104
 2210SOL     OW 7345   3.248   1.927   5.847  0.2093 -0.0643 -0.4829
 2210SOL    HW1 7346   3.299   1.846   5.838  0.7104  0.3251 -1.1884
 2210SOL    HW2 7347   3.291   1.975   5.917 -0.4566 -0.6824  0.3524
 2211SOL     OW 7348   6.232   1.549   5.784 -0.0885 -0.2030  0.0188
 2211SOL    HW1 7349   6.225   1.505   5.869  1.4445  0.1581  0.3495
 2211SOL    HW2 7350   6.296   1.497   5.736 -0.3360  0.0758 -0.6160
 2212SOL     OW 7351   6.644   4.936   3.967 -0.8071 -0.3027 -0.5272
 2212SOL    HW1 7352   6.734   4.970   3.966 -0.8027 -0.2896  0.0469
 2212SOL    HW2 7353   6.631   4.900   3.880 -0.1318 -0.5978 -0.5069
 2213SOL     OW 7354   4.319   0.946   0.354  0.1749  0.1292 -0.2156
 2213SOL    HW1 7355   4.410   0.976   0.365 -0.4684  1.7439  0.8054
 2213SOL    HW2 7356   4.287   0.996   0.278  0.2019 -0.6116 -0.7180
 2214SOL     OW 7357   3.547   0.531   5.817 -0.2634  0.1660  0.1381
 2214SOL    HW1 7358   3.518   0.596   5.753 -1.2312  0.4584  0.8559
 2214SOL    HW2 7359   3.639   0.552   5.833 -0.5239  1.2454  0.2380
 2215SOL     OW 7360   4.419   0.037   0.010 -0.0328  0.0310  0.4982
 2215SOL    HW1 7361   4.399  -0.013  -0.069  0.6451  3.4862 -2.0052
 2215SOL    HW2 7362   4.337   0.081   0.032  0.3065  0.6553  0.5170
 2216SOL     OW 7363   5.980   6.224   5.641 -0.0213  0.5648  0.4182
 2216SOL    HW1 7364   5.959   6.305   5.689 -1.3953  0.8613 -0.6766
 2216SOL    HW2 7365   5.945   6.238   5.553  0.9560 -0.6809 -0.1842
 2217SOL     OW 7366   3.938   3.520   2.597  0.8329 -0.0714 -0.1458
 2217SOL    HW1 7367   3.984   3.596   2.632 -1.6085  1.9066 -1.0571
 2217SOL    HW2 7368   3.968   3.512   2.507 -0.3824  1.0841 -0.6720
 2218SOL     OW 7369   0.997   2.106   0.874  0.6257  0.0930 -0.1272
 2218SOL    HW1 7370   0.940   2.030   0.889  0.9358 -0.4630 -1.6997
 2218SOL    HW2 7371   0.936   2.178   0.857  0.3593 -0.0641  0.1386
 2219SOL     OW 7372   1.406   3.401   4.643 -0.3286  0.5127  0.5453
 2219SOL    HW1 7373   1.415   3.337   4.573  1.4635 -0.3433  1.5341
 2219SOL    HW2 7374   1.472   3.468   4.623 -0.6245  0.8705  0.7625
 2220SOL     OW 7375   2.340   0.171   3.330 -0.1570  0.2437 -0.3432
 2220SOL    HW1 7376   2.392   0.224   3.271 -0.7438 -0.2456 -1.3171
 2220SOL    HW2 7377   2.254   0.214   3.332 -0.3212 -0.0822 -0.3284
 2221SOL     OW 7378   1.287   1.571   4.380  0.1203 -0.8072  0.6728
 2221SOL    HW1 7379   1.200   1.546   4.349 -1.0187  2.1613  1.3190
 2221SOL    HW2 7380   1.315   1.639   4.319  0.4225  0.8043  2.5669
 2222SOL     OW 7381   1.943   2.999   2.702  0.7543 -0.1284 -0.1283
 2222SOL    HW1 7382   1.897   3.024   2.621  0.6408  1.6583  0.4485
 2222SOL    HW2 7383   2.035   2.992   2.677  0.9327  1.8994 -0.1329
 2223SOL     OW 7384   2.671   6.746   5.602 -0.1910  0.2259  0.7755
 2223SOL    HW1 7385   2.653   6.719   5.692 -0.0604 -0.8182  0.4928
 2223SOL    HW2 7386   2.706   6.668   5.559  1.1566  1.1046  0.2133
 2224SOL     OW 7387   6.167   2.955   1.518 -0.4991  0.2068  0.5754
 2224SOL    HW1 7388   6.113   3.031   1.538 -1.4964 -0.5904  0.9221
 2224SOL    HW2 7389   6.135   2.886   1.576  0.2567 -0.5406  0.1209
 2225SOL     OW 7390   4.465   6.253   1.717 -0.8819 -0.4975 -0.3406
 2225SOL    HW1 7391   4.392   6.291   1.765  1.3190  0.5540  2.3295
 2225SOL    HW2 7392   4.501   6.187   1.777  2.4182  1.4027 -0.0839
 2226SOL     OW 7393   3.374   5.924   6.137  0.5317 -0.1647  0.4723
 2226SOL    HW1 7394   3.370   5.916   6.233 -1.7014 -0.2082  0.4009
 2226SOL    HW2 7395   3.448   5.868   6.112  1.3635  0.1130  2.1940
 2227SOL     OW 7396   2.291   4.585   4.285  0.0560  0.2567 -0.0284
 2227SOL    HW1 7397   2.227   4.655   4.273 -0.5143 -0.0572  1.1189
 2227SOL    HW2 7398   2.359   4.624   4.341  1.1725  0.7683 -1.7008
 2228SOL     OW 7399   1.662   0.451   1.697  0.2888 -0.4144  0.0896
 2228SOL    HW1 7400   1.653   0.489   1.610 -0.8024  0.3184  0.5210
 2228SOL    HW2 7401   1.733   0.501   1.738  1.1401 -1.0911 -0.5524
 2229SOL     OW 7402   3.378   6.306   4.462  0.1721  0.2051 -0.0869
 2229SOL    HW1 7403   3.365   6.399   4.482 -0.5343 -0.0352  0.6270
 2229SOL    HW2 7404   3.411   6.269   4.544 -2.1492 -0.6844  0.4828
 2230SOL     OW 7405   2.738   2.240   6.165  0.3152 -0.1310 -0.5064
 2230SOL    HW1 7406   2.712   2.272   6.251 -0.2094  1.7636 -1.3296
 2230SOL    HW2 7407   2.697   2.154   6.158 -1.1305  0.4597  0.4246
 2231SOL     OW 7408   3.453   3.365   1.218 -0.1973  0.4637  0.0886
 2231SOL    HW1 7409   3.390   3.343   1.286  0.4030  0.0689  0.5273
 2231SOL    HW2 7410   3.470   3.458   1.231 -1.7036  0.8962 -0.8964
 2232SOL     OW 7411   5.750   5.488   1.743  0.1572  0.8787  0.4261
 2232SOL    HW1 7412   5.818   5.502   1.809  0.6090  0.7608 -0.0047
 2232SOL    HW2 7413   5.745   5.393   1.734 -0.8124  0.8453  1.2134
 2233SOL     OW 7414   3.214   6.368   1.538  0.3357 -0.8084  0.4098
 2233SOL    HW1 7415   3.229   6.318   1.458 -0.4901  1.7021 -1.3949
 2233SOL    HW2 7416   3.294   6.421   1.548 -0.2861  0.1743  0.2364
 2234SOL     OW 7417   1.852   5.417   1.427 -0.2503  0.1917  0.2551
 2234SOL    HW1 7418   1.833   5.429   1.334 -1.2016  0.6497  0.5089
 2234SOL    HW2 7419   1.858   5.322   1.438  0.2216  0.1468 -0.3411
 2235SOL     OW 7420   1.650   0.648   2.636 -0.0577 -0.1465  0.1093
 2235SOL    HW1 7421   1.674   0.587   2.706 -0.3083  0.0614  0.3798
 2235SOL    HW2 7422   1.575   0.607   2.593 -0.7135  0.3319  0.7826
 2236SOL     OW 7423   2.528   5.271   4.489  0.1770  0.0886 -0.2485
 2236SOL    HW1 7424   2.466   5.213   4.534  1.2510  0.7981  2.2640
 2236SOL    HW2 7425   2.543   5.342   4.551  2.3183  0.7263 -1.4370
 2237SOL     OW 7426   5.807   0.709   4.493  0.2236 -0.5420 -0.4477
 2237SOL    HW1 7427   5.869   0.637   4.504 -0.5493 -1.3479 -1.2078
 2237SOL    HW2 7428   5.737   0.671   4.439 -1.6561 -0.1216  1.5975
 2238SOL     OW 7429   2.175   3.431   5.239 -0.1945  0.3910 -0.1744
 2238SOL    HW1 7430   2.208   3.350   5.199 -0.9029 -0.7973  1.5784
 2238SOL    HW2 7431   2.235   3.449   5.311  0.1927  1.6645 -0.8032
 2239SOL     OW 7432   2.403   3.602   5.408  0.4849 -0.8871  0.2853
 2239SOL    HW1 7433   2.450   3.540   5.464 -0.3798 -0.2372  1.7887
 2239SOL    HW2 7434   2.459   3.680   5.408  0.3545 -0.7927  0.4770
 2240SOL     OW 7435   4.712   4.326   4.218  0.0791  0.3012  0.1659
 2240SOL    HW1 7436   4.633   4.363   4.179 -0.7945 -0.2482  1.3784
 2240SOL    HW2 7437   4.758   4.285   4.145  0.2918  2.4019 -0.9222
 2241SOL     OW 7438   0.329   4.759   6.651 -0.2692  0.0542 -0.0892
 2241SOL    HW1 7439   0.318   4.810   6.571 -0.3662  1.1840  0.6311
 2241SOL    HW2 7440   0.242   4.721   6.667 -0.7258  1.3357  0.4882
 2242SOL     OW 7441   3.282   3.797   0.323  0.4811  0.5719 -0.2124
 2242SOL    HW1 7442   3.213   3.733   0.336  1.2529 -0.3212 -0.4929
 2242SOL    HW2 7443   3.256   3.845   0.244  0.3600 -0.0064 -0.5281
 2243SOL     OW 7444   3.141   3.085   5.979  0.5956  0.2026  0.0107
 2243SOL    HW1 7445   3.098   3.004   6.007  0.8087 -0.0128 -0.2920
 2243SOL    HW2 7446   3.107   3.102   5.891  0.0197  0.8149  0.3447
 2244SOL     OW 7447   4.712   3.901   2.646 -0.0165 -0.1347 -0.1421
 2244SOL    HW1 7448   4.779   3.930   2.708 -0.2276 -0.1910  0.1147
 2244SOL    HW2 7449   4.745   3.927   2.560 -0.0796  0.6280  0.0634
 2245SOL     OW 7450   4.568   0.874   3.459 -0.5065  0.1720 -0.0840
 2245SOL    HW1 7451   4.521   0.791   3.473 -2.8005  1.1230 -1.7866
 2245SOL    HW2 7452   4.586   0.875   3.365  0.7011  1.0023  0.1566
 2246SOL     OW 7453   4.614   3.695   0.280 -0.0085  0.4439  0.2558
 2246SOL    HW1 7454   4.562   3.737   0.211  0.1322 -0.1753 -0.2346
 2246SOL    HW2 7455   4.568   3.717   0.361 -0.8330  0.2118 -0.1424
 2247SOL     OW 7456   6.452   3.500   3.866  0.0143  0.2002 -0.3887
 2247SOL    HW1 7457   6.379   3.515   3.926  0.4095 -1.1797  0.4669
 2247SOL    HW2 7458   6.505   3.433   3.909  0.9764  0.0924 -1.7025
 2248SOL     OW 7459   3.573   4.547   1.823 -0.1999 -0.1656  0.5518
 2248SOL    HW1 7460   3.628   4.606   1.874 -1.2326  0.8465  0.4886
 2248SOL    HW2 7461   3.516   4.604   1.772  0.4515 -1.1594 -1.3505
 2249SOL     OW 7462   4.662   2.579   5.150 -0.0781  0.2955  0.1967
 2249SOL    HW1 7463   4.596   2.566   5.082  0.9418 -2.9256 -0.2661
 2249SOL    HW2 7464   4.745   2.556   5.107  0.8692  0.4857  1.8983
 2250SOL     OW 7465   0.270   0.895   2.913  0.4564  0.2386 -0.5290
 2250SOL    HW1 7466   0.196   0.955   2.906 -1.7945 -2.3780  0.1640
 2250SOL    HW2 7467   0.265   0.841   2.834  0.0342 -1.6712  0.7667
 2251SOL     OW 7468   3.024   3.332   3.066  0.1870  0.6577  0.4003
 2251SOL    HW1 7469   3.022   3.252   3.118  2.1928  0.6578  0.5192
 2251SOL    HW2 7470   2.972   3.312   2.988 -0.1814 -0.4070  0.9122
 2252SOL     OW 7471   6.330   2.186   0.926 -0.3541 -0.1378  0.2885
 2252SOL    HW1 7472   6.289   2.169   1.011 -1.6670  0.8924 -0.1181
 2252SOL    HW2 7473   6.418   2.217   0.947  0.2146 -2.2534  1.1800
 2253SOL     OW 7474   4.568   1.000   2.402  0.0547  0.4201  0.1212
 2253SOL    HW1 7475   4.551   1.024   2.493  0.8898  1.4094  0.0292
 2253SOL    HW2 7476   4.639   1.059   2.374 -0.2619  0.2099 -1.1949
 2254SOL     OW 7477   4.642   3.660   4.695  0.7069 -0.2715 -0.1446
 2254SOL    HW1 7478   4.682   3.582   4.734  2.2245  0.7987  0.4694
 2254SOL    HW2 7479   4.575   3.625   4.636  0.0208 -1.9786  1.5930
 2255SOL     OW 7480   2.580   2.816   4.474  0.2167  0.3223  0.2412
 2255SOL    HW1 7481   2.536   2.901   4.470  1.0638  0.8624  1.8035
 2255SOL    HW2 7482   2.665   2.830   4.431 -0.4580 -0.2979 -1.3423
 2256SOL     OW 7483   4.132   3.649   0.398  0.4260 -0.2456 -0.6034
 2256SOL    HW1 7484   4.086   3.636   0.481 -1.7715  0.8182 -1.6138
 2256SOL    HW2 7485   4.179   3.567   0.384 -2.0438 -1.8059 -0.0389
 2257SOL     OW 7486   4.673   2.605   1.407  0.2818 -0.7167  0.0170
 2257SOL    HW1 7487   4.597   2.559   1.371  1.1684  0.1653 -3.1714
 2257SOL    HW2 7488   4.743   2.588   1.343  1.7940  1.4013  1.0764
 2258SOL     OW 7489   5.333   0.907   4.244  0.5605 -0.1825  0.1501
 2258SOL    HW1 7490   5.262   0.845   4.222 -0.0312 -0.7646  3.4335
 2258SOL    HW2 7491   5.303   0.950   4.324  2.7989  1.4396  0.1535
 2259SOL     OW 7492   5.726   1.195   2.420 -0.5480 -0.5831  0.2619
 2259SOL    HW1 7493   5.648   1.141   2.412  0.0792 -1.2600 -1.5059
 2259SOL    HW2 7494   5.790   1.139   2.464  0.2399 -1.4937 -1.9461
 2260SOL     OW 7495   3.883   6.226   4.994 -0.1457 -0.0382 -0.4286
 2260SOL    HW1 7496   3.807   6.169   4.993 -0.2862  0.1428 -0.0052
 2260SOL    HW2 7497   3.862   6.294   5.058 -0.8680  1.6840 -2.4181
 2261SOL     OW 7498   2.129   4.869   0.431  0.4477  0.5020  0.3500
 2261SOL    HW1 7499   2.158   4.951   0.391 -0.6586  0.4157 -0.6672
 2261SOL    HW2 7500   2.185   4.802   0.392  0.3998  0.6028  0.1101
 2262SOL     OW 7501   1.427   3.816   4.813  0.2240 -0.2000  0.0104
 2262SOL    HW1 7502   1.517   3.786   4.824  0.3495  0.4901  0.9371
 2262SOL    HW2 7503   1.394   3.828   4.902  0.1878  2.4095 -0.3304
 2263SOL     OW 7504   6.367   4.628   2.166  0.3212  0.3091  0.1260
 2263SOL    HW1 7505   6.275   4.624   2.140  0.3147  0.3704  0.1385
 2263SOL    HW2 7506   6.364   4.646   2.260  0.3270 -0.9995  0.3879
 2264SOL     OW 7507   3.164   6.756   0.209 -0.2639  0.0732 -0.8223
 2264SOL    HW1 7508   3.204   6.669   0.220  1.9338  1.1095 -0.2201
 2264SOL    HW2 7509   3.238   6.814   0.189 -1.4808  2.0577  0.2361
 2265SOL     OW 7510   3.924   2.752   3.582  0.2263 -0.3011 -0.1048
 2265SOL    HW1 7511   3.989   2.735   3.514 -1.3702  0.0688 -1.7361
 2265SOL    HW2 7512   3.870   2.673   3.584  0.3572 -0.3813  0.8765
 2266SOL     OW 7513   1.652   1.734   1.802  0.2214 -0.2893 -0.3478
 2266SOL    HW1 7514   1.665   1.646   1.837 -2.2839 -1.3434 -1.9710
 2266SOL    HW2 7515   1.646   1.789   1.880 -0.1786 -1.8500  0.7533
 2267SOL     OW 7516   1.064   5.232   2.829  0.0703  0.5946  0.3634
 2267SOL    HW1 7517   1.121   5.303   2.858 -0.4347  1.4011 -0.5768
 2267SOL    HW2 7518   0.976   5.261   2.855 -0.0860  0.1008  0.3822
 2268SOL     OW 7519   2.742   2.345   6.436 -0.6540 -0.2713  0.1899
 2268SOL    HW1 7520   2.737   2.259   6.478 -1.4992 -0.1229  0.4025
 2268SOL    HW2 7521   2.695   2.404   6.496 -0.2093  0.3082 -0.0261
 2269SOL     OW 7522   3.602   4.494   3.785  0.0169 -0.3392  0.1560
 2269SOL    HW1 7523   3.597   4.506   3.880 -0.3841 -1.3733  0.2683
 2269SOL    HW2 7524   3.549   4.416   3.768  0.4854 -0.4360 -0.8667
 2270SOL     OW 7525   1.553   1.531   3.692  0.6123  0.1736 -0.1173
 2270SOL    HW1 7526   1.461   1.509   3.682  0.8930 -1.4736  0.8045
 2270SOL    HW2 7527   1.585   1.545   3.602  0.2675 -2.5614 -0.6823
 2271SOL     OW 7528   4.682   5.040   4.187 -0.2293  0.3371 -0.5010
 2271SOL    HW1 7529   4.720   4.998   4.264  0.2786  0.3351 -0.7532
 2271SOL    HW2 7530   4.668   4.968   4.125 -1.0378  0.2724 -0.2533
 2272SOL     OW 7531   1.771   5.237   2.310  1.0562  0.1033  0.6430
 2272SOL    HW1 7532   1.689   5.197   2.341 -0.1266  0.0593 -2.3532
 2272SOL    HW2 7533   1.838   5.172   2.331  0.2671 -0.0940  2.6776
 2273SOL     OW 7534   0.023   4.412   0.907 -0.0428 -0.3466 -0.3009
 2273SOL    HW1 7535   0.092   4.472   0.933 -1.4206  1.0221  0.2621
 2273SOL    HW2 7536   0.007   4.432   0.815 -1.0294  0.6924  0.0902
 2274SOL     OW 7537   6.630   3.824   2.981 -0.1462 -0.2076 -0.1426
 2274SOL    HW1 7538   6.662   3.748   2.933 -0.9839  0.2886 -1.4909
 2274SOL    HW2 7539   6.681   3.897   2.946 -1.2844  0.2679 -0.8225
 2275SOL     OW 7540   2.567   0.561   6.751 -0.2156  0.4342  0.3451
 2275SOL    HW1 7541   2.651   0.606   6.754  0.1178 -0.1725  0.1046
 2275SOL    HW2 7542   2.587   0.470   6.772 -0.5980 -0.0127 -1.1519
 2276SOL     OW 7543   4.610   3.718   6.566 -0.2709  0.0018 -0.7299
 2276SOL    HW1 7544   4.518   3.742   6.575 -0.5109 -0.5278 -1.6701
 2276SOL    HW2 7545   4.657   3.800   6.578 -0.8250  0.1835  0.3084
 2277SOL     OW 7546   6.320   2.622   6.486 -0.2063  0.3896 -0.1409
 2277SOL    HW1 7547   6.378   2.548   6.505  0.9690  1.0826 -0.9905
 2277SOL    HW2 7548   6.277   2.640   6.570  1.2630  0.2574  0.6583
 2278SOL     OW 7549   4.427   4.606   6.534 -0.1928 -0.4909 -0.1262
 2278SOL    HW1 7550   4.384   4.533   6.489 -0.6750  0.2556 -0.8737
 2278SOL    HW2 7551   4.521   4.591   6.519 -0.3462 -0.2648 -1.3481
 2279SOL     OW 7552   1.233   2.452   2.848  0.7483  0.1998 -0.4671
 2279SOL    HW1 7553   1.144   2.482   2.869  0.7107  1.5995 -2.5531
 2279SOL    HW2 7554   1.277   2.529   2.814  3.0580 -0.2878  1.2873
 2280SOL     OW 7555   1.795   0.083   5.898 -0.1028  0.2105 -0.2068
 2280SOL    HW1 7556   1.738   0.018   5.856 -0.7158  0.1531  0.7067
 2280SOL    HW2 7557   1.749   0.166   5.884 -0.2565  0.2050  0.2484
 2281SOL     OW 7558   2.194   3.312   5.802 -0.6303  0.7854  0.3578
 2281SOL    HW1 7559   2.248   3.391   5.810 -0.4551  0.6846  0.1603
 2281SOL    HW2 7560   2.252   3.241   5.827 -0.3398  0.5534 -0.9346
 2282SOL     OW 7561   3.648   1.711   4.911 -0.0505  0.0517  0.6785
 2282SOL    HW1 7562   3.649   1.772   4.985 -1.5179  1.6019 -0.5412
 2282SOL    HW2 7563   3.740   1.685   4.901  0.2816  0.4362  2.5307
 2283SOL     OW 7564   4.512   2.394   1.760 -0.2733 -0.0382 -0.2821
 2283SOL    HW1 7565   4.423   2.393   1.795 -1.0171  0.3020 -2.1111
 2283SOL    HW2 7566   4.554   2.317   1.799 -1.4097 -0.2637  0.5070
 2284SOL     OW 7567   3.281   2.515   2.203 -0.2303 -0.0314 -0.1215
 2284SOL    HW1 7568   3.238   2.470   2.130 -0.6650  1.3388 -0.7350
 2284SOL    HW2 7569   3.295   2.447   2.269 -3.4746 -0.4856  0.1715
 2285SOL     OW 7570   6.441   1.748   4.183  0.0360 -0.0834 -0.0765
 2285SOL    HW1 7571   6.471   1.776   4.096  0.6919 -0.1086  0.1411
 2285SOL    HW2 7572   6.508   1.781   4.243  0.1691 -1.0274  0.3051
 2286SOL     OW 7573   3.103   5.581   3.172 -0.0043  0.5523 -0.1110
 2286SOL    HW1 7574   3.153   5.569   3.091  2.4755  0.0062  1.4335
 2286SOL    HW2 7575   3.089   5.492   3.203 -0.6797  0.7776  0.2226
 2287SOL     OW 7576   3.803   3.711   0.396 -0.5150  0.2663  0.1236
 2287SOL    HW1 7577   3.717   3.674   0.377 -0.8081  1.2333 -0.4821
 2287SOL    HW2 7578   3.784   3.799   0.431  0.2474  0.7804 -0.7216
 2288SOL     OW 7579   0.729   2.506   0.566 -0.4834 -0.0595 -0.0364
 2288SOL    HW1 7580   0.702   2.594   0.590 -1.0623 -0.0581 -0.6740
 2288SOL    HW2 7581   0.819   2.499   0.599 -1.4093 -0.2574  2.5606
 2289SOL     OW 7582   0.283   4.199   4.116 -0.2770 -0.0723  0.1687
 2289SOL    HW1 7583   0.188   4.192   4.110 -0.2817  0.3904 -0.2565
 2289SOL    HW2 7584   0.309   4.121   4.165 -0.9754  0.3646  1.2582
 2290SOL     OW 7585   1.919   2.593   4.704  0.2680 -0.1728  0.2736
 2290SOL    HW1 7586   2.005   2.578   4.744  0.8410  1.6400 -0.1974
 2290SOL    HW2 7587   1.931   2.672   4.652 -1.7761  0.2796  0.4403
 2291SOL     OW 7588   3.967   4.434   3.328 -0.1045 -0.0240  0.0225
 2291SOL    HW1 7589   3.983   4.426   3.234  0.3479  0.5605  0.0508
 2291SOL    HW2 7590   4.007   4.517   3.353  0.6285 -0.6267  0.9125
 2292SOL     OW 7591   0.633   5.376   1.498 -0.1357 -0.1366 -0.2827
 2292SOL    HW1 7592   0.678   5.336   1.572 -3.2117 -1.0706  1.1625
 2292SOL    HW2 7593   0.609   5.463   1.529 -1.3651 -0.5032 -0.1532
 2293SOL     OW 7594   5.026   0.405   6.044 -0.1870  0.6054  0.3053
 2293SOL    HW1 7595   5.091   0.464   6.081  0.6194 -1.4945  2.3629
 2293SOL    HW2 7596   5.072   0.359   5.974 -0.3808  1.3496 -0.3125
 2294SOL     OW 7597   5.688   2.654   5.715 -0.2178  0.4353  1.0344
 2294SOL    HW1 7598   5.606   2.619   5.680 -0.4644  1.0027  1.0353
 2294SOL    HW2 7599   5.745   2.577   5.724 -1.0397 -0.0872  1.8498
 2295SOL     OW 7600   2.955   4.087   5.700 -0.9413 -0.0860  0.5134
 2295SOL    HW1 7601   2.942   4.149   5.773  0.1148 -0.1282  0.7491
 2295SOL    HW2 7602   2.867   4.068   5.669 -1.2486  2.1000 -0.0229
 2296SOL     OW 7603   3.838   0.308   1.012 -0.2027 -0.6756  0.6252
 2296SOL    HW1 7604   3.926   0.320   1.048 -0.4827 -0.9260  1.4017
 2296SOL    HW2 7605   3.843   0.345   0.924  1.7092 -4.0961 -0.7927
 2297SOL     OW 7606   6.062   5.297   5.434 -0.2433 -0.3763  0.0457
 2297SOL    HW1 7607   6.059   5.314   5.528  0.1807  0.8503 -0.1504
 2297SOL    HW2 7608   6.018   5.213   5.423 -0.2601 -0.5470  1.3441
 2298SOL     OW 7609   6.112   5.909   3.960  0.4425  0.5173  1.2155
 2298SOL    HW1 7610   6.184   5.847   3.976  0.1802  0.1380  0.9487
 2298SOL    HW2 7611   6.104   5.912   3.864 -2.0323 -1.9579  1.2854
 2299SOL     OW 7612   0.023   3.409   1.155 -0.5926 -0.0539 -0.2311
 2299SOL    HW1 7613   0.023   3.499   1.124 -1.2836 -1.0021 -3.2163
 2299SOL    HW2 7614   0.087   3.407   1.227 -0.2215  2.6753 -0.4631
 2300SOL     OW 7615   1.897   0.344   1.477  0.3266 -0.3572  0.0942
 2300SOL    HW1 7616   1.813   0.391   1.478  0.7442  0.4042  0.3261
 2300SOL    HW2 7617   1.906   0.313   1.387  0.6098  1.0862 -0.3999
 2301SOL     OW 7618   0.500   4.058   6.195  0.2056 -0.6447  0.1815
 2301SOL    HW1 7619   0.426   4.099   6.150 -0.6168 -1.3055  0.9097
 2301SOL    HW2 7620   0.536   3.997   6.131  0.3239 -0.0775 -0.2917
 2302SOL     OW 7621   5.678   4.983   6.343 -0.4073 -0.5257 -0.0064
 2302SOL    HW1 7622   5.748   4.930   6.305 -0.0545 -0.7421  0.9257
 2302SOL    HW2 7623   5.601   4.926   6.340 -0.6812 -0.1187 -1.4711
 2303SOL     OW 7624   4.309   2.056   3.745 -0.2568 -0.2797 -0.0226
 2303SOL    HW1 7625   4.255   2.131   3.769 -1.0009 -1.3657  1.7917
 2303SOL    HW2 7626   4.398   2.091   3.738 -0.3002  0.4309  2.5819
 2304SOL     OW 7627   3.220   5.152   6.064  0.2828 -0.1991 -0.4797
 2304SOL    HW1 7628   3.186   5.075   6.019  1.9705  0.0282 -2.2082
 2304SOL    HW2 7629   3.306   5.167   6.024  0.1029  2.3924  0.0291
 2305SOL     OW 7630   2.621   4.695   5.710 -0.0985  0.2185  0.1686
 2305SOL    HW1 7631   2.604   4.786   5.731  3.5949  1.1032 -0.3096
 2305SOL    HW2 7632   2.595   4.646   5.788 -0.4888  1.8603  1.0833
 2306SOL     OW 7633   4.764   0.881   6.321  0.3411 -0.2267  0.2269
 2306SOL    HW1 7634   4.850   0.840   6.331 -0.0443 -1.7434 -2.1714
 2306SOL    HW2 7635   4.715   0.854   6.399  1.4173 -0.9530  0.6610
 2307SOL     OW 7636   3.779   2.615   3.030  0.3031  0.2929 -0.1743
 2307SOL    HW1 7637   3.817   2.668   3.100  1.2325  0.5523 -0.8649
 2307SOL    HW2 7638   3.726   2.677   2.979 -0.0438  0.1894  0.0615
 2308SOL     OW 7639   1.633   6.406   3.170 -0.6169  0.2483 -0.1890
 2308SOL    HW1 7640   1.601   6.409   3.260  0.2012  1.5869  0.0776
 2308SOL    HW2 7641   1.559   6.374   3.119 -1.5539  0.8623  0.7655
 2309SOL     OW 7642   2.079   6.724   0.403  0.2308  0.3140  0.3546
 2309SOL    HW1 7643   2.105   6.726   0.495  0.5693 -0.9458  0.2919
 2309SOL    HW2 7644   2.097   6.812   0.371 -0.3144  0.8977  1.6071
 2310SOL     OW 7645   3.277   1.424   6.070  0.3572  0.3885 -0.3947
 2310SOL    HW1 7646   3.203   1.369   6.097  1.2101  0.3370  1.9116
 2310SOL    HW2 7647   3.339   1.363   6.032 -0.1933  0.2494 -1.0864
 2311SOL     OW 7648   5.125   4.992   1.166 -0.5192  0.5524  0.4417
 2311SOL    HW1 7649   5.060   4.971   1.233 -0.7750  0.5436  0.1949
 2311SOL    HW2 7650   5.103   5.080   1.137 -0.5702  0.4580  0.1886
 2312SOL     OW 7651   3.733   0.788   2.765  0.2130 -0.2759  0.3887
 2312SOL    HW1 7652   3.644   0.821   2.761  0.8011  1.2255 -0.6420
 2312SOL    HW2 7653   3.724   0.696   2.791 -1.6051 -0.0820  0.4582
 2313SOL     OW 7654   1.694   4.253   1.967  0.0094 -0.1044 -0.3521
 2313SOL    HW1 7655   1.669   4.220   2.054  0.1818  1.0946  0.1671
 2313SOL    HW2 7656   1.658   4.189   1.906  0.5453 -1.3577  0.6408
 2314SOL     OW 7657   0.270   5.442   3.403  0.0532 -0.1369 -0.5106
 2314SOL    HW1 7658   0.277   5.383   3.328  1.8169  0.4138 -0.8055
 2314SOL    HW2 7659   0.177   5.465   3.408 -0.7005 -3.0833 -0.2672
 2315SOL     OW 7660   0.478   2.117   3.196 -0.2088 -0.1456  0.4007
 2315SOL    HW1 7661   0.460   2.102   3.289 -0.9172 -1.2797  0.0886
 2315SOL    HW2 7662   0.395   2.099   3.152 -0.5601  2.7503 -0.2329
 2316SOL     OW 7663   0.990   2.908   4.985 -0.1155  0.0446 -0.0194
 2316SOL    HW1 7664   0.996   2.880   5.077  0.1462  0.0742 -0.0254
 2316SOL    HW2 7665   0.903   2.947   4.977 -0.2715 -0.2679  0.1302
 2317SOL     OW 7666   4.275   5.709   6.076  0.3096  0.0349  0.3965
 2317SOL    HW1 7667   4.280   5.613   6.078  0.1207 -0.0182 -1.2953
 2317SOL    HW2 7668   4.199   5.730   6.132  0.1498 -0.8141  0.5079
 2318SOL     OW 7669   2.872   6.766   2.517  0.4214 -0.1474 -0.8626
 2318SOL    HW1 7670   2.958   6.807   2.503  0.6636  0.4104  1.8741
 2318SOL    HW2 7671   2.889   6.672   2.516  1.2136 -0.0333  0.2594
 2319SOL     OW 7672   1.102   0.559   3.238 -0.1188 -0.0474  0.0144
 2319SOL    HW1 7673   1.156   0.501   3.184 -2.4999 -0.9175 -1.5086
 2319SOL    HW2 7674   1.080   0.507   3.315 -0.5164 -0.4390 -0.3615
 2320SOL     OW 7675   1.569   3.016   1.994  0.1164  0.2339 -0.0910
 2320SOL    HW1 7676   1.654   2.982   1.964 -0.4336  0.2781 -1.7628
 2320SOL    HW2 7677   1.583   3.110   2.003  0.0651  0.3337 -1.0268
 2321SOL     OW 7678   5.963   1.700   4.022  0.3839  0.1346 -0.1212
 2321SOL    HW1 7679   5.906   1.631   4.056 -0.5059  0.5240 -0.7805
 2321SOL    HW2 7680   6.036   1.704   4.083 -0.1350 -0.6116  0.5535
 2322SOL     OW 7681   5.515   1.112   1.311 -0.0503  0.1329 -0.0260
 2322SOL    HW1 7682   5.488   1.021   1.313 -2.1147  0.7302  1.4842
 2322SOL    HW2 7683   5.557   1.127   1.396  0.7600  0.4792 -0.4720
 2323SOL     OW 7684   6.344   6.045   3.035 -0.8114 -0.1872  0.4118
 2323SOL    HW1 7685   6.263   6.040   2.984  0.5534  0.8674 -1.9424
 2323SOL    HW2 7686   6.403   5.983   2.992  0.5386  1.1183  0.3652
 2324SOL     OW 7687   6.062   1.929   3.671 -0.3311 -0.1246 -0.4876
 2324SOL    HW1 7688   6.149   1.892   3.686  0.0819  0.6592 -0.9089
 2324SOL    HW2 7689   6.060   1.949   3.578 -0.6537  0.6343 -0.3195
 2325SOL     OW 7690   2.268   0.365   6.698  0.0163  0.6191 -0.2209
 2325SOL    HW1 7691   2.263   0.459   6.719 -0.8478  0.7922 -1.1612
 2325SOL    HW2 7692   2.281   0.362   6.603 -2.3746 -0.2359 -0.5490
 2326SOL     OW 7693   5.807   2.758   6.248  0.0040 -0.3928  0.0162
 2326SOL    HW1 7694   5.749   2.810   6.192 -1.1852 -1.2266  0.4481
 2326SOL    HW2 7695   5.895   2.790   6.228 -0.4863  0.0171 -1.5909
 2327SOL     OW 7696   0.997   6.341   3.549 -0.1328  0.1655 -0.0423
 2327SOL    HW1 7697   0.937   6.308   3.481 -1.2394  0.5069  0.7523
 2327SOL    HW2 7698   0.943   6.398   3.603  1.1496  1.2372  0.1398
 2328SOL     OW 7699   3.885   3.245   4.867 -0.5214  0.2620  0.2226
 2328SOL    HW1 7700   3.817   3.209   4.809  0.7050 -3.0914  0.7204
 2328SOL    HW2 7701   3.849   3.235   4.955 -0.0348 -0.0951  0.3856
 2329SOL     OW 7702   2.184   3.767   6.025  0.1330  0.4980 -0.4950
 2329SOL    HW1 7703   2.091   3.749   6.040 -0.1273  0.7161 -1.7786
 2329SOL    HW2 7704   2.213   3.695   5.969  0.9929 -0.1066  0.6836
 2330SOL     OW 7705   5.088   6.678   4.600  0.5636 -0.2360  0.0084
 2330SOL    HW1 7706   5.093   6.769   4.629  2.8343 -0.7216  1.2735
 2330SOL    HW2 7707   5.179   6.655   4.580  0.2378 -2.7329  1.2867
 2331SOL     OW 7708   0.634   5.230   0.735 -0.9123  0.6240  0.4135
 2331SOL    HW1 7709   0.575   5.226   0.810 -0.8628  0.2414  0.4326
 2331SOL    HW2 7710   0.601   5.304   0.683 -2.1426 -0.3096 -0.1780
 2332SOL     OW 7711   5.523   0.472   2.789  0.1383 -0.0490  0.7507
 2332SOL    HW1 7712   5.456   0.448   2.853 -0.6382 -1.4972 -0.5817
 2332SOL    HW2 7713   5.484   0.450   2.705  1.7764  0.3605 -0.1226
 2333SOL     OW 7714   6.437   2.051   3.507 -0.7013 -0.4368  0.0927
 2333SOL    HW1 7715   6.375   2.011   3.447 -2.8231  0.6723  1.4587
 2333SOL    HW2 7716   6.445   2.142   3.476 -1.7921  0.1345  1.4109
 2334SOL     OW 7717   0.765   6.542   2.174 -0.2063  0.3821 -0.9174
 2334SOL    HW1 7718   0.839   6.540   2.235 -0.1164 -0.3217 -1.0542
 2334SOL    HW2 7719   0.708   6.471   2.203  1.1846 -1.8026 -3.3832
 2335SOL     OW 7720   1.003   5.066   5.842 -0.2776 -0.4471 -0.3071
 2335SOL    HW1 7721   0.936   5.089   5.907  1.7693  1.9764  1.0266
 2335SOL    HW2 7722   1.028   5.149   5.803  2.5274 -1.1936 -0.1935
 2336SOL     OW 7723   0.884   2.011   1.705  0.0965 -0.1091 -0.1856
 2336SOL    HW1 7724   0.911   2.088   1.755 -0.3354  0.0872 -0.2557
 2336SOL    HW2 7725   0.832   2.046   1.632 -0.6439 -0.5094  0.1411
 2337SOL     OW 7726   4.384   1.256   6.253  0.1132  0.1730 -0.1136
 2337SOL    HW1 7727   4.330   1.335   6.253  0.6780  0.5675  0.2605
 2337SOL    HW2 7728   4.333   1.191   6.205  0.1874  1.1440 -1.5474
 2338SOL     OW 7729   6.322   4.011   3.339  0.4187  0.2002  0.0401
 2338SOL    HW1 7730   6.339   3.976   3.426  0.1196 -0.4271 -0.1476
 2338SOL    HW2 7731   6.285   3.937   3.291  1.5635  0.2479 -0.9322
 2339SOL     OW 7732   2.393   3.198   6.096 -0.2696 -0.2625 -0.0388
 2339SOL    HW1 7733   2.376   3.280   6.142  0.2213 -0.8498  1.2056
 2339SOL    HW2 7734   2.309   3.152   6.098 -0.3289 -0.1558 -0.0173
 2340SOL     OW 7735   1.038   3.537   6.449 -0.3110  0.1851  0.5175
 2340SOL    HW1 7736   0.995   3.491   6.377 -0.3364  1.9112 -0.6100
 2340SOL    HW2 7737   1.131   3.527   6.432 -0.3100  1.7451 -0.5666
 2341SOL     OW 7738   4.778   1.201   4.206  0.0708 -0.6975 -0.4539
 2341SOL    HW1 7739   4.697   1.251   4.211 -0.1494 -0.9389 -1.4385
 2341SOL    HW2 7740   4.837   1.243   4.269  0.1645  1.3148 -1.8421
 2342SOL     OW 7741   2.730   5.481   1.541 -0.6200 -0.4651 -0.1007
 2342SOL    HW1 7742   2.717   5.393   1.577 -1.6341  0.2979  1.4441
 2342SOL    HW2 7743   2.793   5.522   1.601  1.1934 -0.6932 -1.7894
 2343SOL     OW 7744   3.412   0.582   1.477 -0.0288 -0.8150 -0.5087
 2343SOL    HW1 7745   3.329   0.547   1.508 -0.5521  1.4551  0.7585
 2343SOL    HW2 7746   3.391   0.626   1.395  0.2135 -1.5207 -0.9549
 2344SOL     OW 7747   3.033   0.365   5.882  0.1568  0.2614  0.1721
 2344SOL    HW1 7748   3.016   0.414   5.963  1.3980  2.3187 -0.7715
 2344SOL    HW2 7749   3.080   0.287   5.911 -0.4041  0.4216  1.5530
 2345SOL     OW 7750   1.319   6.175   0.225 -0.8282  0.1912 -0.8257
 2345SOL    HW1 7751   1.313   6.219   0.309 -0.6107 -1.7612  0.2534
 2345SOL    HW2 7752   1.305   6.244   0.160 -1.9736  1.5411  0.8181
 2346SOL     OW 7753   4.858   0.739   2.382 -0.5807 -0.1626  0.3975
 2346SOL    HW1 7754   4.791   0.753   2.316 -0.3262 -0.0680  0.1594
 2346SOL    HW2 7755   4.910   0.666   2.348 -0.0559  0.3066  0.1830
 2347SOL     OW 7756   1.169   0.105   4.188  0.0241 -0.1366 -0.1150
 2347SOL    HW1 7757   1.237   0.051   4.229  1.2049  0.0800 -1.7119
 2347SOL    HW2 7758   1.124   0.046   4.127 -1.0428 -0.2034  0.7256
 2348SOL     OW 7759   6.676   1.880   4.218  0.2116 -0.3540  0.1707
 2348SOL    HW1 7760   6.637   1.915   4.299  1.2106 -0.6783  0.7942
 2348SOL    HW2 7761   6.770   1.893   4.229  0.2863  0.4871 -1.3702
 2349SOL     OW 7762   0.798   4.273   3.457  0.2703  0.2573 -0.0994
 2349SOL    HW1 7763   0.754   4.190   3.439  0.3065  0.4047 -0.8899
 2349SOL    HW2 7764   0.891   4.255   3.444  0.2324  0.5558 -0.8310
 2350SOL     OW 7765   5.771   1.652   5.190  0.0639  0.3492  0.2543
 2350SOL    HW1 7766   5.682   1.679   5.210  0.3908  1.7148 -0.0578
 2350SOL    HW2 7767   5.814   1.732   5.158  1.1307 -0.4940 -0.4862
 2351SOL     OW 7768   1.909   4.657   3.704  0.1726  0.4040  0.5995
 2351SOL    HW1 7769   1.928   4.594   3.633  0.6494  0.1396  0.9558
 2351SOL    HW2 7770   1.880   4.736   3.658  2.0342  0.7857  0.0217
 2352SOL     OW 7771   3.769   1.925   1.048 -0.5109 -0.4427  0.2425
 2352SOL    HW1 7772   3.767   1.877   0.965  1.5003 -0.8254  0.3885
 2352SOL    HW2 7773   3.711   1.875   1.106 -1.6033 -0.4009 -0.7985
 2353SOL     OW 7774   4.177   0.583   3.129 -0.2829  0.0530  0.0804
 2353SOL    HW1 7775   4.187   0.490   3.148 -0.5117  0.0442  0.1637
 2353SOL    HW2 7776   4.094   0.607   3.171 -1.3917 -0.2407 -1.8813
 2354SOL     OW 7777   1.559   3.694   1.551 -0.2111 -0.1284  0.1972
 2354SOL    HW1 7778   1.628   3.648   1.504 -1.9767 -1.7440 -0.8857
 2354SOL    HW2 7779   1.582   3.787   1.543  2.3862 -0.7038  0.7879
 2355SOL     OW 7780   6.054   4.686   2.650  0.4305 -0.0553  0.1400
 2355SOL    HW1 7781   6.027   4.678   2.742 -0.4883 -2.6911 -0.3082
 2355SOL    HW2 7782   6.076   4.778   2.639  1.2074  0.1738  3.1864
 2356SOL     OW 7783   4.282   4.738   1.795 -0.0940 -0.2047  0.0312
 2356SOL    HW1 7784   4.253   4.805   1.733  0.5750 -0.9406 -1.1029
 2356SOL    HW2 7785   4.262   4.774   1.881  0.4414  1.5287 -0.5566
 2357SOL     OW 7786   5.712   2.420   2.229  0.0093  0.3698  0.3978
 2357SOL    HW1 7787   5.655   2.381   2.295 -0.1685  0.3862  0.2539
 2357SOL    HW2 7788   5.729   2.348   2.167 -2.0753  1.0807 -1.0557
 2358SOL     OW 7789   2.926   1.462   2.548  0.2333 -0.4273 -0.2866
 2358SOL    HW1 7790   2.831   1.450   2.547  0.2764 -0.7473 -0.7495
 2358SOL    HW2 7791   2.960   1.384   2.591  0.1742  0.5678  1.6468
 2359SOL     OW 7792   0.417   1.589   4.205 -0.0783  0.6580  0.5245
 2359SOL    HW1 7793   0.505   1.552   4.214 -0.1373  0.3395 -0.1539
 2359SOL    HW2 7794   0.387   1.602   4.294  0.6148  0.6603  0.7612
 2360SOL     OW 7795   1.095   3.187   4.666  0.0597 -0.6922 -0.1855
 2360SOL    HW1 7796   1.028   3.156   4.605 -0.7869 -0.9191  0.8454
 2360SOL    HW2 7797   1.114   3.276   4.638  0.6018 -1.2307 -1.5594
 2361SOL     OW 7798   5.826   2.045   0.339 -0.3098  0.0358 -0.1071
 2361SOL    HW1 7799   5.846   1.961   0.379 -0.2629 -0.1679 -0.5488
 2361SOL    HW2 7800   5.850   2.110   0.405 -1.0592 -0.3258  0.5231
 2362SOL     OW 7801   0.928   1.105   0.536 -0.2563 -0.5154 -0.1200
 2362SOL    HW1 7802   0.970   1.186   0.506  0.0819 -0.5177  0.3418
 2362SOL    HW2 7803   0.966   1.089   0.622  0.0050 -1.4084 -0.3955
 2363SOL     OW 7804   2.813   1.044   5.193  0.1095 -0.1150 -0.3359
 2363SOL    HW1 7805   2.798   1.055   5.099 -0.7621 -1.4195 -0.3634
 2363SOL    HW2 7806   2.831   1.132   5.225 -2.2522  0.7473 -1.2764
 2364SOL     OW 7807   1.654   2.379   4.577 -0.4385 -0.1516 -0.2060
 2364SOL    HW1 7808   1.744   2.366   4.549 -0.1020  0.4067  0.5897
 2364SOL    HW2 7809   1.651   2.341   4.665 -0.5650  1.2525  0.4068
 2365SOL     OW 7810   0.777   0.402   3.897  0.3389 -0.1930 -0.1344
 2365SOL    HW1 7811   0.719   0.381   3.970 -0.7441  0.1964 -0.8777
 2365SOL    HW2 7812   0.865   0.387   3.931 -0.1614 -0.0054  1.2515
 2366SOL     OW 7813   4.471   3.236   6.030 -0.0811  0.2801 -0.0359
 2366SOL    HW1 7814   4.511   3.269   5.950  0.8180 -1.7155 -0.4407
 2366SOL    HW2 7815   4.449   3.314   6.080  1.8397  1.4917 -1.0353
 2367SOL     OW 7816   0.072   4.675   2.967 -0.3092  0.2622 -0.2225
 2367SOL    HW1 7817   0.056   4.582   2.948 -1.1072 -0.2503  2.7747
 2367SOL    HW2 7818   0.038   4.721   2.890  0.1487 -1.9053 -1.7928
 2368SOL     OW 7819   6.204   4.261   3.005  0.1539 -0.1025  0.4820
 2368SOL    HW1 7820   6.159   4.184   3.039 -0.2491 -0.0168  0.1522
 2368SOL    HW2 7821   6.252   4.296   3.080  2.2875 -2.0415  0.0946
 2369SOL     OW 7822   3.139   1.759   1.135 -0.1406  0.5347 -0.0573
 2369SOL    HW1 7823   3.058   1.806   1.155 -1.2841 -0.4418 -2.2145
 2369SOL    HW2 7824   3.164   1.719   1.218 -2.3162  0.1973  0.4900
 2370SOL     OW 7825   5.881   4.926   1.183 -0.6133 -0.2443 -0.4413
 2370SOL    HW1 7826   5.901   4.848   1.235 -0.8768  0.5080  0.8069
 2370SOL    HW2 7827   5.869   4.996   1.248 -1.9829  0.4829 -1.4636
 2371SOL     OW 7828   0.464   1.896   3.822 -0.5733  0.2390 -0.8221
 2371SOL    HW1 7829   0.390   1.888   3.762 -1.6670 -0.6199  0.5904
 2371SOL    HW2 7830   0.529   1.835   3.788 -1.3193 -0.5046 -0.9494
 2372SOL     OW 7831   3.840   2.420   4.116  0.2982  0.3693  0.1831
 2372SOL    HW1 7832   3.925   2.444   4.081  0.6753  0.0194  0.8479
 2372SOL    HW2 7833   3.852   2.420   4.211 -0.2029 -0.5532  0.2528
 2373SOL     OW 7834   3.862   2.880   2.802 -0.1112 -0.1224 -0.1899
 2373SOL    HW1 7835   3.807   2.932   2.860 -1.6478 -3.7553  1.7714
 2373SOL    HW2 7836   3.815   2.797   2.793  3.8282 -2.4255 -0.4928
 2374SOL     OW 7837   4.809   1.930   1.338  0.0041  0.7796 -0.5961
 2374SOL    HW1 7838   4.852   1.852   1.371  0.1800  1.6420  1.2530
 2374SOL    HW2 7839   4.732   1.941   1.394 -0.7669  1.1808 -1.6995
 2375SOL     OW 7840   3.263   6.732   1.189  0.1407  0.3204  0.0963
 2375SOL    HW1 7841   3.237   6.809   1.138  0.0313  0.2464  0.0390
 2375SOL    HW2 7842   3.358   6.738   1.196  0.4191 -0.9038 -2.1061
 2376SOL     OW 7843   5.677   6.572   0.635  0.2197 -0.0930  0.1593
 2376SOL    HW1 7844   5.668   6.501   0.572 -0.2871  1.2715 -1.3422
 2376SOL    HW2 7845   5.763   6.609   0.617  0.0117  0.3912  0.1606
 2377SOL     OW 7846   0.716   2.282   2.295 -0.2866 -0.0941 -0.8381
 2377SOL    HW1 7847   0.770   2.357   2.321 -1.0794 -0.5072  2.1571
 2377SOL    HW2 7848   0.780   2.212   2.277  0.2597 -0.1584  1.2773
 2378SOL     OW 7849   4.325   4.766   6.034  0.8132  0.0607 -0.3379
 2378SOL    HW1 7850   4.243   4.815   6.037 -0.5233 -2.1330 -0.0886
 2378SOL    HW2 7851   4.370   4.801   5.956 -0.2714  1.3708 -0.4040
 2379SOL     OW 7852   2.662   4.105   3.128 -0.3225 -0.5065  0.0462
 2379SOL    HW1 7853   2.756   4.104   3.108 -0.3104 -1.3600  0.1172
 2379SOL    HW2 7854   2.632   4.017   3.104 -1.3956  0.2157 -1.2953
 2380SOL     OW 7855   5.756   0.940   5.581 -0.0837  0.1893  0.0123
 2380SOL    HW1 7856   5.790   0.902   5.500 -1.8547  0.5890 -0.9476
 2380SOL    HW2 7857   5.831   0.943   5.640  1.0425 -0.8494 -1.3441
 2381SOL     OW 7858   5.521   6.140   3.948 -0.0012 -0.3953 -0.1188
 2381SOL    HW1 7859   5.615   6.151   3.962 -0.5740  1.3886  2.6635
 2381SOL    HW2 7860   5.494   6.083   4.020 -0.9721 -1.3810 -1.2545
 2382SOL     OW 7861   6.326   0.880   3.243 -0.4369 -0.5177  0.0242
 2382SOL    HW1 7862   6.327   0.881   3.339 -3.0499  0.8376  0.0896
 2382SOL    HW2 7863   6.362   0.966   3.218 -2.5116  0.3446 -0.1047
 2383SOL     OW 7864   6.653   0.450   3.090  0.0203 -0.2355  0.2767
 2383SOL    HW1 7865   6.644   0.427   2.998 -0.2744  1.4232 -0.1369
 2383SOL    HW2 7866   6.625   0.542   3.095  1.2911  0.1157  1.7669
 2384SOL     OW 7867   1.631   3.725   1.205 -0.6841 -0.7341 -0.0976
 2384SOL    HW1 7868   1.642   3.656   1.271  0.6441  2.5307  3.2788
 2384SOL    HW2 7869   1.542   3.756   1.216 -0.3308  0.0980  0.4877
 2385SOL     OW 7870   3.112   1.712   6.138  0.0184  0.1003 -0.4787
 2385SOL    HW1 7871   3.147   1.625   6.120 -2.2848 -1.1968  1.0048
 2385SOL    HW2 7872   3.072   1.704   6.225 -1.6508  2.1663 -1.0105
 2386SOL     OW 7873   4.688   5.423   0.302 -0.3667  0.2357  0.0975
 2386SOL    HW1 7874   4.608   5.377   0.328  0.6550 -1.6184  0.0437
 2386SOL    HW2 7875   4.759   5.377   0.348  0.8834  0.5329 -1.4619
 2387SOL     OW 7876   5.676   0.902   5.126 -0.3914 -0.2263  0.1096
 2387SOL    HW1 7877   5.731   0.844   5.179  1.4994  1.5938  0.1853
 2387SOL    HW2 7878   5.737   0.946   5.068 -2.0863  0.0592 -1.5043
 2388SOL     OW 7879   4.074   3.640   5.515  0.0668 -0.2963  0.2435
 2388SOL    HW1 7880   4.030   3.704   5.459 -0.1055 -1.3830 -0.8709
 2388SOL    HW2 7881   4.142   3.691   5.560 -1.1049  1.0016  0.5929
 2389SOL     OW 7882   6.683   0.329   4.860  0.1153  0.4595  0.2246
 2389SOL    HW1 7883   6.740   0.252   4.863  1.4360  1.4272  0.4689
 2389SOL    HW2 7884   6.612   0.304   4.800 -0.2646 -1.4498  1.4092
 2390SOL     OW 7885   5.287   4.301   0.393  0.0378 -0.0254 -0.4871
 2390SOL    HW1 7886   5.223   4.327   0.327 -0.2359  3.5253  1.0512
 2390SOL    HW2 7887   5.365   4.353   0.373  0.0863  0.7974  1.6268
 2391SOL     OW 7888   3.913   5.232   2.569  0.0426  0.0293 -0.2270
 2391SOL    HW1 7889   3.923   5.137   2.581  0.9429 -0.1025 -1.9489
 2391SOL    HW2 7890   3.835   5.254   2.621  0.8885 -1.3348  1.7052
 2392SOL     OW 7891   1.518   0.098   6.016  0.6695 -0.1248 -0.1312
 2392SOL    HW1 7892   1.564   0.017   5.993  1.0394 -0.1250  0.6018
 2392SOL    HW2 7893   1.498   0.139   5.931 -0.1063 -1.3037 -0.5345
 2393SOL     OW 7894   5.577   4.353   5.052  0.0452  0.4043  0.4489
 2393SOL    HW1 7895   5.624   4.365   4.970 -1.6729 -1.0913 -0.8009
 2393SOL    HW2 7896   5.485   4.367   5.030 -0.5089 -0.6349  1.9517
 2394SOL     OW 7897   2.237   0.463   4.834 -0.2128  0.1400  0.2211
 2394SOL    HW1 7898   2.144   0.462   4.856 -0.0402 -1.3705  0.9285
 2394SOL    HW2 7899   2.268   0.548   4.865 -1.5975  1.1778 -1.1096
 2395SOL     OW 7900   1.083   1.244   2.935  0.3728  0.4660 -0.0361
 2395SOL    HW1 7901   1.041   1.158   2.940 -0.6305  0.9030 -0.7611
 2395SOL    HW2 7902   1.031   1.292   2.870 -0.9863  2.6872  2.5976
 2396SOL     OW 7903   4.292   0.332   1.921  0.0099  0.1463 -0.2383
 2396SOL    HW1 7904   4.244   0.407   1.885  0.8237  0.4281 -0.7545
 2396SOL    HW2 7905   4.252   0.255   1.880 -0.6016  0.3172  0.0336
 2397SOL     OW 7906   4.622   6.439   2.336 -0.7244 -0.4448  0.1527
 2397SOL    HW1 7907   4.542   6.463   2.291 -1.7022  0.2578  2.1773
 2397SOL    HW2 7908   4.595   6.368   2.395  0.5789 -1.5696 -0.5829
 2398SOL     OW 7909   0.189   6.420   5.493  0.2645 -0.2647  0.0723
 2398SOL    HW1 7910   0.283   6.403   5.491  0.3583  0.2185  0.4711
 2398SOL    HW2 7911   0.179   6.507   5.454  0.1105  0.2375  1.2049
 2399SOL     OW 7912   2.706   5.275   1.846 -0.2404 -0.4562 -0.2317
 2399SOL    HW1 7913   2.797   5.304   1.839  0.0428 -1.2798 -0.0331
 2399SOL    HW2 7914   2.687   5.238   1.759 -0.7490  0.7472 -0.6344
 2400SOL     OW 7915   6.050   0.272   0.904 -0.2067  0.5053 -0.5490
 2400SOL    HW1 7916   6.077   0.324   0.980  1.9463  0.2390 -1.1082
 2400SOL    HW2 7917   6.034   0.336   0.835  0.3969  0.5651 -0.6325
 2401SOL     OW 7918   5.130   1.697   1.713  0.4137 -0.1877  0.7178
 2401SOL    HW1 7919   5.111   1.644   1.636  1.0034  1.5014 -0.6338
 2401SOL    HW2 7920   5.098   1.645   1.787 -2.9202 -0.5492 -0.8772
 2402SOL     OW 7921   1.051   2.945   2.625 -0.1522 -0.2719 -0.1673
 2402SOL    HW1 7922   1.080   2.900   2.705  1.2013 -1.9479 -1.5526
 2402SOL    HW2 7923   1.037   3.035   2.652 -0.0864 -0.8894  2.0540
 2403SOL     OW 7924   6.725   5.858   6.085 -0.6035  0.2551 -0.5949
 2403SOL    HW1 7925   6.745   5.937   6.134  1.4011 -1.0388  0.7264
 2403SOL    HW2 7926   6.701   5.889   5.998  0.9242  2.2615 -0.3282
 2404SOL     OW 7927   5.541   3.132   4.824 -0.2415 -0.0547  0.7848
 2404SOL    HW1 7928   5.518   3.224   4.811 -2.5766 -1.0172 -2.4024
 2404SOL    HW2 7929   5.458   3.085   4.817  0.9751 -2.4845  1.9407
 2405SOL     OW 7930   6.347   2.220   5.998  0.3083  0.8556 -0.3983
 2405SOL    HW1 7931   6.273   2.263   6.040  0.4038  1.9004 -1.2562
 2405SOL    HW2 7932   6.424   2.258   6.039  0.3715 -0.2479  0.5104
 2406SOL     OW 7933   3.133   6.058   2.132 -0.0654 -0.3564  0.1144
 2406SOL    HW1 7934   3.087   6.141   2.139  0.4318 -0.2046  1.8378
 2406SOL    HW2 7935   3.084   5.998   2.188  0.1241 -0.9820 -0.3818
 2407SOL     OW 7936   3.158   0.479   1.563  0.0100  0.1195 -0.3251
 2407SOL    HW1 7937   3.082   0.439   1.605  1.4277 -1.0360  1.2275
 2407SOL    HW2 7938   3.207   0.404   1.528  0.3480  0.8638 -1.4413
 2408SOL     OW 7939   3.032   1.218   4.182 -0.1357 -0.3112  0.1280
 2408SOL    HW1 7940   2.949   1.187   4.220 -0.4124 -0.8346 -0.8888
 2408SOL    HW2 7941   3.096   1.153   4.210 -0.4627 -1.0646 -0.8405
 2409SOL     OW 7942   6.211   2.322   0.547  0.1452 -0.1732 -0.0728
 2409SOL    HW1 7943   6.207   2.393   0.611  0.8730 -0.3037  0.1174
 2409SOL    HW2 7944   6.192   2.365   0.463 -0.3463  0.0773  0.1595
 2410SOL     OW 7945   4.369   3.969   1.552  0.0153 -0.4674 -0.1234
 2410SOL    HW1 7946   4.404   3.893   1.506 -0.6958  0.4378 -2.2056
 2410SOL    HW2 7947   4.274   3.956   1.552 -0.0258 -0.2014  0.6370
 2411SOL     OW 7948   6.710   6.536   0.028 -0.3040  0.2666  0.0044
 2411SOL    HW1 7949   6.642   6.469   0.038 -1.2954  1.0758 -1.0592
 2411SOL    HW2 7950   6.762   6.507  -0.047 -0.4083  0.4073 -0.1239
 2412SOL     OW 7951   1.786   3.966   2.277  0.1793  0.1358 -0.1660
 2412SOL    HW1 7952   1.859   4.027   2.287  0.2303 -0.0742  0.8372
 2412SOL    HW2 7953   1.715   4.019   2.242  0.8667  0.2998 -1.3415
 2413SOL     OW 7954   4.449   0.247   1.018  0.1325  0.3126 -0.0658
 2413SOL    HW1 7955   4.476   0.266   1.108 -0.3577  0.7302 -0.0080
 2413SOL    HW2 7956   4.532   0.241   0.969  0.3955  0.1758  0.3900
 2414SOL     OW 7957   1.317   4.098   3.962  0.0093 -0.1045  0.1258
 2414SOL    HW1 7958   1.268   4.022   3.993 -0.7712  0.7598  1.0700
 2414SOL    HW2 7959   1.287   4.170   4.019  2.1666  0.4968  0.5342
 2415SOL     OW 7960   1.246   5.265   4.220  0.4503  0.1604  0.0019
 2415SOL    HW1 7961   1.190   5.250   4.296  0.9366  0.8081  0.5046
 2415SOL    HW2 7962   1.329   5.296   4.258  0.4631  1.1717 -0.8184
 2416SOL     OW 7963   1.814   2.772   3.204 -0.2843  0.3806  1.3535
 2416SOL    HW1 7964   1.899   2.733   3.184 -1.1804 -0.6445 -0.5785
 2416SOL    HW2 7965   1.754   2.735   3.139 -1.8370  2.4932  1.5102
 2417SOL     OW 7966   6.429   1.108   2.240  0.3479  0.1339 -0.2399
 2417SOL    HW1 7967   6.391   1.147   2.161  1.5869 -0.8070 -1.3147
 2417SOL    HW2 7968   6.424   1.178   2.305 -1.9412  0.4775 -0.7459
 2418SOL     OW 7969   4.688   1.989   4.764  0.0220 -0.8425 -0.2958
 2418SOL    HW1 7970   4.763   1.965   4.708  0.7108  0.7598 -0.0768
 2418SOL    HW2 7971   4.648   2.064   4.720 -1.1771 -1.3938 -0.1525
 2419SOL     OW 7972   5.055   3.673   0.484  0.4452 -0.3753  0.6263
 2419SOL    HW1 7973   5.001   3.659   0.406 -1.2001 -1.0087  1.8245
 2419SOL    HW2 7974   5.139   3.632   0.464  0.4038  0.3826 -1.1871
 2420SOL     OW 7975   5.057   0.389   3.090 -0.2061  0.5153 -0.0226
 2420SOL    HW1 7976   5.016   0.451   3.150  0.0185  1.2822 -0.6520
 2420SOL    HW2 7977   5.147   0.381   3.122 -0.4077  0.0216  0.4340
 2421SOL     OW 7978   6.095   0.991   4.584 -0.0723 -0.1041  0.1670
 2421SOL    HW1 7979   6.050   1.050   4.645  1.1995  0.7194  0.3306
 2421SOL    HW2 7980   6.180   1.033   4.569  0.3294 -1.2323 -0.7543
 2422SOL     OW 7981   4.572   0.124   0.220 -0.1130  0.5572 -0.2317
 2422SOL    HW1 7982   4.633   0.051   0.220  0.1076  0.7425 -0.2699
 2422SOL    HW2 7983   4.512   0.106   0.148  0.3059  0.7199 -0.6254
 2423SOL     OW 7984   1.008   0.227   4.840 -0.1308  0.6147 -0.1552
 2423SOL    HW1 7985   1.007   0.282   4.762 -0.3006  0.7480 -0.0585
 2423SOL    HW2 7986   0.988   0.288   4.912  0.9673  0.6778  0.1049
 2424SOL     OW 7987   3.136   5.394   2.311  0.0082  0.3998 -0.4513
 2424SOL    HW1 7988   3.150   5.303   2.338  0.1987  0.4374 -0.4246
 2424SOL    HW2 7989   3.220   5.437   2.327  1.0367 -0.2290 -3.6794
 2425SOL     OW 7990   0.118   3.358   0.437 -0.0491  0.2299  0.4382
 2425SOL    HW1 7991   0.052   3.325   0.498  0.3792 -0.7761  0.3746
 2425SOL    HW2 7992   0.069   3.376   0.356 -0.3008 -0.2678  0.4745
 2426SOL     OW 7993   1.345   3.299   0.151  0.1293  0.0234  0.0363
 2426SOL    HW1 7994   1.329   3.359   0.223  0.8572 -0.1928  0.3770
 2426SOL    HW2 7995   1.316   3.347   0.073  0.9475  0.9155  0.2784
 2427SOL     OW 7996   0.815   0.158   2.574  0.8358  0.0888  0.1270
 2427SOL    HW1 7997   0.790   0.067   2.588 -0.0362  0.0226 -1.8009
 2427SOL    HW2 7998   0.763   0.207   2.638  0.6154 -0.6718  0.5321
 2428SOL     OW 7999   0.088   4.422   2.133 -0.4424  0.3531 -0.1520
 2428SOL    HW1 8000   0.001   4.463   2.136 -0.4376  0.5604 -2.0404
 2428SOL    HW2 8001   0.071   4.331   2.108 -0.0008  0.8903 -2.5136
 2429SOL     OW 8002   1.198   3.130   3.228 -0.5851  0.2887  0.1907
 2429SOL    HW1 8003   1.271   3.142   3.168 -0.3525 -1.1186  0.1725
 2429SOL    HW2 8004   1.126   3.099   3.172  0.1415 -2.7342  0.8711
 2430SOL     OW 8005   6.522   3.254   0.308 -0.3313  0.4566  0.4104
 2430SOL    HW1 8006   6.464   3.270   0.383 -0.2054  3.4941 -0.0483
 2430SOL    HW2 8007   6.468   3.205   0.246 -0.9922 -0.5852  1.7779
 2431SOL     OW 8008   3.656   5.432   4.581 -0.2104 -0.5287  0.1807
 2431SOL    HW1 8009   3.619   5.448   4.668 -1.2982 -0.0648 -0.3663
 2431SOL    HW2 8010   3.595   5.372   4.539 -0.2933  0.1423 -0.6753
 2432SOL     OW 8011   0.005   3.337   0.176 -0.6193 -0.3104 -0.1425
 2432SOL    HW1 8012  -0.080   3.305   0.207 -0.9405  1.0620  0.4410
 2432SOL    HW2 8013  -0.014   3.383   0.095 -0.3028 -0.7649 -0.4749
 2433SOL     OW 8014   3.383   1.509   2.232 -0.1362  0.1358  1.0372
 2433SOL    HW1 8015   3.310   1.474   2.283 -1.2876  2.6949  1.2175
 2433SOL    HW2 8016   3.396   1.444   2.162 -3.6698  0.3539  0.0498
 2434SOL     OW 8017   4.386   3.714   1.137  0.3396 -0.3988  0.1020
 2434SOL    HW1 8018   4.429   3.633   1.110 -0.4531  0.1199 -2.8787
 2434SOL    HW2 8019   4.293   3.699   1.120  0.3217  1.6042 -1.9478
 2435SOL     OW 8020   0.569   3.925   5.721 -0.0438 -0.4426  0.2124
 2435SOL    HW1 8021   0.635   3.856   5.719  0.3990 -0.0606  1.5731
 2435SOL    HW2 8022   0.511   3.904   5.647 -0.1458 -2.5044  0.8401
 2436SOL     OW 8023   2.340   5.784   5.419  0.0219 -0.2414  0.0821
 2436SOL    HW1 8024   2.418   5.831   5.451  0.6623 -1.2248 -0.0058
 2436SOL    HW2 8025   2.274   5.852   5.409  1.0000  0.6824 -0.2287
 2437SOL     OW 8026   0.722   3.791   2.373 -0.9735 -0.4462  0.2464
 2437SOL    HW1 8027   0.680   3.856   2.429  0.1406 -0.8960  1.6197
 2437SOL    HW2 8028   0.779   3.741   2.432  1.3825  0.0442 -1.5686
 2438SOL     OW 8029   5.995   1.667   0.095 -0.4038 -0.3288  0.7152
 2438SOL    HW1 8030   5.901   1.676   0.077  0.1248  1.7351 -1.3063
 2438SOL    HW2 8031   6.017   1.745   0.146  0.0949 -1.1565  1.7802
 2439SOL     OW 8032   3.583   2.441   1.614  0.4293 -0.0822 -0.2429
 2439SOL    HW1 8033   3.625   2.419   1.697  1.5207 -2.0094 -1.2819
 2439SOL    HW2 8034   3.490   2.421   1.627  0.5364  0.0107  0.6380
 2440SOL     OW 8035   6.041   1.070   2.235  0.1789 -0.6918  0.5150
 2440SOL    HW1 8036   6.118   1.039   2.188 -0.1366 -1.6976  0.6578
 2440SOL    HW2 8037   6.066   1.069   2.327  1.3451  2.8155  0.2936
 2441SOL     OW 8038   6.386   3.970   0.104  0.2408  0.2620  0.1195
 2441SOL    HW1 8039   6.293   3.995   0.105 -0.2192 -1.3741  0.2137
 2441SOL    HW2 8040   6.385   3.877   0.123  1.9886  0.4398  1.1347
 2442SOL     OW 8041   0.896   1.336   6.139  0.0296 -0.3236  0.2151
 2442SOL    HW1 8042   0.904   1.315   6.232  0.2256 -0.6262  0.1292
 2442SOL    HW2 8043   0.952   1.413   6.128  1.6590 -1.5242 -0.0648
 2443SOL     OW 8044   4.437   2.976   1.413 -0.5733  0.3511 -0.1089
 2443SOL    HW1 8045   4.362   3.004   1.361  0.4119  0.3096 -1.5790
 2443SOL    HW2 8046   4.402   2.908   1.471 -1.7997  0.7670 -0.3480
 2444SOL     OW 8047   6.468   1.335   3.070 -0.0303  0.4329  0.4480
 2444SOL    HW1 8048   6.411   1.408   3.047 -1.4692 -0.8052  0.0700
 2444SOL    HW2 8049   6.510   1.310   2.987  0.8775  1.1445  0.6716
 2445SOL     OW 8050   5.143   2.981   1.282 -0.2292  0.2913 -0.0988
 2445SOL    HW1 8051   5.049   2.982   1.261 -0.0677  1.5170 -0.8726
 2445SOL    HW2 8052   5.156   2.901   1.332 -1.4547 -0.5438 -1.0875
 2446SOL     OW 8053   3.157   0.729   0.384  0.0427 -0.3265  0.0723
 2446SOL    HW1 8054   3.224   0.791   0.353  0.2333  0.3861  1.8649
 2446SOL    HW2 8055   3.206   0.649   0.403  0.2319 -0.1355  0.3988
 2447SOL     OW 8056   4.082   3.447   1.243  0.0417  0.1525 -0.6728
 2447SOL    HW1 8057   4.107   3.539   1.235  1.0701  0.1549  2.1143
 2447SOL    HW2 8058   4.132   3.404   1.173  0.7716  1.4742 -0.9980
 2448SOL     OW 8059   5.198   6.536   3.134  0.6142  0.0516  0.0998
 2448SOL    HW1 8060   5.137   6.542   3.061 -0.0235  0.6407  0.6749
 2448SOL    HW2 8061   5.153   6.579   3.207  1.2469 -0.5097  0.8347
 2449SOL     OW 8062   3.419   1.812   0.798  0.1812 -0.1892  0.3191
 2449SOL    HW1 8063   3.484   1.875   0.830 -0.4013 -0.2263  1.6098
 2449SOL    HW2 8064   3.341   1.865   0.780  0.4666 -0.1884 -0.9407
 2450SOL     OW 8065   0.943   5.339   4.384 -0.3278 -0.3425 -0.4084
 2450SOL    HW1 8066   0.903   5.422   4.410 -1.0709 -1.3487  1.8146
 2450SOL    HW2 8067   0.890   5.310   4.309 -1.9885 -0.2463  0.6900
 2451SOL     OW 8068   5.753   1.221   4.071  0.5921  0.1596  0.4201
 2451SOL    HW1 8069   5.698   1.220   3.993  1.1164 -0.0841  0.0485
 2451SOL    HW2 8070   5.694   1.199   4.142 -0.0545  1.1510  0.2043
 2452SOL     OW 8071   0.221   5.178   6.037  0.3384  0.1779  0.6317
 2452SOL    HW1 8072   0.184   5.092   6.019 -1.2785  0.8679  0.6050
 2452SOL    HW2 8073   0.305   5.178   5.990  0.3972 -1.3972  0.7044
 2453SOL     OW 8074   0.505   4.240   0.836 -0.0885 -0.1547 -0.2894
 2453SOL    HW1 8075   0.491   4.146   0.848 -0.3311  0.0556  1.1214
 2453SOL    HW2 8076   0.485   4.255   0.743 -1.4947 -1.2456 -0.1830
 2454SOL     OW 8077   3.070   5.892   5.716  0.2137  0.6155 -0.3291
 2454SOL    HW1 8078   3.124   5.968   5.697  1.4804 -0.4023 -0.9493
 2454SOL    HW2 8079   3.127   5.834   5.767 -0.8962  0.3078  0.5808
 2455SOL     OW 8080   0.796   5.405   1.790 -0.1161  0.9487 -0.2811
 2455SOL    HW1 8081   0.728   5.352   1.832  1.3326  0.4712  1.5537
 2455SOL    HW2 8082   0.857   5.340   1.754 -0.1723  1.3672 -1.1263
 2456SOL     OW 8083   0.238   4.813   4.406  0.1954 -1.3005 -0.2211
 2456SOL    HW1 8084   0.309   4.795   4.466  1.5048 -0.1673 -1.3960
 2456SOL    HW2 8085   0.272   4.787   4.320 -1.3268 -2.0880 -0.6163
 2457SOL     OW 8086   1.958   2.403   6.045 -0.2084  0.2945  0.3868
 2457SOL    HW1 8087   1.978   2.378   6.136  0.8049  0.0708  0.1098
 2457SOL    HW2 8088   1.908   2.484   6.053 -0.1603  0.2532  1.1463
 2458SOL     OW 8089   5.586   6.179   0.296  0.0933 -0.9282  0.5662
 2458SOL    HW1 8090   5.660   6.131   0.259 -0.7776 -0.9917 -1.1439
 2458SOL    HW2 8091   5.512   6.156   0.239 -0.4799  1.9465  0.1118
 2459SOL     OW 8092   2.057   4.021   5.264 -0.0317  0.0500 -0.3599
 2459SOL    HW1 8093   1.977   4.030   5.213 -0.3391 -1.0223 -0.0667
 2459SOL    HW2 8094   2.028   4.017   5.355  0.2253 -1.9947 -0.3495
 2460SOL     OW 8095   4.701   6.139   3.682  0.0896 -0.7834 -0.4823
 2460SOL    HW1 8096   4.643   6.117   3.755  0.8800 -1.4292 -0.0378
 2460SOL    HW2 8097   4.788   6.110   3.711  0.3200 -1.5763 -1.9157
 2461SOL     OW 8098   0.312   3.369   1.589  0.0463 -0.1746 -0.1233
 2461SOL    HW1 8099   0.371   3.389   1.662  0.7469  1.3169 -1.0672
 2461SOL    HW2 8100   0.280   3.281   1.607  2.7733 -1.1338  0.2654
 2462SOL     OW 8101   3.659   2.719   5.595  0.4868 -0.4589  0.5636
 2462SOL    HW1 8102   3.568   2.708   5.570  0.4877  0.7100 -0.0024
 2462SOL    HW2 8103   3.703   2.641   5.563 -0.0179 -0.2430 -0.6761
 2463SOL     OW 8104   2.716   3.971   6.046  0.0635  0.0820 -0.3401
 2463SOL    HW1 8105   2.692   4.040   5.985  1.0268 -0.1457 -0.9913
 2463SOL    HW2 8106   2.639   3.961   6.102 -1.0686 -0.1206 -1.8859
 2464SOL     OW 8107   4.820   5.675   3.439 -0.1029  0.2140  0.0055
 2464SOL    HW1 8108   4.748   5.641   3.491 -0.6113  2.3017  0.7187
 2464SOL    HW2 8109   4.779   5.712   3.361  0.4128 -0.5165 -0.6272
 2465SOL     OW 8110   4.849   3.432   6.476  0.6186 -0.2556  0.6230
 2465SOL    HW1 8111   4.907   3.501   6.445  2.1696 -1.7276  0.1515
 2465SOL    HW2 8112   4.809   3.468   6.555  0.0334  1.8411 -0.5973
 2466SOL     OW 8113   5.019   2.864   6.496 -0.2725 -0.6011  0.4335
 2466SOL    HW1 8114   4.952   2.897   6.436 -0.4976 -0.7100  0.6246
 2466SOL    HW2 8115   5.097   2.916   6.476 -0.1785 -1.0416 -0.3742
 2467SOL     OW 8116   0.260   6.154   2.411  0.3103 -0.2548 -0.1530
 2467SOL    HW1 8117   0.237   6.222   2.348 -0.2597  0.0570  0.3956
 2467SOL    HW2 8118   0.241   6.192   2.496  2.3433 -0.1864  0.2971
 2468SOL     OW 8119   4.962   3.410   5.407 -0.4624 -0.1594 -0.8823
 2468SOL    HW1 8120   4.936   3.434   5.496  0.0981 -0.9870 -0.4903
 2468SOL    HW2 8121   4.970   3.494   5.361 -0.4486  0.2867 -0.0714
 2469SOL     OW 8122   6.652   4.287   1.446 -0.1034  0.4406 -0.5404
 2469SOL    HW1 8123   6.583   4.221   1.437  0.5064 -0.1720 -0.7598
 2469SOL    HW2 8124   6.633   4.330   1.529 -0.6361  0.1318 -0.5002
 2470SOL     OW 8125   2.015   6.385   3.699 -0.9292 -0.3588  0.1812
 2470SOL    HW1 8126   2.041   6.338   3.778 -0.2783 -0.6765 -0.2177
 2470SOL    HW2 8127   1.953   6.327   3.656  2.6140 -2.5591 -2.1866
 2471SOL     OW 8128   0.170   6.716   4.135 -0.2170 -0.0233  0.3139
 2471SOL    HW1 8129   0.128   6.800   4.119  0.7335  0.2826 -0.6977
 2471SOL    HW2 8130   0.219   6.698   4.054 -0.1384 -1.3806  0.6408
 2472SOL     OW 8131   1.254   0.436   2.551  0.3042 -0.2994 -0.5235
 2472SOL    HW1 8132   1.237   0.462   2.642  1.1088 -2.2175  0.1867
 2472SOL    HW2 8133   1.174   0.392   2.524 -0.0231  0.4732 -0.8425
 2473SOL     OW 8134   2.254   5.217   1.272 -0.6439 -0.2708 -0.5468
 2473SOL    HW1 8135   2.283   5.126   1.281 -1.5240 -0.7943 -2.7818
 2473SOL    HW2 8136   2.160   5.214   1.292 -1.4347 -0.5073 -3.9608
 2474SOL     OW 8137   4.313   0.988   3.450  0.5320  0.0322 -0.0102
 2474SOL    HW1 8138   4.299   0.931   3.374  2.0635  0.4854 -0.6654
 2474SOL    HW2 8139   4.406   0.976   3.470  0.7266  1.8569  0.2156
 2475SOL     OW 8140   3.377   2.723   0.864  0.0798 -0.0202  0.0551
 2475SOL    HW1 8141   3.298   2.775   0.879  0.9084  0.7845  1.8173
 2475SOL    HW2 8142   3.349   2.653   0.806 -1.0183  2.5521 -2.6443
 2476SOL     OW 8143   5.804   1.688   3.387 -0.4248  0.1183 -0.5807
 2476SOL    HW1 8144   5.731   1.677   3.325 -0.5506  1.7947 -0.7345
 2476SOL    HW2 8145   5.776   1.641   3.465 -0.9925 -0.5741 -1.1826
 2477SOL     OW 8146   1.987   5.088   0.669 -0.0772 -0.3802  0.1263
 2477SOL    HW1 8147   2.049   5.149   0.628  0.6323 -0.3120  1.2701
 2477SOL    HW2 8148   2.036   5.006   0.677 -0.3278 -0.4924  0.5033
 2478SOL     OW 8149   4.773   4.534   5.942  0.1856  0.1617 -0.3139
 2478SOL    HW1 8150   4.761   4.629   5.932 -0.7874  0.0415 -0.3299
 2478SOL    HW2 8151   4.860   4.517   5.907  0.1086  0.9617 -0.9175
 2479SOL     OW 8152   2.834   2.014   3.731  0.1122  0.4628 -0.5842
 2479SOL    HW1 8153   2.824   2.031   3.637  0.6802 -1.1311 -0.9425
 2479SOL    HW2 8154   2.757   2.056   3.771 -0.9799 -0.2444 -1.9309
 2480SOL     OW 8155   4.933   5.291   3.013 -0.1340 -0.2264 -0.1800
 2480SOL    HW1 8156   4.895   5.341   2.941 -1.2159  0.6926  1.0023
 2480SOL    HW2 8157   4.865   5.292   3.081  1.3426 -0.0254  1.3241
 2481SOL     OW 8158   0.742   1.870   5.833  0.3434 -0.4123  0.1220
 2481SOL    HW1 8159   0.711   1.809   5.766 -1.8596  1.6127 -0.7688
 2481SOL    HW2 8160   0.836   1.853   5.839  0.0122 -2.8696 -1.1342
 2482SOL     OW 8161   1.316   6.261   3.269  0.3213 -0.3467  0.1582
 2482SOL    HW1 8162   1.282   6.173   3.256  0.3767 -0.5948  1.5891
 2482SOL    HW2 8163   1.401   6.249   3.310  0.4087  0.3692  0.1992
 2483SOL     OW 8164   2.843   5.620   4.318 -0.2256  0.0346  0.3400
 2483SOL    HW1 8165   2.881   5.615   4.406 -0.1508  0.9767  0.3632
 2483SOL    HW2 8166   2.897   5.560   4.265  0.2117  0.0578  0.7596
 2484SOL     OW 8167   4.039   1.570   6.515  0.0894  0.5267  0.4654
 2484SOL    HW1 8168   4.006   1.526   6.594 -0.3439  1.2950  0.7235
 2484SOL    HW2 8169   4.069   1.655   6.547 -2.5467  1.9092 -0.6173
 2485SOL     OW 8170   0.862   0.814   3.829 -0.1201 -0.7518 -0.1724
 2485SOL    HW1 8171   0.943   0.864   3.825 -0.5861  0.0668  0.5233
 2485SOL    HW2 8172   0.888   0.726   3.801  0.6753 -0.1179 -1.4664
 2486SOL     OW 8173   4.444   3.097   3.195  0.1325 -0.2185 -0.3229
 2486SOL    HW1 8174   4.499   3.082   3.118 -0.2446 -0.6268 -0.5160
 2486SOL    HW2 8175   4.481   3.174   3.237 -0.2897  0.6308 -1.4889
 2487SOL     OW 8176   6.413   3.895   5.838  0.1063 -0.2283 -0.1417
 2487SOL    HW1 8177   6.320   3.917   5.842 -0.0540 -0.9551  0.1620
 2487SOL    HW2 8178   6.432   3.855   5.923  0.8919  0.6621  0.1092
 2488SOL     OW 8179   2.565   2.579   2.575 -0.2949  0.0296  0.1032
 2488SOL    HW1 8180   2.597   2.504   2.525 -1.1420  0.4876 -1.1379
 2488SOL    HW2 8181   2.569   2.652   2.513 -3.2497  0.2077  0.0800
 2489SOL     OW 8182   1.443   1.056   2.867  0.2169 -0.7240 -0.2628
 2489SOL    HW1 8183   1.446   1.017   2.954  3.1619  1.6678  0.7580
 2489SOL    HW2 8184   1.503   1.003   2.815 -1.7707 -2.3410 -0.9850
 2490SOL     OW 8185   4.470   3.306   4.690 -0.2074  0.3001  0.0609
 2490SOL    HW1 8186   4.395   3.307   4.750  0.8093  0.4218  1.3675
 2490SOL    HW2 8187   4.480   3.398   4.664 -0.4784  0.2924 -0.0717
 2491SOL     OW 8188   0.667   0.304   1.016 -0.3316 -0.3397  0.2414
 2491SOL    HW1 8189   0.649   0.378   0.958 -1.8463  0.0071  1.1184
 2491SOL    HW2 8190   0.716   0.341   1.089 -0.5690 -0.3175  0.3887
 2492SOL     OW 8191   5.109   4.835   6.018  0.3755  0.6324  0.5591
 2492SOL    HW1 8192   5.169   4.860   5.947  0.9606  0.7728  1.0906
 2492SOL    HW2 8193   5.137   4.747   6.042 -1.3984 -0.3864 -1.0105
 2493SOL     OW 8194   4.069   0.302   6.188  0.1613  0.0527  0.3089
 2493SOL    HW1 8195   4.016   0.347   6.122 -0.0327 -2.1334 -1.0985
 2493SOL    HW2 8196   4.116   0.235   6.139  0.8457 -0.9217  2.2470
 2494SOL     OW 8197   5.491   4.905   3.871 -0.3255 -0.0996 -0.0507
 2494SOL    HW1 8198   5.423   4.850   3.833  0.4912 -0.2737 -1.2905
 2494SOL    HW2 8199   5.571   4.852   3.866  0.0942  0.4768  0.4701
 2495SOL     OW 8200   6.364   5.290   2.616 -0.6827 -0.1375 -0.0143
 2495SOL    HW1 8201   6.365   5.224   2.686 -1.4604  0.8941  1.0017
 2495SOL    HW2 8202   6.289   5.346   2.638 -1.1577 -0.0246 -1.9014
 2496SOL     OW 8203   2.639   6.142   3.895  0.0939 -0.6069 -0.3690
 2496SOL    HW1 8204   2.619   6.142   3.801 -0.4931 -1.5244 -0.2593
 2496SOL    HW2 8205   2.621   6.231   3.923  1.4035 -0.0228 -1.3563
 2497SOL     OW 8206   0.365   4.841   3.955 -0.0753  0.0088  0.0869
 2497SOL    HW1 8207   0.377   4.833   3.861 -2.7254  1.1131 -0.3707
 2497SOL    HW2 8208   0.454   4.832   3.991  0.9461 -0.5943 -2.4591
 2498SOL     OW 8209   0.115   2.964   5.758  1.0096  0.8499 -0.3178
 2498SOL    HW1 8210   0.197   2.920   5.780 -0.1385 -1.5036 -0.6418
 2498SOL    HW2 8211   0.138   3.021   5.684  1.9966 -1.1624 -1.6150
 2499SOL     OW 8212   1.836   3.289   6.698  0.1745  0.4569  0.0106
 2499SOL    HW1 8213   1.772   3.349   6.736 -0.2590  0.6197 -0.9457
 2499SOL    HW2 8214   1.802   3.271   6.610  0.6406 -0.6791  0.0603
 2500SOL     OW 8215   6.005   6.031   1.162 -0.5131 -0.4140 -0.2473
 2500SOL    HW1 8216   6.039   6.052   1.249 -0.8086  0.9087 -0.4326
 2500SOL    HW2 8217   5.991   6.117   1.121  1.8812 -1.0541 -2.4953
 2501SOL     OW 8218   3.599   0.005   4.705  0.5855  0.7812  0.4113
 2501SOL    HW1 8219   3.660   0.071   4.674  0.0632  1.5754  1.0634
 2501SOL    HW2 8220   3.575   0.033   4.794 -0.8736  0.5812  0.0990
 2502SOL     OW 8221   3.929   6.123   3.751  0.8156  0.1314  0.2346
 2502SOL    HW1 8222   3.994   6.174   3.703  1.3885 -2.4632 -1.8614
 2502SOL    HW2 8223   3.981   6.061   3.803  0.0796 -0.0655  0.7476
 2503SOL     OW 8224   6.535   0.700   2.313 -0.3500 -0.2187  0.3355
 2503SOL    HW1 8225   6.507   0.609   2.316  0.7294 -0.5581  0.1516
 2503SOL    HW2 8226   6.548   0.719   2.220 -0.2672  0.0297  0.3969
 2504SOL     OW 8227   5.245   2.738   4.514  0.2325 -0.3754 -0.4298
 2504SOL    HW1 8228   5.302   2.720   4.589 -1.8497 -0.5871  1.1323
 2504SOL    HW2 8229   5.191   2.659   4.505 -0.8074  0.3871 -0.9711
 2505SOL     OW 8230   0.591   0.451   5.698  0.0361  0.4349 -0.6024
 2505SOL    HW1 8231   0.544   0.494   5.769  0.4942 -2.0380  1.2890
 2505SOL    HW2 8232   0.670   0.504   5.686 -0.2916  1.1674  0.3928
 2506SOL     OW 8233   5.966   2.630   3.575  0.1562 -0.1551  0.0141
 2506SOL    HW1 8234   5.920   2.564   3.522  2.1342 -1.5220 -0.0333
 2506SOL    HW2 8235   5.970   2.591   3.662 -0.5700  0.8629  0.5115
 2507SOL     OW 8236   0.187   0.087   4.919 -0.1466  1.1497  0.2622
 2507SOL    HW1 8237   0.152   0.099   4.830 -0.1115  0.9697  0.2236
 2507SOL    HW2 8238   0.233   0.169   4.938  1.5952  0.4155 -0.6748
 2508SOL     OW 8239   1.302   0.573   2.955  0.2947  0.0513 -0.2995
 2508SOL    HW1 8240   1.281   0.484   2.927  2.0062 -0.2149 -0.8220
 2508SOL    HW2 8241   1.257   0.629   2.892 -0.0201 -0.4619 -0.5320
 2509SOL     OW 8242   4.893   5.718   1.662 -0.0257  0.5304 -0.0592
 2509SOL    HW1 8243   4.920   5.658   1.592 -1.3979  2.1444 -2.0503
 2509SOL    HW2 8244   4.966   5.780   1.669  0.7488 -0.4849  0.9740
 2510SOL     OW 8245   5.112   1.904   2.886  0.2756 -0.3527  0.2172
 2510SOL    HW1 8246   5.196   1.930   2.925  0.4564 -2.1147  1.0232
 2510SOL    HW2 8247   5.127   1.907   2.792  1.3557 -1.0131  0.3636
 2511SOL     OW 8248   5.695   3.707   4.793 -0.0219  0.1569  0.5408
 2511SOL    HW1 8249   5.755   3.718   4.719  1.7594  0.1664  1.9805
 2511SOL    HW2 8250   5.624   3.769   4.775  0.3645  0.1323 -1.1776
 2512SOL     OW 8251   5.726   5.468   0.191 -0.1352 -0.0478 -0.0072
 2512SOL    HW1 8252   5.751   5.559   0.207  2.9718 -1.2922  2.5348
 2512SOL    HW2 8253   5.665   5.447   0.262  0.3552 -0.4295  0.2992
 2513SOL     OW 8254   5.006   0.139   5.573  0.1706  0.3707  0.4953
 2513SOL    HW1 8255   4.976   0.230   5.566  0.9077  0.8200  2.8303
 2513SOL    HW2 8256   4.964   0.106   5.652 -0.2576 -1.4143 -0.4417
 2514SOL     OW 8257   6.015   4.594   6.290 -0.0669  0.0644  0.5124
 2514SOL    HW1 8258   5.933   4.562   6.252  0.0631 -0.7770  0.9228
 2514SOL    HW2 8259   6.074   4.519   6.284  0.3581  0.3470  1.1466
 2515SOL     OW 8260   2.470   3.276   2.760  0.3319  0.1085 -0.1209
 2515SOL    HW1 8261   2.444   3.256   2.670  1.1875  2.1388 -0.8553
 2515SOL    HW2 8262   2.565   3.286   2.756  0.2381  1.4675  0.7443
 2516SOL     OW 8263   3.430   1.367   0.420  0.1918  0.0405 -0.6007
 2516SOL    HW1 8264   3.360   1.302   0.433 -0.7507  1.3134  0.8625
 2516SOL    HW2 8265   3.413   1.404   0.333 -1.0101  0.4033 -0.2187
 2517SOL     OW 8266   1.709   4.011   2.986  0.2898  0.4037  0.3315
 2517SOL    HW1 8267   1.643   3.942   2.982  0.5705  0.1005  0.9117
 2517SOL    HW2 8268   1.724   4.025   3.080  1.1945  0.3344  0.2001
 2518SOL     OW 8269   2.770   5.077   0.547  0.2083 -0.0131 -0.3011
 2518SOL    HW1 8270   2.683   5.117   0.549 -0.5358 -1.6005 -0.2140
 2518SOL    HW2 8271   2.830   5.150   0.558 -1.0527  1.2873 -1.8824
 2519SOL     OW 8272   5.923   5.410   4.865  0.5289  0.0986 -0.3556
 2519SOL    HW1 8273   5.908   5.497   4.901 -0.6499 -0.1141 -0.2891
 2519SOL    HW2 8274   5.919   5.352   4.941  2.7701  0.1288 -0.2017
 2520SOL     OW 8275   2.067   6.027   4.293  0.4471  1.1274 -0.2970
 2520SOL    HW1 8276   1.997   6.043   4.357 -0.3889  0.9270 -1.1425
 2520SOL    HW2 8277   2.139   5.990   4.344  0.0056  1.5303  0.6195
 2521SOL     OW 8278   0.564   1.404   6.382 -0.1468 -0.4759 -0.6073
 2521SOL    HW1 8279   0.648   1.427   6.422  0.9100 -0.4468 -2.7700
 2521SOL    HW2 8280   0.523   1.345   6.445  0.5739  1.1154  1.4108
 2522SOL     OW 8281   5.371   0.102   1.417 -0.0963 -0.3682 -0.2126
 2522SOL    HW1 8282   5.355   0.147   1.500 -0.9245  0.9555 -1.0780
 2522SOL    HW2 8283   5.421   0.024   1.441  1.8578  1.2942  1.2660
 2523SOL     OW 8284   4.550   3.330   2.882 -0.2837 -0.3662  0.0804
 2523SOL    HW1 8285   4.613   3.281   2.830  1.8424 -0.9251  3.1016
 2523SOL    HW2 8286   4.531   3.274   2.957  0.9297  2.6202  2.7599
 2524SOL     OW 8287   2.382   4.182   4.313  0.8213 -0.7586  0.1474
 2524SOL    HW1 8288   2.472   4.194   4.281  1.6151 -1.9450  1.8466
 2524SOL    HW2 8289   2.358   4.094   4.284  0.0333 -0.2663 -0.6941
 2525SOL     OW 8290   4.845   1.345   4.674  0.0742 -0.0084 -0.1309
 2525SOL    HW1 8291   4.802   1.389   4.747 -2.0032 -1.3380 -0.5056
 2525SOL    HW2 8292   4.798   1.376   4.596  1.1283  0.0589 -0.7569
 2526SOL     OW 8293   0.485   0.170   0.877 -0.4870 -0.1941 -0.0752
 2526SOL    HW1 8294   0.529   0.092   0.845 -1.0605 -1.5561  2.3675
 2526SOL    HW2 8295   0.549   0.212   0.934 -1.8342 -1.5016  2.4677
 2527SOL     OW 8296   2.872   6.424   5.052 -0.1063  0.1126  1.2693
 2527SOL    HW1 8297   2.838   6.490   5.113  0.3294  0.8463  0.7202
 2527SOL    HW2 8298   2.794   6.375   5.026 -0.6562  1.2913  0.6247
 2528SOL     OW 8299   6.125   2.962   6.516 -0.2765  0.0097  0.2016
 2528SOL    HW1 8300   6.056   2.917   6.564  1.5168 -0.7538  2.1534
 2528SOL    HW2 8301   6.148   3.037   6.572  0.6824  0.0735 -0.2681
 2529SOL     OW 8302   3.745   3.632   4.722 -0.5121  1.0703  0.5151
 2529SOL    HW1 8303   3.796   3.565   4.767  0.0958  1.7575  0.8520
 2529SOL    HW2 8304   3.787   3.715   4.746 -0.8687  1.5275 -0.4144
 2530SOL     OW 8305   1.558   1.579   1.224  0.1575  0.9369  0.6827
 2530SOL    HW1 8306   1.533   1.496   1.265 -0.0311  1.7529  2.2694
 2530SOL    HW2 8307   1.484   1.637   1.240 -0.7609  0.7352 -2.5534
 2531SOL     OW 8308   6.519   3.540   4.933 -0.1649 -0.2963 -0.3357
 2531SOL    HW1 8309   6.469   3.478   4.880  0.1790 -0.0623 -0.9397
 2531SOL    HW2 8310   6.460   3.563   5.005  0.0257 -2.0367  0.4195
 2532SOL     OW 8311   3.816   3.778   6.685 -0.0607  0.3065  0.4026
 2532SOL    HW1 8312   3.867   3.807   6.761  0.2525 -0.1772  0.3784
 2532SOL    HW2 8313   3.725   3.800   6.707  0.0921  0.6676  0.6804
 2533SOL     OW 8314   3.458   4.341   5.755 -0.2528  0.2651  0.1787
 2533SOL    HW1 8315   3.404   4.318   5.831 -0.7144  3.0424  0.7599
 2533SOL    HW2 8316   3.441   4.272   5.692 -3.7475  0.4815  0.7375
 2534SOL     OW 8317   5.221   4.499   3.999  0.3909 -0.3212  0.2276
 2534SOL    HW1 8318   5.131   4.473   4.021 -0.3993  1.1446 -1.1227
 2534SOL    HW2 8319   5.266   4.505   4.083 -0.8958 -0.6781  0.9577
 2535SOL     OW 8320   5.227   0.107   1.200  0.2973  0.1746 -0.1535
 2535SOL    HW1 8321   5.256   0.025   1.160  0.9212  1.6485 -2.8659
 2535SOL    HW2 8322   5.286   0.121   1.273  2.8821  0.2733 -2.1839
 2536SOL     OW 8323   0.254   1.765   0.415 -0.1808  0.8708 -0.4596
 2536SOL    HW1 8324   0.337   1.795   0.378 -0.3287 -0.1754 -1.6924
 2536SOL    HW2 8325   0.188   1.796   0.353 -0.6272  0.9227  0.0406
 2537SOL     OW 8326   3.759   3.270   3.177 -0.0440 -0.0598 -0.3211
 2537SOL    HW1 8327   3.714   3.230   3.103  0.3888  0.1339 -0.6934
 2537SOL    HW2 8328   3.718   3.356   3.186 -1.3044 -0.7538  0.7823
 2538SOL     OW 8329   5.546   3.809   3.651  0.6377 -0.1982  0.0563
 2538SOL    HW1 8330   5.475   3.764   3.695  0.5816 -0.0262  0.1455
 2538SOL    HW2 8331   5.574   3.876   3.714 -0.9926  1.6014 -1.0670
 2539SOL     OW 8332   1.816   4.708   0.228  0.5163 -0.0266 -0.0933
 2539SOL    HW1 8333   1.892   4.653   0.208  0.8658  0.5001 -0.2377
 2539SOL    HW2 8334   1.840   4.753   0.309  0.9226  1.1483 -0.8482
 2540SOL     OW 8335   5.044   2.074   2.635 -0.3352 -0.2033 -0.0483
 2540SOL    HW1 8336   4.973   2.027   2.681 -1.6683  1.0106 -0.8124
 2540SOL    HW2 8337   5.010   2.088   2.547 -0.3712  2.9979  0.4217
 2541SOL     OW 8338   5.347   1.205   4.140 -0.6110 -0.6975  0.1538
 2541SOL    HW1 8339   5.364   1.287   4.188  0.2445 -0.1539 -1.0550
 2541SOL    HW2 8340   5.413   1.144   4.173  0.1079 -0.2628 -0.4580
 2542SOL     OW 8341   5.999   5.862   0.121  0.3060  0.1736 -0.0270
 2542SOL    HW1 8342   6.063   5.932   0.105  0.1052 -0.0601 -2.1017
 2542SOL    HW2 8343   6.052   5.782   0.118 -0.0886 -0.0355 -1.9729
 2543SOL     OW 8344   2.609   6.359   6.145  0.0146  0.2943 -0.2602
 2543SOL    HW1 8345   2.589   6.428   6.208 -1.8765  0.5993 -1.1586
 2543SOL    HW2 8346   2.697   6.329   6.169 -0.0242  1.5138  1.4880
 2544SOL     OW 8347   6.415   0.304   3.185  0.2492 -0.5453 -0.0888
 2544SOL    HW1 8348   6.487   0.366   3.181  0.6786 -1.1960 -3.5246
 2544SOL    HW2 8349   6.450   0.229   3.234  1.4470 -0.2687 -0.5252
 2545SOL     OW 8350   1.856   5.156   3.510 -0.4390 -0.2164 -0.0514
 2545SOL    HW1 8351   1.946   5.172   3.538 -0.0670 -0.9890 -0.7458
 2545SOL    HW2 8352   1.831   5.234   3.461  0.1181 -0.3031 -0.4739
 2546SOL     OW 8353   0.908   5.024   3.908  0.0008 -0.0535 -0.0389
 2546SOL    HW1 8354   0.912   4.944   3.960  3.4703  1.2295  1.8279
 2546SOL    HW2 8355   0.819   5.056   3.919 -0.2803 -1.5621  2.4254
 2547SOL     OW 8356   3.147   5.933   5.420 -0.1981  0.1456  0.1356
 2547SOL    HW1 8357   3.221   5.893   5.466 -0.5709 -0.6959  0.0038
 2547SOL    HW2 8358   3.070   5.895   5.460 -0.5220 -1.4399 -1.8814
 2548SOL     OW 8359   2.094   1.069   0.025  0.9291  0.5881  0.0374
 2548SOL    HW1 8360   2.011   1.073  -0.022  0.0245  0.1050  1.5388
 2548SOL    HW2 8361   2.113   0.976   0.034  1.9754  0.7040 -0.8651
 2549SOL     OW 8362   0.364   1.379   2.406 -0.2984  0.6448  0.0591
 2549SOL    HW1 8363   0.337   1.379   2.498  0.0953  1.3961  0.1741
 2549SOL    HW2 8364   0.357   1.471   2.379 -0.0905  0.4771 -0.5722
 2550SOL     OW 8365   5.671   0.274   1.974 -0.0224  0.5432 -0.2161
 2550SOL    HW1 8366   5.647   0.182   1.963 -0.0726  0.5294  0.0002
 2550SOL    HW2 8367   5.603   0.310   2.030 -0.4096  0.8970 -0.9038
 2551SOL     OW 8368   5.257   0.805   5.864  0.2406  0.0540  0.4044
 2551SOL    HW1 8369   5.186   0.827   5.925  0.0121  0.8586 -0.1459
 2551SOL    HW2 8370   5.323   0.872   5.880  0.2546  0.1589 -0.1077
 2552SOL     OW 8371   1.002   0.689   1.921 -0.1782 -0.1649 -0.5935
 2552SOL    HW1 8372   1.080   0.635   1.915 -0.1784 -0.1766 -0.4992
 2552SOL    HW2 8373   0.932   0.636   1.883 -0.4029 -0.6791  0.5273
 2553SOL     OW 8374   3.942   0.753   3.122 -0.3419  0.2005 -0.0147
 2553SOL    HW1 8375   3.916   0.840   3.153 -2.2166 -0.5176  0.5205
 2553SOL    HW2 8376   3.863   0.700   3.132  0.6548 -1.4567 -0.7582
 2554SOL     OW 8377   0.476   1.908   4.895 -0.3201  0.2745 -0.3640
 2554SOL    HW1 8378   0.552   1.902   4.954 -0.5919 -1.5403 -0.1504
 2554SOL    HW2 8379   0.493   1.985   4.842  1.7414 -0.1504 -0.3754
 2555SOL     OW 8380   0.703   4.262   6.474 -0.3270  0.0910 -0.1303
 2555SOL    HW1 8381   0.676   4.181   6.517 -0.0482 -0.1297 -0.3728
 2555SOL    HW2 8382   0.632   4.282   6.413  0.8033 -1.3603 -1.9439
 2556SOL     OW 8383   4.843   1.784   4.432 -0.6460 -0.1212  0.0982
 2556SOL    HW1 8384   4.902   1.855   4.409 -1.4187  0.5239  0.0613
 2556SOL    HW2 8385   4.760   1.806   4.389 -1.7149  0.4009  2.3209
 2557SOL     OW 8386   6.303   2.291   5.343  0.3354 -0.3364 -0.2635
 2557SOL    HW1 8387   6.262   2.378   5.344  0.2357 -0.3812 -0.4613
 2557SOL    HW2 8388   6.320   2.274   5.250 -0.0968 -0.7438 -0.2703
 2558SOL     OW 8389   3.532   3.637   1.220  0.1465 -0.1859  0.1486
 2558SOL    HW1 8390   3.600   3.660   1.283 -0.4351  0.9315  0.3879
 2558SOL    HW2 8391   3.461   3.698   1.239 -0.3393 -0.3599 -1.0822
 2559SOL     OW 8392   1.071   4.855   1.524  0.2585 -0.4405  0.2422
 2559SOL    HW1 8393   1.102   4.933   1.478 -1.2708  0.3717  0.5524
 2559SOL    HW2 8394   1.077   4.785   1.459  0.8225  0.1073 -0.3060
 2560SOL     OW 8395   3.736   1.756   6.518 -0.5275 -0.1376 -0.3939
 2560SOL    HW1 8396   3.752   1.849   6.504 -1.2050 -0.0882 -0.8859
 2560SOL    HW2 8397   3.783   1.713   6.447  0.8292 -0.2522  0.5677
 2561SOL     OW 8398   5.690   6.245   3.248  0.2864 -0.2900 -0.4982
 2561SOL    HW1 8399   5.646   6.319   3.205 -1.5269 -0.3399  1.1667
 2561SOL    HW2 8400   5.744   6.285   3.316  1.8074 -0.3156 -1.6772
 2562SOL     OW 8401   5.648   0.747   0.308 -0.2268  0.6148 -0.4319
 2562SOL    HW1 8402   5.616   0.822   0.258  1.2645  0.6682 -1.3397
 2562SOL    HW2 8403   5.606   0.671   0.269  0.5965  0.7001 -1.4966
 2563SOL     OW 8404   5.539   0.041   1.939 -0.3561  0.0302 -0.5566
 2563SOL    HW1 8405   5.513  -0.036   1.888  1.4103 -1.1848  0.3161
 2563SOL    HW2 8406   5.460   0.065   1.988 -1.0207 -1.0279 -1.0842
 2564SOL     OW 8407   3.873   6.089   6.597  0.3807  0.0162  0.0405
 2564SOL    HW1 8408   3.842   6.151   6.532  1.1707 -1.3460 -1.6589
 2564SOL    HW2 8409   3.941   6.137   6.645  1.7537  0.1338 -1.9747
 2565SOL     OW 8410   1.293   3.463   4.878  0.2437 -0.0161 -0.4402
 2565SOL    HW1 8411   1.359   3.407   4.920 -0.5763 -0.5458  0.1615
 2565SOL    HW2 8412   1.324   3.473   4.788  1.5372  0.3576  0.0317
 2566SOL     OW 8413   0.737   0.301   3.297  0.1123 -0.3563  0.1961
 2566SOL    HW1 8414   0.824   0.261   3.297  0.0635 -0.5119 -1.8445
 2566SOL    HW2 8415   0.709   0.299   3.206 -0.9511  2.0718  0.4171
 2567SOL     OW 8416   5.691   5.571   3.883 -0.3151 -0.0996  0.7133
 2567SOL    HW1 8417   5.636   5.511   3.831 -0.5673  0.7400  0.0015
 2567SOL    HW2 8418   5.629   5.622   3.935 -0.2325  0.9152 -0.1597
 2568SOL     OW 8419   5.871   3.266   1.262  0.3738  0.5246 -0.4482
 2568SOL    HW1 8420   5.910   3.335   1.209  0.9695  0.1263 -0.5247
 2568SOL    HW2 8421   5.789   3.244   1.216 -0.8071  2.5406  0.6279
 2569SOL     OW 8422   2.481   6.064   5.424 -1.0884 -0.0027 -0.5501
 2569SOL    HW1 8423   2.484   6.062   5.328 -0.3313 -1.2531 -0.5039
 2569SOL    HW2 8424   2.557   6.013   5.451 -1.0928  0.6544  0.7226
 2570SOL     OW 8425   4.487   2.494   2.202  0.2006  0.7263 -0.1457
 2570SOL    HW1 8426   4.568   2.528   2.239 -0.5033  2.3277 -0.0619
 2570SOL    HW2 8427   4.418   2.536   2.253 -0.7074  0.1964 -0.9352
 2571SOL     OW 8428   2.026   3.420   3.348  0.5255  0.1905  0.4013
 2571SOL    HW1 8429   1.970   3.416   3.425  1.0274  0.9153  0.8053
 2571SOL    HW2 8430   2.071   3.504   3.354  1.2872 -0.1590 -0.1813
 2572SOL     OW 8431   0.177   4.230   1.480 -0.0120 -0.9072 -0.4215
 2572SOL    HW1 8432   0.082   4.234   1.477  0.0549  3.5168  0.4988
 2572SOL    HW2 8433   0.204   4.225   1.389 -1.0770  0.6796 -0.8357
 2573SOL     OW 8434   6.585   1.708   6.236 -0.4500  0.0417 -0.9057
 2573SOL    HW1 8435   6.644   1.774   6.273 -0.6871 -0.9015  1.2231
 2573SOL    HW2 8436   6.509   1.709   6.294 -1.6915 -0.1293 -2.5002
 2574SOL     OW 8437   5.791   5.234   1.711 -0.1814 -0.0492  0.1115
 2574SOL    HW1 8438   5.773   5.161   1.771 -0.6607 -1.8674 -2.1590
 2574SOL    HW2 8439   5.885   5.228   1.694  0.2808  1.5279  1.9779
 2575SOL     OW 8440   5.673   4.278   1.203 -0.7792  0.0208  0.2583
 2575SOL    HW1 8441   5.637   4.365   1.187 -0.8116  0.2102  1.3716
 2575SOL    HW2 8442   5.761   4.281   1.167 -0.2101  1.0057  1.7161
 2576SOL     OW 8443   4.299   0.738   3.839 -0.0195  0.4210 -0.3023
 2576SOL    HW1 8444   4.363   0.680   3.798  0.1066  0.6365 -0.4114
 2576SOL    HW2 8445   4.214   0.700   3.817  0.0901 -0.2719  0.4459
 2577SOL     OW 8446   0.057   6.077   1.032 -0.3790  0.0574 -0.0884
 2577SOL    HW1 8447  -0.008   6.148   1.030  0.8579  1.2215  0.1835
 2577SOL    HW2 8448   0.040   6.026   0.953 -1.7901  0.2021  0.1131
 2578SOL     OW 8449   4.514   2.162   2.097  0.2476 -0.0261  0.2320
 2578SOL    HW1 8450   4.578   2.141   2.028 -2.8495  1.4572 -3.2493
 2578SOL    HW2 8451   4.554   2.234   2.146  1.8741 -0.1252 -0.9126
 2579SOL     OW 8452   3.332   3.770   3.305  0.5919  0.0442 -0.2015
 2579SOL    HW1 8453   3.323   3.709   3.232 -0.8433 -0.7515  0.6080
 2579SOL    HW2 8454   3.276   3.844   3.280 -0.0205 -0.2959  0.1527
 2580SOL     OW 8455   1.433   4.710   6.261 -0.7941 -0.2655 -0.0131
 2580SOL    HW1 8456   1.502   4.650   6.287  1.6828  3.5661  2.8995
 2580SOL    HW2 8457   1.368   4.703   6.331 -1.0345 -0.3692 -0.2475
 2581SOL     OW 8458   3.611   1.063   1.674 -0.6757  0.2581  0.2755
 2581SOL    HW1 8459   3.581   0.986   1.624 -0.7026 -1.1560  2.4161
 2581SOL    HW2 8460   3.674   1.106   1.616 -2.1483 -0.2512 -1.7626
 2582SOL     OW 8461   5.152   6.208   2.192  0.2539  0.0748  0.0472
 2582SOL    HW1 8462   5.176   6.301   2.187 -1.1434  0.4033 -0.7807
 2582SOL    HW2 8463   5.064   6.204   2.155  1.2873 -1.9593 -2.4070
 2583SOL     OW 8464   5.042   3.840   0.115  0.2387 -0.0452 -0.0304
 2583SOL    HW1 8465   4.958   3.885   0.125 -0.7544 -1.6386 -1.0748
 2583SOL    HW2 8466   5.032   3.759   0.165  0.8967 -0.5839 -0.7588
 2584SOL     OW 8467   6.554   3.234   0.701 -0.1680 -0.1416  0.5211
 2584SOL    HW1 8468   6.545   3.231   0.796  0.7668 -2.0094  0.5758
 2584SOL    HW2 8469   6.648   3.235   0.685 -0.2851 -1.5226 -0.3972
 2585SOL     OW 8470   3.866   1.533   0.659 -0.1606  0.0390 -0.2363
 2585SOL    HW1 8471   3.900   1.514   0.572 -0.5997  1.5423 -0.7614
 2585SOL    HW2 8472   3.770   1.529   0.649 -0.2190  0.5359  0.0836
 2586SOL     OW 8473   1.306   5.947   1.734  0.2339  0.0857 -0.0887
 2586SOL    HW1 8474   1.307   5.876   1.798 -1.8641 -0.9574 -1.1661
 2586SOL    HW2 8475   1.322   5.905   1.650 -3.1607  0.4806 -1.0242
 2587SOL     OW 8476   3.935   4.956   2.596 -0.5804 -0.0144 -0.1562
 2587SOL    HW1 8477   3.890   4.934   2.677 -0.2008 -0.7652 -0.1466
 2587SOL    HW2 8478   4.017   4.907   2.600  0.1756  1.2323 -0.2447
 2588SOL     OW 8479   0.146   4.901   1.464  0.5778 -0.4116 -0.7387
 2588SOL    HW1 8480   0.184   4.933   1.547  1.5761 -1.3369 -0.8244
 2588SOL    HW2 8481   0.084   4.969   1.439  0.5137  0.0535  0.5989
 2589SOL     OW 8482   2.011   2.509   2.822 -0.0324 -0.0774 -0.2640
 2589SOL    HW1 8483   2.069   2.518   2.747  0.8213  0.6797  0.4721
 2589SOL    HW2 8484   1.942   2.573   2.808 -0.7004 -0.9724 -1.1362
 2590SOL     OW 8485   5.630   5.830   4.881  0.5062 -0.0804  0.1063
 2590SOL    HW1 8486   5.612   5.780   4.961  0.6243  1.5281  1.1559
 2590SOL    HW2 8487   5.713   5.795   4.849  0.8326 -0.2050  1.0936
 2591SOL     OW 8488   1.364   2.118   3.248  0.7097  0.2290 -0.0990
 2591SOL    HW1 8489   1.349   2.142   3.157  0.2902 -1.9564 -0.6231
 2591SOL    HW2 8490   1.319   2.186   3.298  0.3501  1.0615 -1.5214
 2592SOL     OW 8491   0.747   6.442   5.181  0.0242  0.5234 -0.1904
 2592SOL    HW1 8492   0.670   6.493   5.205 -0.7124  0.2834 -1.9794
 2592SOL    HW2 8493   0.714   6.352   5.174  1.0137 -0.0106  1.5228
 2593SOL     OW 8494   4.296   2.299   4.744  0.1715 -0.6754 -0.0639
 2593SOL    HW1 8495   4.257   2.211   4.742 -1.8600  0.2060 -0.5161
 2593SOL    HW2 8496   4.242   2.348   4.805  0.1708  0.7628 -1.1828
 2594SOL     OW 8497   1.729   3.872   6.541  0.1738 -0.3690  0.2058
 2594SOL    HW1 8498   1.708   3.962   6.517  0.3446 -0.5307 -0.5382
 2594SOL    HW2 8499   1.746   3.877   6.635 -1.3636  0.0901  0.4754
 2595SOL     OW 8500   5.511   4.680   0.089 -0.7085  0.0073 -0.3340
 2595SOL    HW1 8501   5.539   4.691  -0.002  0.1039  2.0501  0.1333
 2595SOL    HW2 8502   5.417   4.660   0.083 -1.0821  1.9935 -1.5491
 2596SOL     OW 8503   2.618   1.649   1.158  0.4864 -0.0154  0.2758
 2596SOL    HW1 8504   2.601   1.566   1.115 -0.7569 -0.0224  0.7616
 2596SOL    HW2 8505   2.557   1.711   1.117  0.3642  0.3188  0.9491
 2597SOL     OW 8506   5.928   3.504   2.238 -0.8058 -0.5031  0.1973
 2597SOL    HW1 8507   6.022   3.522   2.232 -0.6092 -1.0839  1.4327
 2597SOL    HW2 8508   5.891   3.546   2.161  0.3189  0.7825  0.3316
 2598SOL     OW 8509   6.741   5.669   3.683  0.1570  0.0742  0.3603
 2598SOL    HW1 8510   6.730   5.671   3.779  4.0994 -0.1344  0.8720
 2598SOL    HW2 8511   6.722   5.579   3.659  0.3944 -0.1838  1.1199
 2599SOL     OW 8512   3.241   2.263   1.400  0.4055 -0.3207 -0.2558
 2599SOL    HW1 8513   3.286   2.333   1.352 -0.3994 -0.0726 -0.6655
 2599SOL    HW2 8514   3.183   2.223   1.335 -1.6979  0.8888  0.8081
 2600SOL     OW 8515   1.013   2.131   6.115 -0.5395  0.4483  0.4115
 2600SOL    HW1 8516   1.007   2.201   6.180 -1.2031 -0.5926  1.4824
 2600SOL    HW2 8517   0.930   2.083   6.124 -0.0767 -0.4931 -0.2860
 2601SOL     OW 8518   5.194   0.429   2.251 -0.2626 -0.0185 -0.0881
 2601SOL    HW1 8519   5.288   0.443   2.253 -0.2385 -0.2685  1.1550
 2601SOL    HW2 8520   5.180   0.350   2.303 -1.0247 -0.7940 -1.4599
 2602SOL     OW 8521   6.135   5.356   4.707  0.3519  0.3698  0.2831
 2602SOL    HW1 8522   6.209   5.322   4.757 -0.3975 -0.7320  0.6529
 2602SOL    HW2 8523   6.067   5.371   4.771  0.8524  3.2222  0.2299
 2603SOL     OW 8524   3.380   0.392   4.278 -0.0181  0.4995  0.4040
 2603SOL    HW1 8525   3.400   0.319   4.337  2.1001  2.6881  2.4607
 2603SOL    HW2 8526   3.298   0.428   4.311 -0.5530 -0.2804 -0.0275
 2604SOL     OW 8527   1.613   5.200   2.860  0.6678  0.0974 -0.1986
 2604SOL    HW1 8528   1.586   5.285   2.895 -0.1011 -0.7034  1.1665
 2604SOL    HW2 8529   1.684   5.172   2.918 -0.5800 -1.2095  0.7148
 2605SOL     OW 8530   0.198   0.979   5.781 -0.4102 -0.0455 -0.4498
 2605SOL    HW1 8531   0.213   1.056   5.837  0.0403 -0.5493  0.1353
 2605SOL    HW2 8532   0.141   0.923   5.834  1.3374 -1.2620  0.1968
 2606SOL     OW 8533   2.417   4.947   4.358  0.3487 -0.1675 -0.1525
 2606SOL    HW1 8534   2.453   4.913   4.441 -0.5416  1.5421  0.9533
 2606SOL    HW2 8535   2.485   4.929   4.294  2.1243  0.7398  1.4333
 2607SOL     OW 8536   0.920   2.611   1.156 -0.1163 -0.0778  0.6018
 2607SOL    HW1 8537   0.937   2.539   1.218 -1.7400  0.9585  2.2975
 2607SOL    HW2 8538   0.828   2.600   1.131 -0.3412  1.3126  0.7758
 2608SOL     OW 8539   3.579   0.677   4.504 -0.4144 -0.4629  0.0947
 2608SOL    HW1 8540   3.587   0.708   4.413  1.1951 -2.2768 -0.4274
 2608SOL    HW2 8541   3.486   0.661   4.515 -0.5309 -1.1339 -1.5916
 2609SOL     OW 8542   4.439   4.517   1.752 -0.4507  0.8591  0.1618
 2609SOL    HW1 8543   4.426   4.469   1.834 -1.8641  0.3303 -0.3486
 2609SOL    HW2 8544   4.395   4.600   1.765  1.2174  1.6723  0.7164
 2610SOL     OW 8545   6.699   2.512   2.233  0.3542 -0.4133  0.7658
 2610SOL    HW1 8546   6.707   2.510   2.137 -0.3610 -0.2481  0.6938
 2610SOL    HW2 8547   6.692   2.420   2.258  1.1032 -0.4811  0.7094
 2611SOL     OW 8548   0.265   4.754   2.305  0.0288 -0.7367 -0.3633
 2611SOL    HW1 8549   0.246   4.696   2.380  0.7612  1.4573  1.5612
 2611SOL    HW2 8550   0.278   4.694   2.232 -2.4523 -2.8850  0.8401
 2612SOL     OW 8551   1.981   5.038   0.153 -0.0054 -0.5976 -0.1928
 2612SOL    HW1 8552   1.897   5.084   0.156 -0.5826 -1.5805 -0.9717
 2612SOL    HW2 8553   2.044   5.104   0.124  0.0575  0.9267  3.1747
 2613SOL     OW 8554   1.964   0.276   0.727 -0.1253 -0.1407  0.2819
 2613SOL    HW1 8555   2.000   0.335   0.661  0.1064 -0.1505  0.3986
 2613SOL    HW2 8556   1.893   0.326   0.768  1.2244  0.7328  1.6091
 2614SOL     OW 8557   4.229   2.717   3.865 -0.8988 -0.5447 -0.6215
 2614SOL    HW1 8558   4.159   2.779   3.841 -0.4459  0.3877  0.4307
 2614SOL    HW2 8559   4.308   2.755   3.827 -0.2478  0.7086  1.8696
 2615SOL     OW 8560   6.012   0.980   3.263 -0.5704 -0.1016 -0.1350
 2615SOL    HW1 8561   5.987   0.948   3.350 -1.2655  2.8368  0.7895
 2615SOL    HW2 8562   6.098   1.019   3.275  0.5031 -1.9661 -1.3735
 2616SOL     OW 8563   3.900   0.340   0.218 -0.2285  0.0555 -0.1999
 2616SOL    HW1 8564   3.911   0.366   0.127  0.4854 -1.1915 -0.4866
 2616SOL    HW2 8565   3.951   0.259   0.226 -1.0838 -0.3706  1.0556
 2617SOL     OW 8566   0.928   5.069   0.939 -0.4299 -0.3097  0.5342
 2617SOL    HW1 8567   1.009   5.050   0.892 -0.5763  0.5593 -0.0674
 2617SOL    HW2 8568   0.954   5.076   1.030 -0.1086 -1.7835  0.5668
 2618SOL     OW 8569   5.799   4.238   1.711 -0.6838 -0.5645 -0.4574
 2618SOL    HW1 8570   5.754   4.306   1.661  1.0439  0.2346 -0.9654
 2618SOL    HW2 8571   5.770   4.252   1.801  0.1096  1.2648 -0.4531
 2619SOL     OW 8572   3.714   4.305   0.462  0.1141  0.5064 -0.0728
 2619SOL    HW1 8573   3.626   4.311   0.498  0.3304  1.6443  0.3067
 2619SOL    HW2 8574   3.771   4.325   0.536  0.6120  1.5946 -0.7420
 2620SOL     OW 8575   3.989   4.211   0.914 -0.5103  0.4532  0.5711
 2620SOL    HW1 8576   4.044   4.282   0.882 -2.7061  1.8538 -0.1454
 2620SOL    HW2 8577   3.951   4.172   0.835 -2.0160  0.7134  1.1507
 2621SOL     OW 8578   6.277   0.252   4.427 -0.0262 -0.0519 -0.0772
 2621SOL    HW1 8579   6.313   0.321   4.371  0.1604 -0.7566 -0.8326
 2621SOL    HW2 8580   6.344   0.238   4.494 -0.8684  1.7992  1.2007
 2622SOL     OW 8581   4.058   5.687   2.454  0.2808 -0.8267  0.5289
 2622SOL    HW1 8582   4.018   5.735   2.526 -0.1902 -0.4685  0.0258
 2622SOL    HW2 8583   4.012   5.603   2.452 -0.1783 -0.5709  0.2105
 2623SOL     OW 8584   4.292   4.502   0.570 -0.0587 -0.0601 -0.2744
 2623SOL    HW1 8585   4.275   4.408   0.573  0.9728 -0.2238  0.7933
 2623SOL    HW2 8586   4.246   4.532   0.492  1.4257 -1.8326 -1.8926
 2624SOL     OW 8587   5.815   4.370   5.198  0.0239  0.4529  0.2286
 2624SOL    HW1 8588   5.881   4.346   5.133  0.0380  0.8973  0.0786
 2624SOL    HW2 8589   5.731   4.352   5.155  0.0171  1.6168 -0.2525
 2625SOL     OW 8590   0.530   6.019   3.470  0.2186  0.2583 -0.3827
 2625SOL    HW1 8591   0.525   6.031   3.375  0.1245  0.1225 -0.3945
 2625SOL    HW2 8592   0.443   6.044   3.502 -0.1462 -0.8957 -0.4594
 2626SOL     OW 8593   0.108   2.964   3.170  0.0465  0.2665 -0.3075
 2626SOL    HW1 8594   0.172   3.002   3.229 -0.2982  1.4635 -0.6983
 2626SOL    HW2 8595   0.024   2.976   3.213 -0.4132  2.7676 -1.8285
 2627SOL     OW 8596   0.378   3.547   0.296  0.6572  0.7071 -0.3554
 2627SOL    HW1 8597   0.351   3.483   0.231  3.2813 -0.1171 -0.6899
 2627SOL    HW2 8598   0.313   3.616   0.291 -0.5747 -0.5518 -2.0558
 2628SOL     OW 8599   5.814   0.027   4.627  0.3186  0.0952 -0.4994
 2628SOL    HW1 8600   5.795   0.018   4.534  1.4015 -1.7084 -0.5672
 2628SOL    HW2 8601   5.728   0.028   4.669 -0.1435 -0.3563 -1.4104
 2629SOL     OW 8602   2.246   5.395   3.502  0.1211  0.6932  0.9513
 2629SOL    HW1 8603   2.279   5.389   3.412  0.0615 -1.1648  1.0279
 2629SOL    HW2 8604   2.324   5.401   3.556  0.1735  1.3362  0.8019
 2630SOL     OW 8605   6.285   0.998   4.014  0.2011  0.5024  0.0338
 2630SOL    HW1 8606   6.353   0.966   4.074  1.0005  0.5669 -0.8321
 2630SOL    HW2 8607   6.211   1.019   4.072  0.6804 -0.1713  0.9157
 2631SOL     OW 8608   5.255   5.227   6.640 -0.2161 -0.9438 -0.3194
 2631SOL    HW1 8609   5.339   5.273   6.637 -0.2424 -0.9048 -0.4349
 2631SOL    HW2 8610   5.222   5.246   6.728 -1.0127  0.6480 -0.9478
 2632SOL     OW 8611   5.393   1.416   6.219 -0.0738  0.5926  0.3650
 2632SOL    HW1 8612   5.308   1.457   6.235 -0.9469 -0.0941 -2.3144
 2632SOL    HW2 8613   5.403   1.418   6.124  1.0490 -3.0201  0.3481
 2633SOL     OW 8614   5.254   5.047   5.199 -0.1194 -0.6993  0.6885
 2633SOL    HW1 8615   5.347   5.045   5.221  0.5427 -0.0495 -1.8680
 2633SOL    HW2 8616   5.223   5.132   5.230  0.1829 -0.8126  1.3104
 2634SOL     OW 8617   5.921   0.354   5.683 -0.0774  0.1285  0.6327
 2634SOL    HW1 8618   5.927   0.369   5.778  0.8792 -0.6229  0.7063
 2634SOL    HW2 8619   5.933   0.260   5.673 -2.8387 -0.1964 -0.0518
 2635SOL     OW 8620   5.606   6.395   2.276  0.0618 -0.1255 -0.4754
 2635SOL    HW1 8621   5.567   6.438   2.200  2.5042  0.6596 -1.3303
 2635SOL    HW2 8622   5.607   6.302   2.252  0.9722  0.1322 -1.5103
 2636SOL     OW 8623   4.064   5.625   1.266 -0.4902 -0.1056 -0.1814
 2636SOL    HW1 8624   4.098   5.696   1.212  0.2350 -0.5988 -0.3870
 2636SOL    HW2 8625   4.119   5.627   1.345 -1.3786  0.4496  0.4375
 2637SOL     OW 8626   5.395   4.159   2.717  0.0485 -0.5640  0.2433
 2637SOL    HW1 8627   5.421   4.140   2.807 -0.1509  1.7170  0.8062
 2637SOL    HW2 8628   5.474   4.194   2.676  0.0454 -1.2770 -0.3849
 2638SOL     OW 8629   2.621   0.694   2.337 -0.0923  0.2097  0.3759
 2638SOL    HW1 8630   2.655   0.611   2.371 -0.1389 -0.8057 -1.9700
 2638SOL    HW2 8631   2.696   0.734   2.294 -0.7176  0.1402 -0.7847
 2639SOL     OW 8632   4.875   5.301   1.268  0.7005 -0.1425  0.2691
 2639SOL    HW1 8633   4.940   5.315   1.199  0.5164 -0.3028  0.0648
 2639SOL    HW2 8634   4.816   5.234   1.233 -0.4696  1.0909 -0.1514
 2640SOL     OW 8635   6.621   5.474   0.245 -0.0539 -0.2203 -0.6514
 2640SOL    HW1 8636   6.568   5.432   0.177 -1.9024 -1.1969  1.3472
 2640SOL    HW2 8637   6.712   5.460   0.216 -0.7869 -1.3999 -2.4503
 2641SOL     OW 8638   2.504   1.541   2.339 -0.9310 -0.4276 -0.3897
 2641SOL    HW1 8639   2.490   1.475   2.271 -2.7679  0.6045 -1.0360
 2641SOL    HW2 8640   2.537   1.617   2.292 -0.6565 -0.2393  0.1004
 2642SOL     OW 8641   4.203   4.372   2.883  0.1114 -0.5884  0.5134
 2642SOL    HW1 8642   4.287   4.414   2.903 -0.2031 -0.3851  1.4165
 2642SOL    HW2 8643   4.193   4.382   2.788  0.3612  0.7778  0.6174
 2643SOL     OW 8644   5.051   2.580   2.979 -0.3195  0.0316  0.7130
 2643SOL    HW1 8645   5.046   2.605   2.887 -0.9081 -0.7131  0.5381
 2643SOL    HW2 8646   5.108   2.503   2.979  0.7519  0.8197  1.1343
 2644SOL     OW 8647   2.324   6.760   3.606  0.3195  0.1571 -0.7943
 2644SOL    HW1 8648   2.249   6.800   3.651  1.3154  0.6311  0.4634
 2644SOL    HW2 8649   2.284   6.695   3.548 -0.9876 -1.0571  1.3669
 2645SOL     OW 8650   4.333   5.695   2.906 -0.0392  0.4219 -0.5086
 2645SOL    HW1 8651   4.252   5.646   2.890 -0.2557  0.3938  0.6435
 2645SOL    HW2 8652   4.307   5.787   2.897 -0.3860  0.4442  0.6608
 2646SOL     OW 8653   4.184   2.118   3.454 -0.1819 -0.2799 -0.5363
 2646SOL    HW1 8654   4.109   2.110   3.513 -0.0526  1.5455 -0.1096
 2646SOL    HW2 8655   4.163   2.190   3.396  0.7281 -0.5353 -1.2066
 2647SOL     OW 8656   2.839   2.588   5.803  0.5107  0.0443  0.2321
 2647SOL    HW1 8657   2.893   2.587   5.882  1.9567 -0.4103 -0.7546
 2647SOL    HW2 8658   2.880   2.525   5.744 -0.6793  0.2182 -0.8080
 2648SOL     OW 8659   1.576   3.977   3.861  0.7760  0.2699 -0.5183
 2648SOL    HW1 8660   1.486   4.005   3.879  0.2532 -1.2226 -0.7542
 2648SOL    HW2 8661   1.629   4.023   3.926  0.1602  3.0296 -1.8993
 2649SOL     OW 8662   4.344   3.401   4.321  0.1009  0.1441  0.2008
 2649SOL    HW1 8663   4.293   3.360   4.390 -0.1017 -0.7265 -0.4604
 2649SOL    HW2 8664   4.279   3.436   4.260  0.2390  2.7004  1.4488
 2650SOL     OW 8665   3.398   2.723   2.339  0.1900 -0.3264  0.0078
 2650SOL    HW1 8666   3.360   2.635   2.334  1.3603 -0.6781 -3.6712
 2650SOL    HW2 8667   3.325   2.779   2.364 -1.3175 -1.8652 -0.8478
 2651SOL     OW 8668   1.055   0.112   2.221 -0.3786  0.3525  0.5959
 2651SOL    HW1 8669   0.973   0.124   2.173  0.4194  1.6004 -0.4629
 2651SOL    HW2 8670   1.113   0.067   2.160  0.7446  2.2191  0.2493
 2652SOL     OW 8671   2.200   1.528   4.207 -0.0971  0.3031 -0.3023
 2652SOL    HW1 8672   2.114   1.513   4.247 -0.4194  0.8301 -0.7875
 2652SOL    HW2 8673   2.203   1.468   4.133  0.5542 -0.7672  0.5619
 2653SOL     OW 8674   3.590   6.342   2.467  0.2257 -0.1546  0.0925
 2653SOL    HW1 8675   3.630   6.286   2.534 -0.0131 -0.8536 -0.3365
 2653SOL    HW2 8676   3.556   6.280   2.402  0.9991  0.5447 -0.9923
 2654SOL     OW 8677   6.652   5.989   2.342  0.6878 -0.0547 -0.4510
 2654SOL    HW1 8678   6.610   6.029   2.267 -0.6495 -0.0903  0.2641
 2654SOL    HW2 8679   6.685   5.905   2.310 -0.5730 -0.4218 -0.8082
 2655SOL     OW 8680   0.620   5.890   6.670  0.1276  0.5409 -0.2033
 2655SOL    HW1 8681   0.548   5.873   6.730  1.4896  0.7071  1.5260
 2655SOL    HW2 8682   0.699   5.876   6.722  1.3551  0.7176 -1.9538
 2656SOL     OW 8683   0.530   4.579   3.025 -0.0693 -0.0768 -0.7598
 2656SOL    HW1 8684   0.542   4.484   3.036 -0.8443  0.0097  1.0293
 2656SOL    HW2 8685   0.619   4.612   3.010  0.4527 -0.8734  0.4668
 2657SOL     OW 8686   6.728   6.182   2.508  0.2520  0.6479 -0.1022
 2657SOL    HW1 8687   6.704   6.108   2.452 -1.3807  0.6196  0.6002
 2657SOL    HW2 8688   6.765   6.246   2.448 -2.0348  0.8651 -1.3559
 2658SOL     OW 8689   5.288   2.262   0.820 -0.3176  1.0092 -0.2764
 2658SOL    HW1 8690   5.345   2.248   0.745 -0.1748 -1.3997  0.2453
 2658SOL    HW2 8691   5.303   2.354   0.845 -0.0792  1.7176 -2.9037
 2659SOL     OW 8692   6.025   2.581   1.654  0.2801  0.5197 -0.4728
 2659SOL    HW1 8693   5.961   2.556   1.588 -1.2440 -0.4370  1.2949
 2659SOL    HW2 8694   6.022   2.676   1.655 -0.7302  0.5057 -0.8242
 2660SOL     OW 8695   6.030   5.746   1.476  0.5228  0.4015 -1.0039
 2660SOL    HW1 8696   6.049   5.669   1.530  0.9585  0.7588 -0.6427
 2660SOL    HW2 8697   5.949   5.723   1.429 -0.3985  0.4529  0.5206
 2661SOL     OW 8698   4.369   0.657   2.954  0.1595  0.0507  0.0054
 2661SOL    HW1 8699   4.294   0.643   3.012 -1.6274 -0.2702 -2.3199
 2661SOL    HW2 8700   4.403   0.569   2.937  0.8638  0.1676  0.7563
 2662SOL     OW 8701   5.376   5.724   4.852 -0.6654 -0.2590 -0.8615
 2662SOL    HW1 8702   5.321   5.772   4.914  0.4738 -0.4957  0.3452
 2662SOL    HW2 8703   5.440   5.789   4.822  2.5976 -1.5581  2.8112
 2663SOL     OW 8704   2.150   0.822   1.546  0.2365 -0.4427 -0.4658
 2663SOL    HW1 8705   2.079   0.879   1.574  0.1595 -0.9839  0.4406
 2663SOL    HW2 8706   2.108   0.758   1.488 -0.0359 -0.8192  0.1429
 2664SOL     OW 8707   1.391   5.632   5.960 -0.1926 -0.1910  0.1161
 2664SOL    HW1 8708   1.381   5.597   6.049  0.7104 -1.8103 -0.3939
 2664SOL    HW2 8709   1.474   5.679   5.962 -0.4860  0.3289  0.2888
 2665SOL     OW 8710   5.630   0.184   2.355  0.4447  0.0899 -0.2203
 2665SOL    HW1 8711   5.548   0.137   2.339 -0.4152  0.9609  1.4721
 2665SOL    HW2 8712   5.693   0.142   2.297 -0.9140 -1.4119 -0.6597
 2666SOL     OW 8713   2.475   2.149   3.609  0.0337 -0.3591  0.2198
 2666SOL    HW1 8714   2.396   2.200   3.591  0.1177 -0.7403 -1.2801
 2666SOL    HW2 8715   2.523   2.200   3.674  0.8851  2.2462 -2.3776
 2667SOL     OW 8716   3.551   3.500   0.331  0.0740  0.0020 -0.3320
 2667SOL    HW1 8717   3.464   3.461   0.329  0.1422 -0.0863 -1.7043
 2667SOL    HW2 8718   3.609   3.426   0.353  0.1058 -0.5070 -2.0832
 2668SOL     OW 8719   3.240   1.410   1.931 -0.1256 -0.2349 -0.0953
 2668SOL    HW1 8720   3.246   1.346   2.002  0.2700  1.4639  1.4293
 2668SOL    HW2 8721   3.160   1.458   1.948 -0.7280 -0.6940 -1.5745
 2669SOL     OW 8722   2.129   1.091   5.642 -0.2415 -0.3394 -0.1187
 2669SOL    HW1 8723   2.190   1.092   5.568 -0.1981 -3.5771 -0.2147
 2669SOL    HW2 8724   2.161   1.022   5.699 -2.8392 -0.9650  0.6837
 2670SOL     OW 8725   0.280   1.104   0.057 -0.0652 -0.1041  0.3166
 2670SOL    HW1 8726   0.282   1.181   0.113 -0.8071  0.4338 -0.3990
 2670SOL    HW2 8727   0.339   1.042   0.101  0.1999  0.6985  1.1189
 2671SOL     OW 8728   5.725   3.435   0.236 -0.2810 -0.3370 -0.0479
 2671SOL    HW1 8729   5.662   3.507   0.226  0.9425  0.5915 -1.2076
 2671SOL    HW2 8730   5.676   3.367   0.284 -1.7157  0.9172  0.3117
 2672SOL     OW 8731   1.545   5.002   6.164 -0.4620 -0.3415 -0.4735
 2672SOL    HW1 8732   1.618   5.063   6.175  0.7963 -2.1374  1.4742
 2672SOL    HW2 8733   1.478   5.033   6.226  0.4196 -1.2384  0.9679
 2673SOL     OW 8734   6.237   5.965   5.599  0.5327 -0.6647  0.8571
 2673SOL    HW1 8735   6.184   5.887   5.581 -1.2192  0.5936  0.4183
 2673SOL    HW2 8736   6.214   5.988   5.689  0.9839 -0.6042  0.9570
 2674SOL     OW 8737   3.101   4.794   1.537  0.6120 -0.0300 -0.3838
 2674SOL    HW1 8738   3.097   4.861   1.606  0.4573  0.1979 -0.6110
 2674SOL    HW2 8739   3.044   4.724   1.568  0.6863 -0.0054 -0.1932
 2675SOL     OW 8740   6.339   6.201   0.877  0.0139  0.0301 -0.2842
 2675SOL    HW1 8741   6.407   6.212   0.943 -1.3471  2.2990  0.7820
 2675SOL    HW2 8742   6.279   6.137   0.915 -0.3532  0.7464  0.3422
 2676SOL     OW 8743   1.850   4.851   0.458  0.6120  0.3387  0.0469
 2676SOL    HW1 8744   1.945   4.858   0.442  1.1643  0.3165  3.0195
 2676SOL    HW2 8745   1.815   4.936   0.431  1.6187  0.6766 -0.2241
 2677SOL     OW 8746   1.128   4.442   2.130  0.3975  0.3759  0.2983
 2677SOL    HW1 8747   1.172   4.439   2.046 -0.5410  0.6744 -0.2068
 2677SOL    HW2 8748   1.060   4.508   2.120 -0.5157 -0.4569  0.8929
 2678SOL     OW 8749   5.879   2.397   5.319 -0.5347 -0.3473 -0.8087
 2678SOL    HW1 8750   5.825   2.334   5.366 -0.6370  0.4108  0.1042
 2678SOL    HW2 8751   5.821   2.472   5.304  0.1353  0.3136 -0.1642
 2679SOL     OW 8752   3.716   5.459   5.462  0.2507  0.6152 -0.0308
 2679SOL    HW1 8753   3.712   5.472   5.556 -1.7610  1.4248 -0.2083
 2679SOL    HW2 8754   3.809   5.451   5.443  0.5998 -1.1214  2.2190
 2680SOL     OW 8755   3.077   3.336   4.453 -0.3766  0.1686 -0.0834
 2680SOL    HW1 8756   3.001   3.286   4.482 -0.6315  0.7465  0.2539
 2680SOL    HW2 8757   3.152   3.285   4.481 -0.6332  0.1601  0.6001
 2681SOL     OW 8758   3.548   2.352   6.172  0.2289 -0.2302 -0.3911
 2681SOL    HW1 8759   3.593   2.339   6.256  0.5963  0.2274 -0.5126
 2681SOL    HW2 8760   3.459   2.322   6.187  0.0763  0.6009  0.4014
 2682SOL     OW 8761   0.468   5.821   5.631  0.6574  0.1234  0.4699
 2682SOL    HW1 8762   0.504   5.904   5.601  0.8189 -0.0223  0.2573
 2682SOL    HW2 8763   0.439   5.777   5.551 -2.1192  1.2132  0.8102
 2683SOL     OW 8764   4.196   3.477   3.294 -0.2235  0.2405 -0.1224
 2683SOL    HW1 8765   4.136   3.505   3.226  0.3616 -2.8967 -1.9921
 2683SOL    HW2 8766   4.281   3.513   3.267 -0.5078  1.3589  0.4513
 2684SOL     OW 8767   1.370   2.533   3.912  1.3474 -0.0740 -0.0314
 2684SOL    HW1 8768   1.391   2.616   3.954  1.1136  0.0563 -0.1676
 2684SOL    HW2 8769   1.333   2.557   3.827  2.2052 -0.3543 -0.4834
 2685SOL     OW 8770   4.660   0.128   5.659 -0.2194 -0.3464 -0.0367
 2685SOL    HW1 8771   4.659   0.123   5.754 -1.8512 -1.0941 -0.0763
 2685SOL    HW2 8772   4.695   0.044   5.630  0.4757 -0.0397 -0.1052
 2686SOL     OW 8773   3.324   3.106   3.738 -0.1362  0.2759 -0.5694
 2686SOL    HW1 8774   3.261   3.069   3.676 -1.0287  0.4769  0.2082
 2686SOL    HW2 8775   3.314   3.052   3.816  1.5777 -0.5112 -0.8632
 2687SOL     OW 8776   1.542   1.977   5.008 -0.7829  0.0857  0.1574
 2687SOL    HW1 8777   1.594   2.026   5.071  2.7411 -3.5694  0.3167
 2687SOL    HW2 8778   1.563   1.885   5.025 -2.1525 -1.2032 -4.2532
 2688SOL     OW 8779   2.451   1.350   1.323 -0.3855 -0.0080  0.1853
 2688SOL    HW1 8780   2.513   1.368   1.252 -0.6634  0.2932  0.0181
 2688SOL    HW2 8781   2.373   1.316   1.279 -0.3819 -0.2815  0.3865
 2689SOL     OW 8782   6.058   1.625   2.221  0.2734 -0.6062 -0.0779
 2689SOL    HW1 8783   6.009   1.593   2.297  0.8320 -1.1709  0.0537
 2689SOL    HW2 8784   6.021   1.578   2.147 -1.5556  1.3381 -0.4278
 2690SOL     OW 8785   4.029   4.188   3.531 -0.0154 -0.5257 -0.8519
 2690SOL    HW1 8786   4.024   4.119   3.597 -0.5179 -0.4784 -0.8357
 2690SOL    HW2 8787   4.088   4.153   3.464 -0.2865 -0.9832 -0.8562
 2691SOL     OW 8788   2.368   6.579   2.363  0.6916  0.0962  0.2559
 2691SOL    HW1 8789   2.445   6.560   2.417  2.0729  1.3118 -1.2420
 2691SOL    HW2 8790   2.330   6.658   2.400  1.1331  0.4350 -0.0148
 2692SOL     OW 8791   2.863   5.384   5.606  0.1411 -0.5552  0.3133
 2692SOL    HW1 8792   2.779   5.426   5.587 -0.8025 -2.0372  1.1386
 2692SOL    HW2 8793   2.876   5.321   5.536  0.3552 -0.6398  0.4257
 2693SOL     OW 8794   1.209   3.954   3.475 -0.1081 -0.0386  0.4605
 2693SOL    HW1 8795   1.145   3.964   3.404  1.3529  0.0062 -0.8765
 2693SOL    HW2 8796   1.220   3.859   3.483  1.1064  0.0013 -0.6465
 2694SOL     OW 8797   4.585   3.431   5.102 -0.3229  0.4295  0.1095
 2694SOL    HW1 8798   4.632   3.469   5.028  3.0438 -1.0186  1.3923
 2694SOL    HW2 8799   4.567   3.341   5.074 -1.1542  0.5731  0.1659
 2695SOL     OW 8800   2.527   3.701   3.299 -0.6896 -0.5603  0.2776
 2695SOL    HW1 8801   2.550   3.779   3.351  1.2213 -0.9001 -0.0171
 2695SOL    HW2 8802   2.568   3.628   3.345 -1.2541 -1.2151 -0.2414
 2696SOL     OW 8803   5.636   0.054   1.590 -0.4455 -0.4300  0.2408
 2696SOL    HW1 8804   5.642   0.146   1.614 -0.4146 -0.0272 -1.2441
 2696SOL    HW2 8805   5.568   0.018   1.646  0.4048  0.2091  1.6937
 2697SOL     OW 8806   1.952   4.757   5.188 -0.4312 -0.5261 -0.3338
 2697SOL    HW1 8807   1.974   4.837   5.236 -0.7610 -0.4551 -0.2969
 2697SOL    HW2 8808   1.972   4.686   5.248 -1.5785 -0.4084  0.2135
 2698SOL     OW 8809   1.879   4.873   3.172  1.0415 -0.1133 -0.4901
 2698SOL    HW1 8810   1.917   4.958   3.150  1.2267 -0.2339 -0.6406
 2698SOL    HW2 8811   1.811   4.893   3.236  2.3827 -0.0639  0.9578
 2699SOL     OW 8812   5.322   2.260   2.437  0.0352  0.6440 -0.2550
 2699SOL    HW1 8813   5.352   2.213   2.359  1.0620  0.1452  0.4315
 2699SOL    HW2 8814   5.349   2.204   2.510 -3.1517 -0.1811  0.3888
 2700SOL     OW 8815   1.187   1.325   0.509  0.2143  0.1347 -0.4213
 2700SOL    HW1 8816   1.265   1.377   0.491  1.0513 -1.1333 -0.4664
 2700SOL    HW2 8817   1.205   1.281   0.592 -0.2883 -0.4758 -0.6284
 2701SOL     OW 8818   2.936   1.769   3.484  0.2752 -0.4379  0.0818
 2701SOL    HW1 8819   3.017   1.800   3.523 -0.0900 -0.7669  1.1215
 2701SOL    HW2 8820   2.921   1.826   3.409  2.0699 -1.0992 -0.8055
 2702SOL     OW 8821   5.947   0.557   1.316  0.0377  0.1158  0.5802
 2702SOL    HW1 8822   5.882   0.493   1.347  2.2681 -3.2298 -1.2487
 2702SOL    HW2 8823   5.993   0.585   1.395 -0.0412 -1.6981  1.2904
 2703SOL     OW 8824   4.294   5.411   0.745 -0.4515  0.0281  0.1920
 2703SOL    HW1 8825   4.319   5.320   0.730  0.6804  0.0584  1.7492
 2703SOL    HW2 8826   4.372   5.461   0.720 -0.7263  0.4975  0.2726
 2704SOL     OW 8827   1.953   2.906   2.175 -0.3371 -0.2603  0.0059
 2704SOL    HW1 8828   1.896   2.929   2.249 -1.0546  0.5942 -0.7946
 2704SOL    HW2 8829   1.895   2.909   2.099  0.2171 -1.9216 -0.4993
 2705SOL     OW 8830   4.768   1.977   1.681  0.0484  0.5405  0.4016
 2705SOL    HW1 8831   4.863   1.965   1.675  0.1884  1.3984  0.9254
 2705SOL    HW2 8832   4.733   1.888   1.675  0.6873  0.4292 -3.1223
 2706SOL     OW 8833   0.358   5.036   1.071  0.1134  0.0233 -0.0797
 2706SOL    HW1 8834   0.341   5.065   1.160 -1.1787  1.2384 -0.6971
 2706SOL    HW2 8835   0.445   4.996   1.074 -0.4912 -1.2104  1.9956
 2707SOL     OW 8836   3.524   3.293   5.321  0.2296 -0.7269  0.2733
 2707SOL    HW1 8837   3.528   3.342   5.239 -0.1308 -3.0715 -1.1882
 2707SOL    HW2 8838   3.555   3.355   5.387 -0.1320  1.4374 -1.5080
 2708SOL     OW 8839   5.140   3.889   6.264 -0.0728 -0.1935  0.4269
 2708SOL    HW1 8840   5.148   3.907   6.170 -0.3198  1.8929  0.7748
 2708SOL    HW2 8841   5.047   3.897   6.282  0.1537  0.9709  1.1270
 2709SOL     OW 8842   1.008   6.044   5.926  0.5666  0.3119  0.3491
 2709SOL    HW1 8843   0.948   5.970   5.927  0.2265  0.5103 -2.9407
 2709SOL    HW2 8844   1.093   6.006   5.949 -0.4501 -0.2194  3.4985
 2710SOL     OW 8845   6.183   0.700   0.651  0.4280  0.2862 -0.0501
 2710SOL    HW1 8846   6.206   0.792   0.659 -0.9467  0.5228  1.5062
 2710SOL    HW2 8847   6.119   0.696   0.581 -0.5320  0.7203  0.7941
 2711SOL     OW 8848   5.172   0.174   2.433  0.3499  0.5952  0.1409
 2711SOL    HW1 8849   5.098   0.115   2.418 -0.0118  0.8770  0.7704
 2711SOL    HW2 8850   5.214   0.140   2.512  0.4476  0.8758  0.2102
 2712SOL     OW 8851   1.960   5.715   3.063 -0.1620  0.1925  0.3324
 2712SOL    HW1 8852   1.899   5.731   3.135 -1.1385  0.1823 -0.4968
 2712SOL    HW2 8853   1.953   5.792   3.007 -0.9792 -0.7386 -0.8711
 2713SOL     OW 8854   4.001   0.751   0.800 -0.1877 -0.5137 -0.8759
 2713SOL    HW1 8855   4.033   0.702   0.876 -0.0796 -1.0860 -1.2881
 2713SOL    HW2 8856   4.077   0.801   0.771  0.2653 -1.6247 -1.6568
 2714SOL     OW 8857   4.670   1.078   1.638 -0.7483 -0.4401 -0.6398
 2714SOL    HW1 8858   4.742   1.040   1.688  0.4349  1.6640 -0.7216
 2714SOL    HW2 8859   4.645   1.009   1.577  0.0794 -1.7865  0.5119
 2715SOL     OW 8860   0.376   2.591   1.560  0.3525  0.2605 -0.0069
 2715SOL    HW1 8861   0.307   2.648   1.526  1.1084  1.3330  0.2211
 2715SOL    HW2 8862   0.346   2.565   1.647 -0.8801 -1.2560 -0.8568
 2716SOL     OW 8863   0.648   3.842   4.226  0.0873 -0.3459 -0.3700
 2716SOL    HW1 8864   0.634   3.869   4.135  0.8691  1.1608 -0.0552
 2716SOL    HW2 8865   0.743   3.840   4.236  0.0249 -1.9589  0.0077
 2717SOL     OW 8866   0.929   1.329   3.412 -0.5382  0.0627 -0.1616
 2717SOL    HW1 8867   0.838   1.309   3.387 -0.3474 -0.6606 -0.2970
 2717SOL    HW2 8868   0.972   1.350   3.329 -1.0142  2.1974  0.1121
 2718SOL     OW 8869   4.960   0.485   1.583  0.3372  0.0870  0.4548
 2718SOL    HW1 8870   4.981   0.469   1.491  0.1998 -3.4607  0.9670
 2718SOL    HW2 8871   5.033   0.446   1.631  1.4365  3.6939  1.8791
 2719SOL     OW 8872   0.697   1.711   5.072  0.4322 -0.0515  0.2720
 2719SOL    HW1 8873   0.789   1.684   5.067  0.9991  1.8178  0.0891
 2719SOL    HW2 8874   0.657   1.675   4.993  1.5484  0.9732 -0.7952
 2720SOL     OW 8875   4.690   4.900   2.890  0.4460 -0.0199 -0.4202
 2720SOL    HW1 8876   4.741   4.936   2.818  0.3588 -0.8648 -0.9174
 2720SOL    HW2 8877   4.712   4.955   2.966  2.2012 -0.4706 -0.5809
 2721SOL     OW 8878   4.675   2.359   3.545  0.6435 -0.2765  0.6873
 2721SOL    HW1 8879   4.753   2.312   3.514  0.0708 -1.5628  1.1651
 2721SOL    HW2 8880   4.706   2.447   3.563  2.0635 -0.8467  1.1313
 2722SOL     OW 8881   2.682   4.915   1.168 -0.6286 -0.1595 -0.3178
 2722SOL    HW1 8882   2.597   4.956   1.150  0.6894  1.6907 -2.6867
 2722SOL    HW2 8883   2.735   4.985   1.205  0.0551 -1.1648  0.6191
 2723SOL     OW 8884   0.183   3.553   6.612  0.2921 -0.3912  1.0541
 2723SOL    HW1 8885   0.166   3.646   6.603 -1.5042 -0.9178 -1.6096
 2723SOL    HW2 8886   0.272   3.541   6.579  0.2627  0.2696  0.7455
 2724SOL     OW 8887   2.695   4.925   4.348  0.3333  0.2912  0.3448
 2724SOL    HW1 8888   2.725   4.903   4.436  2.4242 -1.3798 -0.7404
 2724SOL    HW2 8889   2.767   4.976   4.310 -0.2610  0.4268 -0.6173
 2725SOL     OW 8890   3.402   1.761   2.062  0.1648  0.3869 -0.0639
 2725SOL    HW1 8891   3.464   1.689   2.074 -0.3314  0.0079  0.2666
 2725SOL    HW2 8892   3.343   1.754   2.137  1.0101  2.0718  0.7813
 2726SOL     OW 8893   6.469   6.556   2.772  0.1496 -0.0975  0.1359
 2726SOL    HW1 8894   6.529   6.595   2.835 -0.3260  1.5792 -0.3998
 2726SOL    HW2 8895   6.424   6.487   2.820  0.9320  0.0918  1.1592
 2727SOL     OW 8896   1.758   1.831   2.730  0.5338  0.4410  0.4822
 2727SOL    HW1 8897   1.722   1.745   2.751  0.9987 -0.0931 -0.8741
 2727SOL    HW2 8898   1.709   1.891   2.787 -2.2350 -0.3068 -1.0097
 2728SOL     OW 8899   0.966   2.255   3.678 -0.2187 -0.4929  0.1064
 2728SOL    HW1 8900   0.969   2.208   3.595 -0.3911 -0.3633  0.0270
 2728SOL    HW2 8901   1.045   2.308   3.679  0.8549 -2.0612  0.9454
 2729SOL     OW 8902   6.220   1.586   0.654 -0.6372  0.5291 -0.0326
 2729SOL    HW1 8903   6.310   1.584   0.686 -1.1722 -1.4548  1.4630
 2729SOL    HW2 8904   6.192   1.677   0.662  1.1095  1.0851 -0.2040
 2730SOL     OW 8905   2.143   4.619   3.519  0.1171  0.1396  0.3991
 2730SOL    HW1 8906   2.230   4.608   3.480 -0.2306 -0.9057 -0.0990
 2730SOL    HW2 8907   2.125   4.713   3.512 -0.9006 -0.2656 -4.0946
 2731SOL     OW 8908   3.797   4.164   1.862 -0.1059  0.1792 -0.0775
 2731SOL    HW1 8909   3.716   4.185   1.909 -0.6442  0.2063 -1.0103
 2731SOL    HW2 8910   3.860   4.229   1.893  0.0978 -0.9920  2.0673
 2732SOL     OW 8911   3.112   0.151   5.654 -0.4917  0.2227 -0.0118
 2732SOL    HW1 8912   3.156   0.171   5.737 -1.0725 -0.1831  0.3939
 2732SOL    HW2 8913   3.183   0.121   5.597 -0.2586 -0.6160  0.7028
 2733SOL     OW 8914   6.387   5.714   0.542  0.0133  0.0710 -0.5318
 2733SOL    HW1 8915   6.421   5.632   0.506  0.6444  0.9138 -1.8820
 2733SOL    HW2 8916   6.439   5.729   0.621 -1.6150 -1.9723  0.9855
 2734SOL     OW 8917   3.939   2.715   0.214  0.1141  0.0737  0.2579
 2734SOL    HW1 8918   3.934   2.794   0.159  1.6080  0.0536  0.0874
 2734SOL    HW2 8919   3.885   2.651   0.167  1.6452 -0.0475 -1.3861
 2735SOL     OW 8920   5.276   2.528   2.543 -0.0504 -0.3279  0.3062
 2735SOL    HW1 8921   5.325   2.447   2.535 -0.1833 -0.2592 -1.2083
 2735SOL    HW2 8922   5.190   2.501   2.577 -0.8226 -1.0792 -2.1856
 2736SOL     OW 8923   1.322   0.221   2.324  0.5368 -0.0018 -0.3155
 2736SOL    HW1 8924   1.296   0.237   2.233  1.5447  1.1312 -0.4289
 2736SOL    HW2 8925   1.243   0.188   2.367 -0.5176  1.3773 -1.1420
 2737SOL     OW 8926   4.827   2.895   5.122  0.1755 -0.0016  0.4985
 2737SOL    HW1 8927   4.865   2.963   5.066 -0.1469 -1.1694 -1.1983
 2737SOL    HW2 8928   4.749   2.866   5.074 -0.9846  0.0556  2.3319
 2738SOL     OW 8929   0.169   3.825   4.680  0.2698 -0.1334 -0.0281
 2738SOL    HW1 8930   0.090   3.833   4.734 -0.4112  2.7947 -1.3470
 2738SOL    HW2 8931   0.241   3.816   4.743 -0.8278 -0.0239  1.2703
 2739SOL     OW 8932   1.228   2.856   1.468  0.2607 -0.6982  0.0409
 2739SOL    HW1 8933   1.154   2.847   1.409  0.1347  0.2594  0.0372
 2739SOL    HW2 8934   1.234   2.772   1.513 -1.3049 -0.5245  0.6032
 2740SOL     OW 8935   0.745   6.406   6.716 -0.0101 -0.3810  0.1297
 2740SOL    HW1 8936   0.709   6.362   6.793  0.4617 -0.9877  0.0075
 2740SOL    HW2 8937   0.692   6.374   6.643  0.1173 -0.4917  0.0851
 2741SOL     OW 8938   1.934   1.197   0.678  0.3009 -0.2975  0.0096
 2741SOL    HW1 8939   1.980   1.201   0.762  0.3338  0.6463 -0.0450
 2741SOL    HW2 8940   1.880   1.276   0.677 -0.5930 -0.9007 -0.3460
 2742SOL     OW 8941   0.325   1.690   3.101  0.2872 -0.2217 -0.2631
 2742SOL    HW1 8942   0.345   1.720   3.012  1.5089 -1.7008 -0.4949
 2742SOL    HW2 8943   0.339   1.596   3.099 -2.9400 -0.7689  0.6328
 2743SOL     OW 8944   0.598   2.116   4.763  0.0982  0.4053  0.3795
 2743SOL    HW1 8945   0.551   2.191   4.802  1.8357  1.6488  0.1403
 2743SOL    HW2 8946   0.630   2.150   4.680 -0.4330 -1.1224 -0.4626
 2744SOL     OW 8947   0.049   2.833   0.380  0.4360 -0.5727 -0.1625
 2744SOL    HW1 8948   0.111   2.897   0.345 -0.4250  1.8060  2.4886
 2744SOL    HW2 8949  -0.037   2.870   0.362 -0.1088 -1.3537  0.7897
 2745SOL     OW 8950   0.639   3.008   4.707  0.2130  0.3967  0.1522
 2745SOL    HW1 8951   0.560   3.013   4.654  0.5060  0.2855 -0.2957
 2745SOL    HW2 8952   0.618   2.945   4.776 -0.0747  0.3375  0.0094
 2746SOL     OW 8953   2.371   1.570   2.025  0.2431 -0.0451 -0.1879
 2746SOL    HW1 8954   2.374   1.533   1.937  0.1387 -0.8936  0.1648
 2746SOL    HW2 8955   2.290   1.536   2.063 -1.1986  2.5821 -0.7464
 2747SOL     OW 8956   1.044   6.329   0.281 -0.1697 -0.2602  0.3155
 2747SOL    HW1 8957   1.004   6.410   0.251  1.1048  0.4799  0.5677
 2747SOL    HW2 8958   1.138   6.343   0.267  0.1182 -1.3979  1.0809
 2748SOL     OW 8959   6.312   1.979   5.823 -0.3583  0.0095  0.0186
 2748SOL    HW1 8960   6.345   2.006   5.737 -0.9119  0.7910  0.0463
 2748SOL    HW2 8961   6.350   2.043   5.884  1.0297 -1.2605  0.5291
 2749SOL     OW 8962   5.549   0.372   6.214 -0.6236  0.1920 -0.2756
 2749SOL    HW1 8963   5.478   0.380   6.278  1.3850 -0.4620  2.0934
 2749SOL    HW2 8964   5.614   0.437   6.241  0.1057  0.1562 -1.8671
 2750SOL     OW 8965   4.968   5.402   2.735 -0.9108 -0.2307  0.1781
 2750SOL    HW1 8966   4.944   5.488   2.701 -1.7288 -0.5845 -0.1430
 2750SOL    HW2 8967   5.061   5.410   2.757 -0.3596 -0.0173 -2.1618
 2751SOL     OW 8968   0.379   5.045   2.874  0.0402 -0.4251 -0.1680
 2751SOL    HW1 8969   0.358   5.037   2.967 -0.4591  1.1139 -0.1214
 2751SOL    HW2 8970   0.295   5.036   2.829  0.4628 -2.4574 -0.5667
 2752SOL     OW 8971   2.556   6.386   5.234  0.4655  0.4271  0.3532
 2752SOL    HW1 8972   2.604   6.342   5.163 -1.6753 -0.2040 -0.7536
 2752SOL    HW2 8973   2.543   6.475   5.201 -0.3266  0.1990  0.0324
 2753SOL     OW 8974   1.496   4.975   0.239  0.2446 -0.1765  0.0485
 2753SOL    HW1 8975   1.462   4.890   0.212 -0.1963  0.6413 -2.0397
 2753SOL    HW2 8976   1.418   5.029   0.251  0.5986  0.4128 -0.2829
 2754SOL     OW 8977   1.592   0.887   4.381  0.1213  0.8076 -0.0064
 2754SOL    HW1 8978   1.631   0.814   4.333 -1.5424 -0.3325  0.3265
 2754SOL    HW2 8979   1.502   0.893   4.347  0.6054  3.5413 -0.9478
 2755SOL     OW 8980   4.377   3.558   5.735 -0.1793 -0.5210  0.1421
 2755SOL    HW1 8981   4.349   3.466   5.731 -0.0188 -0.5273 -0.8749
 2755SOL    HW2 8982   4.406   3.578   5.647  0.7091  0.2260  0.5939
 2756SOL     OW 8983   0.045   5.465   3.900  0.6712 -0.2874 -0.1375
 2756SOL    HW1 8984   0.019   5.376   3.876  0.1178 -0.1224 -0.1536
 2756SOL    HW2 8985   0.126   5.481   3.851  0.9965 -0.9331  0.1854
 2757SOL     OW 8986   4.449   4.758   0.570  0.1017  0.1843 -0.4850
 2757SOL    HW1 8987   4.356   4.755   0.591  0.1154  0.9764 -0.2713
 2757SOL    HW2 8988   4.475   4.667   0.558 -0.9542  0.0386 -1.6929
 2758SOL     OW 8989   1.854   5.492   4.981 -0.2864 -0.4679 -0.3164
 2758SOL    HW1 8990   1.772   5.525   5.019 -0.8271  0.4754 -2.2800
 2758SOL    HW2 8991   1.903   5.571   4.958  0.9723 -1.0370  0.3474
 2759SOL     OW 8992   1.270   5.876   5.539 -0.0974  0.2934  0.1388
 2759SOL    HW1 8993   1.269   5.947   5.474  1.8962 -0.8875 -1.2312
 2759SOL    HW2 8994   1.177   5.860   5.557 -0.6910  0.9192 -2.1336
 2760SOL     OW 8995   1.492   1.151   1.169  0.8436  0.1149  0.1271
 2760SOL    HW1 8996   1.565   1.120   1.115 -0.8397 -1.5332 -1.2908
 2760SOL    HW2 8997   1.448   1.071   1.198 -0.6378  1.0872  0.6209
 2761SOL     OW 8998   1.763   0.626   4.852  0.2736  0.3429  0.2533
 2761SOL    HW1 8999   1.810   0.642   4.934  1.0019 -2.9602  0.5502
 2761SOL    HW2 9000   1.672   0.648   4.871  0.5479  0.2074  1.7550
 2762SOL     OW 9001   0.991   1.537   5.101 -0.6782  0.3559 -0.3124
 2762SOL    HW1 9002   1.042   1.457   5.116  0.1440  1.0673  0.7090
 2762SOL    HW2 9003   1.026   1.573   5.019 -0.5304  0.0721 -0.3749
 2763SOL     OW 9004   2.463   2.173   6.566 -0.1205  0.0045  0.3012
 2763SOL    HW1 9005   2.428   2.215   6.644 -0.7752  2.4257 -1.2519
 2763SOL    HW2 9006   2.425   2.221   6.493  0.6037 -2.1010 -1.5429
 2764SOL     OW 9007   2.072   3.439   0.473  0.0873  0.7330 -0.0442
 2764SOL    HW1 9008   2.066   3.412   0.565  0.4598  0.0755 -0.2061
 2764SOL    HW2 9009   1.997   3.398   0.431  1.8221 -1.8580 -0.7150
 2765SOL     OW 9010   2.476   4.817   0.314  0.0810  0.0878 -0.5687
 2765SOL    HW1 9011   2.426   4.897   0.303  0.6020  0.2487 -1.7710
 2765SOL    HW2 9012   2.566   4.841   0.293 -0.0113 -1.1726 -2.5621
 2766SOL     OW 9013   5.142   1.842   2.321  0.4542  0.4361  0.4909
 2766SOL    HW1 9014   5.186   1.850   2.406  0.4863  1.9847  0.3430
 2766SOL    HW2 9015   5.050   1.859   2.340  0.3142 -0.1749  0.3653
 2767SOL     OW 9016   0.397   4.161   5.641 -0.5394  0.0779 -0.3779
 2767SOL    HW1 9017   0.405   4.234   5.703  1.3116 -0.5494  0.1642
 2767SOL    HW2 9018   0.454   4.186   5.568 -0.1497 -0.6623 -0.3348
 2768SOL     OW 9019   2.537   4.529   3.280 -0.0076 -0.9399  0.3602
 2768SOL    HW1 9020   2.577   4.614   3.260 -2.4466  0.5459  1.5659
 2768SOL    HW2 9021   2.488   4.507   3.201  0.8348 -1.3994 -0.0518
 2769SOL     OW 9022   6.076   4.878   2.914  0.2805 -0.0756  0.6282
 2769SOL    HW1 9023   5.983   4.884   2.931  0.7042 -0.9195  3.4399
 2769SOL    HW2 9024   6.088   4.924   2.830 -2.6831 -0.4150 -0.0365
 2770SOL     OW 9025   2.640   5.674   2.984 -0.2645 -0.1935 -0.4062
 2770SOL    HW1 9026   2.733   5.687   3.003 -0.2982 -0.2074 -0.2238
 2770SOL    HW2 9027   2.609   5.761   2.957 -0.4506  0.0767  0.6421
 2771SOL     OW 9028   2.572   1.800   6.319  0.0573 -0.0028 -0.3238
 2771SOL    HW1 9029   2.513   1.753   6.260  0.8230  1.1617 -2.0334
 2771SOL    HW2 9030   2.570   1.749   6.400 -3.0933 -0.1121 -0.4349
 2772SOL     OW 9031   3.202   2.356   1.990  0.6501  0.5184 -0.2940
 2772SOL    HW1 9032   3.179   2.266   1.970  0.0913  0.9100 -1.4404
 2772SOL    HW2 9033   3.154   2.409   1.926  1.3373  1.5989  0.0547
 2773SOL     OW 9034   6.497   5.081   5.218  0.1622  0.2552  0.5955
 2773SOL    HW1 9035   6.409   5.068   5.183  0.5948  1.0668 -0.8252
 2773SOL    HW2 9036   6.484   5.126   5.301 -0.8530 -1.2575  1.2616
 2774SOL     OW 9037   3.166   0.641   5.814  0.4569  0.4778  0.3165
 2774SOL    HW1 9038   3.156   0.560   5.863  0.9405 -0.4866 -1.1571
 2774SOL    HW2 9039   3.246   0.681   5.848  0.7605 -0.1643  0.3539
 2775SOL     OW 9040   1.275   2.293   6.104 -0.2410 -0.4011  0.1767
 2775SOL    HW1 9041   1.250   2.270   6.194 -1.9571 -0.0269 -0.1709
 2775SOL    HW2 9042   1.214   2.244   6.049 -0.1786  0.5235 -0.7343
 2776SOL     OW 9043   0.190   6.339   0.966  0.1032 -0.1219  0.2946
 2776SOL    HW1 9044   0.182   6.375   1.055 -1.2865 -3.0060  1.4270
 2776SOL    HW2 9045   0.116   6.375   0.918  0.2757  0.6478  0.6046
 2777SOL     OW 9046   1.179   1.644   4.762  0.2431 -0.0091  0.6606
 2777SOL    HW1 9047   1.243   1.709   4.793  1.0882 -0.2864 -0.4471
 2777SOL    HW2 9048   1.216   1.560   4.789 -0.2702 -0.0979  1.0848
 2778SOL     OW 9049   4.537   3.074   5.400  0.1769  0.6711 -0.1925
 2778SOL    HW1 9050   4.618   3.046   5.442  0.4349  1.4831 -0.1378
 2778SOL    HW2 9051   4.476   3.002   5.416 -0.5310  2.0627  3.8756
 2779SOL     OW 9052   1.206   0.053   1.020  0.1637  0.1107 -0.2322
 2779SOL    HW1 9053   1.249   0.102   1.091  0.0651 -3.4575  2.4488
 2779SOL    HW2 9054   1.115   0.083   1.021  0.3448  0.6371  0.6568
 2780SOL     OW 9055   3.108   1.112   5.002  0.5782  0.0385  0.2490
 2780SOL    HW1 9056   3.130   1.117   4.909 -1.0513  0.0120 -0.1491
 2780SOL    HW2 9057   3.012   1.115   5.005  0.6534  1.7132  2.0295
 2781SOL     OW 9058   3.270   2.600   3.014 -0.2648 -0.0719 -0.0082
 2781SOL    HW1 9059   3.204   2.656   2.974 -0.9381 -0.5562  0.4160
 2781SOL    HW2 9060   3.311   2.554   2.941 -1.6078 -1.0868 -0.1373
 2782SOL     OW 9061   6.692   3.430   2.619 -0.8261 -0.0952 -0.1707
 2782SOL    HW1 9062   6.679   3.510   2.568  2.0772  0.0078 -0.8231
 2782SOL    HW2 9063   6.715   3.363   2.555 -2.2222 -1.2221  0.4830
 2783SOL     OW 9064   5.915   2.393   4.405 -0.2208  0.1312 -0.0909
 2783SOL    HW1 9065   5.942   2.354   4.488 -0.4875 -1.6542 -0.8093
 2783SOL    HW2 9066   5.994   2.392   4.351 -0.8085 -1.8002 -0.9712
 2784SOL     OW 9067   4.745   6.765   1.258  0.1277  0.2668  0.2754
 2784SOL    HW1 9068   4.790   6.770   1.173  1.7122 -1.2727  0.9914
 2784SOL    HW2 9069   4.812   6.790   1.322 -0.2292 -1.3388  1.3095
 2785SOL     OW 9070   6.596   2.290   1.056  0.0599  0.1371  0.1569
 2785SOL    HW1 9071   6.573   2.372   1.100  0.1777  0.0340  0.4103
 2785SOL    HW2 9072   6.670   2.313   1.000  0.4559  0.0840  0.6499
 2786SOL     OW 9073   2.059   4.603   0.208  0.2841 -0.4461  0.6332
 2786SOL    HW1 9074   2.145   4.607   0.248  0.0186 -2.7219  1.4542
 2786SOL    HW2 9075   2.041   4.510   0.197 -1.8454  0.0124 -0.0193
 2787SOL     OW 9076   2.028   4.002   2.542 -0.9992 -1.2966  0.6864
 2787SOL    HW1 9077   2.101   4.025   2.599 -1.5873 -1.7365  1.6279
 2787SOL    HW2 9078   2.045   3.911   2.517 -0.1741 -0.7634 -0.7230
 2788SOL     OW 9079   1.503   4.724   5.968  0.3921 -0.2500  0.1456
 2788SOL    HW1 9080   1.422   4.672   5.966  0.1756  0.0661  0.7960
 2788SOL    HW2 9081   1.488   4.790   6.036  1.0804 -0.0020  0.0588
 2789SOL     OW 9082   4.699   3.919   5.736  0.1654  0.3802 -0.2786
 2789SOL    HW1 9083   4.794   3.931   5.744  0.3830 -0.7055 -1.0696
 2789SOL    HW2 9084   4.678   3.955   5.650  0.1569 -0.9606 -0.8581
 2790SOL     OW 9085   3.065   5.443   4.231 -0.1738  0.2017 -0.1138
 2790SOL    HW1 9086   3.065   5.373   4.165 -0.8763  0.4156 -0.3406
 2790SOL    HW2 9087   3.135   5.502   4.203  0.0023 -0.0788 -0.2731
 2791SOL     OW 9088   4.236   6.642   5.329 -0.4160 -0.1242  0.2476
 2791SOL    HW1 9089   4.322   6.600   5.317 -0.6588 -0.2961 -0.8857
 2791SOL    HW2 9090   4.173   6.573   5.310 -0.8425 -0.6606  3.2773
 2792SOL     OW 9091   3.703   0.618   1.264  0.2233 -0.3659 -0.0047
 2792SOL    HW1 9092   3.778   0.594   1.209 -0.1753 -1.8431  0.0871
 2792SOL    HW2 9093   3.716   0.711   1.282  1.2595 -0.2683 -1.1985
 2793SOL     OW 9094   0.022   2.193   4.034 -0.0308  0.6134  0.1214
 2793SOL    HW1 9095  -0.036   2.190   3.958  0.6829 -0.6600 -0.3915
 2793SOL    HW2 9096   0.110   2.194   3.996  0.3359 -0.1956  0.9433
 2794SOL     OW 9097   1.994   0.928   5.158 -0.0829  0.0053 -0.1163
 2794SOL    HW1 9098   2.086   0.902   5.154 -0.1403 -0.3828  1.0606
 2794SOL    HW2 9099   1.992   1.015   5.117  1.1927  1.0167  1.9197
 2795SOL     OW 9100   1.397   2.887   4.647 -0.3486 -0.6061 -0.0464
 2795SOL    HW1 9101   1.325   2.916   4.704 -0.6219 -2.0428  0.3591
 2795SOL    HW2 9102   1.450   2.966   4.634 -1.6952  0.3522  0.0932
 2796SOL     OW 9103   0.102   0.452   0.182  0.1449  0.8378 -0.8453
 2796SOL    HW1 9104   0.151   0.450   0.264 -3.2185 -0.0706  1.2661
 2796SOL    HW2 9105   0.134   0.377   0.132  0.6504  0.0605  0.6341
 2797SOL     OW 9106   5.932   0.638   0.821  0.4535 -0.4894  0.1342
 2797SOL    HW1 9107   5.949   0.610   0.911  0.0191 -2.3205 -0.3286
 2797SOL    HW2 9108   6.016   0.673   0.790  0.8937 -0.8696  0.8986
 2798SOL     OW 9109   2.894   6.144   2.292  0.2850  0.3583 -0.5947
 2798SOL    HW1 9110   2.941   6.081   2.346  0.4843  0.6479 -0.4238
 2798SOL    HW2 9111   2.866   6.095   2.215  1.0893  0.2455 -0.8144
 2799SOL     OW 9112   6.597   6.166   6.626 -0.4625  0.2070  0.0355
 2799SOL    HW1 9113   6.514   6.189   6.585 -1.4571 -0.2412  1.7286
 2799SOL    HW2 9114   6.603   6.070   6.617 -0.5059  0.1500  0.5913
 2800SOL     OW 9115   4.210   5.843   5.198 -0.6875 -0.3059 -0.3948
 2800SOL    HW1 9116   4.145   5.878   5.138 -0.3079  0.5199 -0.3415
 2800SOL    HW2 9117   4.162   5.784   5.255 -1.4718  0.6302 -0.0798
 2801SOL     OW 9118   0.069   1.828   2.300  0.5002 -0.1077 -0.6282
 2801SOL    HW1 9119   0.086   1.738   2.328  0.0580 -0.1900 -0.6137
 2801SOL    HW2 9120   0.000   1.858   2.360  1.0035  0.4072 -0.3107
 2802SOL     OW 9121   0.884   3.456   0.751  0.8234  0.3652  0.6199
 2802SOL    HW1 9122   0.965   3.431   0.707 -0.4888 -3.1592  0.0113
 2802SOL    HW2 9123   0.825   3.480   0.680  0.1896 -0.7097  0.7723
 2803SOL     OW 9124   4.838   2.229   2.205 -0.0844  0.7356 -0.6020
 2803SOL    HW1 9125   4.784   2.274   2.269 -0.3748  0.3734 -0.5873
 2803SOL    HW2 9126   4.928   2.251   2.229 -0.2331  1.5336 -0.7720
 2804SOL     OW 9127   3.964   0.003   6.524 -0.1707 -0.1495  0.2008
 2804SOL    HW1 9128   3.916   0.028   6.603 -0.8719  0.8636 -0.5329
 2804SOL    HW2 9129   4.014   0.081   6.500  0.8281 -0.7783  0.2006
 2805SOL     OW 9130   3.821   4.840   1.525 -1.0200 -0.0971  0.5111
 2805SOL    HW1 9131   3.804   4.752   1.493 -0.6966  0.0523 -0.0874
 2805SOL    HW2 9132   3.741   4.865   1.570 -1.2009 -0.6046  0.4729
 2806SOL     OW 9133   5.212   6.658   0.129  0.2971  0.8958 -0.0252
 2806SOL    HW1 9134   5.234   6.621   0.215 -1.5780  0.6335  0.3758
 2806SOL    HW2 9135   5.242   6.592   0.066 -1.0640 -0.3355  0.5830
 2807SOL     OW 9136   4.178   6.489   6.499 -0.2655  0.8809  0.2151
 2807SOL    HW1 9137   4.082   6.494   6.494 -0.2558  1.4317  0.6129
 2807SOL    HW2 9138   4.200   6.412   6.446 -0.9939  0.2565  0.8002
 2808SOL     OW 9139   2.186   5.059   4.306  0.0944 -0.7337 -1.1274
 2808SOL    HW1 9140   2.268   5.020   4.336 -0.4126 -1.4067 -0.6009
 2808SOL    HW2 9141   2.118   5.013   4.355 -0.4275  2.3383  1.2450
 2809SOL     OW 9142   5.812   6.011   5.966  0.0629 -0.4842 -0.1263
 2809SOL    HW1 9143   5.839   6.031   6.056  0.8061 -0.8398 -0.2597
 2809SOL    HW2 9144   5.741   5.948   5.975  0.2373 -0.6333  0.2089
 2810SOL     OW 9145   2.160   6.113   1.456 -0.4722  0.3310 -0.1684
 2810SOL    HW1 9146   2.209   6.195   1.446  0.3662 -0.2707 -1.1162
 2810SOL    HW2 9147   2.087   6.135   1.514  1.0830  1.1871  1.4967
 2811SOL     OW 9148   0.826   5.098   6.079 -0.0658 -0.1223 -0.6508
 2811SOL    HW1 9149   0.737   5.090   6.112 -0.3010 -2.2701 -1.7087
 2811SOL    HW2 9150   0.867   5.164   6.135 -2.2295  0.7322 -0.0105
 2812SOL     OW 9151   1.885   3.650   6.688  0.1406  0.4364  0.1296
 2812SOL    HW1 9152   1.821   3.636   6.757  0.2622 -2.6416 -0.3251
 2812SOL    HW2 9153   1.968   3.663   6.735  0.0381 -0.5671  0.5961
 2813SOL     OW 9154   0.260   5.276   3.188 -0.9598  0.4079 -0.0164
 2813SOL    HW1 9155   0.195   5.285   3.119 -0.6848  0.8852 -0.2092
 2813SOL    HW2 9156   0.262   5.182   3.206 -0.9841  0.2754 -0.6960
 2814SOL     OW 9157   1.825   5.684   6.361 -0.2820 -0.1383 -0.0847
 2814SOL    HW1 9158   1.747   5.631   6.376  2.4970 -4.0411  1.5046
 2814SOL    HW2 9159   1.853   5.662   6.272 -0.1201  0.0084 -0.0719
 2815SOL     OW 9160   3.654   0.855   4.666 -0.4368  0.1151  0.1419
 2815SOL    HW1 9161   3.637   0.775   4.617  1.1933  0.0871 -0.4192
 2815SOL    HW2 9162   3.671   0.825   4.756 -1.9911  0.0425  0.4263
 2816SOL     OW 9163   6.390   3.189   4.087 -0.1420  0.0533  0.3988
 2816SOL    HW1 9164   6.393   3.097   4.114 -1.2867  0.7393  3.1237
 2816SOL    HW2 9165   6.302   3.200   4.051  0.2281 -0.0808 -0.5406
 2817SOL     OW 9166   1.061   0.814   1.361 -0.0825 -0.3882  0.4457
 2817SOL    HW1 9167   1.009   0.888   1.391  1.1395  1.2028 -1.2484
 2817SOL    HW2 9168   1.100   0.777   1.440  0.0940  1.3962  1.1959
 2818SOL     OW 9169   4.196   5.452   2.169 -0.0133 -0.6239 -0.2005
 2818SOL    HW1 9170   4.139   5.381   2.138 -0.6526  0.0338 -0.5529
 2818SOL    HW2 9171   4.140   5.530   2.168  0.2154 -0.4076  1.7214
 2819SOL     OW 9172   4.629   3.791   3.385  0.0922  1.4051  0.3617
 2819SOL    HW1 9173   4.661   3.805   3.474 -0.1640 -0.7280  0.8213
 2819SOL    HW2 9174   4.535   3.810   3.390 -0.1081  0.3435  0.7941
 2820SOL     OW 9175   2.145   6.368   2.633  0.3002 -0.1482 -0.0270
 2820SOL    HW1 9176   2.220   6.310   2.622 -0.5661 -1.4715  0.8324
 2820SOL    HW2 9177   2.090   6.352   2.556  0.2121 -0.2548  0.0567
 2821SOL     OW 9178   1.232   0.542   3.785 -1.4242  0.3171  0.0264
 2821SOL    HW1 9179   1.145   0.513   3.757 -0.9394  0.8024 -2.0519
 2821SOL    HW2 9180   1.269   0.584   3.708  0.9374 -0.4877  0.6881
 2822SOL     OW 9181   5.921   4.707   5.559  0.0168 -0.0894 -0.3638
 2822SOL    HW1 9182   5.885   4.650   5.490  0.6916 -0.8004 -0.1363
 2822SOL    HW2 9183   6.006   4.669   5.579  0.8672  1.5318 -0.8202
 2823SOL     OW 9184   0.792   5.895   5.531  0.2305 -0.0709 -0.0772
 2823SOL    HW1 9185   0.806   5.848   5.449 -0.1264  0.0494 -0.2083
 2823SOL    HW2 9186   0.709   5.940   5.519  0.8861  1.1175 -0.2009
 2824SOL     OW 9187   5.579   0.579   5.267  0.2159  0.1528 -0.1108
 2824SOL    HW1 9188   5.645   0.548   5.205 -0.2999  1.6261 -1.4319
 2824SOL    HW2 9189   5.619   0.567   5.353  1.0062 -1.7789 -0.7086
 2825SOL     OW 9190   3.126   1.910   1.639  0.7018 -0.0401  0.3852
 2825SOL    HW1 9191   3.067   1.945   1.572  0.5608 -1.1842 -0.0884
 2825SOL    HW2 9192   3.127   1.816   1.624  1.5827 -0.1790  1.2624
 2826SOL     OW 9193   2.196   5.228   0.575  0.2342  0.4566  0.2655
 2826SOL    HW1 9194   2.246   5.174   0.636  0.6413  0.3623 -0.1464
 2826SOL    HW2 9195   2.257   5.296   0.547  0.7233 -0.7282 -1.6441
 2827SOL     OW 9196   2.322   4.744   3.837  0.2473  0.4423  0.2295
 2827SOL    HW1 9197   2.273   4.814   3.793  1.1473  0.9652  0.0484
 2827SOL    HW2 9198   2.285   4.663   3.802  0.5412  0.8493 -1.0312
 2828SOL     OW 9199   4.498   3.840   0.082 -0.2548 -0.1780 -0.6056
 2828SOL    HW1 9200   4.439   3.859   0.009 -0.3849  0.8990 -0.2259
 2828SOL    HW2 9201   4.440   3.820   0.155 -0.1412  0.0899 -0.4418
 2829SOL     OW 9202   5.992   5.058   1.987 -0.4921 -0.0649  0.0689
 2829SOL    HW1 9203   6.003   4.967   1.957 -1.1515 -0.6911  1.6349
 2829SOL    HW2 9204   6.008   5.111   1.910  2.6491 -1.3771 -0.2372
 2830SOL     OW 9205   3.335   1.083   2.011  0.4225  0.5677 -1.0873
 2830SOL    HW1 9206   3.345   1.027   1.934  1.8460  1.7641 -1.7955
 2830SOL    HW2 9207   3.409   1.144   2.006 -0.9152  2.3034 -0.1612
 2831SOL     OW 9208   3.761   6.267   4.282  0.2880 -0.7949  0.4296
 2831SOL    HW1 9209   3.773   6.270   4.377 -0.7617  1.7844  0.5152
 2831SOL    HW2 9210   3.836   6.218   4.250  2.1724  0.7269  2.3620
 2832SOL     OW 9211   4.574   3.668   2.702 -0.2780 -0.2525 -0.4037
 2832SOL    HW1 9212   4.607   3.667   2.792 -1.7344  0.2837  0.1429
 2832SOL    HW2 9213   4.629   3.733   2.657  0.2510 -0.3038  0.1581
 2833SOL     OW 9214   2.188   2.070   2.950 -0.1753  0.0612 -0.3525
 2833SOL    HW1 9215   2.126   2.125   2.902 -1.5440 -1.4109 -0.2980
 2833SOL    HW2 9216   2.230   2.130   3.013 -1.8137  0.9892 -0.1229
 2834SOL     OW 9217   1.067   6.034   2.025 -0.2006  0.1748 -0.3153
 2834SOL    HW1 9218   1.102   5.945   2.020  1.5227  0.8185 -0.0978
 2834SOL    HW2 9219   1.031   6.041   2.113  1.5242  0.3389  0.3992
 2835SOL     OW 9220   1.113   1.174   0.246 -0.0410 -0.0061  0.4199
 2835SOL    HW1 9221   1.190   1.210   0.289 -0.2387  1.0010 -0.0498
 2835SOL    HW2 9222   1.071   1.249   0.204  1.0576 -1.1608 -2.9793
 2836SOL     OW 9223   4.567   1.101   2.656 -0.6793  0.3526 -0.2616
 2836SOL    HW1 9224   4.480   1.086   2.692 -0.1822  0.3926  0.9785
 2836SOL    HW2 9225   4.626   1.098   2.732  0.6040 -1.3014 -1.2872
 2837SOL     OW 9226   0.701   6.259   0.702 -0.0574 -0.0608 -0.0073
 2837SOL    HW1 9227   0.636   6.300   0.759  1.1419 -0.1982  1.5152
 2837SOL    HW2 9228   0.659   6.180   0.670 -1.1038  0.5170 -0.0789
 2838SOL     OW 9229   1.383   1.328   0.277 -0.5560  0.3176 -0.3717
 2838SOL    HW1 9230   1.422   1.378   0.205 -0.2886  0.1556 -0.3382
 2838SOL    HW2 9231   1.405   1.377   0.356  1.1461 -0.7307 -0.1669
 2839SOL     OW 9232   4.273   5.709   1.783 -0.1836 -0.0143 -0.0246
 2839SOL    HW1 9233   4.203   5.644   1.777  0.4885 -1.1152  2.8207
 2839SOL    HW2 9234   4.347   5.669   1.737 -0.5220 -0.2098 -0.3970
 2840SOL     OW 9235   1.403   5.550   4.121  0.1643  0.0339 -0.0241
 2840SOL    HW1 9236   1.378   5.498   4.044 -1.1980  1.0631 -0.3048
 2840SOL    HW2 9237   1.438   5.486   4.183  0.7477 -0.8913 -1.2834
 2841SOL     OW 9238   4.609   1.378   5.140  0.1518 -0.3317  0.4472
 2841SOL    HW1 9239   4.603   1.473   5.152 -0.0953 -0.3520  0.4856
 2841SOL    HW2 9240   4.691   1.354   5.182 -0.1140 -0.2285  1.0252
 2842SOL     OW 9241   3.834   4.743   3.065  0.2114  0.2085  0.4714
 2842SOL    HW1 9242   3.842   4.711   2.975  0.0285 -1.4610  1.0292
 2842SOL    HW2 9243   3.903   4.809   3.073 -0.0791  0.7223 -1.0307
 2843SOL     OW 9244   3.193   4.875   0.584  0.5374 -0.5154 -0.6276
 2843SOL    HW1 9245   3.239   4.804   0.539  0.9631 -1.6837  1.6191
 2843SOL    HW2 9246   3.250   4.898   0.658 -0.3511  1.1018 -0.4125
 2844SOL     OW 9247   5.572   1.687   3.248  0.6164  0.3824 -0.2823
 2844SOL    HW1 9248   5.514   1.740   3.193  0.3443  0.4098  0.0302
 2844SOL    HW2 9249   5.581   1.604   3.200  0.9949  0.6888 -0.7422
 2845SOL     OW 9250   0.037   0.813   0.502 -0.1371 -0.6458  0.2854
 2845SOL    HW1 9251  -0.026   0.740   0.510 -2.2863  1.0494 -0.5817
 2845SOL    HW2 9252   0.122   0.772   0.517 -1.3815 -3.1235  1.0478
 2846SOL     OW 9253   0.261   6.394   1.635 -0.3166 -0.4175  1.0325
 2846SOL    HW1 9254   0.307   6.478   1.635 -1.3325  0.1483  1.4781
 2846SOL    HW2 9255   0.292   6.350   1.715 -0.8703  0.1357  1.5487
 2847SOL     OW 9256   3.382   2.637   3.286 -0.1536  0.3947 -0.7397
 2847SOL    HW1 9257   3.422   2.550   3.287 -1.9766 -0.4768 -0.9160
 2847SOL    HW2 9258   3.322   2.635   3.211 -1.8675  1.0248  0.5834
 2848SOL     OW 9259   2.567   5.165   3.592  0.0647  0.1474  0.6352
 2848SOL    HW1 9260   2.643   5.178   3.649 -0.4633  1.2970  1.1060
 2848SOL    HW2 9261   2.520   5.248   3.597 -1.0010 -0.4149  0.0193
 2849SOL     OW 9262   5.578   4.982   4.205  0.1655 -0.4263 -0.1378
 2849SOL    HW1 9263   5.671   4.999   4.221 -0.2297  1.4533  0.2077
 2849SOL    HW2 9264   5.539   5.068   4.194 -1.6155 -1.1854  0.0813
 2850SOL     OW 9265   4.855   2.412   1.654 -0.2070 -0.4967 -0.4073
 2850SOL    HW1 9266   4.794   2.476   1.689 -0.7349 -1.8426  1.2351
 2850SOL    HW2 9267   4.799   2.344   1.616  0.2296 -1.6950  1.0248
 2851SOL     OW 9268   4.868   3.158   2.161 -0.2039  0.1865 -0.3290
 2851SOL    HW1 9269   4.924   3.215   2.214 -0.6997 -0.4807  0.9161
 2851SOL    HW2 9270   4.916   3.148   2.079  1.0120  0.4617  0.3395
 2852SOL     OW 9271   2.265   6.471   1.958  0.8362 -0.3402 -0.1455
 2852SOL    HW1 9272   2.351   6.481   1.919  0.7029  0.7325 -0.1770
 2852SOL    HW2 9273   2.255   6.547   2.016 -1.2877  1.1971 -2.4185
 2853SOL     OW 9274   4.372   0.817   4.996  0.1112 -0.2777  0.6944
 2853SOL    HW1 9275   4.288   0.802   5.040 -0.1858  1.7084  0.8717
 2853SOL    HW2 9276   4.379   0.913   4.990  1.2410 -0.4632 -1.4716
 2854SOL     OW 9277   3.492   4.739   3.329 -0.1904 -0.2313 -0.7526
 2854SOL    HW1 9278   3.408   4.724   3.286 -1.2196 -1.2383  1.5569
 2854SOL    HW2 9279   3.556   4.694   3.273 -1.5111 -1.5972 -1.1968
 2855SOL     OW 9280   5.349   5.734   2.924  0.5366  0.1694  0.7991
 2855SOL    HW1 9281   5.349   5.829   2.920 -2.3995  0.1540 -1.5633
 2855SOL    HW2 9282   5.264   5.711   2.961  0.6265 -1.5288  0.0275
 2856SOL     OW 9283   3.086   5.379   5.027  0.7137  0.3871 -0.6477
 2856SOL    HW1 9284   3.173   5.395   4.990  2.2395 -0.6638  2.2957
 2856SOL    HW2 9285   3.050   5.467   5.042  2.3149  0.8909  0.3975
 2857SOL     OW 9286   3.364   4.278   1.435  0.6352  0.7428  0.0158
 2857SOL    HW1 9287   3.295   4.276   1.502  0.8044  4.0399  0.3865
 2857SOL    HW2 9288   3.438   4.233   1.476  0.0901  0.9656  1.2784
 2858SOL     OW 9289   5.578   5.082   4.661 -0.0108  0.3855 -0.5347
 2858SOL    HW1 9290   5.578   4.987   4.648  1.8124  0.3010 -0.0240
 2858SOL    HW2 9291   5.486   5.106   4.660 -0.5356 -1.5184  0.1786
 2859SOL     OW 9292   4.775   4.113   5.995  0.8840 -0.2260 -0.2975
 2859SOL    HW1 9293   4.805   4.183   6.053 -0.3422 -0.5560  0.7623
 2859SOL    HW2 9294   4.680   4.115   6.002  0.7145 -0.3254 -2.2650
 2860SOL     OW 9295   1.612   3.589   0.968 -0.1960 -0.2015 -0.0846
 2860SOL    HW1 9296   1.624   3.624   1.056  1.3703 -1.7623  0.3591
 2860SOL    HW2 9297   1.657   3.651   0.910 -1.3575  0.9048  0.1636
 2861SOL     OW 9298   1.361   1.809   4.184  0.3429  0.1841 -0.9285
 2861SOL    HW1 9299   1.448   1.817   4.225 -0.3254  0.6272  0.4442
 2861SOL    HW2 9300   1.302   1.853   4.246 -0.5022  2.1286 -3.0692
 2862SOL     OW 9301   0.815   2.066   2.894  0.4092  0.0190 -0.8011
 2862SOL    HW1 9302   0.737   2.120   2.906  1.4196  1.4418 -0.4908
 2862SOL    HW2 9303   0.818   2.010   2.971  1.5615  2.3745  0.9256
 2863SOL     OW 9304   2.081   1.012   2.758 -0.3415 -0.4010  0.0874
 2863SOL    HW1 9305   1.986   1.020   2.764 -0.3388 -1.3123  1.3958
 2863SOL    HW2 9306   2.114   1.045   2.842  0.3822 -1.8804  0.3993
 2864SOL     OW 9307   1.241   2.173   0.970 -0.3131  0.4138 -0.1269
 2864SOL    HW1 9308   1.153   2.165   0.932 -0.8874 -1.9663  1.5970
 2864SOL    HW2 9309   1.225   2.184   1.064  1.2542 -1.3171  0.3592
 2865SOL     OW 9310   1.317   5.004   2.900 -0.1375 -0.4071 -0.7965
 2865SOL    HW1 9311   1.369   4.972   2.974  1.2887 -3.2570 -2.9474
 2865SOL    HW2 9312   1.238   5.041   2.941  1.4040 -0.3080  2.2388
 2866SOL     OW 9313   2.265   0.249   3.995 -0.0536  0.3863 -0.0748
 2866SOL    HW1 9314   2.194   0.312   4.006  0.6405  1.4014 -1.3123
 2866SOL    HW2 9315   2.330   0.295   3.942  0.8854 -1.0397 -0.1859
 2867SOL     OW 9316   2.940   6.430   0.065  0.2695  0.0757  0.1297
 2867SOL    HW1 9317   2.881   6.364   0.027  0.7185 -0.7865  0.9198
 2867SOL    HW2 9318   2.914   6.435   0.157  2.4833 -1.4859  0.8678
 2868SOL     OW 9319   5.839   4.970   4.225 -0.2552 -0.3867 -0.1561
 2868SOL    HW1 9320   5.892   5.001   4.299  0.1351 -0.2743 -0.4858
 2868SOL    HW2 9321   5.897   4.975   4.150 -0.7256 -0.2890 -0.5119
 2869SOL     OW 9322   5.855   5.892   2.107 -0.2929 -0.5254  0.5577
 2869SOL    HW1 9323   5.949   5.905   2.092 -0.4948  0.5321  0.1679
 2869SOL    HW2 9324   5.838   5.936   2.190 -0.4524 -0.6321  0.5803
 2870SOL     OW 9325   6.182   1.304   5.228  0.3677 -0.0167 -0.5053
 2870SOL    HW1 9326   6.276   1.309   5.246 -0.0791  0.2508  1.8893
 2870SOL    HW2 9327   6.177   1.290   5.133  2.7966  0.8205 -0.8048
 2871SOL     OW 9328   0.113   2.350   6.610  0.0967 -0.0919 -0.0037
 2871SOL    HW1 9329   0.060   2.349   6.689  2.5132  0.4486  1.6782
 2871SOL    HW2 9330   0.111   2.442   6.581  0.1208 -0.0711  0.0621
 2872SOL     OW 9331   6.328   6.637   0.142  0.3262  0.3427 -0.2009
 2872SOL    HW1 9332   6.332   6.584   0.222 -2.9306  0.3343  0.0186
 2872SOL    HW2 9333   6.325   6.572   0.071 -3.0289  0.1514  0.0368
 2873SOL     OW 9334   2.267   4.035   2.894  0.0696  0.1555 -0.3066
 2873SOL    HW1 9335   2.333   3.971   2.866 -0.1861  0.5737 -1.9396
 2873SOL    HW2 9336   2.318   4.108   2.930  0.4859  0.1814 -0.9289
 2874SOL     OW 9337   5.874   4.576   6.527  0.3353  0.1915  0.1987
 2874SOL    HW1 9338   5.952   4.624   6.498  0.8256 -0.5927  0.2204
 2874SOL    HW2 9339   5.806   4.601   6.464  0.8076  0.2461 -0.2936
 2875SOL     OW 9340   1.475   1.410   6.210 -0.3541 -0.2038 -0.7054
 2875SOL    HW1 9341   1.493   1.317   6.227 -0.0703 -0.1498 -0.6959
 2875SOL    HW2 9342   1.550   1.455   6.248  0.1194 -0.0541 -1.8017
 2876SOL     OW 9343   2.033   5.075   2.572  0.3403 -0.0112  0.4343
 2876SOL    HW1 9344   1.969   5.115   2.630  0.1313 -0.0484  0.2312
 2876SOL    HW2 9345   2.103   5.140   2.564 -0.6501  0.9110 -1.0089
 2877SOL     OW 9346   4.515   4.825   4.347  0.8020  0.0184  1.0424
 2877SOL    HW1 9347   4.607   4.826   4.373  1.6754 -0.3968 -1.9536
 2877SOL    HW2 9348   4.470   4.866   4.421  3.6964  2.6767  1.4451
 2878SOL     OW 9349   4.102   6.134   6.136 -0.2920  0.7333  0.1229
 2878SOL    HW1 9350   4.103   6.178   6.051 -1.4691  1.2004  0.3466
 2878SOL    HW2 9351   4.034   6.067   6.127 -1.6447  1.9215  1.2534
 2879SOL     OW 9352   3.430   5.434   1.088 -0.1036 -0.0641 -0.1807
 2879SOL    HW1 9353   3.392   5.359   1.044 -1.3881  0.9971 -0.9284
 2879SOL    HW2 9354   3.356   5.493   1.103  0.6502  0.4599  1.6122
 2880SOL     OW 9355   6.359   0.946   6.516  0.4051  0.0810 -0.0919
 2880SOL    HW1 9356   6.345   0.876   6.579 -0.9477 -0.6172 -1.1347
 2880SOL    HW2 9357   6.277   0.995   6.515  0.7429  0.6464 -0.6144
 2881SOL     OW 9358   1.903   1.441   5.636 -0.2964 -0.7076  0.1670
 2881SOL    HW1 9359   1.928   1.369   5.577 -0.4624 -0.2219 -0.4971
 2881SOL    HW2 9360   1.984   1.465   5.680 -0.1830 -1.1180  0.1834
 2882SOL     OW 9361   2.881   3.380   4.793  0.1466 -0.5455  0.0178
 2882SOL    HW1 9362   2.871   3.300   4.845  1.6969 -2.3513 -2.3847
 2882SOL    HW2 9363   2.832   3.446   4.843 -1.6285 -3.0660  1.7987
 2883SOL     OW 9364   5.786   2.233   6.529  0.5710  0.2071  0.4656
 2883SOL    HW1 9365   5.706   2.249   6.581 -0.8359 -0.5869 -1.4081
 2883SOL    HW2 9366   5.853   2.216   6.594 -0.5500  1.8848  2.1445
 2884SOL     OW 9367   0.763   2.190   5.088  0.1550  0.1585 -0.2780
 2884SOL    HW1 9368   0.846   2.200   5.134 -0.1428 -1.2680  0.5827
 2884SOL    HW2 9369   0.760   2.265   5.029  1.1412  1.3081  1.0930
 2885SOL     OW 9370   4.219   6.305   1.840  0.0365  0.0320  0.0384
 2885SOL    HW1 9371   4.178   6.220   1.861  2.2936 -0.6152  1.9004
 2885SOL    HW2 9372   4.211   6.356   1.920  0.8972  0.7137 -0.3134
 2886SOL     OW 9373   0.483   4.286   3.252  0.2015 -0.0698 -0.1833
 2886SOL    HW1 9374   0.555   4.349   3.249 -0.9415  1.2356 -0.8421
 2886SOL    HW2 9375   0.526   4.202   3.266  1.5660  1.1485  3.6925
 2887SOL     OW 9376   6.445   2.437   3.307 -0.7677  0.0271  0.2803
 2887SOL    HW1 9377   6.514   2.371   3.315 -0.7333  0.1368  0.8746
 2887SOL    HW2 9378   6.490   2.514   3.272 -0.0382  0.9664  3.1731
 2888SOL     OW 9379   5.201   0.083   4.306 -0.3665  0.1057  0.5694
 2888SOL    HW1 9380   5.141   0.141   4.352 -0.7129  1.7550 -1.8319
 2888SOL    HW2 9381   5.284   0.130   4.306  0.0725 -0.6682  1.0313
 2889SOL     OW 9382   2.140   1.809   3.005 -0.0773 -0.2987 -0.3214
 2889SOL    HW1 9383   2.148   1.901   2.982 -1.7159 -0.3328 -1.1277
 2889SOL    HW2 9384   2.211   1.766   2.957  0.4449  0.4851 -0.2538
 2890SOL     OW 9385   6.215   6.575   4.302  0.4746 -0.2871  0.0987
 2890SOL    HW1 9386   6.190   6.486   4.329  0.5349 -0.0970  0.7875
 2890SOL    HW2 9387   6.133   6.624   4.307  0.8054  0.1517  1.6061
 2891SOL     OW 9388   1.361   4.256   2.103  0.0060  0.1681  0.3358
 2891SOL    HW1 9389   1.279   4.260   2.152  1.7339 -2.5438  3.6474
 2891SOL    HW2 9390   1.349   4.184   2.041 -0.4565  0.4865  0.0486
 2892SOL     OW 9391   0.138   5.041   2.772 -0.3587  0.6046  0.4134
 2892SOL    HW1 9392   0.158   5.110   2.709  0.2161  0.8320  0.8435
 2892SOL    HW2 9393   0.052   5.064   2.806 -0.1634  1.1204  0.5658
 2893SOL     OW 9394   6.237   0.442   4.910 -0.2103  0.3265 -0.0430
 2893SOL    HW1 9395   6.143   0.440   4.922 -0.3496  2.8116 -0.2898
 2893SOL    HW2 9396   6.274   0.429   4.997 -0.8117  0.1986  0.1873
 2894SOL     OW 9397   5.417   1.127   5.911  0.1622 -0.3921  0.0999
 2894SOL    HW1 9398   5.345   1.086   5.863  0.3299 -1.3122  0.6236
 2894SOL    HW2 9399   5.483   1.144   5.844 -0.5406  0.4457 -0.3802
 2895SOL     OW 9400   2.975   3.888   6.048  0.4261 -0.2181  0.2643
 2895SOL    HW1 9401   2.894   3.937   6.036 -0.3053 -0.7699  2.6403
 2895SOL    HW2 9402   2.951   3.797   6.027  1.3101  0.0851 -2.2933
 2896SOL     OW 9403   5.287   2.777   3.316  0.7072  0.1711  0.1020
 2896SOL    HW1 9404   5.245   2.748   3.235  1.4189 -1.1417  0.1984
 2896SOL    HW2 9405   5.292   2.872   3.307  1.0239  0.0224 -1.5323
 2897SOL     OW 9406   4.341   0.359   2.202 -0.5656 -0.4071  0.1507
 2897SOL    HW1 9407   4.309   0.370   2.113 -1.4814  1.9327  0.7269
 2897SOL    HW2 9408   4.412   0.423   2.210 -1.1756  0.1282  1.4064
 2898SOL     OW 9409   0.561   6.379   1.781 -0.2269 -0.2418 -0.6750
 2898SOL    HW1 9410   0.632   6.427   1.739 -0.8102 -0.0430 -1.4448
 2898SOL    HW2 9411   0.506   6.447   1.821  1.2772 -0.5130  1.9813
 2899SOL     OW 9412   0.416   2.100   5.872 -0.6327 -0.2278  0.1768
 2899SOL    HW1 9413   0.492   2.148   5.838 -2.2042  0.9812 -1.7507
 2899SOL    HW2 9414   0.420   2.114   5.967  0.7897  0.9584 -0.0253
 2900SOL     OW 9415   1.085   6.714   3.569  0.5670 -0.3343 -0.4829
 2900SOL    HW1 9416   1.115   6.638   3.518  2.0953  1.0366 -1.6733
 2900SOL    HW2 9417   1.165   6.764   3.586 -0.3523  0.7136  0.7900
 2901SOL     OW 9418   5.438   1.732   1.937 -0.0893 -0.0857 -0.0144
 2901SOL    HW1 9419   5.434   1.822   1.903  0.5549 -0.2539 -0.5455
 2901SOL    HW2 9420   5.420   1.742   2.031  2.0440  0.8615  0.3206
 2902SOL     OW 9421   0.653   0.178   4.351 -0.1824  0.2565  0.2274
 2902SOL    HW1 9422   0.747   0.187   4.333  0.1983 -0.3532  1.8387
 2902SOL    HW2 9423   0.648   0.106   4.414 -1.7102  0.4631  0.3478
 2903SOL     OW 9424   2.141   5.061   1.503  0.1041 -0.1014  0.3935
 2903SOL    HW1 9425   2.224   5.027   1.535 -0.4650 -1.3458  0.5607
 2903SOL    HW2 9426   2.090   5.080   1.582  0.2012  0.6151  0.2912
 2904SOL     OW 9427   0.159   6.678   5.374  0.2303  0.5273 -0.3581
 2904SOL    HW1 9428   0.069   6.674   5.404  0.5352 -1.1491  0.3584
 2904SOL    HW2 9429   0.153   6.677   5.278 -0.4648 -0.4744 -0.3038
 2905SOL     OW 9430   4.046   1.862   6.553 -0.9007 -0.1171 -0.4406
 2905SOL    HW1 9431   3.970   1.918   6.572 -0.2693  1.4466 -2.3907
 2905SOL    HW2 9432   4.091   1.906   6.481  1.9615 -0.9531  0.7776
 2906SOL     OW 9433   0.618   0.110   0.190  0.0106 -0.6172 -0.1721
 2906SOL    HW1 9434   0.682   0.167   0.233 -1.2795 -2.8185  4.9151
 2906SOL    HW2 9435   0.633   0.023   0.227 -2.8700 -2.1363 -2.3304
 2907SOL     OW 9436   4.160   0.496   5.427 -0.1243  0.5849  0.5780
 2907SOL    HW1 9437   4.136   0.424   5.486  1.1208 -2.0845 -2.0423
 2907SOL    HW2 9438   4.087   0.502   5.365 -1.2093  3.0648  2.0036
 2908SOL     OW 9439   0.888   4.447   5.357 -0.0372  0.0803 -0.3313
 2908SOL    HW1 9440   0.961   4.489   5.402  0.0635 -0.1816 -0.2533
 2908SOL    HW2 9441   0.879   4.497   5.275 -0.2098  0.5406 -0.0321
 2909SOL     OW 9442   2.221   3.646   3.669  0.0395 -0.2085 -0.6082
 2909SOL    HW1 9443   2.179   3.663   3.753  1.1732 -1.5598  0.2468
 2909SOL    HW2 9444   2.192   3.559   3.643 -0.0902  0.0872 -1.5006
 2910SOL     OW 9445   6.532   5.350   4.138  0.0901 -0.2668  0.3382
 2910SOL    HW1 9446   6.447   5.391   4.157 -0.3081 -1.0881  0.3466
 2910SOL    HW2 9447   6.509   5.266   4.097  0.9108  0.1329 -0.9544
 2911SOL     OW 9448   6.701   1.141   5.463  0.6903  0.4400 -0.0175
 2911SOL    HW1 9449   6.620   1.090   5.476  0.9806  0.3819  1.5929
 2911SOL    HW2 9450   6.751   1.089   5.399  0.0428 -0.2127 -0.0062
 2912SOL     OW 9451   0.467   1.231   2.208 -0.1138  0.0377  0.3978
 2912SOL    HW1 9452   0.413   1.262   2.281 -0.0244  0.8588  0.1184
 2912SOL    HW2 9453   0.456   1.298   2.140  1.6335  0.4803  0.5176
 2913SOL     OW 9454   2.835   3.220   4.573 -0.1439  0.5997  0.2132
 2913SOL    HW1 9455   2.877   3.149   4.621 -2.8251 -0.0879  1.6952
 2913SOL    HW2 9456   2.837   3.294   4.634  0.0510  0.9408 -0.2040
 2914SOL     OW 9457   6.058   0.149   4.085 -0.0514  0.3596 -0.1379
 2914SOL    HW1 9458   6.068   0.234   4.043 -0.5244  0.2563 -0.4674
 2914SOL    HW2 9459   6.103   0.088   4.025 -0.6726  0.2212 -0.4695
 2915SOL     OW 9460   5.289   3.226   3.433  0.2416  0.4207  0.1842
 2915SOL    HW1 9461   5.215   3.182   3.475 -0.5850 -0.3273 -1.9962
 2915SOL    HW2 9462   5.293   3.312   3.475  0.5479 -0.9181  2.9967
 2916SOL     OW 9463   5.461   3.003   5.218  0.1690  0.1534 -0.1966
 2916SOL    HW1 9464   5.529   2.989   5.283  0.2316 -0.5250 -0.4074
 2916SOL    HW2 9465   5.379   2.986   5.264  0.1951  0.0167 -0.1999
 2917SOL     OW 9466   4.121   3.161   4.755 -0.1610 -0.0054  0.2462
 2917SOL    HW1 9467   4.192   3.185   4.816  0.4702  1.0888 -0.8947
 2917SOL    HW2 9468   4.041   3.173   4.806  0.3327  1.4900  0.6997
 2918SOL     OW 9469   1.712   3.458   4.214  0.2411 -0.2625  0.7157
 2918SOL    HW1 9470   1.736   3.498   4.130 -1.8589  0.1766  0.3135
 2918SOL    HW2 9471   1.760   3.510   4.279  1.7485 -0.4964 -0.1876
 2919SOL     OW 9472   3.260   6.268   3.146  0.1449 -0.1360 -0.5005
 2919SOL    HW1 9473   3.201   6.194   3.164 -0.2793 -0.0129 -1.4038
 2919SOL    HW2 9474   3.336   6.227   3.105  0.5623 -0.2534  0.3702
 2920SOL     OW 9475   1.757   5.169   6.280  0.3423  0.0488  0.4203
 2920SOL    HW1 9476   1.839   5.121   6.274 -0.0729 -0.6797  0.5761
 2920SOL    HW2 9477   1.741   5.179   6.374  0.5810  0.7610  0.3914
 2921SOL     OW 9478   3.282   6.482   2.714 -0.4361 -0.1916  0.1604
 2921SOL    HW1 9479   3.211   6.438   2.762  0.6899 -2.9326 -0.5550
 2921SOL    HW2 9480   3.259   6.471   2.622  1.8250 -2.8418 -0.1494
 2922SOL     OW 9481   1.289   2.359   3.485 -0.1423 -0.0312  0.5934
 2922SOL    HW1 9482   1.332   2.429   3.435  1.2046 -1.3204 -0.0939
 2922SOL    HW2 9483   1.359   2.323   3.540 -0.9804 -0.4102  1.4275
 2923SOL     OW 9484   6.448   0.016   1.978  0.0674  0.3747 -0.4876
 2923SOL    HW1 9485   6.527  -0.018   1.937 -0.1591 -1.5644  0.6112
 2923SOL    HW2 9486   6.395  -0.062   1.996 -1.4382  1.5182  0.1283
 2924SOL     OW 9487   4.118   5.000   4.338  0.7052  0.4615 -0.2949
 2924SOL    HW1 9488   4.038   5.024   4.384  1.1505  0.9840  0.2322
 2924SOL    HW2 9489   4.146   5.082   4.295 -0.1530 -0.2176 -2.2002
 2925SOL     OW 9490   2.115   6.121   1.167 -0.2146  0.2104  0.1412
 2925SOL    HW1 9491   2.064   6.110   1.247  0.5636  0.0014  0.6163
 2925SOL    HW2 9492   2.116   6.216   1.152  1.2778  0.4470  1.4829
 2926SOL     OW 9493   2.289   2.325   5.486  0.1115  0.3974 -0.2316
 2926SOL    HW1 9494   2.239   2.393   5.530  1.0237  0.1657  1.1639
 2926SOL    HW2 9495   2.252   2.322   5.397 -0.8073  1.7883  0.0958
 2927SOL     OW 9496   3.234   1.410   1.059 -0.1816  0.2646 -0.6444
 2927SOL    HW1 9497   3.293   1.486   1.068 -1.9257  1.3967  1.8959
 2927SOL    HW2 9498   3.157   1.434   1.110 -1.3943 -2.6325 -1.0455
 2928SOL     OW 9499   2.307   5.136   0.801 -0.1293  0.2495 -1.1429
 2928SOL    HW1 9500   2.295   5.180   0.885 -0.2519  1.1242 -1.6093
 2928SOL    HW2 9501   2.298   5.042   0.821  0.2150  0.4291 -0.1304
 2929SOL     OW 9502   3.698   2.473   1.886 -0.0718 -0.2284  0.2991
 2929SOL    HW1 9503   3.676   2.566   1.874 -1.6084 -0.6566 -0.3202
 2929SOL    HW2 9504   3.619   2.434   1.924 -0.1949 -1.6619 -1.3166
 2930SOL     OW 9505   5.216   5.100   4.294 -0.3587 -0.8635 -0.0321
 2930SOL    HW1 9506   5.153   5.033   4.322 -1.0226 -0.5231 -0.6855
 2930SOL    HW2 9507   5.256   5.063   4.215 -2.4733  0.5002 -1.8220
 2931SOL     OW 9508   5.807   1.076   0.708  0.0376 -0.2962  0.3726
 2931SOL    HW1 9509   5.763   1.117   0.782  0.1332 -0.4320  0.5054
 2931SOL    HW2 9510   5.737   1.030   0.661  0.0148 -0.3910  0.5008
 2932SOL     OW 9511   1.940   2.038   4.408 -0.0127  0.3605  0.3287
 2932SOL    HW1 9512   1.956   2.121   4.363  1.5216 -0.3918 -0.5515
 2932SOL    HW2 9513   2.017   2.025   4.463 -0.9091  0.2218  1.5849
 2933SOL     OW 9514   1.051   2.810   3.997 -0.2152  0.5434  0.1692
 2933SOL    HW1 9515   1.027   2.879   3.935  0.2232  0.2321 -0.3574
 2933SOL    HW2 9516   1.146   2.814   4.003 -0.2540  0.5567  0.8159
 2934SOL     OW 9517   6.422   4.254   2.844 -0.0066  0.2678  0.7595
 2934SOL    HW1 9518   6.426   4.165   2.810  0.5729 -0.0450  1.6405
 2934SOL    HW2 9519   6.340   4.257   2.893  0.0644  0.1562  0.8865
 2935SOL     OW 9520   2.104   4.887   3.386 -0.4016 -0.4230 -0.5046
 2935SOL    HW1 9521   2.198   4.896   3.375 -0.3278 -0.7552 -0.1502
 2935SOL    HW2 9522   2.067   4.923   3.305  0.0331 -0.4115 -0.6997
 2936SOL     OW 9523   2.780   3.184   3.434 -0.1058  0.2194  0.1999
 2936SOL    HW1 9524   2.684   3.181   3.430 -0.0700  0.5210 -1.2677
 2936SOL    HW2 9525   2.800   3.268   3.474 -0.4656 -0.1400  1.1407
 2937SOL     OW 9526   2.938   6.287   3.206 -1.0378  0.0106  0.1368
 2937SOL    HW1 9527   2.942   6.344   3.129 -1.6672  0.3285  0.3317
 2937SOL    HW2 9528   3.014   6.312   3.258 -1.3779  0.7628  0.2775
 2938SOL     OW 9529   3.693   1.991   3.778  0.4430 -0.3082  0.7269
 2938SOL    HW1 9530   3.614   1.962   3.732 -0.1538  0.7055  1.0898
 2938SOL    HW2 9531   3.698   2.085   3.759 -0.1499  0.2569  3.2087
 2939SOL     OW 9532   4.632   4.779   4.769  0.4948 -0.0144  0.2147
 2939SOL    HW1 9533   4.716   4.751   4.806  0.2496 -2.1012 -0.7531
 2939SOL    HW2 9534   4.567   4.728   4.818 -0.0666 -0.0100 -0.5255
 2940SOL     OW 9535   5.327   1.169   0.094  0.5372 -0.7110 -0.5022
 2940SOL    HW1 9536   5.377   1.199   0.170 -0.4617 -1.7889  0.6151
 2940SOL    HW2 9537   5.300   1.249   0.050  1.2005 -0.0687  0.2312
 2941SOL     OW 9538   0.292   6.063   3.596  0.6571 -0.7950 -0.2288
 2941SOL    HW1 9539   0.244   5.983   3.615  0.3091 -0.4042  0.5298
 2941SOL    HW2 9540   0.232   6.116   3.544  0.1017 -0.1169  1.1018
 2942SOL     OW 9541   3.156   1.000   1.572 -0.0809 -0.0570  0.2429
 2942SOL    HW1 9542   3.096   1.018   1.644  3.1028  1.5616  2.6459
 2942SOL    HW2 9543   3.182   0.909   1.585 -1.1389 -0.4118 -0.1232
 2943SOL     OW 9544   0.666   4.478   6.650  0.0586  0.1041 -0.0085
 2943SOL    HW1 9545   0.591   4.428   6.680 -0.3589  0.3594 -0.6132
 2943SOL    HW2 9546   0.700   4.429   6.575  1.2283 -0.6468  0.9763
 2944SOL     OW 9547   1.103   0.407   1.596  0.2849 -0.2516 -0.3203
 2944SOL    HW1 9548   1.190   0.396   1.556  0.2603  0.5227 -0.5775
 2944SOL    HW2 9549   1.109   0.356   1.677  1.0576 -0.0144 -0.2188
 2945SOL     OW 9550   2.021   2.501   3.897  0.0399  0.0964  0.2851
 2945SOL    HW1 9551   2.026   2.589   3.932  0.2825  0.2710 -0.1795
 2945SOL    HW2 9552   1.950   2.504   3.833 -0.2884 -0.1763  0.6307
 2946SOL     OW 9553   4.979   1.429   2.357  0.2359 -0.6559 -0.2723
 2946SOL    HW1 9554   5.001   1.336   2.362  2.5577 -0.0745  1.4151
 2946SOL    HW2 9555   5.023   1.459   2.277 -1.2959 -1.1704 -1.3321
 2947SOL     OW 9556   4.499   3.096   0.056 -0.2610 -0.7555 -0.2099
 2947SOL    HW1 9557   4.548   3.177   0.042 -1.8799  0.2524 -0.0585
 2947SOL    HW2 9558   4.443   3.088  -0.022 -1.9598 -0.3828  0.9494
 2948SOL     OW 9559   6.578   5.845   3.491  0.2309  0.1708 -0.3145
 2948SOL    HW1 9560   6.673   5.837   3.502 -0.1258 -1.7188  1.7279
 2948SOL    HW2 9561   6.548   5.888   3.572 -0.8316 -0.8090 -0.1763
 2949SOL     OW 9562   1.105   5.271   5.199 -0.4463  0.3176  0.1595
 2949SOL    HW1 9563   1.168   5.220   5.250  0.0671  0.6005 -0.1833
 2949SOL    HW2 9564   1.143   5.359   5.195 -1.3754  0.7547  0.8209
 2950SOL     OW 9565   4.821   5.993   1.264 -0.6752 -0.5291 -0.2557
 2950SOL    HW1 9566   4.760   6.004   1.337 -2.0461 -0.0438 -1.4661
 2950SOL    HW2 9567   4.808   5.902   1.235 -0.2110 -0.6867  0.0170
 2951SOL     OW 9568   4.544   3.560   3.775  0.1595 -0.7032 -0.4630
 2951SOL    HW1 9569   4.463   3.572   3.725 -0.5769  0.0105  0.8685
 2951SOL    HW2 9570   4.548   3.466   3.791 -1.7161 -0.4940  1.5444
 2952SOL     OW 9571   4.011   4.694   1.075  0.4218  0.2229 -0.0342
 2952SOL    HW1 9572   4.082   4.638   1.043 -0.5995 -1.4625  0.5838
 2952SOL    HW2 9573   4.006   4.675   1.169 -1.2828 -0.1864 -0.1915
 2953SOL     OW 9574   6.418   4.653   2.419 -0.7776 -0.0890 -0.5717
 2953SOL    HW1 9575   6.373   4.645   2.503 -0.6437 -1.0047 -0.5896
 2953SOL    HW2 9576   6.496   4.705   2.439 -0.3316 -0.9761  0.0328
 2954SOL     OW 9577   5.946   3.307   4.051 -0.2238  0.4106 -0.0607
 2954SOL    HW1 9578   5.964   3.251   4.127  0.3909  1.6211  0.6952
 2954SOL    HW2 9579   6.014   3.284   3.988  0.9399  1.3671  0.8305
 2955SOL     OW 9580   3.907   3.624   6.043 -0.2431 -0.3886 -0.3244
 2955SOL    HW1 9581   3.961   3.556   6.004  1.7978  0.9480  0.1079
 2955SOL    HW2 9582   3.879   3.588   6.127  0.4200 -0.8755 -0.3113
 2956SOL     OW 9583   6.244   1.359   6.598  0.6006  0.2755 -0.0929
 2956SOL    HW1 9584   6.302   1.405   6.659 -0.2086  2.7512 -1.0919
 2956SOL    HW2 9585   6.172   1.420   6.584 -0.5872 -1.3962 -1.4144
 2957SOL     OW 9586   3.923   6.379   3.913 -0.7010 -0.3650  0.1076
 2957SOL    HW1 9587   3.930   6.443   3.842  0.4558  1.5161  1.8401
 2957SOL    HW2 9588   3.871   6.308   3.876 -1.3746  1.2199 -2.1407
 2958SOL     OW 9589   0.093   2.643   1.195  0.2567  0.2834 -0.4603
 2958SOL    HW1 9590   0.088   2.700   1.119 -0.7474  0.5379 -0.2165
 2958SOL    HW2 9591   0.031   2.681   1.257  1.6641  0.5665  0.8208
 2959SOL     OW 9592   4.964   0.713   6.277  0.3396  0.2323  0.5951
 2959SOL    HW1 9593   4.986   0.676   6.192 -1.0128  1.1007 -0.1557
 2959SOL    HW2 9594   5.000   0.652   6.340 -0.3196 -1.4330 -0.6122
 2960SOL     OW 9595   2.669   0.797   3.226 -0.3010 -0.4509  0.3438
 2960SOL    HW1 9596   2.754   0.840   3.225  0.3696 -1.7713  0.0625
 2960SOL    HW2 9597   2.608   0.867   3.251  0.7913  0.6021  0.1387
 2961SOL     OW 9598   3.758   6.055   2.890  0.2678 -0.3014  0.3858
 2961SOL    HW1 9599   3.742   6.120   2.958  1.1199 -1.1539  1.4256
 2961SOL    HW2 9600   3.671   6.022   2.867 -0.0017 -0.2105  1.2672
 2962SOL     OW 9601   3.073   4.832   2.483 -0.0138  0.3420  0.3267
 2962SOL    HW1 9602   3.023   4.870   2.411  0.8226  3.3283  1.2135
 2962SOL    HW2 9603   3.075   4.901   2.549  1.5147 -1.3472  2.1083
 2963SOL     OW 9604   2.570   5.230   1.295 -0.7972 -0.1438 -0.3467
 2963SOL    HW1 9605   2.543   5.321   1.287 -1.0352 -0.3931 -2.6886
 2963SOL    HW2 9606   2.488   5.180   1.289 -0.5925 -0.5524  0.1717
 2964SOL     OW 9607   5.057   0.775   4.501 -0.6556 -0.2677  0.2311
 2964SOL    HW1 9608   5.049   0.868   4.478  1.2649 -0.2566 -0.5282
 2964SOL    HW2 9609   5.085   0.733   4.420 -2.0580 -1.6227  0.4230
 2965SOL     OW 9610   4.608   1.655   2.609  0.1251 -0.2201 -0.1725
 2965SOL    HW1 9611   4.583   1.569   2.643 -1.0360 -0.5671 -1.8080
 2965SOL    HW2 9612   4.579   1.717   2.675  0.4253 -1.0488  0.7399
 2966SOL     OW 9613   2.909   5.809   6.427 -0.4479 -0.1406  1.2163
 2966SOL    HW1 9614   2.831   5.758   6.405 -0.6549 -0.7589  3.2795
 2966SOL    HW2 9615   2.912   5.809   6.523  2.2633 -0.4126  1.1876
 2967SOL     OW 9616   6.281   0.177   2.758  0.7040  0.0539 -0.2405
 2967SOL    HW1 9617   6.375   0.183   2.743  0.4421 -1.8959 -3.0884
 2967SOL    HW2 9618   6.273   0.145   2.848  2.8303 -2.0039 -0.7427
 2968SOL     OW 9619   0.944   0.555   3.718 -0.0736 -0.2936  0.1972
 2968SOL    HW1 9620   0.924   0.506   3.798  3.3801 -0.1978  1.1996
 2968SOL    HW2 9621   0.894   0.511   3.649 -1.8016 -1.4049  2.0911
 2969SOL     OW 9622   1.339   1.417   4.815 -0.3151  0.7680  0.0025
 2969SOL    HW1 9623   1.410   1.408   4.879 -0.3256 -0.1808 -0.1066
 2969SOL    HW2 9624   1.383   1.421   4.730 -0.2871  2.3091  0.0837
 2970SOL     OW 9625   2.786   5.210   3.773  0.5533 -0.3084  0.3488
 2970SOL    HW1 9626   2.755   5.288   3.819 -3.6870 -1.7834  0.1667
 2970SOL    HW2 9627   2.812   5.241   3.687  1.8431  1.3348  1.2891
 2971SOL     OW 9628   4.052   3.215   3.043  0.1191  0.1966 -0.3532
 2971SOL    HW1 9629   3.964   3.230   3.079 -0.0979 -1.5886 -0.1137
 2971SOL    HW2 9630   4.058   3.276   2.970 -1.0879  0.7799  0.0182
 2972SOL     OW 9631   3.287   6.628   4.812 -0.2356 -0.4718 -0.2648
 2972SOL    HW1 9632   3.219   6.626   4.878  0.1206  0.0248  0.1229
 2972SOL    HW2 9633   3.322   6.717   4.816 -0.5757 -0.2674 -1.4884
 2973SOL     OW 9634   2.980   5.991   1.160 -0.4248 -0.7063  0.4173
 2973SOL    HW1 9635   3.034   5.933   1.212 -1.4876  0.7858  3.2847
 2973SOL    HW2 9636   2.891   5.955   1.167 -0.5862 -0.4735 -0.3433
 2974SOL     OW 9637   3.122   3.230   5.755  0.1903 -0.1066  0.4814
 2974SOL    HW1 9638   3.155   3.219   5.666  0.6685  1.2574  0.4766
 2974SOL    HW2 9639   3.196   3.266   5.804 -0.0585 -0.8802  1.4422
 2975SOL     OW 9640   2.348   1.470   3.096  0.1529  0.0144  0.7637
 2975SOL    HW1 9641   2.257   1.478   3.122  0.2190  1.3712  0.5997
 2975SOL    HW2 9642   2.345   1.454   3.002  0.1078  0.7806  0.6341
 2976SOL     OW 9643   1.784   4.168   0.909 -0.3035  0.1058  0.4889
 2976SOL    HW1 9644   1.791   4.139   0.818  1.9305  2.0623  0.0109
 2976SOL    HW2 9645   1.768   4.087   0.958  1.7657 -1.4232 -1.2531
 2977SOL     OW 9646   5.378   0.427   5.141 -0.0744  0.6481  0.5747
 2977SOL    HW1 9647   5.446   0.420   5.075 -1.2297 -2.6711 -0.3696
 2977SOL    HW2 9648   5.424   0.452   5.221  2.1123 -0.5132 -0.2906
 2978SOL     OW 9649   1.631   3.231   5.919  0.5577  0.2222  0.6947
 2978SOL    HW1 9650   1.592   3.269   5.840  0.1733 -1.5774 -0.0306
 2978SOL    HW2 9651   1.579   3.265   5.991 -1.4210 -0.9331 -0.1411
 2979SOL     OW 9652   1.344   2.391   5.825  0.0664 -0.6797 -0.1375
 2979SOL    HW1 9653   1.411   2.329   5.798  2.1726  1.1118  0.8192
 2979SOL    HW2 9654   1.365   2.411   5.916 -1.0544  0.8292 -0.1916
 2980SOL     OW 9655   3.104   3.576   3.282  0.2625  0.3945 -0.1695
 2980SOL    HW1 9656   3.161   3.526   3.224 -1.4588  0.6957 -2.1540
 2980SOL    HW2 9657   3.120   3.538   3.369  2.8886 -0.0218 -0.7888
 2981SOL     OW 9658   0.822   1.432   2.000  0.4203 -0.0213 -0.2398
 2981SOL    HW1 9659   0.913   1.437   1.971  1.1634 -3.4234  1.2050
 2981SOL    HW2 9660   0.802   1.338   1.999 -3.2263  0.6857 -0.9010
 2982SOL     OW 9661   3.786   5.726   2.665 -0.1358 -0.5540  0.0025
 2982SOL    HW1 9662   3.718   5.769   2.717 -0.5246 -0.1469 -0.8305
 2982SOL    HW2 9663   3.828   5.798   2.617 -1.5207 -1.1899 -2.2507
 2983SOL     OW 9664   6.606   3.600   5.939 -0.2021 -0.4071  0.0857
 2983SOL    HW1 9665   6.633   3.690   5.953 -0.1842 -0.5196  0.7904
 2983SOL    HW2 9666   6.513   3.599   5.962 -0.0988 -0.6623  0.4940
 2984SOL     OW 9667   2.115   3.383   4.523  0.6035 -0.2694 -0.4911
 2984SOL    HW1 9668   2.119   3.478   4.520 -1.4493 -0.1423  0.3974
 2984SOL    HW2 9669   2.113   3.357   4.430  1.1431  0.5230 -0.7365
 2985SOL     OW 9670   0.627   5.886   4.846 -1.0757  0.3892 -0.1701
 2985SOL    HW1 9671   0.661   5.930   4.924 -0.7169 -0.2308  0.0271
 2985SOL    HW2 9672   0.573   5.952   4.802 -1.2515  0.7498  0.5869
 2986SOL     OW 9673   2.840   3.740   2.266  0.1593  0.2419  0.2929
 2986SOL    HW1 9674   2.756   3.778   2.293  0.1116 -0.6427  1.4390
 2986SOL    HW2 9675   2.865   3.790   2.188 -2.1419 -0.4302 -0.9263
 2987SOL     OW 9676   3.108   0.656   5.519  0.0101  0.0092  0.3183
 2987SOL    HW1 9677   3.173   0.710   5.474  0.6705 -1.9006 -1.1040
 2987SOL    HW2 9678   3.129   0.664   5.612  0.2238  1.9998  0.1092
 2988SOL     OW 9679   1.481   2.986   4.278 -0.3465  0.2774 -0.4152
 2988SOL    HW1 9680   1.520   3.055   4.224  0.4002 -0.8795 -1.3819
 2988SOL    HW2 9681   1.552   2.924   4.294 -0.9030 -0.0675  0.7953
 2989SOL     OW 9682   3.721   2.811   1.619 -0.3597 -0.1809 -0.1003
 2989SOL    HW1 9683   3.683   2.783   1.703 -1.9974 -1.6687 -1.3071
 2989SOL    HW2 9684   3.752   2.900   1.636 -2.0021  0.0934  1.6815
 2990SOL     OW 9685   3.149   0.912   0.591  0.7460  0.1876 -0.5668
 2990SOL    HW1 9686   3.143   0.837   0.533 -1.3956 -0.4054  0.3830
 2990SOL    HW2 9687   3.155   0.875   0.679  1.2105  1.1098 -0.1945
 2991SOL     OW 9688   6.303   4.834   0.286  0.2753 -0.0644 -0.0632
 2991SOL    HW1 9689   6.327   4.746   0.317  0.2294 -0.4612 -1.1237
 2991SOL    HW2 9690   6.210   4.826   0.265 -0.0671  0.6329  1.1777
 2992SOL     OW 9691   6.121   3.117   0.224  0.3136  0.0876 -0.3017
 2992SOL    HW1 9692   6.156   3.205   0.212  1.0613 -0.3178 -1.1378
 2992SOL    HW2 9693   6.026   3.127   0.213  0.3795  0.8188 -0.1791
 2993SOL     OW 9694   1.736   4.258   0.379 -0.0574  0.1084  0.5889
 2993SOL    HW1 9695   1.701   4.289   0.463 -0.6626  0.5468  0.1742
 2993SOL    HW2 9696   1.818   4.308   0.369  0.8470 -1.1136  1.6827
 2994SOL     OW 9697   0.251   3.343   1.286  0.5418  0.2580  0.0710
 2994SOL    HW1 9698   0.311   3.272   1.264 -0.4892 -0.5196 -0.2923
 2994SOL    HW2 9699   0.232   3.331   1.379 -1.0519 -1.0533 -0.4065
 2995SOL     OW 9700   2.372   3.372   3.347 -0.0833 -0.0195 -0.3419
 2995SOL    HW1 9701   2.451   3.427   3.344 -0.9459  1.4208  2.1338
 2995SOL    HW2 9702   2.405   3.285   3.370  0.8734  0.4195 -0.0136
 2996SOL     OW 9703   6.649   2.996   2.357 -0.0586 -0.2419 -0.0686
 2996SOL    HW1 9704   6.610   2.909   2.369  0.4854 -0.1248  3.0160
 2996SOL    HW2 9705   6.582   3.046   2.310 -0.7251 -2.0732 -1.1181
 2997SOL     OW 9706   5.979   5.065   5.877  0.2272 -0.2699 -0.8938
 2997SOL    HW1 9707   5.890   5.036   5.859 -0.7824  1.3289  1.4284
 2997SOL    HW2 9708   5.995   5.042   5.968  2.0552 -0.1701 -1.1577
 2998SOL     OW 9709   4.894   5.841   2.342  0.3430 -0.0414  0.5357
 2998SOL    HW1 9710   4.947   5.868   2.268 -0.5184 -0.2992 -0.1794
 2998SOL    HW2 9711   4.922   5.751   2.360 -0.5890 -0.5520 -0.5184
 2999SOL     OW 9712   3.487   0.228   5.447 -0.5428  0.1546  0.1840
 2999SOL    HW1 9713   3.464   0.321   5.455  0.2432  0.4983 -1.2897
 2999SOL    HW2 9714   3.478   0.210   5.353  0.4503 -0.9511  0.2946
 3000SOL     OW 9715   1.287   1.645   1.855 -0.2576 -0.5400 -0.0896
 3000SOL    HW1 9716   1.321   1.681   1.937 -2.3542 -2.4756  1.6879
 3000SOL    HW2 9717   1.229   1.713   1.822  0.0904 -0.0070  0.3747
 3001SOL     OW 9718   5.403   1.066   3.451 -0.4010  0.0593 -0.2817
 3001SOL    HW1 9719   5.414   1.096   3.361  0.7656 -1.4467 -0.6536
 3001SOL    HW2 9720   5.349   0.988   3.443 -1.1639  0.5006  0.4385
 3002SOL     OW 9721   6.039   6.017   5.810 -0.0090 -0.1383  0.4397
 3002SOL    HW1 9722   6.048   6.110   5.789  0.0671 -0.5360 -1.3095
 3002SOL    HW2 9723   5.959   6.013   5.864  0.8363  1.1261  1.8436
 3003SOL     OW 9724   0.527   4.682   0.732  0.0159  0.1498  0.2037
 3003SOL    HW1 9725   0.611   4.720   0.705  0.0741 -0.7577 -0.9524
 3003SOL    HW2 9726   0.532   4.591   0.704 -2.1050  0.5521 -1.6920
 3004SOL     OW 9727   6.336   3.481   2.590  0.2061 -0.4884 -0.0425
 3004SOL    HW1 9728   6.304   3.418   2.654 -1.3117  0.5678  0.2530
 3004SOL    HW2 9729   6.379   3.427   2.523 -0.1079 -1.7407  0.7491
 3005SOL     OW 9730   2.749   1.550   4.862 -0.1531  0.3981  0.0906
 3005SOL    HW1 9731   2.662   1.547   4.822  0.0302 -1.0783 -0.2087
 3005SOL    HW2 9732   2.732   1.580   4.951 -0.8765  0.9736 -0.2336
 3006SOL     OW 9733   4.337   1.198   4.007  0.1572 -0.3100  0.2691
 3006SOL    HW1 9734   4.369   1.144   4.080 -0.0949  0.4211  0.9355
 3006SOL    HW2 9735   4.307   1.135   3.942  0.9655 -0.9889  0.5323
 3007SOL     OW 9736   1.039   6.535   5.764 -0.5782 -0.6732  0.3811
 3007SOL    HW1 9737   1.039   6.439   5.764 -1.0642 -0.7022 -1.2817
 3007SOL    HW2 9738   1.027   6.559   5.855  1.6827 -2.1860  1.1187
 3008SOL     OW 9739   3.282   2.502   2.717  0.1074 -0.7596 -0.0864
 3008SOL    HW1 9740   3.301   2.593   2.695 -0.3326 -0.6729 -0.1290
 3008SOL    HW2 9741   3.199   2.484   2.672  0.9704 -1.6536 -1.3639
 3009SOL     OW 9742   6.603   3.943   6.514  0.7409  0.4452  0.3308
 3009SOL    HW1 9743   6.641   4.024   6.480 -0.0256 -0.0094 -1.7079
 3009SOL    HW2 9744   6.594   3.887   6.437 -3.2567  0.2414  0.8247
 3010SOL     OW 9745   2.533   6.555   2.591  0.0573  0.4725  0.4943
 3010SOL    HW1 9746   2.452   6.546   2.641 -0.5540 -3.7540 -1.0974
 3010SOL    HW2 9747   2.600   6.514   2.645 -0.0061 -1.2489 -0.6897
 3011SOL     OW 9748   5.344   6.426   0.305 -0.2500  0.3076 -0.1887
 3011SOL    HW1 9749   5.254   6.429   0.337  0.2443  1.2624  1.1571
 3011SOL    HW2 9750   5.373   6.337   0.321 -0.5547  0.3329  0.5001
 3012SOL     OW 9751   2.047   5.885   0.175  0.2449 -0.2335  0.6966
 3012SOL    HW1 9752   2.108   5.832   0.125  0.5117  0.9202 -0.2349
 3012SOL    HW2 9753   2.090   5.900   0.259  2.0080  1.9134 -0.5266
 3013SOL     OW 9754   0.639   6.752   1.058 -0.7316 -0.1397  0.7430
 3013SOL    HW1 9755   0.675   6.727   0.972 -1.3680 -1.4352  0.8373
 3013SOL    HW2 9756   0.548   6.723   1.054 -0.7815 -0.1273  1.8326
 3014SOL     OW 9757   3.485   3.664   0.118  0.0515 -0.0071 -0.1792
 3014SOL    HW1 9758   3.482   3.755   0.147 -2.4400 -0.2543  0.4275
 3014SOL    HW2 9759   3.523   3.616   0.191  0.3637  0.3768 -0.0881
 3015SOL     OW 9760   1.127   5.262   6.439  0.2657  0.0123  0.3681
 3015SOL    HW1 9761   1.157   5.229   6.524 -1.1437  0.9653  1.2465
 3015SOL    HW2 9762   1.107   5.354   6.455 -0.6228  0.0312 -0.8468
 3016SOL     OW 9763   2.674   1.600   6.475  0.5265  0.0085  0.7815
 3016SOL    HW1 9764   2.613   1.527   6.480  0.6253 -0.1736 -0.4054
 3016SOL    HW2 9765   2.707   1.610   6.564 -0.3466 -0.6455  1.1929
 3017SOL     OW 9766   0.482   4.052   5.229 -0.3200 -0.4420 -1.0510
 3017SOL    HW1 9767   0.426   4.058   5.306  0.5961 -0.1019 -0.3922
 3017SOL    HW2 9768   0.464   3.966   5.192  0.7214 -1.4673  0.7363
 3018SOL     OW 9769   2.620   0.913   2.084  0.9221 -0.6463 -0.0733
 3018SOL    HW1 9770   2.632   0.970   2.160 -0.3654 -0.1915 -0.1960
 3018SOL    HW2 9771   2.526   0.901   2.078  1.0562 -1.1879 -1.2318
 3019SOL     OW 9772   0.917   3.568   1.606 -0.0899 -0.0717 -0.0737
 3019SOL    HW1 9773   0.960   3.482   1.600 -3.4934 -1.7946 -1.1038
 3019SOL    HW2 9774   0.888   3.573   1.697  2.2424  1.1106  0.6331
 3020SOL     OW 9775   5.775   1.038   6.182  0.2401  0.2145 -0.1172
 3020SOL    HW1 9776   5.777   1.130   6.154 -0.6555 -0.5440 -2.8171
 3020SOL    HW2 9777   5.703   1.000   6.133  1.6864 -2.3368 -0.3372
 3021SOL     OW 9778   6.184   2.954   3.098  0.3247 -0.1140 -0.3778
 3021SOL    HW1 9779   6.098   2.980   3.132  0.6518 -0.3910  0.6706
 3021SOL    HW2 9780   6.219   2.895   3.165  0.9240 -0.7642 -1.2648
 3022SOL     OW 9781   4.518   1.103   3.235 -0.0576 -0.6449  0.6658
 3022SOL    HW1 9782   4.442   1.055   3.203 -0.2766 -0.3721  0.7783
 3022SOL    HW2 9783   4.588   1.038   3.238 -0.1493 -0.7770  0.0484
 3023SOL     OW 9784   0.764   4.997   3.006  0.5797 -0.0989  0.3141
 3023SOL    HW1 9785   0.716   4.968   2.929 -0.4701 -1.2870  1.3888
 3023SOL    HW2 9786   0.831   4.929   3.020  0.5483 -0.0607  0.6506
 3024SOL     OW 9787   4.015   1.230   3.382  0.5670  0.2641 -0.6803
 3024SOL    HW1 9788   4.069   1.305   3.404 -0.5687  1.2164 -1.0602
 3024SOL    HW2 9789   3.980   1.200   3.466  2.1107 -0.7064 -0.3693
 3025SOL     OW 9790   6.430   6.673   1.255  0.4151 -0.7692  0.0575
 3025SOL    HW1 9791   6.342   6.695   1.286  1.1175  1.9685  0.1929
 3025SOL    HW2 9792   6.426   6.688   1.161  0.6443 -1.0114  0.0099
 3026SOL     OW 9793   3.375   2.452   5.496  0.3549 -0.7211  0.4848
 3026SOL    HW1 9794   3.353   2.426   5.406 -0.8167 -0.6488  0.7450
 3026SOL    HW2 9795   3.364   2.372   5.547  1.4880 -0.8766  0.4857
 3027SOL     OW 9796   5.403   1.653   5.968  0.0385 -0.5507 -0.6880
 3027SOL    HW1 9797   5.392   1.563   5.938 -0.1417 -0.8885  0.3905
 3027SOL    HW2 9798   5.497   1.670   5.958  0.3777 -1.4783  0.8426
 3028SOL     OW 9799   5.995   6.048   4.428  0.1585  0.2856  0.4058
 3028SOL    HW1 9800   6.023   6.013   4.513 -2.0156 -1.3054  0.5129
 3028SOL    HW2 9801   5.967   6.138   4.448  1.9580  0.7489  0.8969
 3029SOL     OW 9802   6.486   3.004   3.543  0.3978  0.0507  0.0868
 3029SOL    HW1 9803   6.406   3.035   3.500  0.1918 -0.4451  0.1031
 3029SOL    HW2 9804   6.492   3.056   3.623  0.7298  0.9075 -0.4821
 3030SOL     OW 9805   1.448   1.461   0.525  0.4443 -0.2405  0.4722
 3030SOL    HW1 9806   1.494   1.535   0.562  1.5093 -1.4372  1.5957
 3030SOL    HW2 9807   1.431   1.403   0.599 -1.9362 -0.3228 -0.1028
 3031SOL     OW 9808   1.195   3.986   6.010 -0.1739  0.4572  1.0146
 3031SOL    HW1 9809   1.109   3.975   6.050 -0.7521 -0.4649 -0.4466
 3031SOL    HW2 9810   1.180   4.044   5.936  0.5468  0.6945  1.0515
 3032SOL     OW 9811   6.330   1.089   1.324  0.2308  0.2873  0.2397
 3032SOL    HW1 9812   6.414   1.065   1.285  0.1063 -0.4549  0.4116
 3032SOL    HW2 9813   6.295   1.006   1.357  0.0540  0.7991  1.3684
 3033SOL     OW 9814   4.082   4.859   5.051 -0.0516 -0.2688 -0.2239
 3033SOL    HW1 9815   4.139   4.867   5.127 -1.4981  0.2317  0.8323
 3033SOL    HW2 9816   4.102   4.773   5.014  2.1320  0.3315 -0.5034
 3034SOL     OW 9817   6.402   1.016   4.349 -0.1395  0.0629 -0.0454
 3034SOL    HW1 9818   6.324   0.960   4.354 -0.2848  0.4059  1.8854
 3034SOL    HW2 9819   6.462   0.980   4.415  1.5972 -0.5412 -1.9135
 3035SOL     OW 9820   2.778   0.763   0.027 -0.0403 -0.1221  0.4347
 3035SOL    HW1 9821   2.777   0.859   0.025 -0.1080 -0.1399 -1.2600
 3035SOL    HW2 9822   2.843   0.741   0.093 -0.3909  1.0931  1.2064
 3036SOL     OW 9823   4.342   0.986   2.220 -0.4532  0.5557 -0.2622
 3036SOL    HW1 9824   4.404   1.020   2.156 -0.0716  0.4024  0.0291
 3036SOL    HW2 9825   4.380   1.008   2.305 -0.6558  0.2135 -0.0825
 3037SOL     OW 9826   3.812   5.914   4.101 -0.1990  1.2802  0.5045
 3037SOL    HW1 9827   3.762   5.947   4.175  0.1490 -1.0109  1.8298
 3037SOL    HW2 9828   3.857   5.836   4.136  1.0479  0.9600 -1.7404
 3038SOL     OW 9829   1.185   5.844   6.399 -0.0909  0.1567  0.0484
 3038SOL    HW1 9830   1.109   5.890   6.435  0.0175  0.2555  0.1541
 3038SOL    HW2 9831   1.236   5.913   6.356  0.3901  0.2487  0.7484
 3039SOL     OW 9832   6.715   4.125   4.244  0.1617  0.0033 -0.7102
 3039SOL    HW1 9833   6.764   4.052   4.282  1.8496  1.0342 -0.8470
 3039SOL    HW2 9834   6.751   4.202   4.287 -0.1793  0.9187 -2.0468
 3040SOL     OW 9835   0.259   1.997   3.114  0.3040  0.3400 -0.1926
 3040SOL    HW1 9836   0.285   1.912   3.080  0.8291 -0.3860  1.9494
 3040SOL    HW2 9837   0.164   1.999   3.106  0.3645 -0.0992 -1.0289
 3041SOL     OW 9838   1.875   6.035   5.219 -0.0129  0.2164  0.6311
 3041SOL    HW1 9839   1.789   6.032   5.262 -1.7202  0.5604 -2.5260
 3041SOL    HW2 9840   1.938   6.026   5.289 -2.6420  0.6727  3.1488
 3042SOL     OW 9841   6.588   6.384   1.643 -0.0486  0.0734 -0.4730
 3042SOL    HW1 9842   6.602   6.295   1.609  0.2990  0.5702 -1.6385
 3042SOL    HW2 9843   6.523   6.422   1.584 -2.1367 -0.2732  1.5461
 3043SOL     OW 9844   3.947   5.521   3.344 -0.2088  0.1077  0.0487
 3043SOL    HW1 9845   3.859   5.484   3.338  0.4226 -1.2328 -1.3442
 3043SOL    HW2 9846   3.942   5.583   3.416 -2.6548  1.0077 -0.8260
 3044SOL     OW 9847   6.302   2.504   6.215  0.0045 -0.0806  0.7360
 3044SOL    HW1 9848   6.327   2.556   6.291  0.0024 -1.0969  1.4345
 3044SOL    HW2 9849   6.239   2.560   6.168  0.6478  0.8912  1.0220
 3045SOL     OW 9850   6.094   3.557   6.683  0.0843 -0.0434  0.0408
 3045SOL    HW1 9851   6.123   3.560   6.775  0.1446  0.7013  0.0056
 3045SOL    HW2 9852   6.015   3.503   6.684 -0.2751  0.4841  0.6379
 3046SOL     OW 9853   0.565   4.550   5.929 -0.6008 -0.1472 -0.0054
 3046SOL    HW1 9854   0.587   4.628   5.980  0.6333  0.0280 -0.7643
 3046SOL    HW2 9855   0.565   4.580   5.838 -0.3852 -0.9676 -0.2840
 3047SOL     OW 9856   6.096   4.931   1.544 -0.3363 -0.1115  0.7006
 3047SOL    HW1 9857   6.068   4.849   1.584 -0.7944 -0.6258 -0.6723
 3047SOL    HW2 9858   6.190   4.935   1.561  0.0915 -1.9724 -1.0973
 3048SOL     OW 9859   6.332   5.526   0.943 -0.0469  0.1995  0.1239
 3048SOL    HW1 9860   6.349   5.436   0.914 -0.1328 -0.1300  1.0938
 3048SOL    HW2 9861   6.297   5.517   1.032  2.2075  1.3058  1.1715
 3049SOL     OW 9862   0.466   2.995   3.972 -0.1059 -0.5298  0.3664
 3049SOL    HW1 9863   0.422   3.005   4.056  1.2870 -0.7252  1.1332
 3049SOL    HW2 9864   0.451   2.904   3.947  0.1691 -0.6958  0.8019
 3050SOL     OW 9865   5.612   1.990   0.140  0.0969 -0.1508 -0.1888
 3050SOL    HW1 9866   5.634   1.951   0.056  2.0097 -0.8547  0.6286
 3050SOL    HW2 9867   5.665   1.943   0.204  0.1449  1.6976  1.1770
 3051SOL     OW 9868   1.350   5.601   0.025 -0.2928 -0.1933  0.2353
 3051SOL    HW1 9869   1.426   5.631   0.074 -0.3884  0.1107  0.2017
 3051SOL    HW2 9870   1.290   5.567   0.092 -0.5707  0.5437  0.3697
 3052SOL     OW 9871   1.961   2.451   6.593  0.2005  0.3364  0.6482
 3052SOL    HW1 9872   1.896   2.454   6.523  0.4271  0.2022  0.4348
 3052SOL    HW2 9873   1.922   2.394   6.659 -0.3062  1.0008  0.9244
 3053SOL     OW 9874   3.901   3.261   4.555  0.5806 -0.2997  0.9276
 3053SOL    HW1 9875   3.851   3.340   4.533  1.4915 -0.1571 -0.7724
 3053SOL    HW2 9876   3.926   3.273   4.647  0.0461  1.0261  0.9133
 3054SOL     OW 9877   0.101   5.398   0.154 -0.0850  0.1230  0.4236
 3054SOL    HW1 9878   0.140   5.394   0.242 -1.8282  0.9160  1.2561
 3054SOL    HW2 9879   0.060   5.312   0.142 -2.0414  0.8706  1.4629
 3055SOL     OW 9880   4.632   1.460   0.764 -0.0210  0.0567 -0.1510
 3055SOL    HW1 9881   4.562   1.477   0.827  0.2339  0.5180  0.0132
 3055SOL    HW2 9882   4.606   1.508   0.685 -1.2708 -2.0330 -1.0576
 3056SOL     OW 9883   1.439   3.128   6.613  0.4463 -0.7573 -0.4699
 3056SOL    HW1 9884   1.492   3.052   6.587  2.8337  0.2774  1.2203
 3056SOL    HW2 9885   1.420   3.174   6.531  2.4916 -0.9408 -1.0531
 3057SOL     OW 9886   3.054   6.383   0.443  0.3855 -0.0692  0.0071
 3057SOL    HW1 9887   3.082   6.372   0.534 -0.1252 -0.8441  0.0817
 3057SOL    HW2 9888   2.971   6.335   0.439  0.6362 -0.4220 -0.9829
 3058SOL     OW 9889   3.186   5.791   0.921  0.1656  0.1317  0.5655
 3058SOL    HW1 9890   3.241   5.797   0.843 -0.1230  2.3958  0.5151
 3058SOL    HW2 9891   3.192   5.878   0.962 -1.1148 -0.4718  2.0889
 3059SOL     OW 9892   5.348   0.515   3.162  0.1982 -0.0252 -0.6086
 3059SOL    HW1 9893   5.441   0.528   3.143  0.6894 -1.4964  0.6404
 3059SOL    HW2 9894   5.303   0.570   3.099  1.9785  2.9136  0.5625
 3060SOL     OW 9895   6.373   3.681   1.175  0.4042  0.4232 -0.0304
 3060SOL    HW1 9896   6.320   3.724   1.108  0.3750 -0.4141 -0.5555
 3060SOL    HW2 9897   6.389   3.593   1.139 -0.0535 -0.2069  1.2947
 3061SOL     OW 9898   4.857   3.728   5.997  0.2435 -0.2766 -0.1515
 3061SOL    HW1 9899   4.843   3.634   5.984 -1.2216 -0.1184  0.1526
 3061SOL    HW2 9900   4.868   3.763   5.909 -1.1843 -0.4581 -0.4189
 3062SOL     OW 9901   6.231   6.420   6.304  0.3078  0.6530 -0.2301
 3062SOL    HW1 9902   6.244   6.388   6.393 -1.7861 -0.6251 -0.3669
 3062SOL    HW2 9903   6.293   6.371   6.250 -0.5845 -0.8056  0.0665
 3063SOL     OW 9904   4.013   2.079   6.095 -0.0376  0.0030  0.0953
 3063SOL    HW1 9905   3.970   2.042   6.019 -1.4985  0.8484  0.4857
 3063SOL    HW2 9906   3.963   2.158   6.115 -0.6157 -0.9919  2.8185
 3064SOL     OW 9907   3.605   5.005   1.885  0.6453  0.3233 -0.1179
 3064SOL    HW1 9908   3.584   4.956   1.805 -0.1059  0.0022  0.2739
 3064SOL    HW2 9909   3.686   5.051   1.864  0.8003 -0.2732 -0.8475
 3065SOL     OW 9910   6.078   4.436   5.015 -0.1469  0.2467 -0.4407
 3065SOL    HW1 9911   6.140   4.431   5.088  0.2772 -0.3193 -0.8466
 3065SOL    HW2 9912   6.132   4.434   4.936 -0.5508  1.6919 -0.7715
 3066SOL     OW 9913   5.593   6.100   3.502 -0.1500 -0.0704 -0.3251
 3066SOL    HW1 9914   5.594   6.123   3.409  0.9190 -1.5992 -0.6905
 3066SOL    HW2 9915   5.553   6.013   3.505 -0.7594  0.2363  0.7135
 3067SOL     OW 9916   5.908   1.289   0.557 -0.1228  0.5262 -0.0592
 3067SOL    HW1 9917   5.815   1.313   0.554 -0.0354  0.9936  0.8192
 3067SOL    HW2 9918   5.909   1.202   0.596 -0.3074 -0.1953 -1.6143
 3068SOL     OW 9919   1.791   0.976   5.344 -0.2601 -0.1565  0.1561
 3068SOL    HW1 9920   1.772   0.882   5.351 -0.7187  0.0166  1.6169
 3068SOL    HW2 9921   1.878   0.981   5.305 -1.0548 -1.1294 -1.7800
 3069SOL     OW 9922   4.543   3.489   1.086 -0.4545  0.0230 -0.5427
 3069SOL    HW1 9923   4.636   3.477   1.109 -0.0507  2.3956 -0.8050
 3069SOL    HW2 9924   4.498   3.417   1.131  1.4279 -0.7811  0.1144
 3070SOL     OW 9925   0.562   4.586   1.136  0.2831 -0.3425 -0.4076
 3070SOL    HW1 9926   0.503   4.524   1.093 -2.0748  0.1068  2.0441
 3070SOL    HW2 9927   0.547   4.669   1.091 -1.6581 -0.0303  0.7732
 3071SOL     OW 9928   1.193   5.914   4.008  0.1255  0.0575  0.1263
 3071SOL    HW1 9929   1.263   5.875   3.957 -1.0046 -1.7468 -0.1158
 3071SOL    HW2 9930   1.226   5.914   4.098  1.0380  0.6697 -0.2057
 3072SOL     OW 9931   4.509   4.448   3.084 -0.4305 -0.0636 -0.0819
 3072SOL    HW1 9932   4.430   4.499   3.102 -0.0410  0.3944  0.3639
 3072SOL    HW2 9933   4.541   4.481   3.000 -1.5113 -1.2681 -0.9840
 3073SOL     OW 9934   1.472   5.882   3.143 -0.2521  0.1272  0.2702
 3073SOL    HW1 9935   1.557   5.847   3.165 -0.4065 -1.2158 -1.1854
 3073SOL    HW2 9936   1.484   5.921   3.056 -0.9803  0.4126  0.2933
 3074SOL     OW 9937   1.876   0.577   6.391  0.2721  0.3507  0.2280
 3074SOL    HW1 9938   1.899   0.578   6.484  0.3569 -1.0300  0.2335
 3074SOL    HW2 9939   1.787   0.543   6.389 -0.0869  1.3134 -0.1285
 3075SOL     OW 9940   3.314   6.257   1.300  0.0912 -0.1223 -0.0358
 3075SOL    HW1 9941   3.389   6.223   1.349  0.2271 -0.6748 -0.6147
 3075SOL    HW2 9942   3.351   6.326   1.245  0.0508  0.0733  0.1826
 3076SOL     OW 9943   2.658   4.595   5.976 -0.6752  0.7032  0.1100
 3076SOL    HW1 9944   2.686   4.655   6.046  0.3880 -0.9714  1.1547
 3076SOL    HW2 9945   2.585   4.546   6.013 -0.6888  0.4222 -0.2805
 3077SOL     OW 9946   6.757   3.696   1.205 -0.5210 -0.1458 -0.1518
 3077SOL    HW1 9947   6.834   3.707   1.260 -1.2195 -0.8745  0.9968
 3077SOL    HW2 9948   6.772   3.754   1.131  0.5557  0.6543  0.6747
 3078SOL     OW 9949   0.038   4.726   4.777 -0.2611 -0.1519  0.3713
 3078SOL    HW1 9950  -0.020   4.713   4.852  0.7520 -0.2741  1.1404
 3078SOL    HW2 9951   0.121   4.687   4.804  0.8811  2.0626  0.1650
 3079SOL     OW 9952   3.311   0.517   0.411  0.0150 -0.0155  0.1624
 3079SOL    HW1 9953   3.329   0.561   0.495 -1.6104 -0.5384  0.8147
 3079SOL    HW2 9954   3.344   0.428   0.423  1.0198  0.2968 -0.2516
 3080SOL     OW 9955   1.460   4.989   1.140 -0.3882 -0.4726 -0.4184
 3080SOL    HW1 9956   1.448   4.937   1.060 -1.2971  1.4374 -1.5707
 3080SOL    HW2 9957   1.402   4.948   1.205 -1.2912 -0.7454 -1.3787
 3081SOL     OW 9958   1.727   1.628   1.000  0.2561  0.1861 -0.0443
 3081SOL    HW1 9959   1.675   1.596   1.074 -0.2541  1.5067  0.1724
 3081SOL    HW2 9960   1.710   1.722   0.998  0.6307  0.2208 -1.5640
 3082SOL     OW 9961   0.962   6.489   3.924  0.2007  0.0265  0.3545
 3082SOL    HW1 9962   0.916   6.493   4.008  0.8369 -1.3672  0.7874
 3082SOL    HW2 9963   0.896   6.463   3.861  0.3962 -2.0822  0.9916
 3083SOL     OW 9964   3.188   2.696   1.572 -0.1049  0.0609 -0.2540
 3083SOL    HW1 9965   3.254   2.644   1.524 -0.4721 -0.7900  0.1461
 3083SOL    HW2 9966   3.239   2.765   1.614  0.6020 -0.7863  0.3305
 3084SOL     OW 9967   3.712   1.541   2.928  0.2520 -0.1955  0.3280
 3084SOL    HW1 9968   3.679   1.517   3.014  1.2500 -1.9817  0.2474
 3084SOL    HW2 9969   3.806   1.554   2.941  0.6547 -1.8204 -0.7139
 3085SOL     OW 9970   1.911   1.939   5.357  0.4931  0.5839  0.7987
 3085SOL    HW1 9971   1.988   1.929   5.413  0.7601  1.3299  0.5614
 3085SOL    HW2 9972   1.877   2.026   5.378  0.9638  1.1377 -0.6492
 3086SOL     OW 9973   4.540   5.932   3.366 -0.3707 -0.1045 -0.6638
 3086SOL    HW1 9974   4.525   5.870   3.438  0.3542 -1.4137 -1.6058
 3086SOL    HW2 9975   4.490   5.896   3.293  0.4368  0.1683 -1.3597
 3087SOL     OW 9976   4.873   3.344   5.154  0.1776 -0.5663 -0.4382
 3087SOL    HW1 9977   4.893   3.332   5.247 -0.2847 -1.9020 -0.4954
 3087SOL    HW2 9978   4.778   3.353   5.151  0.4269  2.5174 -0.4934
 3088SOL     OW 9979   2.617   3.854   5.355  0.1049 -0.3200  0.0584
 3088SOL    HW1 9980   2.640   3.943   5.327 -0.2064  0.0759  1.0187
 3088SOL    HW2 9981   2.666   3.842   5.437  0.6671 -1.2890 -0.4170
 3089SOL     OW 9982   0.644   2.155   2.635  0.4465  0.0024 -0.4819
 3089SOL    HW1 9983   0.696   2.135   2.714 -0.0817 -1.5225 -0.5027
 3089SOL    HW2 9984   0.553   2.152   2.665  0.2787  0.1813 -0.9802
 3090SOL     OW 9985   0.156   1.035   4.500 -0.2443 -0.2078 -0.2722
 3090SOL    HW1 9986   0.125   0.967   4.440  0.5935 -0.9503  0.1223
 3090SOL    HW2 9987   0.156   0.993   4.586  1.9566 -0.2812 -0.2796
 3091SOL     OW 9988   0.703   3.122   4.262 -0.3846  0.5815  0.4261
 3091SOL    HW1 9989   0.751   3.079   4.191 -0.6161  0.0094  0.6147
 3091SOL    HW2 9990   0.648   3.188   4.218 -0.5014  0.2530  0.0793
 3092SOL     OW 9991   4.553   6.218   2.693 -0.5490 -0.5760 -0.3271
 3092SOL    HW1 9992   4.487   6.287   2.706 -0.8790 -0.9607  0.0832
 3092SOL    HW2 9993   4.515   6.161   2.626 -0.3344 -0.4350 -0.5704
 3093SOL     OW 9994   2.593   3.845   3.050  0.4866 -0.2588 -0.1780
 3093SOL    HW1 9995   2.559   3.784   3.117  0.7641  0.3959  0.5691
 3093SOL    HW2 9996   2.669   3.800   3.013 -0.3637 -1.1291 -0.8749
 3094SOL     OW 9997   0.909   0.212   4.282 -0.0607  0.2809  0.2938
 3094SOL    HW1 9998   0.961   0.196   4.203 -0.9029  0.0754 -0.2211
 3094SOL    HW2 9999   0.964   0.179   4.353  0.6146  0.2740 -0.2216
 3095SOL     OW10000   3.292   6.642   6.133 -1.0198 -0.5958  0.2800
 3095SOL    HW110001   3.353   6.673   6.065 -1.9662 -0.1617 -0.3827
 3095SOL    HW210002   3.349   6.608   6.202 -0.0227 -0.3135 -0.3842
 3096SOL     OW10003   0.088   0.753   4.453  0.4578  0.1161 -0.3584
 3096SOL    HW110004   0.120   0.685   4.393 -2.9225  0.1479 -2.3150
 3096SOL    HW210005   0.083   0.710   4.538  1.2609 -1.1797 -0.9502
 3097SOL     OW10006   1.671   5.538   1.792 -0.2184 -0.1210 -0.1662
 3097SOL    HW110007   1.592   5.486   1.777 -0.2988  0.1263 -0.5996
 3097SOL    HW210008   1.643   5.610   1.849 -0.0196 -0.7763  0.7756
 3098SOL     OW10009   1.927   4.944   4.799 -0.1298  0.1851  0.2298
 3098SOL    HW110010   1.836   4.963   4.775  0.9285  2.0107 -2.6295
 3098SOL    HW210011   1.925   4.853   4.828 -3.0200  0.4796  1.1127
 3099SOL     OW10012   2.578   2.658   5.685 -0.0661  0.2700  0.4088
 3099SOL    HW110013   2.658   2.614   5.714  0.3901  0.7997 -0.0146
 3099SOL    HW210014   2.558   2.618   5.601  0.1651  0.6375  0.1766
 3100SOL     OW10015   1.349   4.027   1.601 -0.6328 -0.5100  0.1508
 3100SOL    HW110016   1.370   4.072   1.520  1.2323  0.7091  1.2775
 3100SOL    HW210017   1.274   4.074   1.636 -1.5852 -1.1763 -0.9358
 3101SOL     OW10018   1.173   3.442   0.770 -0.3206 -0.4939  0.1172
 3101SOL    HW110019   1.219   3.363   0.741 -1.1463 -0.3017 -1.8343
 3101SOL    HW210020   1.220   3.471   0.848 -1.2458 -4.0687  2.0915
 3102SOL     OW10021   4.882   5.894   0.838  0.2492  0.1204  0.6504
 3102SOL    HW110022   4.829   5.970   0.863 -0.1423  0.2966 -0.6598
 3102SOL    HW210023   4.818   5.829   0.809  0.5999 -0.6346  1.5810
 3103SOL     OW10024   2.884   3.247   5.449  0.3655 -0.0793 -0.7084
 3103SOL    HW110025   2.940   3.254   5.526 -0.6316 -0.2912  0.0395
 3103SOL    HW210026   2.882   3.335   5.412  1.1103 -0.0482 -0.6905
 3104SOL     OW10027   2.067   0.693   4.917  0.1954  0.5248 -0.7029
 3104SOL    HW110028   2.056   0.762   4.852  1.8785 -0.6813 -2.3134
 3104SOL    HW210029   2.159   0.700   4.944  0.3219 -0.9346 -0.7320
 3105SOL     OW10030   5.249   3.945   3.770  0.0130  0.7487 -0.4605
 3105SOL    HW110031   5.292   3.892   3.837 -0.7071 -0.4887 -0.9611
 3105SOL    HW210032   5.320   3.975   3.713  0.2219 -1.5287 -1.4575
 3106SOL     OW10033   1.653   2.697   2.992 -0.1024  0.0262 -0.6383
 3106SOL    HW110034   1.627   2.608   2.969  0.8074  0.0138 -1.6956
 3106SOL    HW210035   1.571   2.743   3.010 -0.4281 -1.8984  3.4037
 3107SOL     OW10036   6.134   6.054   0.346  0.6143  0.0994 -0.0629
 3107SOL    HW110037   6.151   6.001   0.268 -1.8645 -1.1897  0.2324
 3107SOL    HW210038   6.159   5.998   0.419  1.3110  0.6748  0.1495
 3108SOL     OW10039   1.961   5.004   6.274  0.6481 -0.5599 -0.1128
 3108SOL    HW110040   1.950   4.919   6.231  0.4377 -0.1339 -0.9237
 3108SOL    HW210041   1.996   4.984   6.360  0.2286 -1.4933 -0.1644
 3109SOL     OW10042   3.717   5.312   3.635 -0.2931 -0.0084 -0.0184
 3109SOL    HW110043   3.811   5.325   3.626 -0.3615 -0.8191 -2.0195
 3109SOL    HW210044   3.679   5.395   3.605 -0.2440  0.4126  1.0243
 3110SOL     OW10045   1.170   3.570   5.102 -0.1681 -0.1299 -0.0490
 3110SOL    HW110046   1.220   3.532   5.030 -0.1588 -0.9066  0.3544
 3110SOL    HW210047   1.154   3.660   5.076  2.7838  0.6052  0.5067
 3111SOL     OW10048   6.407   5.012   6.464  0.0806  0.4915 -0.7058
 3111SOL    HW110049   6.445   5.100   6.469 -1.5651  1.1411  1.2692
 3111SOL    HW210050   6.329   5.022   6.410 -0.7240  0.5098  0.4302
 3112SOL     OW10051   3.686   6.042   0.451  0.5992  0.4553 -0.4641
 3112SOL    HW110052   3.705   5.964   0.398 -1.3254  0.4505 -1.1949
 3112SOL    HW210053   3.735   6.112   0.409  1.0285 -0.0367 -0.7964
 3113SOL     OW10054   1.503   2.274   3.655 -0.4107 -0.5182  0.2624
 3113SOL    HW110055   1.492   2.357   3.701  1.6536 -0.3615  0.5078
 3113SOL    HW210056   1.509   2.209   3.725  0.0590 -0.6140  0.1347
 3114SOL     OW10057   3.003   3.779   3.446  0.0628 -0.0795  0.1102
 3114SOL    HW110058   3.045   3.699   3.416 -0.3046 -1.3471  2.8243
 3114SOL    HW210059   2.960   3.815   3.368  1.2982 -1.8466 -1.3956
 3115SOL     OW10060   1.982   6.213   6.019 -0.1911  0.7173 -0.3209
 3115SOL    HW110061   2.051   6.193   5.955  0.4568  0.2946  0.4973
 3115SOL    HW210062   1.968   6.130   6.065 -2.5584  0.3089 -1.7065
 3116SOL     OW10063   0.955   0.981   2.847  0.6031 -0.3841  0.0330
 3116SOL    HW110064   0.910   0.922   2.786  0.1916  1.0392 -1.0712
 3116SOL    HW210065   0.974   0.927   2.923 -0.1300 -1.8372 -0.7940
 3117SOL     OW10066   3.775   2.807   4.209 -0.5883  0.1606 -0.3352
 3117SOL    HW110067   3.790   2.842   4.121 -1.9075 -0.0789 -0.6533
 3117SOL    HW210068   3.716   2.733   4.197  0.7174 -1.0542  0.5581
 3118SOL     OW10069   1.605   0.986   5.766 -0.1991  0.6347 -0.2285
 3118SOL    HW110070   1.566   0.954   5.684  0.1528  0.4074 -0.3103
 3118SOL    HW210071   1.548   1.058   5.793 -1.1273 -0.2064  0.0714
 3119SOL     OW10072   4.688   5.980   6.495 -0.5030  0.1948 -0.2887
 3119SOL    HW110073   4.648   5.925   6.429  2.0730  0.1541 -1.8869
 3119SOL    HW210074   4.688   5.927   6.575  1.0157 -1.7708 -1.5501
 3120SOL     OW10075   5.581   6.349   4.749  0.3386 -0.3945 -0.2549
 3120SOL    HW110076   5.655   6.399   4.715  0.1027  0.1305 -0.0021
 3120SOL    HW210077   5.619   6.266   4.776  1.0476  0.3099  0.9572
 3121SOL     OW10078   0.036   4.885   1.759 -0.2366  0.2896  0.0426
 3121SOL    HW110079   0.031   4.899   1.854 -0.6185 -0.0770  0.0760
 3121SOL    HW210080   0.122   4.846   1.745 -0.2068  0.2842  0.2459
 3122SOL     OW10081   3.874   3.466   0.130  0.2776  0.2794  0.0855
 3122SOL    HW110082   3.825   3.405   0.185 -0.8678  0.4725 -0.6867
 3122SOL    HW210083   3.846   3.553   0.159  0.2794  0.3943 -0.2438
 3123SOL     OW10084   3.358   3.401   4.351 -0.1036  0.0270  0.5680
 3123SOL    HW110085   3.409   3.481   4.360 -0.0445  0.4179 -2.6649
 3123SOL    HW210086   3.398   3.356   4.275 -1.5720 -1.9424  0.9218
 3124SOL     OW10087   5.832   3.199   1.833 -0.6112  0.0319 -0.1504
 3124SOL    HW110088   5.752   3.198   1.885 -1.4782 -1.0690 -1.4700
 3124SOL    HW210089   5.902   3.183   1.896 -1.4699  0.3895  0.9229
 3125SOL     OW10090   3.684   1.453   6.261  0.0813 -1.2949  0.3728
 3125SOL    HW110091   3.714   1.380   6.207  0.9944 -1.8819  1.6511
 3125SOL    HW210092   3.764   1.502   6.283 -0.6484  0.8882 -1.5566
 3126SOL     OW10093   3.951   3.690   4.193  0.2916  0.5143 -0.5794
 3126SOL    HW110094   3.861   3.707   4.167 -0.4712 -1.8096  0.3681
 3126SOL    HW210095   3.994   3.661   4.112 -0.5431 -0.9686 -0.5180
 3127SOL     OW10096   1.140   2.564   4.628 -0.0715 -0.4964  0.0337
 3127SOL    HW110097   1.111   2.475   4.608 -0.1137 -0.4267 -0.2187
 3127SOL    HW210098   1.085   2.620   4.573 -0.1866 -0.3030  0.3438
 3128SOL     OW10099   1.510   3.336   2.495 -0.1785  0.3577  0.2451
 3128SOL    HW110100   1.539   3.318   2.584  0.0123 -0.2748  0.0571
 3128SOL    HW210101   1.513   3.431   2.487  1.1206  0.3357  0.4617
 3129SOL     OW10102   4.332   3.830   6.521  0.3842  0.4330  0.1734
 3129SOL    HW110103   4.248   3.786   6.512  1.0462 -0.8144 -0.0033
 3129SOL    HW210104   4.362   3.844   6.431  0.2656  1.0721  0.2322
 3130SOL     OW10105   6.338   5.267   5.749  0.3611 -0.5375  0.2647
 3130SOL    HW110106   6.306   5.180   5.773 -1.4490  0.6150  2.2452
 3130SOL    HW210107   6.432   5.264   5.766  0.5711 -2.5555 -1.1440
 3131SOL     OW10108   6.430   3.428   1.817  0.3586  0.0714  0.3413
 3131SOL    HW110109   6.492   3.458   1.883  0.6889  1.4052 -0.5536
 3131SOL    HW210110   6.418   3.503   1.759  0.3374 -1.1789 -1.3169
 3132SOL     OW10111   6.188   0.342   1.400  0.5538  0.4467  0.0685
 3132SOL    HW110112   6.111   0.316   1.349  1.1494 -0.3971 -0.4228
 3132SOL    HW210113   6.157   0.345   1.490  0.4259 -2.0018  0.1563
 3133SOL     OW10114   4.622   3.151   4.531  0.2224 -0.3797  0.3922
 3133SOL    HW110115   4.555   3.215   4.555  0.6671  0.2682 -0.0717
 3133SOL    HW210116   4.651   3.114   4.614 -0.0306  0.0335  0.6655
 3134SOL     OW10117   2.933   4.713   4.176 -0.1634 -0.1474  0.3586
 3134SOL    HW110118   3.013   4.684   4.134  0.7050  1.3699  0.9239
 3134SOL    HW210119   2.956   4.795   4.219 -2.0445  0.3685  0.4523
 3135SOL     OW10120   4.325   6.329   2.972 -0.3205  0.1718 -0.0529
 3135SOL    HW110121   4.337   6.344   2.879 -0.0658  0.2555 -0.0059
 3135SOL    HW210122   4.251   6.269   2.977 -0.8507  0.8035 -0.2720
 3136SOL     OW10123   3.818   0.763   2.225 -0.1738 -0.0330  0.1261
 3136SOL    HW110124   3.801   0.810   2.307  0.2249 -0.3088  0.3663
 3136SOL    HW210125   3.735   0.719   2.206 -0.1304 -0.3520  0.6373
 3137SOL     OW10126   3.809   2.229   4.960 -0.0006 -0.0980 -0.2392
 3137SOL    HW110127   3.897   2.253   4.990  0.3221  1.1914 -2.1602
 3137SOL    HW210128   3.813   2.133   4.953  0.5774 -0.2447  1.6765
 3138SOL     OW10129   0.765   3.659   4.590 -0.1913  0.0879 -0.0894
 3138SOL    HW110130   0.834   3.721   4.566  0.0028 -0.0507  0.1101
 3138SOL    HW210131   0.789   3.578   4.545 -0.0561 -0.0491  0.2272
 3139SOL     OW10132   4.890   3.383   0.925 -0.0064  0.5103  0.2845
 3139SOL    HW110133   4.981   3.357   0.920 -0.8150 -3.0906  2.4158
 3139SOL    HW210134   4.887   3.445   0.999  0.7905  1.1255 -0.1938
 3140SOL     OW10135   1.376   6.724   5.526 -0.3040 -0.1120  0.6092
 3140SOL    HW110136   1.399   6.699   5.436 -0.5153  1.5473  0.0641
 3140SOL    HW210137   1.399   6.817   5.530 -2.5228  0.4016  1.5469
 3141SOL     OW10138   6.529   5.175   1.915  0.2482  0.2748  0.2581
 3141SOL    HW110139   6.587   5.251   1.904  0.3012  0.1098 -0.6150
 3141SOL    HW210140   6.481   5.169   1.833  0.5251 -0.8731  0.1748
 3142SOL     OW10141   4.085   1.690   0.104  0.2181 -0.6502 -0.2362
 3142SOL    HW110142   4.097   1.776   0.064 -1.1621 -0.6025 -0.5818
 3142SOL    HW210143   4.142   1.632   0.054  0.2229 -0.1635 -0.7959
 3143SOL     OW10144   2.002   4.352   0.199 -0.2493  0.4423 -0.2315
 3143SOL    HW110145   1.951   4.321   0.124 -1.9686  0.0762  1.0458
 3143SOL    HW210146   2.083   4.301   0.197 -0.0876  0.7614 -2.0933
 3144SOL     OW10147   2.858   6.098   5.070  0.1657 -0.2899  0.2105
 3144SOL    HW110148   2.898   6.078   5.155  1.4926  0.6642 -0.1554
 3144SOL    HW210149   2.815   6.017   5.043 -1.3454 -0.2337  2.3556
 3145SOL     OW10150   1.601   0.281   0.030  0.0112  0.3848 -0.3088
 3145SOL    HW110151   1.647   0.234   0.100 -1.8611 -0.5778  0.3146
 3145SOL    HW210152   1.533   0.331   0.076  0.2857  1.6190 -1.2287
 3146SOL     OW10153   3.261   6.522   0.274 -0.5021 -0.2081 -0.7633
 3146SOL    HW110154   3.336   6.537   0.331 -0.8774  2.9564 -1.0307
 3146SOL    HW210155   3.207   6.459   0.322  0.8864 -0.2735  0.7549
 3147SOL     OW10156   4.736   0.528   1.953  0.1623 -0.8248 -0.0657
 3147SOL    HW110157   4.728   0.469   1.878 -0.6879  2.0959 -2.3338
 3147SOL    HW210158   4.769   0.610   1.917  0.6864  0.3621  2.9164
 3148SOL     OW10159   3.420   5.734   4.039  0.7208 -0.0420 -0.0975
 3148SOL    HW110160   3.483   5.715   4.108  0.8684 -1.5313 -0.6203
 3148SOL    HW210161   3.469   5.785   3.975  0.8499  0.4968  0.4279
 3149SOL     OW10162   2.738   4.331   4.768 -0.3083  0.0233 -0.1885
 3149SOL    HW110163   2.651   4.371   4.772  0.0289  0.6795  0.8382
 3149SOL    HW210164   2.745   4.297   4.679 -2.0396 -0.9915  0.0392
 3150SOL     OW10165   6.547   0.003   0.181 -0.3997 -0.0127  0.6724
 3150SOL    HW110166   6.537   0.018   0.275  0.4874  0.5409  0.6827
 3150SOL    HW210167   6.459  -0.017   0.150 -0.9472  1.3395  1.3413
 3151SOL     OW10168   1.130   0.634   2.755  0.0793  0.1428 -0.1193
 3151SOL    HW110169   1.039   0.604   2.761 -0.2424  1.1401  0.1859
 3151SOL    HW210170   1.135   0.678   2.669  0.4977 -0.6303 -0.4939
 3152SOL     OW10171   3.705   2.992   0.228 -0.0225  0.1833 -0.1707
 3152SOL    HW110172   3.714   2.930   0.300 -0.1746  0.4020  0.0382
 3152SOL    HW210173   3.646   2.949   0.166  0.5572 -0.2478 -0.4357
 3153SOL     OW10174   6.560   3.262   3.106  0.0007  0.0964 -0.1304
 3153SOL    HW110175   6.637   3.320   3.101 -0.1458  0.1750 -1.5479
 3153SOL    HW210176   6.541   3.240   3.015 -1.3388 -0.3623  0.2614
 3154SOL     OW10177   1.140   4.740   5.113 -0.4512 -0.4366 -0.2477
 3154SOL    HW110178   1.126   4.647   5.100 -0.0411 -0.3441 -1.3565
 3154SOL    HW210179   1.230   4.747   5.145 -1.0231 -0.5521  1.4323
 3155SOL     OW10180   3.356   5.028   3.604  0.3444  0.5012  0.3134
 3155SOL    HW110181   3.435   5.076   3.577 -0.1304  0.1617 -1.7670
 3155SOL    HW210182   3.326   5.074   3.683  1.6805  1.6559  0.1699
 3156SOL     OW10183   4.061   1.995   3.235 -0.5262  0.7225  0.2684
 3156SOL    HW110184   4.088   2.004   3.327 -2.4730  1.2277  0.8098
 3156SOL    HW210185   4.126   2.045   3.186  0.0764  1.1046  1.4419
 3157SOL     OW10186   5.686   5.000   1.870 -0.1789 -0.3262 -0.1558
 3157SOL    HW110187   5.683   4.975   1.778 -1.1670 -0.4670 -0.0930
 3157SOL    HW210188   5.743   4.934   1.911  1.3855  0.5353 -0.8926
 3158SOL     OW10189   4.897   3.923   3.985  0.3751  0.3533 -0.7239
 3158SOL    HW110190   4.918   3.830   3.987 -2.2360 -0.3417 -2.8674
 3158SOL    HW210191   4.819   3.931   4.038  0.9934  1.4659  0.0357
 3159SOL     OW10192   0.272   4.998   1.676 -0.7468  0.5691  0.4848
 3159SOL    HW110193   0.307   5.086   1.693 -0.1609  0.5876 -0.7610
 3159SOL    HW210194   0.348   4.940   1.684 -0.7441  0.4120 -0.6219
 3160SOL     OW10195   0.956   0.154   3.733  0.4615 -0.1826 -0.0571
 3160SOL    HW110196   1.011   0.209   3.677 -0.4544  0.7698 -0.0360
 3160SOL    HW210197   0.979   0.064   3.708  2.5389  0.1858  0.4668
 3161SOL     OW10198   1.116   5.206   3.842 -0.0468 -0.1075  0.3812
 3161SOL    HW110199   1.122   5.272   3.911 -0.2192  0.8806 -0.5366
 3161SOL    HW210200   1.056   5.140   3.877 -0.4988  0.6150  0.9814
 3162SOL     OW10201   4.062   4.836   6.071 -0.2778  0.2712  0.2457
 3162SOL    HW110202   4.033   4.867   6.157 -1.4260  0.5389 -0.2296
 3162SOL    HW210203   3.987   4.853   6.013  0.0954 -0.8791 -0.5866
 3163SOL     OW10204   0.287   3.868   3.529  0.2144 -0.1037 -0.2996
 3163SOL    HW110205   0.195   3.842   3.541  0.5430 -1.0719  0.1674
 3163SOL    HW210206   0.304   3.927   3.603  0.4337 -1.1976  0.5303
 3164SOL     OW10207   0.033   5.745   4.220  0.0276 -0.6042 -0.2423
 3164SOL    HW110208   0.024   5.650   4.209 -1.4436 -0.4308 -0.5956
 3164SOL    HW210209   0.053   5.778   4.132 -4.4115 -0.0547 -1.1541
 3165SOL     OW10210   4.292   3.220   0.782 -0.1995  0.0873 -0.2658
 3165SOL    HW110211   4.289   3.309   0.746 -2.0768 -0.0004 -0.3715
 3165SOL    HW210212   4.289   3.233   0.877 -1.8687  0.0936 -0.3157
 3166SOL     OW10213   4.513   0.453   0.498  0.0995  0.2875  0.4303
 3166SOL    HW110214   4.599   0.482   0.529  0.6634  0.8603 -1.6167
 3166SOL    HW210215   4.462   0.440   0.578  1.7526  0.9825  1.6254
 3167SOL     OW10216   5.214   5.571   4.677 -0.0488  0.0424 -0.0643
 3167SOL    HW110217   5.266   5.607   4.749 -0.2579 -0.0156  0.1161
 3167SOL    HW210218   5.274   5.570   4.602  0.5776 -1.1428  0.4426
 3168SOL     OW10219   4.879   0.961   5.672 -0.4854  0.0204  0.1050
 3168SOL    HW110220   4.912   1.030   5.729 -0.0851 -0.9800  1.0962
 3168SOL    HW210221   4.798   0.932   5.714  0.1680 -1.1877  0.5478
 3169SOL     OW10222   5.360   4.927   0.533 -0.7608 -0.2184  0.3654
 3169SOL    HW110223   5.370   4.833   0.544  0.0116 -0.0569  1.1612
 3169SOL    HW210224   5.277   4.948   0.575 -0.1563 -0.3203  1.6614
 3170SOL     OW10225   6.449   3.378   0.041 -0.2827  0.3042  0.5061
 3170SOL    HW110226   6.516   3.430  -0.004 -0.4979 -0.1279 -0.3304
 3170SOL    HW210227   6.489   3.291   0.051 -0.9441 -0.1444 -0.5901
 3171SOL     OW10228   3.505   4.541   2.960 -0.0405  0.2431 -0.1504
 3171SOL    HW110229   3.500   4.472   3.026  1.7553 -0.6357 -0.8925
 3171SOL    HW210230   3.594   4.534   2.925 -1.2061  0.1395 -3.2157
 3172SOL     OW10231   1.145   0.712   4.706  0.1231  0.1374  0.3959
 3172SOL    HW110232   1.198   0.633   4.701 -0.5216 -0.2779  0.1116
 3172SOL    HW210233   1.178   0.768   4.635 -1.5542 -1.1903 -1.4694
 3173SOL     OW10234   0.131   4.972   6.419  0.1529  0.3502 -0.7098
 3173SOL    HW110235   0.223   4.949   6.406  0.3304  1.2752 -1.1460
 3173SOL    HW210236   0.123   5.060   6.382 -0.9382  0.2245 -0.7888
 3174SOL     OW10237   4.877   2.329   0.784 -0.4457 -0.0205  0.2815
 3174SOL    HW110238   4.829   2.252   0.814 -0.4767 -0.3351 -0.5664
 3174SOL    HW210239   4.906   2.372   0.864  0.8228 -1.7019  0.7245
 3175SOL     OW10240   3.306   3.434   1.808 -0.4449  0.1919  0.3858
 3175SOL    HW110241   3.327   3.466   1.721 -0.8946  0.1913  0.2781
 3175SOL    HW210242   3.241   3.365   1.794  2.0158 -2.2539  0.4310
 3176SOL     OW10243   5.671   3.603   5.766 -0.4831  0.3755  0.3363
 3176SOL    HW110244   5.618   3.524   5.758 -0.4355  0.5580 -2.0040
 3176SOL    HW210245   5.611   3.674   5.744 -0.2794  0.9238  1.5195
 3177SOL     OW10246   0.586   0.362   2.546  0.0379 -0.5989 -0.7555
 3177SOL    HW110247   0.497   0.396   2.554  0.2612 -0.0579 -0.5742
 3177SOL    HW210248   0.614   0.388   2.458 -0.3634 -1.6837 -1.2165
 3178SOL     OW10249   4.156   2.093   0.493 -0.4052 -0.0362  0.6694
 3178SOL    HW110250   4.167   2.154   0.421  0.5877  1.7499  2.2909
 3178SOL    HW210251   4.132   2.010   0.451 -1.0708  1.2713 -1.5956
 3179SOL     OW10252   1.637   6.081   0.117 -0.1037  0.3151 -0.1149
 3179SOL    HW110253   1.619   6.158   0.062 -0.9394  0.3093  0.1354
 3179SOL    HW210254   1.631   6.115   0.207 -0.5210 -0.0460 -0.0031
 3180SOL     OW10255   1.285   3.939   4.572  0.4997 -0.6935  0.4571
 3180SOL    HW110256   1.247   3.858   4.607  0.9784 -1.2108 -0.2095
 3180SOL    HW210257   1.379   3.926   4.580  0.5552  0.2829  1.4202
 3181SOL     OW10258   0.859   3.019   1.598  0.0226 -0.3805  0.8598
 3181SOL    HW110259   0.810   3.029   1.517 -1.3783 -1.9751  1.4892
 3181SOL    HW210260   0.796   3.039   1.667  0.3475 -2.0303  1.6588
 3182SOL     OW10261   6.125   4.877   6.351  0.2447  0.8039  0.4814
 3182SOL    HW110262   6.066   4.921   6.413 -0.9213 -1.1468  0.7746
 3182SOL    HW210263   6.146   4.794   6.393 -1.8572 -1.2809 -2.4710
 3183SOL     OW10264   2.940   6.253   5.827 -0.2655 -0.1373  0.0433
 3183SOL    HW110265   2.860   6.305   5.831  0.5157  1.0858 -0.0061
 3183SOL    HW210266   2.944   6.208   5.912 -1.0470 -0.2904  0.0035
 3184SOL     OW10267   6.250   5.153   0.635  0.4915  0.3617  0.0444
 3184SOL    HW110268   6.210   5.068   0.653 -0.9054  1.3645  1.9137
 3184SOL    HW210269   6.190   5.194   0.572  1.3859 -0.1898 -1.1784
 3185SOL     OW10270   2.655   0.193   6.546  0.2399 -0.4477  0.6702
 3185SOL    HW110271   2.676   0.123   6.608  1.1667 -0.9457 -0.1790
 3185SOL    HW210272   2.733   0.248   6.545 -0.1432  0.0954  0.6632
 3186SOL     OW10273   3.851   1.972   4.923 -0.1212  0.1943 -0.1365
 3186SOL    HW110274   3.941   1.942   4.931 -0.4050 -0.7987 -0.5517
 3186SOL    HW210275   3.834   1.970   4.828 -0.9189 -0.6753  0.0184
 3187SOL     OW10276   0.548   2.276   1.587 -0.9578 -0.0974  0.2449
 3187SOL    HW110277   0.597   2.220   1.527 -0.8904  0.4895 -0.2524
 3187SOL    HW210278   0.615   2.321   1.638 -1.0096 -2.7766  2.8481
 3188SOL     OW10279   3.822   4.209   5.682  0.1745 -0.4085  0.0584
 3188SOL    HW110280   3.912   4.236   5.704 -0.4726  2.3518 -0.4733
 3188SOL    HW210281   3.818   4.216   5.586 -1.3267  1.9462  0.2654
 3189SOL     OW10282   5.917   3.081   2.367  0.3842  0.4153  0.1162
 3189SOL    HW110283   5.888   3.171   2.375  1.7615  0.8282  0.6116
 3189SOL    HW210284   5.855   3.040   2.306  0.1143  1.8452 -0.5728
 3190SOL     OW10285   6.516   5.420   5.101  0.0588 -0.2170  0.4215
 3190SOL    HW110286   6.548   5.425   5.191 -0.8480 -3.4414  0.9782
 3190SOL    HW210287   6.593   5.440   5.047  0.7548  1.1339  1.8741
 3191SOL     OW10288   2.171   4.465   3.852 -0.1057 -0.5170 -0.0251
 3191SOL    HW110289   2.088   4.459   3.899 -0.7501 -0.3470 -1.1350
 3191SOL    HW210290   2.237   4.439   3.917 -0.9107  0.3410  1.1669
 3192SOL     OW10291   2.778   1.138   1.329 -0.1217  0.7486 -0.1148
 3192SOL    HW110292   2.824   1.200   1.386  1.5807 -0.3144 -0.2755
 3192SOL    HW210293   2.815   1.053   1.352 -1.8067 -0.0995 -0.4978
 3193SOL     OW10294   3.146   3.591   2.950  0.1264 -0.2126 -0.0661
 3193SOL    HW110295   3.102   3.508   2.934 -0.6747  0.1948 -0.0408
 3193SOL    HW210296   3.137   3.639   2.868 -0.0712  0.1339  0.1537
 3194SOL     OW10297   2.327   6.515   0.858  0.8337 -0.3074 -0.2401
 3194SOL    HW110298   2.362   6.534   0.944 -0.8683 -0.1407  0.4389
 3194SOL    HW210299   2.357   6.587   0.803  0.3434  0.5901  0.6548
 3195SOL     OW10300   5.509   0.092   2.856  0.4430 -0.8296  0.4850
 3195SOL    HW110301   5.479   0.177   2.890 -0.4925 -1.3835  1.0663
 3195SOL    HW210302   5.468   0.028   2.913  0.4829 -1.7079 -0.4604
 3196SOL     OW10303   5.486   4.093   5.561 -0.0353 -0.1268  0.1002
 3196SOL    HW110304   5.472   4.178   5.518  0.6086  1.0179  2.0530
 3196SOL    HW210305   5.551   4.049   5.507  1.2296  1.5367  0.2400
 3197SOL     OW10306   1.753   1.950   3.655 -0.5713  0.2558 -0.7629
 3197SOL    HW110307   1.693   1.965   3.581 -2.7715 -2.5705  0.3406
 3197SOL    HW210308   1.698   1.957   3.732  1.0869  0.1490  0.4516
 3198SOL     OW10309   1.196   1.969   5.754 -0.5963 -0.4906 -0.4357
 3198SOL    HW110310   1.278   2.015   5.733 -1.4681  0.1168 -2.5928
 3198SOL    HW210311   1.195   1.965   5.849  1.6386  0.0716 -0.3586
 3199SOL     OW10312   5.089   6.216   0.701  0.3806 -0.0201 -0.4494
 3199SOL    HW110313   5.066   6.181   0.787  0.2966  0.2746 -0.3510
 3199SOL    HW210314   5.179   6.185   0.686 -0.1762 -1.4164 -0.9623
 3200SOL     OW10315   4.242   2.832   2.065  0.1666 -0.2892  0.7226
 3200SOL    HW110316   4.245   2.901   1.998 -2.6122 -1.0226 -0.2282
 3200SOL    HW210317   4.295   2.761   2.030  0.1046 -0.0106  0.0655
 3201SOL     OW10318   4.240   1.257   3.523 -0.5410 -0.4908  0.0831
 3201SOL    HW110319   4.267   1.179   3.475 -1.2283 -0.1671 -0.8373
 3201SOL    HW210320   4.294   1.256   3.603 -2.0754 -3.0758  1.1421
 3202SOL     OW10321   5.272   4.021   5.723  0.0303 -0.2532 -0.1061
 3202SOL    HW110322   5.205   4.089   5.727  0.3564  0.0912 -0.4937
 3202SOL    HW210323   5.344   4.060   5.673  0.8580 -0.3203  0.9929
 3203SOL     OW10324   5.220   4.291   6.296  0.0723  0.0725 -0.2551
 3203SOL    HW110325   5.227   4.218   6.234  0.7965  0.0933 -0.2043
 3203SOL    HW210326   5.138   4.275   6.343 -0.3397 -0.1003 -1.0165
 3204SOL     OW10327   0.576   1.881   1.688 -0.4468 -0.3214 -0.0285
 3204SOL    HW110328   0.527   1.809   1.727 -0.2031 -0.5859 -0.2016
 3204SOL    HW210329   0.510   1.937   1.649 -0.6360 -0.4762  0.0680
 3205SOL     OW10330   2.400   4.960   4.806  0.4067 -0.3879  0.0868
 3205SOL    HW110331   2.400   4.866   4.791  1.3716 -0.2408 -0.9100
 3205SOL    HW210332   2.480   4.977   4.856 -1.3416 -0.4894  3.0002
 3206SOL     OW10333   6.248   2.607   6.743 -0.5926 -0.3437 -0.3990
 3206SOL    HW110334   6.163   2.625   6.782 -1.2253 -0.2500 -1.8119
 3206SOL    HW210335   6.288   2.542   6.801 -1.7545 -0.6260  0.0831
 3207SOL     OW10336   2.719   0.434   1.567 -0.0082  0.2259  0.5253
 3207SOL    HW110337   2.688   0.344   1.559  0.0345  0.2753 -0.2622
 3207SOL    HW210338   2.640   0.486   1.581 -0.2190  0.2639 -0.7300
 3208SOL     OW10339   2.716   5.010   3.976 -0.6116  0.5876  0.0426
 3208SOL    HW110340   2.755   5.063   3.907 -2.0604  1.3447 -0.2309
 3208SOL    HW210341   2.728   5.062   4.056 -0.1680  0.3521  0.1301
 3209SOL     OW10342   2.501   3.016   4.771 -0.5183  0.0793 -0.1562
 3209SOL    HW110343   2.515   3.089   4.832 -0.7894  1.3665 -1.5934
 3209SOL    HW210344   2.541   3.046   4.689 -0.2046 -1.6011 -0.6249
 3210SOL     OW10345   0.091   0.326   2.207  0.3842 -0.4174  0.5917
 3210SOL    HW110346   0.072   0.359   2.295  0.8187 -1.5763  1.1305
 3210SOL    HW210347   0.006   0.322   2.164  0.3238  1.3893  0.5133
 3211SOL     OW10348   3.864   0.767   3.670 -0.0013 -0.7574  0.6031
 3211SOL    HW110349   3.775   0.800   3.654 -0.0119 -0.7939  0.5856
 3211SOL    HW210350   3.863   0.678   3.635 -0.0949 -0.9233  1.0248
 3212SOL     OW10351   0.916   3.525   3.304 -0.2793  0.0134  0.3152
 3212SOL    HW110352   0.878   3.604   3.266  2.0587  0.8897 -0.3010
 3212SOL    HW210353   0.925   3.544   3.397 -3.1288 -0.9619  0.8409
 3213SOL     OW10354   2.548   0.309   3.002 -0.2084  0.6324  0.1286
 3213SOL    HW110355   2.591   0.234   3.043  2.4081  1.6870 -0.6169
 3213SOL    HW210356   2.502   0.352   3.074  1.3197  0.3864  1.2722
 3214SOL     OW10357   4.351   2.446   0.654 -0.5359  0.5401 -0.6637
 3214SOL    HW110358   4.347   2.514   0.721  1.5933  2.1069 -2.0318
 3214SOL    HW210359   4.427   2.393   0.678 -0.3408  0.5277 -1.2872
 3215SOL     OW10360   0.457   5.438   6.161 -0.0191  0.4086 -0.0838
 3215SOL    HW110361   0.426   5.494   6.233  1.0798  1.3573 -0.3394
 3215SOL    HW210362   0.387   5.374   6.149 -0.3064  0.3549  1.7087
 3216SOL     OW10363   6.419   5.795   0.026  0.0798  0.1246 -0.5331
 3216SOL    HW110364   6.483   5.782   0.096 -1.7338 -1.7433  0.8052
 3216SOL    HW210365   6.473   5.812  -0.052  2.1630  0.2275  0.8904
 3217SOL     OW10366   0.579   6.533   5.791  0.2018  0.1382 -0.0422
 3217SOL    HW110367   0.640   6.521   5.863 -0.1078 -1.3161  0.0071
 3217SOL    HW210368   0.593   6.622   5.761  1.0478  0.4118  1.1581
 3218SOL     OW10369   6.229   1.482   2.611  0.6017  0.1726  0.0276
 3218SOL    HW110370   6.177   1.562   2.604  0.4430  0.1563  0.8967
 3218SOL    HW210371   6.290   1.485   2.538 -0.7601  0.1046 -1.1300
 3219SOL     OW10372   4.238   1.827   0.942 -0.6426  0.3458 -0.2114
 3219SOL    HW110373   4.245   1.923   0.941 -2.6971  0.5256  0.0152
 3219SOL    HW210374   4.185   1.808   1.020 -0.3371 -0.9742 -0.3163
 3220SOL     OW10375   4.359   2.404   6.677  0.6944  0.0158 -0.1283
 3220SOL    HW110376   4.427   2.354   6.722  0.7559 -0.8795 -1.2074
 3220SOL    HW210377   4.332   2.348   6.605 -0.9940  0.4896  0.1261
 3221SOL     OW10378   2.799   0.084   3.998 -0.2730 -0.5431 -0.0885
 3221SOL    HW110379   2.789   0.083   3.903 -1.1999 -0.2775 -0.0006
 3221SOL    HW210380   2.718   0.123   4.031  0.5923  0.6402  0.7469
 3222SOL     OW10381   2.621   4.446   0.274  0.0547 -0.0447  0.7009
 3222SOL    HW110382   2.716   4.452   0.283  0.4447 -0.6068 -2.5973
 3222SOL    HW210383   2.599   4.513   0.209 -1.3354 -2.3559 -1.2768
 3223SOL     OW10384   1.021   2.089   4.139  0.0570  0.3922 -0.1854
 3223SOL    HW110385   0.956   2.134   4.194  0.2102  0.9903 -0.4955
 3223SOL    HW210386   1.098   2.146   4.141 -0.1964  0.7866 -1.6416
 3224SOL     OW10387   2.628   3.537   6.346 -0.3222 -0.3058  0.2934
 3224SOL    HW110388   2.626   3.632   6.359 -1.5168 -0.1546 -0.9172
 3224SOL    HW210389   2.655   3.502   6.431  0.4660  1.1249  0.6552
 3225SOL     OW10390   5.801   0.791   1.524  0.8293  0.2387  0.4608
 3225SOL    HW110391   5.784   0.841   1.604 -0.7860 -0.6173  0.6860
 3225SOL    HW210392   5.717   0.749   1.504  1.4058 -0.1576 -1.2731
 3226SOL     OW10393   5.376   2.555   2.282 -0.0422 -0.4178  0.1481
 3226SOL    HW110394   5.322   2.557   2.362  0.5745 -0.4099  0.5636
 3226SOL    HW210395   5.317   2.520   2.215 -0.1734 -1.6281  0.8875
 3227SOL     OW10396   6.105   4.221   2.264 -0.0437  0.0023 -0.3608
 3227SOL    HW110397   6.144   4.245   2.348 -1.2342 -4.2439  1.5544
 3227SOL    HW210398   6.014   4.250   2.270  0.7492  2.8239 -1.6318
 3228SOL     OW10399   4.743   6.289   3.963 -0.4925 -0.4233  0.0218
 3228SOL    HW110400   4.673   6.226   3.949 -0.1841 -0.7051 -0.2558
 3228SOL    HW210401   4.808   6.269   3.896 -0.9293  0.9535 -0.8521
 3229SOL     OW10402   1.170   3.163   1.069  0.5535  0.7018 -0.1419
 3229SOL    HW110403   1.239   3.124   1.122  1.1283  1.3862 -0.3703
 3229SOL    HW210404   1.208   3.168   0.981  0.5527  1.9218 -0.0769
 3230SOL     OW10405   6.410   3.058   0.155 -0.2960  0.5162  0.2261
 3230SOL    HW110406   6.388   2.994   0.223 -2.2346  0.2368 -0.6321
 3230SOL    HW210407   6.474   3.015   0.100 -1.9595 -0.9243 -0.6404
 3231SOL     OW10408   2.396   4.259   2.537  0.5991 -0.4570  0.1837
 3231SOL    HW110409   2.375   4.300   2.621  0.7627 -1.2518  0.6188
 3231SOL    HW210410   2.339   4.304   2.474  2.0960  1.7352  0.3258
 3232SOL     OW10411   0.566   0.489   4.789  0.0125  0.1606  0.1731
 3232SOL    HW110412   0.600   0.446   4.867 -0.6967 -1.8128 -0.5615
 3232SOL    HW210413   0.537   0.575   4.819 -3.7108 -1.8948  2.9341
 3233SOL     OW10414   5.086   5.555   3.367  0.1042 -0.2485  0.3932
 3233SOL    HW110415   5.046   5.512   3.291 -0.1808  2.1730 -0.8726
 3233SOL    HW210416   5.013   5.578   3.423  0.1444 -0.2249  0.4351
 3234SOL     OW10417   2.119   0.269   2.141 -0.0999 -0.2266  0.0294
 3234SOL    HW110418   2.081   0.182   2.126  2.4622 -1.3830  0.0654
 3234SOL    HW210419   2.170   0.260   2.221 -0.3779  1.5333  0.4348
 3235SOL     OW10420   1.765   0.534   1.303  0.0671 -0.2962  0.0626
 3235SOL    HW110421   1.790   0.498   1.217  1.8925 -0.2321  0.5411
 3235SOL    HW210422   1.673   0.556   1.293 -0.5453 -3.0659 -0.9384
 3236SOL     OW10423   6.567   0.193   2.791  0.0488 -0.7423 -0.2355
 3236SOL    HW110424   6.605   0.134   2.726  2.2713 -0.8755  1.1351
 3236SOL    HW210425   6.601   0.162   2.875 -0.5232  1.1420  0.7247
 3237SOL     OW10426   1.255   2.578   6.103  0.0460 -0.2775 -0.0143
 3237SOL    HW110427   1.282   2.488   6.082 -0.2735  0.0070 -1.7320
 3237SOL    HW210428   1.232   2.575   6.196 -1.3496 -2.3211 -0.3865
 3238SOL     OW10429   4.255   6.303   6.261 -0.6143 -0.2191  0.0611
 3238SOL    HW110430   4.314   6.281   6.189 -0.1850 -0.9839  0.6417
 3238SOL    HW210431   4.175   6.253   6.243 -1.1479  0.8756 -0.7660
 3239SOL     OW10432   3.928   1.323   3.147 -0.7174  0.2488 -0.3455
 3239SOL    HW110433   3.937   1.304   3.240  0.2780  2.1016 -0.0269
 3239SOL    HW210434   3.995   1.270   3.105 -1.2032 -0.6356 -0.0244
 3240SOL     OW10435   3.516   3.897   4.954  0.0185  0.4759 -0.1822
 3240SOL    HW110436   3.549   3.982   4.927  0.6833  0.4779  0.5865
 3240SOL    HW210437   3.529   3.896   5.049  1.0187 -0.8924 -0.3180
 3241SOL     OW10438   0.455   2.721   3.925 -0.3127 -0.5001  0.0672
 3241SOL    HW110439   0.394   2.652   3.952  0.6582 -0.2577  3.1051
 3241SOL    HW210440   0.541   2.691   3.956  0.3336  1.4210  0.2282
 3242SOL     OW10441   2.126   2.314   5.823 -0.5380  0.4358  0.3626
 3242SOL    HW110442   2.220   2.334   5.826 -0.3786 -0.1700 -0.5680
 3242SOL    HW210443   2.093   2.345   5.908  0.0670  2.7895 -0.2081
 3243SOL     OW10444   4.649   6.553   0.064 -0.1715 -0.2259  0.1507
 3243SOL    HW110445   4.567   6.600   0.047 -0.3340 -0.2362  0.8880
 3243SOL    HW210446   4.708   6.583  -0.005 -0.2720  1.0967  0.6149
 3244SOL     OW10447   1.347   0.305   0.792  0.6672 -0.4240 -0.0097
 3244SOL    HW110448   1.258   0.275   0.814  0.7967  0.0608  1.2072
 3244SOL    HW210449   1.382   0.339   0.874  2.0576 -0.7767 -0.4414
 3245SOL     OW10450   4.303   5.008   3.923 -0.0785 -0.3886 -0.1126
 3245SOL    HW110451   4.297   5.059   4.004  0.9528  0.1449 -0.3654
 3245SOL    HW210452   4.327   4.920   3.952  0.0023 -0.2723  0.1773
 3246SOL     OW10453   3.147   5.049   4.021  0.1844  0.1765 -0.3513
 3246SOL    HW110454   3.206   5.008   3.957  2.5364  0.5532  1.5025
 3246SOL    HW210455   3.148   5.142   3.999  0.7885  0.2678  0.0368
 3247SOL     OW10456   0.892   5.632   5.245  0.2691 -0.4293 -0.2112
 3247SOL    HW110457   0.987   5.639   5.239  0.5287 -1.9041  1.5999
 3247SOL    HW210458   0.877   5.554   5.299 -1.9424  0.4492  0.5112
 3248SOL     OW10459   1.907   5.639   6.071 -0.1006  0.4561 -0.5654
 3248SOL    HW110460   1.844   5.567   6.064  0.4512  0.0298 -1.3037
 3248SOL    HW210461   1.992   5.598   6.051  0.3120  1.1630 -0.2825
 3249SOL     OW10462   6.482   6.137   1.867  0.4686  0.6471 -0.2679
 3249SOL    HW110463   6.460   6.045   1.852  2.3341  0.3538 -1.4259
 3249SOL    HW210464   6.551   6.155   1.803 -1.1967  3.3968 -1.3500
 3250SOL     OW10465   5.373   3.218   2.824 -0.3356 -0.4611 -0.3922
 3250SOL    HW110466   5.376   3.146   2.761  0.2057 -1.0353  0.2849
 3250SOL    HW210467   5.463   3.253   2.825 -0.3113 -0.5382  0.1615
 3251SOL     OW10468   5.132   0.512   0.169 -0.1085 -0.3479 -0.2815
 3251SOL    HW110469   5.101   0.577   0.232 -0.4991  1.0906 -1.9292
 3251SOL    HW210470   5.193   0.458   0.219  1.1439  2.0088  0.8288
 3252SOL     OW10471   3.071   3.265   0.158  0.0298  0.2588  0.1336
 3252SOL    HW110472   3.093   3.215   0.236 -1.3525 -0.8150 -0.1621
 3252SOL    HW210473   3.150   3.261   0.104  0.1048 -1.1415  0.3467
 3253SOL     OW10474   3.004   6.144   5.306  0.4190  0.0471  0.6138
 3253SOL    HW110475   3.048   6.061   5.323 -0.1977 -0.3820  0.1437
 3253SOL    HW210476   3.032   6.201   5.377  0.7714 -0.5911  0.9935
 3254SOL     OW10477   6.664   0.463   1.076 -0.1149 -0.1352 -0.0053
 3254SOL    HW110478   6.653   0.394   1.141  1.3964 -0.2876  0.1225
 3254SOL    HW210479   6.615   0.432   0.999  0.5973 -1.3860  0.0305
 3255SOL     OW10480   4.036   0.634   3.817  0.1743  0.0288 -0.2825
 3255SOL    HW110481   3.981   0.562   3.847  1.0902 -0.9221 -0.8404
 3255SOL    HW210482   3.975   0.698   3.780 -0.8921  0.8196  2.7402
 3256SOL     OW10483   6.384   3.012   5.040  0.3672 -0.1971  0.2308
 3256SOL    HW110484   6.291   3.022   5.059  0.5316 -0.3548  1.1138
 3256SOL    HW210485   6.428   3.068   5.103  1.0166 -2.3297  1.7348
 3257SOL     OW10486   3.965   4.094   4.376  0.4560  0.2990  0.5308
 3257SOL    HW110487   4.022   4.026   4.412  0.4060 -0.7830 -1.3933
 3257SOL    HW210488   3.964   4.078   4.282  0.3761  2.9358  0.0489
 3258SOL     OW10489   0.465   2.652   2.635 -0.1524  0.4339 -0.4488
 3258SOL    HW110490   0.369   2.654   2.639 -0.1295  1.4785 -0.0033
 3258SOL    HW210491   0.486   2.686   2.548 -0.1738  1.8024  0.0525
 3259SOL     OW10492   1.716   0.488   0.534  0.9574  1.0946 -0.1851
 3259SOL    HW110493   1.765   0.422   0.485 -1.5654 -1.3565  0.4202
 3259SOL    HW210494   1.732   0.467   0.626  0.6428  1.7409  0.0226
 3260SOL     OW10495   1.814   2.151   5.904  0.5855 -0.4188  0.3023
 3260SOL    HW110496   1.820   2.214   5.976  0.7208 -0.6441  0.4910
 3260SOL    HW210497   1.773   2.074   5.944  4.2167 -1.9934  1.1506
 3261SOL     OW10498   0.489   1.873   0.328 -0.2301 -0.1437  0.0431
 3261SOL    HW110499   0.532   1.913   0.403 -1.1323 -0.5010  0.7509
 3261SOL    HW210500   0.559   1.829   0.280  0.4144  0.4696  0.4239
 3262SOL     OW10501   0.237   5.993   5.627  0.2640 -0.4947 -0.6423
 3262SOL    HW110502   0.191   5.985   5.544 -0.0467 -1.4985 -0.3838
 3262SOL    HW210503   0.296   5.917   5.630  0.8421 -0.0365 -0.3016
 3263SOL     OW10504   4.992   2.210   5.943  0.7446  0.2498 -0.2448
 3263SOL    HW110505   4.907   2.204   5.899  0.7749 -0.0420 -0.2659
 3263SOL    HW210506   5.009   2.121   5.975  0.3859  0.6218  0.9867
 3264SOL     OW10507   4.385   6.530   4.548  0.3758  0.0826  0.0802
 3264SOL    HW110508   4.390   6.488   4.462 -0.0749  1.1342 -0.4735
 3264SOL    HW210509   4.299   6.572   4.549  0.1741 -0.3623  1.2531
 3265SOL     OW10510   0.152   1.099   0.587  0.5523 -0.0065 -0.4810
 3265SOL    HW110511   0.065   1.139   0.579 -1.1393 -3.0833  1.3771
 3265SOL    HW210512   0.173   1.071   0.498 -1.8463 -2.0321 -0.4778
 3266SOL     OW10513   6.716   3.419   6.689 -0.5291  0.5273  0.1823
 3266SOL    HW110514   6.643   3.466   6.649  1.0751  3.1891  0.2846
 3266SOL    HW210515   6.792   3.475   6.674  1.2809 -1.5485  1.2517
 3267SOL     OW10516   3.398   5.410   2.772  0.2263 -0.1186  0.0834
 3267SOL    HW110517   3.459   5.457   2.716 -0.2586  0.8590  0.3529
 3267SOL    HW210518   3.397   5.321   2.738 -0.1313  0.4853 -1.5238
 3268SOL     OW10519   0.381   1.226   5.418  0.3276 -0.1436 -0.0440
 3268SOL    HW110520   0.291   1.243   5.448 -0.0814  0.6566 -1.6616
 3268SOL    HW210521   0.436   1.262   5.487 -0.5927 -0.7984  1.0557
 3269SOL     OW10522   3.718   6.715   5.119 -0.4841 -0.2411 -0.0625
 3269SOL    HW110523   3.711   6.740   5.211 -0.9856 -0.9705  0.1064
 3269SOL    HW210524   3.808   6.735   5.094 -0.5869  0.7609  0.3439
 3270SOL     OW10525   3.084   1.849   5.045 -0.2175  0.4051 -0.0636
 3270SOL    HW110526   3.160   1.902   5.070 -1.3255  1.9918 -0.0186
 3270SOL    HW210527   3.122   1.765   5.019  1.5352  1.0798  0.2057
 3271SOL     OW10528   5.936   4.235   2.793 -0.4413  0.8711  0.2464
 3271SOL    HW110529   6.025   4.211   2.766  0.1971  1.1513  2.0104
 3271SOL    HW210530   5.891   4.151   2.805 -0.3885  0.7257 -0.5774
 3272SOL     OW10531   3.678   3.105   3.390  0.0269  0.2708  0.4873
 3272SOL    HW110532   3.670   3.171   3.322 -0.3702 -1.3537 -1.0731
 3272SOL    HW210533   3.769   3.112   3.419  0.1759  1.0225 -0.1392
 3273SOL     OW10534   5.364   1.728   4.395 -0.2590  0.3894  0.5969
 3273SOL    HW110535   5.399   1.771   4.317  2.8849 -0.0599  1.6707
 3273SOL    HW210536   5.307   1.794   4.435 -0.8059  1.1130 -1.3107
 3274SOL     OW10537   4.743   0.747   3.675  0.5204 -0.3228  0.0571
 3274SOL    HW110538   4.822   0.787   3.711  1.1524  0.7542 -2.4177
 3274SOL    HW210539   4.675   0.814   3.687  0.7121  0.0033 -0.6576
 3275SOL     OW10540   5.450   5.265   4.006  0.0346  0.1876  0.2652
 3275SOL    HW110541   5.364   5.239   4.040 -2.5831  2.5390 -4.1631
 3275SOL    HW210542   5.444   5.359   3.994  2.3127  0.0401 -2.6120
 3276SOL     OW10543   0.670   4.102   5.519  0.1796 -0.1386  0.4867
 3276SOL    HW110544   0.654   4.037   5.588 -0.6512  0.0154  0.4330
 3276SOL    HW210545   0.741   4.064   5.467 -0.9448 -1.4517 -0.1076
 3277SOL     OW10546   6.719   1.754   2.026  0.5470  0.6282  0.5677
 3277SOL    HW110547   6.730   1.788   2.114  0.3659  0.9827  0.4541
 3277SOL    HW210548   6.676   1.669   2.039 -0.5033  1.1766  0.7642
 3278SOL     OW10549   6.161   5.845   0.558 -0.1448  0.5942  0.0482
 3278SOL    HW110550   6.238   5.800   0.525 -0.9585 -1.4656  0.8485
 3278SOL    HW210551   6.142   5.801   0.641 -1.2978  2.0659  0.5719
 3279SOL     OW10552   5.956   2.928   4.871 -0.0045  0.4966 -0.7910
 3279SOL    HW110553   5.917   2.842   4.889 -0.1042  0.6929 -0.0323
 3279SOL    HW210554   5.914   2.957   4.790  1.3092 -0.9286 -2.0158
 3280SOL     OW10555   4.815   6.409   2.140 -0.4489 -0.3282  0.0759
 3280SOL    HW110556   4.745   6.419   2.204  1.8264  0.1692  2.5623
 3280SOL    HW210557   4.836   6.315   2.142 -1.3421 -0.5646 -1.0347
 3281SOL     OW10558   6.357   2.768   3.458 -0.3641 -0.2010  0.1401
 3281SOL    HW110559   6.338   2.701   3.523  0.4071 -0.1127  0.4610
 3281SOL    HW210560   6.401   2.838   3.507 -2.5559  1.2334  0.1021
 3282SOL     OW10561   0.721   1.575   4.268 -0.2289 -0.0982  0.5722
 3282SOL    HW110562   0.723   1.584   4.363 -0.7145 -0.7262  0.6459
 3282SOL    HW210563   0.793   1.516   4.247 -1.8039 -2.1706  0.8210
 3283SOL     OW10564   0.129   5.217   6.295  0.0210  0.2244  0.0750
 3283SOL    HW110565   0.037   5.241   6.280 -0.0932  0.5504  1.2341
 3283SOL    HW210566   0.169   5.219   6.208 -0.8634  0.9839 -0.3224
 3284SOL     OW10567   4.307   2.961   2.317  0.6150  0.1137  0.5820
 3284SOL    HW110568   4.390   2.935   2.356  0.6502 -1.6266 -0.6149
 3284SOL    HW210569   4.299   2.907   2.239 -0.8904  1.4026 -0.1852
 3285SOL     OW10570   4.520   4.782   3.659 -0.3222  0.2588 -0.1726
 3285SOL    HW110571   4.542   4.862   3.706  1.6901  0.1365 -0.8762
 3285SOL    HW210572   4.455   4.739   3.715 -0.2595  1.5922  0.9706
 3286SOL     OW10573   1.376   3.862   3.220  0.9596  0.1898 -0.0617
 3286SOL    HW110574   1.410   3.795   3.162 -1.6456 -0.2173 -1.1877
 3286SOL    HW210575   1.394   3.829   3.308 -1.7973 -2.8995 -0.5447
 3287SOL     OW10576   4.080   2.902   6.672 -0.1882 -0.3986 -0.2139
 3287SOL    HW110577   4.093   2.826   6.615 -1.2527  0.5196 -1.7121
 3287SOL    HW210578   4.149   2.963   6.647 -0.9454  0.2006 -0.8668
 3288SOL     OW10579   2.307   4.656   0.760  0.0145  0.3920  0.1711
 3288SOL    HW110580   2.292   4.589   0.827 -0.0201  0.3217  0.0936
 3288SOL    HW210581   2.322   4.606   0.679  0.5940  0.4641  0.2331
 3289SOL     OW10582   1.626   2.266   4.838 -0.4237 -0.1682 -0.1379
 3289SOL    HW110583   1.611   2.181   4.879 -2.0064  0.2154  0.1090
 3289SOL    HW210584   1.576   2.327   4.892  1.1316  1.0174  0.0096
 3290SOL     OW10585   1.799   4.260   0.004 -0.7214  0.1445  0.4565
 3290SOL    HW110586   1.788   4.196  -0.067 -0.8001 -0.8860  1.3839
 3290SOL    HW210587   1.709   4.284   0.028 -0.6954  0.4031  0.3065
 3291SOL     OW10588   6.630   0.603   6.742 -0.3014  0.1664  0.3834
 3291SOL    HW110589   6.673   0.689   6.740 -0.7975  0.4096  0.2987
 3291SOL    HW210590   6.556   0.615   6.801 -0.3742 -0.2026  0.3634
 3292SOL     OW10591   4.950   3.784   5.730  0.2901  0.0559 -0.1415
 3292SOL    HW110592   4.956   3.840   5.652 -0.3034  3.2000  1.9474
 3292SOL    HW210593   5.020   3.720   5.719  1.2710  1.4471 -2.4648
 3293SOL     OW10594   6.050   5.864   6.250 -0.7347  0.5873 -0.3244
 3293SOL    HW110595   6.044   5.769   6.240 -0.6681  0.2665  2.3316
 3293SOL    HW210596   6.121   5.890   6.191 -0.8099 -0.9846 -1.1423
 3294SOL     OW10597   5.255   4.287   3.762 -0.1384 -0.4602  0.4927
 3294SOL    HW110598   5.162   4.285   3.785  0.0360 -1.0832  1.1792
 3294SOL    HW210599   5.267   4.211   3.705 -0.1351 -0.1341  0.0567
 3295SOL     OW10600   4.526   5.140   5.516 -0.1255 -0.6495 -0.0322
 3295SOL    HW110601   4.537   5.234   5.526 -0.6324 -0.2846 -2.4312
 3295SOL    HW210602   4.614   5.104   5.522  0.0973  0.0043  0.6613
 3296SOL     OW10603   4.365   5.292   2.803  0.2392 -0.0895  0.1731
 3296SOL    HW110604   4.290   5.330   2.758  1.7599  3.9368  0.8695
 3296SOL    HW210605   4.431   5.281   2.734  0.6613  0.8919  0.4176
 3297SOL     OW10606   1.729   1.084   1.337  1.0854 -0.0838 -0.5577
 3297SOL    HW110607   1.687   1.022   1.278  2.0979 -2.1292  0.7961
 3297SOL    HW210608   1.659   1.114   1.395  0.7556 -0.6351 -0.6745
 3298SOL     OW10609   2.534   0.209   5.967 -0.2573 -0.3492  0.2562
 3298SOL    HW110610   2.593   0.238   5.898 -2.2055  0.6176 -1.0659
 3298SOL    HW210611   2.578   0.232   6.048  0.6011  1.5708 -0.7173
 3299SOL     OW10612   1.550   3.110   4.654 -0.9869 -0.1359  0.1911
 3299SOL    HW110613   1.550   3.152   4.740  1.1558  1.3801 -0.4996
 3299SOL    HW210614   1.631   3.059   4.653 -1.4827 -0.9223 -0.5726
 3300SOL     OW10615   0.611   2.304   6.476 -0.3769  0.1145  0.6426
 3300SOL    HW110616   0.520   2.325   6.498 -0.4145 -0.1381  0.7364
 3300SOL    HW210617   0.638   2.372   6.414 -1.3762 -1.1167 -1.2050
 3301SOL     OW10618   1.947   0.597   5.524  0.3981  0.0766  0.1045
 3301SOL    HW110619   2.019   0.534   5.526  0.4245  0.0372 -1.3931
 3301SOL    HW210620   1.986   0.677   5.490  0.5837  1.2327  2.8657
 3302SOL     OW10621   3.489   2.929   3.463  0.0851 -0.0762 -0.0851
 3302SOL    HW110622   3.521   2.891   3.545  1.5710  0.2500 -0.5027
 3302SOL    HW210623   3.567   2.961   3.419 -0.7391  0.0123 -1.5118
 3303SOL     OW10624   3.402   5.313   0.713  0.6397 -0.1851 -0.4396
 3303SOL    HW110625   3.328   5.265   0.675  0.0686  1.3384 -1.3129
 3303SOL    HW210626   3.480   5.273   0.675  0.1805 -0.4880 -1.0569
 3304SOL     OW10627   1.145   0.916   1.975 -0.0739  0.5129 -0.2077
 3304SOL    HW110628   1.092   0.837   1.990  1.9493 -0.8984 -0.2489
 3304SOL    HW210629   1.200   0.894   1.900  0.8357  1.8092  0.0624
 3305SOL     OW10630   0.912   3.050   3.093  0.2009 -0.3202 -0.1886
 3305SOL    HW110631   0.907   3.035   3.187 -2.0738  1.2170 -0.0063
 3305SOL    HW210632   0.867   2.974   3.054 -1.2874  0.3640  0.1398
 3306SOL     OW10633   2.194   1.239   2.545  0.0444 -0.0504 -0.1888
 3306SOL    HW110634   2.209   1.147   2.568  1.6495  0.0067 -0.8959
 3306SOL    HW210635   2.137   1.236   2.468  1.3910 -0.5328 -1.1910
 3307SOL     OW10636   5.149   2.848   0.432  0.6993 -0.0561  0.1715
 3307SOL    HW110637   5.100   2.776   0.394  1.1431 -1.1583  1.6532
 3307SOL    HW210638   5.181   2.898   0.357 -2.5130  0.6001 -0.8616
 3308SOL     OW10639   2.545   3.799   5.689 -0.1388 -0.6024 -0.0225
 3308SOL    HW110640   2.570   3.736   5.621 -0.9211  0.0475 -0.9247
 3308SOL    HW210641   2.487   3.750   5.747 -0.2819 -0.8724 -0.3929
 3309SOL     OW10642   5.964   5.073   2.395  0.2476  0.0493  0.1677
 3309SOL    HW110643   6.039   5.084   2.337  1.1855  0.5055  1.4275
 3309SOL    HW210644   5.950   5.159   2.435 -1.9514  0.3671 -1.2051
 3310SOL     OW10645   2.877   3.865   2.022 -0.2048 -0.3735 -0.0003
 3310SOL    HW110646   2.829   3.809   1.961 -0.6456  0.4163 -0.3793
 3310SOL    HW210647   2.967   3.831   2.019  0.0039  0.3011 -1.8644
 3311SOL     OW10648   3.684   0.157   3.433 -0.3295  0.5969 -0.2041
 3311SOL    HW110649   3.657   0.067   3.417  1.4498  0.1585 -0.8947
 3311SOL    HW210650   3.642   0.181   3.516  0.0862 -1.2570  0.5687
 3312SOL     OW10651   6.495   0.392   0.136 -0.1240  0.4203  0.2492
 3312SOL    HW110652   6.420   0.450   0.125 -0.0236  0.5323  0.1598
 3312SOL    HW210653   6.537   0.422   0.217  0.8638  1.5098 -0.6657
 3313SOL     OW10654   4.922   0.325   3.757  0.5613 -0.2177  0.3361
 3313SOL    HW110655   4.875   0.259   3.807  2.1149 -1.1389  0.6134
 3313SOL    HW210656   4.969   0.276   3.689 -1.2842  0.9868 -1.8946
 3314SOL     OW10657   6.266   2.105   5.132 -0.2184 -0.0417 -0.2877
 3314SOL    HW110658   6.193   2.163   5.155 -0.6423  0.0354 -1.7782
 3314SOL    HW210659   6.249   2.025   5.182 -1.8605 -0.3687 -1.2988
 3315SOL     OW10660   1.408   1.697   2.124  0.3502 -0.4654  0.3047
 3315SOL    HW110661   1.422   1.790   2.140 -0.6304 -0.3763  0.6704
 3315SOL    HW210662   1.416   1.656   2.210 -0.8355 -0.5013  0.4133
 3316SOL     OW10663   1.918   4.313   3.798  0.0872 -0.3526  0.5595
 3316SOL    HW110664   1.949   4.231   3.836 -1.2180  0.2822  3.1402
 3316SOL    HW210665   1.859   4.349   3.864 -0.8485  1.7416 -1.3438
 3317SOL     OW10666   5.553   1.396   5.675  0.1714 -0.2127 -0.6691
 3317SOL    HW110667   5.560   1.306   5.642 -2.7530 -0.7177 -0.0254
 3317SOL    HW210668   5.611   1.398   5.751  0.6206 -1.3980 -0.9665
 3318SOL     OW10669   4.512   0.069   5.033  0.0613 -0.5618 -0.2979
 3318SOL    HW110670   4.593   0.028   5.000  0.2639 -0.7499  0.4181
 3318SOL    HW210671   4.447  -0.002   5.030 -0.1000 -0.3879 -0.9521
 3319SOL     OW10672   3.358   5.668   3.280  0.4151 -0.5760  0.2398
 3319SOL    HW110673   3.375   5.580   3.314  1.9301 -1.1542 -1.9389
 3319SOL    HW210674   3.403   5.671   3.196 -1.2550  1.6318 -0.6353
 3320SOL     OW10675   1.474   4.660   3.243 -0.4226 -0.2040  0.4762
 3320SOL    HW110676   1.513   4.614   3.317 -1.3827  0.2827  1.2841
 3320SOL    HW210677   1.430   4.591   3.193  0.9490 -0.6671 -0.1311
 3321SOL     OW10678   1.539   2.328   2.567 -0.0603 -0.5076 -0.0069
 3321SOL    HW110679   1.514   2.239   2.546 -0.5603 -0.7552  1.5544
 3321SOL    HW210680   1.458   2.371   2.593  0.1228  0.5007 -1.0819
 3322SOL     OW10681   3.546   6.158   1.429 -0.3464 -0.0363 -0.2419
 3322SOL    HW110682   3.639   6.171   1.407 -0.4443  0.2947 -0.4617
 3322SOL    HW210683   3.534   6.209   1.510 -0.3124 -0.1538 -0.1634
 3323SOL     OW10684   1.741   3.936   3.368  0.4923  0.5529  0.2614
 3323SOL    HW110685   1.815   3.876   3.356  0.7120  0.5532  1.4560
 3323SOL    HW210686   1.738   3.950   3.463 -2.4030 -1.1740  0.4744
 3324SOL     OW10687   2.502   3.621   3.754 -0.2981  0.3769  0.4541
 3324SOL    HW110688   2.440   3.639   3.683  0.6268  1.0936 -0.1835
 3324SOL    HW210689   2.586   3.652   3.721  0.5325 -1.1744  1.0536
 3325SOL     OW10690   3.530   6.361   5.222  0.0441 -0.2930  0.6181
 3325SOL    HW110691   3.462   6.412   5.178 -0.4855 -1.7319 -0.2692
 3325SOL    HW210692   3.481   6.301   5.280  0.6403 -0.0854  1.3447
 3326SOL     OW10693   3.465   1.921   1.841 -0.5133 -0.3592  0.6258
 3326SOL    HW110694   3.532   1.880   1.787  0.1959 -0.4695  1.5715
 3326SOL    HW210695   3.418   1.848   1.882  0.1138 -0.2597  1.5440
 3327SOL     OW10696   1.847   1.692   1.614 -0.6587  0.1952 -0.2998
 3327SOL    HW110697   1.819   1.601   1.613  0.8664 -0.3004  0.3606
 3327SOL    HW210698   1.779   1.737   1.664 -0.6460 -0.8647  0.7019
 3328SOL     OW10699   5.875   4.080   6.080 -0.6548  0.9792 -0.1899
 3328SOL    HW110700   5.881   4.158   6.025 -0.2104  0.6224 -0.6374
 3328SOL    HW210701   5.840   4.012   6.023 -1.1687  0.8745  0.2355
 3329SOL     OW10702   3.903   6.656   4.487 -0.0256 -0.0241 -0.2523
 3329SOL    HW110703   3.934   6.594   4.421  0.0928  0.7968 -0.9746
 3329SOL    HW210704   3.818   6.685   4.454 -0.2994 -0.1636  0.3284
 3330SOL     OW10705   6.240   5.349   3.052 -0.4393 -1.2083  0.5214
 3330SOL    HW110706   6.306   5.385   2.993 -0.1896  1.7935  2.5248
 3330SOL    HW210707   6.255   5.255   3.051  2.8882 -0.7209 -0.2429
 3331SOL     OW10708   1.765   0.773   4.201  0.2511  0.3134 -0.4898
 3331SOL    HW110709   1.850   0.806   4.172  0.0466  0.8173 -0.5251
 3331SOL    HW210710   1.706   0.791   4.128  0.4743 -1.6209 -1.1798
 3332SOL     OW10711   4.235   3.270   1.036  0.6452 -0.4407 -0.5010
 3332SOL    HW110712   4.150   3.253   0.995 -0.8011  1.8155  1.3994
 3332SOL    HW210713   4.229   3.229   1.122  1.3900 -0.0706 -0.2671
 3333SOL     OW10714   5.902   1.823   0.466 -0.5428  0.4787 -0.3934
 3333SOL    HW110715   5.943   1.746   0.428 -0.2453  1.2984 -1.7626
 3333SOL    HW210716   5.955   1.843   0.544 -0.5338 -0.5986 -0.1240
 3334SOL     OW10717   6.066   4.657   1.592  0.4881 -0.6042 -0.4431
 3334SOL    HW110718   6.155   4.682   1.617  0.3046  0.4264 -0.7761
 3334SOL    HW210719   6.060   4.564   1.613  1.2362 -0.3941  0.7583
 3335SOL     OW10720   3.883   6.269   1.492  0.1085 -0.3320  0.3315
 3335SOL    HW110721   3.919   6.256   1.580 -1.8766 -3.1405  0.7995
 3335SOL    HW210722   3.811   6.330   1.504  0.9096  0.6217  0.3562
 3336SOL     OW10723   3.489   5.132   5.965 -0.2676 -0.1086 -0.1324
 3336SOL    HW110724   3.469   5.156   5.874 -0.3835  1.5942  0.3340
 3336SOL    HW210725   3.585   5.137   5.970 -0.3386  0.8640  0.1428
 3337SOL     OW10726   1.367   5.963   5.791  0.6191  0.3090  0.0846
 3337SOL    HW110727   1.349   5.950   5.698 -2.5154  0.8712  0.5550
 3337SOL    HW210728   1.307   5.903   5.836 -0.1307  2.2618  1.7862
 3338SOL     OW10729   2.648   0.676   3.812 -0.0247 -0.4246 -0.0294
 3338SOL    HW110730   2.575   0.712   3.862  0.9330 -0.8373  1.7037
 3338SOL    HW210731   2.611   0.658   3.725 -1.9837 -0.6863  0.8327
 3339SOL     OW10732   0.751   5.483   0.667 -0.2002  0.2738 -0.9187
 3339SOL    HW110733   0.832   5.528   0.642  0.0384  0.7542  0.6888
 3339SOL    HW210734   0.779   5.414   0.727 -1.0526  0.9922  0.3268
 3340SOL     OW10735   3.000   4.976   3.638  0.0107 -0.1389  0.3208
 3340SOL    HW110736   2.963   4.967   3.726  0.5373 -1.1582  0.4508
 3340SOL    HW210737   3.072   4.913   3.636  0.0176 -0.1046 -0.8367
 3341SOL     OW10738   6.238   0.201   1.779 -0.3734 -0.2437 -0.5877
 3341SOL    HW110739   6.333   0.205   1.766 -0.3564  0.4550 -0.2382
 3341SOL    HW210740   6.213   0.290   1.801 -0.9434 -0.6772  0.5480
 3342SOL     OW10741   0.540   2.870   4.935  0.2556 -0.0262  0.0351
 3342SOL    HW110742   0.609   2.895   4.997 -2.1351  0.2445  2.7316
 3342SOL    HW210743   0.533   2.775   4.944 -0.1611  0.0250  0.2901
 3343SOL     OW10744   1.337   0.996   2.225 -0.7293 -0.2563 -0.1538
 3343SOL    HW110745   1.355   1.042   2.307 -1.7852 -1.5979  0.8554
 3343SOL    HW210746   1.242   0.999   2.216 -0.6341 -0.3018 -1.2264
 3344SOL     OW10747   1.025   2.758   2.292  0.7611 -0.0723 -0.4034
 3344SOL    HW110748   0.977   2.840   2.279 -0.5771 -0.9135 -0.9627
 3344SOL    HW210749   0.979   2.715   2.364  1.8629 -0.0407  0.3243
 3345SOL     OW10750   0.588   5.321   1.982  0.2439  0.9820 -0.5076
 3345SOL    HW110751   0.506   5.346   2.024  0.1164 -0.9586  0.4451
 3345SOL    HW210752   0.574   5.231   1.953  2.3055  0.3129  0.4661
 3346SOL     OW10753   6.151   4.101   2.704 -0.1398 -0.2556  0.2783
 3346SOL    HW110754   6.138   4.045   2.627  0.9375  0.6293 -0.5649
 3346SOL    HW210755   6.215   4.054   2.757  1.1680  0.4043 -0.6857
 3347SOL     OW10756   0.216   5.832   5.845  0.5514  0.1278  0.3085
 3347SOL    HW110757   0.158   5.760   5.820  0.8465 -1.3814  3.6374
 3347SOL    HW210758   0.211   5.894   5.772 -1.0213 -2.4749 -1.8886
 3348SOL     OW10759   2.802   5.291   5.111 -0.4920  0.1017 -0.1582
 3348SOL    HW110760   2.747   5.240   5.052  2.4347 -2.3424 -0.9524
 3348SOL    HW210761   2.879   5.314   5.058  0.7476  0.5952  1.7778
 3349SOL     OW10762   4.355   0.924   2.952 -0.4182 -0.2648 -0.4772
 3349SOL    HW110763   4.332   0.940   2.861  1.8361 -1.4525 -1.3070
 3349SOL    HW210764   4.372   0.829   2.956  1.1736  0.0397  0.7406
 3350SOL     OW10765   6.123   3.351   4.400  0.3916  0.1769 -0.3764
 3350SOL    HW110766   6.103   3.314   4.486  2.6163 -0.0100  0.0824
 3350SOL    HW210767   6.198   3.409   4.416 -0.6400  1.9480 -1.7694
 3351SOL     OW10768   1.484   0.201   3.087 -0.0404  0.0445  0.4146
 3351SOL    HW110769   1.481   0.287   3.045 -1.5573 -0.7300 -1.1479
 3351SOL    HW210770   1.562   0.159   3.051 -0.6020 -0.1118 -0.6425
 3352SOL     OW10771   4.847   1.587   0.891  0.0116  0.2308 -0.2883
 3352SOL    HW110772   4.780   1.540   0.841  0.1483 -1.2773  0.9133
 3352SOL    HW210773   4.869   1.662   0.836  0.0734 -1.3189 -2.4637
 3353SOL     OW10774   6.760   3.230   1.748  0.0079 -0.3957  0.0708
 3353SOL    HW110775   6.769   3.325   1.741 -0.3214 -0.3528  0.1940
 3353SOL    HW210776   6.786   3.210   1.838 -0.5843 -0.3366  0.2587
 3354SOL     OW10777   6.469   4.956   3.179 -0.1538 -0.2808  0.7222
 3354SOL    HW110778   6.560   4.986   3.183  0.1260 -1.3029  2.2924
 3354SOL    HW210779   6.475   4.863   3.161 -0.9386 -0.1277 -0.3829
 3355SOL     OW10780   5.227   2.616   1.876 -0.0426 -0.2727 -0.1034
 3355SOL    HW110781   5.198   2.558   1.947  1.0932  0.3988  0.9300
 3355SOL    HW210782   5.281   2.560   1.820 -0.3446 -0.6209 -0.0530
 3356SOL     OW10783   4.728   3.133   2.770  0.3360 -0.4095  0.4995
 3356SOL    HW110784   4.643   3.104   2.737  0.1000 -0.4457  1.1282
 3356SOL    HW210785   4.792   3.086   2.716 -0.0249  1.1132 -1.3076
 3357SOL     OW10786   1.031   6.079   2.303 -0.0449 -0.4354  0.0677
 3357SOL    HW110787   1.046   6.140   2.375 -0.1164 -0.0893 -0.2067
 3357SOL    HW210788   1.093   6.008   2.318 -1.0818 -1.1036  1.2958
 3358SOL     OW10789   4.257   5.152   0.157  0.2985  0.0295  0.0755
 3358SOL    HW110790   4.178   5.102   0.135  1.2143 -0.8316 -1.2970
 3358SOL    HW210791   4.329   5.091   0.146  1.3010  1.2014 -0.0240
 3359SOL     OW10792   2.028   4.241   1.318 -0.5494 -0.0125  0.6897
 3359SOL    HW110793   2.120   4.246   1.293 -1.0708 -2.3681 -1.9620
 3359SOL    HW210794   1.983   4.293   1.252 -1.1368  1.2464  2.0588
 3360SOL     OW10795   2.322   2.415   0.195  0.6483  0.3402  0.1575
 3360SOL    HW110796   2.311   2.346   0.259  1.0563  0.5086  0.4159
 3360SOL    HW210797   2.338   2.494   0.247  0.8450  0.5031 -0.1436
 3361SOL     OW10798   0.175   3.023   2.574  0.2835 -0.0851  0.1064
 3361SOL    HW110799   0.213   3.028   2.662 -0.5554 -0.7849  0.5151
 3361SOL    HW210800   0.081   3.021   2.589  0.1117  0.6270 -0.8554
 3362SOL     OW10801   1.836   1.041   6.742 -0.2095 -0.1667  0.4626
 3362SOL    HW110802   1.815   1.100   6.815 -1.6746  0.4339 -0.4261
 3362SOL    HW210803   1.752   1.026   6.698  0.6371 -0.6004 -1.0402
 3363SOL     OW10804   4.892   6.272   1.477 -0.0751 -0.0085  0.9197
 3363SOL    HW110805   4.879   6.356   1.433 -1.4750  0.5408  2.3166
 3363SOL    HW210806   4.987   6.261   1.479  0.0393 -0.9414 -3.7995
 3364SOL     OW10807   5.403   3.980   0.433 -0.0934 -0.3255 -0.1620
 3364SOL    HW110808   5.427   3.894   0.466 -0.0076 -0.4769 -0.6077
 3364SOL    HW210809   5.472   4.002   0.371 -0.7831 -0.5008 -1.0092
 3365SOL     OW10810   6.455   3.955   4.351 -0.3032 -0.1739 -0.3134
 3365SOL    HW110811   6.502   3.876   4.324 -1.6950 -0.1215 -3.0084
 3365SOL    HW210812   6.504   4.027   4.312  0.0357  0.1906  0.7818
 3366SOL     OW10813   2.008   5.711   4.808 -0.4386 -0.9634  0.4613
 3366SOL    HW110814   1.979   5.765   4.881 -0.9498 -1.8050  0.8814
 3366SOL    HW210815   1.929   5.695   4.756 -0.1028 -0.4743 -0.2092
 3367SOL     OW10816   5.786   3.405   2.601 -0.1323  0.6252  0.0471
 3367SOL    HW110817   5.803   3.342   2.531 -0.9626  1.0856 -0.5704
 3367SOL    HW210818   5.775   3.351   2.680  1.1361  0.1346 -0.1101
 3368SOL     OW10819   6.724   0.097   3.041 -0.2783 -0.1689 -0.2614
 3368SOL    HW110820   6.806   0.116   2.996 -0.7466  1.2953 -0.5104
 3368SOL    HW210821   6.727   0.150   3.121 -0.2406 -1.3934  0.5600
 3369SOL     OW10822   3.884   4.089   2.865 -0.1409 -0.1388 -0.1569
 3369SOL    HW110823   3.803   4.087   2.814 -0.2829 -1.1445  0.0984
 3369SOL    HW210824   3.954   4.081   2.801 -0.2688 -0.1221 -0.2984
 3370SOL     OW10825   5.596   6.675   2.504  0.1607 -0.0384 -0.4611
 3370SOL    HW110826   5.544   6.697   2.427 -0.2287 -1.1421 -0.5192
 3370SOL    HW210827   5.533   6.644   2.568  0.6206 -0.2973 -0.1271
 3371SOL     OW10828   2.943   6.500   0.997  0.3588 -0.1824  0.1158
 3371SOL    HW110829   3.009   6.431   1.003 -0.1686 -0.7809 -0.7358
 3371SOL    HW210830   2.964   6.560   1.068  0.9484 -1.1216  0.7486
 3372SOL     OW10831   1.189   4.443   6.601 -0.2351  0.5116  0.3374
 3372SOL    HW110832   1.099   4.414   6.589 -0.5010  0.9338  1.2697
 3372SOL    HW210833   1.223   4.388   6.672 -0.0355  0.9319  0.5737
 3373SOL     OW10834   3.680   1.647   1.398 -0.3634  0.1092 -0.8223
 3373SOL    HW110835   3.734   1.579   1.358  3.5840  0.7793  3.0469
 3373SOL    HW210836   3.637   1.603   1.472 -1.6698  0.6464 -1.2507
 3374SOL     OW10837   0.739   2.835   3.578 -0.3255 -0.0118 -0.2054
 3374SOL    HW110838   0.659   2.787   3.600 -0.1241  0.3626  1.3717
 3374SOL    HW210839   0.810   2.785   3.618  0.0754  0.5633 -0.1911
 3375SOL     OW10840   3.814   0.232   0.476  0.4792 -0.2757 -0.8640
 3375SOL    HW110841   3.834   0.284   0.398 -1.9999  0.5289 -0.9883
 3375SOL    HW210842   3.742   0.278   0.519  0.6306 -1.6739  0.9710
 3376SOL     OW10843   4.430   6.577   3.038  0.0061  0.3993  1.0102
 3376SOL    HW110844   4.406   6.488   3.012  0.8609  0.9314 -1.7697
 3376SOL    HW210845   4.499   6.565   3.103  0.6328 -0.9971  0.1244
 3377SOL     OW10846   4.914   0.660   5.985  0.2482 -0.1161 -0.4858
 3377SOL    HW110847   4.898   0.569   6.009 -0.6676  0.3615  0.7437
 3377SOL    HW210848   4.826   0.697   5.970  0.4918  1.0765  0.9443
 3378SOL     OW10849   4.198   0.565   1.853 -0.2204 -0.1648  0.2069
 3378SOL    HW110850   4.247   0.573   1.771 -0.1611  1.0003  0.3416
 3378SOL    HW210851   4.255   0.607   1.918 -0.3339 -0.9534  0.8180
 3379SOL     OW10852   4.368   0.144   1.491 -0.3365 -0.2421 -0.3284
 3379SOL    HW110853   4.421   0.165   1.567 -0.3143  1.6871 -0.8554
 3379SOL    HW210854   4.400   0.059   1.462  0.9011 -0.1425  0.7151
 3380SOL     OW10855   2.340   3.441   3.934 -0.1586  1.0707 -0.0649
 3380SOL    HW110856   2.382   3.527   3.928  2.2215 -0.0094  0.4775
 3380SOL    HW210857   2.368   3.395   3.855 -1.0477  0.6097 -0.1202
 3381SOL     OW10858   3.101   5.757   3.972  0.0617 -0.8798  0.1932
 3381SOL    HW110859   3.092   5.839   4.021 -0.0477  0.2618 -1.6800
 3381SOL    HW210860   3.166   5.777   3.904 -0.1393 -2.2791 -0.4272
 3382SOL     OW10861   1.587   3.209   4.927  0.2391 -0.2486 -0.1375
 3382SOL    HW110862   1.667   3.202   4.979 -0.1030 -0.2328  0.3974
 3382SOL    HW210863   1.572   3.303   4.918 -0.9826 -0.2205  1.7566
 3383SOL     OW10864   5.350   0.502   6.593  0.1783  0.6556  0.8802
 3383SOL    HW110865   5.280   0.457   6.640 -1.1688  0.6298 -1.0922
 3383SOL    HW210866   5.330   0.595   6.605  0.9863  0.6987  2.0188
 3384SOL     OW10867   1.325   3.555   3.775  0.6958  0.0117  0.4362
 3384SOL    HW110868   1.296   3.602   3.696  1.4646 -0.9301 -0.4296
 3384SOL    HW210869   1.376   3.620   3.823  0.5655  0.4843 -0.0487
 3385SOL     OW10870   6.648   4.635   0.582 -0.5998  0.0873 -0.2548
 3385SOL    HW110871   6.629   4.628   0.675  0.2235 -0.2587 -0.1003
 3385SOL    HW210872   6.717   4.701   0.576  0.4020 -0.9387 -0.4447
 3386SOL     OW10873   2.638   1.071   0.925 -0.1608 -0.0723  0.5516
 3386SOL    HW110874   2.553   1.102   0.895 -0.5203 -2.2848 -0.8218
 3386SOL    HW210875   2.618   1.005   0.992  0.3991 -1.8123 -0.9571
 3387SOL     OW10876   1.665   1.924   6.618  0.6788  0.2860 -0.4062
 3387SOL    HW110877   1.642   1.855   6.680  0.3724 -1.2646 -2.2228
 3387SOL    HW210878   1.759   1.939   6.633  0.5962 -0.0342  0.4637
 3388SOL     OW10879   0.376   6.555   2.606 -0.6157  0.6800 -0.1432
 3388SOL    HW110880   0.363   6.539   2.699 -0.8577  0.2047 -0.2556
 3388SOL    HW210881   0.288   6.557   2.569 -0.5579  1.6472 -0.2405
 3389SOL     OW10882   0.266   6.435   4.868  0.0290  0.1781 -0.6018
 3389SOL    HW110883   0.311   6.449   4.785  0.4970 -2.0397 -0.7372
 3389SOL    HW210884   0.221   6.351   4.858  0.7251 -0.5004  1.6628
 3390SOL     OW10885   3.380   5.860   5.582  0.5994  0.0938  0.0257
 3390SOL    HW110886   3.352   5.824   5.666 -1.2250 -0.9541 -1.0038
 3390SOL    HW210887   3.417   5.786   5.535 -1.1736  0.0153 -1.2683
 3391SOL     OW10888   2.729   4.005   2.655  0.2173  0.5397  0.7929
 3391SOL    HW110889   2.745   3.960   2.573  0.7257 -0.2420  1.3158
 3391SOL    HW210890   2.669   4.076   2.632 -0.6493 -0.4451 -0.0156
 3392SOL     OW10891   5.250   1.837   2.602 -0.1121  0.1326 -0.2888
 3392SOL    HW110892   5.311   1.766   2.622 -0.1721  0.3640  0.7705
 3392SOL    HW210893   5.163   1.797   2.610 -0.1164 -0.0721 -1.2997
 3393SOL     OW10894   5.577   3.618   5.023  0.1337 -0.5835  0.1069
 3393SOL    HW110895   5.500   3.563   5.008  0.1916 -0.8778  0.8952
 3393SOL    HW210896   5.602   3.648   4.935 -0.3948 -1.1363 -0.2370
 3394SOL     OW10897   6.627   0.234   2.068  0.1893  0.5871  0.2099
 3394SOL    HW110898   6.563   0.165   2.049  0.8823  0.0616 -0.2347
 3394SOL    HW210899   6.596   0.309   2.017 -1.8184  1.3149  2.4238
 3395SOL     OW10900   1.324   1.471   2.779  0.0121  0.0270 -0.1834
 3395SOL    HW110901   1.353   1.415   2.851  1.0840  1.6888  0.7208
 3395SOL    HW210902   1.289   1.549   2.822 -0.2944  0.5991 -1.4375
 3396SOL     OW10903   6.226   6.545   5.106  0.9198 -0.2740  0.2904
 3396SOL    HW110904   6.220   6.639   5.124  1.3693 -0.2878  0.5292
 3396SOL    HW210905   6.246   6.506   5.191  0.2171 -0.6441  0.2858
 3397SOL     OW10906   1.520   2.872   6.593  0.6464  0.5539 -0.2269
 3397SOL    HW110907   1.583   2.813   6.636  0.9050  0.2429 -1.0158
 3397SOL    HW210908   1.437   2.825   6.596  0.6086  0.6467  0.1677
 3398SOL     OW10909   4.043   1.945   1.128  0.4674  0.2163  0.0862
 3398SOL    HW110910   3.947   1.942   1.126  0.5056 -0.2002 -2.0777
 3398SOL    HW210911   4.064   1.978   1.216 -1.6459  0.2820  0.5972
 3399SOL     OW10912   2.066   4.097   4.874  0.1993 -0.2140 -0.2370
 3399SOL    HW110913   2.040   4.184   4.844 -0.8099  1.1814  4.3052
 3399SOL    HW210914   1.984   4.051   4.887  0.1694  1.0591  5.2389
 3400SOL     OW10915   0.598   6.208   6.077 -0.3573  0.7858 -0.3304
 3400SOL    HW110916   0.649   6.163   6.145 -2.3975  1.2004  1.5431
 3400SOL    HW210917   0.574   6.139   6.016 -0.5470 -0.0720  0.6871
 3401SOL     OW10918   4.341   2.032   0.249  0.3587  0.4913 -0.0588
 3401SOL    HW110919   4.299   1.983   0.179 -1.6607  1.5633  0.3535
 3401SOL    HW210920   4.332   1.977   0.327 -0.2084  0.6898  0.0136
 3402SOL     OW10921   5.954   0.928   5.744 -0.1433  0.0741 -0.3374
 3402SOL    HW110922   6.043   0.958   5.724  0.5216 -2.1758 -0.8261
 3402SOL    HW210923   5.955   0.912   5.839  0.3163 -1.0425 -0.5260
 3403SOL     OW10924   4.562   4.170   6.657 -0.0443 -0.2213  0.2727
 3403SOL    HW110925   4.575   4.232   6.728  0.4048 -0.8316  0.7268
 3403SOL    HW210926   4.467   4.163   6.648 -0.1003 -0.2204  0.8783
 3404SOL     OW10927   6.005   0.905   1.356 -0.0573  0.3419 -0.0269
 3404SOL    HW110928   5.926   0.868   1.396  1.2773 -2.1454  0.4069
 3404SOL    HW210929   6.077   0.856   1.395  1.5712  1.0391 -2.0655
 3405SOL     OW10930   1.980   2.717   2.536 -0.3028 -0.2250  0.3236
 3405SOL    HW110931   1.912   2.755   2.480 -0.1286  0.6811  0.7169
 3405SOL    HW210932   1.940   2.712   2.622  0.7049  1.9590  0.9454
 3406SOL     OW10933   0.812   5.768   4.030  0.4252  0.3219  0.1944
 3406SOL    HW110934   0.810   5.835   4.099 -1.0485  1.9835 -1.4177
 3406SOL    HW210935   0.798   5.817   3.949  1.1917 -1.7252 -1.2136
 3407SOL     OW10936   0.633   0.584   1.897 -0.1281 -0.3334  0.0531
 3407SOL    HW110937   0.560   0.628   1.853 -0.0936  0.3180  0.6271
 3407SOL    HW210938   0.592   0.528   1.963 -0.1225 -0.2085  0.1628
 3408SOL     OW10939   5.014   1.394   5.568  0.3779 -0.0316  0.3311
 3408SOL    HW110940   5.092   1.352   5.531  1.8826  2.1411  0.9843
 3408SOL    HW210941   5.042   1.424   5.654 -1.1713  0.8068  0.5478
 3409SOL     OW10942   1.417   4.716   0.145 -0.2128  0.3683  0.5504
 3409SOL    HW110943   1.387   4.777   0.078  0.3318  0.0721  0.0312
 3409SOL    HW210944   1.493   4.673   0.106 -1.3880 -1.6164  0.3989
 3410SOL     OW10945   2.162   0.720   3.371  0.2208 -0.5879 -0.5154
 3410SOL    HW110946   2.171   0.812   3.395 -0.3011 -0.0313 -2.3734
 3410SOL    HW210947   2.068   0.708   3.356  0.3214 -1.3459 -0.5701
 3411SOL     OW10948   0.092   0.140   6.240 -0.2158  0.0892  0.2874
 3411SOL    HW110949   0.066   0.222   6.283 -2.0992  0.3063 -1.2077
 3411SOL    HW210950   0.043   0.072   6.287 -1.2116  0.1823 -0.6052
 3412SOL     OW10951   0.013   0.832   1.943  0.4538 -0.0744 -0.5779
 3412SOL    HW110952   0.073   0.883   1.888 -0.7152  1.0667 -0.8307
 3412SOL    HW210953   0.005   0.883   2.023 -0.4264 -0.0647 -0.6719
 3413SOL     OW10954   3.654   2.879   5.052 -0.3856  0.3184  0.1433
 3413SOL    HW110955   3.596   2.948   5.018 -2.6943 -0.4118  2.4296
 3413SOL    HW210956   3.669   2.904   5.143  0.5857 -1.0460  0.3580
 3414SOL     OW10957   3.530   2.536   4.441  0.0193 -0.1369 -0.1770
 3414SOL    HW110958   3.616   2.518   4.404 -0.0346  0.8501 -0.8069
 3414SOL    HW210959   3.537   2.512   4.533  1.5876  1.8591  0.2641
 3415SOL     OW10960   1.704   1.879   1.151  0.0020 -0.5856 -0.3449
 3415SOL    HW110961   1.614   1.897   1.123  0.0567 -1.0284 -0.8117
 3415SOL    HW210962   1.697   1.864   1.245 -0.5005 -1.1826 -0.4755
 3416SOL     OW10963   2.576   2.866   2.885 -0.1253 -0.1202 -0.1644
 3416SOL    HW110964   2.532   2.942   2.923  0.5374 -0.6840  1.7677
 3416SOL    HW210965   2.505   2.815   2.845 -0.7110  0.9320 -0.4899
 3417SOL     OW10966   1.385   2.667   2.751  0.8353  0.0571  0.2013
 3417SOL    HW110967   1.389   2.745   2.806 -1.8228  1.2528 -1.2241
 3417SOL    HW210968   1.444   2.686   2.678 -0.1416  0.9623 -0.3731
 3418SOL     OW10969   1.966   0.971   1.177  0.4048  0.3863 -0.4212
 3418SOL    HW110970   1.903   1.011   1.237 -0.6565 -2.3784  0.3797
 3418SOL    HW210971   1.912   0.926   1.112  1.5461 -1.0147 -0.4156
 3419SOL     OW10972   0.276   4.634   6.012  0.3669  0.7757 -0.2561
 3419SOL    HW110973   0.348   4.631   6.076 -0.9739 -0.6710  1.2166
 3419SOL    HW210974   0.226   4.554   6.029 -1.2196  1.4530 -1.7063
 3420SOL     OW10975   1.526   2.833   0.226 -0.2125  0.1914  0.3671
 3420SOL    HW110976   1.600   2.826   0.287  0.7463  0.3159 -0.7583
 3420SOL    HW210977   1.564   2.869   0.146 -1.2425 -0.9686 -0.6725
 3421SOL     OW10978   6.094   0.095   1.110  0.1937 -0.0480  0.9326
 3421SOL    HW110979   6.039   0.132   1.042  1.1530 -0.5572 -0.1427
 3421SOL    HW210980   6.093   0.001   1.094  1.4230 -0.0595  0.8440
 3422SOL     OW10981   0.928   4.909   4.991 -0.2973  0.6666  0.5847
 3422SOL    HW110982   1.010   4.864   5.014  0.3650  0.7342 -1.5306
 3422SOL    HW210983   0.883   4.848   4.932 -0.6823  1.5945 -0.1006
 3423SOL     OW10984   6.739   6.752   6.424  0.3030  0.4864  0.4690
 3423SOL    HW110985   6.657   6.720   6.386  1.5052 -0.3789 -1.4868
 3423SOL    HW210986   6.782   6.674   6.459  1.2860  0.5810 -0.4924
 3424SOL     OW10987   3.775   5.360   0.916 -0.0043 -0.3951 -0.0256
 3424SOL    HW110988   3.799   5.322   0.832  1.2349 -0.5965  0.4120
 3424SOL    HW210989   3.768   5.286   0.975 -3.0186 -0.4883 -0.4157
 3425SOL     OW10990   3.283   6.699   2.995  0.1655  0.1220  0.6118
 3425SOL    HW110991   3.258   6.734   2.910 -1.1602 -0.6957  0.6410
 3425SOL    HW210992   3.347   6.760   3.029 -0.3746  1.2329 -0.3505
 3426SOL     OW10993   3.810   6.096   0.131  0.0813  0.0993  0.6800
 3426SOL    HW110994   3.850   6.021   0.175 -0.0444 -0.8086 -0.7073
 3426SOL    HW210995   3.837   6.087   0.040 -2.1582  0.2269 -0.0218
 3427SOL     OW10996   0.997   2.298   4.645 -0.0803 -0.1212  0.3951
 3427SOL    HW110997   0.978   2.369   4.707 -1.1694 -0.8044  0.8537
 3427SOL    HW210998   1.059   2.242   4.692 -1.6682 -1.1738  1.2702
 3428SOL     OW10999   0.981   1.683   3.737 -0.4427 -0.3175  0.8306
 3428SOL    HW111000   0.995   1.633   3.657  1.7754  0.0615  0.9460
 3428SOL    HW211001   1.025   1.633   3.805  1.4828  1.5459  1.0171
 3429SOL     OW11002   2.537   3.055   3.196  0.7920  0.0627 -0.0878
 3429SOL    HW111003   2.615   3.107   3.179  0.9265 -0.3754 -0.8806
 3429SOL    HW211004   2.569   2.965   3.205  0.4121 -0.0822 -0.1422
 3430SOL     OW11005   4.757   2.217   5.719  0.0532  0.0431 -0.2319
 3430SOL    HW111006   4.820   2.183   5.654 -0.1580  1.1974 -1.0538
 3430SOL    HW211007   4.704   2.280   5.670  0.1275  1.1952  1.1570
 3431SOL     OW11008   3.538   3.215   6.283 -0.3522  0.5497  0.3519
 3431SOL    HW111009   3.464   3.193   6.226 -1.5648  2.0014  1.3385
 3431SOL    HW211010   3.613   3.220   6.224 -1.0271 -0.9272 -0.6669
 3432SOL     OW11011   5.458   6.468   2.040 -0.0572 -0.0202 -0.4242
 3432SOL    HW111012   5.393   6.460   2.109  0.3279  1.1902  0.0938
 3432SOL    HW211013   5.410   6.456   1.959 -0.7459 -0.1364  0.0034
 3433SOL     OW11014   0.057   3.165   6.071  0.3937  0.7427 -0.1038
 3433SOL    HW111015   0.038   3.234   6.007  1.0056  0.9310 -0.0798
 3433SOL    HW211016   0.141   3.190   6.110  0.5041  0.1084  0.0678
 3434SOL     OW11017   0.649   2.413   4.010  0.2336  0.3237  0.0083
 3434SOL    HW111018   0.655   2.318   4.018 -0.7369  0.3210  0.8673
 3434SOL    HW211019   0.677   2.432   3.920  0.5336 -0.7559 -0.1282
 3435SOL     OW11020   4.141   1.529   4.480 -0.0564 -0.1597  0.0978
 3435SOL    HW111021   4.107   1.446   4.447 -0.3236  0.1734 -0.4752
 3435SOL    HW211022   4.209   1.504   4.543  0.3854 -0.8122 -0.6198
 3436SOL     OW11023   0.868   2.164   3.192 -0.3252 -0.6792  0.5165
 3436SOL    HW111024   0.810   2.212   3.133 -1.2538 -0.0555  1.9352
 3436SOL    HW211025   0.859   2.072   3.164  0.3201 -0.2428 -1.2095
 3437SOL     OW11026   5.671   5.179   2.492 -0.4299  0.3315  0.8814
 3437SOL    HW111027   5.747   5.209   2.443 -0.6497  0.3604  0.5618
 3437SOL    HW211028   5.661   5.242   2.563 -1.5768  1.6522 -0.4392
 3438SOL     OW11029   1.483   3.187   3.137 -0.1499  0.4780 -0.6982
 3438SOL    HW111030   1.564   3.194   3.087  0.5640 -3.1881 -0.2136
 3438SOL    HW211031   1.503   3.124   3.206 -2.8219  1.0810  0.6853
 3439SOL     OW11032   1.957   3.643   4.776 -0.2674 -0.3781 -0.1061
 3439SOL    HW111033   1.954   3.631   4.870  1.0881  0.5745  0.0876
 3439SOL    HW211034   2.047   3.619   4.752 -0.7057 -0.9510 -1.1976
 3440SOL     OW11035   0.727   3.087   3.984  0.3145  0.0991  0.4740
 3440SOL    HW111036   0.631   3.082   3.989  0.2638  1.4729  1.2100
 3440SOL    HW211037   0.747   3.077   3.891 -0.4749 -1.1144  0.4175
 3441SOL     OW11038   2.594   3.635   2.562 -0.1176 -0.3011  0.2834
 3441SOL    HW111039   2.644   3.716   2.572 -0.7967 -0.0192  1.4101
 3441SOL    HW211040   2.540   3.649   2.485  0.8564 -0.2514 -0.3989
 3442SOL     OW11041   6.743   5.648   1.764  0.7774  0.3688 -0.0391
 3442SOL    HW111042   6.795   5.604   1.696  0.3995  1.4266 -1.0346
 3442SOL    HW211043   6.666   5.592   1.775  1.1257 -0.1185 -0.0540
 3443SOL     OW11044   5.890   2.354   6.241  0.0675 -0.0876 -0.1331
 3443SOL    HW111045   5.906   2.400   6.323 -0.1278 -0.5225  0.1478
 3443SOL    HW211046   5.836   2.414   6.190 -0.9794 -0.3986  0.6047
 3444SOL     OW11047   1.856   3.189   4.046  0.1686  0.3296  0.3411
 3444SOL    HW111048   1.949   3.214   4.040  0.3497 -0.4442 -0.1107
 3444SOL    HW211049   1.831   3.171   3.955  0.2613 -1.9431  0.7495
 3445SOL     OW11050   3.616   0.707   3.848  0.4810  0.1440  0.2084
 3445SOL    HW111051   3.662   0.738   3.927 -0.7690  1.4935  0.4399
 3445SOL    HW211052   3.540   0.766   3.841  1.3326  0.9516 -2.8054
 3446SOL     OW11053   0.548   6.045   5.453  0.2948  0.3754 -0.1616
 3446SOL    HW111054   0.479   6.096   5.494  0.5685  1.3016 -0.8499
 3446SOL    HW211055   0.529   6.049   5.359  0.6953 -0.2239 -0.2707
 3447SOL     OW11056   3.813   3.651   3.370  0.1585 -0.0187 -0.6521
 3447SOL    HW111057   3.755   3.593   3.321  1.1810 -1.0659 -0.6504
 3447SOL    HW211058   3.832   3.723   3.309  1.1154 -1.1186 -1.6772
 3448SOL     OW11059   2.801   1.314   6.563  0.0716  0.1985  0.0058
 3448SOL    HW111060   2.805   1.395   6.614 -0.7931 -0.9729  2.0189
 3448SOL    HW211061   2.729   1.264   6.603 -0.7120 -0.7402 -2.4533
 3449SOL     OW11062   0.618   0.569   6.628 -0.1864 -0.1340  0.1661
 3449SOL    HW111063   0.568   0.648   6.647  0.6716  1.3728 -3.4996
 3449SOL    HW211064   0.556   0.512   6.582  0.2971  0.0243 -0.6854
 3450SOL     OW11065   1.581   1.681   5.461  0.4074 -0.1596  0.5379
 3450SOL    HW111066   1.554   1.634   5.540  0.3893 -1.3226 -0.1458
 3450SOL    HW211067   1.677   1.680   5.466  0.4512 -1.7641 -0.3176
 3451SOL     OW11068   5.660   5.595   6.284 -0.6633 -0.4727 -0.0144
 3451SOL    HW111069   5.696   5.677   6.316  0.0919  0.0165 -2.0861
 3451SOL    HW211070   5.735   5.537   6.275 -1.1548 -1.3200  1.1678
 3452SOL     OW11071   6.315   2.231   3.071  0.0163 -0.0457  0.1265
 3452SOL    HW111072   6.363   2.159   3.112  0.1384 -1.0153 -1.7080
 3452SOL    HW211073   6.245   2.190   3.022 -1.0433  1.2101  0.5415
 3453SOL     OW11074   1.744   0.162   1.694  0.4669  0.2982  0.3616
 3453SOL    HW111075   1.804   0.230   1.664 -1.9240  2.1201 -0.4944
 3453SOL    HW211076   1.744   0.170   1.790  1.3452  0.4739  0.3452
 3454SOL     OW11077   3.792   1.275   6.048  0.1715 -0.4659  0.3611
 3454SOL    HW111078   3.822   1.197   6.002  0.5112 -0.2832  0.2651
 3454SOL    HW211079   3.834   1.348   6.001 -1.3668 -0.1246 -0.5086
 3455SOL     OW11080   4.727   4.998   3.161  0.1938 -0.1233  0.6315
 3455SOL    HW111081   4.683   5.082   3.177  0.8241  0.4343 -0.5375
 3455SOL    HW211082   4.818   5.013   3.186  0.1597 -0.6839  1.1146
 3456SOL     OW11083   5.233   5.217   6.013  1.1057  0.4991  0.3997
 3456SOL    HW111084   5.198   5.242   5.927 -0.7271  0.9455  1.2398
 3456SOL    HW211085   5.167   5.157   6.048  1.3904  1.0241  1.8601
 3457SOL     OW11086   3.335   5.222   3.867 -0.0033 -0.9259  0.2222
 3457SOL    HW111087   3.362   5.305   3.905 -1.5505  0.0506 -0.7244
 3457SOL    HW211088   3.408   5.162   3.882  1.2097  0.6736  0.7068
 3458SOL     OW11089   6.049   1.618   4.665 -0.1955  0.0260 -0.3571
 3458SOL    HW111090   6.049   1.631   4.760  0.4422 -1.3429 -0.1548
 3458SOL    HW211091   5.993   1.687   4.632  0.1563  0.9692  0.9574
 3459SOL     OW11092   1.992   6.559   2.738 -0.7519 -0.1972 -0.3167
 3459SOL    HW111093   2.071   6.505   2.728 -0.4489  0.0600  0.6441
 3459SOL    HW211094   1.995   6.588   2.829 -3.1224 -2.0471  0.4085
 3460SOL     OW11095   6.739   6.579   0.359 -0.1293 -0.6396  0.3585
 3460SOL    HW111096   6.806   6.535   0.412  1.2470 -0.5314 -1.2713
 3460SOL    HW211097   6.663   6.520   0.363  0.7928 -1.8439  0.4295
 3461SOL     OW11098   1.453   3.586   5.843 -0.0289  0.0934 -0.5925
 3461SOL    HW111099   1.466   3.499   5.805  2.1767  0.3814 -0.5371
 3461SOL    HW211100   1.395   3.631   5.781 -1.5228 -1.5383 -0.4064
 3462SOL     OW11101   0.038   5.127   0.405 -0.2516  0.5858  0.1829
 3462SOL    HW111102  -0.055   5.152   0.408 -0.1936  0.8099  0.1626
 3462SOL    HW211103   0.083   5.201   0.445  0.0046  0.9272 -0.7276
 3463SOL     OW11104   2.848   3.965   3.308  0.6267 -0.4371  0.2873
 3463SOL    HW111105   2.895   3.935   3.230 -1.1863 -0.5483 -0.7779
 3463SOL    HW211106   2.883   4.052   3.324  0.1140  0.1134 -1.4263
 3464SOL     OW11107   1.936   6.423   3.204 -0.5019 -0.1834 -0.1800
 3464SOL    HW111108   1.908   6.332   3.214  0.5876 -0.3880  1.2779
 3464SOL    HW211109   1.855   6.472   3.194 -1.2169 -1.1133  0.8640
 3465SOL     OW11110   0.160   4.886   5.985 -0.2187  0.1228 -0.2308
 3465SOL    HW111111   0.250   4.858   5.996  0.0058  0.9412  0.0560
 3465SOL    HW211112   0.109   4.832   6.046 -0.0124 -0.7656 -0.8350
 3466SOL     OW11113   5.829   4.645   5.302 -0.1395  0.2185  0.4943
 3466SOL    HW111114   5.798   4.731   5.272  1.3377  0.4156 -0.5515
 3466SOL    HW211115   5.850   4.598   5.222  0.4112 -0.5983  1.1138
 3467SOL     OW11116   3.696   5.516   5.723 -0.2589 -0.4067 -0.0038
 3467SOL    HW111117   3.610   5.550   5.747 -0.8349 -0.3678 -1.9971
 3467SOL    HW211118   3.749   5.595   5.709 -0.6053 -0.3569 -1.1484
 3468SOL     OW11119   1.844   0.670   2.223 -0.6020 -0.4841 -0.1602
 3468SOL    HW111120   1.790   0.728   2.170 -0.7898 -2.1018 -1.8253
 3468SOL    HW211121   1.934   0.691   2.198 -0.6580 -0.6980 -0.5476
 3469SOL     OW11122   4.103   2.758   5.739 -0.1775 -0.0792  0.4550
 3469SOL    HW111123   4.171   2.794   5.796  1.2839  0.2389 -1.4295
 3469SOL    HW211124   4.046   2.833   5.718 -0.4815 -0.1119  1.1693
 3470SOL     OW11125   2.371   1.484   5.776  0.4249  0.5599 -0.1238
 3470SOL    HW111126   2.451   1.465   5.728 -0.6112 -0.6300 -1.4343
 3470SOL    HW211127   2.301   1.467   5.714 -0.9410 -0.4335  1.6271
 3471SOL     OW11128   5.151   5.358   5.203  0.6408 -0.0488 -0.6285
 3471SOL    HW111129   5.199   5.395   5.277  0.5902 -1.0395 -0.0959
 3471SOL    HW211130   5.095   5.429   5.172 -3.1248 -1.0353  3.4745
 3472SOL     OW11131   4.049   2.274   2.705 -0.5919 -0.6361 -0.0853
 3472SOL    HW111132   4.003   2.282   2.621 -0.4364 -1.0913 -0.2139
 3472SOL    HW211133   4.086   2.186   2.704  0.9271 -0.0167 -0.2969
 3473SOL     OW11134   1.740   1.119   1.005 -0.0074  0.4162  0.7401
 3473SOL    HW111135   1.712   1.093   0.917 -1.0970 -0.7140  1.4071
 3473SOL    HW211136   1.765   1.210   0.996 -1.8793  0.8524 -0.3705
 3474SOL     OW11137   1.670   4.134   6.541  0.6467 -0.1113  0.2094
 3474SOL    HW111138   1.729   4.183   6.484  0.3396  0.9870  0.8301
 3474SOL    HW211139   1.587   4.181   6.535 -0.1524 -1.5575 -0.5487
 3475SOL     OW11140   6.231   0.965   5.763 -0.1555 -0.2152 -0.0504
 3475SOL    HW111141   6.215   0.871   5.748  0.6072 -0.6493  1.7282
 3475SOL    HW211142   6.323   0.977   5.740  0.8550 -0.7626  3.5099
 3476SOL     OW11143   5.638   1.350   0.552  0.0810  0.0569  0.3547
 3476SOL    HW111144   5.556   1.324   0.593 -0.8506 -0.7913 -1.9590
 3476SOL    HW211145   5.653   1.439   0.583 -2.2121  0.5603  0.0811
 3477SOL     OW11146   0.096   0.102   0.506  0.0509  0.1372 -0.0304
 3477SOL    HW111147   0.125   0.166   0.571  1.1301  0.6277 -0.9754
 3477SOL    HW211148   0.046   0.153   0.442 -1.8132 -0.4990  0.8978
 3478SOL     OW11149   4.315   3.521   0.640 -0.3519 -0.2255  0.3863
 3478SOL    HW111150   4.356   3.586   0.582 -1.8634 -0.6913 -1.2577
 3478SOL    HW211151   4.221   3.536   0.629 -0.6735 -1.0970  1.8652
 3479SOL     OW11152   5.289   1.337   1.578  0.1688 -0.4366  0.2002
 3479SOL    HW111153   5.254   1.259   1.621 -3.6982  0.3531 -1.3374
 3479SOL    HW211154   5.312   1.396   1.650 -2.8173 -0.5529  1.3004
 3480SOL     OW11155   6.167   0.648   4.732  0.2664 -0.3812  0.1958
 3480SOL    HW111156   6.201   0.598   4.807  1.4389  0.6385  0.3599
 3480SOL    HW211157   6.142   0.582   4.668  1.5624 -1.1827  0.5154
 3481SOL     OW11158   0.380   5.457   3.651 -0.1128 -0.6748  0.3222
 3481SOL    HW111159   0.379   5.378   3.705 -1.1213  0.2180  1.6372
 3481SOL    HW211160   0.337   5.432   3.570 -2.8523 -0.8071  1.7450
 3482SOL     OW11161   6.195   6.038   6.089  0.0222  0.1855 -0.0076
 3482SOL    HW111162   6.163   6.110   6.035  1.4845 -0.3242 -1.5859
 3482SOL    HW211163   6.272   6.005   6.044 -1.1083 -2.9693  0.1651
 3483SOL     OW11164   5.103   0.604   5.763  0.7159 -0.0648 -0.1271
 3483SOL    HW111165   5.030   0.626   5.821  0.9097  0.9377 -0.2606
 3483SOL    HW211166   5.171   0.668   5.785  1.1386 -0.2873 -0.7959
 3484SOL     OW11167   4.514   4.465   5.240 -0.0018  0.2823 -0.1738
 3484SOL    HW111168   4.431   4.499   5.272 -0.1694 -0.5018  0.2292
 3484SOL    HW211169   4.490   4.402   5.172  0.2422 -0.3497  0.3240
 3485SOL     OW11170   2.186   4.712   4.867 -0.3361 -0.0085  0.4422
 3485SOL    HW111171   2.092   4.707   4.886 -0.1637 -0.0939  1.3137
 3485SOL    HW211172   2.191   4.736   4.775 -1.2132 -0.7218  0.2058
 3486SOL     OW11173   3.262   1.351   5.450  0.8318 -0.0282  0.2814
 3486SOL    HW111174   3.238   1.439   5.482  0.6584  0.2714 -0.6467
 3486SOL    HW211175   3.211   1.341   5.369 -1.2852 -2.0999  1.8248
 3487SOL     OW11176   1.149   4.703   2.271  0.0345 -0.7018 -0.3257
 3487SOL    HW111177   1.125   4.701   2.178  0.7691 -2.2857 -0.5031
 3487SOL    HW211178   1.073   4.740   2.315 -0.5470 -0.4857 -1.4945
 3488SOL     OW11179   0.979   3.149   4.098 -0.3081 -0.4510  0.5838
 3488SOL    HW111180   1.036   3.202   4.042 -1.2433  0.8150  0.8310
 3488SOL    HW211181   0.951   3.077   4.042  0.3701 -0.2977  0.0356
 3489SOL     OW11182   0.517   0.937   3.024 -0.4440  0.5683  0.4698
 3489SOL    HW111183   0.436   0.900   2.991  0.1560 -1.6627  1.3690
 3489SOL    HW211184   0.557   0.866   3.075  2.6541  1.1719 -0.9515
 3490SOL     OW11185   4.119   5.578   3.784  0.1151 -0.4573  0.3909
 3490SOL    HW111186   4.165   5.593   3.701  0.6403  0.2255  0.7968
 3490SOL    HW211187   4.036   5.625   3.774 -0.4135 -1.5119 -0.2611
 3491SOL     OW11188   5.880   0.673   6.088 -0.2508  0.3515 -0.7484
 3491SOL    HW111189   5.917   0.761   6.084 -2.7602  1.4413 -1.6830
 3491SOL    HW211190   5.884   0.642   5.997  1.4010 -0.8545 -0.2742
 3492SOL     OW11191   4.616   1.189   3.861  0.1151 -0.3311 -0.1336
 3492SOL    HW111192   4.681   1.256   3.881  1.3275 -1.9746  1.7113
 3492SOL    HW211193   4.535   1.222   3.899 -0.1604  1.7453 -2.4602
 3493SOL     OW11194   5.832   2.820   3.774  0.0894 -0.2012  0.4656
 3493SOL    HW111195   5.869   2.760   3.709 -0.4757  0.1355 -0.1700
 3493SOL    HW211196   5.908   2.848   3.826  0.6198 -0.1115 -0.3385
 3494SOL     OW11197   2.268   4.745   5.988 -0.0867 -0.4756  0.1487
 3494SOL    HW111198   2.313   4.760   5.905  0.4671  3.7023  1.1054
 3494SOL    HW211199   2.182   4.785   5.976 -0.2317 -0.4082  1.3777
 3495SOL     OW11200   1.780   5.047   4.543  0.0346  0.2378 -0.0427
 3495SOL    HW111201   1.726   5.030   4.621  1.1222 -1.5103  0.3712
 3495SOL    HW211202   1.852   5.101   4.575  0.7896 -0.9498  0.3213
 3496SOL     OW11203   6.533   3.074   4.491  0.1913 -0.2016 -0.1525
 3496SOL    HW111204   6.510   3.078   4.583 -1.3837  0.4195 -0.5557
 3496SOL    HW211205   6.565   2.985   4.477  2.6592  0.3789  1.4811
 3497SOL     OW11206   4.601   2.846   0.056 -0.3980  0.2043 -0.2491
 3497SOL    HW111207   4.542   2.915   0.087  0.2341 -0.5151  2.7522
 3497SOL    HW211208   4.689   2.881   0.070 -0.0927  0.0800 -1.8295
 3498SOL     OW11209   5.463   1.222   1.896 -0.2438  0.5122 -0.7801
 3498SOL    HW111210   5.444   1.295   1.954 -0.3705 -1.3302  1.5924
 3498SOL    HW211211   5.377   1.192   1.866 -0.6617 -2.3354  2.9921
 3499SOL     OW11212   1.544   1.646   1.559 -0.9522  0.0165  0.6638
 3499SOL    HW111213   1.549   1.636   1.654  1.3307  1.8629  0.7764
 3499SOL    HW211214   1.580   1.564   1.525  1.1983  0.5940  1.4476
 3500SOL     OW11215   2.653   0.664   4.379 -0.0503  0.2125  0.5443
 3500SOL    HW111216   2.586   0.608   4.419 -1.0109  2.0678  1.6102
 3500SOL    HW211217   2.624   0.675   4.289 -1.1765  0.9545  0.9814
 3501SOL     OW11218   3.518   4.169   4.023 -0.2828  0.1552  0.4055
 3501SOL    HW111219   3.503   4.096   4.084  1.0908 -0.6698 -0.2120
 3501SOL    HW211220   3.607   4.199   4.044  0.0758  0.0778 -0.9758
 3502SOL     OW11221   0.044   0.877   0.809 -0.3018  0.2015 -0.5219
 3502SOL    HW111222   0.035   0.864   0.715 -0.9351  0.2738 -0.4795
 3502SOL    HW211223   0.023   0.970   0.822  1.3016  0.5655 -0.4875
 3503SOL     OW11224   0.539   3.337   4.131  0.7783 -0.0391  0.0375
 3503SOL    HW111225   0.551   3.349   4.037 -0.7182 -0.5704 -0.2340
 3503SOL    HW211226   0.558   3.423   4.169  0.7923  0.3327 -0.8071
 3504SOL     OW11227   5.887   5.072   5.476  0.3693 -0.3232 -0.5151
 3504SOL    HW111228   5.954   5.005   5.463 -1.1014 -1.6103 -1.5945
 3504SOL    HW211229   5.825   5.032   5.537  0.3838  0.7324  0.2084
 3505SOL     OW11230   5.140   1.015   2.214 -0.2662  0.0505  0.6044
 3505SOL    HW111231   5.201   0.951   2.251 -0.8205 -0.2443  1.0035
 3505SOL    HW211232   5.104   1.060   2.290  0.0414  0.7705  0.3318
 3506SOL     OW11233   1.824   5.997   2.096 -0.7176  0.4976  0.0178
 3506SOL    HW111234   1.792   5.948   2.172  0.1694 -0.3160 -0.1294
 3506SOL    HW211235   1.913   5.967   2.083 -0.3873  1.6540 -0.5081
 3507SOL     OW11236   5.421   2.478   4.912 -0.1510 -0.3495 -0.1691
 3507SOL    HW111237   5.497   2.467   4.854  0.8934 -1.0519  1.2899
 3507SOL    HW211238   5.389   2.388   4.926 -0.3827 -0.1876  0.3559
 3508SOL     OW11239   5.085   3.702   4.368 -0.1718  0.1504  0.4181
 3508SOL    HW111240   5.054   3.732   4.453  2.1581  0.9260  1.0414
 3508SOL    HW211241   5.180   3.703   4.376  0.0511 -2.8640 -1.1493
 3509SOL     OW11242   3.439   5.791   2.101 -0.0269 -0.1806 -0.7007
 3509SOL    HW111243   3.483   5.743   2.172 -1.7059 -1.7538 -0.6951
 3509SOL    HW211244   3.484   5.764   2.022  0.3889 -0.1568 -0.4728
 3510SOL     OW11245   5.445   6.095   5.921  0.2846  0.9964 -0.3221
 3510SOL    HW111246   5.443   6.170   5.862 -0.2843  0.9867 -0.3168
 3510SOL    HW211247   5.507   6.035   5.880 -0.3648  0.8423 -1.1070
 3511SOL     OW11248   1.470   5.325   4.953 -0.1107 -0.3277  0.3401
 3511SOL    HW111249   1.484   5.402   5.008 -0.6867 -0.9708  1.4095
 3511SOL    HW211250   1.453   5.254   5.016 -0.4721 -1.1331 -0.6618
 3512SOL     OW11251   0.792   0.649   4.453 -0.0359 -0.4486  0.1426
 3512SOL    HW111252   0.739   0.577   4.485 -1.4168  1.2874  1.8421
 3512SOL    HW211253   0.731   0.703   4.402  0.6972  0.1486 -0.1181
 3513SOL     OW11254   6.287   3.825   3.051 -0.1280  0.4119  0.0147
 3513SOL    HW111255   6.192   3.831   3.061 -0.2703  4.7574 -2.4977
 3513SOL    HW211256   6.300   3.765   2.978 -1.0602  0.6833 -0.3824
 3514SOL     OW11257   2.901   0.155   6.741  0.1688  0.4463  0.0356
 3514SOL    HW111258   2.962   0.206   6.687  0.8197 -0.4865 -0.1003
 3514SOL    HW211259   2.902   0.068   6.702 -2.5304  0.8306 -1.0469
 3515SOL     OW11260   0.059   2.636   5.391 -0.1725 -0.3405 -0.2785
 3515SOL    HW111261   0.051   2.541   5.402  0.7664 -0.6651 -2.3137
 3515SOL    HW211262   0.112   2.664   5.465 -0.1961 -1.4360  0.1656
 3516SOL     OW11263   3.532   0.324   5.169 -0.5292  0.4445 -0.0134
 3516SOL    HW111264   3.445   0.301   5.136 -0.2788 -0.9413  0.2725
 3516SOL    HW211265   3.525   0.417   5.192 -1.4700  0.7421 -1.4596
 3517SOL     OW11266   3.527   3.943   3.077 -0.4034  0.7532  0.0126
 3517SOL    HW111267   3.601   3.890   3.046  0.3817  2.2292 -0.6869
 3517SOL    HW211268   3.450   3.889   3.061  0.5649 -1.1086  1.3922
 3518SOL     OW11269   4.541   5.297   6.516 -0.1025  0.1822  0.4248
 3518SOL    HW111270   4.474   5.262   6.575  0.2726 -0.1380  0.6632
 3518SOL    HW211271   4.616   5.315   6.574  0.0817  0.3668  0.1298
 3519SOL     OW11272   4.953   4.484   3.066 -0.3497  0.2958  0.2052
 3519SOL    HW111273   4.887   4.416   3.074 -1.0234  0.5727 -2.6979
 3519SOL    HW211274   4.903   4.565   3.059  0.3381  0.6926 -0.1312
 3520SOL     OW11275   5.454   0.991   1.660 -0.5077 -0.6324  0.2993
 3520SOL    HW111276   5.429   0.990   1.753  0.5288  1.7907  0.6475
 3520SOL    HW211277   5.371   1.003   1.613 -1.0287 -1.7789  0.9085
 3521SOL     OW11278   2.920   5.376   6.111  0.4795 -0.5542 -0.0260
 3521SOL    HW111279   2.875   5.457   6.090  0.3359 -0.1967  1.6323
 3521SOL    HW211280   2.867   5.307   6.070 -0.4142  0.0317  0.1501
 3522SOL     OW11281   4.471   6.173   2.426 -0.0570 -0.0085  0.0776
 3522SOL    HW111282   4.460   6.204   2.337 -1.4494  0.3110  0.3524
 3522SOL    HW211283   4.544   6.111   2.421 -0.4482 -0.3628 -1.3641
 3523SOL     OW11284   4.961   1.032   4.440  0.3829  0.2704  0.0796
 3523SOL    HW111285   4.998   1.074   4.518 -0.6591  1.0800  0.1482
 3523SOL    HW211286   5.009   1.069   4.367  1.3760 -0.5010  0.3380
 3524SOL     OW11287   5.426   5.898   2.532  1.1438  0.0015  0.2177
 3524SOL    HW111288   5.514   5.887   2.497  0.9120 -0.5126 -0.2128
 3524SOL    HW211289   5.381   5.953   2.468  0.7097 -0.9716 -0.3420
 3525SOL     OW11290   2.884   3.366   6.740  0.6271 -0.7283 -0.2175
 3525SOL    HW111291   2.908   3.458   6.735 -0.2492 -0.3803  1.4019
 3525SOL    HW211292   2.941   3.330   6.808 -0.3622 -0.9184  0.5252
 3526SOL     OW11293   3.187   3.652   5.000 -0.1568  0.0629 -0.2991
 3526SOL    HW111294   3.151   3.567   4.974  0.0400 -0.2516  0.4457
 3526SOL    HW211295   3.147   3.669   5.085  2.1036 -0.6839  0.9241
 3527SOL     OW11296   5.907   0.071   5.682  0.0882 -0.0336 -0.5154
 3527SOL    HW111297   5.922  -0.008   5.631 -0.9274 -0.6110  0.0818
 3527SOL    HW211298   5.850   0.044   5.754 -1.0375  1.4197 -0.8255
 3528SOL     OW11299   4.317   4.041   5.270 -0.1878 -0.3890  0.0959
 3528SOL    HW111300   4.410   4.016   5.270  0.3326  1.4395  0.2529
 3528SOL    HW211301   4.297   4.059   5.179 -0.0827  0.2140  0.1841
 3529SOL     OW11302   2.669   2.048   0.053  0.1320 -0.4606 -0.5402
 3529SOL    HW111303   2.574   2.045   0.066  0.0107 -0.6749 -1.5029
 3529SOL    HW211304   2.691   2.142   0.058 -0.5460 -0.1180 -3.2835
 3530SOL     OW11305   5.500   2.748   2.565  0.1541  0.2095 -0.5529
 3530SOL    HW111306   5.586   2.717   2.538  0.1915 -0.7386  0.6182
 3530SOL    HW211307   5.439   2.686   2.526  0.0354  0.5048 -0.8409
 3531SOL     OW11308   5.643   4.055   5.845 -0.1849 -0.0113  0.1786
 3531SOL    HW111309   5.622   3.962   5.855  1.1192 -0.2275  0.9064
 3531SOL    HW211310   5.684   4.061   5.759  0.1320 -0.1848  0.3164
 3532SOL     OW11311   4.864   3.058   2.507  0.0288 -0.2616 -0.1478
 3532SOL    HW111312   4.945   3.058   2.456 -1.1893  0.1727 -2.1342
 3532SOL    HW211313   4.822   3.141   2.485  0.8566  1.3554  3.9060
 3533SOL     OW11314   0.806   2.070   0.517 -0.7263  0.3973 -0.0542
 3533SOL    HW111315   0.767   2.114   0.594 -1.6401  0.8543 -0.7679
 3533SOL    HW211316   0.773   2.120   0.442 -0.5276 -0.5750 -0.7937
 3534SOL     OW11317   6.452   4.213   5.878  0.2798  0.1464  0.0710
 3534SOL    HW111318   6.454   4.126   5.918 -0.5975  0.2653  0.3875
 3534SOL    HW211319   6.540   4.247   5.890  0.7988 -0.9216 -0.5522
 3535SOL     OW11320   0.366   0.139   0.105 -0.3463 -0.1016  0.7805
 3535SOL    HW111321   0.368   0.217   0.051 -1.4694 -0.5682  0.0568
 3535SOL    HW211322   0.458   0.122   0.126  0.0700  0.2381 -0.7484
 3536SOL     OW11323   2.819   3.709   5.016 -0.1762  0.3196 -0.9127
 3536SOL    HW111324   2.819   3.771   4.944  2.0705 -1.3810 -2.4490
 3536SOL    HW211325   2.888   3.740   5.075 -0.9642  0.8560 -0.2781
 3537SOL     OW11326   0.881   2.802   6.713 -1.0832  0.4282 -0.1403
 3537SOL    HW111327   0.960   2.774   6.759 -0.7949  3.3957  1.2933
 3537SOL    HW211328   0.813   2.742   6.743  0.4623 -1.7654 -0.9142
 3538SOL     OW11329   4.901   1.716   1.465  0.6983  0.5195 -0.5684
 3538SOL    HW111330   4.892   1.644   1.527 -1.4175  0.6776 -0.6605
 3538SOL    HW211331   4.995   1.724   1.451  1.0765 -0.8419  1.0571
 3539SOL     OW11332   2.754   4.096   5.364 -0.4809  0.1013  0.4180
 3539SOL    HW111333   2.844   4.076   5.389 -0.7938 -0.4558  1.1025
 3539SOL    HW211334   2.763   4.147   5.283  0.4171 -0.7849 -0.0640
 3540SOL     OW11335   5.534   0.952   4.052 -0.7216 -0.0081  0.5084
 3540SOL    HW111336   5.500   0.946   3.963 -1.5205 -1.0966  0.8713
 3540SOL    HW211337   5.458   0.934   4.107  0.3441 -2.0374  1.3524
 3541SOL     OW11338   3.769   4.703   2.037 -0.2413  0.2480 -0.6565
 3541SOL    HW111339   3.836   4.698   2.105  0.5794  0.0610 -1.4672
 3541SOL    HW211340   3.751   4.797   2.028 -1.5877  0.1780  0.9899
 3542SOL     OW11341   1.353   1.525   3.931 -0.1579  0.4242 -0.5155
 3542SOL    HW111342   1.389   1.437   3.946  5.1788  2.4599 -0.5939
 3542SOL    HW211343   1.337   1.529   3.837  1.1540  0.1104 -0.7522
 3543SOL     OW11344   3.566   4.937   2.143  0.8249 -0.0419 -0.0399
 3543SOL    HW111345   3.473   4.915   2.146  0.4833  1.4732  0.9824
 3543SOL    HW211346   3.581   4.967   2.054  0.6020 -1.3145 -0.5267
 3544SOL     OW11347   5.728   1.673   0.062 -0.3181  0.7863  0.0499
 3544SOL    HW111348   5.710   1.730  -0.013  0.2708 -1.0498 -1.5526
 3544SOL    HW211349   5.647   1.624   0.074 -0.3250  0.8987  0.4449
 3545SOL     OW11350   4.521   1.319   4.222 -0.0191 -0.2745 -0.0834
 3545SOL    HW111351   4.518   1.405   4.179 -0.7963  0.7137  1.8917
 3545SOL    HW211352   4.431   1.286   4.216  0.1055 -0.6023 -0.1519
 3546SOL     OW11353   6.612   3.517   0.920 -0.5945 -0.2211 -0.2261
 3546SOL    HW111354   6.536   3.463   0.943 -1.0679  0.3708 -0.4022
 3546SOL    HW211355   6.592   3.604   0.955 -0.4065  0.1737 -1.0816
 3547SOL     OW11356   3.130   2.464   6.263 -0.1206 -0.1272  0.3479
 3547SOL    HW111357   3.101   2.556   6.257  0.0350 -0.2224 -2.3725
 3547SOL    HW211358   3.054   2.414   6.232 -0.2659 -0.9525  1.9962
 3548SOL     OW11359   3.495   6.259   4.714  0.2063 -0.1719  0.2389
 3548SOL    HW111360   3.478   6.251   4.808 -0.3604  1.0416  0.2483
 3548SOL    HW211361   3.541   6.342   4.705 -2.0295  0.9993 -0.8403
 3549SOL     OW11362   2.838   3.620   6.160 -1.0272  0.5657 -0.3040
 3549SOL    HW111363   2.755   3.573   6.154 -1.1009  0.9437 -2.3478
 3549SOL    HW211364   2.902   3.561   6.121 -0.6346  1.0197 -0.3494
 3550SOL     OW11365   5.931   5.355   5.936  0.1735  0.0572  0.0384
 3550SOL    HW111366   5.979   5.313   6.008  0.0921 -1.7350 -0.9248
 3550SOL    HW211367   5.878   5.285   5.899 -1.2402  1.4305 -0.5552
 3551SOL     OW11368   5.823   3.297   5.930 -0.1621  0.4049  0.2021
 3551SOL    HW111369   5.917   3.277   5.926 -0.2789 -0.5517  1.8998
 3551SOL    HW211370   5.786   3.255   5.852  0.9694  1.7163 -1.0721
 3552SOL     OW11371   5.619   1.382   6.362  0.0382 -0.1576  0.2187
 3552SOL    HW111372   5.604   1.322   6.434 -0.2737  1.2176  1.3240
 3552SOL    HW211373   5.535   1.385   6.315  0.1499 -0.8170 -0.0245
 3553SOL     OW11374   2.876   0.259   4.206 -0.0976  0.3534 -0.4903
 3553SOL    HW111375   2.901   0.208   4.283 -0.7953  1.1493  0.2781
 3553SOL    HW211376   2.889   0.200   4.132 -0.3364 -0.7264  0.3272
 3554SOL     OW11377   6.734   1.393   1.758 -0.0336  0.5977 -0.5177
 3554SOL    HW111378   6.690   1.338   1.823 -0.4210  1.3187 -0.1653
 3554SOL    HW211379   6.822   1.406   1.793 -1.0282  3.1767  1.2224
 3555SOL     OW11380   1.989   0.655   1.405  0.1465 -0.2146 -0.2046
 3555SOL    HW111381   1.895   0.665   1.420 -0.1472 -2.0774 -0.7019
 3555SOL    HW211382   1.999   0.662   1.310  0.6474  0.9512 -0.0750
 3556SOL     OW11383   1.786   5.759   1.246 -0.5065 -0.4155 -0.0099
 3556SOL    HW111384   1.790   5.768   1.341 -2.1704 -0.7408  0.1159
 3556SOL    HW211385   1.761   5.845   1.214 -1.6006 -0.7213 -0.0052
 3557SOL     OW11386   2.441   2.389   4.765 -0.7695  0.1788 -0.1422
 3557SOL    HW111387   2.398   2.473   4.749  1.3986  1.4735  0.5908
 3557SOL    HW211388   2.531   2.403   4.735 -0.3117 -1.8079  0.2587
 3558SOL     OW11389   4.842   3.664   3.999 -0.2886  0.0751 -0.1220
 3558SOL    HW111390   4.827   3.630   3.911 -1.5839  0.5323 -0.0865
 3558SOL    HW211391   4.758   3.654   4.044  0.6478 -1.1606  1.4137
 3559SOL     OW11392   6.358   4.289   0.761 -0.2611  0.1814  0.5032
 3559SOL    HW111393   6.425   4.302   0.694  0.3313  0.6241  1.1720
 3559SOL    HW211394   6.408   4.280   0.842 -0.8278 -2.5971  0.5834
 3560SOL     OW11395   1.455   6.617   2.066 -0.3881 -0.7208 -0.0029
 3560SOL    HW111396   1.454   6.532   2.022  1.5408 -0.9499  0.3461
 3560SOL    HW211397   1.518   6.607   2.137 -0.0590  1.0384 -0.0130
 3561SOL     OW11398   6.612   4.524   2.200 -0.3300 -0.3263 -0.2060
 3561SOL    HW111399   6.561   4.597   2.165 -1.6654 -1.6416 -1.0050
 3561SOL    HW211400   6.607   4.536   2.295 -0.4380  0.6861 -0.3274
 3562SOL     OW11401   0.787   0.059   2.138 -0.2147  0.0589  0.1780
 3562SOL    HW111402   0.786  -0.029   2.177  3.0329 -0.4618 -0.7738
 3562SOL    HW211403   0.765   0.044   2.046 -2.1780  0.5808  0.5482
 3563SOL     OW11404   2.165   0.003   4.120  0.8779  0.0951 -0.5847
 3563SOL    HW111405   2.100  -0.050   4.073 -0.8753  1.8911 -0.2477
 3563SOL    HW211406   2.113   0.058   4.179  2.9950 -1.7847  3.2147
 3564SOL     OW11407   4.658   6.558   2.592  0.1609  0.2694  0.0970
 3564SOL    HW111408   4.640   6.539   2.500 -2.0983 -0.5430  0.6790
 3564SOL    HW211409   4.577   6.597   2.625  0.1225 -1.5330  2.2964
 3565SOL     OW11410   1.487   1.338   1.343 -0.7012  0.5590  0.5795
 3565SOL    HW111411   1.492   1.273   1.272 -0.7114  1.0408  0.1331
 3565SOL    HW211412   1.499   1.287   1.423 -5.2638 -0.6677  0.5815
 3566SOL     OW11413   5.983   1.997   3.994 -0.2925  0.0064  0.2266
 3566SOL    HW111414   5.992   1.903   4.005 -0.5914 -0.0838 -0.2678
 3566SOL    HW211415   5.889   2.014   4.005 -0.2634  0.2204  0.1583
 3567SOL     OW11416   2.606   0.331   0.589  0.2228  0.2969  0.2414
 3567SOL    HW111417   2.633   0.320   0.680 -0.4980  0.5624  0.4892
 3567SOL    HW211418   2.666   0.276   0.539  1.2469  0.9149  0.7824
 3568SOL     OW11419   4.729   6.194   3.048  0.2626  0.0145 -0.0692
 3568SOL    HW111420   4.796   6.132   3.075  1.7743  1.3297 -0.7605
 3568SOL    HW211421   4.746   6.273   3.100 -1.5484 -0.0814  0.7019
 3569SOL     OW11422   4.106   1.508   3.477 -0.1676  0.0536  0.1858
 3569SOL    HW111423   4.151   1.458   3.545 -0.2592  0.2058  0.3625
 3569SOL    HW211424   4.175   1.558   3.433 -0.2053  0.5829  0.7107
 3570SOL     OW11425   4.057   5.713   5.403  0.5843  0.4441  0.7500
 3570SOL    HW111426   4.104   5.787   5.439 -0.4493  0.3155  2.3896
 3570SOL    HW211427   3.979   5.704   5.457 -1.2795  0.5545 -1.8234
 3571SOL     OW11428   0.913   6.167   0.579 -0.3291 -0.1732  0.2356
 3571SOL    HW111429   0.877   6.181   0.491  0.0625  1.3911  0.3078
 3571SOL    HW211430   0.854   6.216   0.637 -0.2630 -0.7375  0.7899
 3572SOL     OW11431   2.769   5.238   0.991  0.0233 -0.5967 -0.2549
 3572SOL    HW111432   2.830   5.200   0.927  0.7498  1.3720 -0.7657
 3572SOL    HW211433   2.761   5.329   0.964 -0.5483 -0.0235  1.8309
 3573SOL     OW11434   3.426   4.776   5.321 -0.7669 -0.3042  0.2713
 3573SOL    HW111435   3.357   4.750   5.381  0.8477 -1.0406  1.8770
 3573SOL    HW211436   3.440   4.699   5.266 -3.5621  1.0002 -2.4326
 3574SOL     OW11437   3.602   1.813   3.959 -0.1887 -0.7983  0.4174
 3574SOL    HW111438   3.596   1.866   4.038 -0.7426 -0.0020 -0.1559
 3574SOL    HW211439   3.631   1.873   3.891 -0.2442 -1.3549 -0.1084
 3575SOL     OW11440   2.004   6.271   6.679  0.2717 -0.2781 -0.1215
 3575SOL    HW111441   2.098   6.282   6.666  0.3243  0.1056  0.5504
 3575SOL    HW211442   1.965   6.287   6.592  0.8492 -0.7531 -0.4671
 3576SOL     OW11443   6.651   0.855   3.966  0.8711  0.9479  0.1949
 3576SOL    HW111444   6.564   0.815   3.957  1.9396 -1.1547 -1.3669
 3576SOL    HW211445   6.638   0.927   4.028 -2.0587  0.9427 -0.3219
 3577SOL     OW11446   4.798   4.300   0.843 -0.1070  0.3014 -0.2430
 3577SOL    HW111447   4.763   4.295   0.754  1.9758  1.5528 -1.1510
 3577SOL    HW211448   4.861   4.228   0.848 -1.1634 -0.5772  0.6651
 3578SOL     OW11449   2.431   0.819   5.897 -0.2773  0.5920  0.7202
 3578SOL    HW111450   2.336   0.811   5.890 -0.1059  0.5103 -1.7658
 3578SOL    HW211451   2.463   0.730   5.880  0.3147  0.9345  0.0426
 3579SOL     OW11452   1.195   3.823   3.945  0.0600 -0.4110 -0.1985
 3579SOL    HW111453   1.127   3.773   3.990 -0.3956  0.4413  0.0792
 3579SOL    HW211454   1.150   3.866   3.872  1.1669 -3.2730 -2.6521
 3580SOL     OW11455   4.077   4.115   2.658 -0.2401  0.1210 -0.1646
 3580SOL    HW111456   4.140   4.075   2.719  2.0064 -0.2864 -2.6441
 3580SOL    HW211457   4.122   4.193   2.626 -1.7691  0.8166 -0.6320
 3581SOL     OW11458   1.966   5.203   1.143  0.7864 -0.1155 -0.1139
 3581SOL    HW111459   1.961   5.298   1.155  0.9163 -0.1028 -0.1506
 3581SOL    HW211460   1.979   5.192   1.049  0.1346 -0.1956 -0.1984
 3582SOL     OW11461   3.200   4.028   6.057  0.0272  0.2483 -0.3073
 3582SOL    HW111462   3.194   4.073   6.141  1.5162 -0.5231  0.2248
 3582SOL    HW211463   3.111   3.996   6.041 -0.9648  2.9214 -0.4664
 3583SOL     OW11464   0.311   0.004   4.416 -0.6582 -0.2671 -0.5475
 3583SOL    HW111465   0.220  -0.012   4.389 -1.1020  0.3380  0.5743
 3583SOL    HW211466   0.316  -0.032   4.504 -0.0409  0.4759 -0.2794
 3584SOL     OW11467   1.149   2.300   1.550 -0.1906  0.3473 -1.0053
 3584SOL    HW111468   1.224   2.266   1.598 -1.4519  0.9368  1.4233
 3584SOL    HW211469   1.086   2.327   1.617 -2.4608  0.1766 -2.9743
 3585SOL     OW11470   1.637   3.775   3.634  0.1259 -0.2355 -0.2416
 3585SOL    HW111471   1.631   3.865   3.666  0.3643  0.2501 -1.5312
 3585SOL    HW211472   1.578   3.725   3.691 -2.0546  1.2122 -1.1612
 3586SOL     OW11473   0.332   0.677   3.917  0.3752 -0.2240 -0.1330
 3586SOL    HW111474   0.344   0.602   3.976 -0.6806 -0.2113  0.1019
 3586SOL    HW211475   0.244   0.666   3.881  1.1316 -0.3825 -1.9470
 3587SOL     OW11476   0.760   3.296   1.215 -0.0628 -0.3862  0.1482
 3587SOL    HW111477   0.720   3.340   1.140 -0.0737 -0.6799 -0.0159
 3587SOL    HW211478   0.696   3.307   1.286  0.4267  0.8366  0.4113
 3588SOL     OW11479   1.991   5.495   6.553  0.0640  0.1962  0.5049
 3588SOL    HW111480   2.071   5.443   6.548  0.1447  0.4195 -0.5939
 3588SOL    HW211481   2.020   5.586   6.547 -0.3264  0.2509 -0.6856
 3589SOL     OW11482   4.971   2.801   3.113  0.0329 -0.0397  0.2767
 3589SOL    HW111483   4.933   2.836   3.034  0.4690  0.1532  0.1489
 3589SOL    HW211484   5.003   2.714   3.088 -1.2198 -0.6103  0.6433
 3590SOL     OW11485   0.637   4.094   6.672 -0.0375  0.0631  0.1867
 3590SOL    HW111486   0.678   4.008   6.680  0.6547  0.2240 -1.4871
 3590SOL    HW211487   0.678   4.147   6.741  0.9900 -0.3940 -0.0660
 3591SOL     OW11488   0.317   1.430   4.926 -0.1119  0.4537 -0.3859
 3591SOL    HW111489   0.231   1.459   4.957  0.2468  1.2962 -0.1706
 3591SOL    HW211490   0.302   1.403   4.835 -0.4553  1.2677 -0.5728
 3592SOL     OW11491   2.965   5.188   0.805  0.1076 -0.1377  0.5108
 3592SOL    HW111492   3.047   5.150   0.775  0.5796  0.3368  1.1764
 3592SOL    HW211493   2.947   5.259   0.743 -0.1557 -0.6805 -0.0329
 3593SOL     OW11494   2.216   5.947   2.786  0.9298  0.1759 -0.3898
 3593SOL    HW111495   2.224   6.042   2.799 -1.8293  0.3483  0.3355
 3593SOL    HW211496   2.164   5.938   2.707 -0.5613 -0.7021  0.6685
 3594SOL     OW11497   3.660   5.249   2.637 -0.1763 -0.0552 -0.2090
 3594SOL    HW111498   3.598   5.201   2.692 -0.5962 -0.5725 -1.1232
 3594SOL    HW211499   3.619   5.251   2.551  0.6602  0.3961 -0.6014
 3595SOL     OW11500   4.556   0.905   3.807  0.4605  0.5749 -0.5900
 3595SOL    HW111501   4.461   0.905   3.807  0.4576 -0.1516  0.2700
 3595SOL    HW211502   4.580   0.996   3.825 -0.0629  0.8585 -1.3093
 3596SOL     OW11503   5.565   6.064   0.531  0.6987  0.2593  0.4524
 3596SOL    HW111504   5.571   6.113   0.448 -0.8649  2.4376  1.5731
 3596SOL    HW211505   5.637   6.098   0.583  0.8801 -0.1579  0.4718
 3597SOL     OW11506   3.007   1.494   4.835 -0.2710  0.3337 -0.0939
 3597SOL    HW111507   3.004   1.422   4.772  0.0913 -0.7051  1.0620
 3597SOL    HW211508   2.917   1.526   4.839 -0.2901  0.4325 -1.1633
 3598SOL     OW11509   0.278   3.361   0.114 -0.4506 -0.6146 -0.0919
 3598SOL    HW111510   0.291   3.294   0.046  0.0428  0.6503 -1.2717
 3598SOL    HW211511   0.185   3.354   0.137 -0.9819 -0.1007 -1.9616
 3599SOL     OW11512   6.629   3.515   3.337 -0.1928  0.2232  0.6587
 3599SOL    HW111513   6.604   3.602   3.307  1.2834  1.0651  1.8520
 3599SOL    HW211514   6.669   3.474   3.260  0.1020  0.9809  0.4130
 3600SOL     OW11515   0.959   4.381   6.432  0.2798  0.2189 -0.1141
 3600SOL    HW111516   0.870   4.345   6.431 -0.0135  0.9003 -2.2779
 3600SOL    HW211517   1.016   4.304   6.431 -0.2527 -0.2312  1.8586
 3601SOL     OW11518   6.050   6.590   1.164 -0.4588 -0.3370 -0.0427
 3601SOL    HW111519   6.054   6.542   1.247 -0.2595 -0.3720 -0.0728
 3601SOL    HW211520   5.959   6.580   1.135 -0.4872 -0.4621  0.0899
 3602SOL     OW11521   6.485   1.130   5.684 -0.0981 -0.0262 -0.3491
 3602SOL    HW111522   6.442   1.197   5.631 -0.1987 -0.5158 -0.8891
 3602SOL    HW211523   6.557   1.177   5.727 -0.5139  0.5521 -0.2756
 3603SOL     OW11524   5.819   5.954   2.746 -0.2619 -0.3707 -0.4290
 3603SOL    HW111525   5.897   6.009   2.741 -1.3602  1.3287  0.7822
 3603SOL    HW211526   5.848   5.875   2.792  0.9805 -0.2223 -0.9364
 3604SOL     OW11527   1.709   1.411   5.869  0.4584 -0.1654  0.0378
 3604SOL    HW111528   1.771   1.430   5.798  0.0254 -1.2578 -0.6470
 3604SOL    HW211529   1.671   1.326   5.845  0.2859 -0.5346  1.5668
 3605SOL     OW11530   4.884   3.728   1.889  0.1921 -0.1380  0.0292
 3605SOL    HW111531   4.965   3.677   1.897 -0.1426 -0.8390 -1.0161
 3605SOL    HW211532   4.842   3.719   1.974  0.5869 -0.8442  0.1552
 3606SOL     OW11533   4.796   5.080   5.462  0.0856 -0.3767  0.0377
 3606SOL    HW111534   4.819   4.990   5.487  1.3338  0.0683  0.5313
 3606SOL    HW211535   4.842   5.095   5.379  0.1106 -0.1087  0.0980
 3607SOL     OW11536   1.796   3.671   2.990 -0.3264  0.4472  0.2401
 3607SOL    HW111537   1.836   3.594   2.950  0.2358  1.0681 -0.4051
 3607SOL    HW211538   1.827   3.745   2.937 -1.2965  1.0643  0.5150
 3608SOL     OW11539   5.567   6.240   6.505 -0.0774  0.2219 -0.1460
 3608SOL    HW111540   5.631   6.293   6.552 -0.4372  0.0948  0.5070
 3608SOL    HW211541   5.540   6.173   6.569  1.1463 -1.4071 -1.2878
 3609SOL     OW11542   6.086   2.911   3.877 -0.0700 -0.0939  0.5210
 3609SOL    HW111543   6.099   2.949   3.964  0.5205 -0.4801  0.5997
 3609SOL    HW211544   6.102   2.984   3.817  0.1788  0.0055  0.7059
 3610SOL     OW11545   2.901   5.731   0.915  0.0861  0.0235  0.3941
 3610SOL    HW111546   2.994   5.752   0.921  0.4286 -1.2058 -0.4514
 3610SOL    HW211547   2.868   5.738   1.004  0.4774  2.7407  0.3719
 3611SOL     OW11548   1.152   0.053   2.719 -0.7630 -0.0066  0.2622
 3611SOL    HW111549   1.069   0.089   2.687 -0.4512  2.3811  1.9836
 3611SOL    HW211550   1.209   0.051   2.642 -2.1195 -0.8314 -0.7512
 3612SOL     OW11551   3.364   0.193   1.653 -0.3864  0.3139 -0.3848
 3612SOL    HW111552   3.448   0.219   1.615  0.1291  0.4996  0.8331
 3612SOL    HW211553   3.349   0.104   1.622 -0.2736  0.6845 -1.4952
 3613SOL     OW11554   6.522   0.416   4.555 -0.2792  0.2007 -0.1429
 3613SOL    HW111555   6.474   0.361   4.616  1.1552  1.8065  2.5513
 3613SOL    HW211556   6.455   0.472   4.514 -1.3340 -1.3568 -0.5658
 3614SOL     OW11557   6.601   6.402   1.933  0.2340  0.0103 -0.5634
 3614SOL    HW111558   6.559   6.389   1.848 -0.8221 -3.7117  0.4365
 3614SOL    HW211559   6.680   6.348   1.929  1.9844  2.4833 -0.3543
 3615SOL     OW11560   6.540   0.953   5.976 -0.2404 -0.0931 -0.0169
 3615SOL    HW111561   6.483   0.918   5.907  0.5253 -1.3794 -0.0044
 3615SOL    HW211562   6.522   0.897   6.052  1.4616 -0.8853 -0.1809
 3616SOL     OW11563   5.903   0.898   3.935 -0.3022  0.4583  0.1744
 3616SOL    HW111564   5.946   0.924   3.854 -0.4116  1.1593  0.3297
 3616SOL    HW211565   5.914   0.974   3.993 -1.4525  0.5235  0.3256
 3617SOL     OW11566   2.511   1.501   2.778 -0.5088  0.6805 -0.2024
 3617SOL    HW111567   2.548   1.476   2.693 -0.6731 -1.5274  0.3478
 3617SOL    HW211568   2.585   1.494   2.838 -1.0372 -0.5160  0.3176
 3618SOL     OW11569   6.241   3.076   3.450 -0.0060 -0.3088 -0.6785
 3618SOL    HW111570   6.274   3.124   3.374 -0.3553 -0.1347 -0.7242
 3618SOL    HW211571   6.183   3.009   3.413 -1.7846  1.0659 -0.4758
 3619SOL     OW11572   5.362   4.032   6.193 -0.5203 -0.4695  0.0899
 3619SOL    HW111573   5.444   3.985   6.206 -0.8931 -0.8557  1.1332
 3619SOL    HW211574   5.304   3.998   6.262 -0.6429  1.8789  1.1814
 3620SOL     OW11575   4.801   2.503   1.187  0.0771 -0.4302 -0.1205
 3620SOL    HW111576   4.826   2.412   1.206  1.3707 -0.3338 -1.2974
 3620SOL    HW211577   4.753   2.498   1.105  0.1126 -0.0510 -0.1626
 3621SOL     OW11578   0.749   3.324   3.434  0.2532 -0.0750 -0.2121
 3621SOL    HW111579   0.710   3.400   3.479 -2.5119  0.1842 -2.9339
 3621SOL    HW211580   0.818   3.362   3.380  0.5445  0.1884  0.3383
 3622SOL     OW11581   1.835   3.304   5.523 -0.5055  0.7905 -0.2428
 3622SOL    HW111582   1.752   3.270   5.556 -0.0786  1.4779  1.6459
 3622SOL    HW211583   1.870   3.234   5.468 -2.1043  0.3080 -0.6789
 3623SOL     OW11584   6.316   0.563   4.388  0.4853 -0.0688 -0.1430
 3623SOL    HW111585   6.382   0.566   4.319  0.2037  0.3461 -0.3972
 3623SOL    HW211586   6.267   0.644   4.378 -1.6750 -1.4981 -1.5320
 3624SOL     OW11587   1.820   1.302   6.566  0.4342  0.0097  0.2952
 3624SOL    HW111588   1.890   1.341   6.514 -0.0089  1.1927  0.5688
 3624SOL    HW211589   1.839   1.328   6.656 -0.3174  0.2742  0.3782
 3625SOL     OW11590   0.081   2.021   2.927 -0.5633 -0.2491  0.2917
 3625SOL    HW111591   0.166   2.034   2.968 -0.8137 -0.0924  0.7751
 3625SOL    HW211592   0.077   1.927   2.909 -0.1351 -0.1953 -0.0792
 3626SOL     OW11593   3.020   4.100   5.405 -0.0569  1.0488 -0.0127
 3626SOL    HW111594   3.007   4.191   5.377  0.3646  0.6764 -1.4496
 3626SOL    HW211595   3.031   4.106   5.500 -0.3293  2.4697 -0.0565
 3627SOL     OW11596   3.085   2.326   0.839 -0.2909  0.2172  0.1617
 3627SOL    HW111597   3.121   2.362   0.758 -0.2294  2.2420  1.0563
 3627SOL    HW211598   3.156   2.334   0.903 -0.9048  0.2940  0.8490
 3628SOL     OW11599   4.058   1.066   2.846  0.5995  0.6699  0.4293
 3628SOL    HW111600   3.972   1.107   2.837  0.3659  0.0532 -0.2034
 3628SOL    HW211601   4.044   0.975   2.819  1.4786  0.6070  0.1625
 3629SOL     OW11602   6.363   1.808   1.419 -0.3249  0.2504 -0.0015
 3629SOL    HW111603   6.396   1.770   1.501  0.9830  0.1184 -0.5703
 3629SOL    HW211604   6.287   1.755   1.398  0.2999 -0.7872  0.2809
 3630SOL     OW11605   4.945   3.236   3.929 -0.1118  0.2034 -0.2587
 3630SOL    HW111606   4.971   3.154   3.888 -1.6191  0.1929 -1.2459
 3630SOL    HW211607   4.983   3.304   3.874 -1.8184  0.1846 -1.5110
 3631SOL     OW11608   1.209   1.307   5.918 -0.0569 -0.2131 -0.2949
 3631SOL    HW111609   1.169   1.391   5.895  0.1152 -0.3340 -1.0233
 3631SOL    HW211610   1.224   1.313   6.013  1.9899  1.4293 -0.7014
 3632SOL     OW11611   1.957   6.289   2.021  0.1783  0.8485  0.3067
 3632SOL    HW111612   1.880   6.233   2.032  0.2235  0.8094  0.4232
 3632SOL    HW211613   1.923   6.370   1.983  0.1205  0.7188  0.0820
 3633SOL     OW11614   4.722   0.730   4.895  0.1360 -0.4974  0.7139
 3633SOL    HW111615   4.641   0.738   4.846  1.0557  1.8767 -0.5129
 3633SOL    HW211616   4.694   0.719   4.986 -1.5567  1.1949  0.4283
 3634SOL     OW11617   0.106   6.665   4.611  0.1198  0.2028 -0.3248
 3634SOL    HW111618   0.112   6.653   4.516  1.4424  0.5162 -0.2836
 3634SOL    HW211619   0.087   6.577   4.645  1.8440 -0.3165 -0.6881
 3635SOL     OW11620   3.617   3.086   3.857 -0.7090 -0.5340  0.4354
 3635SOL    HW111621   3.531   3.122   3.837 -0.3925  1.1294  1.9346
 3635SOL    HW211622   3.657   3.151   3.915  0.9537 -2.0227  0.9973
 3636SOL     OW11623   1.219   4.819   3.809  0.1715  0.2658 -0.1620
 3636SOL    HW111624   1.259   4.861   3.732  0.7404 -1.0575 -0.5980
 3636SOL    HW211625   1.150   4.764   3.772 -1.3001  1.6262  0.4956
 3637SOL     OW11626   2.876   1.325   5.244 -0.4485  0.0207  0.0747
 3637SOL    HW111627   2.862   1.351   5.335  0.5025 -0.3944  0.3444
 3637SOL    HW211628   2.970   1.334   5.230 -0.5809  0.0576 -0.8629
 3638SOL     OW11629   1.402   5.655   1.650  0.0640 -0.4893 -0.6259
 3638SOL    HW111630   1.328   5.594   1.644 -0.0386 -0.3434 -0.8391
 3638SOL    HW211631   1.384   5.722   1.584 -0.1739  0.1497  0.0790
 3639SOL     OW11632   2.283   5.466   1.467  0.1390  0.4361  0.3755
 3639SOL    HW111633   2.229   5.486   1.544 -0.6152 -1.5648  0.3958
 3639SOL    HW211634   2.259   5.376   1.444  1.4579  0.4983 -1.3016
 3640SOL     OW11635   0.938   3.996   6.073 -0.0157 -0.5328  0.1083
 3640SOL    HW111636   0.935   3.971   5.980 -3.2996 -0.8680  0.2437
 3640SOL    HW211637   0.904   3.919   6.119  0.6537  0.0091  1.5164
 3641SOL     OW11638   1.873   0.438   1.057  0.3468  0.6455 -0.0881
 3641SOL    HW111639   1.874   0.450   0.962 -1.6437  0.9763 -0.0989
 3641SOL    HW211640   1.862   0.343   1.068  1.8428  0.4496 -0.1546
 3642SOL     OW11641   3.158   6.765   2.697 -0.9341  0.3607 -0.0894
 3642SOL    HW111642   3.219   6.695   2.675 -2.4943 -1.0146 -0.1643
 3642SOL    HW211643   3.202   6.845   2.669  0.9755 -0.5524  0.1987
 3643SOL     OW11644   1.374   4.458   0.978  0.4603 -0.1048 -0.4157
 3643SOL    HW111645   1.366   4.423   0.889 -0.8549  0.7171 -0.6274
 3643SOL    HW211646   1.396   4.382   1.031 -1.0502 -1.0320 -1.0890
 3644SOL     OW11647   1.201   2.217   2.689 -0.3346 -0.1313 -0.3209
 3644SOL    HW111648   1.200   2.245   2.597 -1.0895 -0.4224 -0.4035
 3644SOL    HW211649   1.208   2.298   2.739 -2.5036  0.2306 -0.5561
 3645SOL     OW11650   5.648   1.134   1.555 -0.0348 -0.0856 -0.0023
 3645SOL    HW111651   5.595   1.085   1.618 -0.4247  0.0081 -0.2558
 3645SOL    HW211652   5.737   1.100   1.567 -0.3192 -0.9198 -0.2385
 3646SOL     OW11653   0.395   5.012   1.387 -0.4021 -0.4285 -0.4592
 3646SOL    HW111654   0.314   4.961   1.394  0.3593 -1.4994  0.6496
 3646SOL    HW211655   0.462   4.948   1.366  0.5337  0.1388  0.7779
 3647SOL     OW11656   0.191   0.520   6.613 -0.3105  0.6514 -0.0792
 3647SOL    HW111657   0.151   0.594   6.567 -1.4368 -0.6560 -1.2399
 3647SOL    HW211658   0.119   0.480   6.662  0.1887  0.0890  0.2024
 3648SOL     OW11659   1.173   5.297   1.696 -0.6658 -0.1723  0.2004
 3648SOL    HW111660   1.159   5.284   1.603  0.5500 -0.1006 -0.0034
 3648SOL    HW211661   1.268   5.301   1.706 -0.7583 -0.7828  1.5184
 3649SOL     OW11662   5.130   4.080   2.591  0.2788  0.0977 -0.0810
 3649SOL    HW111663   5.119   3.995   2.635 -1.6451  0.8392  0.9208
 3649SOL    HW211664   5.225   4.094   2.590  0.4859 -1.0067  1.8284
 3650SOL     OW11665   1.321   4.342   4.851  0.1175 -0.4328  0.3007
 3650SOL    HW111666   1.229   4.318   4.849  0.1885 -0.6907 -2.3754
 3650SOL    HW211667   1.322   4.437   4.846 -0.0174 -0.4820 -0.8713
 3651SOL     OW11668   5.948   0.443   3.151 -0.6710 -0.4254  0.4004
 3651SOL    HW111669   5.903   0.492   3.220  1.0127  1.2105  0.3986
 3651SOL    HW211670   6.036   0.429   3.187 -0.0923 -0.4305 -1.0033
 3652SOL     OW11671   6.080   1.371   0.766 -0.1598 -0.2484 -0.1450
 3652SOL    HW111672   6.026   1.355   0.688 -0.3125 -0.0219 -0.0886
 3652SOL    HW211673   6.123   1.455   0.747 -0.6629  0.1075  0.2693
 3653SOL     OW11674   6.534   3.915   5.094 -0.2718 -0.4182  0.5212
 3653SOL    HW111675   6.454   3.893   5.141 -0.9271 -0.8980 -0.7871
 3653SOL    HW211676   6.509   3.912   5.001  1.0244  0.3455  0.1334
 3654SOL     OW11677   2.948   3.872   6.359  0.2131 -0.3333 -0.1134
 3654SOL    HW111678   3.022   3.816   6.384  0.1113 -0.0300  0.9027
 3654SOL    HW211679   2.934   3.853   6.266  1.0964 -0.9346 -0.1330
 3655SOL     OW11680   4.010   6.741   3.904 -0.0004  0.0788 -0.1109
 3655SOL    HW111681   4.035   6.676   3.838 -1.1263  2.0510 -2.5706
 3655SOL    HW211682   4.092   6.771   3.942  0.7885  0.1058 -1.8135
 3656SOL     OW11683   0.826   3.773   3.175 -0.2015  0.0420 -0.2913
 3656SOL    HW111684   0.740   3.731   3.166 -0.6508  1.0594 -0.9413
 3656SOL    HW211685   0.806   3.867   3.178  0.9005  0.2964 -0.6188
 3657SOL     OW11686   2.479   1.180   2.520 -0.4837 -0.0449 -0.3014
 3657SOL    HW111687   2.390   1.194   2.488 -1.0473 -1.6995  0.5028
 3657SOL    HW211688   2.471   1.109   2.583  1.3609  0.0232  0.0329
 3658SOL     OW11689   5.150   1.518   3.169  0.2554 -0.3595 -0.3394
 3658SOL    HW111690   5.219   1.469   3.213  0.8890  0.9486  0.1340
 3658SOL    HW211691   5.072   1.462   3.178  1.0573 -1.4704 -0.1833
 3659SOL     OW11692   4.835   1.668   6.376  0.2208 -0.2583 -0.5032
 3659SOL    HW111693   4.770   1.608   6.340  0.0038 -0.4803  0.2407
 3659SOL    HW211694   4.787   1.721   6.439  0.7020 -0.2582 -0.1305
 3660SOL     OW11695   3.881   4.475   0.010  0.1536  0.2190  0.3529
 3660SOL    HW111696   3.958   4.531   0.007  0.1023  0.2308 -0.7983
 3660SOL    HW211697   3.878   4.432  -0.075 -0.2071 -1.0048  0.9549
 3661SOL     OW11698   0.002   6.470   2.970  0.2038 -0.2584  0.3403
 3661SOL    HW111699   0.093   6.442   2.976 -0.0369 -0.8278  1.5460
 3661SOL    HW211700  -0.012   6.487   2.877  1.2965 -0.9848  0.0294
 3662SOL     OW11701   2.886   5.720   5.472  0.0154 -0.4231  0.2886
 3662SOL    HW111702   2.905   5.700   5.563 -1.8582  3.0699  1.5488
 3662SOL    HW211703   2.971   5.712   5.428  0.9340 -2.2260  2.2692
 3663SOL     OW11704   1.695   2.086   2.078  0.5067 -0.1203 -0.2186
 3663SOL    HW111705   1.721   2.002   2.116  0.5116 -0.0232 -0.0103
 3663SOL    HW211706   1.682   2.067   1.985 -1.1261 -0.7294  0.1244
 3664SOL     OW11707   2.541   5.886   2.337  0.1988 -0.1894  0.1117
 3664SOL    HW111708   2.563   5.814   2.396 -2.9085 -1.6805 -0.4632
 3664SOL    HW211709   2.507   5.843   2.259 -2.5128  1.8971  0.0877
 3665SOL     OW11710   6.548   4.264   5.057 -0.0774 -0.0467 -0.2399
 3665SOL    HW111711   6.472   4.249   5.112 -0.2738 -0.7276 -0.6922
 3665SOL    HW211712   6.538   4.202   4.984  2.1537 -1.8855  0.9572
 3666SOL     OW11713   1.700   0.732   5.433 -0.5120  0.0194 -0.1509
 3666SOL    HW111714   1.678   0.654   5.383  0.7534 -0.0905 -0.5476
 3666SOL    HW211715   1.732   0.699   5.517 -0.3325  0.1123 -0.1807
 3667SOL     OW11716   3.136   1.046   1.221 -0.4332  0.3252 -0.1752
 3667SOL    HW111717   3.183   1.022   1.140  1.8896 -0.6746  1.4155
 3667SOL    HW211718   3.152   1.140   1.230 -0.4644  0.3888 -0.7379
 3668SOL     OW11719   1.823   0.958   4.860 -0.2882  0.5699 -0.0133
 3668SOL    HW111720   1.811   0.889   4.795  0.5985 -0.5698  1.0140
 3668SOL    HW211721   1.762   0.936   4.930  1.4615 -0.3728  1.2650
 3669SOL     OW11722   5.333   3.481   5.023  0.0795 -0.4126  0.4554
 3669SOL    HW111723   5.310   3.394   5.056  0.5528  0.4842  3.2954
 3669SOL    HW211724   5.250   3.519   4.996 -0.1397 -1.7184 -0.7516
 3670SOL     OW11725   1.319   1.803   3.909  0.5740  0.2371 -0.3586
 3670SOL    HW111726   1.325   1.834   3.999  0.7542  1.3802 -0.7489
 3670SOL    HW211727   1.326   1.708   3.915  1.9512  0.4002  0.7018
 3671SOL     OW11728   6.481   1.454   5.936 -0.3415 -0.4641  0.2932
 3671SOL    HW111729   6.396   1.476   5.973  0.0867  1.0611  0.3940
 3671SOL    HW211730   6.544   1.476   6.005  0.1695 -1.1837  0.0663
 3672SOL     OW11731   0.396   1.423   2.010 -0.5330  0.4339  0.4289
 3672SOL    HW111732   0.408   1.428   1.915  0.3768  2.0648  0.6177
 3672SOL    HW211733   0.304   1.444   2.024 -0.0048  3.0987  0.1102
 3673SOL     OW11734   1.922   2.954   6.598 -0.4633  0.3088  0.7720
 3673SOL    HW111735   1.876   2.966   6.515 -0.9519 -1.4523  0.7661
 3673SOL    HW211736   2.002   3.006   6.588 -0.6516  0.3507 -0.7020
 3674SOL     OW11737   2.906   6.081   0.914 -0.5739 -0.0817  0.4696
 3674SOL    HW111738   2.947   6.050   0.994 -0.3596  0.5597  0.6093
 3674SOL    HW211739   2.956   6.039   0.843  0.3475  0.7323  0.6385
 3675SOL     OW11740   5.837   3.022   1.468  0.6410  0.1649 -0.5200
 3675SOL    HW111741   5.906   3.087   1.478  0.9269  0.1833 -2.4274
 3675SOL    HW211742   5.792   3.046   1.387 -1.8830  0.4009  0.9154
 3676SOL     OW11743   0.267   2.211   3.909  0.1690 -0.1020 -0.2400
 3676SOL    HW111744   0.335   2.275   3.889 -0.8322  0.3466 -2.4170
 3676SOL    HW211745   0.260   2.158   3.829 -1.0819 -0.9914  0.4403
 3677SOL     OW11746   3.629   5.992   6.620  0.0343  0.3028  0.2202
 3677SOL    HW111747   3.623   5.983   6.525 -1.1198 -0.2683  0.3352
 3677SOL    HW211748   3.723   6.000   6.637  0.2766  0.0762 -0.9341
 3678SOL     OW11749   0.554   5.356   2.555 -0.4961 -0.0654  0.1381
 3678SOL    HW111750   0.545   5.451   2.555  0.2416  0.0057  0.4487
 3678SOL    HW211751   0.569   5.332   2.646 -0.3092 -0.4400  0.0133
 3679SOL     OW11752   5.759   4.258   6.397  0.2409 -0.7724  0.0287
 3679SOL    HW111753   5.699   4.308   6.342  0.7239 -0.0094  0.1983
 3679SOL    HW211754   5.721   4.170   6.399 -0.3122 -0.5546 -0.7116
 3680SOL     OW11755   5.976   6.482   1.904 -0.1316 -0.3799 -0.2405
 3680SOL    HW111756   6.001   6.568   1.937  0.0322 -0.8277  0.8406
 3680SOL    HW211757   5.896   6.497   1.855 -0.4887  0.2835  0.5418
 3681SOL     OW11758   3.274   5.880   6.404 -0.2720 -1.0414  0.4069
 3681SOL    HW111759   3.250   5.790   6.424 -1.5558 -0.2693  2.4731
 3681SOL    HW211760   3.315   5.912   6.484  1.4348 -0.1943 -0.7796
 3682SOL     OW11761   1.834   5.902   3.837  0.1812 -0.2283  0.3330
 3682SOL    HW111762   1.774   5.975   3.855  0.4281  0.1615 -0.3753
 3682SOL    HW211763   1.801   5.864   3.756 -0.0322 -0.9971  0.7840
 3683SOL     OW11764   6.275   3.684   0.560 -0.4158  0.8017 -0.1273
 3683SOL    HW111765   6.346   3.717   0.504  0.5221 -1.0931 -0.0802
 3683SOL    HW211766   6.313   3.683   0.648  0.2092 -2.1653 -0.3999
 3684SOL     OW11767   2.441   1.451   4.813 -0.8757  0.3597  0.1973
 3684SOL    HW111768   2.362   1.426   4.764 -2.1073 -0.6221  2.5887
 3684SOL    HW211769   2.413   1.449   4.905  1.7578  0.6985  1.0298
 3685SOL     OW11770   1.033   6.403   0.742 -0.6429  0.3186  0.3120
 3685SOL    HW111771   1.097   6.335   0.762 -1.2360 -0.1918  0.5168
 3685SOL    HW211772   0.986   6.369   0.666  0.3876  1.4203 -0.8346
 3686SOL     OW11773   4.187   2.918   4.630  0.1925 -0.7275 -0.2746
 3686SOL    HW111774   4.153   2.984   4.691  0.5071  0.3713 -1.2687
 3686SOL    HW211775   4.110   2.867   4.604 -0.3658  0.3718 -0.8399
 3687SOL     OW11776   2.904   0.069   4.969  0.4388  0.8007 -0.0055
 3687SOL    HW111777   2.810   0.059   4.956  0.4727 -1.2829  1.1117
 3687SOL    HW211778   2.913   0.112   5.053  0.4784  1.5944 -0.4130
 3688SOL     OW11779   2.805   4.746   2.205  0.2496 -0.1995 -0.9014
 3688SOL    HW111780   2.781   4.774   2.294 -0.4610  0.0876 -1.1799
 3688SOL    HW211781   2.836   4.826   2.163  1.6277 -0.5482 -0.5764
 3689SOL     OW11782   2.695   6.406   4.336  0.4207 -0.5714 -0.4711
 3689SOL    HW111783   2.683   6.382   4.244  1.9815 -0.1275 -0.8012
 3689SOL    HW211784   2.739   6.490   4.333  1.2917 -0.9798  0.6849
 3690SOL     OW11785   2.218   0.028   5.414 -0.0103  0.2716 -0.5328
 3690SOL    HW111786   2.212  -0.061   5.379 -1.0761  1.3555 -3.1869
 3690SOL    HW211787   2.144   0.035   5.475  0.7980 -1.0349  0.6204
 3691SOL     OW11788   5.053   4.405   1.012 -0.0256 -0.4553 -0.2090
 3691SOL    HW111789   5.025   4.493   1.036  0.1147 -0.1492 -1.1538
 3691SOL    HW211790   4.981   4.348   1.038  0.2381 -0.1710  1.1873
 3692SOL     OW11791   0.021   3.067   6.325 -0.1092  0.3789 -0.0127
 3692SOL    HW111792   0.074   3.132   6.372  1.1523 -0.6911  0.0843
 3692SOL    HW211793   0.028   3.091   6.233 -0.6525  1.0941  0.1295
 3693SOL     OW11794   5.070   4.366   3.296 -0.1824  0.2329 -0.2295
 3693SOL    HW111795   5.111   4.312   3.228 -0.7012  0.9164 -1.0901
 3693SOL    HW211796   4.997   4.409   3.252 -0.1415  1.1791  0.6037
 3694SOL     OW11797   3.369   4.237   5.168  0.2431 -0.1988 -0.1935
 3694SOL    HW111798   3.306   4.265   5.102  0.3402 -0.5666 -0.4483
 3694SOL    HW211799   3.332   4.156   5.203 -0.1684  0.3812  0.7204
 3695SOL     OW11800   5.035   2.472   5.386  0.1340  0.2003  0.0833
 3695SOL    HW111801   5.064   2.435   5.303 -0.0722  0.3421 -0.0536
 3695SOL    HW211802   4.972   2.540   5.361 -0.9919 -0.7001  0.4015
 3696SOL     OW11803   4.670   0.110   2.632 -0.1030 -0.6633 -0.3552
 3696SOL    HW111804   4.581   0.107   2.666  0.1801 -1.0666  0.3707
 3696SOL    HW211805   4.678   0.031   2.579 -0.0622 -0.8259 -0.1107
 3697SOL     OW11806   2.849   0.338   6.390 -0.5191 -0.7909  0.0656
 3697SOL    HW111807   2.929   0.290   6.408 -0.1566 -0.2497 -0.0980
 3697SOL    HW211808   2.877   0.429   6.378 -1.5145 -0.0805  2.8848
 3698SOL     OW11809   6.470   2.924   0.849  0.2734 -0.0267  0.1880
 3698SOL    HW111810   6.558   2.919   0.812 -0.0453 -2.1065 -0.3659
 3698SOL    HW211811   6.482   2.898   0.941  0.6226  2.3487  0.8557
 3699SOL     OW11812   1.414   3.893   1.259 -0.1069  0.1075 -0.2692
 3699SOL    HW111813   1.326   3.855   1.253  0.6971 -1.9624  0.4312
 3699SOL    HW211814   1.413   3.967   1.199 -2.4672  0.3864  0.0628
 3700SOL     OW11815   3.298   6.115   2.802 -0.2431 -0.6524  0.0375
 3700SOL    HW111816   3.224   6.175   2.812 -0.8034 -1.5271  1.3664
 3700SOL    HW211817   3.287   6.077   2.715 -1.6175 -1.0998  0.3916
 3701SOL     OW11818   4.838   5.929   0.321  0.2504 -0.2680  0.4215
 3701SOL    HW111819   4.911   5.937   0.260 -0.5339 -1.4670 -0.6848
 3701SOL    HW211820   4.853   5.999   0.385  1.5945  0.3891 -0.5856
 3702SOL     OW11821   0.127   3.276   6.477  0.3488  0.6204 -0.4478
 3702SOL    HW111822   0.120   3.337   6.550  0.4364  2.4688 -1.9520
 3702SOL    HW211823   0.218   3.244   6.480  0.0739 -0.0560  0.8148
 3703SOL     OW11824   3.669   3.151   4.715 -0.1202  0.1785  0.5868
 3703SOL    HW111825   3.695   3.068   4.676  0.1869  1.0746 -1.1642
 3703SOL    HW211826   3.645   3.206   4.640  1.3675  2.2420  1.5920
 3704SOL     OW11827   5.877   2.446   3.786 -0.4879 -0.1834 -0.5037
 3704SOL    HW111828   5.937   2.374   3.806 -0.0897  0.4854  0.7890
 3704SOL    HW211829   5.827   2.415   3.711 -0.1186 -1.6888 -0.1500
 3705SOL     OW11830   1.863   2.247   5.384 -0.6672 -0.3155 -0.2645
 3705SOL    HW111831   1.942   2.267   5.334  0.0102  0.9652  1.2836
 3705SOL    HW211832   1.881   2.278   5.473 -1.9392 -2.3101  0.7559
 3706SOL     OW11833   0.386   6.620   1.663 -0.0770  0.5033 -0.4003
 3706SOL    HW111834   0.397   6.641   1.755 -0.1616  2.6896 -0.8673
 3706SOL    HW211835   0.445   6.679   1.617 -0.1568 -0.4432 -1.7593
 3707SOL     OW11836   5.025   3.270   6.327 -0.0756  0.2265  0.1171
 3707SOL    HW111837   5.025   3.313   6.242  0.5051 -0.4677 -0.2413
 3707SOL    HW211838   4.954   3.311   6.376  1.4015  2.6609  0.3091
 3708SOL     OW11839   6.667   2.902   5.095 -0.0078 -0.1855 -0.4040
 3708SOL    HW111840   6.625   2.969   5.148  0.2095 -0.3281 -0.0502
 3708SOL    HW211841   6.603   2.881   5.027 -0.2185  0.1155 -0.3002
 3709SOL     OW11842   0.838   3.305   5.523 -0.3981 -0.0123  0.0110
 3709SOL    HW111843   0.917   3.255   5.542 -0.5403  0.6061  2.3894
 3709SOL    HW211844   0.794   3.255   5.454  1.1333 -1.3418 -0.0323
 3710SOL     OW11845   5.232   4.760   3.837 -0.0121 -0.4703  0.0880
 3710SOL    HW111846   5.163   4.762   3.771 -0.4499  0.8714  0.5554
 3710SOL    HW211847   5.230   4.671   3.872 -1.1877 -0.5724 -0.2332
 3711SOL     OW11848   4.719   0.698   0.001  0.4037 -0.1963 -0.5121
 3711SOL    HW111849   4.810   0.716  -0.022  1.0426 -2.2704  0.3253
 3711SOL    HW211850   4.721   0.612   0.043 -1.6594  0.6407  1.3966
 3712SOL     OW11851   6.230   0.876   1.503 -0.0591 -0.7585 -0.0437
 3712SOL    HW111852   6.245   0.789   1.541 -3.9477 -0.8378  1.6217
 3712SOL    HW211853   6.258   0.937   1.571 -0.9410 -0.8206  0.3949
 3713SOL     OW11854   2.767   1.612   1.695  0.0701  0.4475  0.1307
 3713SOL    HW111855   2.758   1.606   1.790 -0.3108  1.1005  0.1389
 3713SOL    HW211856   2.771   1.521   1.666 -2.1447  0.1736  0.5686
 3714SOL     OW11857   2.586   2.094   1.107 -0.3258  0.5940 -0.2603
 3714SOL    HW111858   2.554   2.004   1.111  0.2987  0.3713 -0.1284
 3714SOL    HW211859   2.514   2.147   1.142 -0.4256  0.0745  0.3456
 3715SOL     OW11860   3.366   5.381   3.326  0.3456 -0.4501 -0.5118
 3715SOL    HW111861   3.371   5.389   3.422  0.3844  0.6973 -0.6040
 3715SOL    HW211862   3.317   5.300   3.312  2.1000 -1.7184  0.4714
 3716SOL     OW11863   0.021   1.179   0.135  0.3163 -0.0177 -0.3957
 3716SOL    HW111864  -0.014   1.101   0.178 -0.5984  1.2386  1.1587
 3716SOL    HW211865   0.100   1.147   0.090  0.3284 -1.7059  0.7521
 3717SOL     OW11866   4.142   2.482   6.105 -1.0726  0.2919 -0.1160
 3717SOL    HW111867   4.151   2.490   6.200  1.2110  0.4424 -0.3252
 3717SOL    HW211868   4.193   2.405   6.082  1.0018  2.0387 -1.5848
 3718SOL     OW11869   0.471   1.814   5.232  0.3148  0.3097  0.3146
 3718SOL    HW111870   0.544   1.776   5.184  1.7300  1.7944  1.2359
 3718SOL    HW211871   0.459   1.901   5.193  0.1576  0.7301  1.2781
 3719SOL     OW11872   5.237   1.242   0.450 -0.2083 -0.5182  0.4233
 3719SOL    HW111873   5.272   1.167   0.499 -0.3150 -0.7062  0.2092
 3719SOL    HW211874   5.201   1.204   0.370 -1.3345 -0.3912  0.8563
 3720SOL     OW11875   4.445   2.360   2.948 -0.4173  0.6100 -0.0064
 3720SOL    HW111876   4.476   2.330   2.863 -0.5221 -0.8452  0.4438
 3720SOL    HW211877   4.508   2.324   3.011 -0.0609  2.0795  0.5130
 3721SOL     OW11878   4.604   1.572   3.688  0.0745  0.2788  0.0017
 3721SOL    HW111879   4.511   1.550   3.697  0.2669 -0.2417  0.7413
 3721SOL    HW211880   4.648   1.488   3.684  0.5194  0.5287 -0.3879
 3722SOL     OW11881   0.249   4.737   5.215 -0.2063 -0.0983  0.2185
 3722SOL    HW111882   0.186   4.809   5.216  0.0802  0.1484  0.9192
 3722SOL    HW211883   0.201   4.662   5.249  0.0413  0.2270  1.2793
 3723SOL     OW11884   4.020   3.366   2.804  0.0497 -0.2180 -0.2552
 3723SOL    HW111885   4.065   3.288   2.771  1.5509  0.0515  1.0519
 3723SOL    HW211886   3.986   3.409   2.726  2.2106 -0.3784 -1.3366
 3724SOL     OW11887   3.922   5.025   1.361  0.2136 -0.0659 -0.1329
 3724SOL    HW111888   3.892   4.961   1.425 -1.3049  2.3778  1.6963
 3724SOL    HW211889   4.012   4.999   1.342 -0.0937 -2.2314  1.1582
 3725SOL     OW11890   0.651   4.994   6.481 -0.3550 -0.2584  0.0174
 3725SOL    HW111891   0.712   5.019   6.412 -0.6696 -0.5383 -0.3723
 3725SOL    HW211892   0.607   5.075   6.505 -2.0175 -0.5431 -1.8764
 3726SOL     OW11893   4.150   1.580   1.228 -0.0027  0.2639  0.0614
 3726SOL    HW111894   4.118   1.664   1.260 -1.3118 -0.2327  0.0795
 3726SOL    HW211895   4.106   1.568   1.143 -0.9081 -1.0309  0.6871
 3727SOL     OW11896   4.258   5.114   6.519 -0.5970 -0.0026 -0.4631
 3727SOL    HW111897   4.239   5.173   6.445  2.0691  0.9446 -0.4728
 3727SOL    HW211898   4.272   5.029   6.478 -1.4157  0.0279 -0.8069
 3728SOL     OW11899   0.684   0.718   1.200 -0.3646 -0.9931 -0.5001
 3728SOL    HW111900   0.626   0.767   1.258 -0.7313 -1.6172 -0.3401
 3728SOL    HW211901   0.721   0.649   1.255 -1.3181 -2.0704 -1.1915
 3729SOL     OW11902   2.719   0.325   0.114 -0.3037  0.0738  0.6603
 3729SOL    HW111903   2.784   0.357   0.177  0.6540 -2.2166  0.9155
 3729SOL    HW211904   2.771   0.275   0.051 -1.5699  0.1337 -0.4480
 3730SOL     OW11905   0.248   1.356   4.256 -0.2457 -0.0943 -0.3256
 3730SOL    HW111906   0.284   1.313   4.178 -0.9033 -2.1206  0.4385
 3730SOL    HW211907   0.285   1.307   4.329 -1.2788  0.4617  0.5794
 3731SOL     OW11908   3.420   4.463   0.962  0.6062  0.0250 -0.4228
 3731SOL    HW111909   3.495   4.448   0.904 -0.3597  0.8463 -1.9136
 3731SOL    HW211910   3.450   4.432   1.048  1.7825 -2.0153 -1.5108
 3732SOL     OW11911   4.871   6.021   4.669  0.0100  0.2292  0.1912
 3732SOL    HW111912   4.828   6.050   4.588 -1.0831 -2.5430 -0.2862
 3732SOL    HW211913   4.964   6.016   4.647 -0.0967  0.9372 -0.4444
 3733SOL     OW11914   4.201   4.262   0.689  0.0595  0.4963 -0.7117
 3733SOL    HW111915   4.281   4.280   0.738  0.8518  1.0533 -2.1920
 3733SOL    HW211916   4.189   4.167   0.697  0.4066  0.5209  0.1860
 3734SOL     OW11917   3.070   5.234   6.687  0.1817 -0.6084 -0.2094
 3734SOL    HW111918   3.147   5.182   6.711  1.2382  0.6021 -0.8646
 3734SOL    HW211919   3.020   5.177   6.628 -0.2917 -2.0198  1.5177
 3735SOL     OW11920   5.047   6.589   2.082 -0.0042  0.1687  0.5675
 3735SOL    HW111921   5.020   6.681   2.082  3.1640  1.1520 -0.9507
 3735SOL    HW211922   4.967   6.542   2.104 -2.0780  3.1710 -0.1070
 3736SOL     OW11923   5.550   3.838   6.280  0.1143 -0.2862  0.1112
 3736SOL    HW111924   5.584   3.749   6.274  0.1884 -0.1518 -1.8782
 3736SOL    HW211925   5.627   3.894   6.269 -0.4698  0.0151 -2.8801
 3737SOL     OW11926   4.593   6.610   6.422  0.3298  0.4603  0.3161
 3737SOL    HW111927   4.680   6.596   6.460  0.3043  0.2990  0.3141
 3737SOL    HW211928   4.598   6.571   6.335  0.1046  0.0162  0.5017
 3738SOL     OW11929   4.837   1.635   2.431 -0.6743 -0.1759 -0.0823
 3738SOL    HW111930   4.864   1.554   2.389  1.4180 -0.9518  2.5697
 3738SOL    HW211931   4.750   1.617   2.466 -0.6643 -0.9117 -0.4391
 3739SOL     OW11932   2.165   4.145   0.461 -0.1688 -0.0918  0.4968
 3739SOL    HW111933   2.100   4.212   0.480 -0.3098 -0.2972  0.7416
 3739SOL    HW211934   2.117   4.076   0.417  0.2767  0.6620 -1.2010
 3740SOL     OW11935   0.724   2.592   5.198  0.0840 -0.3116  0.6632
 3740SOL    HW111936   0.799   2.541   5.167 -0.3488 -0.9200  0.6270
 3740SOL    HW211937   0.681   2.536   5.262 -2.4567 -1.4790 -1.9396
 3741SOL     OW11938   4.247   2.580   6.379 -0.0050  0.4600  0.4434
 3741SOL    HW111939   4.296   2.498   6.380 -0.5201  0.1621  1.5258
 3741SOL    HW211940   4.312   2.647   6.402 -0.2618 -0.0285  2.6371
 3742SOL     OW11941   4.977   5.135   1.578  0.2419 -0.1598  0.1469
 3742SOL    HW111942   5.042   5.183   1.527  0.9055 -0.9515  0.2400
 3742SOL    HW211943   5.028   5.076   1.633 -0.5256 -0.2154  0.8013
 3743SOL     OW11944   0.586   2.034   1.028 -0.6151 -0.2139  0.0850
 3743SOL    HW111945   0.593   2.129   1.022  0.4161 -0.4311 -3.2874
 3743SOL    HW211946   0.500   2.018   1.067 -0.8786  2.0864  0.4915
 3744SOL     OW11947   3.958   3.232   0.933 -0.3431  0.3004  0.2843
 3744SOL    HW111948   3.910   3.187   1.002 -1.5777  0.9118 -0.1550
 3744SOL    HW211949   3.894   3.245   0.863  1.0959 -1.0191 -1.3150
 3745SOL     OW11950   6.242   0.629   3.142  0.1104 -0.2349 -0.3490
 3745SOL    HW111951   6.258   0.720   3.168  0.1566 -0.1864 -0.5479
 3745SOL    HW211952   6.319   0.604   3.092  0.2219 -0.4739 -0.0651
 3746SOL     OW11953   3.864   5.718   3.540 -0.1086 -0.1977  0.0933
 3746SOL    HW111954   3.867   5.756   3.628  1.8974 -0.5947  0.2243
 3746SOL    HW211955   3.832   5.788   3.484 -0.6482  0.3012  1.0160
 3747SOL     OW11956   4.957   3.674   5.319 -0.3363  0.4354  0.4528
 3747SOL    HW111957   4.879   3.699   5.270  0.6687 -0.4254 -1.6284
 3747SOL    HW211958   4.993   3.756   5.351 -1.1906  0.9617  0.0817
 3748SOL     OW11959   5.623   2.611   1.632 -0.2573 -0.2083  0.5540
 3748SOL    HW111960   5.685   2.617   1.560  0.7423 -1.7685  1.2544
 3748SOL    HW211961   5.587   2.522   1.626 -0.9176 -0.0086  1.3606
 3749SOL     OW11962   6.234   5.715   5.041 -0.1152  0.8553  0.2062
 3749SOL    HW111963   6.258   5.639   5.094 -0.1014  0.6574 -0.0825
 3749SOL    HW211964   6.251   5.688   4.951 -0.2949  1.1322  0.0875
 3750SOL     OW11965   0.054   4.684   6.668  0.0715 -0.2326  0.3331
 3750SOL    HW111966   0.013   4.642   6.593 -0.1829 -0.1976  0.4541
 3750SOL    HW211967   0.027   4.631   6.743  1.8156 -1.3664  0.1923
 3751SOL     OW11968   6.510   0.098   5.016  0.2001 -0.2168 -0.2909
 3751SOL    HW111969   6.492   0.112   5.109  2.1294 -1.0001  0.2196
 3751SOL    HW211970   6.589   0.148   4.999  1.2608 -2.0799 -0.9010
 3752SOL     OW11971   4.244   4.516   5.806  0.0951  0.0377 -0.2605
 3752SOL    HW111972   4.267   4.605   5.833  1.8478 -0.4061 -0.2345
 3752SOL    HW211973   4.154   4.523   5.774  0.2703  1.8424 -0.3936
 3753SOL     OW11974   6.309   5.697   2.508 -0.4168 -0.3886  0.2258
 3753SOL    HW111975   6.384   5.756   2.512  0.0015 -0.8208 -0.8876
 3753SOL    HW211976   6.233   5.754   2.495 -0.0007 -0.0917 -0.9876
 3754SOL     OW11977   1.973   1.696   3.674 -0.0038 -0.4668  0.3427
 3754SOL    HW111978   1.907   1.658   3.733  1.5180  0.2273  2.5705
 3754SOL    HW211979   1.959   1.790   3.680  2.2424 -0.2031  2.1955
 3755SOL     OW11980   1.454   3.150   6.241  0.1889  0.1562  0.1847
 3755SOL    HW111981   1.448   3.207   6.164  0.9890 -0.6410 -0.4790
 3755SOL    HW211982   1.364   3.142   6.272 -0.0201  1.1953 -0.1383
 3756SOL     OW11983   4.188   3.987   0.739  0.3140 -0.1051  0.4699
 3756SOL    HW111984   4.220   3.958   0.824 -1.1721 -0.1832  1.0181
 3756SOL    HW211985   4.113   3.930   0.720  0.1426  0.4278 -0.5212
 3757SOL     OW11986   1.143   3.778   6.267  0.1613 -0.1793 -0.1462
 3757SOL    HW111987   1.178   3.800   6.181  1.6650 -1.9037 -0.0256
 3757SOL    HW211988   1.051   3.756   6.251  0.5085 -0.8018 -1.3911
 3758SOL     OW11989   0.066   1.886   0.995  0.2029 -0.2534  0.2955
 3758SOL    HW111990  -0.018   1.920   1.025  0.2478  1.2007 -1.1781
 3758SOL    HW211991   0.045   1.831   0.920  0.6287  0.7148 -0.5407
 3759SOL     OW11992   1.619   1.493   2.078 -0.0394 -0.5516  0.4338
 3759SOL    HW111993   1.553   1.426   2.099 -0.8536  0.3429  0.7390
 3759SOL    HW211994   1.591   1.570   2.127  1.0971 -0.0900  0.3525
 3760SOL     OW11995   5.261   4.158   5.167  0.3822 -0.2539 -0.3415
 3760SOL    HW111996   5.319   4.114   5.105 -0.0380  1.1802 -1.7775
 3760SOL    HW211997   5.176   4.159   5.123  0.5434  2.6198 -0.6597
 3761SOL     OW11998   1.403   6.665   3.938 -0.3536 -0.5942  0.2758
 3761SOL    HW111999   1.416   6.721   3.861  0.9549 -0.1885  0.7869
 3761SOL    HW212000   1.308   6.659   3.947 -0.5175  0.8712 -0.2933
 3762SOL     OW12001   4.686   4.746   3.265 -0.6006 -0.2882 -0.3160
 3762SOL    HW112002   4.745   4.711   3.198  0.5102  0.2837  0.3428
 3762SOL    HW212003   4.676   4.838   3.242 -1.7328 -0.5109 -0.7627
 3763SOL     OW12004   5.513   5.113   4.959 -0.1766  0.3679  0.2395
 3763SOL    HW112005   5.562   5.194   4.971  1.4422 -0.6982  1.0225
 3763SOL    HW212006   5.470   5.123   4.874  0.8660  1.6144 -0.1542
 3764SOL     OW12007   1.795   5.222   5.055  0.2709 -1.0434  0.3108
 3764SOL    HW112008   1.757   5.202   4.969 -1.4912 -1.7111  1.2252
 3764SOL    HW212009   1.816   5.316   5.050 -1.2307 -0.7234 -0.3387
 3765SOL     OW12010   4.559   3.764   2.302 -0.4037  0.8274  0.2617
 3765SOL    HW112011   4.541   3.699   2.369 -0.7905 -0.0356 -0.6536
 3765SOL    HW212012   4.474   3.804   2.283 -0.5969 -0.0832 -0.8598
 3766SOL     OW12013   5.544   0.473   0.824 -0.9099  0.1323 -0.2028
 3766SOL    HW112014   5.567   0.427   0.905  0.5334 -0.0997 -0.7448
 3766SOL    HW212015   5.497   0.408   0.772 -0.7965 -0.0665 -0.0581
 3767SOL     OW12016   4.949   2.829   4.325 -0.1425 -0.4250  0.2019
 3767SOL    HW112017   4.866   2.874   4.306 -0.7998 -1.6215  0.1618
 3767SOL    HW212018   5.000   2.893   4.373 -0.9602  0.4591 -0.0790
 3768SOL     OW12019   6.105   4.199   0.734  0.4516  0.2586  0.4240
 3768SOL    HW112020   6.035   4.265   0.730 -0.5175 -0.7769  0.1513
 3768SOL    HW212021   6.185   4.250   0.739 -0.3560  1.4716  1.3278
 3769SOL     OW12022   5.464   2.740   6.229  0.3941 -0.0404  0.1197
 3769SOL    HW112023   5.459   2.684   6.151  1.2067  0.7309 -0.4956
 3769SOL    HW212024   5.486   2.680   6.300 -1.3713 -0.9211 -0.0315
 3770SOL     OW12025   5.333   2.226   3.286 -0.6205  0.3064 -0.0972
 3770SOL    HW112026   5.269   2.296   3.272 -1.7919 -0.0914  2.8185
 3770SOL    HW212027   5.282   2.145   3.277  0.1189 -0.0990 -0.6668
 3771SOL     OW12028   5.620   3.754   0.931  0.3968  0.1490  0.7403
 3771SOL    HW112029   5.693   3.720   0.879 -0.8441 -0.0945 -0.8739
 3771SOL    HW212030   5.606   3.686   0.997  1.0740 -0.2043  0.5357
 3772SOL     OW12031   2.855   2.561   6.284  0.1422  0.0016  0.6276
 3772SOL    HW112032   2.867   2.586   6.376 -0.9353 -0.0992  0.7917
 3772SOL    HW212033   2.804   2.480   6.287 -1.3450  0.9062 -0.1167
 3773SOL     OW12034   6.432   3.817   2.592  0.4073  0.5713 -0.6214
 3773SOL    HW112035   6.504   3.756   2.579 -0.8803 -1.1841  0.1801
 3773SOL    HW212036   6.361   3.782   2.538 -0.6395  0.8349  0.5565
 3774SOL     OW12037   0.722   6.452   5.508 -0.6699  0.4878  0.4524
 3774SOL    HW112038   0.760   6.532   5.545 -1.0868  0.2598  1.3941
 3774SOL    HW212039   0.745   6.456   5.415  2.0735  0.1184  1.0515
 3775SOL     OW12040   0.290   3.973   0.075  0.5180 -0.0191  0.7538
 3775SOL    HW112041   0.229   4.045   0.092 -0.4337 -0.8078  0.7225
 3775SOL    HW212042   0.314   3.984  -0.017  1.6490  1.2120  1.1872
 3776SOL     OW12043   3.603   2.818   2.948 -0.1650  0.6931  0.4798
 3776SOL    HW112044   3.546   2.818   3.025  0.4362 -1.2500  0.9735
 3776SOL    HW212045   3.627   2.909   2.936 -0.6135  1.0929  2.3520
 3777SOL     OW12046   1.704   4.157   5.663 -0.3551 -0.1296  0.2827
 3777SOL    HW112047   1.687   4.249   5.685  1.3200  0.4137 -0.6919
 3777SOL    HW212048   1.628   4.131   5.611  0.2794  1.3840 -1.4182
 3778SOL     OW12049   1.399   5.225   5.677  0.0192  0.4014 -0.0106
 3778SOL    HW112050   1.421   5.310   5.716 -0.4153 -0.2080  1.6244
 3778SOL    HW212051   1.452   5.162   5.725 -0.7895 -0.4188 -0.1710
 3779SOL     OW12052   1.735   5.440   6.617 -0.3846 -0.3105  1.4250
 3779SOL    HW112053   1.743   5.345   6.610  3.9040 -0.1966  3.4368
 3779SOL    HW212054   1.814   5.474   6.576 -0.9000  2.3261  2.5150
 3780SOL     OW12055   1.672   2.865   4.885 -1.2935 -0.0268 -0.3689
 3780SOL    HW112056   1.720   2.929   4.833 -0.0461 -1.5541 -1.1360
 3780SOL    HW212057   1.647   2.797   4.823  0.9885 -2.3221  1.1049
 3781SOL     OW12058   4.345   3.863   2.206 -0.4270 -0.2095  0.1601
 3781SOL    HW112059   4.278   3.925   2.177 -1.0303 -0.6545  0.5916
 3781SOL    HW212060   4.388   3.834   2.126 -1.9814 -1.3353 -0.2914
 3782SOL     OW12061   6.241   0.156   3.028 -0.5277 -0.8179 -0.5801
 3782SOL    HW112062   6.307   0.203   3.079  0.4326 -2.1265 -0.5938
 3782SOL    HW212063   6.172   0.221   3.012  0.7302  0.5450 -0.5294
 3783SOL     OW12064   4.831   5.451   5.322  0.3170  0.1008  0.1585
 3783SOL    HW112065   4.823   5.546   5.319 -2.4844 -0.0193  1.5781
 3783SOL    HW212066   4.764   5.419   5.262 -0.0564 -0.9600  1.1097
 3784SOL     OW12067   2.138   4.276   5.605  0.5541  0.5420  0.0535
 3784SOL    HW112068   2.079   4.304   5.535  1.9002 -0.7842 -1.6794
 3784SOL    HW212069   2.133   4.180   5.604  0.7204  0.4936  1.6859
 3785SOL     OW12070   6.445   5.716   5.561 -0.1224  0.0321 -0.2957
 3785SOL    HW112071   6.444   5.746   5.651  1.4962  3.8246 -1.4262
 3785SOL    HW212072   6.353   5.702   5.539 -0.6422  0.5394  1.5017
 3786SOL     OW12073   1.045   5.624   1.483  0.6056  0.3886  0.1613
 3786SOL    HW112074   1.056   5.632   1.578  0.7327  1.1928  0.0802
 3786SOL    HW212075   0.951   5.627   1.469  0.6740  3.0803  0.0298
 3787SOL     OW12076   4.643   3.724   4.237  0.8155  0.1035 -0.0901
 3787SOL    HW112077   4.672   3.814   4.254  0.6481  0.3492 -1.1191
 3787SOL    HW212078   4.597   3.728   4.154  2.3072 -1.2402 -1.0229
 3788SOL     OW12079   5.519   4.847   5.007 -0.2803 -0.3054 -0.3841
 3788SOL    HW112080   5.523   4.941   4.989  0.4577 -0.4209 -0.8720
 3788SOL    HW212081   5.594   4.811   4.959  0.5338 -0.9024  1.2824
 3789SOL     OW12082   0.890   0.938   2.399 -0.2092 -0.2280  0.3916
 3789SOL    HW112083   0.934   0.966   2.319 -0.0198  0.1416  0.6279
 3789SOL    HW212084   0.829   1.008   2.420  0.7578  0.3420  1.3655
 3790SOL     OW12085   5.809   2.675   1.844  0.0251 -0.0583 -0.3662
 3790SOL    HW112086   5.740   2.721   1.796  1.3046  0.0452 -2.1554
 3790SOL    HW212087   5.816   2.590   1.800 -0.2356 -0.8003  1.0005
 3791SOL     OW12088   5.339   1.394   5.922  0.4449 -0.3892 -0.7291
 3791SOL    HW112089   5.368   1.320   5.870 -0.3918 -0.4762 -1.0718
 3791SOL    HW212090   5.253   1.417   5.886 -0.3995 -0.8094  0.9824
 3792SOL     OW12091   1.425   5.972   3.444  0.3722 -0.2550 -0.1337
 3792SOL    HW112092   1.360   5.967   3.373  0.9652  0.5664 -0.7320
 3792SOL    HW212093   1.431   5.882   3.476  1.2329 -0.9482 -2.1614
 3793SOL     OW12094   0.878   6.210   0.939  0.2883 -0.5132 -0.3378
 3793SOL    HW112095   0.847   6.247   0.857 -0.5802  2.0668  1.1250
 3793SOL    HW212096   0.973   6.204   0.928  0.3270  1.1766 -1.0035
 3794SOL     OW12097   0.135   4.976   5.290  0.2437 -0.1883 -0.0643
 3794SOL    HW112098   0.173   5.063   5.302  1.1210 -0.4422 -0.9050
 3794SOL    HW212099   0.145   4.933   5.374 -0.5385  0.6490  0.4679
 3795SOL     OW12100   6.396   0.573   0.484  0.5309  0.2274  0.1032
 3795SOL    HW112101   6.329   0.641   0.496  1.2758  1.1516 -0.9322
 3795SOL    HW212102   6.345   0.492   0.476 -0.4202  0.7872  0.3391
 3796SOL     OW12103   5.550   3.052   2.340  0.0392  0.1374 -0.3785
 3796SOL    HW112104   5.543   2.962   2.309  1.4746 -0.5470  1.1722
 3796SOL    HW212105   5.622   3.089   2.290  0.8684 -0.2671  0.4919
 3797SOL     OW12106   0.301   2.290   5.230  0.0416 -0.8929  0.4948
 3797SOL    HW112107   0.303   2.371   5.180  1.4185  0.8779  3.2472
 3797SOL    HW212108   0.208   2.268   5.238 -0.3616  0.6328  0.0563
 3798SOL     OW12109   4.862   2.857   2.823  0.2021 -0.3558  0.6233
 3798SOL    HW112110   4.939   2.895   2.780  1.3732 -1.6217  1.5506
 3798SOL    HW212111   4.838   2.783   2.769  0.5498 -0.8451  1.1320
 3799SOL     OW12112   3.800   1.833   1.571  0.1305  0.1301  0.3124
 3799SOL    HW112113   3.758   1.771   1.512  0.9566  1.4717 -1.7353
 3799SOL    HW212114   3.866   1.782   1.617  1.3297 -0.3773 -1.9110
 3800SOL     OW12115   4.543   6.086   3.914 -0.1330  0.0926  0.2815
 3800SOL    HW112116   4.581   6.041   3.990  0.2486  2.2155  1.3684
 3800SOL    HW212117   4.468   6.133   3.949  0.7664  2.0860 -0.4014
 3801SOL     OW12118   2.159   0.137   0.082 -0.4197 -0.5552 -0.3501
 3801SOL    HW112119   2.086   0.113   0.025 -1.1913 -0.2964  0.5147
 3801SOL    HW212120   2.215   0.192   0.027 -1.0826 -0.4173 -0.8931
 3802SOL     OW12121   0.209   6.238   6.106  0.0719 -0.7832 -0.2771
 3802SOL    HW112122   0.203   6.232   6.010  0.0172 -0.5161 -0.2910
 3802SOL    HW212123   0.260   6.318   6.121 -0.3904 -0.5218 -0.0742
 3803SOL     OW12124   1.505   4.385   3.128  0.4004 -0.0122  0.0089
 3803SOL    HW112125   1.506   4.317   3.196 -0.6687 -0.8966 -0.8209
 3803SOL    HW212126   1.566   4.353   3.062 -0.7429 -0.6052 -0.7771
 3804SOL     OW12127   0.800   0.796   2.724 -0.0860  0.5432 -0.3433
 3804SOL    HW112128   0.709   0.779   2.748 -0.2648  1.5152 -0.3025
 3804SOL    HW212129   0.827   0.718   2.677 -0.6684 -0.1314  0.4102
 3805SOL     OW12130   4.153   1.258   5.727  0.7210 -0.1810 -0.1785
 3805SOL    HW112131   4.183   1.251   5.637 -3.2534 -1.7567 -1.4818
 3805SOL    HW212132   4.109   1.344   5.732 -1.2682 -1.1384 -0.5276
 3806SOL     OW12133   4.757   0.855   4.456  0.4159 -0.5562 -0.8951
 3806SOL    HW112134   4.805   0.778   4.487  0.5514  0.3247  1.1945
 3806SOL    HW212135   4.824   0.920   4.441  0.0253  0.3243  0.9664
 3807SOL     OW12136   3.433   3.022   2.553  0.0867  0.2084 -0.1402
 3807SOL    HW112137   3.437   3.079   2.630  0.4159  0.1879 -0.1396
 3807SOL    HW212138   3.405   3.080   2.482 -2.2425 -0.2131  0.4071
 3808SOL     OW12139   3.958   1.422   0.394  0.2594 -0.3522  0.4442
 3808SOL    HW112140   3.979   1.329   0.401  1.5481 -0.0565  0.8119
 3808SOL    HW212141   3.914   1.431   0.309  0.1715 -1.2889  0.3891
 3809SOL     OW12142   5.754   5.309   3.499  0.1186  0.2760  0.1538
 3809SOL    HW112143   5.680   5.271   3.452  0.8361  1.0894 -1.6408
 3809SOL    HW212144   5.714   5.367   3.564 -0.8500 -0.5876  0.3473
 3810SOL     OW12145   1.408   6.051   2.145 -0.1528  0.3755  0.5430
 3810SOL    HW112146   1.364   6.064   2.062 -2.5328  1.2971  1.9032
 3810SOL    HW212147   1.366   5.973   2.182 -0.0261  0.7293  1.4465
 3811SOL     OW12148   6.640   5.996   4.714 -0.4169 -0.1681 -0.2636
 3811SOL    HW112149   6.702   5.949   4.658  0.6430  3.9532 -2.7631
 3811SOL    HW212150   6.693   6.062   4.759 -1.9506 -0.8187  2.5974
 3812SOL     OW12151   2.046   3.118   1.944 -0.1063  0.3203  0.5554
 3812SOL    HW112152   2.039   3.165   2.027 -0.4467  0.4032  0.4771
 3812SOL    HW212153   1.972   3.058   1.943  0.0841  0.0834  0.4593
 3813SOL     OW12154   1.946   6.175   3.356 -0.4821  0.0705 -0.8413
 3813SOL    HW112155   1.894   6.217   3.424  0.1420  0.2872 -0.4923
 3813SOL    HW212156   2.022   6.139   3.403 -1.0756 -1.5703 -1.1087
 3814SOL     OW12157   6.248   3.036   2.795  0.3191  0.5426 -0.3697
 3814SOL    HW112158   6.259   2.971   2.726  0.2247  0.9583 -0.7791
 3814SOL    HW212159   6.252   2.986   2.876  2.9650  0.3595 -0.5618
 3815SOL     OW12160   4.383   5.680   0.901 -0.1288 -0.2056  0.6294
 3815SOL    HW112161   4.318   5.750   0.901 -0.4876 -0.5313 -1.0416
 3815SOL    HW212162   4.334   5.601   0.927 -0.6321 -0.6398 -1.5588
 3816SOL     OW12163   0.716   1.489   1.524 -0.3086  0.0895  0.5002
 3816SOL    HW112164   0.640   1.517   1.474 -1.6165 -1.6904  1.4070
 3816SOL    HW212165   0.700   1.521   1.613  0.7233  0.9872  0.3654
 3817SOL     OW12166   2.193   1.857   5.030 -0.0842 -0.0402 -0.3429
 3817SOL    HW112167   2.236   1.942   5.035 -1.8102  0.8336  0.2129
 3817SOL    HW212168   2.142   1.861   4.949  1.1022 -1.1865 -1.1632
 3818SOL     OW12169   4.071   4.947   6.721 -0.2557  0.7174 -0.1033
 3818SOL    HW112170   4.147   4.937   6.664 -1.4385  0.4063 -1.6669
 3818SOL    HW212171   4.013   5.006   6.673 -1.1091  0.7537  0.9604
 3819SOL     OW12172   6.332   1.035   1.691 -0.1163 -0.2628 -0.1826
 3819SOL    HW112173   6.255   1.065   1.740 -1.3409  0.2971 -2.4056
 3819SOL    HW212174   6.363   1.112   1.645  1.9491 -0.4313  0.8601
 3820SOL     OW12175   3.872   6.570   1.864  0.2578 -0.0565  0.1473
 3820SOL    HW112176   3.940   6.603   1.924  0.6855 -0.5831 -0.0462
 3820SOL    HW212177   3.802   6.635   1.870  0.2047 -0.2090  1.3904
 3821SOL     OW12178   2.574   5.871   0.551  0.1899 -0.1754  0.2307
 3821SOL    HW112179   2.635   5.822   0.606  0.9655  0.7988  0.2435
 3821SOL    HW212180   2.615   5.956   0.539 -1.0148  0.3802 -0.0412
 3822SOL     OW12181   2.729   0.549   5.216  0.6742 -0.0326  0.5709
 3822SOL    HW112182   2.740   0.481   5.283  0.2769  0.1833  0.8556
 3822SOL    HW212183   2.725   0.631   5.265 -0.4318  0.0534  0.3597
 3823SOL     OW12184   0.557   5.167   5.250  0.1128  0.3815 -0.3078
 3823SOL    HW112185   0.590   5.078   5.241  1.4806  0.7173  1.1937
 3823SOL    HW212186   0.462   5.158   5.246  0.2806 -0.9799 -1.4920
 3824SOL     OW12187   2.805   3.903   4.819 -0.1099 -0.8134  0.1880
 3824SOL    HW112188   2.839   3.862   4.739  0.6207 -0.9320  0.5525
 3824SOL    HW212189   2.858   3.982   4.829 -0.2587 -0.7531  0.5071
 3825SOL     OW12190   6.083   5.361   5.677  0.3848 -0.0790 -0.0966
 3825SOL    HW112191   6.168   5.321   5.692 -0.4771 -2.3561 -1.1465
 3825SOL    HW212192   6.038   5.355   5.762  1.1331  0.8854  0.3843
 3826SOL     OW12193   4.189   2.763   3.204  0.8548  0.4372  0.3389
 3826SOL    HW112194   4.142   2.829   3.153 -0.7865 -0.0594  1.1721
 3826SOL    HW212195   4.229   2.706   3.138 -1.7743 -0.5845 -0.4731
 3827SOL     OW12196   3.871   3.163   1.896 -0.4881  0.2908  0.3478
 3827SOL    HW112197   3.873   3.123   1.809 -0.5825  0.0216  0.4695
 3827SOL    HW212198   3.944   3.225   1.896 -0.7511  0.6061 -0.0768
 3828SOL     OW12199   1.629   4.525   6.384  0.0960 -0.0332 -0.0616
 3828SOL    HW112200   1.671   4.577   6.452 -1.0551  2.2721 -1.0525
 3828SOL    HW212201   1.579   4.458   6.432  0.9480  0.2631  1.2657
 3829SOL     OW12202   1.895   0.192   4.167  0.5854  0.4125 -0.2880
 3829SOL    HW112203   1.914   0.222   4.078  1.8621 -0.1284 -0.2036
 3829SOL    HW212204   1.806   0.223   4.184  0.8734  1.7971 -1.2003
 3830SOL     OW12205   6.218   2.710   4.284 -0.4189  0.5426 -0.1348
 3830SOL    HW112206   6.197   2.727   4.193 -1.7377  0.1255  0.0914
 3830SOL    HW212207   6.148   2.752   4.334  1.4305  2.7037  0.8011
 3831SOL     OW12208   4.128   0.450   4.986 -0.1937 -0.4244  0.2400
 3831SOL    HW112209   4.156   0.448   4.894  0.7399  0.3896  0.4953
 3831SOL    HW212210   4.050   0.395   4.989 -0.2251 -0.4556 -1.0434
 3832SOL     OW12211   4.097   5.197   3.815  0.1434 -0.3290  0.6250
 3832SOL    HW112212   4.145   5.278   3.828  0.4727 -0.5230  0.6321
 3832SOL    HW212213   4.158   5.128   3.842  1.1947 -0.8092 -2.7028
 3833SOL     OW12214   3.311   4.816   1.077  0.4182 -0.7218  0.1658
 3833SOL    HW112215   3.254   4.884   1.113  0.6161  0.2549 -1.2962
 3833SOL    HW212216   3.254   4.740   1.065 -0.8525  0.5428 -2.1934
 3834SOL     OW12217   1.719   0.359   2.897  0.4439 -0.3719  0.4821
 3834SOL    HW112218   1.799   0.366   2.846 -0.3027  0.7801 -0.5287
 3834SOL    HW212219   1.733   0.281   2.952  1.9723 -0.5609 -0.1540
 3835SOL     OW12220   0.764   3.414   4.446 -0.0030 -0.4429 -0.1525
 3835SOL    HW112221   0.686   3.373   4.410 -0.0440 -0.1494 -0.3970
 3835SOL    HW212222   0.834   3.349   4.435 -0.4980 -1.2291  1.2761
 3836SOL     OW12223   0.472   1.335   5.140 -0.1464 -0.0389  0.0973
 3836SOL    HW112224   0.409   1.287   5.192  0.0362 -1.6099 -1.0932
 3836SOL    HW212225   0.421   1.372   5.068 -0.0401  0.3768  0.2320
 3837SOL     OW12226   6.497   5.635   6.471  0.2757  0.5054 -0.1396
 3837SOL    HW112227   6.526   5.569   6.534  0.9436  1.1752  0.2691
 3837SOL    HW212228   6.557   5.626   6.397  0.4188  0.6901 -0.0498
 3838SOL     OW12229   2.489   3.229   4.069  0.0311 -0.3844 -0.3490
 3838SOL    HW112230   2.583   3.245   4.072 -0.0225  0.0742 -0.9670
 3838SOL    HW212231   2.452   3.310   4.035 -0.7212 -0.0666  1.1943
 3839SOL     OW12232   0.621   1.616   2.057  0.2684  0.1729 -0.4076
 3839SOL    HW112233   0.700   1.562   2.052  0.3201  0.1358  0.6693
 3839SOL    HW212234   0.549   1.553   2.055  0.2036  0.2871 -2.8487
 3840SOL     OW12235   5.655   5.348   0.693 -0.3611  0.6826  0.4147
 3840SOL    HW112236   5.604   5.273   0.662  0.3020  0.1557  0.6090
 3840SOL    HW212237   5.615   5.371   0.777  0.2910 -0.2939  0.9946
 3841SOL     OW12238   2.065   6.375   1.084 -0.1255  0.6055 -0.3095
 3841SOL    HW112239   2.025   6.430   1.017 -0.6012 -0.8388 -1.2439
 3841SOL    HW212240   2.148   6.418   1.104 -1.6774  3.1085  0.9608
 3842SOL     OW12241   6.168   1.620   1.361 -1.0307  0.2404  0.1723
 3842SOL    HW112242   6.116   1.543   1.381 -0.6434 -0.2041 -0.4817
 3842SOL    HW212243   6.189   1.610   1.268 -1.9520  1.7201 -0.2105
 3843SOL     OW12244   2.523   6.361   0.503  0.3188 -0.0585  0.9417
 3843SOL    HW112245   2.495   6.278   0.465  0.4223  0.4259 -0.1952
 3843SOL    HW212246   2.499   6.427   0.438  2.0779  0.5835  0.9228
 3844SOL     OW12247   3.126   1.052   0.142  0.2662  0.2829 -0.0424
 3844SOL    HW112248   3.076   1.012   0.214  0.3319 -0.3172 -0.3259
 3844SOL    HW212249   3.131   1.145   0.165  1.5892 -0.1503  1.4911
 3845SOL     OW12250   6.486   0.793   6.184 -0.4046  0.4260  0.1946
 3845SOL    HW112251   6.430   0.864   6.215 -0.0794  1.0215 -0.5565
 3845SOL    HW212252   6.561   0.794   6.243 -1.4333 -0.7377  1.5515
 3846SOL     OW12253   3.600   4.401   2.578 -0.3579 -0.4521 -0.0547
 3846SOL    HW112254   3.624   4.490   2.604 -2.6545  0.2642 -0.2845
 3846SOL    HW212255   3.523   4.412   2.521 -0.3354 -2.5446 -0.5477
 3847SOL     OW12256   1.989   4.389   4.835 -0.1933 -0.0890 -0.1110
 3847SOL    HW112257   1.964   4.423   4.749  0.7675  1.4121  0.1902
 3847SOL    HW212258   1.907   4.360   4.874 -0.8673  0.7765 -0.8643
 3848SOL     OW12259   2.700   1.571   0.694  0.5688  0.1546  0.4530
 3848SOL    HW112260   2.710   1.516   0.617 -0.2067 -2.7867  2.3608
 3848SOL    HW212261   2.620   1.621   0.677  0.1017 -0.8664 -0.4392
 3849SOL     OW12262   2.183   4.678   6.505  0.2097 -0.6690  0.0092
 3849SOL    HW112263   2.158   4.641   6.420  0.1285 -0.4623 -0.0556
 3849SOL    HW212264   2.151   4.614   6.568 -0.6711 -0.3073 -0.0598
 3850SOL     OW12265   1.526   6.640   3.583 -0.0661 -0.1264 -0.4695
 3850SOL    HW112266   1.477   6.711   3.624  2.0199  1.2282 -0.2559
 3850SOL    HW212267   1.472   6.562   3.598 -2.3947  1.3838 -0.7090
 3851SOL     OW12268   0.880   5.012   0.529  0.4506  0.1102  0.5127
 3851SOL    HW112269   0.938   5.083   0.499  0.9262 -0.1320  0.8511
 3851SOL    HW212270   0.793   5.037   0.496  0.4349  1.3330  1.4128
 3852SOL     OW12271   6.265   1.460   4.753  0.0571 -0.1014 -0.1856
 3852SOL    HW112272   6.340   1.519   4.759 -0.4367  0.3329  2.1272
 3852SOL    HW212273   6.195   1.514   4.718  0.2298  0.0605 -0.2831
 3853SOL     OW12274   1.929   4.514   5.966 -0.5401 -0.6434 -0.0673
 3853SOL    HW112275   1.937   4.595   5.915 -1.0185 -1.2455 -1.1219
 3853SOL    HW212276   1.841   4.516   6.002 -0.2905 -0.3414  0.5351
 3854SOL     OW12277   0.998   2.405   3.021  0.1368  0.1467  0.1716
 3854SOL    HW112278   1.025   2.322   2.982 -0.5540 -0.1343  0.2895
 3854SOL    HW212279   1.043   2.407   3.105 -2.4096 -1.6335  1.6136
 3855SOL     OW12280   6.341   1.705   1.675  0.1682 -0.2735  0.1065
 3855SOL    HW112281   6.307   1.758   1.747  0.4735 -0.1517  0.1639
 3855SOL    HW212282   6.434   1.730   1.669 -0.0398  0.2886 -0.8377
 3856SOL     OW12283   0.705   4.966   0.815 -0.3032 -0.6831  0.1025
 3856SOL    HW112284   0.683   5.050   0.774 -3.2346 -0.8560  1.1499
 3856SOL    HW212285   0.792   4.979   0.852  0.1963  1.1708 -1.6601
 3857SOL     OW12286   2.358   2.137   4.804 -0.4126 -0.6366 -0.4533
 3857SOL    HW112287   2.402   2.084   4.738  2.8849 -1.1339  1.9545
 3857SOL    HW212288   2.380   2.228   4.781  0.8255 -0.8160 -0.0434
 3858SOL     OW12289   5.129   1.789   1.312 -0.1378  0.4634  0.3526
 3858SOL    HW112290   5.143   1.865   1.256  3.0411 -0.9837 -0.9843
 3858SOL    HW212291   5.199   1.796   1.378 -0.1564 -0.9813  0.5360
 3859SOL     OW12292   4.345   6.270   6.680  0.2545 -0.2160  0.0439
 3859SOL    HW112293   4.365   6.335   6.612  2.4052 -0.6012  0.2534
 3859SOL    HW212294   4.364   6.186   6.639 -0.9527 -0.6280  0.3056
 3860SOL     OW12295   6.176   5.648   5.550  0.2345  0.2482  0.0121
 3860SOL    HW112296   6.158   5.557   5.573 -1.6410  0.6569  0.2129
 3860SOL    HW212297   6.110   5.670   5.485  0.9646  1.3284 -0.3717
 3861SOL     OW12298   1.502   3.902   2.381  0.1833 -0.6838 -0.4565
 3861SOL    HW112299   1.501   3.864   2.293 -0.1352  0.2521 -0.8622
 3861SOL    HW212300   1.519   3.996   2.367 -1.4729 -0.2471  0.3753
 3862SOL     OW12301   5.959   0.084   6.248 -0.1163 -0.2353 -0.2845
 3862SOL    HW112302   5.967   0.179   6.258 -0.6818 -0.2662  0.4843
 3862SOL    HW212303   5.867   0.070   6.228 -0.0272 -0.6224 -0.4339
 3863SOL     OW12304   5.416   2.313   5.286  0.4382  0.1383 -0.4269
 3863SOL    HW112305   5.467   2.301   5.366  0.0116  0.1116 -0.1544
 3863SOL    HW212306   5.406   2.408   5.278 -1.0542  0.0820  0.5428
 3864SOL     OW12307   6.314   0.850   3.734  0.2195  0.1785  0.0962
 3864SOL    HW112308   6.388   0.907   3.709 -0.1914  0.8752  0.4469
 3864SOL    HW212309   6.291   0.879   3.822  1.2219 -1.8126  1.0381
 3865SOL     OW12310   4.543   1.566   3.029 -0.0936 -0.0813 -0.4721
 3865SOL    HW112311   4.524   1.477   3.058 -0.8804 -0.2867 -1.5849
 3865SOL    HW212312   4.636   1.565   3.006 -0.2635 -0.8118 -1.1509
 3866SOL     OW12313   6.102   0.409   5.300  0.1822  0.6364 -0.0283
 3866SOL    HW112314   6.064   0.323   5.318  1.5689 -0.2405 -1.1513
 3866SOL    HW212315   6.075   0.464   5.373  2.3106 -1.7333  2.6301
 3867SOL     OW12316   2.639   4.045   5.640 -0.3087  0.0682 -0.0639
 3867SOL    HW112317   2.621   4.062   5.547 -1.0887  0.1740  0.1011
 3867SOL    HW212318   2.591   3.965   5.659  0.3399 -0.2829  0.0993
 3868SOL     OW12319   2.883   1.916   0.429 -0.1997 -0.3629 -0.1728
 3868SOL    HW112320   2.879   1.916   0.525  0.4763  0.5731 -0.1343
 3868SOL    HW212321   2.966   1.959   0.409  0.8058 -2.6983 -1.1437
 3869SOL     OW12322   4.875   3.001   1.184 -0.0483  0.3672 -0.2788
 3869SOL    HW112323   4.923   2.955   1.115 -0.0283  1.3943 -0.9619
 3869SOL    HW212324   4.801   2.944   1.205  1.4037 -1.2049  0.7224
 3870SOL     OW12325   5.231   1.512   2.123  0.7325  0.0322  0.2098
 3870SOL    HW112326   5.294   1.569   2.169  0.6766  0.4096 -0.1782
 3870SOL    HW212327   5.252   1.424   2.154  1.4766  0.1491  0.0610
 3871SOL     OW12328   1.923   0.807   0.084 -0.6972 -0.5066  0.1855
 3871SOL    HW112329   1.868   0.875   0.045 -1.2977 -0.3358  1.3201
 3871SOL    HW212330   1.899   0.806   0.176  1.7769  0.1584  0.8956
 3872SOL     OW12331   0.023   4.322   3.984  0.2298 -0.2115 -0.1744
 3872SOL    HW112332   0.029   4.242   3.931 -0.8891  0.0912 -0.7713
 3872SOL    HW212333   0.105   4.368   3.967 -0.0395 -0.1991 -1.5211
 3873SOL     OW12334   0.889   4.125   4.182  0.2171 -0.4219  0.5155
 3873SOL    HW112335   0.930   4.212   4.183 -0.7902  0.0482  1.8469
 3873SOL    HW212336   0.815   4.135   4.122  0.3436 -0.4792  0.3490
 3874SOL     OW12337   6.263   1.372   3.902  0.2235 -0.0188 -0.2340
 3874SOL    HW112338   6.308   1.407   3.979 -0.1009  0.6742 -0.3560
 3874SOL    HW212339   6.175   1.353   3.933  0.2520 -0.2459 -0.2963
 3875SOL     OW12340   2.392   4.332   1.923 -0.7536  0.1779  0.1228
 3875SOL    HW112341   2.395   4.360   1.831 -1.6239  0.3981  0.1631
 3875SOL    HW212342   2.336   4.254   1.923 -1.6829  0.8357  0.6303
 3876SOL     OW12343   5.082   3.501   6.171  0.6058  0.0977  0.1583
 3876SOL    HW112344   5.015   3.554   6.129 -0.3408 -0.3995  1.0225
 3876SOL    HW212345   5.163   3.551   6.161 -0.0665  1.1436 -0.0506
 3877SOL     OW12346   6.589   5.670   0.753  0.6742  0.2898 -0.2994
 3877SOL    HW112347   6.560   5.583   0.782 -0.0672  0.8663  0.7468
 3877SOL    HW212348   6.679   5.657   0.724  0.8925 -0.6508  0.7378
 3878SOL     OW12349   1.981   2.912   3.775  0.0351  0.5264 -0.6603
 3878SOL    HW112350   2.066   2.936   3.813 -0.5122 -1.0862  1.6599
 3878SOL    HW212351   1.927   2.990   3.786  0.3335  0.5717  0.5081
 3879SOL     OW12352   3.381   4.902   6.734 -0.0652  0.4400 -0.0525
 3879SOL    HW112353   3.396   4.862   6.820 -1.6243 -2.0474 -0.8519
 3879SOL    HW212354   3.463   4.890   6.687 -0.2283 -1.1610  0.0252
 3880SOL     OW12355   4.106   6.159   2.964 -0.9279 -0.0540  0.3435
 3880SOL    HW112356   4.014   6.184   2.960 -1.2588 -1.2343  0.2457
 3880SOL    HW212357   4.129   6.166   3.057 -0.2507  3.1602 -0.0145
 3881SOL     OW12358   4.257   0.750   1.141 -0.7861 -0.2244  0.0012
 3881SOL    HW112359   4.282   0.794   1.060 -0.1278 -0.7530 -0.0882
 3881SOL    HW212360   4.216   0.818   1.194 -0.4639  0.3175 -0.4425
 3882SOL     OW12361   3.054   0.055   1.821  0.4821  0.4985  0.2775
 3882SOL    HW112362   3.037   0.104   1.740 -3.5069  0.2151  0.8304
 3882SOL    HW212363   3.089  -0.029   1.791 -0.6778  0.5079 -1.1562
 3883SOL     OW12364   0.838   4.012   2.810  0.5594 -0.2667 -0.5290
 3883SOL    HW112365   0.897   3.970   2.873  1.5262  0.7831 -0.7334
 3883SOL    HW212366   0.875   3.991   2.724 -0.7911 -1.7514 -0.7932
 3884SOL     OW12367   0.701   1.426   2.504 -0.4635  0.2727  0.0194
 3884SOL    HW112368   0.685   1.519   2.486 -0.5189  0.1150 -0.7477
 3884SOL    HW212369   0.636   1.403   2.570 -0.6407  0.7030 -0.0034
 3885SOL     OW12370   3.718   1.382   2.708 -0.2593  0.0148 -0.4326
 3885SOL    HW112371   3.729   1.447   2.778  0.5620 -0.3551 -0.2118
 3885SOL    HW212372   3.651   1.419   2.651  0.5359  1.2886 -0.5673
 3886SOL     OW12373   4.260   1.807   2.120  0.0703  0.0932  0.3090
 3886SOL    HW112374   4.228   1.733   2.170 -0.4346 -1.4094 -2.1593
 3886SOL    HW212375   4.355   1.798   2.120  0.0579 -0.0390  0.7581
 3887SOL     OW12376   6.643   5.780   5.124  0.3086 -0.1812 -0.1685
 3887SOL    HW112377   6.591   5.846   5.078 -0.6428  0.1383  1.3294
 3887SOL    HW212378   6.642   5.808   5.216  0.4298 -1.9286  0.3933
 3888SOL     OW12379   5.624   4.056   5.130 -0.1627 -0.4468 -0.0952
 3888SOL    HW112380   5.601   4.148   5.115  1.6263 -0.1574 -1.2361
 3888SOL    HW212381   5.542   4.008   5.115 -1.6433  1.1197  2.5729
 3889SOL     OW12382   1.928   5.781   5.066 -0.5108  1.2320 -0.1955
 3889SOL    HW112383   1.877   5.743   5.137  2.3689 -0.5284  1.0279
 3889SOL    HW212384   1.934   5.874   5.088  0.5056  0.6854  2.0272
 3890SOL     OW12385   4.425   0.225   4.216  0.4388  0.4149  0.2852
 3890SOL    HW112386   4.461   0.187   4.136  1.7314 -2.1382  2.0263
 3890SOL    HW212387   4.466   0.311   4.223 -0.4380  1.0874 -2.2638
 3891SOL     OW12388   0.810   1.168   1.933  0.0158  0.0370 -0.3673
 3891SOL    HW112389   0.832   1.075   1.930 -0.3756 -0.0592 -0.2875
 3891SOL    HW212390   0.730   1.176   1.882 -1.5501 -0.1432  1.9623
 3892SOL     OW12391   5.205   0.624   1.359 -0.4135  0.5875  0.1854
 3892SOL    HW112392   5.140   0.693   1.352 -0.8397 -0.0039 -2.3127
 3892SOL    HW212393   5.270   0.645   1.292 -0.0129 -0.8507  0.0914
 3893SOL     OW12394   4.696   0.380   0.210 -0.3870 -0.0111  0.0870
 3893SOL    HW112395   4.635   0.454   0.204  2.4740  2.5748  1.1407
 3893SOL    HW212396   4.640   0.303   0.214 -3.5140  2.0904 -0.9626
 3894SOL     OW12397   2.989   0.210   1.168 -0.4234  0.4601 -0.1875
 3894SOL    HW112398   2.976   0.125   1.124 -0.5420 -0.1288  0.9564
 3894SOL    HW212399   2.920   0.266   1.131 -0.7428 -0.1235 -0.5018
 3895SOL     OW12400   5.643   4.746   2.123 -0.3590  0.6826 -0.3164
 3895SOL    HW112401   5.612   4.836   2.126 -1.5104  0.3122 -0.7382
 3895SOL    HW212402   5.625   4.712   2.211  0.8647  1.1050  0.1128
 3896SOL     OW12403   6.402   5.843   6.280 -0.4816  0.6262 -0.2356
 3896SOL    HW112404   6.320   5.826   6.326  0.0813 -0.3579  0.4162
 3896SOL    HW212405   6.458   5.768   6.301  0.2685  0.8374 -1.4130
 3897SOL     OW12406   4.366   6.692   6.544 -0.4632  0.4658  0.1441
 3897SOL    HW112407   4.299   6.629   6.519  0.5850 -1.0791  1.1868
 3897SOL    HW212408   4.445   6.663   6.499  0.1599  0.6861  1.0836
 3898SOL     OW12409   1.989   6.383   2.260  0.0428  0.3816 -0.3768
 3898SOL    HW112410   1.985   6.341   2.174 -0.7157  0.3385 -0.3226
 3898SOL    HW212411   2.018   6.472   2.242  0.8846  0.0753 -0.5725
 3899SOL     OW12412   6.208   0.482   1.881 -0.3800  0.8720  0.0473
 3899SOL    HW112413   6.191   0.474   1.975 -1.0812 -2.4760 -0.3019
 3899SOL    HW212414   6.145   0.548   1.852  0.2853  2.4314  2.0048
 3900SOL     OW12415   0.478   6.615   6.627 -0.2771  0.5686  0.1794
 3900SOL    HW112416   0.542   6.643   6.693 -0.3068  2.0655 -0.4153
 3900SOL    HW212417   0.505   6.659   6.547 -2.6688  2.0776  0.1655
 3901SOL     OW12418   1.741   5.281   4.310 -0.4975  0.0920  0.2320
 3901SOL    HW112419   1.827   5.263   4.271  0.4801  2.5612  1.1513
 3901SOL    HW212420   1.698   5.196   4.311  0.9122 -0.7485 -2.6572
 3902SOL     OW12421   3.175   0.756   1.454  0.2982 -0.0735 -0.4130
 3902SOL    HW112422   3.108   0.788   1.393 -0.2586 -0.7245 -0.1493
 3902SOL    HW212423   3.142   0.672   1.484  1.6643 -0.8063 -0.9443
 3903SOL     OW12424   4.705   3.678   5.144 -0.2350  0.1763  0.2206
 3903SOL    HW112425   4.727   3.700   5.053  0.7828 -0.5817  0.2800
 3903SOL    HW212426   4.673   3.588   5.140 -1.3253  0.5462  0.4474
 3904SOL     OW12427   5.839   6.649   2.738 -0.0063 -0.2922  0.2300
 3904SOL    HW112428   5.911   6.711   2.726 -1.5142  1.3014 -0.8799
 3904SOL    HW212429   5.761   6.704   2.743 -1.3366 -2.0899 -0.3143
 3905SOL     OW12430   4.556   1.452   5.946 -0.0719 -0.5709  0.2526
 3905SOL    HW112431   4.493   1.389   5.912  0.3638  0.0070 -1.6564
 3905SOL    HW212432   4.641   1.409   5.936 -0.0372 -0.9168  1.8395
 3906SOL     OW12433   4.758   6.507   3.690  0.6492  0.3132  0.6057
 3906SOL    HW112434   4.724   6.590   3.656 -0.5995 -0.6983 -0.6416
 3906SOL    HW212435   4.803   6.468   3.616  0.2605 -0.6612  0.8844
 3907SOL     OW12436   2.764   4.896   3.532  0.1585 -0.1476  0.5491
 3907SOL    HW112437   2.727   4.983   3.546 -0.1666 -0.0625 -0.7735
 3907SOL    HW212438   2.855   4.904   3.562  0.3190  0.8323 -0.1482
 3908SOL     OW12439   5.133   3.399   1.486  0.4452 -0.2239 -0.0127
 3908SOL    HW112440   5.070   3.335   1.454  0.0610 -1.7975  3.6645
 3908SOL    HW212441   5.217   3.354   1.481  0.6941  0.3173 -0.8292
 3909SOL     OW12442   4.791   5.110   0.054 -0.6524 -0.1874 -0.1059
 3909SOL    HW112443   4.707   5.149   0.033  0.4217  1.5699 -1.2064
 3909SOL    HW212444   4.852   5.183   0.057  0.8083 -1.4026  0.9377
 3910SOL     OW12445   0.596   3.340   1.789 -0.2058  0.8372 -0.6893
 3910SOL    HW112446   0.644   3.259   1.770 -1.4867  0.1077 -0.8485
 3910SOL    HW212447   0.535   3.316   1.859  0.1387  1.9407  0.0007
 3911SOL     OW12448   0.592   1.093   0.978  0.2308  0.1884 -0.3497
 3911SOL    HW112449   0.671   1.109   0.926 -0.6679  1.1470 -1.4653
 3911SOL    HW212450   0.526   1.069   0.913 -1.1509  2.2684  0.2408
 3912SOL     OW12451   5.470   5.547   3.105  0.1792  0.0434 -0.3457
 3912SOL    HW112452   5.440   5.630   3.068 -0.4872 -0.3653 -0.7331
 3912SOL    HW212453   5.428   5.480   3.051 -0.1482 -0.5637  0.6503
 3913SOL     OW12454   5.161   4.663   3.067  0.6108 -0.2227  0.1463
 3913SOL    HW112455   5.224   4.651   2.996 -0.0200  2.3081 -0.8993
 3913SOL    HW212456   5.108   4.583   3.066  1.0342 -0.5048 -1.7942
 3914SOL     OW12457   1.840   1.685   6.114  0.0081 -0.5494  0.1010
 3914SOL    HW112458   1.889   1.755   6.073 -0.8510  0.8982  1.4656
 3914SOL    HW212459   1.764   1.672   6.057  0.7206 -1.1399 -0.7281
 3915SOL     OW12460   2.686   6.148   2.905 -0.6120  0.0473 -0.0062
 3915SOL    HW112461   2.682   6.109   2.992 -2.2271  1.3012  0.4954
 3915SOL    HW212462   2.741   6.226   2.916  0.4570 -0.6311 -0.4533
 3916SOL     OW12463   6.310   1.556   2.298  0.2039 -0.0224  0.9343
 3916SOL    HW112464   6.222   1.591   2.286  0.2490 -0.0229  0.6046
 3916SOL    HW212465   6.300   1.461   2.299  0.4480 -0.0947 -1.1284
 3917SOL     OW12466   0.236   0.156   2.984 -0.1834 -0.4583 -0.0196
 3917SOL    HW112467   0.291   0.097   2.933  0.2565 -1.6160  1.7659
 3917SOL    HW212468   0.233   0.237   2.932  1.5318 -1.0695 -1.1028
 3918SOL     OW12469   0.358   1.874   5.627 -0.3309 -0.0653  1.1429
 3918SOL    HW112470   0.344   1.924   5.708  0.9673  0.2031  1.2103
 3918SOL    HW212471   0.444   1.834   5.637 -0.2963 -0.3019  0.0406
 3919SOL     OW12472   4.052   4.623   2.505  0.6466  0.5442  0.3054
 3919SOL    HW112473   4.104   4.691   2.548 -2.1920  0.9384  3.3340
 3919SOL    HW212474   4.085   4.541   2.541 -0.3394  0.7609  1.7759
 3920SOL     OW12475   0.549   5.084   2.224  0.6118  0.0873  0.2386
 3920SOL    HW112476   0.471   5.128   2.188  0.6378 -0.9360 -1.1354
 3920SOL    HW212477   0.518   5.041   2.304  0.0702  0.7663  0.3942
 3921SOL     OW12478   4.738   5.401   2.278 -0.0217  0.4459 -0.0949
 3921SOL    HW112479   4.707   5.456   2.350  0.1429  0.2580  0.1225
 3921SOL    HW212480   4.664   5.397   2.217 -0.2660  0.3730  0.2015
 3922SOL     OW12481   0.519   5.290   3.369 -0.4322 -0.2136 -0.7860
 3922SOL    HW112482   0.460   5.360   3.400  0.5554  0.6061 -0.7531
 3922SOL    HW212483   0.549   5.247   3.449  0.0838  0.2396 -0.7376
 3923SOL     OW12484   3.645   1.520   1.066 -0.4126 -0.1409 -0.2873
 3923SOL    HW112485   3.559   1.551   1.038 -0.6543 -0.9214 -0.4286
 3923SOL    HW212486   3.664   1.446   1.008 -0.8062 -1.6178  1.4058
 3924SOL     OW12487   1.439   6.638   0.925  0.1599  0.1544 -0.8321
 3924SOL    HW112488   1.384   6.700   0.974 -0.9296 -1.1462 -0.3781
 3924SOL    HW212489   1.448   6.563   0.983  2.1115  0.1715 -1.0703
 3925SOL     OW12490   5.560   0.946   2.634 -0.1271  0.1235 -0.5661
 3925SOL    HW112491   5.594   1.003   2.702  0.5192  0.0377 -0.8215
 3925SOL    HW212492   5.512   0.878   2.683 -0.2158  0.4238 -0.2297
 3926SOL     OW12493   1.068   6.044   0.261 -0.3374  0.2603 -0.3014
 3926SOL    HW112494   1.027   6.131   0.254 -1.0477  0.1257  1.7036
 3926SOL    HW212495   1.161   6.060   0.247 -0.4523  1.3793  0.1111
 3927SOL     OW12496   4.678   4.572   2.224 -0.4473 -0.1288 -0.3810
 3927SOL    HW112497   4.607   4.554   2.286  0.6457  0.9029  1.1983
 3927SOL    HW212498   4.741   4.502   2.240 -0.2197  0.0680 -0.4236
 3928SOL     OW12499   2.129   5.196   3.627 -0.0638  0.0001  0.5435
 3928SOL    HW112500   2.188   5.121   3.615 -0.1082  0.0859 -0.2520
 3928SOL    HW212501   2.169   5.266   3.576 -1.3257 -0.2098 -0.7765
 3929SOL     OW12502   2.185   2.573   3.015 -0.1947 -0.1085 -0.1223
 3929SOL    HW112503   2.117   2.549   2.952 -0.5394  1.5009 -0.3732
 3929SOL    HW212504   2.162   2.661   3.044  0.9553 -0.1305  0.9241
 3930SOL     OW12505   1.126   1.933   3.118  0.0185 -0.2249  0.1582
 3930SOL    HW112506   1.105   2.027   3.119  0.5254 -0.0909 -1.1441
 3930SOL    HW212507   1.205   1.926   3.172  0.3424  0.1894 -0.2575
 3931SOL     OW12508   3.113   0.574   2.358 -0.3049 -0.4318  0.0026
 3931SOL    HW112509   3.195   0.580   2.407 -0.0782  2.1695 -0.6073
 3931SOL    HW212510   3.083   0.485   2.373  1.5712 -0.7928  1.9464
 3932SOL     OW12511   2.278   4.969   1.854  0.2782 -0.7857  0.1096
 3932SOL    HW112512   2.311   4.926   1.775  1.3013 -0.3969  0.3121
 3932SOL    HW212513   2.252   5.056   1.825 -0.5514 -1.0781 -0.0418
 3933SOL     OW12514   3.321   1.380   3.409  0.8653 -0.2421  0.2509
 3933SOL    HW112515   3.282   1.447   3.352  0.6575 -1.7028 -1.3705
 3933SOL    HW212516   3.388   1.339   3.354 -0.1835 -2.5172  0.5989
 3934SOL     OW12517   3.626   2.023   6.246  0.1972 -0.5661 -0.6762
 3934SOL    HW112518   3.691   2.031   6.316 -1.3899 -0.6772  0.8430
 3934SOL    HW212519   3.645   1.938   6.206  1.1006 -0.5173 -0.3660
 3935SOL     OW12520   1.285   5.703   3.049  0.9057 -1.0483 -0.3406
 3935SOL    HW112521   1.362   5.724   3.101 -0.3247  1.0224  0.7143
 3935SOL    HW212522   1.213   5.699   3.113 -0.6320  1.5648 -1.7941
 3936SOL     OW12523   6.686   0.290   0.363  0.2595  0.5988  0.2010
 3936SOL    HW112524   6.718   0.360   0.420  0.4113 -0.2864  1.2296
 3936SOL    HW212525   6.714   0.315   0.275 -0.5762  2.3400  0.4155
 3937SOL     OW12526   1.468   4.889   3.092 -0.2800  0.6357  0.2694
 3937SOL    HW112527   1.423   4.821   3.140  2.4306 -1.3070  0.1996
 3937SOL    HW212528   1.517   4.938   3.158  0.5060  0.2945 -0.0405
 3938SOL     OW12529   0.376   3.706   0.932  0.7374 -0.1112 -0.4541
 3938SOL    HW112530   0.420   3.652   0.866  2.3398  0.4292  0.1493
 3938SOL    HW212531   0.283   3.686   0.921  1.0388 -0.5569 -2.3954
 3939SOL     OW12532   0.856   2.644   3.932  1.2375 -0.2003 -0.3487
 3939SOL    HW112533   0.835   2.653   3.839 -1.0147  3.1250  0.4093
 3939SOL    HW212534   0.926   2.708   3.946  1.4369 -0.5622  0.3069
 3940SOL     OW12535   3.401   3.203   2.350  0.2652  0.3539  1.0570
 3940SOL    HW112536   3.380   3.294   2.372  1.9962  1.3254 -1.0620
 3940SOL    HW212537   3.335   3.177   2.286  0.4234  0.5148  0.8264
 3941SOL     OW12538   2.015   0.899   4.103 -0.0660 -0.5632 -0.0863
 3941SOL    HW112539   2.004   0.994   4.094 -3.2976 -1.0207 -1.6281
 3941SOL    HW212540   2.029   0.868   4.013  0.7605 -1.5822  0.3856
 3942SOL     OW12541   4.952   1.180   1.583  0.0073 -0.0613 -0.0673
 3942SOL    HW112542   4.950   1.201   1.490 -1.3815  2.4283  0.4664
 3942SOL    HW212543   4.860   1.180   1.610  0.5174  2.5654  1.9491
 3943SOL     OW12544   2.084   2.068   3.951 -0.1349  0.4232  0.3515
 3943SOL    HW112545   2.163   2.123   3.947  0.6265 -0.7382 -1.4845
 3943SOL    HW212546   2.113   1.987   3.993 -0.4233  0.1440  0.0173
 3944SOL     OW12547   0.631   6.269   1.512 -0.1697 -0.2913 -0.3352
 3944SOL    HW112548   0.713   6.233   1.546 -0.4537 -2.4626 -1.8657
 3944SOL    HW212549   0.575   6.276   1.588  1.5641  1.6591  0.8199
 3945SOL     OW12550   1.472   2.911   2.348  0.4343 -0.0720 -0.0532
 3945SOL    HW112551   1.401   2.895   2.411  0.7009  0.5018  0.3922
 3945SOL    HW212552   1.430   2.899   2.262  0.2130 -1.4270  0.2395
 3946SOL     OW12553   5.574   1.597   4.554  0.1671 -0.2170 -0.0125
 3946SOL    HW112554   5.506   1.642   4.504  1.3018  0.4772 -0.9482
 3946SOL    HW212555   5.601   1.660   4.621  1.7021  0.4941 -1.2741
 3947SOL     OW12556   3.639   6.089   5.030  0.7947  0.2758  0.2424
 3947SOL    HW112557   3.552   6.103   4.992  1.2405 -0.3223 -1.0144
 3947SOL    HW212558   3.623   6.083   5.124 -0.3158  1.8331  0.1645
 3948SOL     OW12559   3.168   0.869   3.861  0.1859 -0.1040 -0.2412
 3948SOL    HW112560   3.153   0.960   3.887  0.5890  0.0719 -0.6314
 3948SOL    HW212561   3.080   0.831   3.856  0.0151  0.2710 -0.1160
 3949SOL     OW12562   2.733   0.134   5.194  0.1127  0.3781  0.7600
 3949SOL    HW112563   2.645   0.150   5.159 -1.0291  0.1521  3.3989
 3949SOL    HW212564   2.722   0.139   5.289  2.7371 -0.8234  1.1693
 3950SOL     OW12565   2.453   3.339   3.732 -0.1092  0.1397  0.2023
 3950SOL    HW112566   2.532   3.285   3.737  1.2444  1.6176 -3.5268
 3950SOL    HW212567   2.482   3.421   3.692 -3.2727  1.2751  0.1031
 3951SOL     OW12568   3.621   6.152   1.109  0.1386  0.3651  0.0710
 3951SOL    HW112569   3.651   6.107   1.030  2.2426  0.8974  0.5267
 3951SOL    HW212570   3.561   6.091   1.150 -0.0185 -0.4318 -1.3006
 3952SOL     OW12571   3.312   2.294   3.172  0.0634  0.4428 -0.8173
 3952SOL    HW112572   3.271   2.207   3.170 -0.9168  0.8755 -0.0285
 3952SOL    HW212573   3.238   2.355   3.168  0.6034  1.2431  1.0495
 3953SOL     OW12574   3.114   5.805   1.302  0.0519  0.0763 -0.2726
 3953SOL    HW112575   3.151   5.724   1.265 -1.9364 -1.4162  0.9195
 3953SOL    HW212576   3.181   5.837   1.362  1.8908  0.6898 -2.5498
 3954SOL     OW12577   0.917   1.415   1.319 -0.0468 -0.3289 -0.2075
 3954SOL    HW112578   0.887   1.429   1.409  1.1745  1.1499 -0.0041
 3954SOL    HW212579   1.000   1.367   1.328 -0.3523 -0.9311 -0.5834
 3955SOL     OW12580   1.796   4.026   0.673 -0.1768  0.7392 -0.1266
 3955SOL    HW112581   1.850   3.952   0.701 -1.2706 -1.1541 -2.8437
 3955SOL    HW212582   1.838   4.057   0.593 -1.0988  1.5145 -0.3172
 3956SOL     OW12583   3.493   1.344   0.833 -0.1278  0.3102  0.1170
 3956SOL    HW112584   3.398   1.333   0.839  0.1735 -2.8898 -0.1931
 3956SOL    HW212585   3.505   1.418   0.773 -2.4029 -0.8727 -1.8826
 3957SOL     OW12586   4.661   3.066   6.125 -0.7922  0.1713  0.3506
 3957SOL    HW112587   4.584   3.122   6.116 -1.4838 -0.8669 -0.3878
 3957SOL    HW212588   4.661   3.013   6.045  1.1304  0.7025 -0.0257
 3958SOL     OW12589   1.212   4.468   4.540  0.2741 -0.3749 -0.3788
 3958SOL    HW112590   1.192   4.485   4.448  0.2480 -3.3821 -0.9863
 3958SOL    HW212591   1.126   4.463   4.582  0.2608  0.2436 -0.3253
 3959SOL     OW12592   1.905   2.022   6.723 -0.2458 -0.1195  0.2392
 3959SOL    HW112593   1.880   2.109   6.694 -0.4284 -0.0626  0.5652
 3959SOL    HW212594   1.844   2.001   6.794 -0.8330 -0.9057 -0.4884
 3960SOL     OW12595   3.181   0.844   6.731 -0.2926  0.5467  0.2826
 3960SOL    HW112596   3.187   0.912   6.798  0.5665  0.9285 -0.1673
 3960SOL    HW212597   3.093   0.853   6.695 -0.2304  1.3239  0.3210
 3961SOL     OW12598   0.887   5.904   5.190 -0.2821  0.3108 -0.7380
 3961SOL    HW112599   0.968   5.892   5.141 -1.3463  1.0345 -2.7346
 3961SOL    HW212600   0.861   5.816   5.215  1.0474  0.0619 -0.2114
 3962SOL     OW12601   3.054   2.738   6.647  0.4510 -0.2631 -0.1505
 3962SOL    HW112602   3.085   2.821   6.611  0.1713  0.5474  1.4464
 3962SOL    HW212603   2.966   2.727   6.610  0.4161  0.2429 -0.2148
 3963SOL     OW12604   1.416   6.595   0.218  0.1067 -0.3559 -0.3541
 3963SOL    HW112605   1.340   6.651   0.231  1.2112  0.9097  0.7556
 3963SOL    HW212606   1.454   6.585   0.306  0.9875 -1.3286 -0.8290
 3964SOL     OW12607   5.499   1.364   4.324  0.4909 -0.3333  0.3159
 3964SOL    HW112608   5.508   1.269   4.334  1.0815 -0.3786 -0.6128
 3964SOL    HW212609   5.578   1.400   4.364  1.0350 -0.3262 -0.7301
 3965SOL     OW12610   6.458   1.109   3.837  0.5998  0.2668 -0.0743
 3965SOL    HW112611   6.504   1.182   3.878 -1.1794  1.2868  0.1500
 3965SOL    HW212612   6.400   1.076   3.906  1.5448 -1.5270 -0.0957
 3966SOL     OW12613   4.211   6.666   0.292 -0.6687 -0.3979  0.3528
 3966SOL    HW112614   4.242   6.752   0.265 -2.0420  1.2205  3.6258
 3966SOL    HW212615   4.214   6.613   0.213 -0.2581  2.7929 -1.8423
 3967SOL     OW12616   1.181   1.874   0.233 -0.2263  0.3383  0.0349
 3967SOL    HW112617   1.154   1.949   0.286 -0.4571  2.0774 -2.4827
 3967SOL    HW212618   1.107   1.814   0.237 -0.1764  0.3759  1.7958
 3968SOL     OW12619   5.802   1.315   6.133 -0.2483 -0.4485 -0.3346
 3968SOL    HW112620   5.769   1.356   6.213 -0.7476  1.9999 -1.7279
 3968SOL    HW212621   5.892   1.290   6.154 -1.2225 -2.3468  1.8248
 3969SOL     OW12622   1.658   4.923   1.768 -0.5372  0.1196  0.4990
 3969SOL    HW112623   1.641   5.015   1.791 -0.8283 -0.4344  2.6659
 3969SOL    HW212624   1.717   4.892   1.837  0.0754 -1.1443 -0.5848
 3970SOL     OW12625   4.282   5.136   0.651 -0.1300 -0.5580  0.3454
 3970SOL    HW112626   4.348   5.091   0.598 -0.2752 -1.8211  1.2125
 3970SOL    HW212627   4.198   5.100   0.621 -0.3386  0.2106  0.0213
 3971SOL     OW12628   5.436   0.767   4.486  0.1795 -0.4032  0.0378
 3971SOL    HW112629   5.417   0.722   4.403 -0.1674 -0.7322  0.2905
 3971SOL    HW212630   5.396   0.853   4.476  0.6262 -0.2403 -0.3532
 3972SOL     OW12631   2.398   1.699   5.414  0.4909  0.8134  0.4195
 3972SOL    HW112632   2.436   1.736   5.334  0.8326  0.9143  0.6295
 3972SOL    HW212633   2.307   1.680   5.390  0.5768  0.8898  0.0221
 3973SOL     OW12634   1.718   3.752   0.338 -0.7134 -0.0642 -0.0235
 3973SOL    HW112635   1.727   3.847   0.336  0.6541 -0.2054 -1.8084
 3973SOL    HW212636   1.627   3.736   0.311 -0.8451  0.7031 -0.0556
 3974SOL     OW12637   2.106   2.262   5.225  0.3128 -0.2976 -0.1507
 3974SOL    HW112638   2.067   2.333   5.175  0.0373 -0.1554  0.2684
 3974SOL    HW212639   2.115   2.190   5.162  0.3980  0.0364 -0.5199
 3975SOL     OW12640   3.959   5.645   0.070  0.3963  0.0716  0.1759
 3975SOL    HW112641   4.033   5.585   0.073 -0.0805 -0.5516 -0.4091
 3975SOL    HW212642   3.982   5.708   0.002  0.5303  0.0603  0.2115
 3976SOL     OW12643   0.234   0.384   1.989 -0.1508 -0.4307 -0.4048
 3976SOL    HW112644   0.319   0.372   2.031  0.0520  0.0828 -0.6718
 3976SOL    HW212645   0.170   0.376   2.060  0.2297  1.2191  0.1477
 3977SOL     OW12646   0.758   5.652   1.931  0.0959  0.0741  0.2889
 3977SOL    HW112647   0.758   5.558   1.912 -0.3530 -0.2409  1.8070
 3977SOL    HW212648   0.698   5.662   2.004  0.1939  1.5447  0.1816
 3978SOL     OW12649   3.299   2.271   6.194 -0.7285 -0.5884 -0.3361
 3978SOL    HW112650   3.224   2.326   6.217 -0.4367 -0.2404 -0.2262
 3978SOL    HW212651   3.264   2.209   6.130 -1.0031 -0.1473 -0.6131
 3979SOL     OW12652   2.421   4.708   4.523 -0.0537 -0.5404 -0.4415
 3979SOL    HW112653   2.467   4.717   4.606  0.3236  0.2477 -0.7345
 3979SOL    HW212654   2.353   4.642   4.540 -1.4650  1.2889  1.1210
 3980SOL     OW12655   6.652   3.267   5.635 -0.5188  0.1878 -0.2019
 3980SOL    HW112656   6.655   3.177   5.602  1.6090  0.4769 -0.8683
 3980SOL    HW212657   6.702   3.264   5.716 -0.5110  0.7658 -0.1847
 3981SOL     OW12658   3.660   1.584   4.142 -0.0306  0.4314  0.6125
 3981SOL    HW112659   3.643   1.660   4.087 -1.4529 -0.2802  0.0335
 3981SOL    HW212660   3.739   1.606   4.190  1.4668  0.9352 -1.9886
 3982SOL     OW12661   6.671   2.869   5.906  0.0555  0.3924 -0.0553
 3982SOL    HW112662   6.675   2.923   5.986 -0.2252  1.8370 -0.9878
 3982SOL    HW212663   6.739   2.906   5.849 -1.0818  0.6804 -1.2543
 3983SOL     OW12664   0.492   4.193   1.193 -0.1335  0.1656 -0.6581
 3983SOL    HW112665   0.470   4.220   1.282 -1.0359 -0.2937 -0.7338
 3983SOL    HW212666   0.557   4.123   1.205 -0.3807 -0.0151 -0.3482
 3984SOL     OW12667   1.315   4.308   0.724 -0.2673 -0.6301  0.3572
 3984SOL    HW112668   1.391   4.259   0.692  0.4415  0.3026  0.5757
 3984SOL    HW212669   1.241   4.272   0.674  0.6897  0.2170 -1.7614
 3985SOL     OW12670   2.125   3.064   5.521  0.3110 -0.0009 -0.1340
 3985SOL    HW112671   2.130   3.152   5.561 -1.7476 -0.0428  0.2590
 3985SOL    HW212672   2.063   3.074   5.449  2.0398 -0.5589 -1.7344
 3986SOL     OW12673   1.595   0.928   6.661 -0.2567  0.1620 -0.2128
 3986SOL    HW112674   1.587   0.843   6.617  0.3811 -0.1320  0.2359
 3986SOL    HW212675   1.569   0.911   6.751 -0.3244  0.4940 -0.1683
 3987SOL     OW12676   2.253   5.398   4.654  0.3577  0.0344 -0.0738
 3987SOL    HW112677   2.224   5.422   4.566  0.6435 -1.3080 -0.5422
 3987SOL    HW212678   2.267   5.303   4.650 -0.7467 -0.2332  1.7370
 3988SOL     OW12679   0.043   1.459   2.531 -0.2489 -0.1834  0.7810
 3988SOL    HW112680   0.066   1.487   2.443 -1.4182  0.2266  0.5906
 3988SOL    HW212681   0.039   1.363   2.527  0.5306 -0.2064  0.6049
 3989SOL     OW12682   3.377   2.223   5.662 -0.1206  0.0683  0.1316
 3989SOL    HW112683   3.396   2.133   5.633  0.2845 -0.5709  2.2675
 3989SOL    HW212684   3.463   2.259   5.683 -0.2637  1.0605 -0.9634
 3990SOL     OW12685   0.405   4.719   4.665  0.3480 -0.5248 -0.1809
 3990SOL    HW112686   0.378   4.628   4.673 -1.5248 -0.2040 -2.4111
 3990SOL    HW212687   0.412   4.750   4.755  0.1065 -2.6161  0.5780
 3991SOL     OW12688   0.434   2.901   0.015 -0.4514  0.3504 -0.2579
 3991SOL    HW112689   0.493   2.888  -0.059 -0.5448 -1.6109 -0.0227
 3991SOL    HW212690   0.347   2.884  -0.020 -0.3059 -3.1867  0.7932
 3992SOL     OW12691   6.006   5.370   4.054 -0.2115 -0.8528  0.5444
 3992SOL    HW112692   5.926   5.422   4.052  0.7283  0.6335  0.4283
 3992SOL    HW212693   5.986   5.291   4.004 -1.1055  0.2360 -0.8205
 3993SOL     OW12694   4.641   0.726   2.983  0.2815  0.4699  0.5843
 3993SOL    HW112695   4.620   0.669   3.057  0.8293 -0.5966 -0.0698
 3993SOL    HW212696   4.561   0.727   2.930  0.8054 -1.0295 -0.2571
 3994SOL     OW12697   6.224   0.731   3.484  0.3272  0.9209  0.1901
 3994SOL    HW112698   6.266   0.798   3.538 -0.6433  1.6101  0.1114
 3994SOL    HW212699   6.140   0.770   3.458 -0.6855 -0.6978  0.9306
 3995SOL     OW12700   4.520   5.982   2.192  0.0379 -0.1715 -0.1805
 3995SOL    HW112701   4.543   5.968   2.284  1.4920  2.7422 -0.0343
 3995SOL    HW212702   4.570   5.916   2.144 -0.0205 -1.1100  1.0366
 3996SOL     OW12703   0.192   2.662   0.045  0.5819 -0.5648  0.2535
 3996SOL    HW112704   0.143   2.689   0.123  1.3685 -0.0372  0.5682
 3996SOL    HW212705   0.277   2.633   0.078  1.1456  0.2393 -0.4626
 3997SOL     OW12706   5.903   2.571   0.818  0.1145  0.5335  0.4572
 3997SOL    HW112707   5.847   2.502   0.852  0.3385 -0.1423 -0.5506
 3997SOL    HW212708   5.844   2.644   0.801 -0.7702 -0.7478 -2.2342
 3998SOL     OW12709   0.508   1.891   1.260 -0.1278  0.3570  0.4912
 3998SOL    HW112710   0.557   1.862   1.183  0.0162  1.0575  0.3060
 3998SOL    HW212711   0.459   1.815   1.288  0.2578 -0.0625  0.0380
 3999SOL     OW12712   1.849   3.916   4.933  0.3537 -0.7898 -0.1189
 3999SOL    HW112713   1.770   3.955   4.896 -0.0313 -0.3143  1.1691
 3999SOL    HW212714   1.851   3.828   4.897  0.6099  0.0116 -2.1581
 4000SOL     OW12715   2.007   4.864   5.984  0.0484  0.5107  0.2432
 4000SOL    HW112716   1.994   4.811   5.905  0.9973 -0.3608  0.6724
 4000SOL    HW212717   1.924   4.856   6.031  0.9263 -2.4120  1.3878
 4001SOL     OW12718   2.461   2.542   2.818 -0.4647  0.4907  0.0805
 4001SOL    HW112719   2.383   2.598   2.815 -1.3493 -0.7216  0.2738
 4001SOL    HW212720   2.504   2.558   2.734 -0.9425  1.1262 -0.0511
 4002SOL     OW12721   3.499   4.247   4.330  0.4576 -0.0192 -0.3895
 4002SOL    HW112722   3.594   4.262   4.335  0.0870  2.6095 -0.6608
 4002SOL    HW212723   3.470   4.304   4.259 -1.2201 -1.5219 -0.9450
 4003SOL     OW12724   5.950   1.154   1.175 -0.5786  0.3442 -0.1693
 4003SOL    HW112725   5.959   1.063   1.204  0.6271  0.8400  1.0951
 4003SOL    HW212726   5.997   1.158   1.092 -2.0524 -0.5537 -1.0741
 4004SOL     OW12727   0.599   6.732   3.653 -0.4812  0.3274  0.1577
 4004SOL    HW112728   0.606   6.810   3.708  1.1473 -1.2304  2.2484
 4004SOL    HW212729   0.657   6.749   3.579  1.5590  0.2641  1.7023
 4005SOL     OW12730   4.991   1.959   6.589 -0.3604  0.9158  0.5594
 4005SOL    HW112731   4.920   1.995   6.537 -0.8671  0.6174  1.0404
 4005SOL    HW212732   5.002   2.020   6.662 -0.0944  0.9844  0.4637
 4006SOL     OW12733   6.652   0.034   1.782 -0.1067 -0.2748  0.0525
 4006SOL    HW112734   6.682  -0.033   1.720  1.2769 -1.4255  1.9206
 4006SOL    HW212735   6.718   0.035   1.850 -0.7567  2.1533  0.7016
 4007SOL     OW12736   3.163   2.331   0.521 -0.0803  0.5152 -0.0706
 4007SOL    HW112737   3.110   2.263   0.479 -0.8971  0.4841  0.9875
 4007SOL    HW212738   3.108   2.409   0.521  0.3222  0.8055 -0.0271
 4008SOL     OW12739   5.560   5.427   0.413 -0.2193 -0.6169  0.0802
 4008SOL    HW112740   5.529   5.356   0.470 -0.7890 -0.5194 -0.1011
 4008SOL    HW212741   5.578   5.499   0.473  1.1185 -1.1647  0.3489
 4009SOL     OW12742   1.540   5.084   2.439  0.0219 -0.0282 -0.5425
 4009SOL    HW112743   1.508   5.002   2.474  0.0493 -0.6347 -1.8875
 4009SOL    HW212744   1.483   5.151   2.477  0.7999 -0.5356  1.5510
 4010SOL     OW12745   1.664   5.218   1.202 -0.4875 -0.1401 -0.3345
 4010SOL    HW112746   1.726   5.179   1.263 -1.7887 -2.3659 -0.3843
 4010SOL    HW212747   1.693   5.309   1.193  0.7278 -0.2361  2.2443
 4011SOL     OW12748   5.700   2.228   2.949 -0.1978 -0.6920  0.9554
 4011SOL    HW112749   5.657   2.304   2.988  0.3770 -0.2994  0.8384
 4011SOL    HW212750   5.629   2.168   2.927 -0.8143  0.5535 -0.5524
 4012SOL     OW12751   3.397   2.802   4.190  0.0214 -0.4770  0.1605
 4012SOL    HW112752   3.413   2.800   4.284 -0.9940 -1.3164  0.3229
 4012SOL    HW212753   3.464   2.745   4.153  0.8264  0.3617  0.3047
 4013SOL     OW12754   1.929   5.718   2.677 -0.2262  0.2898  0.0869
 4013SOL    HW112755   1.905   5.752   2.763  0.6004  1.2147 -0.0474
 4013SOL    HW212756   1.945   5.795   2.623  0.7616 -0.2879 -0.4722
 4014SOL     OW12757   1.865   3.498   3.588 -0.3182 -0.9453  0.3055
 4014SOL    HW112758   1.790   3.557   3.599 -0.2955 -0.6849 -0.9050
 4014SOL    HW212759   1.852   3.431   3.655 -0.5719  0.1940  1.4354
 4015SOL     OW12760   1.639   3.162   2.319 -0.0164 -0.6308 -0.1290
 4015SOL    HW112761   1.595   3.228   2.373  3.0396  0.5666  1.0739
 4015SOL    HW212762   1.576   3.091   2.311 -1.2453 -0.0902  3.6231
 4016SOL     OW12763   2.295   2.724   2.385 -0.6487 -0.1638 -0.3877
 4016SOL    HW112764   2.259   2.685   2.305  0.4169  0.1456 -1.0245
 4016SOL    HW212765   2.389   2.716   2.376 -0.5199 -0.3645  0.9754
 4017SOL     OW12766   5.811   4.198   3.065 -0.2983  0.0419 -0.0517
 4017SOL    HW112767   5.808   4.293   3.063 -0.8324  0.0051 -1.0643
 4017SOL    HW212768   5.866   4.173   2.991 -0.5694 -0.4529 -0.0931
 4018SOL     OW12769   6.603   4.722   0.138 -0.7956 -0.6399  0.2756
 4018SOL    HW112770   6.660   4.762   0.203  0.1839 -0.8804 -0.4342
 4018SOL    HW212771   6.533   4.681   0.189 -0.4848 -0.1156  1.1254
 4019SOL     OW12772   2.406   4.553   3.511  0.3002 -0.2727 -0.0746
 4019SOL    HW112773   2.477   4.580   3.569  0.1007  2.0136 -0.8562
 4019SOL    HW212774   2.444   4.552   3.423 -0.1811 -0.7837 -0.2851
 4020SOL     OW12775   5.625   1.396   3.427 -0.2706  0.5230 -0.1188
 4020SOL    HW112776   5.703   1.341   3.421  0.4320  1.5061 -0.1756
 4020SOL    HW212777   5.562   1.356   3.367  0.2011 -0.2566 -0.0975
 4021SOL     OW12778   5.741   3.967   6.618 -0.1233 -0.5269  0.2394
 4021SOL    HW112779   5.649   3.957   6.593 -0.0627  0.1943 -0.3099
 4021SOL    HW212780   5.789   3.956   6.536  0.2427 -0.4542  0.4456
 4022SOL     OW12781   5.689   3.575   4.053  0.1665  0.1441 -0.0914
 4022SOL    HW112782   5.743   3.548   3.979 -0.4721 -1.5222  0.0474
 4022SOL    HW212783   5.667   3.494   4.099 -0.9853  0.9729  0.8687
 4023SOL     OW12784   4.934   0.055   5.337  0.1344 -0.0579 -0.1066
 4023SOL    HW112785   4.846   0.093   5.340  0.6214  1.1810 -0.9741
 4023SOL    HW212786   4.972   0.075   5.422 -0.1180  0.1713 -0.0469
 4024SOL     OW12787   2.974   4.104   2.354 -0.1804  0.3711  0.1318
 4024SOL    HW112788   2.909   4.034   2.355 -1.2790  1.3474 -0.5854
 4024SOL    HW212789   2.922   4.185   2.349  1.0767  1.1922  0.0615
 4025SOL     OW12790   2.028   5.791   3.993  0.8709  0.2357 -0.3843
 4025SOL    HW112791   1.961   5.832   3.938  0.3188 -0.8886 -0.5721
 4025SOL    HW212792   2.085   5.863   4.019 -0.5027  1.2436 -0.0997
 4026SOL     OW12793   6.061   1.042   4.144 -0.5518  0.1042  0.1048
 4026SOL    HW112794   6.036   1.134   4.139 -2.0187 -0.2671  0.2553
 4026SOL    HW212795   6.017   1.009   4.222 -0.3016 -0.8052 -0.1247
 4027SOL     OW12796   0.423   3.288   0.900 -0.1099 -0.5907 -0.2614
 4027SOL    HW112797   0.343   3.298   0.951 -0.3917 -3.3564 -0.0681
 4027SOL    HW212798   0.397   3.232   0.826  1.2678 -0.1482 -1.0934
 4028SOL     OW12799   5.178   1.548   1.461 -0.5023 -0.1343  0.7081
 4028SOL    HW112800   5.234   1.474   1.486  0.7007  0.0314 -1.3588
 4028SOL    HW212801   5.228   1.592   1.392 -4.0299 -1.0875 -2.6133
 4029SOL     OW12802   1.051   4.007   0.151  0.2942 -0.0501  0.5589
 4029SOL    HW112803   1.009   4.059   0.082  0.8971  1.3114  1.1972
 4029SOL    HW212804   1.050   3.917   0.118 -0.9223  0.3449 -0.4897
 4030SOL     OW12805   3.778   0.124   2.206 -0.2740  0.0198  0.3554
 4030SOL    HW112806   3.710   0.056   2.209  0.7352 -1.1004 -1.2203
 4030SOL    HW212807   3.774   0.157   2.116  1.2111 -0.0119  0.2646
 4031SOL     OW12808   1.959   5.072   1.728  0.2895  0.3043  0.3335
 4031SOL    HW112809   1.961   4.996   1.786  1.8019 -0.9568 -1.3417
 4031SOL    HW212810   1.904   5.136   1.775 -2.5788 -2.4688  0.9087
 4032SOL     OW12811   3.186   3.014   3.521 -0.4789  0.0139 -0.3197
 4032SOL    HW112812   3.090   3.017   3.520 -0.4694  0.2068 -1.8120
 4032SOL    HW212813   3.207   2.928   3.486 -0.0956  0.4611 -1.2045
 4033SOL     OW12814   1.752   6.519   1.480  0.2383  0.7528 -0.6714
 4033SOL    HW112815   1.807   6.494   1.554  0.4764 -0.9341 -1.3967
 4033SOL    HW212816   1.811   6.516   1.404 -1.0457 -2.1360 -1.6220
 4034SOL     OW12817   0.179   5.389   1.595  0.2694 -0.1613  0.1282
 4034SOL    HW112818   0.141   5.343   1.669  1.1088 -1.2709 -0.1143
 4034SOL    HW212819   0.226   5.321   1.546 -0.2421  0.5544 -1.4000
 4035SOL     OW12820   6.245   1.147   5.965 -0.2672  0.3843 -0.5038
 4035SOL    HW112821   6.304   1.205   5.918  0.5422 -0.8971 -1.0899
 4035SOL    HW212822   6.220   1.080   5.901 -0.0725 -0.7230  0.5435
 4036SOL     OW12823   1.881   4.504   2.323  0.7931 -0.3226  0.1240
 4036SOL    HW112824   1.952   4.567   2.332 -0.5061  1.2210 -0.2148
 4036SOL    HW212825   1.839   4.527   2.240 -0.6894 -0.5895  0.7810
 4037SOL     OW12826   4.974   5.580   2.389  0.9366 -0.4407  0.1437
 4037SOL    HW112827   5.069   5.570   2.394  1.0752  0.9368  0.4283
 4037SOL    HW212828   4.942   5.491   2.375  2.2572 -0.9387  0.1542
 4038SOL     OW12829   4.007   6.358   0.107  1.1005 -0.0408  0.2416
 4038SOL    HW112830   4.082   6.403   0.147  1.8045 -0.2515 -0.8235
 4038SOL    HW212831   4.045   6.278   0.071  0.9926  1.4226 -3.2671
 4039SOL     OW12832   3.991   5.572   6.047  0.3644  0.4372  0.1097
 4039SOL    HW112833   3.960   5.662   6.034  0.0348  0.4664  1.0125
 4039SOL    HW212834   3.920   5.517   6.014  0.4787  0.5046 -0.2514
 4040SOL     OW12835   3.826   6.165   2.358  0.5366  0.0500  0.2394
 4040SOL    HW112836   3.765   6.197   2.291  0.9170 -1.6202 -0.9413
 4040SOL    HW212837   3.775   6.165   2.439 -0.6458 -0.1024 -0.4934
 4041SOL     OW12838   1.984   1.770   6.437 -0.3346  0.1462 -0.0120
 4041SOL    HW112839   1.971   1.864   6.424 -1.4722 -0.2542 -1.8644
 4041SOL    HW212840   2.056   1.748   6.378  0.9313  0.1153  1.5148
 4042SOL     OW12841   6.121   0.753   2.239  0.1315 -0.5004 -0.0084
 4042SOL    HW112842   6.147   0.799   2.160  2.1458 -1.5696 -0.0022
 4042SOL    HW212843   6.190   0.772   2.303  0.8678 -3.2143  0.0811
 4043SOL     OW12844   6.007   4.161   5.760  0.3796  0.1655 -0.1564
 4043SOL    HW112845   5.938   4.105   5.726 -0.0802  0.3074  0.5282
 4043SOL    HW212846   5.963   4.219   5.822  0.9992  0.6990 -0.2022
 4044SOL     OW12847   5.268   5.221   3.753  0.0953 -0.2652  0.5769
 4044SOL    HW112848   5.339   5.185   3.805 -0.6383 -0.5208  1.4063
 4044SOL    HW212849   5.208   5.147   3.741 -0.3309  0.1113  0.3958
 4045SOL     OW12850   2.567   0.652   6.473  0.2007  0.1045  0.7160
 4045SOL    HW112851   2.567   0.735   6.520 -1.1181  0.0652  0.8187
 4045SOL    HW212852   2.557   0.586   6.542 -1.3493  0.0249  0.4394
 4046SOL     OW12853   0.322   4.188   6.029 -0.0874 -0.0548  0.2457
 4046SOL    HW112854   0.339   4.218   5.940  0.3281  0.2555  0.4312
 4046SOL    HW212855   0.259   4.251   6.064 -0.3413 -0.2454  0.1279
 4047SOL     OW12856   4.673   2.194   1.586 -0.0731  0.0235  0.0100
 4047SOL    HW112857   4.722   2.112   1.593  0.0981  0.0332 -1.0144
 4047SOL    HW212858   4.583   2.167   1.573  0.1844 -0.0264 -1.7967
 4048SOL     OW12859   6.221   2.164   6.421  0.1114  0.0365  0.4421
 4048SOL    HW112860   6.190   2.245   6.462  2.8459  1.5165 -0.3352
 4048SOL    HW212861   6.209   2.178   6.327 -1.8657 -1.5467  0.4233
 4049SOL     OW12862   5.361   0.635   1.067 -0.7798  0.4215  0.4165
 4049SOL    HW112863   5.322   0.560   1.023 -0.1528  0.7237 -0.6745
 4049SOL    HW212864   5.455   0.616   1.067 -0.6449  1.0948  0.3735
 4050SOL     OW12865   1.649   1.514   2.590  0.4839 -0.2305  0.1980
 4050SOL    HW112866   1.588   1.442   2.608  0.0309  0.6017  2.0965
 4050SOL    HW212867   1.662   1.556   2.675  2.1080  0.8704 -0.5780
 4051SOL     OW12868   5.730   2.514   6.121  0.0559 -0.0981 -0.4650
 4051SOL    HW112869   5.635   2.505   6.124  0.2000 -1.1814  1.8171
 4051SOL    HW212870   5.747   2.600   6.161  0.2097 -1.5761  2.8254
 4052SOL     OW12871   4.502   4.096   4.020 -0.5002  0.3504  0.2944
 4052SOL    HW112872   4.416   4.123   4.052 -0.8847 -0.6431  0.1370
 4052SOL    HW212873   4.550   4.069   4.099 -0.9791 -0.8260  0.1943
 4053SOL     OW12874   6.416   3.113   2.174  0.3612  0.0087  0.1135
 4053SOL    HW112875   6.426   3.076   2.086  0.1472  1.1846 -0.4105
 4053SOL    HW212876   6.328   3.086   2.201 -0.1612  0.9109 -0.6485
 4054SOL     OW12877   4.361   1.808   0.432  0.1331 -0.2750  0.4007
 4054SOL    HW112878   4.445   1.764   0.442 -0.4897 -1.2051  1.5661
 4054SOL    HW212879   4.296   1.740   0.447 -0.8359  0.6727  0.5744
 4055SOL     OW12880   2.698   5.133   2.268  0.2298  0.1008  0.7474
 4055SOL    HW112881   2.673   5.221   2.238 -0.0930 -0.2245  0.0652
 4055SOL    HW212882   2.688   5.078   2.191 -1.8680 -1.0045  1.7868
 4056SOL     OW12883   3.460   4.661   0.100 -0.2657  0.0117  0.3393
 4056SOL    HW112884   3.400   4.631   0.032  0.5004 -0.9311  0.0567
 4056SOL    HW212885   3.529   4.594   0.102 -0.5622 -0.2556  2.4123
 4057SOL     OW12886   3.931   1.609   4.942  0.1528 -0.0669 -0.2608
 4057SOL    HW112887   4.013   1.593   4.894  0.1654 -0.7130 -0.0270
 4057SOL    HW212888   3.939   1.554   5.020 -1.3640 -1.6459 -1.1882
 4058SOL     OW12889   4.458   2.732   6.584  0.2887 -0.0093 -0.0321
 4058SOL    HW112890   4.521   2.767   6.647 -0.1540 -1.1892  1.0896
 4058SOL    HW212891   4.379   2.717   6.635 -1.0854  1.8860 -1.5178
 4059SOL     OW12892   2.681   1.253   4.205 -0.2638 -0.3531  0.1244
 4059SOL    HW112893   2.710   1.225   4.292 -0.8100  0.5601  0.6082
 4059SOL    HW212894   2.696   1.177   4.149  1.6741 -0.3973  0.6597
 4060SOL     OW12895   2.466   0.005   6.485 -0.5311 -0.0523  0.5532
 4060SOL    HW112896   2.390   0.030   6.432  0.6282 -0.8199 -1.5455
 4060SOL    HW212897   2.523   0.082   6.482 -0.3871 -0.1599  0.5103
 4061SOL     OW12898   4.193   5.799   1.467 -0.3941  0.1032  0.3810
 4061SOL    HW112899   4.147   5.856   1.405 -1.5561  0.8349  1.8712
 4061SOL    HW212900   4.256   5.857   1.510  2.3733 -1.0300 -2.0645
 4062SOL     OW12901   2.792   0.803   5.290  0.1412  0.0619  0.4359
 4062SOL    HW112902   2.880   0.766   5.286 -0.4323 -1.0552 -2.9481
 4062SOL    HW212903   2.798   0.882   5.237 -1.5435 -1.4881 -2.1287
 4063SOL     OW12904   2.201   5.685   2.738 -0.0760  0.0021 -0.1210
 4063SOL    HW112905   2.217   5.767   2.785  0.8825  0.9108 -1.9532
 4063SOL    HW212906   2.111   5.692   2.707 -0.2051  0.0838  0.2775
 4064SOL     OW12907   3.348   3.619   2.002 -0.1756  0.2544 -0.0329
 4064SOL    HW112908   3.308   3.569   1.930  0.7787  2.4790 -2.1657
 4064SOL    HW212909   3.438   3.586   2.007 -0.3432 -0.1523  0.4212
 4065SOL     OW12910   2.096   4.843   1.303 -0.2730 -0.0238  0.0728
 4065SOL    HW112911   2.159   4.779   1.337 -0.5340  0.6258  1.8126
 4065SOL    HW212912   2.110   4.921   1.357 -0.9121  0.9271 -1.1235
 4066SOL     OW12913   5.447   4.944   1.469  0.3149  0.1901 -1.0840
 4066SOL    HW112914   5.368   4.969   1.516  1.7627  1.2641  0.8654
 4066SOL    HW212915   5.434   4.978   1.381 -2.0723 -1.0745 -1.2622
 4067SOL     OW12916   2.639   4.171   2.444 -0.2920  0.0905  0.4578
 4067SOL    HW112917   2.553   4.211   2.460 -0.0967  0.0076  1.7646
 4067SOL    HW212918   2.700   4.245   2.448 -0.0033 -0.2334  2.2308
 4068SOL     OW12919   5.817   1.970   5.996  0.1482  0.3904  0.7252
 4068SOL    HW112920   5.901   2.014   5.985  0.6987 -0.7926  0.1056
 4068SOL    HW212921   5.813   1.948   6.089  0.6743  0.1420  0.6889
 4069SOL     OW12922   1.919   1.447   2.382 -0.3781 -0.6996 -0.0821
 4069SOL    HW112923   1.922   1.514   2.450  1.0878  0.0650 -0.8662
 4069SOL    HW212924   1.864   1.485   2.313  1.4622  0.2788 -1.0719
 4070SOL     OW12925   0.239   4.194   3.384 -0.3017 -0.0512 -0.1569
 4070SOL    HW112926   0.232   4.104   3.354  1.3131 -0.2067 -0.0833
 4070SOL    HW212927   0.306   4.233   3.329 -0.4226  0.8861  0.3457
 4071SOL     OW12928   4.218   6.064   2.588  0.1230  0.0991  0.1325
 4071SOL    HW112929   4.219   6.131   2.656  1.5948 -0.4734  0.7168
 4071SOL    HW212930   4.285   6.093   2.525  0.6324 -0.7135  0.2942
 4072SOL     OW12931   4.352   5.360   3.653  0.6672  0.3233  0.1576
 4072SOL    HW112932   4.307   5.334   3.573  0.9004  2.7119 -0.7907
 4072SOL    HW212933   4.442   5.377   3.626  0.8664  0.6733  1.0177
 4073SOL     OW12934   6.524   2.994   6.204 -0.0991  0.0289 -0.4107
 4073SOL    HW112935   6.528   3.088   6.220 -1.4206  0.0220  0.0022
 4073SOL    HW212936   6.457   2.961   6.264  2.5314 -1.6768  1.7165
 4074SOL     OW12937   1.877   3.820   3.838  0.0943 -0.0239 -0.5237
 4074SOL    HW112938   1.827   3.854   3.764 -1.2439  0.6054  0.6412
 4074SOL    HW212939   1.886   3.896   3.896  1.2598 -0.4722 -0.1154
 4075SOL     OW12940   5.967   0.979   0.477 -0.1110 -0.1614 -0.2009
 4075SOL    HW112941   5.916   0.996   0.556 -0.0124 -1.4929  0.1607
 4075SOL    HW212942   5.959   0.885   0.463  0.5510 -0.0577 -1.3085
 4076SOL     OW12943   1.817   5.401   5.330 -0.0560 -0.1644 -0.3666
 4076SOL    HW112944   1.741   5.368   5.378  0.8753 -0.4930  0.9027
 4076SOL    HW212945   1.849   5.325   5.281 -0.3820 -0.0900 -0.6993
 4077SOL     OW12946   3.584   0.705   0.199 -0.1662 -0.0879 -0.7736
 4077SOL    HW112947   3.569   0.702   0.105 -2.8839 -1.0502 -0.3453
 4077SOL    HW212948   3.500   0.733   0.236  0.3209 -1.4892  1.4970
 4078SOL     OW12949   2.367   5.187   2.300  0.3556 -0.4130  0.4795
 4078SOL    HW112950   2.279   5.210   2.271  0.5406  0.0714  0.3007
 4078SOL    HW212951   2.381   5.098   2.267 -0.3185 -0.7569  1.0855
 4079SOL     OW12952   1.898   5.425   5.732 -0.1308  0.0005 -0.7622
 4079SOL    HW112953   1.933   5.370   5.662 -1.3933 -1.2713 -0.4209
 4079SOL    HW212954   1.961   5.415   5.804  0.3934  0.1409 -1.2001
 4080SOL     OW12955   5.218   6.304   2.551 -0.4741 -0.2154  0.2041
 4080SOL    HW112956   5.283   6.243   2.516 -0.7155  0.2724 -1.1413
 4080SOL    HW212957   5.181   6.260   2.627  0.9256 -0.7989  0.5617
 4081SOL     OW12958   5.482   0.409   2.325 -0.0962 -0.5577 -0.0820
 4081SOL    HW112959   5.552   0.473   2.315 -0.9728  1.1448  3.8807
 4081SOL    HW212960   5.527   0.328   2.349  0.5883  0.3156  1.6000
 4082SOL     OW12961   4.082   4.989   2.204 -0.3366 -0.6671  0.3283
 4082SOL    HW112962   4.009   4.987   2.266 -0.7154 -0.4285 -0.1082
 4082SOL    HW212963   4.083   5.080   2.172  1.3151 -0.1615  1.7219
 4083SOL     OW12964   2.686   0.269   3.757 -0.0165  0.0645 -0.1225
 4083SOL    HW112965   2.616   0.259   3.692 -1.2343 -0.3108  1.2205
 4083SOL    HW212966   2.641   0.299   3.836  1.6428  1.9234  0.1511
 4084SOL     OW12967   5.921   6.729   0.889 -0.1641 -0.7948 -0.2516
 4084SOL    HW112968   5.968   6.747   0.807  0.1695  0.7331  0.2516
 4084SOL    HW212969   5.925   6.634   0.899  3.4240 -0.6801  0.1006
 4085SOL     OW12970   4.109   1.914   1.538  0.6065  0.1404  0.0558
 4085SOL    HW112971   4.037   1.853   1.553 -0.3702  1.4338  0.7613
 4085SOL    HW212972   4.072   1.979   1.477  1.7309 -0.1550 -0.9468
 4086SOL     OW12973   6.346   2.533   3.565 -0.0546  0.0735  0.3953
 4086SOL    HW112974   6.279   2.482   3.612 -0.9190  0.8193 -0.0224
 4086SOL    HW212975   6.362   2.483   3.485  0.8701 -0.8026  1.1048
 4087SOL     OW12976   3.417   2.058   2.059  0.8246  0.6602 -0.5853
 4087SOL    HW112977   3.473   2.022   1.989 -0.3663 -0.5989 -0.9201
 4087SOL    HW212978   3.396   1.982   2.113 -0.4955  1.1389 -0.4219
 4088SOL     OW12979   3.516   2.326   2.067 -0.8638  0.5877  0.6535
 4088SOL    HW112980   3.593   2.306   2.121  0.7321 -0.1329 -1.7983
 4088SOL    HW212981   3.463   2.246   2.071 -0.7159  0.5072  1.0863
 4089SOL     OW12982   1.651   3.547   0.041  0.0884  0.3301 -0.3144
 4089SOL    HW112983   1.597   3.618   0.076 -1.0587 -0.6914  0.0476
 4089SOL    HW212984   1.596   3.506  -0.026 -0.1432 -1.5781  0.9963
 4090SOL     OW12985   2.965   0.414   0.302 -0.3087 -0.1914  0.3539
 4090SOL    HW112986   2.957   0.319   0.293  1.1050 -0.2531 -0.4476
 4090SOL    HW212987   2.949   0.430   0.395 -3.0335 -0.9148  0.0362
 4091SOL     OW12988   1.758   5.535   4.428  0.1034  0.4154  1.4116
 4091SOL    HW112989   1.720   5.464   4.376  2.8245 -0.7719  0.9388
 4091SOL    HW212990   1.758   5.501   4.518 -1.1836  0.9865  1.6446
 4092SOL     OW12991   0.242   0.399   5.511  0.1138  0.6256  0.4066
 4092SOL    HW112992   0.286   0.399   5.595 -0.8352  1.8471  0.9274
 4092SOL    HW212993   0.233   0.492   5.488 -1.9585  0.4143  0.2247
 4093SOL     OW12994   4.316   3.104   2.918 -0.3045  0.0783  0.5323
 4093SOL    HW112995   4.253   3.116   2.847 -2.4192 -1.4351  2.0688
 4093SOL    HW212996   4.269   3.133   2.996  0.4523 -2.2160  1.8865
 4094SOL     OW12997   3.462   1.602   6.267  0.0048  0.5234 -0.0505
 4094SOL    HW112998   3.395   1.553   6.219  0.6103  0.4734 -0.8529
 4094SOL    HW212999   3.538   1.544   6.268 -0.3066  0.1305  1.8136
 4095SOL     OW13000   4.320   0.781   5.743  0.3712 -0.0886 -0.2992
 4095SOL    HW113001   4.326   0.730   5.662  2.3330 -1.6256  0.7621
 4095SOL    HW213002   4.271   0.859   5.719  0.3396 -0.8423 -2.8153
 4096SOL     OW13003   1.113   5.788   3.711 -0.2329  0.4027  0.0040
 4096SOL    HW113004   1.097   5.878   3.681  2.2266  0.3693 -1.6492
 4096SOL    HW213005   1.188   5.796   3.770 -0.8399 -0.4117  0.9004
 4097SOL     OW13006   5.016   4.790   3.305  0.8480 -0.4257 -0.1700
 4097SOL    HW113007   4.948   4.762   3.367 -0.3560  2.0611 -0.2658
 4097SOL    HW213008   5.013   4.726   3.234 -0.3208 -1.2239  0.5837
 4098SOL     OW13009   3.158   4.448   6.086 -0.4944 -0.1677 -0.1136
 4098SOL    HW113010   3.073   4.406   6.071 -0.1415 -0.9934  0.1866
 4098SOL    HW213011   3.144   4.539   6.060 -1.6375 -0.1541  0.5003
 4099SOL     OW13012   2.927   4.628   1.992  0.3495  0.7669 -0.1340
 4099SOL    HW113013   2.981   4.562   2.035  0.2852  0.8573  0.0849
 4099SOL    HW213014   2.860   4.650   2.057 -1.0926 -0.7287 -1.0893
 4100SOL     OW13015   0.555   1.519   3.266 -0.4642 -0.1194 -0.2366
 4100SOL    HW113016   0.570   1.480   3.180  0.5386 -0.4225  0.0722
 4100SOL    HW213017   0.465   1.492   3.288 -0.5335 -0.4906 -0.9432
 4101SOL     OW13018   5.771   3.698   4.333 -0.4569  0.4127 -0.2841
 4101SOL    HW113019   5.735   3.727   4.249 -1.8666 -1.9026 -0.5347
 4101SOL    HW213020   5.830   3.626   4.309  1.3881  1.6292  0.4846
 4102SOL     OW13021   3.315   5.763   5.824  0.3579 -0.2877 -0.0367
 4102SOL    HW113022   3.326   5.669   5.810  0.8032 -0.3903  0.9132
 4102SOL    HW213023   3.399   5.792   5.859  0.7218  0.7619 -1.7669
 4103SOL     OW13024   5.523   5.414   6.560  0.4376 -0.1694 -0.2325
 4103SOL    HW113025   5.530   5.421   6.655  0.0980 -0.2911 -0.1967
 4103SOL    HW213026   5.576   5.486   6.526  0.8227 -0.3247  0.0446
 4104SOL     OW13027   6.055   5.534   6.650  0.2933 -0.0451  0.0293
 4104SOL    HW113028   6.097   5.591   6.715 -0.7501  0.2762  0.4366
 4104SOL    HW213029   6.119   5.528   6.579  0.7427  1.0067  0.3258
 4105SOL     OW13030   2.582   6.565   1.399  0.7072  0.2183  0.0556
 4105SOL    HW113031   2.635   6.641   1.375  3.4923 -0.9906  2.1170
 4105SOL    HW213032   2.587   6.507   1.323  2.0952  0.2719  0.0899
 4106SOL     OW13033   6.366   3.283   6.494  0.2804  0.6609  0.5911
 4106SOL    HW113034   6.349   3.376   6.507  0.8254  0.6436  1.4512
 4106SOL    HW213035   6.328   3.240   6.571 -2.3403 -0.1076 -1.0481
 4107SOL     OW13036   3.655   0.354   3.228 -0.3452  0.2073  0.2621
 4107SOL    HW113037   3.627   0.272   3.187 -1.1849 -0.0849  1.4011
 4107SOL    HW213038   3.689   0.328   3.314 -0.0598  0.9823  0.3888
 4108SOL     OW13039   3.671   3.465   2.536 -0.0360 -0.3350 -0.6212
 4108SOL    HW113040   3.759   3.494   2.556  0.0645 -0.8588 -0.2797
 4108SOL    HW213041   3.682   3.399   2.467 -0.1932 -0.1411 -0.8347
 4109SOL     OW13042   1.050   3.655   3.029  0.2960 -0.1423 -0.0816
 4109SOL    HW113043   1.094   3.601   3.095  1.4218 -0.2697 -0.9254
 4109SOL    HW213044   0.972   3.689   3.074  0.7153 -0.7368  1.1152
 4110SOL     OW13045   1.918   6.153   1.570  0.4088 -0.5098  0.1819
 4110SOL    HW113046   1.899   6.246   1.574 -2.2443 -0.9981  0.4419
 4110SOL    HW213047   1.911   6.123   1.661 -1.6199 -1.4267 -0.2367
 4111SOL     OW13048   5.192   3.369   4.040 -0.2522  0.6225  0.1138
 4111SOL    HW113049   5.111   3.318   4.039  0.0247  0.1678  1.0718
 4111SOL    HW213050   5.162   3.460   4.043 -0.7372  0.5275 -1.4948
 4112SOL     OW13051   6.523   6.416   0.318 -0.0350 -0.3727  0.0630
 4112SOL    HW113052   6.482   6.349   0.372  1.8559 -1.8481 -0.2717
 4112SOL    HW213053   6.485   6.403   0.231 -0.3964 -0.3715  0.2213
 4113SOL     OW13054   4.696   0.130   1.959  0.4075  0.5883 -0.2820
 4113SOL    HW113055   4.684   0.040   1.989  1.8498  0.9470  1.4647
 4113SOL    HW213056   4.636   0.139   1.885  0.5024 -1.9134 -0.7095
 4114SOL     OW13057   0.471   1.121   4.727 -0.1314 -0.5149  0.0045
 4114SOL    HW113058   0.449   1.090   4.639  0.7822  0.1676 -0.4672
 4114SOL    HW213059   0.547   1.068   4.752  1.3762  1.2302 -0.7624
 4115SOL     OW13060   3.871   1.023   6.735 -0.3761 -0.3028  0.1837
 4115SOL    HW113061   3.852   0.966   6.810  1.4775 -1.6410 -0.3300
 4115SOL    HW213062   3.784   1.051   6.704 -1.3498 -2.9687  0.3704
 4116SOL     OW13063   5.320   3.123   3.952 -0.6523  0.1672  0.9499
 4116SOL    HW113064   5.380   3.168   3.893  0.0856 -1.4126  0.4793
 4116SOL    HW213065   5.234   3.158   3.930 -0.0726  1.4650  0.7066
 4117SOL     OW13066   0.914   4.757   5.343 -0.2657 -0.7566  0.0054
 4117SOL    HW113067   0.888   4.696   5.274 -1.9536 -0.7996  0.6449
 4117SOL    HW213068   0.997   4.794   5.313 -0.1524 -1.9932 -1.2590
 4118SOL     OW13069   2.410   3.838   4.001 -0.4852 -0.2644  0.4417
 4118SOL    HW113070   2.344   3.782   3.958 -0.0127  0.1263 -0.8296
 4118SOL    HW213071   2.389   3.926   3.972  0.3233 -0.0835  0.3967
 4119SOL     OW13072   4.491   5.174   5.968  0.1467  0.4785 -0.2654
 4119SOL    HW113073   4.455   5.249   6.015  0.4695  1.1674 -1.1055
 4119SOL    HW213074   4.455   5.181   5.880  0.9077  0.1747 -0.6081
 4120SOL     OW13075   0.846   6.182   3.380 -0.2299 -0.6496  0.1721
 4120SOL    HW113076   0.754   6.187   3.405 -0.3558  0.3881 -0.4590
 4120SOL    HW213077   0.871   6.092   3.400 -1.0471 -0.6038  1.4861
 4121SOL     OW13078   6.415   1.278   2.468  0.0493  0.1961  0.4286
 4121SOL    HW113079   6.422   1.223   2.546 -2.4602  1.3886  1.5423
 4121SOL    HW213080   6.458   1.360   2.493 -0.2057  0.3530  0.3568
 4122SOL     OW13081   5.726   6.353   4.211 -0.5259  0.4701 -0.2825
 4122SOL    HW113082   5.657   6.419   4.224  0.2151  1.3205 -0.5592
 4122SOL    HW213083   5.715   6.326   4.120 -0.7579  0.3061 -0.2046
 4123SOL     OW13084   6.506   0.458   1.941  0.0229  0.3261  0.1939
 4123SOL    HW113085   6.412   0.466   1.924  0.6939  2.3255 -2.8209
 4123SOL    HW213086   6.539   0.408   1.867  1.7084  1.6451  0.0513
 4124SOL     OW13087   2.197   3.557   0.284  0.0866  0.2676 -0.4444
 4124SOL    HW113088   2.243   3.627   0.330  1.5925 -0.0056 -1.5025
 4124SOL    HW213089   2.151   3.509   0.354  1.4679  0.4990  0.6526
 4125SOL     OW13090   1.343   4.305   1.422 -0.1461  0.4953  0.8588
 4125SOL    HW113091   1.301   4.302   1.336  0.6151 -0.8804  0.5107
 4125SOL    HW213092   1.303   4.380   1.466  0.2529  1.9205 -1.1096
 4126SOL     OW13093   1.865   5.146   1.457  0.2482 -0.0168  0.1940
 4126SOL    HW113094   1.934   5.096   1.414 -0.7323 -0.4672 -0.8919
 4126SOL    HW213095   1.876   5.128   1.550 -0.8422 -3.2803 -0.2477
 4127SOL     OW13096   1.454   3.873   5.474 -0.1999  0.6582 -0.0647
 4127SOL    HW113097   1.443   3.954   5.524 -1.5016  1.0443 -0.9635
 4127SOL    HW213098   1.534   3.888   5.423 -0.2797  1.2603 -0.0178
 4128SOL     OW13099   0.845   2.630   5.605  0.1220  0.0826  0.0892
 4128SOL    HW113100   0.919   2.677   5.643 -0.3288  0.6348  0.2835
 4128SOL    HW213101   0.882   2.546   5.576  0.8595  0.4341  0.0094
 4129SOL     OW13102   5.518   2.117   5.106  0.4437  0.0507  0.1055
 4129SOL    HW113103   5.485   2.190   5.158 -0.7953  1.0301 -1.9510
 4129SOL    HW213104   5.613   2.119   5.117  0.2987  1.0715  1.2194
 4130SOL     OW13105   1.111   6.120   1.777  0.6208  0.2215 -0.6445
 4130SOL    HW113106   1.078   6.105   1.865  0.4379  0.5058 -0.6636
 4130SOL    HW213107   1.181   6.056   1.766  0.5745  0.1175 -0.3305
 4131SOL     OW13108   6.374   4.285   1.660 -0.4526 -0.0789 -0.2189
 4131SOL    HW113109   6.380   4.197   1.697  1.8684 -1.3028 -3.2480
 4131SOL    HW213110   6.435   4.337   1.712  1.9614 -1.5093 -1.5491
 4132SOL     OW13111   4.885   2.675   5.285  0.0424 -0.2195  0.2195
 4132SOL    HW113112   4.792   2.655   5.272 -0.3680  0.7825  1.5250
 4132SOL    HW213113   4.904   2.745   5.222 -0.0523 -0.5146 -0.1377
 4133SOL     OW13114   6.090   5.925   3.692  0.3152 -0.2956 -0.2473
 4133SOL    HW113115   6.101   5.854   3.629 -1.3026 -0.2780 -0.5874
 4133SOL    HW213116   6.064   6.000   3.639  0.9272  0.2533  0.2267
 4134SOL     OW13117   2.908   0.575   4.987  0.4223 -0.8438 -0.2883
 4134SOL    HW113118   2.840   0.516   4.953  0.2378 -1.4433  1.0983
 4134SOL    HW213119   2.875   0.603   5.072  1.3180 -0.0937 -0.1807
 4135SOL     OW13120   4.753   1.347   5.660  0.1211  0.3541  0.2799
 4135SOL    HW113121   4.829   1.333   5.603 -1.1627 -0.9315 -1.1436
 4135SOL    HW213122   4.791   1.368   5.746  2.0835 -0.8388 -0.2759
 4136SOL     OW13123   4.998   0.202   1.096  0.2695  1.0764  0.5874
 4136SOL    HW113124   4.949   0.128   1.057 -0.4714  1.1460  1.3694
 4136SOL    HW213125   5.076   0.162   1.133  1.0323  1.0125 -1.0140
 4137SOL     OW13126   3.358   3.237   6.081  0.4793 -0.0034 -0.3394
 4137SOL    HW113127   3.284   3.179   6.063  0.0296  0.3788  0.2535
 4137SOL    HW213128   3.385   3.268   5.995  1.5209 -2.0561 -0.7593
 4138SOL     OW13129   5.517   3.824   1.557  0.6468 -0.7684  0.0434
 4138SOL    HW113130   5.451   3.755   1.547  0.2254 -0.3412 -0.1156
 4138SOL    HW213131   5.567   3.822   1.476 -0.9359  0.7643 -1.0088
 4139SOL     OW13132   4.778   6.134   4.907  0.4541  0.6806  0.6123
 4139SOL    HW113133   4.685   6.154   4.910  0.0757 -1.0556  0.8927
 4139SOL    HW213134   4.789   6.089   4.823  0.8472 -0.0822  1.0784
 4140SOL     OW13135   6.450   4.865   6.720  0.3246 -0.2931  0.2371
 4140SOL    HW113136   6.508   4.807   6.770  2.2493  0.4119 -1.1499
 4140SOL    HW213137   6.508   4.922   6.671 -1.5487  0.7067 -0.9015
 4141SOL     OW13138   1.056   1.007   6.030  0.4688  0.6719  0.8533
 4141SOL    HW113139   1.132   0.952   6.012 -0.0184 -0.0811  1.0746
 4141SOL    HW213140   1.084   1.064   6.102  1.7087  2.2426 -0.8368
 4142SOL     OW13141   6.270   0.108   0.782 -0.0559  0.3123 -0.3087
 4142SOL    HW113142   6.208   0.065   0.722  0.9599 -1.5180 -0.1008
 4142SOL    HW213143   6.236   0.197   0.792 -1.6029 -0.0909 -1.6724
 4143SOL     OW13144   5.691   4.058   4.610 -0.0061  0.1395  0.4626
 4143SOL    HW113145   5.744   3.979   4.613 -0.9057 -0.5407 -1.1954
 4143SOL    HW213146   5.610   4.035   4.655 -0.3881  0.0354 -0.2841
 4144SOL     OW13147   0.181   1.563   2.766 -0.8866 -0.2353 -0.0785
 4144SOL    HW113148   0.261   1.511   2.754 -0.4725  0.3540  0.0925
 4144SOL    HW213149   0.121   1.532   2.699 -0.5211 -0.7078 -0.1823
 4145SOL     OW13150   4.427   4.782   3.401  0.2266  0.2400  0.7095
 4145SOL    HW113151   4.506   4.746   3.362 -1.4972 -0.5755 -2.1724
 4145SOL    HW213152   4.441   4.774   3.495  2.5137 -2.1800  0.2247
 4146SOL     OW13153   6.592   2.978   0.421 -0.0081  0.0014 -0.0950
 4146SOL    HW113154   6.519   2.938   0.468 -0.0080 -1.2562 -1.1411
 4146SOL    HW213155   6.566   3.070   0.408 -1.5246 -0.5112 -0.7125
 4147SOL     OW13156   3.729   3.602   2.806  0.1049 -0.3194  0.1556
 4147SOL    HW113157   3.810   3.634   2.767 -0.7432  1.3297 -0.2933
 4147SOL    HW213158   3.674   3.580   2.732  0.1750 -1.5449  0.4614
 4148SOL     OW13159   6.300   4.555   2.634 -0.4032 -0.2010 -0.1964
 4148SOL    HW113160   6.362   4.554   2.706 -0.3422  2.2770 -0.1602
 4148SOL    HW213161   6.215   4.568   2.675 -0.3262  1.6063 -0.5485
 4149SOL     OW13162   4.259   1.831   4.803 -0.1517 -0.1895  0.0255
 4149SOL    HW113163   4.245   1.737   4.813  2.0037 -0.5448  0.0612
 4149SOL    HW213164   4.354   1.840   4.794 -0.4738  1.8137 -1.8401
 4150SOL     OW13165   0.450   5.349   4.849  0.6117  0.0258  0.0738
 4150SOL    HW113166   0.503   5.352   4.928  0.9418  1.5427 -0.1979
 4150SOL    HW213167   0.514   5.354   4.777  0.2658 -0.6674 -0.2925
 4151SOL     OW13168   2.898   1.225   5.520 -0.1516 -0.1504 -0.0894
 4151SOL    HW113169   2.806   1.200   5.510  0.4514 -2.6219  0.2304
 4151SOL    HW213170   2.947   1.147   5.494  1.8182  0.3236  2.0448
 4152SOL     OW13171   3.884   5.101   4.031 -0.3584 -0.0950  0.3972
 4152SOL    HW113172   3.967   5.134   3.997 -0.7126  1.9501  1.4550
 4152SOL    HW213173   3.887   5.007   4.015  0.9718  0.3358 -2.0663
 4153SOL     OW13174   5.950   5.319   5.158 -0.0086  0.5797  0.4237
 4153SOL    HW113175   5.955   5.225   5.139  0.2849 -0.0778  3.4506
 4153SOL    HW213176   6.035   5.340   5.196 -0.2540  1.9662  0.2094
 4154SOL     OW13177   4.800   1.458   4.429 -0.3659  0.1484  0.8286
 4154SOL    HW113178   4.882   1.428   4.389 -0.3913  0.6316  0.4100
 4154SOL    HW213179   4.820   1.546   4.460 -0.0351 -0.5971  2.8180
 4155SOL     OW13180   3.952   2.267   0.768 -0.3297  0.3890  0.0973
 4155SOL    HW113181   3.867   2.295   0.803  0.4979  0.4069  2.1845
 4155SOL    HW213182   3.939   2.175   0.745 -0.5102 -0.0394  1.8463
 4156SOL     OW13183   2.284   5.918   1.081  0.1364 -0.3385 -0.8093
 4156SOL    HW113184   2.239   6.003   1.091  0.9235  0.2379 -2.0694
 4156SOL    HW213185   2.231   5.857   1.133 -0.8374  0.7801 -0.4587
 4157SOL     OW13186   4.749   3.298   2.423 -0.1052  0.5162 -0.0688
 4157SOL    HW113187   4.682   3.230   2.415  1.5220 -1.1813  0.3442
 4157SOL    HW213188   4.709   3.364   2.479 -0.7679 -1.3537  1.7142
 4158SOL     OW13189   4.769   1.303   2.807 -0.0105  0.1442  0.2513
 4158SOL    HW113190   4.749   1.339   2.721 -1.1432  1.3862  1.0164
 4158SOL    HW213191   4.795   1.378   2.860  3.2680 -0.9505  0.3086
 4159SOL     OW13192   2.573   5.105   5.486  0.2932 -0.0662 -0.2471
 4159SOL    HW113193   2.589   5.165   5.413  2.4881 -0.1679  0.1140
 4159SOL    HW213194   2.554   5.162   5.560 -0.6422  0.0831 -0.6010
 4160SOL     OW13195   2.773   5.230   6.621  0.0241  0.1201 -0.4372
 4160SOL    HW113196   2.782   5.311   6.672 -0.3750 -0.6585  0.9049
 4160SOL    HW213197   2.807   5.162   6.679  0.8601 -0.6145 -1.7703
 4161SOL     OW13198   5.103   4.295   1.828 -0.2552 -0.0520  0.6860
 4161SOL    HW113199   5.109   4.199   1.830  1.1497  0.0225  0.3753
 4161SOL    HW213200   5.087   4.316   1.736 -0.4373  0.0233  0.7347
 4162SOL     OW13201   2.394   0.817   1.333 -0.5496 -0.0480 -0.0289
 4162SOL    HW113202   2.357   0.738   1.371  1.7907 -0.9956  0.3799
 4162SOL    HW213203   2.347   0.888   1.376 -2.3480 -1.2030 -0.0574
 4163SOL     OW13204   0.317   2.143   0.490  0.1075 -0.5643 -0.3133
 4163SOL    HW113205   0.359   2.068   0.533  1.2003 -0.5160 -1.2812
 4163SOL    HW213206   0.292   2.110   0.404 -0.6024 -0.1842 -0.2571
 4164SOL     OW13207   5.972   0.849   2.783 -0.1743  0.0801  0.3174
 4164SOL    HW113208   6.054   0.897   2.792  1.0115 -1.6636 -0.8056
 4164SOL    HW213209   5.962   0.803   2.867  0.8319 -0.9341 -0.1020
 4165SOL     OW13210   0.372   2.859   5.834  0.8282 -0.0643  0.0819
 4165SOL    HW113211   0.334   2.834   5.919 -1.4721  0.5633 -0.7168
 4165SOL    HW213212   0.429   2.786   5.811  0.1356 -1.0380  1.3532
 4166SOL     OW13213   5.178   0.676   2.995 -0.3812  0.1666 -0.1590
 4166SOL    HW113214   5.174   0.636   2.908  0.1303  1.2758 -0.7014
 4166SOL    HW213215   5.094   0.719   3.006  0.6738  2.6473 -1.4043
 4167SOL     OW13216   5.304   4.902   5.854  0.2897  0.3250 -0.0282
 4167SOL    HW113217   5.374   4.967   5.853 -0.3473  1.0144 -0.4820
 4167SOL    HW213218   5.348   4.819   5.835  0.8213  0.9146 -1.4526
 4168SOL     OW13219   4.444   4.189   2.450  0.2275 -0.9029  0.0492
 4168SOL    HW113220   4.368   4.243   2.469 -0.0750 -1.9617  1.8985
 4168SOL    HW213221   4.455   4.133   2.527  2.9209 -0.7140 -0.1344
 4169SOL     OW13222   5.405   3.520   4.279 -0.0505  0.1896  0.1749
 4169SOL    HW113223   5.447   3.561   4.355 -2.6035  0.0586  1.7126
 4169SOL    HW213224   5.354   3.591   4.240 -1.0403 -0.4499  0.2997
 4170SOL     OW13225   6.096   4.022   6.241 -0.0642 -0.1700  0.0535
 4170SOL    HW113226   6.093   4.070   6.158  0.1858  1.1342  0.7860
 4170SOL    HW213227   6.187   3.995   6.250 -0.3346 -1.3273 -0.6628
 4171SOL     OW13228   5.503   0.061   5.904  0.0545  0.1573 -0.3528
 4171SOL    HW113229   5.579   0.105   5.942 -0.8554 -0.3753  2.1711
 4171SOL    HW213230   5.465   0.126   5.844  1.0013  1.3802  0.3568
 4172SOL     OW13231   2.652   4.732   4.093 -0.1674  0.0252  0.1072
 4172SOL    HW113232   2.637   4.809   4.147 -0.0323  1.3982 -1.7633
 4172SOL    HW213233   2.746   4.719   4.094 -0.1214  0.3352 -0.1746
 4173SOL     OW13234   4.074   3.448   5.897  0.1224 -0.0975 -0.7522
 4173SOL    HW113235   4.136   3.375   5.904  0.1505  0.0513  0.7213
 4173SOL    HW213236   4.043   3.445   5.806  1.7587 -0.6003 -1.3163
 4174SOL     OW13237   2.758   3.006   2.620 -0.0141 -0.1193 -0.2696
 4174SOL    HW113238   2.692   3.007   2.689  0.7414  0.4363  0.4452
 4174SOL    HW213239   2.732   3.078   2.561 -2.5350 -2.6205 -2.3758
 4175SOL     OW13240   4.494   1.141   5.126  0.1077  0.3884  0.3302
 4175SOL    HW113241   4.577   1.095   5.111  0.3676  0.1508  2.3420
 4175SOL    HW213242   4.519   1.234   5.131  0.4022  0.2466  1.7846
 4176SOL     OW13243   2.703   6.236   2.479  0.1744  0.1337 -0.3017
 4176SOL    HW113244   2.655   6.220   2.398  0.9900  0.0867 -0.7800
 4176SOL    HW213245   2.786   6.190   2.467 -0.2229 -0.9568  1.0928
 4177SOL     OW13246   3.748   2.267   4.657 -0.0379  0.0313  0.2183
 4177SOL    HW113247   3.659   2.298   4.675 -0.4114 -0.7108 -0.3541
 4177SOL    HW213248   3.755   2.184   4.704  1.2867  1.3941  2.5531
 4178SOL     OW13249   1.273   6.390   0.083  0.2904 -0.1488  0.0562
 4178SOL    HW113250   1.287   6.384  -0.011  0.0832  1.4098 -0.0835
 4178SOL    HW213251   1.337   6.454   0.113 -0.5953  0.4170  0.7621
 4179SOL     OW13252   2.778   6.255   0.428  0.5096  0.2898  0.2569
 4179SOL    HW113253   2.693   6.298   0.415 -0.4372 -1.7435 -0.5485
 4179SOL    HW213254   2.761   6.191   0.497  1.1902 -0.5864 -0.3739
 4180SOL     OW13255   5.177   5.179   2.958 -0.3168  0.0850 -0.6985
 4180SOL    HW113256   5.099   5.235   2.967  0.4962  0.7926  2.5981
 4180SOL    HW213257   5.143   5.090   2.962 -1.0851  0.3728 -0.6792
 4181SOL     OW13258   0.800   4.252   0.117 -0.1146  0.1310 -0.8451
 4181SOL    HW113259   0.878   4.307   0.117 -0.2885  0.3787 -0.9146
 4181SOL    HW213260   0.795   4.216   0.206  1.0660 -1.2842 -1.3476
 4182SOL     OW13261   3.232   2.431   3.650  0.0657 -0.0755 -0.0771
 4182SOL    HW113262   3.159   2.395   3.599 -0.6094 -0.1780  0.9347
 4182SOL    HW213263   3.287   2.355   3.669  1.4067  0.2723 -2.3461
 4183SOL     OW13264   0.849   5.400   2.133  0.0216 -0.1695 -0.4105
 4183SOL    HW113265   0.783   5.419   2.066  0.9953 -0.4899 -1.4717
 4183SOL    HW213266   0.797   5.371   2.208 -1.1633  1.5993 -0.5058
 4184SOL     OW13267   5.394   6.676   5.308  0.5354 -0.1430  0.2123
 4184SOL    HW113268   5.299   6.681   5.309  0.4985 -0.7615  1.9329
 4184SOL    HW213269   5.414   6.583   5.294  0.8940  0.0274 -0.4485
 4185SOL     OW13270   1.930   4.327   1.081  0.1928 -0.4121 -0.0885
 4185SOL    HW113271   1.901   4.262   1.017 -0.2278  0.1401 -0.4673
 4185SOL    HW213272   1.965   4.399   1.028 -0.0629  0.0062  0.3036
 4186SOL     OW13273   3.550   4.507   4.674  0.1014 -0.5774 -0.3547
 4186SOL    HW113274   3.493   4.480   4.745  0.8870 -1.8109 -0.1873
 4186SOL    HW213275   3.493   4.557   4.615 -0.6036  0.2619  1.0066
 4187SOL     OW13276   6.761   0.258   5.491  0.2309  0.1332  0.2595
 4187SOL    HW113277   6.712   0.321   5.544  1.0075 -0.5693  1.8476
 4187SOL    HW213278   6.851   0.288   5.496  0.4501 -0.4990  0.1496
 4188SOL     OW13279   1.308   1.112   3.932  0.2135  0.0930 -0.3328
 4188SOL    HW113280   1.231   1.139   3.981  0.4503  1.7662 -0.8219
 4188SOL    HW213281   1.371   1.183   3.945  1.5991 -1.1420 -0.1220
 4189SOL     OW13282   4.073   0.315   4.069 -0.1867 -0.0191 -0.2833
 4189SOL    HW113283   4.069   0.345   4.159 -1.1255  0.6866 -0.5568
 4189SOL    HW213284   4.108   0.226   4.075  2.7345  1.1298  0.5049
 4190SOL     OW13285   6.115   1.754   2.654 -0.0218 -0.5321 -0.5518
 4190SOL    HW113286   6.073   1.760   2.740  0.8193 -0.7666 -0.1104
 4190SOL    HW213287   6.126   1.845   2.627  1.0153 -0.3996  0.2578
 4191SOL     OW13288   4.681   0.144   6.696 -0.0288  0.1379  0.0748
 4191SOL    HW113289   4.591   0.121   6.721  0.4050 -1.4675  0.2251
 4191SOL    HW213290   4.670   0.207   6.625 -1.3091 -1.0072 -0.7902
 4192SOL     OW13291   1.979   5.213   4.593 -0.1590 -0.0380 -0.3577
 4192SOL    HW113292   2.035   5.222   4.669 -1.8501  2.4072  0.6852
 4192SOL    HW213293   1.992   5.295   4.544 -2.7768  0.5950 -0.0734
 4193SOL     OW13294   0.001   0.472   5.218 -0.0110  0.0893  0.0546
 4193SOL    HW113295   0.005   0.567   5.206  0.0623 -0.0335 -0.9551
 4193SOL    HW213296  -0.089   0.455   5.246  0.3091  0.5768  1.3900
 4194SOL     OW13297   1.084   4.134   6.360 -0.8714  0.4037 -0.1163
 4194SOL    HW113298   1.047   4.046   6.365  0.7894 -0.2619  1.1412
 4194SOL    HW213299   1.034   4.178   6.291 -2.8336 -0.9715  0.4047
 4195SOL     OW13300   4.773   4.607   0.342 -0.7998  0.2308 -0.0403
 4195SOL    HW113301   4.780   4.596   0.247 -0.3801  0.1336 -0.0020
 4195SOL    HW213302   4.681   4.590   0.362 -0.8044 -0.1379 -0.3786
 4196SOL     OW13303   2.599   1.222   6.358  0.6878 -0.4717 -0.0961
 4196SOL    HW113304   2.578   1.295   6.416  1.1407  1.6217 -2.4699
 4196SOL    HW213305   2.638   1.263   6.281  1.3123 -3.2665 -1.3366
 4197SOL     OW13306   5.476   3.769   2.452 -0.1536  0.1828  0.4525
 4197SOL    HW113307   5.539   3.727   2.393  0.2207 -1.4945  2.0047
 4197SOL    HW213308   5.495   3.862   2.445  1.8330 -0.2253  0.1285
 4198SOL     OW13309   0.209   3.372   6.212  0.0193 -0.4701 -0.0690
 4198SOL    HW113310   0.154   3.437   6.169  1.3468  1.5540  1.1775
 4198SOL    HW213311   0.159   3.344   6.289 -0.4509 -0.7418 -0.4732
 4199SOL     OW13312   4.143   2.079   4.760 -0.6419 -0.1734  0.7604
 4199SOL    HW113313   4.077   2.050   4.698  0.6571 -1.8529  0.1267
 4199SOL    HW213314   4.192   2.000   4.783  1.6302  1.1232  0.6275
 4200SOL     OW13315   1.433   0.462   0.167 -0.2551 -0.1189 -0.0910
 4200SOL    HW113316   1.504   0.525   0.178 -0.3235  0.0990 -0.9021
 4200SOL    HW213317   1.358   0.503   0.210  0.1636 -0.4627  0.9952
 4201SOL     OW13318   1.962   1.864   4.796  0.2063 -0.2787  0.2311
 4201SOL    HW113319   1.889   1.878   4.736  1.9531 -0.9194 -2.1129
 4201SOL    HW213320   1.977   1.950   4.836 -1.0385  0.1455 -0.1945
 4202SOL     OW13321   6.256   6.436   5.367  0.2115 -0.0046  0.2166
 4202SOL    HW113322   6.346   6.419   5.339 -0.5920 -3.2793 -0.6020
 4202SOL    HW213323   6.252   6.402   5.456 -0.5476 -1.2149 -0.2563
 4203SOL     OW13324   1.538   4.402   4.353 -0.0220  0.3109 -0.4540
 4203SOL    HW113325   1.599   4.466   4.318 -0.5515  1.0605 -0.0298
 4203SOL    HW213326   1.537   4.418   4.448 -3.9579  3.1321 -0.8237
 4204SOL     OW13327   5.842   3.211   3.758 -0.3478 -0.3506 -0.1473
 4204SOL    HW113328   5.788   3.214   3.837 -0.7170  2.0409 -0.4660
 4204SOL    HW213329   5.801   3.143   3.704 -1.4546 -0.3942  0.7202
 4205SOL     OW13330   2.948   0.691   0.232  0.3865 -0.5562  0.3699
 4205SOL    HW113331   2.912   0.608   0.261 -0.4062 -0.0452  0.8799
 4205SOL    HW213332   3.032   0.698   0.277  0.0772 -0.7017  0.9735
 4206SOL     OW13333   0.810   6.533   4.807  0.4109  0.2165  0.3515
 4206SOL    HW113334   0.773   6.583   4.880  1.6315  1.8541 -0.1032
 4206SOL    HW213335   0.834   6.600   4.742  1.0485 -1.0644 -0.7506
 4207SOL     OW13336   4.546   2.226   0.672 -0.4241 -0.3171  0.2140
 4207SOL    HW113337   4.516   2.140   0.641 -1.3705 -0.1433  0.6391
 4207SOL    HW213338   4.640   2.214   0.687  0.0883 -0.4031 -2.7007
 4208SOL     OW13339   5.420   2.130   1.238  0.1800 -0.0601  0.0288
 4208SOL    HW113340   5.413   2.101   1.329 -0.3389 -1.4003 -0.4247
 4208SOL    HW213341   5.496   2.188   1.237 -0.4869  0.8734  1.5392
 4209SOL     OW13342   4.314   4.235   1.885 -0.3931 -0.3964  0.0783
 4209SOL    HW113343   4.394   4.190   1.857  0.1234 -0.6241  1.8051
 4209SOL    HW213344   4.340   4.280   1.966 -1.0322  2.5747 -1.2838
 4210SOL     OW13345   6.561   3.264   2.825  0.6562  0.5125 -0.1313
 4210SOL    HW113346   6.615   3.333   2.786  2.0003  0.0413  0.8795
 4210SOL    HW213347   6.472   3.298   2.819  1.0595  1.3729 -1.6735
 4211SOL     OW13348   3.970   4.616   1.335  0.5923 -0.3187  0.2643
 4211SOL    HW113349   3.885   4.595   1.374 -0.7733 -0.3375 -2.6048
 4211SOL    HW213350   4.001   4.532   1.301  0.7875  0.0584 -0.4971
 4212SOL     OW13351   3.503   5.361   3.064 -0.3604 -0.0958  0.2708
 4212SOL    HW113352   3.434   5.338   3.125 -0.9060  0.2966 -0.1926
 4212SOL    HW213353   3.502   5.291   2.999 -1.9507  1.1413 -1.0810
 4213SOL     OW13354   0.874   4.555   2.395 -0.3551  0.2376  0.1551
 4213SOL    HW113355   0.948   4.495   2.395 -0.4602  0.1099  0.4100
 4213SOL    HW213356   0.814   4.520   2.328 -0.9007 -0.5331  1.0333
 4214SOL     OW13357   2.415   1.195   5.759 -0.3540  0.5796 -0.1691
 4214SOL    HW113358   2.427   1.128   5.825  0.5843  1.8602  0.9947
 4214SOL    HW213359   2.348   1.254   5.795 -0.9190  0.4725 -1.0192
 4215SOL     OW13360   1.953   5.973   6.202 -0.1209 -0.2294 -0.1249
 4215SOL    HW113361   1.959   5.967   6.297  0.7760  0.6545 -0.1191
 4215SOL    HW213362   1.860   5.991   6.185 -0.0084  1.2167  0.6901
 4216SOL     OW13363   3.195   4.057   3.644  0.7308 -0.2543 -0.8506
 4216SOL    HW113364   3.134   4.003   3.694  1.1820 -1.4847 -1.5948
 4216SOL    HW213365   3.167   4.047   3.553  1.1363  0.3566 -1.0457
 4217SOL     OW13366   4.896   0.536   4.828  0.3764  0.1060 -0.1280
 4217SOL    HW113367   4.978   0.584   4.814  0.8227 -0.6737 -0.2516
 4217SOL    HW213368   4.830   0.604   4.842  1.1209  0.7412  0.3875
 4218SOL     OW13369   4.453   2.013   2.966 -0.3111 -0.2930 -0.7923
 4218SOL    HW113370   4.496   2.074   3.027  0.5675  0.8574 -2.5010
 4218SOL    HW213371   4.360   2.032   2.976 -0.3612 -1.6908  1.7977
 4219SOL     OW13372   6.340   5.756   3.963  0.2371  0.1423  0.0849
 4219SOL    HW113373   6.303   5.676   3.926  0.5631  0.0309  0.0028
 4219SOL    HW213374   6.406   5.784   3.899  1.9708 -0.9450  1.3683
 4220SOL     OW13375   6.027   0.270   3.520 -0.5232 -0.3822 -0.2730
 4220SOL    HW113376   5.939   0.248   3.490  0.5998 -1.0149 -3.2582
 4220SOL    HW213377   6.085   0.212   3.470  1.6953  1.0921  0.5068
 4221SOL     OW13378   0.082   3.212   3.508  0.5188 -0.2669  0.1965
 4221SOL    HW113379   0.172   3.199   3.478  0.7384 -1.3184  1.2987
 4221SOL    HW213380   0.031   3.145   3.462  0.4903 -0.4254  0.4572
 4222SOL     OW13381   3.239   2.229   5.910 -0.1867 -0.5594  0.1301
 4222SOL    HW113382   3.195   2.313   5.910 -0.2933 -0.5879 -1.8534
 4222SOL    HW213383   3.283   2.225   5.824  1.4311 -1.6753  0.9752
 4223SOL     OW13384   2.255   3.256   4.269 -0.2500  0.4147 -0.0930
 4223SOL    HW113385   2.252   3.351   4.284 -0.7398  0.4581 -0.4277
 4223SOL    HW213386   2.318   3.245   4.198 -0.9495  0.5900 -0.7490
 4224SOL     OW13387   5.122   5.308   1.433  0.1547 -0.3123  0.4084
 4224SOL    HW113388   5.051   5.328   1.372  1.1739  2.6652  0.0833
 4224SOL    HW213389   5.200   5.303   1.377  0.6183 -0.8392  1.0903
 4225SOL     OW13390   1.455   5.306   6.124  1.0867  0.3988 -0.5989
 4225SOL    HW113391   1.380   5.247   6.129 -0.0858  1.8339 -1.1262
 4225SOL    HW213392   1.468   5.335   6.214  0.8361  0.3598 -0.5495
 4226SOL     OW13393   3.394   3.312   5.830 -0.4514 -0.1795  0.0814
 4226SOL    HW113394   3.433   3.297   5.744 -0.8293  0.7431 -0.2462
 4226SOL    HW213395   3.397   3.407   5.842 -1.5847 -0.2008  0.5290
 4227SOL     OW13396   3.160   2.798   2.461 -0.2101  0.0987 -0.2900
 4227SOL    HW113397   3.185   2.839   2.544  1.6953 -0.8810 -0.3452
 4227SOL    HW213398   3.112   2.865   2.415  0.1998  1.2410  0.9059
 4228SOL     OW13399   5.545   1.473   4.824  0.3694  0.3887  0.6452
 4228SOL    HW113400   5.530   1.504   4.734  0.2092  0.4831  0.7033
 4228SOL    HW213401   5.475   1.513   4.875 -0.0265 -0.3255  0.6686
 4229SOL     OW13402   4.051   6.453   5.292  0.4230  0.4024 -0.5479
 4229SOL    HW113403   3.959   6.429   5.302 -0.2217  1.5981 -3.2826
 4229SOL    HW213404   4.090   6.380   5.244  0.9106 -0.0605  0.5259
 4230SOL     OW13405   1.797   2.845   6.188  0.0792 -0.3845  0.4229
 4230SOL    HW113406   1.776   2.901   6.114  0.2463 -1.5133 -0.4917
 4230SOL    HW213407   1.721   2.851   6.246 -0.8316 -0.9086 -0.6983
 4231SOL     OW13408   4.096   5.465   5.506  0.2216  0.5677  0.1957
 4231SOL    HW113409   4.132   5.479   5.593 -1.7006  1.0404  0.9582
 4231SOL    HW213410   4.060   5.550   5.481  0.8936  0.4706 -1.1257
 4232SOL     OW13411   4.319   1.413   4.656  0.1963  0.1143 -0.9048
 4232SOL    HW113412   4.305   1.346   4.724 -2.2817 -1.6237 -3.0210
 4232SOL    HW213413   4.396   1.383   4.609  0.3549 -0.1084 -0.5093
 4233SOL     OW13414   6.576   2.595   4.540 -0.3733 -0.4024  0.0514
 4233SOL    HW113415   6.541   2.515   4.502 -0.2966  0.0356 -0.9510
 4233SOL    HW213416   6.550   2.664   4.480  0.6321  0.1621  0.2529
 4234SOL     OW13417   4.173   6.719   4.397 -0.0832 -0.1404 -0.4683
 4234SOL    HW113418   4.148   6.630   4.373 -0.2788 -0.2868  0.2535
 4234SOL    HW213419   4.105   6.747   4.459 -0.4623  0.8051 -1.3004
 4235SOL     OW13420   0.820   1.900   5.307 -0.4382  0.2393  0.4599
 4235SOL    HW113421   0.733   1.927   5.278 -1.1523 -1.4744  0.9667
 4235SOL    HW213422   0.820   1.915   5.402 -1.1948 -2.3921  0.9105
 4236SOL     OW13423   4.612   4.421   2.484 -0.0320 -0.6075  0.0148
 4236SOL    HW113424   4.566   4.337   2.483  0.9165 -1.1273 -0.3465
 4236SOL    HW213425   4.542   4.486   2.482 -0.7680 -1.3850 -0.0621
 4237SOL     OW13426   3.355   4.584   4.486 -0.0564 -0.2974  0.2953
 4237SOL    HW113427   3.316   4.638   4.418  0.8692 -0.3571 -0.2894
 4237SOL    HW213428   3.285   4.524   4.512 -0.8269  0.6058  0.3463
 4238SOL     OW13429   0.940   1.743   4.879 -0.1577  0.4939  0.2866
 4238SOL    HW113430   0.941   1.828   4.836  0.2832 -0.3718 -1.4368
 4238SOL    HW213431   0.990   1.686   4.821  0.2958 -0.7408  1.8598
 4239SOL     OW13432   1.367   0.760   1.685 -0.5322  0.8983  0.1631
 4239SOL    HW113433   1.275   0.745   1.666 -0.1806 -1.3462  0.0387
 4239SOL    HW213434   1.380   0.723   1.773  0.8351 -1.5850 -1.0038
 4240SOL     OW13435   5.457   4.216   6.024 -0.8022 -0.1206  0.8266
 4240SOL    HW113436   5.412   4.151   6.078 -0.5289 -1.4349 -0.4773
 4240SOL    HW213437   5.503   4.164   5.958  1.1099  1.2963  0.9983
 4241SOL     OW13438   3.354   0.613   1.771 -1.1064 -0.2134 -0.3002
 4241SOL    HW113439   3.382   0.611   1.680  0.5872  0.5128  0.1799
 4241SOL    HW213440   3.276   0.557   1.774 -0.3618 -1.3673 -1.9122
 4242SOL     OW13441   1.054   0.480   0.017  0.0261  0.2367  0.8410
 4242SOL    HW113442   0.999   0.415   0.060 -0.3126 -0.2866 -0.3678
 4242SOL    HW213443   1.060   0.552   0.080 -0.5044 -0.4926  1.7294
 4243SOL     OW13444   2.931   5.481   3.629 -0.1553 -0.2831 -0.1342
 4243SOL    HW113445   2.948   5.407   3.572 -1.0902 -0.7602  0.2033
 4243SOL    HW213446   2.980   5.554   3.590  0.1596 -0.8932 -0.8709
 4244SOL     OW13447   2.605   2.406   2.362  0.2419  0.1905  0.3746
 4244SOL    HW113448   2.637   2.316   2.356  0.1621  0.2003 -0.2374
 4244SOL    HW213449   2.660   2.455   2.301  1.3823  0.8735  1.9364
 4245SOL     OW13450   3.826   5.225   1.652  0.1585 -0.4917 -0.2891
 4245SOL    HW113451   3.756   5.216   1.587  1.2642 -1.4624 -1.3557
 4245SOL    HW213452   3.876   5.302   1.624  1.3142 -1.5782 -1.2459
 4246SOL     OW13453   4.909   0.734   0.266  0.0663 -0.3116 -0.0580
 4246SOL    HW113454   4.814   0.728   0.278  0.2165 -2.0174  0.4188
 4246SOL    HW213455   4.942   0.768   0.349  0.0331 -1.4265  0.4200
 4247SOL     OW13456   6.535   2.408   6.079  0.0918 -0.2213 -0.2141
 4247SOL    HW113457   6.535   2.470   6.006  0.2971 -1.0729 -0.9426
 4247SOL    HW213458   6.479   2.449   6.145 -1.2403 -0.0780 -1.4033
 4248SOL     OW13459   1.706   5.138   6.549 -0.6440  0.5183 -0.3204
 4248SOL    HW113460   1.663   5.063   6.508  1.4264  0.7491 -3.0027
 4248SOL    HW213461   1.771   5.100   6.608 -2.1997  0.2114  1.2401
 4249SOL     OW13462   6.054   6.657   3.732 -0.0199 -0.0796  0.1711
 4249SOL    HW113463   6.124   6.693   3.788 -0.2216  2.0092 -0.8783
 4249SOL    HW213464   6.088   6.665   3.643 -1.3507  0.4145 -0.3036
 4250SOL     OW13465   4.988   2.755   5.929 -0.2955 -0.8940 -0.6238
 4250SOL    HW113466   5.051   2.779   5.997  0.3803  0.5160 -1.7034
 4250SOL    HW213467   5.007   2.664   5.909 -1.4059 -1.7620  2.0019
 4251SOL     OW13468   3.769   0.487   3.639 -0.4295  0.0150 -0.3331
 4251SOL    HW113469   3.816   0.411   3.671  0.7931 -0.0247 -2.1233
 4251SOL    HW213470   3.679   0.457   3.628 -0.7093 -0.1564  2.2862
 4252SOL     OW13471   0.484   5.107   4.626 -0.2409 -0.2536 -0.2080
 4252SOL    HW113472   0.450   5.028   4.669  1.2098 -0.0247  1.4223
 4252SOL    HW213473   0.406   5.157   4.602 -1.1384 -1.5217  0.0049
 4253SOL     OW13474   4.553   2.816   2.934 -0.4665  0.3712 -0.0469
 4253SOL    HW113475   4.574   2.885   2.998 -1.3365  1.1602 -0.6099
 4253SOL    HW213476   4.477   2.771   2.972 -1.2264  1.0883 -0.7090
 4254SOL     OW13477   0.098   5.279   1.845 -0.3503 -0.6888  0.0737
 4254SOL    HW113478   0.031   5.251   1.784 -1.0809  0.6218  0.2657
 4254SOL    HW213479   0.052   5.290   1.928  0.1020  0.1915  0.2156
 4255SOL     OW13480   1.160   5.639   6.181 -0.4563  0.3181 -0.4752
 4255SOL    HW113481   1.110   5.566   6.219  1.2539 -0.6093  0.0335
 4255SOL    HW213482   1.159   5.706   6.250 -1.0323  0.3151 -0.4792
 4256SOL     OW13483   1.498   5.412   3.026  0.0331  0.1233 -0.7685
 4256SOL    HW113484   1.538   5.491   2.990  1.2643 -0.3516 -0.4498
 4256SOL    HW213485   1.491   5.430   3.120 -0.8004  0.3307 -0.8669
 4257SOL     OW13486   6.401   2.340   4.430 -0.4348  0.0267 -0.8081
 4257SOL    HW113487   6.406   2.277   4.358  1.1018 -1.4114  0.4908
 4257SOL    HW213488   6.388   2.285   4.508 -1.6314  1.5159  0.0673
 4258SOL     OW13489   3.795   2.442   4.411 -0.2533  0.2287  0.3945
 4258SOL    HW113490   3.878   2.447   4.457  1.5743 -1.0983 -2.6042
 4258SOL    HW213491   3.752   2.365   4.448  1.5304 -1.2794 -0.5803
 4259SOL     OW13492   1.973   5.604   1.906 -0.3945  0.9078  0.1954
 4259SOL    HW113493   1.976   5.521   1.859 -1.1329  0.9559  0.0507
 4259SOL    HW213494   1.885   5.638   1.888 -0.5296  1.1303  1.2726
 4260SOL     OW13495   3.890   0.987   3.259 -0.4206 -0.0431 -0.1272
 4260SOL    HW113496   3.796   1.001   3.261 -0.4758 -0.0758 -1.7010
 4260SOL    HW213497   3.928   1.071   3.283 -0.8342  0.2410 -0.4844
 4261SOL     OW13498   6.625   3.811   6.260 -0.2159 -0.1657 -0.8365
 4261SOL    HW113499   6.547   3.780   6.215 -0.0708 -0.3384 -0.9672
 4261SOL    HW213500   6.655   3.886   6.208  0.1319 -0.5586 -1.2035
 4262SOL     OW13501   4.306   4.378   6.448  0.4660  0.3987 -0.1470
 4262SOL    HW113502   4.358   4.345   6.376 -0.1122 -0.6135 -0.1025
 4262SOL    HW213503   4.292   4.303   6.505 -3.7305 -0.1837 -1.7340
 4263SOL     OW13504   6.618   6.712   3.565 -0.0693  0.2196 -0.4564
 4263SOL    HW113505   6.647   6.797   3.598 -0.9196  0.0903  0.6640
 4263SOL    HW213506   6.667   6.648   3.616 -0.4172  0.0292 -0.3572
 4264SOL     OW13507   1.607   3.473   6.373  0.4194 -0.6144 -0.1878
 4264SOL    HW113508   1.695   3.508   6.389  1.2030 -2.1957 -0.9210
 4264SOL    HW213509   1.551   3.551   6.367  1.7356  0.4035  0.4272
 4265SOL     OW13510   0.392   0.091   5.212  0.2334  0.2782 -0.5664
 4265SOL    HW113511   0.363   0.136   5.291 -0.2394  1.6372 -1.5024
 4265SOL    HW213512   0.423   0.161   5.154  3.2224 -0.9155 -0.5243
 4266SOL     OW13513   1.398   1.829   3.586  0.1502  0.0577  0.1822
 4266SOL    HW113514   1.401   1.923   3.566 -2.0227  0.3906  1.3164
 4266SOL    HW213515   1.342   1.822   3.663  0.7338 -2.1363  0.4478
 4267SOL     OW13516   6.680   4.767   5.492 -0.5103 -0.0749  0.3291
 4267SOL    HW113517   6.660   4.753   5.585  1.0504  0.8846  0.8235
 4267SOL    HW213518   6.774   4.785   5.490 -0.7684  1.1705 -1.3054
 4268SOL     OW13519   2.949   5.042   2.879  0.5262 -0.2714  0.1588
 4268SOL    HW113520   3.000   4.970   2.916  2.1624  0.5441 -0.4595
 4268SOL    HW213521   2.977   5.119   2.928 -0.0049  0.2266 -0.3130
 4269SOL     OW13522   6.521   3.593   6.553 -0.2774  0.2672  0.7536
 4269SOL    HW113523   6.578   3.608   6.477  1.0492 -0.2786  1.6132
 4269SOL    HW213524   6.432   3.606   6.520  0.4111  2.6317 -0.2584
 4270SOL     OW13525   1.647   3.667   4.868  0.0762 -0.1514 -0.0830
 4270SOL    HW113526   1.657   3.589   4.922  1.5984 -0.6420 -1.0201
 4270SOL    HW213527   1.627   3.633   4.781 -0.7592  0.5657 -0.1797
 4271SOL     OW13528   0.677   5.525   0.997  0.3608  0.2561 -0.0280
 4271SOL    HW113529   0.718   5.524   1.084  1.3499 -1.2854 -0.4833
 4271SOL    HW213530   0.725   5.458   0.947 -1.0059  0.2552 -1.3850
 4272SOL     OW13531   0.604   2.814   4.370  0.1220  0.2491  0.6864
 4272SOL    HW113532   0.596   2.897   4.323  1.6578 -0.5044 -0.9568
 4272SOL    HW213533   0.663   2.761   4.316  0.0619 -1.5042  2.2842
 4273SOL     OW13534   3.130   0.443   4.880  0.1476  0.6123  0.4530
 4273SOL    HW113535   3.198   0.508   4.860  0.4433  1.3653  3.7471
 4273SOL    HW213536   3.057   0.495   4.914 -0.4308 -0.6045  1.0665
 4274SOL     OW13537   4.130   6.527   1.704  0.4108  0.4566  0.4193
 4274SOL    HW113538   4.171   6.449   1.743 -0.3997  0.6425  1.6942
 4274SOL    HW213539   4.059   6.548   1.764 -0.3348  1.2803 -0.7407
 4275SOL     OW13540   5.366   3.193   0.380 -0.0397  0.2011 -0.6913
 4275SOL    HW113541   5.306   3.190   0.455  0.0568 -1.1747 -0.6513
 4275SOL    HW213542   5.331   3.129   0.319  2.0706 -1.5790 -0.1245
 4276SOL     OW13543   4.707   0.022   1.699 -0.0356 -0.1462 -0.6289
 4276SOL    HW113544   4.678   0.020   1.607  0.0225  0.3929 -0.6600
 4276SOL    HW213545   4.775   0.089   1.701  0.1916 -0.3880 -0.2556
 4277SOL     OW13546   3.699   2.900   5.311  0.0945 -0.2681  0.5228
 4277SOL    HW113547   3.750   2.954   5.372  1.1322 -2.3597  1.5835
 4277SOL    HW213548   3.654   2.837   5.367 -1.3947 -0.2795 -0.6578
 4278SOL     OW13549   5.801   5.789   3.380  0.1922 -0.7022  0.7126
 4278SOL    HW113550   5.888   5.810   3.345 -0.1273 -0.0245  0.3052
 4278SOL    HW213551   5.743   5.853   3.339 -0.3291 -0.4603  1.8090
 4279SOL     OW13552   3.516   0.069   4.966  0.2532  0.2630  0.2249
 4279SOL    HW113553   3.444   0.062   5.029 -1.0043 -1.1876 -1.3024
 4279SOL    HW213554   3.593   0.041   5.014 -0.1034  2.3719  2.0580
 4280SOL     OW13555   6.675   2.435   1.423  0.1175 -0.7288 -0.2942
 4280SOL    HW113556   6.643   2.515   1.381  0.1565  0.3878  1.7332
 4280SOL    HW213557   6.603   2.372   1.412 -2.0995  1.1539  2.5140
 4281SOL     OW13558   0.550   6.097   1.847 -0.1844 -0.1080  0.0208
 4281SOL    HW113559   0.589   6.183   1.835  2.3408 -1.1459  0.5479
 4281SOL    HW213560   0.624   6.038   1.862 -2.0002 -1.9929  2.0204
 4282SOL     OW13561   1.684   3.658   5.300  0.1137  0.2918  0.9082
 4282SOL    HW113562   1.775   3.642   5.326  0.4076  1.2128  0.4677
 4282SOL    HW213563   1.689   3.731   5.238 -0.7241 -0.9767 -0.6840
 4283SOL     OW13564   1.068   5.091   4.443 -0.3670  0.1007 -0.7059
 4283SOL    HW113565   1.048   5.175   4.401  0.1000  0.2793 -0.5807
 4283SOL    HW213566   1.012   5.090   4.522  0.5918  0.8941 -0.0022
 4284SOL     OW13567   6.201   2.165   3.963 -0.6009 -0.5594  0.6563
 4284SOL    HW113568   6.210   2.159   3.868 -0.7306  4.2368  0.2485
 4284SOL    HW213569   6.117   2.121   3.982 -0.6463 -1.4136 -1.4391
 4285SOL     OW13570   2.561   0.167   4.122 -0.4744  0.0263  0.2584
 4285SOL    HW113571   2.559   0.164   4.218 -0.0590  0.0700  0.2704
 4285SOL    HW213572   2.569   0.260   4.101 -0.0080 -0.0236  0.1970
 4286SOL     OW13573   5.276   0.946   5.361 -0.3204  0.5349 -0.0215
 4286SOL    HW113574   5.344   0.986   5.308  0.1990 -1.2730 -0.7815
 4286SOL    HW213575   5.212   0.914   5.297  0.5459 -2.0880  0.3494
 4287SOL     OW13576   1.104   0.271   5.976  0.1784 -0.1066  0.2753
 4287SOL    HW113577   1.096   0.339   5.910 -0.2268 -0.2866  0.1418
 4287SOL    HW213578   1.157   0.312   6.045  0.9647 -0.0651 -0.3463
 4288SOL     OW13579   3.309   0.795   5.402 -0.1247 -0.1356  0.1296
 4288SOL    HW113580   3.293   0.884   5.434  0.2320  0.6025 -1.7046
 4288SOL    HW213581   3.404   0.790   5.391 -0.2617 -0.3356 -0.9689
 4289SOL     OW13582   5.693   3.182   5.712  0.3921  0.2456 -0.2617
 4289SOL    HW113583   5.742   3.112   5.670 -1.0610 -0.8680 -0.1387
 4289SOL    HW213584   5.605   3.146   5.724  0.2060  1.3231  1.7477
 4290SOL     OW13585   2.410   0.500   5.833 -0.2749  0.2991 -0.5498
 4290SOL    HW113586   2.358   0.552   5.771 -1.2549  0.7902  0.6670
 4290SOL    HW213587   2.477   0.458   5.778 -0.1592  1.9363 -1.7296
 4291SOL     OW13588   0.902   3.162   4.452  0.2820  0.0344  0.6319
 4291SOL    HW113589   0.829   3.134   4.397  0.4416 -2.6943  1.7376
 4291SOL    HW213590   0.979   3.156   4.396 -0.1062  1.2501 -0.0352
 4292SOL     OW13591   4.704   0.307   5.251 -0.0127 -0.0935 -0.6021
 4292SOL    HW113592   4.675   0.364   5.322 -1.9343 -1.3657 -0.3347
 4292SOL    HW213593   4.794   0.335   5.233  0.2609  0.7205  1.8543
 4293SOL     OW13594   0.682   5.010   5.672  0.0375 -0.5143 -0.0820
 4293SOL    HW113595   0.739   4.942   5.635 -1.8335 -1.7315 -0.8239
 4293SOL    HW213596   0.717   5.026   5.759  0.4128 -2.5770  0.1655
 4294SOL     OW13597   3.805   1.768   0.826 -0.2213 -0.1743 -0.1987
 4294SOL    HW113598   3.822   1.842   0.768 -1.4410  0.4216  0.1759
 4294SOL    HW213599   3.820   1.690   0.772  2.5226  0.2990 -0.1902
 4295SOL     OW13600   0.772   1.900   0.880  0.3584 -0.4078 -0.0187
 4295SOL    HW113601   0.701   1.950   0.921  1.2999 -0.7005  2.0327
 4295SOL    HW213602   0.796   1.834   0.946  1.8017 -1.0035 -1.1160
 4296SOL     OW13603   5.251   2.117   3.732 -0.1275  0.1647  0.2687
 4296SOL    HW113604   5.259   2.208   3.702 -1.3793  0.2158  0.0760
 4296SOL    HW213605   5.182   2.079   3.678  0.2429 -0.8507  0.4904
 4297SOL     OW13606   2.013   1.448   6.439  0.4002  0.1978 -0.0160
 4297SOL    HW113607   2.048   1.535   6.417 -1.4065  0.6756 -1.1523
 4297SOL    HW213608   2.011   1.402   6.355 -0.9580 -0.0739  0.1596
 4298SOL     OW13609   1.498   3.677   3.393 -0.0133  0.1310 -0.4925
 4298SOL    HW113610   1.564   3.621   3.352 -0.2177  1.0071 -2.0767
 4298SOL    HW213611   1.547   3.730   3.455  0.4166 -0.7620 -0.0555
 4299SOL     OW13612   2.212   0.814   0.215 -0.4954  0.0660 -0.1595
 4299SOL    HW113613   2.169   0.875   0.275 -0.9646 -0.2245 -0.1920
 4299SOL    HW213614   2.141   0.783   0.158 -0.4778 -1.3582  0.5801
 4300SOL     OW13615   0.412   3.664   3.395 -0.1734 -0.0930  0.1526
 4300SOL    HW113616   0.365   3.741   3.428 -0.7721 -0.3457 -0.1013
 4300SOL    HW213617   0.395   3.596   3.459  1.1467  0.2408  0.8743
 4301SOL     OW13618   5.344   0.803   0.167 -0.0590 -0.4255  0.1287
 4301SOL    HW113619   5.334   0.859   0.244 -0.3688  0.3881 -0.4976
 4301SOL    HW213620   5.266   0.747   0.167 -0.4540  0.1256 -0.0440
 4302SOL     OW13621   2.462   5.305   4.988 -0.5380  0.4808 -0.2897
 4302SOL    HW113622   2.484   5.212   4.977 -1.2284  0.3898 -0.9131
 4302SOL    HW213623   2.407   5.307   5.067  0.9286  0.5943  0.7511
 4303SOL     OW13624   5.233   5.547   2.363  0.6557  0.1768  0.0280
 4303SOL    HW113625   5.298   5.477   2.366 -0.2657 -0.6720  0.1064
 4303SOL    HW213626   5.269   5.610   2.300  0.2712 -1.5840 -1.9889
 4304SOL     OW13627   3.854   1.674   2.381 -0.5963  0.0858 -0.0512
 4304SOL    HW113628   3.771   1.678   2.429 -0.2037 -1.9905  0.8552
 4304SOL    HW213629   3.910   1.618   2.434  0.9213  0.2887 -1.3874
 4305SOL     OW13630   6.231   3.894   1.320  0.0548  0.0209 -0.2350
 4305SOL    HW113631   6.293   3.822   1.308 -2.1739 -1.8376 -1.1308
 4305SOL    HW213632   6.211   3.894   1.413  1.2170  0.4710  0.0126
 4306SOL     OW13633   5.808   0.985   1.725  0.2031  0.2708  1.1006
 4306SOL    HW113634   5.776   1.036   1.800  0.4527  0.8993  0.7852
 4306SOL    HW213635   5.903   0.988   1.733  0.3100  2.0446 -0.3396
 4307SOL     OW13636   2.207   5.838   3.486  0.3187 -0.0815 -0.2858
 4307SOL    HW113637   2.165   5.753   3.501  2.3534 -1.1759 -0.6118
 4307SOL    HW213638   2.278   5.819   3.425  0.8100  1.8678 -0.3463
 4308SOL     OW13639   4.244   3.260   5.837  0.3908 -0.4071  0.3018
 4308SOL    HW113640   4.211   3.172   5.820  0.0856 -0.6412  2.0560
 4308SOL    HW213641   4.327   3.246   5.882  0.2869  0.2104  0.6806
 4309SOL     OW13642   0.993   5.148   0.177  0.1809 -0.1287  0.2006
 4309SOL    HW113643   0.996   5.178   0.268 -3.5393  1.1285 -0.0322
 4309SOL    HW213644   1.045   5.068   0.177  1.9256  0.9133  2.9816
 4310SOL     OW13645   1.526   2.881   6.316  0.1220  1.2629  0.4516
 4310SOL    HW113646   1.498   2.970   6.300 -0.4587  0.9960 -0.0260
 4310SOL    HW213647   1.518   2.870   6.411 -0.1078  1.6126  0.4732
 4311SOL     OW13648   0.913   3.260   0.931  0.6036  0.1482  0.2231
 4311SOL    HW113649   0.993   3.278   0.982  1.0240 -0.1786 -0.3184
 4311SOL    HW213650   0.907   3.334   0.870  0.6783  0.0001  0.0362
 4312SOL     OW13651   3.490   1.294   4.062  0.1232  0.0894 -0.0054
 4312SOL    HW113652   3.460   1.343   4.139 -1.5758  0.1169 -0.6719
 4312SOL    HW213653   3.436   1.326   3.990 -0.2806 -1.9939 -0.6698
 4313SOL     OW13654   4.168   4.736   4.286  0.5737  0.1082  0.0881
 4313SOL    HW113655   4.244   4.719   4.342 -0.7374 -1.4495  1.4865
 4313SOL    HW213656   4.158   4.831   4.288  1.8249  0.2460  0.7847
 4314SOL     OW13657   5.751   3.616   0.448 -0.6964  0.6460 -0.3137
 4314SOL    HW113658   5.769   3.532   0.405 -1.2850  0.1857  0.3315
 4314SOL    HW213659   5.838   3.654   0.462 -0.3751 -0.2427  0.1631
 4315SOL     OW13660   6.500   0.233   1.761 -0.4308 -0.0077  0.0397
 4315SOL    HW113661   6.571   0.173   1.785 -1.2596 -1.2459 -0.5078
 4315SOL    HW213662   6.524   0.264   1.673 -0.5128 -0.3410 -0.1008
 4316SOL     OW13663   1.883   4.078   3.949 -0.1329  0.0136  0.9156
 4316SOL    HW113664   1.954   4.055   4.009  1.3601  2.8414  0.3630
 4316SOL    HW213665   1.825   4.133   4.002 -0.5871 -0.2313  0.6711
 4317SOL     OW13666   5.969   5.207   6.478 -0.5927 -0.0381  0.5105
 4317SOL    HW113667   5.930   5.185   6.393  0.1706  0.5168  0.0052
 4317SOL    HW213668   5.974   5.124   6.524 -1.6080 -0.2417  0.2630
 4318SOL     OW13669   5.723   0.926   0.026 -0.4213 -0.4344  0.6057
 4318SOL    HW113670   5.772   1.007   0.028  2.8523 -2.0869 -4.0846
 4318SOL    HW213671   5.790   0.857   0.025 -2.9438 -2.9927 -0.0309
 4319SOL     OW13672   4.079   6.490   2.452 -0.2132 -0.5060  0.0475
 4319SOL    HW113673   4.171   6.513   2.468  0.0277 -0.9183 -0.7393
 4319SOL    HW213674   4.035   6.574   2.438  0.0900 -0.3240  0.1756
 4320SOL     OW13675   6.636   3.672   2.477 -0.4838 -0.3038  0.7167
 4320SOL    HW113676   6.593   3.649   2.394 -0.9959  0.6087  0.7251
 4320SOL    HW213677   6.717   3.715   2.451  0.0648 -1.3274  0.6998
 4321SOL     OW13678   3.509   6.035   3.219 -0.3927  0.3735  0.3396
 4321SOL    HW113679   3.544   6.072   3.300 -0.9138  0.6345  0.4467
 4321SOL    HW213680   3.585   6.029   3.161  0.1937 -0.7669  1.1914
 4322SOL     OW13681   4.259   0.931   0.930  0.7201  0.0633  0.0015
 4322SOL    HW113682   4.206   0.987   0.874 -1.1800 -1.1520  0.5490
 4322SOL    HW213683   4.338   0.983   0.948 -0.1162  1.7561 -1.0964
 4323SOL     OW13684   0.137   1.409   2.022  0.4940 -0.6135 -0.0537
 4323SOL    HW113685   0.066   1.472   2.014  0.8734 -0.1747  0.0215
 4323SOL    HW213686   0.103   1.341   2.081 -0.3811 -1.1458 -1.1558
 4324SOL     OW13687   6.549   0.172   3.845  0.3907 -0.2577  0.0260
 4324SOL    HW113688   6.472   0.142   3.797  0.4660 -0.0543 -0.2240
 4324SOL    HW213689   6.548   0.267   3.834 -0.3058 -0.0779  1.4901
 4325SOL     OW13690   1.758   3.597   3.243  0.3783 -0.0687  0.2842
 4325SOL    HW113691   1.773   3.618   3.151 -0.6053  0.7782  0.3027
 4325SOL    HW213692   1.809   3.661   3.291  0.9331 -0.5440  0.3249
 4326SOL     OW13693   5.836   1.197   3.422 -0.3581  0.5897  1.0472
 4326SOL    HW113694   5.806   1.109   3.442 -2.6510  1.0964  0.0902
 4326SOL    HW213695   5.914   1.185   3.368 -1.1093 -0.8898  0.2588
 4327SOL     OW13696   2.986   6.433   1.786 -0.0450 -0.3191  0.3353
 4327SOL    HW113697   2.984   6.402   1.695  0.0688 -0.4107  0.3654
 4327SOL    HW213698   2.930   6.371   1.833  1.2313 -1.2471  0.6458
 4328SOL     OW13699   5.247   3.336   5.336  0.3987  0.7452 -0.2292
 4328SOL    HW113700   5.239   3.273   5.264  1.0413  0.6069 -0.1784
 4328SOL    HW213701   5.156   3.353   5.363  0.1512  0.8689 -1.1340
 4329SOL     OW13702   0.749   1.635   4.525  0.0593 -0.2149  0.2159
 4329SOL    HW113703   0.754   1.569   4.594 -2.7012 -1.0148 -0.3181
 4329SOL    HW213704   0.751   1.718   4.572  1.6321 -0.6624  1.0014
 4330SOL     OW13705   6.592   2.016   2.992 -0.1874  0.0691 -0.0415
 4330SOL    HW113706   6.677   2.027   2.950 -0.7236 -2.6154 -1.9770
 4330SOL    HW213707   6.611   1.968   3.073  0.2548  0.5553  0.1458
 4331SOL     OW13708   0.165   0.007   1.849 -0.7920  0.2118  0.0930
 4331SOL    HW113709   0.143  -0.052   1.921 -1.7401  0.6878  0.2046
 4331SOL    HW213710   0.252   0.040   1.870 -0.5246 -0.6488  0.3552
 4332SOL     OW13711   6.706   1.145   3.403  0.1100  0.0054 -0.2071
 4332SOL    HW113712   6.677   1.127   3.492  0.1706  0.9521  0.0129
 4332SOL    HW213713   6.736   1.236   3.405 -0.8955  0.4004 -1.4309
 4333SOL     OW13714   1.286   1.501   3.639 -0.2759 -0.6426  0.2767
 4333SOL    HW113715   1.261   1.409   3.627  0.8853 -0.9940  0.4784
 4333SOL    HW213716   1.211   1.550   3.606 -0.8319 -1.6598 -0.0160
 4334SOL     OW13717   0.982   5.648   0.653  0.7174  0.5619  0.1686
 4334SOL    HW113718   0.970   5.718   0.589  1.7140  1.0086  0.4697
 4334SOL    HW213719   1.063   5.670   0.699  1.6676 -1.3826 -0.5026
 4335SOL     OW13720   3.938   6.666   2.955 -0.0850 -0.1506  0.2728
 4335SOL    HW113721   3.899   6.751   2.936 -0.0152 -0.0923  0.3921
 4335SOL    HW213722   4.020   6.664   2.906 -0.1618 -0.2116  0.1463
 4336SOL     OW13723   5.295   4.603   3.510  0.2998 -0.1075  0.1474
 4336SOL    HW113724   5.284   4.632   3.420 -2.1860 -0.1234  0.4172
 4336SOL    HW213725   5.376   4.645   3.540 -0.1468  1.8125 -1.3049
 4337SOL     OW13726   2.225   5.283   0.210 -0.2060 -0.0815 -0.5364
 4337SOL    HW113727   2.297   5.344   0.230  0.1467 -0.5800 -0.2730
 4337SOL    HW213728   2.154   5.339   0.179  0.3396  0.4074 -0.9127
 4338SOL     OW13729   5.761   3.132   5.286 -0.2076  0.0863  0.0406
 4338SOL    HW113730   5.730   3.163   5.201  1.7852  0.8755 -0.4243
 4338SOL    HW213731   5.853   3.158   5.289 -0.2778  0.1577  2.4872
 4339SOL     OW13732   5.314   5.465   6.069  0.9443  0.2831  0.3059
 4339SOL    HW113733   5.380   5.449   6.136  0.2626 -1.1885  0.6520
 4339SOL    HW213734   5.289   5.377   6.039 -0.6564  0.8263  0.0038
 4340SOL     OW13735   3.705   2.051   2.350 -0.2375  0.2133 -0.0268
 4340SOL    HW113736   3.645   2.121   2.375 -0.3293  0.2806 -0.4342
 4340SOL    HW213737   3.753   2.031   2.431 -1.6459 -0.6781  0.5948
 4341SOL     OW13738   1.060   5.986   1.172  0.3787  0.5184  0.5016
 4341SOL    HW113739   1.017   6.068   1.148  1.4238  0.3422 -2.1814
 4341SOL    HW213740   1.028   5.923   1.108  1.5309 -0.5577  0.9639
 4342SOL     OW13741   0.485   4.465   5.058  0.2919 -0.8085  0.7180
 4342SOL    HW113742   0.540   4.405   5.109  0.1985 -1.1122  0.4685
 4342SOL    HW213743   0.395   4.436   5.076  0.2631 -0.9766  0.3132
 4343SOL     OW13744   4.195   0.239   0.914  0.3794 -0.0604  0.3576
 4343SOL    HW113745   4.280   0.229   0.957 -0.0806  1.4387  1.6645
 4343SOL    HW213746   4.202   0.323   0.868 -0.2779 -0.1040  0.1740
 4344SOL     OW13747   3.655   3.275   2.350  0.3785 -0.2396  0.1986
 4344SOL    HW113748   3.709   3.221   2.292 -0.7100 -1.1221 -0.0182
 4344SOL    HW213749   3.565   3.262   2.318  0.1429  2.1015 -0.1603
 4345SOL     OW13750   2.460   2.210   3.302 -0.0577 -0.2455 -0.1036
 4345SOL    HW113751   2.394   2.173   3.361 -0.6016 -1.3507 -1.3731
 4345SOL    HW213752   2.409   2.253   3.233  0.5713  0.6148 -0.0496
 4346SOL     OW13753   5.518   1.544   0.163  0.0959  0.2157  0.2495
 4346SOL    HW113754   5.516   1.476   0.231 -0.4939 -0.1335 -0.1092
 4346SOL    HW213755   5.453   1.608   0.193 -1.1638 -0.6172 -0.6755
 4347SOL     OW13756   6.278   3.307   2.811 -0.6822  0.3985 -0.0511
 4347SOL    HW113757   6.254   3.216   2.795 -0.4130  0.6058 -1.7185
 4347SOL    HW213758   6.215   3.337   2.877  0.1448 -1.3848  1.5984
 4348SOL     OW13759   0.318   5.703   3.921  0.2626  0.1678 -0.2059
 4348SOL    HW113760   0.398   5.756   3.921  1.5955 -1.7386 -2.2910
 4348SOL    HW213761   0.347   5.615   3.946 -1.0696 -0.6285 -1.3620
 4349SOL     OW13762   1.094   3.977   0.720  0.0930  0.1358 -0.5260
 4349SOL    HW113763   1.189   3.993   0.724  0.1338  0.2345 -1.7949
 4349SOL    HW213764   1.079   3.946   0.631 -1.3238  1.7228 -0.8479
 4350SOL     OW13765   5.109   5.051   4.944  0.5780 -0.0285 -0.0709
 4350SOL    HW113766   5.166   5.057   5.021  0.2089  1.4377  0.0979
 4350SOL    HW213767   5.055   5.129   4.948  0.3771 -0.0709 -1.6826
 4351SOL     OW13768   4.005   5.826   6.527 -0.2325 -0.3178  0.3776
 4351SOL    HW113769   3.942   5.754   6.523 -2.1637  1.4196 -1.4700
 4351SOL    HW213770   3.952   5.903   6.549  1.4282  0.9546  0.0116
 4352SOL     OW13771   4.939   4.640   5.330  0.5591  0.1747 -0.2238
 4352SOL    HW113772   4.987   4.718   5.302  0.0007  0.4076 -0.5587
 4352SOL    HW213773   4.858   4.643   5.278  0.1027 -0.1092  0.4656
 4353SOL     OW13774   0.814   2.203   1.144  0.6417  0.7523  0.1635
 4353SOL    HW113775   0.885   2.257   1.179 -1.1956  2.4350  1.4281
 4353SOL    HW213776   0.754   2.266   1.103  0.2163 -0.7113 -1.5543
 4354SOL     OW13777   1.770   3.927   2.594 -0.0723 -0.3827 -0.5424
 4354SOL    HW113778   1.693   3.941   2.539  0.2816  1.5971 -0.5772
 4354SOL    HW213779   1.845   3.951   2.538  0.6307 -2.8228 -0.6945
 4355SOL     OW13780   0.061   6.219   6.711  0.3559  0.0974 -0.8931
 4355SOL    HW113781   0.109   6.190   6.633 -0.4628 -1.8237 -0.7325
 4355SOL    HW213782  -0.030   6.195   6.693 -0.2178  1.7861 -0.3166
 4356SOL     OW13783   1.687   4.539   6.076 -0.3567  0.0071 -0.2206
 4356SOL    HW113784   1.623   4.551   6.005 -0.0487 -2.1273 -0.9078
 4356SOL    HW213785   1.634   4.509   6.150 -0.1466 -2.2524 -0.9363
 4357SOL     OW13786   2.002   1.996   3.673 -0.0795  0.4565 -0.3021
 4357SOL    HW113787   1.908   2.009   3.660  0.3910  1.6636 -2.8285
 4357SOL    HW213788   2.014   1.995   3.768 -2.6780 -0.0237  0.0373
 4358SOL     OW13789   3.839   1.084   5.861 -0.0350 -0.5786 -0.1445
 4358SOL    HW113790   3.787   1.032   5.799  1.1832 -1.8684 -0.0959
 4358SOL    HW213791   3.921   1.036   5.870 -0.0912 -0.2662  2.2769
 4359SOL     OW13792   4.773   4.531   0.951  0.1233  0.1640 -0.1850
 4359SOL    HW113793   4.785   4.445   0.910 -0.3869 -0.1276  0.2756
 4359SOL    HW213794   4.699   4.519   1.010 -0.4938  1.1567 -0.7503
 4360SOL     OW13795   1.109   1.624   1.263 -0.1243  0.0845 -0.3078
 4360SOL    HW113796   1.024   1.583   1.249  0.4123 -0.7703 -1.1107
 4360SOL    HW213797   1.154   1.566   1.324 -0.1414  0.5829  0.1851
 4361SOL     OW13798   1.629   6.648   5.875  0.3712  0.2809  0.0952
 4361SOL    HW113799   1.670   6.588   5.938  0.9822  1.0699  0.4604
 4361SOL    HW213800   1.681   6.639   5.796  0.9115  0.8584  0.3788
 4362SOL     OW13801   0.793   6.081   1.640  0.6284  0.4790 -0.5319
 4362SOL    HW113802   0.884   6.100   1.619  1.0438 -1.4936 -0.6267
 4362SOL    HW213803   0.796   6.044   1.728  0.2255 -1.8407 -1.4612
 4363SOL     OW13804   4.499   1.917   5.893  0.1832  0.2849  0.2099
 4363SOL    HW113805   4.419   1.902   5.843 -0.7470 -1.7723  2.2158
 4363SOL    HW213806   4.515   2.011   5.887 -1.1406  0.3746 -2.0574
 4364SOL     OW13807   1.419   1.314   2.187  0.2191 -0.0887  0.2645
 4364SOL    HW113808   1.366   1.261   2.127  1.3187 -1.3005  0.3227
 4364SOL    HW213809   1.355   1.359   2.243 -0.7613 -0.7050 -0.3482
 4365SOL     OW13810   0.655   2.471   2.669 -0.2800  0.0491  0.6305
 4365SOL    HW113811   0.604   2.416   2.729  2.2377  0.1973  2.9687
 4365SOL    HW213812   0.600   2.548   2.654 -1.6692 -0.7891  1.3363
 4366SOL     OW13813   2.401   1.820   1.063 -0.0799 -0.3003  0.6438
 4366SOL    HW113814   2.351   1.882   1.010 -1.9114 -0.2261  2.4042
 4366SOL    HW213815   2.338   1.786   1.126  1.7578 -1.2843  1.9997
 4367SOL     OW13816   0.919   5.741   2.140  0.0503  0.3371 -0.3558
 4367SOL    HW113817   0.987   5.675   2.153 -2.1599 -1.7942  0.9054
 4367SOL    HW213818   0.877   5.715   2.058 -1.5390 -0.5225  0.7071
 4368SOL     OW13819   4.054   6.713   2.003  0.0838  0.0140 -0.2930
 4368SOL    HW113820   4.086   6.739   2.090 -0.6818 -0.4959  0.1490
 4368SOL    HW213821   4.070   6.789   1.948  1.8120 -0.1462 -0.0212
 4369SOL     OW13822   1.838   0.250   6.455 -0.1693 -0.4750  0.2771
 4369SOL    HW113823   1.798   0.186   6.396  0.1920 -0.3621 -0.0986
 4369SOL    HW213824   1.917   0.278   6.409  0.4945 -0.9030  1.1398
 4370SOL     OW13825   0.509   4.532   3.816  0.3416  0.2041 -0.1309
 4370SOL    HW113826   0.587   4.587   3.810  0.5087 -0.1506 -1.3356
 4370SOL    HW213827   0.538   4.446   3.786 -0.5977  0.1582 -0.9170
 4371SOL     OW13828   3.441   4.202   3.354 -0.2883  0.0100 -0.0551
 4371SOL    HW113829   3.461   4.292   3.379  0.5822 -0.1132 -0.3093
 4371SOL    HW213830   3.495   4.186   3.276 -0.4712 -0.7137 -0.0363
 4372SOL     OW13831   5.681   3.139   1.074 -0.1000 -0.2424 -0.0182
 4372SOL    HW113832   5.742   3.122   1.002 -0.8954  0.5810 -0.8959
 4372SOL    HW213833   5.627   3.060   1.077  0.1882 -0.4451 -0.0591
 4373SOL     OW13834   2.198   4.904   5.289  0.3657  0.0772 -0.2069
 4373SOL    HW113835   2.196   4.836   5.221  0.7696 -0.0935 -0.0460
 4373SOL    HW213836   2.175   4.984   5.242 -2.7250 -0.5654  0.0867
 4374SOL     OW13837   3.523   2.617   2.103  0.0732  0.1082  0.1105
 4374SOL    HW113838   3.436   2.641   2.135  0.0986 -0.5659  0.6909
 4374SOL    HW213839   3.516   2.524   2.080  0.5564  0.1280 -0.1361
 4375SOL     OW13840   1.602   0.924   2.695  0.0939  0.2863  0.1197
 4375SOL    HW113841   1.639   0.837   2.681 -1.2898 -0.2934 -0.0366
 4375SOL    HW213842   1.550   0.941   2.616  0.2463  1.1953  0.2077
 4376SOL     OW13843   5.859   3.619   2.002  0.0181  0.0674  0.4955
 4376SOL    HW113844   5.891   3.698   1.959 -2.7296  2.0731  1.9467
 4376SOL    HW213845   5.791   3.585   1.944 -2.2252  1.5973  2.1177
 4377SOL     OW13846   5.862   1.920   5.678  0.2231 -0.0770 -0.1875
 4377SOL    HW113847   5.852   1.838   5.630  1.4854  1.5344 -3.3495
 4377SOL    HW213848   5.935   1.904   5.737  1.6430 -0.7247 -2.0492
 4378SOL     OW13849   0.488   0.754   4.868  0.4821  0.1489 -0.3062
 4378SOL    HW113850   0.451   0.759   4.780  0.6346 -0.9091 -0.4312
 4378SOL    HW213851   0.562   0.814   4.866 -0.0869  0.8447 -0.6165
 4379SOL     OW13852   3.995   6.309   0.893  0.5095 -0.0160 -0.3969
 4379SOL    HW113853   4.059   6.378   0.907  0.0084  0.1570  1.1414
 4379SOL    HW213854   3.924   6.352   0.846  1.2804 -0.0832 -1.6352
 4380SOL     OW13855   3.816   5.286   0.102 -0.0087 -0.0009  0.0221
 4380SOL    HW113856   3.892   5.342   0.117  0.0391 -0.6249  2.2630
 4380SOL    HW213857   3.741   5.344   0.112  0.0795 -0.0744  1.1713
 4381SOL     OW13858   4.268   5.880   0.019 -0.0387  0.3986  0.0655
 4381SOL    HW113859   4.229   5.793   0.027 -0.6714  0.8412  1.9223
 4381SOL    HW213860   4.356   5.864  -0.015 -0.2503 -0.9425  0.1398
 4382SOL     OW13861   3.257   0.752   1.045 -0.6256 -0.0703  0.3287
 4382SOL    HW113862   3.216   0.744   0.959  0.0596  1.4931 -0.1591
 4382SOL    HW213863   3.324   0.819   1.034  1.2973 -1.7651  1.4131
 4383SOL     OW13864   3.299   4.289   6.547  0.3481  0.0345 -0.1109
 4383SOL    HW113865   3.348   4.257   6.622 -0.4608 -0.2581  0.3040
 4383SOL    HW213866   3.207   4.282   6.574  0.0631  0.1306 -1.0406
 4384SOL     OW13867   6.593   1.868   3.213 -0.0277  0.3677  0.0345
 4384SOL    HW113868   6.628   1.786   3.179  1.8041  0.2339  2.1598
 4384SOL    HW213869   6.499   1.852   3.222  0.2247 -1.2781 -0.1613
 4385SOL     OW13870   4.048   0.884   4.917 -0.1903 -0.2293 -0.8293
 4385SOL    HW113871   4.057   0.935   4.835 -0.5240 -0.4684 -1.0149
 4385SOL    HW213872   4.080   0.943   4.985 -2.4076  0.9777 -0.7879
 4386SOL     OW13873   5.970   6.016   3.162 -0.5777  0.3435 -0.0779
 4386SOL    HW113874   6.021   6.096   3.175 -0.0947 -0.2745  1.9958
 4386SOL    HW213875   5.885   6.046   3.132 -0.1956  1.6104  0.0890
 4387SOL     OW13876   6.250   6.007   0.069  0.0196 -0.1842 -0.0445
 4387SOL    HW113877   6.264   6.083   0.013 -0.7432  0.8528  1.1430
 4387SOL    HW213878   6.303   5.938   0.029  0.2148  0.7827 -1.5018
 4388SOL     OW13879   1.160   0.576   0.931  0.3060 -0.0387  0.3556
 4388SOL    HW113880   1.228   0.633   0.967  0.0198  0.0747  0.7234
 4388SOL    HW213881   1.136   0.618   0.848 -0.6282  0.9509  1.1154
 4389SOL     OW13882   1.786   0.760   1.603  0.4559 -0.7072 -0.1097
 4389SOL    HW113883   1.696   0.792   1.606  0.5198 -0.3976 -1.3108
 4389SOL    HW213884   1.841   0.839   1.603  0.6494 -0.8158 -1.6571
 4390SOL     OW13885   6.236   5.316   6.112  0.2561  0.0058  0.7021
 4390SOL    HW113886   6.234   5.382   6.042 -0.1288 -0.0587  0.6487
 4390SOL    HW213887   6.298   5.250   6.081 -0.7265 -0.5631 -0.0768
 4391SOL     OW13888   0.504   5.888   2.278 -0.4828  0.9934  0.9682
 4391SOL    HW113889   0.412   5.863   2.290 -0.8374  2.0782  0.5370
 4391SOL    HW213890   0.501   5.974   2.237  0.7309  0.6095  0.0252
 4392SOL     OW13891   0.704   6.177   5.117  0.7391 -0.1031 -0.2076
 4392SOL    HW113892   0.624   6.178   5.064  0.6184  0.3749 -0.0121
 4392SOL    HW213893   0.696   6.097   5.169 -0.2148  0.5782  0.7258
 4393SOL     OW13894   3.868   6.470   0.704 -0.0199  0.0273  0.1892
 4393SOL    HW113895   3.813   6.525   0.759  0.1339  1.5150 -1.1170
 4393SOL    HW213896   3.919   6.531   0.652  2.9235 -1.3399  1.3855
 4394SOL     OW13897   3.228   0.200   4.483 -0.6230 -0.6261  0.3541
 4394SOL    HW113898   3.286   0.163   4.550  0.9746 -0.6191 -1.0174
 4394SOL    HW213899   3.216   0.291   4.510 -2.0795 -1.2750  2.0360
 4395SOL     OW13900   4.787   4.621   0.048  0.2938  0.1120  0.2082
 4395SOL    HW113901   4.776   4.693  -0.015 -0.4230 -0.7738 -0.7076
 4395SOL    HW213902   4.881   4.614   0.061  0.3901  0.9815  0.0322
 4396SOL     OW13903   0.866   2.323   0.788 -0.3351  0.5310 -0.2006
 4396SOL    HW113904   0.839   2.381   0.859 -1.8766 -0.6262  0.1937
 4396SOL    HW213905   0.929   2.374   0.737 -0.1147  1.7965  1.3125
 4397SOL     OW13906   6.730   6.032   3.794  0.1435 -0.1796 -0.1633
 4397SOL    HW113907   6.639   6.014   3.818  0.7251  1.0949  3.2226
 4397SOL    HW213908   6.781   5.966   3.842  1.1858  0.8383  0.1542
 4398SOL     OW13909   4.878   1.187   6.549 -0.3354 -0.3528 -0.2949
 4398SOL    HW113910   4.891   1.278   6.574 -2.5060 -0.1932  0.3623
 4398SOL    HW213911   4.923   1.137   6.617 -0.2653  0.1891  0.0603
 4399SOL     OW13912   5.896   3.660   2.582 -0.7666  0.2963  0.1098
 4399SOL    HW113913   5.863   3.573   2.601  0.3751  0.0238  0.9302
 4399SOL    HW213914   5.849   3.688   2.504  0.8152 -2.1559 -1.7699
 4400SOL     OW13915   0.737   3.621   0.985  0.5070  0.0397 -0.2597
 4400SOL    HW113916   0.806   3.579   0.934  0.1723 -1.0425  0.1785
 4400SOL    HW213917   0.782   3.657   1.062  0.6278 -0.4099 -0.1209
 4401SOL     OW13918   5.920   5.931   5.539  0.1214  0.9938 -0.4248
 4401SOL    HW113919   5.991   5.948   5.477  1.2519 -2.0781 -0.0466
 4401SOL    HW213920   5.947   5.978   5.618  1.0720  0.9492 -0.7141
 4402SOL     OW13921   5.722   1.590   0.579  0.1812 -0.0916  0.1896
 4402SOL    HW113922   5.789   1.540   0.533  1.1827  0.4722  1.0045
 4402SOL    HW213923   5.768   1.669   0.609 -1.4411  1.4840 -1.3845
 4403SOL     OW13924   0.028   4.028   2.831  0.5077  0.4654  0.0144
 4403SOL    HW113925   0.114   3.999   2.803 -0.0829 -1.3086 -0.0382
 4403SOL    HW213926  -0.029   4.010   2.755 -0.4853 -1.3389  1.1361
 4404SOL     OW13927   6.645   4.481   4.161  1.0246 -0.0961  0.3250
 4404SOL    HW113928   6.702   4.432   4.102  0.6097 -1.5026  1.0796
 4404SOL    HW213929   6.637   4.567   4.120  2.5781 -0.3222 -0.4834
 4405SOL     OW13930   5.724   1.407   5.881  0.3276 -0.4407 -0.4646
 4405SOL    HW113931   5.802   1.461   5.871 -1.0128  1.6689  0.2323
 4405SOL    HW213932   5.734   1.367   5.968  0.0677  0.7959  0.1467
 4406SOL     OW13933   4.532   0.572   0.148 -0.2646  0.2173  0.1158
 4406SOL    HW113934   4.554   0.642   0.086 -1.3413  0.6623  0.2286
 4406SOL    HW213935   4.514   0.617   0.230 -0.1224 -0.2688  0.4130
 4407SOL     OW13936   5.979   0.151   3.262  0.4978 -0.0024 -0.0986
 4407SOL    HW113937   5.973   0.231   3.211  0.7958 -0.8434 -1.4602
 4407SOL    HW213938   5.899   0.150   3.316  2.0041  2.8255  2.3439
 4408SOL     OW13939   0.734   4.043   3.178  0.3125  0.7370  0.7086
 4408SOL    HW113940   0.809   4.095   3.151  1.5388 -2.3514 -2.1330
 4408SOL    HW213941   0.673   4.049   3.104 -0.6707  0.2360  1.4669
 4409SOL     OW13942   1.495   0.211   5.528 -0.8910 -0.3386  0.4610
 4409SOL    HW113943   1.552   0.248   5.460 -0.4263 -1.3685  0.2729
 4409SOL    HW213944   1.414   0.260   5.521  0.1316  1.4936  1.0467
 4410SOL     OW13945   4.891   5.670   2.658  0.2035 -0.2197  1.2469
 4410SOL    HW113946   4.929   5.664   2.570 -2.2858 -1.6138  0.1954
 4410SOL    HW213947   4.895   5.764   2.679  1.3657  0.0518 -0.0906
 4411SOL     OW13948   5.961   5.516   3.334  0.2779  0.5857  0.0501
 4411SOL    HW113949   5.948   5.604   3.371 -0.7057  0.2702  0.4698
 4411SOL    HW213950   5.881   5.499   3.285  0.9704  0.4046 -1.0382
 4412SOL     OW13951   6.208   6.762   5.474 -0.0008 -0.4495  0.1633
 4412SOL    HW113952   6.228   6.786   5.564 -2.5422  0.9367  0.4072
 4412SOL    HW213953   6.292   6.733   5.437  1.7476  2.1022  1.9703
 4413SOL     OW13954   4.452   4.131   3.171 -0.4239 -0.2140  0.3907
 4413SOL    HW113955   4.523   4.076   3.136 -1.8003 -2.7390  1.3982
 4413SOL    HW213956   4.497   4.207   3.208  1.4840 -0.2168 -1.8237
 4414SOL     OW13957   5.309   0.550   1.587  0.4241  0.0627 -0.1778
 4414SOL    HW113958   5.268   0.567   1.502  1.1608  1.7782 -0.1948
 4414SOL    HW213959   5.262   0.606   1.648 -0.2203 -1.2889  0.6133
 4415SOL     OW13960   4.937   1.953   0.590 -0.3080  0.2501  0.4516
 4415SOL    HW113961   4.954   1.967   0.683 -1.8529 -1.2433  0.9645
 4415SOL    HW213962   4.915   2.040   0.557 -0.0566  0.7383  1.5391
 4416SOL     OW13963   4.842   1.025   3.729 -0.4630  0.2809  0.0481
 4416SOL    HW113964   4.938   1.026   3.720 -0.4230 -0.5587  0.3566
 4416SOL    HW213965   4.826   1.035   3.823 -0.7567  2.9576 -0.2289
 4417SOL     OW13966   1.807   2.713   5.882 -0.1409 -0.5800  0.8939
 4417SOL    HW113967   1.889   2.721   5.832 -0.2206 -0.1531  0.8266
 4417SOL    HW213968   1.800   2.797   5.927 -1.3711  0.0068 -0.3571
 4418SOL     OW13969   1.070   4.046   5.132  1.0907  0.2497 -0.0712
 4418SOL    HW113970   1.137   4.096   5.180  1.6686  0.6675 -1.2860
 4418SOL    HW213971   0.989   4.096   5.147  1.6410  1.5095 -1.1729
 4419SOL     OW13972   4.966   1.683   5.126 -0.1468 -0.0480 -0.4608
 4419SOL    HW113973   5.016   1.764   5.113  0.3501 -0.4501 -1.0421
 4419SOL    HW213974   4.989   1.654   5.214  0.4290 -0.0867 -0.6254
 4420SOL     OW13975   5.245   3.345   3.159  0.3503 -0.1161  0.0883
 4420SOL    HW113976   5.250   3.370   3.251  0.5746 -0.9992  0.3189
 4420SOL    HW213977   5.317   3.393   3.117 -0.1795  0.8251  0.2387
 4421SOL     OW13978   5.857   2.953   4.608 -0.5458  0.5267 -0.2087
 4421SOL    HW113979   5.942   2.927   4.574  0.2604 -0.9666  2.7594
 4421SOL    HW213980   5.796   2.935   4.536  1.4481  0.6050 -1.9848
 4422SOL     OW13981   2.653   1.806   5.651  0.1028 -0.3212 -0.4414
 4422SOL    HW113982   2.671   1.757   5.732  1.6933  0.4852 -0.2824
 4422SOL    HW213983   2.560   1.827   5.656 -0.0671 -1.2390  0.6434
 4423SOL     OW13984   0.361   1.802   0.734  0.4294  0.1116  0.1069
 4423SOL    HW113985   0.432   1.842   0.683 -0.5913 -0.8594 -2.1425
 4423SOL    HW213986   0.299   1.771   0.668 -1.6927  0.1846  2.0141
 4424SOL     OW13987   6.220   5.913   6.556  0.0178  0.3012  0.2573
 4424SOL    HW113988   6.132   5.945   6.535 -0.0536  0.2279  0.4419
 4424SOL    HW213989   6.215   5.819   6.541  0.4958  0.4966 -1.2123
 4425SOL     OW13990   4.489   0.905   5.926 -0.4688 -0.8089  0.4941
 4425SOL    HW113991   4.437   0.850   5.867 -1.0289  1.4141 -1.1405
 4425SOL    HW213992   4.425   0.962   5.968  0.3987  0.4544  0.1218
 4426SOL     OW13993   6.404   1.883   0.457  0.1486 -0.5458  0.1164
 4426SOL    HW113994   6.500   1.883   0.462  0.0291 -0.7966  3.6227
 4426SOL    HW213995   6.378   1.967   0.495 -1.0371 -0.7331 -0.2532
 4427SOL     OW13996   6.642   4.409   1.204  0.4776  0.2266  0.0809
 4427SOL    HW113997   6.676   4.496   1.227  1.4379  0.0081 -0.4677
 4427SOL    HW213998   6.619   4.370   1.288  0.2575  0.9227  0.3516
 4428SOL     OW13999   6.653   0.763   0.993  0.1369  0.0615  0.2694
 4428SOL    HW114000   6.713   0.775   0.918 -0.9105  1.4418 -0.3716
 4428SOL    HW214001   6.710   0.767   1.070  0.9576  0.8257 -0.3623
 4429SOL     OW14002   2.664   4.530   6.580  0.0962  0.3397  0.3591
 4429SOL    HW114003   2.647   4.476   6.503 -0.7166  1.1363 -0.0306
 4429SOL    HW214004   2.580   4.533   6.626  1.0840 -1.8079  2.3712
 4430SOL     OW14005   2.004   5.515   0.548  0.3220 -0.2264  0.3817
 4430SOL    HW114006   1.919   5.472   0.555 -0.2159  0.7266 -0.2111
 4430SOL    HW214007   2.067   5.443   0.544 -0.2953 -0.9450  2.5090
 4431SOL     OW14008   2.105   1.458   2.690 -0.1569 -0.8130 -0.3547
 4431SOL    HW114009   2.150   1.397   2.630  0.5416  1.4869 -2.2473
 4431SOL    HW214010   2.051   1.512   2.633 -1.5621 -0.3184  1.4143
 4432SOL     OW14011   0.481   2.060   2.202 -0.3878  0.0897  0.3918
 4432SOL    HW114012   0.439   2.101   2.126 -0.4563 -1.2138 -0.2991
 4432SOL    HW214013   0.555   2.117   2.223 -0.5800  0.6491 -0.4440
 4433SOL     OW14014   0.084   1.575   4.244 -0.2485  0.1686 -0.1006
 4433SOL    HW114015   0.151   1.508   4.255 -2.6291 -2.3066 -0.0067
 4433SOL    HW214016   0.055   1.594   4.333 -1.7054 -0.9793 -0.3097
 4434SOL     OW14017   4.050   5.173   6.350 -0.2855 -0.0540  0.5190
 4434SOL    HW114018   4.067   5.183   6.256  2.1154 -1.7495  0.7283
 4434SOL    HW214019   4.004   5.089   6.358 -2.4174  1.0850  0.6993
 4435SOL     OW14020   2.040   6.696   3.470  0.1020  0.2902 -0.9702
 4435SOL    HW114021   1.964   6.669   3.522 -0.1971  0.7224 -1.1791
 4435SOL    HW214022   2.010   6.687   3.379  0.0399  1.2244 -1.0430
 4436SOL     OW14023   5.427   3.065   5.729 -0.0046  0.4230 -0.2719
 4436SOL    HW114024   5.475   3.049   5.648 -1.3344 -0.8442 -0.8184
 4436SOL    HW214025   5.350   3.009   5.724 -1.0546  1.6900  1.0526
 4437SOL     OW14026   3.933   5.865   0.950 -0.1285  0.6870 -0.6748
 4437SOL    HW114027   3.867   5.922   0.913 -0.5365  1.0732  0.6323
 4437SOL    HW214028   3.910   5.778   0.918 -0.5968  0.9824 -1.1455
 4438SOL     OW14029   4.818   4.412   0.542 -0.1900 -0.0140  0.5519
 4438SOL    HW114030   4.808   4.470   0.466  0.1919 -1.1628 -0.4012
 4438SOL    HW214031   4.736   4.362   0.545 -0.1375 -0.0847  0.7790
 4439SOL     OW14032   4.169   6.206   3.242 -0.0405 -0.6891  0.3716
 4439SOL    HW114033   4.245   6.196   3.298  1.9238  1.3652 -1.7940
 4439SOL    HW214034   4.156   6.300   3.235 -0.5400 -0.8923 -2.1358
 4440SOL     OW14035   5.595   6.729   4.795  0.1705 -0.4482 -0.0872
 4440SOL    HW114036   5.501   6.713   4.804  0.2120 -0.8853 -0.3822
 4440SOL    HW214037   5.636   6.671   4.860  0.1722  0.7257  0.9682
 4441SOL     OW14038   1.722   0.387   0.801  0.3870 -0.4461  0.4949
 4441SOL    HW114039   1.696   0.299   0.829 -1.4154 -0.1020 -0.0498
 4441SOL    HW214040   1.657   0.445   0.840  0.3215  0.4396 -0.9066
 4442SOL     OW14041   5.948   0.881   3.532  0.7364 -0.1447  0.7265
 4442SOL    HW114042   5.973   0.933   3.608  0.5964 -1.2443  1.5416
 4442SOL    HW214043   5.852   0.888   3.529  0.6763 -0.7031  1.1118
 4443SOL     OW14044   4.601   6.535   3.930  0.1215  0.5050  0.4283
 4443SOL    HW114045   4.655   6.489   3.994  0.0906  3.3148  2.5025
 4443SOL    HW214046   4.650   6.528   3.848  2.2008  0.5325  1.6603
 4444SOL     OW14047   5.942   1.476   5.352 -0.1691 -0.0510  0.2092
 4444SOL    HW114048   5.898   1.522   5.280 -0.1275  0.6577  0.6240
 4444SOL    HW214049   6.018   1.434   5.312 -0.1878  0.2806 -0.1733
 4445SOL     OW14050   0.777   0.236   0.758  0.3964 -0.4574  0.4383
 4445SOL    HW114051   0.782   0.144   0.785  3.0139 -1.5887 -3.4667
 4445SOL    HW214052   0.854   0.277   0.797 -0.0059 -0.1954  0.9831
 4446SOL     OW14053   4.150   5.400   5.937  0.2560  0.2254 -0.0088
 4446SOL    HW114054   4.069   5.442   5.966 -0.1960 -0.2698 -0.5264
 4446SOL    HW214055   4.216   5.429   6.000 -0.9603 -1.8357  2.3618
 4447SOL     OW14056   2.288   4.395   2.311  0.2618  0.1962  0.7549
 4447SOL    HW114057   2.302   4.487   2.335 -0.9530  0.4728  0.4471
 4447SOL    HW214058   2.325   4.387   2.223 -1.9664  1.0653 -0.2937
 4448SOL     OW14059   0.423   2.099   3.456  0.4608  0.2106 -0.0426
 4448SOL    HW114060   0.369   2.041   3.510  0.9321  0.1798  0.3986
 4448SOL    HW214061   0.501   2.116   3.509  1.4162 -0.6800 -1.1320
 4449SOL     OW14062   2.697   0.625   0.715 -0.4699  0.3206 -0.1382
 4449SOL    HW114063   2.663   0.626   0.805  1.0791 -1.7214  0.5101
 4449SOL    HW214064   2.711   0.533   0.696 -0.8696  0.7274 -2.5480
 4450SOL     OW14065   6.099   4.027   0.501  0.2638 -0.3811  0.1615
 4450SOL    HW114066   6.134   4.075   0.426 -2.6723 -0.3842 -1.2790
 4450SOL    HW214067   6.118   4.083   0.576  0.7115  0.9879 -0.9499
 4451SOL     OW14068   3.322   0.720   4.018 -0.0580  0.0398 -0.3123
 4451SOL    HW114069   3.293   0.643   3.970  3.6779 -0.6670 -1.5511
 4451SOL    HW214070   3.254   0.785   4.002 -2.4742 -2.4473 -0.5552
 4452SOL     OW14071   2.622   6.589   0.219 -0.6250  0.1544  0.2835
 4452SOL    HW114072   2.640   6.590   0.125 -2.5756  1.5391 -0.0841
 4452SOL    HW214073   2.709   6.597   0.260  0.0109  2.5213 -1.4292
 4453SOL     OW14074   2.486   2.091   1.744  0.6592 -0.2075  0.2730
 4453SOL    HW114075   2.490   2.056   1.655 -0.6199  1.4769 -0.4536
 4453SOL    HW214076   2.427   2.031   1.790 -1.2301  0.7302 -0.8694
 4454SOL     OW14077   0.168   2.168   3.668  0.8222  0.2679  0.1575
 4454SOL    HW114078   0.205   2.228   3.603 -2.5049  1.1393 -1.0585
 4454SOL    HW214079   0.073   2.171   3.652  0.0676 -0.8675  3.9178
 4455SOL     OW14080   5.217   2.374   4.649 -0.3377 -0.1377 -0.0444
 4455SOL    HW114081   5.194   2.414   4.733  0.3474  0.0716  0.0438
 4455SOL    HW214082   5.153   2.410   4.587 -0.2233  0.4826  0.1939
 4456SOL     OW14083   2.303   0.377   6.410 -0.0171 -0.1229  0.0240
 4456SOL    HW114084   2.389   0.399   6.373  0.1729  0.1050  0.5886
 4456SOL    HW214085   2.261   0.462   6.424  0.4185 -0.1305  1.5104
 4457SOL     OW14086   0.607   6.322   3.302 -0.2199 -0.1009 -0.0071
 4457SOL    HW114087   0.686   6.345   3.253  0.3608 -1.0358  0.4956
 4457SOL    HW214088   0.578   6.405   3.340  1.5332 -0.0837  1.3192
 4458SOL     OW14089   4.168   4.594   0.354 -0.1859 -0.0467 -0.3995
 4458SOL    HW114090   4.147   4.673   0.304 -1.4300  0.1526  0.4296
 4458SOL    HW214091   4.104   4.529   0.325 -0.3881 -0.1774  0.3369
 4459SOL     OW14092   0.395   3.863   3.844  0.3802 -0.0086 -0.2029
 4459SOL    HW114093   0.441   3.937   3.885 -0.6712 -0.1586  1.2547
 4459SOL    HW214094   0.312   3.900   3.815 -0.4593 -0.7836  1.1882
 4460SOL     OW14095   0.297   5.111   4.936 -0.8184  0.1740  0.3277
 4460SOL    HW114096   0.373   5.168   4.923  0.3682 -1.2578  0.8436
 4460SOL    HW214097   0.229   5.147   4.878  0.3689  1.2500 -0.4099
 4461SOL     OW14098   5.122   6.527   6.342  0.1047  0.2881  0.5466
 4461SOL    HW114099   5.140   6.435   6.361 -0.7806  0.2575  1.2935
 4461SOL    HW214100   5.159   6.542   6.255 -1.9662 -1.4356 -0.6686
 4462SOL     OW14101   6.216   0.813   0.414  0.3361 -0.3118  0.1761
 4462SOL    HW114102   6.270   0.888   0.391 -0.7239  0.8732  1.4729
 4462SOL    HW214103   6.167   0.793   0.334 -0.8983  1.6888  0.4049
 4463SOL     OW14104   4.416   1.487   0.936 -0.2725  0.1165  0.2357
 4463SOL    HW114105   4.425   1.581   0.946  2.3560 -0.0511 -0.3050
 4463SOL    HW214106   4.395   1.455   1.024 -0.8418  1.1427  0.4824
 4464SOL     OW14107   0.488   0.179   3.210 -0.2115 -0.1104 -0.1171
 4464SOL    HW114108   0.561   0.179   3.272 -1.0819  0.8110  0.9349
 4464SOL    HW214109   0.525   0.216   3.130  1.4451 -3.1808 -0.8179
 4465SOL     OW14110   4.197   5.749   4.884 -0.0498 -0.0078  0.4480
 4465SOL    HW114111   4.161   5.837   4.893  0.2689  0.2183 -0.4157
 4465SOL    HW214112   4.155   5.713   4.806  0.5606 -0.2527  0.2244
 4466SOL     OW14113   1.095   4.290   0.453 -0.5500  0.2407  0.0285
 4466SOL    HW114114   1.139   4.365   0.411 -0.1545 -0.2648 -0.4673
 4466SOL    HW214115   1.011   4.325   0.483 -1.0355  0.5012 -1.5866
 4467SOL     OW14116   4.169   3.215   4.006  0.1296 -0.1777  0.1587
 4467SOL    HW114117   4.086   3.196   3.963  0.1696  1.0563 -0.4941
 4467SOL    HW214118   4.235   3.187   3.943  0.1940  0.4251 -0.0462
 4468SOL     OW14119   1.840   6.225   4.162  0.3352 -0.2714  0.5404
 4468SOL    HW114120   1.867   6.142   4.201  0.3723 -0.5860 -0.1584
 4468SOL    HW214121   1.838   6.286   4.236 -0.8194 -1.1576  1.2495
 4469SOL     OW14122   5.666   3.274   1.570 -0.2939 -0.6248 -0.3567
 4469SOL    HW114123   5.737   3.272   1.635  1.3390  0.7803 -2.0394
 4469SOL    HW214124   5.711   3.274   1.485 -2.3172  0.1408 -1.4685
 4470SOL     OW14125   3.029   4.530   2.330  0.4498 -0.2413  0.2424
 4470SOL    HW114126   2.970   4.602   2.352  0.5375  0.2613 -1.1170
 4470SOL    HW214127   3.073   4.558   2.249  2.4335 -0.6843  1.1408
 4471SOL     OW14128   0.177   5.637   1.248 -0.1503  0.1769  0.4000
 4471SOL    HW114129   0.114   5.572   1.280  1.1464 -2.1880 -1.6157
 4471SOL    HW214130   0.124   5.704   1.205 -1.3636 -1.3713 -0.5768
 4472SOL     OW14131   2.728   3.674   1.837 -0.2321  0.5146  0.4656
 4472SOL    HW114132   2.695   3.596   1.881 -0.6148 -0.2870 -1.1858
 4472SOL    HW214133   2.806   3.644   1.790 -0.3296  1.1289 -0.1056
 4473SOL     OW14134   0.062   6.612   4.349 -0.1660  0.2937 -0.3042
 4473SOL    HW114135   0.025   6.526   4.328  0.9701 -0.2261 -0.2522
 4473SOL    HW214136   0.105   6.640   4.268 -1.1181  1.1316 -0.5244
 4474SOL     OW14137   0.593   1.569   5.882  0.4002  0.0543  0.9236
 4474SOL    HW114138   0.602   1.616   5.799  1.0325 -0.9542  0.4148
 4474SOL    HW214139   0.630   1.483   5.865 -0.2423 -0.4450  2.0162
 4475SOL     OW14140   1.915   0.566   3.833  0.5684  0.2868 -0.0227
 4475SOL    HW114141   1.883   0.539   3.747  0.9474 -0.5789  0.0978
 4475SOL    HW214142   1.837   0.563   3.889  0.0227  2.2580 -0.6350
 4476SOL     OW14143   0.642   3.493   3.638 -0.3230 -0.7406  0.5662
 4476SOL    HW114144   0.561   3.542   3.628  0.5284  0.5482 -0.2177
 4476SOL    HW214145   0.641   3.463   3.729 -1.0645  0.3720  0.9344
 4477SOL     OW14146   5.850   4.639   0.992  0.0370 -0.6792  0.9257
 4477SOL    HW114147   5.802   4.649   0.910 -0.3301 -2.3871  0.9149
 4477SOL    HW214148   5.891   4.725   1.006 -1.7517  0.3422  0.1584
 4478SOL     OW14149   4.234   1.471   6.760 -0.8148  0.1972 -0.3285
 4478SOL    HW114150   4.281   1.474   6.844 -0.5380  2.0228 -0.5350
 4478SOL    HW214151   4.195   1.384   6.758  1.2815 -0.8053  0.5602
 4479SOL     OW14152   3.903   1.031   4.338  0.1809 -0.2002  0.5986
 4479SOL    HW114153   3.857   1.103   4.295  1.1225  0.1782  0.2209
 4479SOL    HW214154   3.888   1.045   4.431  0.6163  0.6633  0.5432
 4480SOL     OW14155   1.056   1.580   2.445 -0.4079  0.1538  0.0769
 4480SOL    HW114156   1.056   1.485   2.429  0.5943  0.6138 -2.9717
 4480SOL    HW214157   1.046   1.619   2.359 -1.5083  2.8680  1.3713
 4481SOL     OW14158   3.001   4.758   0.369  0.5008  0.6290  0.3214
 4481SOL    HW114159   3.035   4.673   0.396  0.2512  0.0289 -1.2155
 4481SOL    HW214160   3.011   4.813   0.447  1.1445 -0.6528  1.1713
 4482SOL     OW14161   3.542   2.931   2.198 -0.0901 -0.2219 -0.4825
 4482SOL    HW114162   3.500   2.974   2.273 -0.4230  0.9747 -1.3378
 4482SOL    HW214163   3.613   2.990   2.173  1.6235 -1.8483  0.4448
 4483SOL     OW14164   0.657   2.210   0.678 -0.7844  0.2108  0.1646
 4483SOL    HW114165   0.589   2.272   0.701 -0.9899 -0.4118  1.3154
 4483SOL    HW214166   0.732   2.236   0.732 -0.8084 -0.4013  0.5025
 4484SOL     OW14167   5.388   3.294   1.504 -0.4232  0.9960 -0.3392
 4484SOL    HW114168   5.471   3.277   1.549 -2.1651 -1.1732  2.1500
 4484SOL    HW214169   5.386   3.230   1.432 -0.4391  0.3132  0.2701
 4485SOL     OW14170   2.567   3.486   4.331 -0.1026 -0.9200  0.0003
 4485SOL    HW114171   2.524   3.435   4.399 -0.8630  1.3201  1.2427
 4485SOL    HW214172   2.497   3.513   4.272  0.0500 -0.0397  0.2035
 4486SOL     OW14173   4.306   5.257   1.137 -0.9421 -0.0050  0.5852
 4486SOL    HW114174   4.277   5.195   1.070  1.7298  0.3779 -0.9806
 4486SOL    HW214175   4.273   5.342   1.106  0.4103  0.1943 -0.3816
 4487SOL     OW14176   0.629   3.155   3.224 -0.2416 -0.1588  0.3182
 4487SOL    HW114177   0.644   3.205   3.304  3.6586 -0.6915  0.0048
 4487SOL    HW214178   0.619   3.222   3.156  0.9818  0.2745  0.5499
 4488SOL     OW14179   5.650   3.430   5.316  0.0356 -0.6322 -0.2894
 4488SOL    HW114180   5.736   3.431   5.359  0.0166 -0.2229 -0.2558
 4488SOL    HW214181   5.668   3.394   5.229  0.0418 -1.6325  0.1215
 4489SOL     OW14182   2.810   4.969   1.575  0.3568 -0.0792  0.4889
 4489SOL    HW114183   2.854   5.032   1.518  0.4810 -0.0904  0.5731
 4489SOL    HW214184   2.861   4.968   1.655  1.2207 -1.3613 -0.0538
 4490SOL     OW14185   4.857   4.091   4.836 -0.0124  0.2562  0.1571
 4490SOL    HW114186   4.855   4.109   4.742  2.3924  0.8594  0.1759
 4490SOL    HW214187   4.863   3.996   4.842  3.5463  0.3533 -0.4776
 4491SOL     OW14188   3.885   4.131   0.661  0.0065  0.4657 -0.1741
 4491SOL    HW114189   3.943   4.094   0.594  1.8767  0.2762  1.5257
 4491SOL    HW214190   3.900   4.226   0.655  1.3635  0.3440  1.0145
 4492SOL     OW14191   3.580   2.828   3.729  0.2377 -0.0004  0.1515
 4492SOL    HW114192   3.579   2.865   3.817 -0.6846  2.7486 -0.9583
 4492SOL    HW214193   3.652   2.765   3.731  1.5536  1.4866  2.2903
 4493SOL     OW14194   2.000   2.795   4.291  0.4462  0.3706 -0.1036
 4493SOL    HW114195   1.984   2.881   4.329  0.7380  0.5379 -0.3529
 4493SOL    HW214196   2.042   2.745   4.361  0.5430  0.5245 -0.0515
 4494SOL     OW14197   4.717   1.642   0.164 -0.0094 -0.5150  0.3421
 4494SOL    HW114198   4.625   1.638   0.138 -0.5568 -0.1003  2.1383
 4494SOL    HW214199   4.722   1.717   0.222  1.3168 -0.9791  0.8437
 4495SOL     OW14200   2.546   4.696   1.234 -0.2699 -0.4907  0.0819
 4495SOL    HW114201   2.599   4.772   1.208 -0.0747 -0.8657 -0.6165
 4495SOL    HW214202   2.572   4.627   1.174 -0.6450 -1.0389  0.5488
 4496SOL     OW14203   4.739   4.353   0.020 -0.1174  0.3136 -0.3784
 4496SOL    HW114204   4.818   4.323  -0.026  0.6917  0.4172  0.9073
 4496SOL    HW214205   4.753   4.446   0.033 -1.0933  0.6081 -1.3598
 4497SOL     OW14206   4.477   5.686   4.774 -0.5975 -0.4954  0.3542
 4497SOL    HW114207   4.478   5.723   4.863 -0.8598  1.7860 -0.5640
 4497SOL    HW214208   4.391   5.710   4.739 -0.6421 -1.7102 -0.3911
 4498SOL     OW14209   3.466   2.882   3.197  0.3911 -0.5207 -0.2570
 4498SOL    HW114210   3.446   2.789   3.209  0.6023 -0.4135  0.9151
 4498SOL    HW214211   3.521   2.905   3.272  0.6292  0.4669 -0.7290
 4499SOL     OW14212   5.762   0.222   4.111 -0.2927  0.1875  0.3974
 4499SOL    HW114213   5.856   0.204   4.115 -0.4721 -0.8400  0.2080
 4499SOL    HW214214   5.752   0.306   4.156  0.6016 -0.1532  1.2631
 4500SOL     OW14215   1.662   5.808   4.769  0.1640 -0.9094  0.3739
 4500SOL    HW114216   1.701   5.894   4.786 -0.8743 -0.3557  0.0247
 4500SOL    HW214217   1.713   5.772   4.696 -0.2650  0.0076 -0.3881
 4501SOL     OW14218   1.182   3.351   4.269 -0.1886 -0.2035 -0.4816
 4501SOL    HW114219   1.272   3.382   4.261 -0.0415 -0.3390  0.5598
 4501SOL    HW214220   1.137   3.390   4.194  0.2203  1.7059  0.2215
 4502SOL     OW14221   4.705   5.098   2.305  0.3293 -0.2587 -0.1853
 4502SOL    HW114222   4.724   5.004   2.310  2.0817  0.1858  2.2662
 4502SOL    HW214223   4.611   5.103   2.320  0.6349 -1.4817  2.6217
 4503SOL     OW14224   6.056   2.802   5.191  0.3145  0.0098  0.1621
 4503SOL    HW114225   6.041   2.866   5.121  0.4115 -0.0556  0.0827
 4503SOL    HW214226   5.968   2.771   5.213  0.2604  0.2140  0.2431
 4504SOL     OW14227   0.489   4.824   1.689 -0.1396 -0.2929  0.2768
 4504SOL    HW114228   0.429   4.811   1.762  0.7159 -2.1184  0.6873
 4504SOL    HW214229   0.475   4.747   1.633  0.0053  0.5385 -0.9198
 4505SOL     OW14230   5.099   3.332   2.292 -0.7892 -0.1199 -0.4237
 4505SOL    HW114231   5.124   3.254   2.342  0.1860 -0.8364 -1.9871
 4505SOL    HW214232   5.163   3.337   2.221 -0.7966  2.1494 -0.3276
 4506SOL     OW14233   2.434   5.344   2.721  0.0970  0.1798  0.1655
 4506SOL    HW114234   2.511   5.402   2.722 -0.0562  0.3861  0.1723
 4506SOL    HW214235   2.376   5.381   2.788  0.0893 -0.1104  0.3199
 4507SOL     OW14236   4.664   0.006   3.660  0.1485 -0.6137  0.1409
 4507SOL    HW114237   4.695   0.035   3.746 -1.2788 -1.1794  0.8749
 4507SOL    HW214238   4.678   0.081   3.602  0.6505 -0.0471  0.9872
 4508SOL     OW14239   1.579   0.508   6.287 -0.0145  0.3375 -0.5643
 4508SOL    HW114240   1.615   0.430   6.245  0.5076  1.0191 -1.3750
 4508SOL    HW214241   1.564   0.481   6.378 -0.1962 -0.8234 -0.9341
 4509SOL     OW14242   5.662   3.578   1.764  0.0502  0.1713 -0.7043
 4509SOL    HW114243   5.578   3.534   1.767 -0.4012  0.8860 -2.4347
 4509SOL    HW214244   5.643   3.669   1.789  0.7895 -0.2984  1.7116
 4510SOL     OW14245   3.073   6.547   3.064  0.1150 -0.1152 -0.1550
 4510SOL    HW114246   3.161   6.582   3.072  0.7021 -1.4859 -0.4730
 4510SOL    HW214247   3.026   6.611   3.010  0.6644  1.0573  0.7650
 4511SOL     OW14248   1.837   2.629   5.065  0.2127  0.3048  0.0555
 4511SOL    HW114249   1.921   2.675   5.066  0.7484 -0.6327 -0.8128
 4511SOL    HW214250   1.773   2.696   5.088  1.1669  1.0835  0.5026
 4512SOL     OW14251   2.721   0.524   3.264  0.3835  0.4666 -0.1814
 4512SOL    HW114252   2.635   0.494   3.294  0.6162  2.2109  2.4313
 4512SOL    HW214253   2.707   0.614   3.236  1.3639  0.8240  0.4263
 4513SOL     OW14254   2.975   3.415   1.951 -0.1946  0.3742 -0.2051
 4513SOL    HW114255   3.036   3.346   1.927 -1.7250 -0.4627 -1.8397
 4513SOL    HW214256   2.975   3.474   1.876 -0.0144  1.3506  0.5590
 4514SOL     OW14257   2.389   4.599   3.049  0.0147 -0.1457 -0.2380
 4514SOL    HW114258   2.311   4.572   3.001  0.2700  0.8520 -1.2652
 4514SOL    HW214259   2.367   4.685   3.085  0.0297 -0.6388  0.9596
 4515SOL     OW14260   3.417   0.453   3.409  0.4689  0.3582 -0.0554
 4515SOL    HW114261   3.394   0.546   3.398 -0.5254  0.0938 -0.2283
 4515SOL    HW214262   3.459   0.449   3.495 -0.9358  0.7036  0.6697
 4516SOL     OW14263   0.263   3.874   6.186 -0.3120  0.6548 -0.1394
 4516SOL    HW114264   0.298   3.927   6.115 -1.1776  2.1537  0.5430
 4516SOL    HW214265   0.328   3.882   6.257  0.4859 -0.7335 -0.6913
 4517SOL     OW14266   5.900   3.543   1.630  0.3611  0.4653 -0.1207
 4517SOL    HW114267   5.920   3.537   1.723  1.7148 -1.7620 -0.5111
 4517SOL    HW214268   5.807   3.562   1.627  0.0310 -0.7050  1.7017
 4518SOL     OW14269   3.082   5.661   1.551 -0.7702  0.0546 -0.2862
 4518SOL    HW114270   3.156   5.701   1.597  1.0192 -0.1644 -2.8495
 4518SOL    HW214271   3.005   5.693   1.597  0.9372 -0.4953  3.0887
 4519SOL     OW14272   3.933   4.548   1.854 -0.2098  0.3625 -0.3343
 4519SOL    HW114273   3.988   4.482   1.896 -0.2245  2.0142  2.4125
 4519SOL    HW214274   3.901   4.602   1.926 -0.6467  3.0453 -2.4412
 4520SOL     OW14275   0.926   1.409   0.489 -0.2489 -0.0570  0.6153
 4520SOL    HW114276   0.916   1.390   0.582 -1.0044  1.4905  0.8673
 4520SOL    HW214277   1.020   1.408   0.474 -0.1583 -1.1927  1.1909
 4521SOL     OW14278   6.478   4.786   4.483 -0.0846 -0.1377 -0.8483
 4521SOL    HW114279   6.571   4.784   4.508 -0.1162  2.1739 -0.4037
 4521SOL    HW214280   6.437   4.719   4.538  1.4109 -1.6021 -1.4829
 4522SOL     OW14281   1.376   3.027   1.643 -0.3121 -0.1882  0.1406
 4522SOL    HW114282   1.384   2.974   1.722  0.1127  0.3161  0.4474
 4522SOL    HW214283   1.331   2.972   1.580 -0.9508 -0.4767  0.8518
 4523SOL     OW14284   1.585   0.185   3.344 -0.4761 -0.4645  0.4098
 4523SOL    HW114285   1.559   0.167   3.254 -0.1321 -1.0934  0.4372
 4523SOL    HW214286   1.511   0.157   3.397 -1.2469  1.1718  0.2411
 4524SOL     OW14287   4.298   1.659   5.144  0.6937  0.7430  0.0277
 4524SOL    HW114288   4.391   1.682   5.141  0.7764  0.4664  0.3309
 4524SOL    HW214289   4.278   1.654   5.237  0.3824  0.7753 -0.0391
 4525SOL     OW14290   4.132   2.199   6.746  0.2089  0.2753 -0.8326
 4525SOL    HW114291   4.113   2.278   6.796 -0.4342 -0.3092 -0.1328
 4525SOL    HW214292   4.178   2.230   6.668 -0.9396  1.4310 -1.0675
 4526SOL     OW14293   4.104   2.501   0.992 -0.4722 -0.3560 -0.5022
 4526SOL    HW114294   4.172   2.454   1.039  2.4671  0.7588 -3.4489
 4526SOL    HW214295   4.065   2.436   0.934 -1.1590 -0.7207  0.3568
 4527SOL     OW14296   6.535   6.323   2.955  0.2013 -0.3996 -0.3514
 4527SOL    HW114297   6.564   6.248   2.903 -0.3077  0.5662 -2.0797
 4527SOL    HW214298   6.616   6.371   2.975  0.3036 -0.2385 -1.1315
 4528SOL     OW14299   3.269   0.717   4.540 -0.3818 -0.7427  0.4614
 4528SOL    HW114300   3.264   0.743   4.448 -1.6590 -2.1219  0.1144
 4528SOL    HW214301   3.313   0.789   4.584  0.8848 -0.3913 -1.3594
 4529SOL     OW14302   2.152   2.390   2.188  0.3973  0.0048 -0.0796
 4529SOL    HW114303   2.166   2.299   2.212  0.4850 -0.3299 -1.3979
 4529SOL    HW214304   2.239   2.425   2.169  0.4073  0.4750  0.7900
 4530SOL     OW14305   4.433   1.688   4.541  0.0218 -0.2751  0.3385
 4530SOL    HW114306   4.339   1.670   4.547 -0.1018  0.7589  1.6868
 4530SOL    HW214307   4.459   1.650   4.457 -2.2595  2.2417 -1.6060
 4531SOL     OW14308   6.413   5.848   1.862 -0.0615  0.6628 -0.1828
 4531SOL    HW114309   6.393   5.756   1.879 -1.0995  0.7760 -0.7493
 4531SOL    HW214310   6.507   5.849   1.844  0.0726 -0.1993  0.4282
 4532SOL     OW14311   2.866   4.609   5.601 -0.1514  0.3745  0.4338
 4532SOL    HW114312   2.781   4.648   5.621  1.1532  1.9218  3.3465
 4532SOL    HW214313   2.886   4.553   5.676  2.2371  1.5884  0.7804
 4533SOL     OW14314   3.588   4.004   0.621  0.4460  0.2564 -0.0130
 4533SOL    HW114315   3.676   4.033   0.600  1.3677 -0.7753  2.3050
 4533SOL    HW214316   3.586   3.912   0.592  0.1109  0.3084 -0.1555
 4534SOL     OW14317   4.435   1.209   2.046  0.1063  0.6042 -0.5704
 4534SOL    HW114318   4.351   1.206   2.000 -0.5041  1.9486  0.4313
 4534SOL    HW214319   4.453   1.302   2.058  1.8301  0.3348 -0.9134
 4535SOL     OW14320   6.650   6.116   5.599  0.3018 -0.2898 -0.2691
 4535SOL    HW114321   6.562   6.120   5.563  0.1274  1.0781  0.3220
 4535SOL    HW214322   6.703   6.166   5.537 -0.0365  2.2804  1.4716
 4536SOL     OW14323   4.486   1.017   4.191  0.3304  0.3143  0.6812
 4536SOL    HW114324   4.459   0.927   4.175  2.0662  0.3423 -2.9332
 4536SOL    HW214325   4.577   1.010   4.220  0.1753  0.8910  1.3374
 4537SOL     OW14326   0.626   5.104   0.466 -0.0241  0.5338 -0.1729
 4537SOL    HW114327   0.543   5.073   0.430 -0.0662  1.7767 -1.1801
 4537SOL    HW214328   0.608   5.118   0.559 -0.0312 -2.2733  0.2869
 4538SOL     OW14329   6.093   1.071   6.518  0.7229 -0.3912 -0.2580
 4538SOL    HW114330   6.051   1.150   6.552  2.1270  0.9702 -1.5989
 4538SOL    HW214331   6.020   1.015   6.489 -0.3491 -0.2708  2.1056
 4539SOL     OW14332   0.131   2.668   1.993  0.3606 -0.2013 -0.3840
 4539SOL    HW114333   0.060   2.615   1.958  0.5290 -0.1177 -0.8537
 4539SOL    HW214334   0.088   2.740   2.038  0.0761 -1.8484  2.0633
 4540SOL     OW14335   2.865   6.521   3.454  0.5156  0.3529  0.3196
 4540SOL    HW114336   2.896   6.487   3.538 -0.8021 -1.6412  0.0322
 4540SOL    HW214337   2.791   6.578   3.477 -0.0361 -0.4278  0.5194
 4541SOL     OW14338   6.199   2.253   3.457 -0.1188 -0.5224 -0.4263
 4541SOL    HW114339   6.189   2.272   3.364 -0.1292 -0.4727 -0.4149
 4541SOL    HW214340   6.171   2.162   3.466 -1.6604 -0.0430 -0.2099
 4542SOL     OW14341   3.393   3.174   2.773  0.7852  0.0790 -0.0437
 4542SOL    HW114342   3.371   3.151   2.863  1.0529  0.0624  0.0174
 4542SOL    HW214343   3.313   3.214   2.739  0.6078 -0.1248  0.1275
 4543SOL     OW14344   3.752   3.369   3.583  0.4467 -0.1466 -0.1147
 4543SOL    HW114345   3.802   3.311   3.526  0.0421  0.0548 -0.6755
 4543SOL    HW214346   3.680   3.401   3.529  1.5202  2.0978 -0.2923
 4544SOL     OW14347   3.165   5.495   0.598  0.1343 -0.0798 -0.0312
 4544SOL    HW114348   3.226   5.456   0.661 -0.4399 -0.0402  0.5524
 4544SOL    HW214349   3.170   5.437   0.522  0.7497 -0.1888  0.0875
 4545SOL     OW14350   4.644   5.920   4.114 -0.3370 -0.4108 -0.5794
 4545SOL    HW114351   4.617   5.854   4.178 -0.8533  0.2064 -0.1553
 4545SOL    HW214352   4.721   5.882   4.071 -0.2717 -1.0307  0.0781
 4546SOL     OW14353   1.812   1.068   6.427 -0.8550 -0.2917 -0.4148
 4546SOL    HW114354   1.814   1.157   6.462 -1.6589 -0.3820 -0.1313
 4546SOL    HW214355   1.893   1.028   6.458  0.4690  0.9517 -2.1959
 4547SOL     OW14356   4.925   0.733   1.918 -0.0439  0.6970 -0.1363
 4547SOL    HW114357   5.008   0.734   1.870  0.0353  1.3403  0.0059
 4547SOL    HW214358   4.946   0.692   2.002  0.0215  0.4124 -0.2925
 4548SOL     OW14359   3.293   6.557   5.578 -0.2934  0.0401 -0.1028
 4548SOL    HW114360   3.318   6.641   5.618  1.0774 -0.4346  0.0624
 4548SOL    HW214361   3.269   6.580   5.488  0.7936  0.5166 -0.2799
 4549SOL     OW14362   6.322   0.514   5.174  0.1141  1.2069 -0.7054
 4549SOL    HW114363   6.248   0.466   5.212  0.5204 -0.4074 -1.8921
 4549SOL    HW214364   6.287   0.601   5.155 -0.9219  1.0748  0.5539
 4550SOL     OW14365   5.717   0.088   1.317  0.1581  0.0487 -0.2556
 4550SOL    HW114366   5.695   0.078   1.410 -0.7920  4.1370  0.0549
 4550SOL    HW214367   5.649   0.040   1.271 -0.9476  0.2597  1.1281
 4551SOL     OW14368   2.074   1.795   1.737 -0.0261  0.7345  0.4363
 4551SOL    HW114369   2.038   1.883   1.743 -0.8444  0.3530  1.1534
 4551SOL    HW214370   2.001   1.741   1.708  0.4937  0.2969 -0.0784
 4552SOL     OW14371   6.042   2.602   5.604  0.3456 -0.5740  0.0481
 4552SOL    HW114372   6.094   2.614   5.525  1.0784 -2.6641  0.1678
 4552SOL    HW214373   6.107   2.602   5.675 -0.2853  1.0902  0.6262
 4553SOL     OW14374   4.045   0.185   0.623  0.2270  0.1294  0.0391
 4553SOL    HW114375   4.016   0.186   0.714  1.4130  1.0024  0.4324
 4553SOL    HW214376   3.965   0.188   0.571 -0.4551 -0.3575  1.0566
 4554SOL     OW14377   2.776   3.054   4.346  0.4416  0.0155  0.5137
 4554SOL    HW114378   2.807   3.082   4.260  1.1338 -1.2017  0.3556
 4554SOL    HW214379   2.819   3.113   4.408  0.2769  0.6177  0.0542
 4555SOL     OW14380   2.758   6.740   1.258  0.4463 -0.2532  0.2780
 4555SOL    HW114381   2.731   6.771   1.171  0.8366 -0.4327  0.0924
 4555SOL    HW214382   2.854   6.736   1.253  0.4371 -0.7961  0.5350
 4556SOL     OW14383   1.092   0.758   3.559 -0.3004  0.5184 -0.6560
 4556SOL    HW114384   1.049   0.685   3.602  0.7403 -0.0459 -0.5611
 4556SOL    HW214385   1.130   0.809   3.630 -1.0234  1.1558 -0.7219
 4557SOL     OW14386   2.100   4.052   4.486 -0.1130  0.2498 -0.0687
 4557SOL    HW114387   2.128   4.044   4.577  1.6465 -0.0304 -0.6144
 4557SOL    HW214388   2.123   4.142   4.462  0.7649 -0.1294 -0.6670
 4558SOL     OW14389   1.876   1.630   5.462  0.2910 -0.7024  0.4750
 4558SOL    HW114390   1.883   1.577   5.541  1.0805  0.1410  0.9817
 4558SOL    HW214391   1.930   1.707   5.480  2.0484 -1.3782 -1.5970
 4559SOL     OW14392   0.212   1.525   5.360 -0.2718 -0.1379  0.1303
 4559SOL    HW114393   0.197   1.451   5.301  0.1943 -0.6386  0.6414
 4559SOL    HW214394   0.199   1.489   5.448 -0.5671  0.5121  0.3548
 4560SOL     OW14395   3.467   5.346   4.764  0.0728 -0.1948 -0.1857
 4560SOL    HW114396   3.462   5.262   4.718 -0.5997  0.2009 -0.8360
 4560SOL    HW214397   3.382   5.386   4.750 -0.4812 -0.4405  2.1365
 4561SOL     OW14398   2.640   1.143   2.286 -0.2127 -0.0047  0.4989
 4561SOL    HW114399   2.589   1.140   2.367 -1.5330 -0.8829 -0.3463
 4561SOL    HW214400   2.603   1.216   2.237 -0.1325 -0.1568  0.2127
 4562SOL     OW14401   6.342   2.051   1.254 -0.1184 -0.0004  0.3616
 4562SOL    HW114402   6.405   2.108   1.298  1.3969 -1.0055 -0.4674
 4562SOL    HW214403   6.356   1.965   1.294 -1.8696  0.0250  1.0683
 4563SOL     OW14404   0.395   5.552   5.133 -0.3246  0.4788  0.1046
 4563SOL    HW114405   0.426   5.534   5.044  1.0334 -1.1870  0.8849
 4563SOL    HW214406   0.309   5.592   5.121  0.3519  1.3473 -1.9927
 4564SOL     OW14407   5.361   1.360   3.294 -0.2313  0.1573 -0.3101
 4564SOL    HW114408   5.418   1.303   3.241 -1.1609 -0.3746 -0.7609
 4564SOL    HW214409   5.315   1.299   3.352  0.7380  0.7361  1.0801
 4565SOL     OW14410   3.126   1.339   5.160  0.7003  0.4726  0.2508
 4565SOL    HW114411   3.138   1.368   5.069  2.7648 -1.5622 -0.1774
 4565SOL    HW214412   3.194   1.274   5.173 -1.1447 -1.0757  2.5101
 4566SOL     OW14413   0.077   3.475   3.475  0.2760  0.3160 -0.4077
 4566SOL    HW114414   0.068   3.381   3.488  0.1863  0.3820  0.0133
 4566SOL    HW214415  -0.001   3.500   3.426 -0.7934  0.5217  1.3442
 4567SOL     OW14416   4.583   1.595   1.862 -0.3427  0.2113  0.4319
 4567SOL    HW114417   4.543   1.510   1.845 -0.7893  0.2373  1.3751
 4567SOL    HW214418   4.560   1.648   1.785  1.0301 -0.8966 -0.7841
 4568SOL     OW14419   4.771   0.700   1.642  0.5959  1.0781  0.8779
 4568SOL    HW114420   4.837   0.635   1.618 -0.4871  0.0272  0.7178
 4568SOL    HW214421   4.821   0.768   1.687  1.9804  0.9301 -0.3958
 4569SOL     OW14422   1.112   4.423   2.403  0.0996 -0.0991  0.5825
 4569SOL    HW114423   1.137   4.497   2.458 -0.6657  0.2037  0.5224
 4569SOL    HW214424   1.134   4.450   2.314 -0.9568  0.3882  0.4676
 4570SOL     OW14425   5.456   0.195   1.027 -0.7403 -0.3008 -0.2332
 4570SOL    HW114426   5.405   0.118   1.053  1.7650 -1.7512  0.5464
 4570SOL    HW214427   5.546   0.173   1.051  0.1911  2.4035 -1.1154
 4571SOL     OW14428   1.738   2.250   6.295 -0.1307  0.1602  0.0434
 4571SOL    HW114429   1.671   2.270   6.229 -1.0282 -1.3934  0.4562
 4571SOL    HW214430   1.689   2.226   6.373  0.9302  2.7381  1.5417
 4572SOL     OW14431   5.095   4.845   4.381  0.1179  0.2490  0.4451
 4572SOL    HW114432   5.188   4.849   4.360  0.2452 -1.3142  0.6058
 4572SOL    HW214433   5.089   4.784   4.454 -1.2891 -1.9178 -1.3938
 4573SOL     OW14434   6.095   3.731   6.167 -0.3403  0.1494 -0.3847
 4573SOL    HW114435   6.078   3.813   6.213  1.7581 -1.1175  2.8321
 4573SOL    HW214436   6.049   3.664   6.217  1.5671 -1.2076 -0.3494
 4574SOL     OW14437   0.862   4.154   1.787 -1.0214  0.4995  0.5378
 4574SOL    HW114438   0.842   4.245   1.764 -0.4944  0.7355  1.0141
 4574SOL    HW214439   0.854   4.150   1.882  2.1065  0.8444  0.8562
 4575SOL     OW14440   6.349   5.291   4.893  0.2460  0.0314  0.0690
 4575SOL    HW114441   6.382   5.340   4.968 -0.2750  1.3300 -0.5203
 4575SOL    HW214442   6.427   5.256   4.850  0.4885 -1.5782  1.7653
 4576SOL     OW14443   4.072   5.922   3.430 -0.5127  0.1951  0.0739
 4576SOL    HW114444   4.061   5.898   3.337 -0.4139  0.0793  0.0918
 4576SOL    HW214445   4.049   6.015   3.433  0.4136  0.4454 -0.2451
 4577SOL     OW14446   2.791   1.857   2.768 -0.0678 -0.0772 -0.1856
 4577SOL    HW114447   2.836   1.816   2.842 -0.9425  0.3309  0.5977
 4577SOL    HW214448   2.707   1.812   2.764 -0.1971  0.2046 -0.6467
 4578SOL     OW14449   2.546   5.577   1.736 -0.1174  0.2455 -0.6192
 4578SOL    HW114450   2.544   5.659   1.688  0.3956  0.2042 -0.7107
 4578SOL    HW214451   2.594   5.517   1.679  0.6873  0.2584  0.0372
 4579SOL     OW14452   2.174   1.661   5.228  0.4003 -0.2060 -0.5575
 4579SOL    HW114453   2.184   1.737   5.170  2.3582 -0.0492 -0.0485
 4579SOL    HW214454   2.096   1.681   5.279 -0.0536  0.7023 -1.5786
 4580SOL     OW14455   3.025   1.756   2.976 -0.0327  0.0688 -0.3246
 4580SOL    HW114456   3.039   1.840   3.020  1.1701  0.0791 -0.7043
 4580SOL    HW214457   3.112   1.716   2.972 -0.5189 -0.9811 -0.5743
 4581SOL     OW14458   0.222   3.618   1.460  0.5156  0.2805  0.6376
 4581SOL    HW114459   0.296   3.562   1.482  0.0509 -0.7662 -0.4124
 4581SOL    HW214460   0.156   3.599   1.527  0.7257  0.2761  0.8420
 4582SOL     OW14461   4.387   4.585   2.397 -0.4076 -0.1049 -0.2201
 4582SOL    HW114462   4.362   4.676   2.412  0.7556  0.2486 -0.3540
 4582SOL    HW214463   4.320   4.533   2.442  1.5954  0.8700  4.0420
 4583SOL     OW14464   2.869   1.167   4.418 -0.5998  0.2218 -0.1534
 4583SOL    HW114465   2.814   1.089   4.411 -0.4430 -0.0700  1.7628
 4583SOL    HW214466   2.890   1.174   4.511  0.8329  1.5629 -0.5553
 4584SOL     OW14467   4.796   2.219   5.241 -0.1965  0.3944  0.4905
 4584SOL    HW114468   4.770   2.185   5.155 -1.4534  0.5093  0.8232
 4584SOL    HW214469   4.879   2.263   5.225  0.2228 -0.7024 -0.4241
 4585SOL     OW14470   0.671   3.903   3.977  0.1124  0.5271 -0.4809
 4585SOL    HW114471   0.591   3.866   3.942  0.8359  0.8539 -2.5311
 4585SOL    HW214472   0.658   3.998   3.974 -0.3119  0.5537  1.3669
 4586SOL     OW14473   3.388   1.541   4.517 -0.6289  0.2832 -0.2052
 4586SOL    HW114474   3.392   1.632   4.548 -0.1780 -0.0085  0.5880
 4586SOL    HW214475   3.427   1.490   4.587 -2.2768 -0.7000  0.0253
 4587SOL     OW14476   3.513   3.898   0.240  0.2781 -0.4392  0.3214
 4587SOL    HW114477   3.460   3.848   0.301 -0.4622  1.0965  0.9744
 4587SOL    HW214478   3.583   3.935   0.294 -0.1866  0.6515  0.1958
 4588SOL     OW14479   1.344   4.156   5.048 -0.0047 -0.4992  0.3704
 4588SOL    HW114480   1.312   4.069   5.023  0.0119  0.1632 -2.0199
 4588SOL    HW214481   1.328   4.211   4.972  0.0553  1.6075  1.8319
 4589SOL     OW14482   6.265   4.497   4.358  0.7354  0.1863  0.0723
 4589SOL    HW114483   6.235   4.575   4.312 -1.1983 -0.2226  0.5967
 4589SOL    HW214484   6.276   4.525   4.449  1.1792  0.1344  0.0358
 4590SOL     OW14485   0.665   0.787   0.722  0.2614  0.1233 -0.2725
 4590SOL    HW114486   0.729   0.793   0.792  0.9155 -0.6001 -0.8030
 4590SOL    HW214487   0.716   0.788   0.641 -0.3139 -1.3563 -0.6753
 4591SOL     OW14488   3.805   1.305   2.064  0.0601 -0.5749  0.2708
 4591SOL    HW114489   3.839   1.233   2.118 -2.4385 -1.4614  0.6955
 4591SOL    HW214490   3.848   1.383   2.099  0.3172 -1.4455  1.9501
 4592SOL     OW14491   1.085   2.836   3.256  0.7818  0.1098  0.2970
 4592SOL    HW114492   1.050   2.747   3.251 -0.7262  0.7079 -0.0504
 4592SOL    HW214493   1.017   2.886   3.303  0.2742  1.7256 -2.0717
 4593SOL     OW14494   5.893   1.981   2.414 -0.3520 -0.1741  0.3424
 4593SOL    HW114495   5.943   2.063   2.414  1.3071 -1.1318  2.4640
 4593SOL    HW214496   5.899   1.949   2.324  2.1885  0.1884  0.3335
 4594SOL     OW14497   2.538   2.729   6.095 -0.1383 -0.0541 -0.1716
 4594SOL    HW114498   2.510   2.788   6.165  1.5556 -0.1566  0.6306
 4594SOL    HW214499   2.610   2.776   6.052  0.4003 -0.9931 -0.3149
 4595SOL     OW14500   2.834   2.012   5.368 -0.8781  0.0903 -0.4746
 4595SOL    HW114501   2.808   1.979   5.283  0.2688 -0.4381 -0.6360
 4595SOL    HW214502   2.753   2.043   5.409 -1.5065 -0.1770 -1.5221
 4596SOL     OW14503   3.756   5.270   0.384  0.1684 -0.1043  0.6134
 4596SOL    HW114504   3.681   5.210   0.387  0.6810 -0.7570  0.5631
 4596SOL    HW214505   3.795   5.256   0.298  1.1542 -0.7817  1.1520
 4597SOL     OW14506   5.044   1.521   1.202  0.7696  0.3853 -0.2616
 4597SOL    HW114507   5.043   1.560   1.290 -0.9739  2.3102 -1.0992
 4597SOL    HW214508   5.136   1.518   1.178  1.2735 -0.1585  1.6156
 4598SOL     OW14509   1.655   6.703   4.504 -0.2236 -0.5453 -0.3447
 4598SOL    HW114510   1.690   6.790   4.487  0.7075 -0.9442 -0.4683
 4598SOL    HW214511   1.687   6.649   4.431  0.4283 -1.3264  0.5112
 4599SOL     OW14512   5.722   1.770   2.181 -0.3020 -0.3144  0.3392
 4599SOL    HW114513   5.760   1.731   2.103  0.8939 -0.1043  0.8053
 4599SOL    HW214514   5.688   1.696   2.231  1.1781 -0.6858  0.8052
 4600SOL     OW14515   6.126   6.439   4.659 -0.0810 -0.1761  0.2215
 4600SOL    HW114516   6.129   6.521   4.609 -3.2649  0.2173  0.5664
 4600SOL    HW214517   6.136   6.370   4.593 -4.9537  0.3074 -1.2209
 4601SOL     OW14518   5.324   1.892   3.442 -0.3610 -0.1489  0.0517
 4601SOL    HW114519   5.339   1.887   3.347 -1.8975  2.4079 -0.3462
 4601SOL    HW214520   5.325   1.800   3.470  0.8543 -0.9120 -2.3028
 4602SOL     OW14521   4.561   2.519   3.864  0.1164  0.1526 -0.1012
 4602SOL    HW114522   4.524   2.583   3.924 -0.8837 -0.2504 -0.2767
 4602SOL    HW214523   4.531   2.434   3.898  3.1338 -0.3944  1.3288
 4603SOL     OW14524   6.357   3.498   6.181 -0.1437  0.6401 -0.1524
 4603SOL    HW114525   6.271   3.454   6.180 -0.3535  1.0632 -0.6435
 4603SOL    HW214526   6.417   3.432   6.215 -0.1697 -0.5547 -2.3579
 4604SOL     OW14527   6.177   5.322   3.333 -0.2735  0.5077  0.2139
 4604SOL    HW114528   6.220   5.351   3.253 -0.1835  1.3946  0.5870
 4604SOL    HW214529   6.115   5.392   3.354 -0.8659 -0.0892  0.4776
 4605SOL     OW14530   2.909   4.421   1.441  0.0142 -0.2264  0.6022
 4605SOL    HW114531   2.917   4.491   1.376  1.5231 -0.9668 -0.0296
 4605SOL    HW214532   2.818   4.392   1.434  0.3677 -0.8170 -1.7054
 4606SOL     OW14533   5.724   0.492   5.512 -0.1730  0.5549 -0.5434
 4606SOL    HW114534   5.785   0.456   5.577 -1.0761  3.7909  2.2407
 4606SOL    HW214535   5.639   0.457   5.538 -0.7351  2.9134  0.9057
 4607SOL     OW14536   1.619   1.783   3.387  0.0152 -0.5576  0.3880
 4607SOL    HW114537   1.605   1.822   3.474  0.2829  1.6442 -0.5174
 4607SOL    HW214538   1.531   1.764   3.355 -0.1454 -0.2635  0.6497
 4608SOL     OW14539   5.220   6.238   6.696 -0.0234  1.1157  0.2492
 4608SOL    HW114540   5.234   6.264   6.605  1.8235 -0.5935  0.0184
 4608SOL    HW214541   5.129   6.209   6.699  0.9407 -2.3705 -1.9757
 4609SOL     OW14542   3.602   4.008   2.288 -0.4815  0.4895  0.2391
 4609SOL    HW114543   3.526   3.973   2.242 -0.8511  0.2822  0.9956
 4609SOL    HW214544   3.605   3.959   2.370  0.3376  0.6569  0.3095
 4610SOL     OW14545   4.646   4.689   5.531  0.0147  0.3152  0.6301
 4610SOL    HW114546   4.705   4.764   5.521  0.5830 -0.0847  0.9467
 4610SOL    HW214547   4.704   4.615   5.550 -0.4287 -0.4781 -0.9824
 4611SOL     OW14548   2.230   3.975   3.253 -0.3519 -1.1227  0.7285
 4611SOL    HW114549   2.235   3.923   3.172  0.3317 -0.4180  0.3101
 4611SOL    HW214550   2.138   4.000   3.260 -0.4505 -1.3550  0.2791
 4612SOL     OW14551   0.001   3.627   2.840 -0.0653  0.0063 -0.2958
 4612SOL    HW114552  -0.012   3.570   2.764  0.1393 -2.8353  1.7493
 4612SOL    HW214553   0.085   3.669   2.824  0.5008 -1.4095 -1.1160
 4613SOL     OW14554   2.193   2.918   2.589  0.0223  0.3522 -0.0427
 4613SOL    HW114555   2.258   2.937   2.522  0.6029 -1.0701  0.1008
 4613SOL    HW214556   2.127   2.865   2.544  0.3638 -0.5191  0.4746
 4614SOL     OW14557   5.981   4.978   6.604 -0.8706  0.1449  0.6168
 4614SOL    HW114558   5.906   4.949   6.655 -0.2208  0.8441  2.0008
 4614SOL    HW214559   6.057   4.944   6.652 -0.2992 -2.1124 -1.7095
 4615SOL     OW14560   1.684   0.762   4.627 -0.6360 -0.1280 -0.1329
 4615SOL    HW114561   1.656   0.736   4.540  2.6804 -0.9414 -1.0409
 4615SOL    HW214562   1.715   0.680   4.667 -0.3434  0.5740  1.0842
 4616SOL     OW14563   3.278   6.330   1.947  0.1992  0.2503  0.0394
 4616SOL    HW114564   3.292   6.241   1.915 -2.3491  0.6206 -2.2437
 4616SOL    HW214565   3.194   6.326   1.992 -0.9698  1.9164 -1.8994
 4617SOL     OW14566   3.315   1.034   4.128  0.5347  0.3722  0.1392
 4617SOL    HW114567   3.229   1.056   4.092  1.1766 -0.5288 -2.0075
 4617SOL    HW214568   3.326   1.096   4.200 -0.4989  2.7300 -1.6441
 4618SOL     OW14569   1.236   0.118   4.791  0.5978  0.3498 -0.1154
 4618SOL    HW114570   1.158   0.155   4.832  1.1921 -1.6438  3.0368
 4618SOL    HW214571   1.216   0.025   4.780  2.7376 -0.3414  1.4119
 4619SOL     OW14572   4.531   2.984   0.750 -0.3540 -0.1599  0.0837
 4619SOL    HW114573   4.549   2.964   0.658  0.1999  1.1743 -0.1191
 4619SOL    HW214574   4.440   3.014   0.751  0.0892  1.2342 -0.2812
 4620SOL     OW14575   5.169   2.034   1.166 -0.1752  0.3661  0.1065
 4620SOL    HW114576   5.254   2.071   1.188 -0.1728 -0.2597  1.1856
 4620SOL    HW214577   5.149   2.070   1.080  0.0502  2.4581  0.9073
 4621SOL     OW14578   5.274   0.061   5.683 -0.7503 -0.1289  0.2929
 4621SOL    HW114579   5.332   0.000   5.637  0.1925 -0.0126  1.2948
 4621SOL    HW214580   5.215   0.095   5.615  2.4266  2.2064 -1.4495
 4622SOL     OW14581   4.530   4.975   4.590  0.2453  0.2147  0.2197
 4622SOL    HW114582   4.523   5.058   4.638 -0.1031  0.0884  0.3909
 4622SOL    HW214583   4.580   4.918   4.649 -1.6987 -0.5011  1.2062
 4623SOL     OW14584   0.180   2.711   2.659 -0.1833 -0.1298  0.0752
 4623SOL    HW114585   0.146   2.710   2.749  1.8531 -0.1780  0.8599
 4623SOL    HW214586   0.193   2.803   2.639  0.7197 -0.1829  0.3745
 4624SOL     OW14587   4.299   4.231   4.565 -0.9711  0.4071 -0.3105
 4624SOL    HW114588   4.333   4.265   4.482  0.0315 -0.0981 -0.1162
 4624SOL    HW214589   4.226   4.289   4.586 -0.5803  1.1802 -1.0189
 4625SOL     OW14590   4.822   0.286   2.149  0.6124  0.2505 -0.1259
 4625SOL    HW114591   4.798   0.377   2.130  0.3586  0.3727  0.7957
 4625SOL    HW214592   4.779   0.236   2.080  0.0077  0.7415 -0.1103
 4626SOL     OW14593   2.723   0.949   4.352  0.7110 -0.0242 -0.3207
 4626SOL    HW114594   2.629   0.937   4.362  0.5006  0.3335 -1.6905
 4626SOL    HW214595   2.751   0.874   4.300  0.9529  0.5310 -1.0048
 4627SOL     OW14596   3.094   1.119   3.936  0.0240 -0.2926  0.0155
 4627SOL    HW114597   3.102   1.172   3.857  1.5167  0.3071  0.5484
 4627SOL    HW214598   3.061   1.180   4.003  1.4060 -0.1027  0.5401
 4628SOL     OW14599   3.505   3.485   3.497 -0.5091  0.0020 -0.6128
 4628SOL    HW114600   3.451   3.542   3.551  2.0310  1.1244  0.8650
 4628SOL    HW214601   3.455   3.404   3.490 -2.0213  0.7102  1.3368
 4629SOL     OW14602   3.152   3.370   4.869 -0.0697 -0.3454  0.2329
 4629SOL    HW114603   3.181   3.290   4.825 -0.0260 -0.4327  0.4195
 4629SOL    HW214604   3.081   3.402   4.815  2.2055  1.4183 -1.8022
 4630SOL     OW14605   1.212   5.517   5.181 -0.7971 -0.2364 -0.6509
 4630SOL    HW114606   1.261   5.525   5.099 -1.9565 -0.1926 -1.3481
 4630SOL    HW214607   1.270   5.554   5.248 -0.3348  0.8492 -1.6492
 4631SOL     OW14608   2.418   4.090   3.450  0.0951 -0.8834  0.0032
 4631SOL    HW114609   2.400   4.171   3.404  1.2378 -0.0327  1.0224
 4631SOL    HW214610   2.375   4.022   3.397 -2.2333  0.5387  0.0065
 4632SOL     OW14611   2.150   2.658   4.482 -0.2027 -0.2520  0.6330
 4632SOL    HW114612   2.234   2.625   4.449 -0.2480  0.4250 -0.1761
 4632SOL    HW214613   2.158   2.654   4.577  1.3202  1.1964  0.5961
 4633SOL     OW14614   5.550   2.062   4.756 -0.1209  0.0331 -0.7739
 4633SOL    HW114615   5.459   2.084   4.733 -0.7189 -1.1038  0.4259
 4633SOL    HW214616   5.577   2.131   4.816  0.0373  0.7269 -1.6279
 4634SOL     OW14617   3.947   5.438   5.237 -0.0507  0.1893 -0.3040
 4634SOL    HW114618   4.033   5.414   5.273  0.0529 -2.4782 -2.2045
 4634SOL    HW214619   3.967   5.481   5.154 -0.5667 -0.1993 -0.6254
 4635SOL     OW14620   5.090   4.673   6.429 -0.1845 -0.0870 -0.4695
 4635SOL    HW114621   5.078   4.734   6.501 -2.1362 -2.0017  0.9218
 4635SOL    HW214622   5.052   4.718   6.353  1.4207  1.7296 -0.2361
 4636SOL     OW14623   6.209   3.394   2.006 -0.1627  0.4101  0.0628
 4636SOL    HW114624   6.169   3.481   2.016  0.1910  0.4409  1.2954
 4636SOL    HW214625   6.298   3.412   1.973 -0.4012  0.4632 -0.5538
 4637SOL     OW14626   3.272   5.226   1.440  0.3511  0.9462 -0.2762
 4637SOL    HW114627   3.351   5.203   1.393  0.0471  1.0452 -0.8350
 4637SOL    HW214628   3.255   5.317   1.417 -0.3490  0.7023 -0.7747
 4638SOL     OW14629   0.653   1.416   5.353  0.3862  0.2251  0.5064
 4638SOL    HW114630   0.606   1.370   5.283 -1.3001 -0.2923  1.9457
 4638SOL    HW214631   0.584   1.454   5.407  1.7224  3.0879  0.2849
 4639SOL     OW14632   2.586   5.247   4.221  0.3396  0.4676 -0.1232
 4639SOL    HW114633   2.583   5.254   4.316 -0.4017 -0.9717 -0.0285
 4639SOL    HW214634   2.500   5.215   4.196  0.4900  0.9520 -1.2980
 4640SOL     OW14635   6.300   6.302   2.244 -0.1241  0.2612  0.2664
 4640SOL    HW114636   6.230   6.338   2.299 -0.2219  0.1451  0.2184
 4640SOL    HW214637   6.355   6.377   2.222  1.2315 -0.0455  2.4546
 4641SOL     OW14638   2.517   6.733   0.437 -0.1073  0.3953  0.3759
 4641SOL    HW114639   2.589   6.789   0.464  0.6709 -0.5049  0.2200
 4641SOL    HW214640   2.549   6.689   0.358 -0.8717  0.0732  0.2388
 4642SOL     OW14641   0.219   1.466   0.462  0.0570 -0.0582  0.3604
 4642SOL    HW114642   0.220   1.558   0.435 -1.3915  0.5710  2.2979
 4642SOL    HW214643   0.231   1.470   0.557  0.0014 -1.8776  0.4465
 4643SOL     OW14644   2.041   1.262   6.232  0.0023  0.1222  0.1391
 4643SOL    HW114645   1.959   1.274   6.184  0.4134  1.0377 -0.3456
 4643SOL    HW214646   2.054   1.167   6.233 -0.7824  0.0071 -0.2639
 4644SOL     OW14647   4.410   2.039   1.006  0.3974  0.5922 -0.5322
 4644SOL    HW114648   4.349   2.101   0.967  1.9462  1.1689 -2.1061
 4644SOL    HW214649   4.496   2.078   0.993  1.3192 -1.4016 -0.6935
 4645SOL     OW14650   4.433   5.065   3.682  0.3448  0.0397 -0.5768
 4645SOL    HW114651   4.385   5.040   3.761  2.0179  0.8125  0.7075
 4645SOL    HW214652   4.390   5.145   3.652  0.0974  0.0849 -0.0989
 4646SOL     OW14653   1.793   6.603   0.367  0.3505  0.0890 -0.2607
 4646SOL    HW114654   1.852   6.669   0.403  1.0467 -1.5838  1.7677
 4646SOL    HW214655   1.842   6.563   0.295  1.0906 -0.2316  0.4191
 4647SOL     OW14656   3.075   1.567   3.934  0.1052 -0.4424 -0.1308
 4647SOL    HW114657   3.013   1.639   3.947  0.2062 -0.4693  0.4676
 4647SOL    HW214658   3.091   1.532   4.021  1.3951 -0.0892 -0.2204
 4648SOL     OW14659   0.490   3.452   5.524  0.0803 -0.1216 -0.1773
 4648SOL    HW114660   0.465   3.379   5.468 -0.0817 -0.9494  0.9659
 4648SOL    HW214661   0.423   3.519   5.509  0.0278 -0.3495 -0.9496
 4649SOL     OW14662   3.117   6.345   6.105  0.7628  0.8709  0.2866
 4649SOL    HW114663   3.156   6.306   6.027  1.2308  0.6806  0.6139
 4649SOL    HW214664   3.189   6.351   6.168  0.2335  0.3123  0.9657
 4650SOL     OW14665   2.713   1.314   6.125 -0.1699 -0.7337  0.3507
 4650SOL    HW114666   2.645   1.359   6.075 -1.3578 -2.0645  0.7445
 4650SOL    HW214667   2.737   1.239   6.071  0.0936 -0.9552  0.7685
 4651SOL     OW14668   4.423   5.115   2.287  0.3071 -0.5296  0.2482
 4651SOL    HW114669   4.361   5.185   2.309 -0.0299 -1.1486  1.3073
 4651SOL    HW214670   4.405   5.095   2.195 -0.2037  0.1533  0.1907
 4652SOL     OW14671   1.293   6.744   1.388 -0.0443  0.0276 -0.2354
 4652SOL    HW114672   1.337   6.810   1.333 -0.6072  1.4676  1.0032
 4652SOL    HW214673   1.318   6.768   1.477 -0.4627 -1.3085  0.2401
 4653SOL     OW14674   5.517   2.246   4.358  0.1466 -0.1986 -0.4974
 4653SOL    HW114675   5.546   2.173   4.413 -0.8224  0.2856  0.6637
 4653SOL    HW214676   5.590   2.308   4.360 -0.1254  0.0908  0.7408
 4654SOL     OW14677   3.032   5.932   2.765  0.1958 -0.2729 -0.1880
 4654SOL    HW114678   2.949   5.906   2.723  0.6563 -1.2812 -0.5033
 4654SOL    HW214679   3.005   5.970   2.849 -0.5629 -1.1795 -0.0039
 4655SOL     OW14680   4.024   1.408   5.118  0.2864 -0.2478 -0.5789
 4655SOL    HW114681   4.113   1.379   5.098  1.0478  0.0783  2.0462
 4655SOL    HW214682   4.005   1.368   5.203 -2.2809 -0.7161 -1.3231
 4656SOL     OW14683   5.750   2.958   6.631 -0.2257  0.0819  0.2714
 4656SOL    HW114684   5.660   2.931   6.612 -0.3340 -0.6716  1.8291
 4656SOL    HW214685   5.792   2.880   6.668  1.0525  0.4560 -0.3382
 4657SOL     OW14686   1.833   5.664   5.577 -0.6234 -0.0727  0.6238
 4657SOL    HW114687   1.831   5.579   5.620 -0.9782 -0.1876  0.3795
 4657SOL    HW214688   1.754   5.709   5.607 -1.2960 -0.4628 -0.5278
 4658SOL     OW14689   5.213   0.984   1.923 -0.2042 -0.3087  0.1705
 4658SOL    HW114690   5.187   1.057   1.867 -1.3138 -0.7497  0.0902
 4658SOL    HW214691   5.165   0.999   2.005  0.8470 -0.0582  0.7404
 4659SOL     OW14692   0.326   6.280   3.368  0.1143 -0.4147 -0.3239
 4659SOL    HW114693   0.421   6.276   3.360  0.2606  0.4757  0.7966
 4659SOL    HW214694   0.311   6.316   3.455 -1.2160  2.5203 -1.6793
 4660SOL     OW14695   3.655   6.755   1.865 -0.1804  0.1114 -0.6255
 4660SOL    HW114696   3.567   6.729   1.895  0.5843 -0.4800  1.1740
 4660SOL    HW214697   3.667   6.844   1.899  0.4515 -0.3314  0.3312
 4661SOL     OW14698   2.996   3.111   3.278 -0.5796  0.0053 -0.4330
 4661SOL    HW114699   2.996   3.016   3.286 -1.6517 -0.0621 -1.1308
 4661SOL    HW214700   2.919   3.139   3.328 -0.6176  0.4622 -0.7507
 4662SOL     OW14701   6.542   3.695   1.381  0.2863  0.2539 -0.2427
 4662SOL    HW114702   6.621   3.733   1.342 -0.3048  0.8831 -0.8333
 4662SOL    HW214703   6.481   3.685   1.307  0.1394 -1.0758  0.0458
 4663SOL     OW14704   0.609   0.853   4.034 -0.6002 -0.7697 -0.5210
 4663SOL    HW114705   0.645   0.812   3.955 -0.1248 -0.1896 -0.6089
 4663SOL    HW214706   0.526   0.892   4.005 -0.0463  0.1297 -0.9253
 4664SOL     OW14707   1.107   2.884   4.499  0.9437 -0.1046  0.5326
 4664SOL    HW114708   1.196   2.861   4.526  0.6136 -3.6719 -1.2017
 4664SOL    HW214709   1.119   2.944   4.425  1.8622  0.3224  1.0179
 4665SOL     OW14710   0.762   5.297   0.085  0.0646 -0.4465 -0.9556
 4665SOL    HW114711   0.828   5.234   0.113 -0.2762 -0.2191  0.3923
 4665SOL    HW214712   0.724   5.330   0.166 -1.2043 -0.0391 -1.6953
 4666SOL     OW14713   0.458   6.080   1.036  0.1403  0.2421  0.6148
 4666SOL    HW114714   0.436   6.041   0.951  1.5478  0.2124  0.2542
 4666SOL    HW214715   0.383   6.059   1.091 -2.0601  2.6342 -1.3496
 4667SOL     OW14716   0.162   2.940   5.357 -0.2353 -0.2019 -0.3710
 4667SOL    HW114717   0.187   2.881   5.429 -1.7871  0.3037  0.6050
 4667SOL    HW214718   0.211   2.907   5.281  1.0227 -1.0629  0.7879
 4668SOL     OW14719   1.803   0.194   0.512 -0.0096 -0.5619  0.2388
 4668SOL    HW114720   1.883   0.158   0.550  0.2595  0.8913  1.0691
 4668SOL    HW214721   1.733   0.159   0.566  0.3165  0.8705  1.6370
 4669SOL     OW14722   5.433   5.956   6.403  0.7881 -0.2100 -0.3641
 4669SOL    HW114723   5.501   5.984   6.342  0.0784 -0.3666 -1.2387
 4669SOL    HW214724   5.371   6.029   6.405 -0.0527 -0.8949 -1.1307
 4670SOL     OW14725   6.459   6.645   5.355 -0.0291 -0.3096  0.1032
 4670SOL    HW114726   6.525   6.635   5.286  0.7769  1.4899  0.5599
 4670SOL    HW214727   6.464   6.564   5.405 -0.0023 -1.2691 -1.4224
 4671SOL     OW14728   0.506   2.710   3.661  0.6278  0.0635  0.2021
 4671SOL    HW114729   0.514   2.615   3.650 -0.3455  0.2428 -2.3890
 4671SOL    HW214730   0.473   2.721   3.750  1.1184 -2.0041  0.6694
 4672SOL     OW14731   5.802   1.002   3.070  0.2372  0.0013 -0.6769
 4672SOL    HW114732   5.794   0.906   3.075 -2.7424  0.2649  0.3190
 4672SOL    HW214733   5.872   1.024   3.131  2.0236 -1.6411 -2.0552
 4673SOL     OW14734   4.695   2.602   2.848  0.0986 -0.4073  0.2177
 4673SOL    HW114735   4.735   2.570   2.928 -0.2484  0.0369  0.5674
 4673SOL    HW214736   4.634   2.670   2.876 -0.7339 -0.9112 -0.3358
 4674SOL     OW14737   4.138   6.171   3.575  0.0017  0.2899 -0.3180
 4674SOL    HW114738   4.205   6.105   3.588 -0.3497  0.3612  2.0390
 4674SOL    HW214739   4.186   6.254   3.571  0.1860  0.2015 -0.0002
 4675SOL     OW14740   1.514   3.725   3.880 -0.2687  0.3240  0.0338
 4675SOL    HW114741   1.547   3.813   3.897 -2.1635  0.6866  1.9698
 4675SOL    HW214742   1.566   3.668   3.937  0.4261  0.2774 -0.6429
 4676SOL     OW14743   5.719   5.272   3.952 -0.1575 -0.2724 -0.0420
 4676SOL    HW114744   5.711   5.367   3.951  1.1620 -0.1373  1.2763
 4676SOL    HW214745   5.636   5.241   3.988 -0.6680  0.3578 -0.6629
 4677SOL     OW14746   4.572   0.778   6.164  0.2435 -0.5557 -0.7834
 4677SOL    HW114747   4.645   0.808   6.218  1.4940 -0.7783 -2.3107
 4677SOL    HW214748   4.568   0.840   6.091 -0.3216 -1.2363 -1.3435
 4678SOL     OW14749   5.688   6.214   5.596  0.4975 -0.4060 -0.2695
 4678SOL    HW114750   5.755   6.212   5.528  0.7710  1.6777 -0.0951
 4678SOL    HW214751   5.632   6.288   5.573  0.8587  0.6235  1.9747
 4679SOL     OW14752   2.851   1.505   5.869  0.2302  0.2109 -0.0233
 4679SOL    HW114753   2.940   1.485   5.839  0.0830  2.5315 -2.2110
 4679SOL    HW214754   2.806   1.421   5.870  1.4367 -0.5244 -2.5092
 4680SOL     OW14755   2.071   3.529   4.094 -0.1189  0.1907  0.0925
 4680SOL    HW114756   2.090   3.442   4.060  0.5102  0.9630 -1.5707
 4680SOL    HW214757   1.976   3.531   4.103 -0.2777 -0.1050 -1.4503
 4681SOL     OW14758   4.674   2.350   2.417 -0.3133  0.0106 -0.4976
 4681SOL    HW114759   4.616   2.387   2.483  0.0713  0.6924 -0.5335
 4681SOL    HW214760   4.707   2.426   2.368  1.2384 -0.2830  0.0440
 4682SOL     OW14761   0.572   2.290   0.997 -0.2065  0.1558 -0.3182
 4682SOL    HW114762   0.562   2.378   1.032 -3.7906 -0.8197  1.3246
 4682SOL    HW214763   0.538   2.296   0.907 -0.9956  0.3450 -0.0117
 4683SOL     OW14764   0.801   2.977   0.699 -0.3241 -0.0746 -0.3558
 4683SOL    HW114765   0.748   3.053   0.726  1.6578  0.1639  3.1237
 4683SOL    HW214766   0.890   3.011   0.692  0.5627 -2.0094  1.0507
 4684SOL     OW14767   0.977   2.404   1.321 -0.3059 -0.2060 -0.5926
 4684SOL    HW114768   1.064   2.364   1.315 -0.1904 -0.3407  1.7444
 4684SOL    HW214769   0.932   2.352   1.387 -2.1110 -0.0044 -1.6498
 4685SOL     OW14770   2.116   3.033   6.308  0.4255  0.5888 -0.1811
 4685SOL    HW114771   2.062   2.957   6.290  0.0649  0.3294  1.9035
 4685SOL    HW214772   2.093   3.096   6.240 -0.4079 -0.5789 -0.9835
 4686SOL     OW14773   1.618   3.461   5.095  0.7290  0.1724  0.2411
 4686SOL    HW114774   1.549   3.395   5.105  1.6235 -0.7890  0.1436
 4686SOL    HW214775   1.598   3.525   5.164  1.0040 -1.2424  1.6905
 4687SOL     OW14776   0.642   5.045   1.823 -0.0287  0.1985 -0.0321
 4687SOL    HW114777   0.654   4.997   1.905 -2.1333  1.4104  1.0150
 4687SOL    HW214778   0.615   4.977   1.761 -1.3474 -0.2843  1.0297
 4688SOL     OW14779   3.045   6.694   3.610  0.1439  0.2463  0.0601
 4688SOL    HW114780   2.965   6.743   3.589 -0.6712 -1.2831 -0.4530
 4688SOL    HW214781   3.115   6.760   3.606 -1.1909  1.7806  1.3650
 4689SOL     OW14782   3.788   2.338   2.244 -0.3999  0.2259 -0.0223
 4689SOL    HW114783   3.793   2.252   2.203 -0.2672 -0.6507  1.8159
 4689SOL    HW214784   3.820   2.398   2.177 -1.1906 -1.0561 -1.5892
 4690SOL     OW14785   3.646   6.631   2.938  0.4701  0.4646  0.1397
 4690SOL    HW114786   3.611   6.716   2.964  2.0171  2.0061 -2.5537
 4690SOL    HW214787   3.725   6.620   2.991  0.0687  0.5321  0.7529
 4691SOL     OW14788   2.790   1.023   6.457 -0.0459  0.5895  0.3010
 4691SOL    HW114789   2.712   1.008   6.511 -1.8293  1.0991 -2.0736
 4691SOL    HW214790   2.800   1.118   6.456 -0.4409  0.6233 -0.8328
 4692SOL     OW14791   1.998   3.149   3.320  0.3975  0.1176  0.0462
 4692SOL    HW114792   2.019   3.243   3.321 -0.3782  0.2936  1.0002
 4692SOL    HW214793   2.082   3.106   3.305  1.1584  0.8697  1.9890
 4693SOL     OW14794   6.191   6.297   2.633  0.2833  0.6652 -0.0062
 4693SOL    HW114795   6.166   6.345   2.712  1.0998 -0.9159  1.2334
 4693SOL    HW214796   6.188   6.363   2.563 -1.8884  1.7322  1.0575
 4694SOL     OW14797   4.845   6.679   6.658 -0.2942  0.3318  0.1798
 4694SOL    HW114798   4.816   6.769   6.644 -0.1801  0.3050 -0.2202
 4694SOL    HW214799   4.940   6.682   6.646 -0.5140 -0.2461 -1.9583
 4695SOL     OW14800   4.201   5.143   6.102  0.1344  0.2968  0.1109
 4695SOL    HW114801   4.131   5.128   6.038  1.5203  1.3829 -1.7250
 4695SOL    HW214802   4.258   5.208   6.060  2.2812 -0.6159  1.5120
 4696SOL     OW14803   0.304   4.640   5.738  0.2725 -0.7093  0.4357
 4696SOL    HW114804   0.298   4.649   5.833 -1.5288 -0.5801  0.3333
 4696SOL    HW214805   0.380   4.693   5.713  0.1176  0.1198  1.6943
 4697SOL     OW14806   6.027   4.391   1.684  0.3786  0.3953  0.2371
 4697SOL    HW114807   5.963   4.327   1.654  0.8587  0.2642 -0.5206
 4697SOL    HW214808   6.049   4.363   1.773 -1.0050  0.7543  0.6948
 4698SOL     OW14809   2.398   2.637   4.914  0.3153 -0.2764  0.2548
 4698SOL    HW114810   2.344   2.635   4.993 -0.7819  0.5815 -0.4775
 4698SOL    HW214811   2.451   2.716   4.923  1.3933 -1.0360  0.8977
 4699SOL     OW14812   2.999   2.463   4.482  0.6451 -0.1787  0.2427
 4699SOL    HW114813   3.053   2.385   4.469  0.7543 -0.2203  0.9562
 4699SOL    HW214814   2.969   2.457   4.572  1.7637  1.3230  0.7232
 4700SOL     OW14815   6.397   3.053   1.426  0.1710 -0.0345 -0.3062
 4700SOL    HW114816   6.375   3.131   1.375  1.1295  0.4848  0.0648
 4700SOL    HW214817   6.312   3.015   1.448 -0.2962  0.6792 -0.8430
 4701SOL     OW14818   4.477   1.491   5.604 -0.0933 -0.1539  0.1032
 4701SOL    HW114819   4.528   1.411   5.592  1.0996  0.8102 -1.3490
 4701SOL    HW214820   4.542   1.557   5.627 -0.9116  0.7144 -0.0716
 4702SOL     OW14821   2.906   1.038   2.312  0.3392 -0.2140  0.1171
 4702SOL    HW114822   2.815   1.066   2.309  0.7871  1.1668 -2.3444
 4702SOL    HW214823   2.949   1.088   2.242  2.6414 -1.9821  0.1835
 4703SOL     OW14824   5.401   3.624   3.814 -0.5556 -0.0892  0.1893
 4703SOL    HW114825   5.361   3.647   3.898 -0.0466 -0.0404  0.4155
 4703SOL    HW214826   5.486   3.587   3.837 -0.4709 -0.1936 -0.2978
 4704SOL     OW14827   5.296   4.791   1.101  0.0306  0.3919 -0.3174
 4704SOL    HW114828   5.328   4.768   1.189 -0.3167  0.9085 -0.0527
 4704SOL    HW214829   5.222   4.851   1.117  0.9131  1.6864 -0.9863
 4705SOL     OW14830   5.200   6.172   1.585  0.6415 -0.0342  0.2730
 4705SOL    HW114831   5.148   6.143   1.660 -1.5706  2.4548 -0.2190
 4705SOL    HW214832   5.179   6.110   1.516 -1.6351  0.8346  0.1321
 4706SOL     OW14833   1.216   6.282   6.516  0.0795  0.1057  0.1662
 4706SOL    HW114834   1.258   6.338   6.451 -0.6861 -0.3460 -0.7304
 4706SOL    HW214835   1.245   6.194   6.494 -2.7762 -0.4484 -1.6456
 4707SOL     OW14836   6.242   1.598   3.094  0.2535 -0.4859  0.8054
 4707SOL    HW114837   6.297   1.675   3.082 -1.6974  0.7530 -0.3595
 4707SOL    HW214838   6.241   1.555   3.009 -0.3892 -0.6228  0.8787
 4708SOL     OW14839   4.940   0.437   0.916  0.1110 -0.0537  0.0578
 4708SOL    HW114840   4.960   0.422   0.824  0.9582  2.8901 -0.2934
 4708SOL    HW214841   4.987   0.368   0.963 -1.4593 -2.4182 -1.7770
 4709SOL     OW14842   6.272   4.192   2.058 -0.5412  0.4953 -0.0331
 4709SOL    HW114843   6.349   4.250   2.052 -1.2901  1.3993 -1.0564
 4709SOL    HW214844   6.210   4.241   2.112 -1.7870  1.3716 -2.1990
 4710SOL     OW14845   2.555   1.879   5.261  0.6408  1.0351 -0.3096
 4710SOL    HW114846   2.553   1.960   5.312  1.1703  1.0561 -0.3196
 4710SOL    HW214847   2.643   1.876   5.223  0.2456  1.0243 -1.2422
 4711SOL     OW14848   4.612   3.968   0.796 -0.0141 -0.3320  0.4280
 4711SOL    HW114849   4.662   3.886   0.797 -0.2127 -0.4526  0.7625
 4711SOL    HW214850   4.614   3.997   0.887  0.0375  0.0259  0.3114
 4712SOL     OW14851   0.255   3.583   5.476  0.3370  0.2904  0.2758
 4712SOL    HW114852   0.183   3.538   5.432 -0.5723 -0.3491  2.3584
 4712SOL    HW214853   0.250   3.673   5.446 -1.9602  0.4764  1.1771
 4713SOL     OW14854   4.550   0.201   3.245  0.1471  0.2632  0.6622
 4713SOL    HW114855   4.484   0.258   3.285 -0.1151  0.4390 -0.0187
 4713SOL    HW214856   4.501   0.123   3.218  0.0309  0.8096 -0.7350
 4714SOL     OW14857   0.568   3.021   5.669 -0.5293 -0.6787  0.0722
 4714SOL    HW114858   0.494   2.987   5.719 -0.4761 -0.3635  0.3659
 4714SOL    HW214859   0.539   3.018   5.578 -1.2557  0.3086  0.2590
 4715SOL     OW14860   6.121   5.935   1.995 -0.4614  0.1418  0.2957
 4715SOL    HW114861   6.098   6.027   1.980  0.3909  0.4188  0.6752
 4715SOL    HW214862   6.105   5.893   1.911  1.2551  1.0780 -0.5175
 4716SOL     OW14863   5.669   0.776   6.469 -0.6265  0.0419 -0.0552
 4716SOL    HW114864   5.602   0.745   6.530 -0.7568 -0.4552 -0.4531
 4716SOL    HW214865   5.632   0.856   6.432 -1.1733 -0.4474 -0.5734
 4717SOL     OW14866   1.399   6.571   5.284  0.7058 -0.2710  0.0184
 4717SOL    HW114867   1.320   6.623   5.269  0.2155 -1.0771 -0.2099
 4717SOL    HW214868   1.465   6.611   5.227  0.5067  0.5043  0.3315
 4718SOL     OW14869   5.155   5.335   4.465  0.4264 -0.1316 -0.1402
 4718SOL    HW114870   5.136   5.299   4.378 -0.5198  1.2240 -0.5090
 4718SOL    HW214871   5.210   5.411   4.448 -1.4347  1.3440  0.2736
 4719SOL     OW14872   0.179   3.820   2.576  0.1040  0.4770  0.0505
 4719SOL    HW114873   0.086   3.821   2.599  0.0428  1.9028 -0.1800
 4719SOL    HW214874   0.192   3.903   2.531  1.8279  0.9569  1.4235
 4720SOL     OW14875   5.710   3.179   3.975  0.0783  0.4912 -0.0576
 4720SOL    HW114876   5.781   3.225   4.019 -0.8523  1.4812  0.4207
 4720SOL    HW214877   5.630   3.212   4.015 -0.6169 -1.8537  0.5921
 4721SOL     OW14878   2.053   5.808   2.071 -0.5938  0.1735 -0.2482
 4721SOL    HW114879   2.085   5.764   2.150 -0.8104  1.4995  0.5843
 4721SOL    HW214880   2.025   5.737   2.014 -1.7119 -0.7405  1.4146
 4722SOL     OW14881   4.898   1.700   4.697  0.4568 -0.6323 -0.8721
 4722SOL    HW114882   4.887   1.704   4.602  1.2999 -0.7882 -0.9776
 4722SOL    HW214883   4.809   1.701   4.732  0.1790  1.6894 -1.5864
 4723SOL     OW14884   3.255   3.978   2.279  0.2238 -0.3367 -0.1537
 4723SOL    HW114885   3.281   3.927   2.356  0.0403  0.7323  0.6421
 4723SOL    HW214886   3.176   4.024   2.308 -0.3213 -0.5694 -1.2652
 4724SOL     OW14887   4.453   3.746   1.405  0.1590  0.2070  0.0469
 4724SOL    HW114888   4.534   3.696   1.416  0.1948  0.1463 -0.4543
 4724SOL    HW214889   4.435   3.741   1.311 -0.1024  0.7237  0.0678
 4725SOL     OW14890   3.497   1.335   3.202  0.1459  0.2024 -0.2265
 4725SOL    HW114891   3.469   1.320   3.112  1.0514 -1.0945 -0.3051
 4725SOL    HW214892   3.590   1.352   3.196  0.0485  0.9796  0.3811
 4726SOL     OW14893   5.983   1.444   1.617 -0.2258 -0.0212 -0.0881
 4726SOL    HW114894   5.983   1.398   1.533 -0.9843  0.4824 -0.3686
 4726SOL    HW214895   6.075   1.466   1.632 -0.2251  0.7886 -1.2803
 4727SOL     OW14896   5.833   0.529   2.210  0.3226  0.8415 -0.0772
 4727SOL    HW114897   5.820   0.612   2.163  0.4523  1.5933  1.1753
 4727SOL    HW214898   5.856   0.556   2.299 -1.0605 -0.5505  0.7328
 4728SOL     OW14899   2.097   5.209   2.158  0.1239  0.5798 -0.1891
 4728SOL    HW114900   2.003   5.206   2.141  0.0535 -0.8705  0.4265
 4728SOL    HW214901   2.128   5.284   2.107 -0.9370 -0.5072 -2.5117
 4729SOL     OW14902   6.452   5.818   0.940  0.1154 -0.0851 -0.3216
 4729SOL    HW114903   6.522   5.797   0.879  0.7790 -0.8360  0.6992
 4729SOL    HW214904   6.404   5.736   0.952  0.7473 -0.2650  1.1288
 4730SOL     OW14905   4.400   4.658   1.188 -0.0205  0.6029 -0.4976
 4730SOL    HW114906   4.314   4.652   1.230 -0.5617 -2.3155 -1.9276
 4730SOL    HW214907   4.458   4.691   1.258 -2.0652  1.6275  0.7660
 4731SOL     OW14908   5.383   3.888   1.179  0.2239 -0.5728  0.1846
 4731SOL    HW114909   5.463   3.839   1.161 -0.1926 -2.1372  2.3755
 4731SOL    HW214910   5.414   3.974   1.209  1.0839 -1.0336  0.6425
 4732SOL     OW14911   0.181   2.283   6.282 -0.1186  0.4999  0.5132
 4732SOL    HW114912   0.099   2.267   6.236 -0.7991  2.1575  1.1062
 4732SOL    HW214913   0.193   2.378   6.275  0.9397  0.4667  1.8026
 4733SOL     OW14914   0.834   4.554   1.270 -0.5922  0.0116  0.4493
 4733SOL    HW114915   0.868   4.621   1.210 -1.5316  1.2132  1.2476
 4733SOL    HW214916   0.827   4.476   1.216  2.2813  0.0313 -0.0654
 4734SOL     OW14917   3.522   6.303   6.602 -0.1287 -1.0598  0.1330
 4734SOL    HW114918   3.554   6.292   6.691  0.5366 -4.4263 -0.4652
 4734SOL    HW214919   3.596   6.278   6.546 -0.5889  0.8303 -1.4070
 4735SOL     OW14920   5.680   4.001   3.195  0.1482 -0.4114 -0.3795
 4735SOL    HW114921   5.697   3.926   3.139 -0.8052  0.6917 -2.2026
 4735SOL    HW214922   5.736   4.071   3.160 -0.6840  0.3797 -0.1679
 4736SOL     OW14923   0.758   5.773   4.607 -0.3918 -0.3562 -0.5515
 4736SOL    HW114924   0.745   5.791   4.700  0.8578  2.2004 -0.8339
 4736SOL    HW214925   0.851   5.751   4.599 -0.5835 -0.9756 -1.1595
 4737SOL     OW14926   5.940   4.709   1.353  0.3512  0.2682 -0.6056
 4737SOL    HW114927   6.008   4.697   1.420  3.1377 -2.4435 -3.7840
 4737SOL    HW214928   5.869   4.652   1.381  1.2079 -0.3429  0.3865
 4738SOL     OW14929   3.648   1.555   5.250 -0.6126 -0.1170 -0.0647
 4738SOL    HW114930   3.713   1.623   5.237 -0.9932  0.4139  0.7607
 4738SOL    HW214931   3.697   1.481   5.286 -0.2129 -0.2632 -0.9017
 4739SOL     OW14932   3.995   1.340   0.808  0.6176  0.3079 -0.2918
 4739SOL    HW114933   3.930   1.356   0.877  2.1796  1.4262  0.9710
 4739SOL    HW214934   3.985   1.414   0.749 -1.7300 -1.3945 -2.1407
 4740SOL     OW14935   6.282   3.545   6.462  0.2121  0.0052  0.4701
 4740SOL    HW114936   6.249   3.578   6.378  0.0199 -0.8184  0.2264
 4740SOL    HW214937   6.208   3.553   6.522  0.1272 -0.1066  0.3802
 4741SOL     OW14938   0.686   4.493   2.615  0.5331 -0.2880  0.0604
 4741SOL    HW114939   0.700   4.400   2.596  2.0228 -0.0898  0.1071
 4741SOL    HW214940   0.758   4.537   2.571 -0.2959  0.8783 -0.1511
 4742SOL     OW14941   3.594   6.733   1.562 -0.8174  0.4594  0.3535
 4742SOL    HW114942   3.625   6.802   1.620  0.1617 -0.4224  0.8778
 4742SOL    HW214943   3.609   6.652   1.610  0.0037 -0.2791 -1.1097
 4743SOL     OW14944   5.337   4.423   3.284  0.0144 -0.4543 -0.0961
 4743SOL    HW114945   5.352   4.343   3.234 -1.4985  0.1194 -1.5083
 4743SOL    HW214946   5.242   4.435   3.282  0.2406  1.4989 -0.1102
 4744SOL     OW14947   4.776   5.617   0.137  0.0052  0.1477  0.0963
 4744SOL    HW114948   4.738   5.534   0.167  1.4865 -0.3950  0.5515
 4744SOL    HW214949   4.789   5.668   0.218 -1.3992  1.0463 -0.2366
 4745SOL     OW14950   4.938   4.376   3.538  0.2303 -0.1270  0.0664
 4745SOL    HW114951   4.976   4.355   3.453 -1.1814  2.3231 -1.2585
 4745SOL    HW214952   5.008   4.423   3.584  0.5823 -0.3231 -0.2632
 4746SOL     OW14953   6.677   6.328   2.263 -0.0359 -0.0532 -0.5067
 4746SOL    HW114954   6.609   6.273   2.223 -0.3217  0.2277 -0.4084
 4746SOL    HW214955   6.638   6.415   2.269  0.6127  0.2881 -1.1596
 4747SOL     OW14956   6.611   6.068   0.806 -0.1546 -0.5235  0.6946
 4747SOL    HW114957   6.529   6.081   0.758  0.5422  1.4838 -0.0140
 4747SOL    HW214958   6.594   6.105   0.892 -0.2738 -0.8908  0.8277
 4748SOL     OW14959   6.730   3.737   1.668  0.4698 -0.1589 -0.2065
 4748SOL    HW114960   6.658   3.725   1.606  0.1889  2.0165 -0.3288
 4748SOL    HW214961   6.782   3.809   1.631  1.6814 -0.4925  0.8244
 4749SOL     OW14962   3.855   2.131   2.097 -0.3320 -0.7131  0.6905
 4749SOL    HW114963   3.849   2.112   2.004 -2.1726  0.4245  0.5665
 4749SOL    HW214964   3.841   2.047   2.140 -1.0577 -0.9560 -0.0243
 4750SOL     OW14965   2.316   0.162   0.382  0.0856 -0.4614 -0.1126
 4750SOL    HW114966   2.351   0.181   0.295  0.5480  0.2855  0.2321
 4750SOL    HW214967   2.367   0.088   0.413  2.1614  1.3067  0.8393
 4751SOL     OW14968   3.114   3.127   5.095 -0.7624 -0.0195 -0.1566
 4751SOL    HW114969   3.091   3.220   5.096 -1.1407 -0.1181  0.5715
 4751SOL    HW214970   3.207   3.125   5.117 -0.7460  0.1891 -0.2095
 4752SOL     OW14971   3.758   5.158   5.709  0.2010  0.0302 -0.2137
 4752SOL    HW114972   3.690   5.120   5.654 -0.2706 -2.0522  1.7333
 4752SOL    HW214973   3.832   5.172   5.650 -1.2422  0.5447 -1.9539
 4753SOL     OW14974   0.907   1.096   5.186 -0.2833 -0.1645 -0.3945
 4753SOL    HW114975   0.955   1.175   5.215 -0.9930  0.2244 -0.2733
 4753SOL    HW214976   0.815   1.121   5.190 -0.4557 -0.5744 -1.6558
 4754SOL     OW14977   3.649   4.325   6.444  0.2797 -0.2542  0.4894
 4754SOL    HW114978   3.705   4.281   6.379 -0.4720 -1.3373  0.5562
 4754SOL    HW214979   3.568   4.341   6.397  0.0416 -0.2498  0.9036
 4755SOL     OW14980   0.206   3.522   3.171 -0.0409 -0.0380 -1.1632
 4755SOL    HW114981   0.238   3.546   3.258 -1.6079 -0.6714 -0.3867
 4755SOL    HW214982   0.272   3.556   3.111  1.7350 -0.7696  0.3355
 4756SOL     OW14983   3.305   2.290   4.040 -0.2533  0.1231 -0.1982
 4756SOL    HW114984   3.320   2.346   4.117  0.8471 -0.3208 -0.0863
 4756SOL    HW214985   3.276   2.207   4.077  2.6298 -0.8839 -0.1259
 4757SOL     OW14986   3.293   5.820   3.769  0.1234  0.0035 -0.0106
 4757SOL    HW114987   3.354   5.759   3.811 -0.3354 -0.1585  0.4193
 4757SOL    HW214988   3.321   5.821   3.677  1.4529  0.7746  0.3924
 4758SOL     OW14989   6.316   3.493   4.100  0.6848 -0.1208 -0.5682
 4758SOL    HW114990   6.354   3.528   4.181  0.2540 -1.0851  0.0634
 4758SOL    HW214991   6.337   3.400   4.102 -1.5375 -0.6414 -0.3033
 4759SOL     OW14992   6.585   0.922   4.552 -0.0758  0.5583  0.9349
 4759SOL    HW114993   6.659   0.869   4.526 -1.1141 -0.2925 -0.3515
 4759SOL    HW214994   6.534   0.866   4.611 -0.6270  0.4821  0.3954
 4760SOL     OW14995   1.953   4.444   0.478  0.4828  0.0870 -0.4761
 4760SOL    HW114996   1.862   4.460   0.502  0.4474 -0.5976 -0.1181
 4760SOL    HW214997   1.959   4.469   0.386  0.1742  1.0603 -0.2319
 4761SOL     OW14998   5.412   0.506   4.312 -0.2908 -0.4474 -0.0420
 4761SOL    HW114999   5.505   0.507   4.293 -0.4872  0.1586 -0.9677
 4761SOL    HW215000   5.396   0.419   4.349  0.6680 -0.4864  0.2903
 4762SOL     OW15001   2.346   1.358   0.801 -0.1459  0.3368  0.1807
 4762SOL    HW115002   2.339   1.265   0.822 -0.8470  0.4740  0.5692
 4762SOL    HW215003   2.360   1.360   0.706  0.8832 -0.1996  0.3230
 4763SOL     OW15004   0.364   4.901   0.681 -0.1193 -0.6936 -0.0977
 4763SOL    HW115005   0.419   4.822   0.684  1.0466  0.0748 -0.8005
 4763SOL    HW215006   0.299   4.888   0.750  0.1828 -2.1845 -0.0814
 4764SOL     OW15007   3.552   5.744   6.703  0.2642  0.1401  0.0803
 4764SOL    HW115008   3.461   5.766   6.718  0.1321 -0.2534 -0.1296
 4764SOL    HW215009   3.590   5.821   6.661  0.1141  0.4327  0.4758
 4765SOL     OW15010   4.641   3.303   3.750  0.3255 -0.2953  0.2482
 4765SOL    HW115011   4.653   3.273   3.840 -2.6467 -1.2468  0.3678
 4765SOL    HW215012   4.623   3.223   3.700  2.5752  0.1400 -1.3634
 4766SOL     OW15013   4.948   4.506   4.073  0.1354  0.0098 -0.1921
 4766SOL    HW115014   4.946   4.413   4.094  1.9765 -0.5162 -2.1318
 4766SOL    HW215015   4.910   4.549   4.150  0.2042 -2.2482  1.1515
 4767SOL     OW15016   4.957   5.816   5.672 -0.4539  0.4514  0.5577
 4767SOL    HW115017   4.965   5.741   5.729 -1.7673  0.2473  0.5010
 4767SOL    HW215018   5.015   5.882   5.710 -0.5445 -0.0256  1.5374
 4768SOL     OW15019   3.282   2.389   4.810 -0.1272  0.3134 -0.7776
 4768SOL    HW115020   3.293   2.472   4.857 -1.4506  0.3690 -0.5664
 4768SOL    HW215021   3.212   2.344   4.857 -3.5162  1.5712 -4.3262
 4769SOL     OW15022   3.340   0.102   1.936  0.0045 -0.1690  0.2136
 4769SOL    HW115023   3.296   0.056   1.864 -0.3496  0.5835 -0.0571
 4769SOL    HW215024   3.301   0.189   1.935  0.1886 -0.0780  1.1546
 4770SOL     OW15025   6.497   6.168   2.128 -0.5343 -0.4423 -0.4058
 4770SOL    HW115026   6.506   6.164   2.033 -0.2963 -0.0834 -0.3978
 4770SOL    HW215027   6.412   6.209   2.143 -0.4734 -0.2946 -0.4637
 4771SOL     OW15028   6.160   2.803   2.380  0.2991 -0.2613 -0.6111
 4771SOL    HW115029   6.068   2.810   2.405  0.9999  1.1101  1.7635
 4771SOL    HW215030   6.172   2.711   2.358 -1.6616 -0.4312 -1.0214
 4772SOL     OW15031   4.979   2.030   4.586 -0.2633 -0.6494 -0.1323
 4772SOL    HW115032   4.999   2.073   4.503  2.8087  0.2397  1.0150
 4772SOL    HW215033   5.046   1.962   4.594  0.9487  0.8130  2.7141
 4773SOL     OW15034   4.347   0.167   4.493 -0.2357  0.9909 -0.3507
 4773SOL    HW115035   4.311   0.079   4.500  2.1979  0.0670  1.3677
 4773SOL    HW215036   4.383   0.171   4.404  1.4912 -0.5494  0.2306
 4774SOL     OW15037   4.559   1.076   6.583  0.0760 -0.2732 -0.1152
 4774SOL    HW115038   4.614   1.104   6.510 -1.1557 -0.5481 -1.1695
 4774SOL    HW215039   4.558   0.981   6.578 -1.2104 -0.2473 -0.6671
 4775SOL     OW15040   0.557   1.954   0.636 -0.2429 -0.0136 -0.3521
 4775SOL    HW115041   0.628   1.891   0.626 -0.0219  0.1095  0.4017
 4775SOL    HW215042   0.599   2.031   0.675 -0.8366 -0.0366  0.3379
 4776SOL     OW15043   3.514   2.184   1.444 -0.2596 -0.0697  1.0466
 4776SOL    HW115044   3.514   2.153   1.353  1.0889  1.5993  0.4441
 4776SOL    HW215045   3.428   2.222   1.457  0.1046  1.1596 -0.0706
 4777SOL     OW15046   3.740   1.302   3.960 -0.5301 -0.6405 -0.0938
 4777SOL    HW115047   3.648   1.299   3.984 -0.6981  0.7010 -0.5051
 4777SOL    HW215048   3.745   1.369   3.891  0.5531 -1.5783 -0.9474
 4778SOL     OW15049   3.842   0.868   0.215 -0.4115  0.1792 -0.0257
 4778SOL    HW115050   3.903   0.803   0.250 -1.8675 -0.0944  2.1051
 4778SOL    HW215051   3.757   0.826   0.219 -1.0611  1.3862 -0.7905
 4779SOL     OW15052   6.412   1.461   4.109  0.3487 -0.6195  0.2447
 4779SOL    HW115053   6.416   1.548   4.149 -0.0714 -0.2292 -0.5371
 4779SOL    HW215054   6.504   1.434   4.101  0.4536 -0.5046  1.0348
 4780SOL     OW15055   1.335   4.228   6.745 -0.4513  0.6555  0.1808
 4780SOL    HW115056   1.312   4.135   6.747  0.0836  0.5523  1.7568
 4780SOL    HW215057   1.415   4.235   6.796 -1.4037  2.2232  1.5283
 4781SOL     OW15058   5.520   1.684   1.434 -0.2216  0.2512  0.2025
 4781SOL    HW115059   5.524   1.594   1.467 -1.2275  0.3069  0.4969
 4781SOL    HW215060   5.547   1.678   1.343 -1.1922 -0.5047 -0.0447
 4782SOL     OW15061   5.278   2.365   2.953  0.2606  0.1852  0.2509
 4782SOL    HW115062   5.229   2.358   2.871 -1.7900  0.2330  1.4433
 4782SOL    HW215063   5.305   2.276   2.973 -0.2901 -0.0035  0.1554
 4783SOL     OW15064   0.332   1.769   2.491 -0.0994  0.1012  0.0366
 4783SOL    HW115065   0.299   1.740   2.406  0.8908  1.5929 -0.8782
 4783SOL    HW215066   0.402   1.830   2.470 -1.5452  2.5137  1.8960
 4784SOL     OW15067   1.690   2.644   2.050  0.6787  0.1050 -0.0913
 4784SOL    HW115068   1.604   2.621   2.084  0.7144  0.4609  0.2469
 4784SOL    HW215069   1.747   2.572   2.078  0.6684  0.3012  0.4393
 4785SOL     OW15070   3.157   6.607   4.251 -0.2707  0.0632 -0.1524
 4785SOL    HW115071   3.235   6.660   4.242 -0.3971  0.2804  0.0436
 4785SOL    HW215072   3.129   6.619   4.342 -0.0385 -0.6973  0.0212
 4786SOL     OW15073   3.527   4.229   3.063 -0.5959  0.5373  0.6912
 4786SOL    HW115074   3.526   4.135   3.081  0.6699  0.6139  1.1713
 4786SOL    HW215075   3.442   4.246   3.022 -0.3656 -1.0178 -0.4653
 4787SOL     OW15076   5.402   2.093   2.622 -0.6721 -0.0388 -0.1225
 4787SOL    HW115077   5.485   2.047   2.606 -0.7181  0.1445 -0.9574
 4787SOL    HW215078   5.336   2.024   2.624 -0.7727 -0.0139 -1.6077
 4788SOL     OW15079   4.979   4.652   1.057 -0.1839  0.2563 -0.6742
 4788SOL    HW115080   4.896   4.621   1.020 -1.4205  1.2068  1.2103
 4788SOL    HW215081   4.956   4.733   1.102  1.9539  0.9980 -0.8641
 4789SOL     OW15082   2.035   1.960   3.403 -0.1827 -0.3374 -0.2123
 4789SOL    HW115083   2.028   1.989   3.494 -0.4131 -0.8262 -0.0720
 4789SOL    HW215084   2.031   1.864   3.408  1.7902 -0.4594 -0.5452
 4790SOL     OW15085   3.471   6.467   2.071  0.2317 -0.0500 -0.0828
 4790SOL    HW115086   3.427   6.542   2.111  0.9628  1.3700 -1.8515
 4790SOL    HW215087   3.401   6.419   2.026  0.3193  1.7872 -2.2577
 4791SOL     OW15088   4.372   1.366   3.265  0.5283 -0.0894 -0.1294
 4791SOL    HW115089   4.419   1.302   3.212 -2.3518 -2.2897 -0.0958
 4791SOL    HW215090   4.357   1.322   3.349  0.4115  1.4349  0.6849
 4792SOL     OW15091   5.860   0.535   3.397 -0.0996  0.4233  0.5174
 4792SOL    HW115092   5.903   0.482   3.463 -0.1542 -1.2635 -0.7680
 4792SOL    HW215093   5.769   0.543   3.427 -0.0330 -0.0224  0.8346
 4793SOL     OW15094   4.170   1.945   2.382  0.0803  0.5928  0.0071
 4793SOL    HW115095   4.142   1.927   2.292 -0.8374 -0.6621  0.5299
 4793SOL    HW215096   4.234   2.016   2.373 -0.0918  0.5711 -1.6208
 4794SOL     OW15097   5.783   1.195   5.468  0.1167 -1.0390  0.3970
 4794SOL    HW115098   5.875   1.172   5.456  0.1253 -2.6846  3.0332
 4794SOL    HW215099   5.751   1.131   5.532 -3.0632 -0.9748 -1.0399
 4795SOL     OW15100   3.390   1.648   1.030 -0.5563 -0.5142 -0.5030
 4795SOL    HW115101   3.389   1.660   0.935 -0.0353  1.6274 -0.2402
 4795SOL    HW215102   3.310   1.691   1.060  0.9611  1.7481  0.3638
 4796SOL     OW15103   3.880   6.038   5.552  0.1310  0.0458  0.0065
 4796SOL    HW115104   3.823   5.968   5.584  0.0118  0.0841 -0.1246
 4796SOL    HW215105   3.966   5.996   5.544  0.0244 -0.1339 -0.2331
 4797SOL     OW15106   4.869   6.747   1.003  0.6323 -0.2519 -0.5662
 4797SOL    HW115107   4.875   6.652   0.997 -0.6043 -0.2878 -1.3857
 4797SOL    HW215108   4.878   6.777   0.913 -0.8461  0.2933 -0.5334
 4798SOL     OW15109   4.240   5.601   0.011  0.1179 -0.2445  0.2659
 4798SOL    HW115110   4.274   5.621   0.099 -1.7034 -1.5399  1.2782
 4798SOL    HW215111   4.283   5.519  -0.013 -1.6259 -1.4339  1.1870
 4799SOL     OW15112   1.888   2.268   5.656 -0.1976 -0.3474  0.2266
 4799SOL    HW115113   1.960   2.315   5.697 -0.0574 -0.6593  0.3357
 4799SOL    HW215114   1.851   2.214   5.725 -2.0008  1.5380  0.7490
 4800SOL     OW15115   5.789   3.306   2.318 -0.4717  0.0947  0.0675
 4800SOL    HW115116   5.700   3.338   2.308 -0.4756  0.1777  0.3465
 4800SOL    HW215117   5.845   3.379   2.290 -0.5026 -0.3307 -1.1183
 4801SOL     OW15118   2.842   3.794   5.528  0.1302  0.0757 -0.0763
 4801SOL    HW115119   2.917   3.825   5.476  0.8043  0.0520  0.8648
 4801SOL    HW215120   2.882   3.742   5.598 -0.8548 -1.0575 -0.3494
 4802SOL     OW15121   2.730   4.583   0.839 -0.0158 -0.1830 -0.0313
 4802SOL    HW115122   2.804   4.528   0.814  0.1269 -0.5497  1.1442
 4802SOL    HW215123   2.737   4.661   0.784  0.7263 -0.6187 -0.5521
 4803SOL     OW15124   2.950   2.867   4.085  0.0418 -0.7255  0.6673
 4803SOL    HW115125   2.905   2.935   4.135 -0.2167  0.4155 -1.0760
 4803SOL    HW215126   2.970   2.799   4.149  0.1009  0.8908  2.3922
 4804SOL     OW15127   1.697   2.341   4.088 -0.4871 -0.2777  0.0672
 4804SOL    HW115128   1.663   2.368   4.173 -1.1137  1.9700 -0.8592
 4804SOL    HW215129   1.790   2.327   4.102 -0.7721 -0.9215  1.3510
 4805SOL     OW15130   5.619   6.126   4.429 -0.6037 -0.0273 -0.0764
 4805SOL    HW115131   5.702   6.173   4.437 -1.3750  1.4725 -0.8030
 4805SOL    HW215132   5.641   6.046   4.380  0.3489  0.5078 -0.5250
 4806SOL     OW15133   2.917   4.611   4.504  0.1395  0.1951 -0.4243
 4806SOL    HW115134   2.940   4.704   4.492 -0.9459  0.4249 -0.8063
 4806SOL    HW215135   2.835   4.601   4.456  0.6207 -1.1406 -0.9965
 4807SOL     OW15136   5.778   1.207   2.127  0.0422 -0.0457 -0.2341
 4807SOL    HW115137   5.828   1.249   2.057  1.6152 -0.8265  0.3878
 4807SOL    HW215138   5.841   1.198   2.199 -1.2516 -0.2359  0.8970
 4808SOL     OW15139   4.558   0.530   2.220  0.0846  0.0981  0.0158
 4808SOL    HW115140   4.574   0.624   2.219 -1.1593  0.3092 -1.9093
 4808SOL    HW215141   4.613   0.496   2.149  0.0780 -0.5562  0.3209
 4809SOL     OW15142   2.695   6.348   5.743 -0.3468  0.8222  0.5181
 4809SOL    HW115143   2.710   6.294   5.665 -0.4703  1.5377 -0.0075
 4809SOL    HW215144   2.613   6.394   5.724 -0.5393  0.7586  1.2109
 4810SOL     OW15145   3.436   3.848   2.099  0.4049  0.0502  0.3074
 4810SOL    HW115146   3.403   3.760   2.083  1.1740 -0.0710 -0.6528
 4810SOL    HW215147   3.367   3.890   2.151  0.2584 -1.2600  1.1819
 4811SOL     OW15148   2.446   6.646   4.205 -0.1470  0.3060  1.0419
 4811SOL    HW115149   2.530   6.619   4.169  0.1106  1.2251  0.9470
 4811SOL    HW215150   2.420   6.574   4.263  0.5915 -0.0734  0.9018
 4812SOL     OW15151   1.145   1.092   4.494 -0.3324 -0.4676  0.0020
 4812SOL    HW115152   1.157   1.035   4.418  1.0495 -0.1950 -0.0063
 4812SOL    HW215153   1.171   1.039   4.569 -0.4138 -0.3078  0.1441
 4813SOL     OW15154   5.570   1.778   4.785  0.0825  0.1185  0.0160
 4813SOL    HW115155   5.550   1.871   4.782  0.2868  0.1969  1.1892
 4813SOL    HW215156   5.520   1.745   4.859 -0.0335 -0.7197 -0.4295
 4814SOL     OW15157   3.983   0.842   5.858 -0.1780  0.2929 -0.3627
 4814SOL    HW115158   4.057   0.846   5.797  0.3205 -0.2921  0.2067
 4814SOL    HW215159   4.022   0.820   5.943 -1.1188 -1.0479 -0.2621
 4815SOL     OW15160   3.665   6.439   3.298 -0.5925  0.8073 -0.0480
 4815SOL    HW115161   3.735   6.493   3.263 -0.4939  0.7184  0.0131
 4815SOL    HW215162   3.592   6.452   3.236  0.7540 -2.2274 -2.4276
 4816SOL     OW15163   2.021   6.710   6.420 -0.0212 -0.2348 -0.2514
 4816SOL    HW115164   2.089   6.775   6.399 -0.6667 -0.0061 -1.6592
 4816SOL    HW215165   2.053   6.668   6.500  1.2060  0.6922 -0.2342
 4817SOL     OW15166   2.821   2.780   2.482  0.2374 -0.5727 -0.6479
 4817SOL    HW115167   2.807   2.864   2.525  0.0400 -0.4118 -1.0246
 4817SOL    HW215168   2.901   2.746   2.520  1.5712  0.8274 -2.1341
 4818SOL     OW15169   2.717   6.517   5.468 -0.0765  0.3898 -0.2695
 4818SOL    HW115170   2.705   6.424   5.486 -1.3272  0.2881 -1.5430
 4818SOL    HW215171   2.700   6.525   5.374 -1.8987  2.1994  0.1919
 4819SOL     OW15172   6.564   1.816   3.647 -0.2387  0.2907  0.0590
 4819SOL    HW115173   6.533   1.746   3.589  1.2542  0.5650 -1.0918
 4819SOL    HW215174   6.534   1.897   3.605  0.8624  0.4887 -0.3633
 4820SOL     OW15175   0.978   1.607   6.165 -0.4004 -0.9147  0.2622
 4820SOL    HW115176   0.977   1.655   6.247 -0.3702  0.5650 -0.5860
 4820SOL    HW215177   0.887   1.604   6.137 -0.2787 -0.4233 -0.2059
 4821SOL     OW15178   1.130   4.003   3.208  0.4137 -0.0155 -0.1820
 4821SOL    HW115179   1.189   3.933   3.181  0.1890 -0.1545 -0.3167
 4821SOL    HW215180   1.166   4.082   3.168  2.0237  0.3558  1.9429
 4822SOL     OW15181   5.767   0.295   4.425  0.3302  0.9805 -0.4573
 4822SOL    HW115182   5.753   0.359   4.495  0.5368  0.1696  0.3269
 4822SOL    HW215183   5.859   0.271   4.433 -1.0074 -3.6337  2.8766
 4823SOL     OW15184   3.268   3.780   4.169  0.4607  0.0507 -0.0160
 4823SOL    HW115185   3.346   3.725   4.177  0.1044 -0.6143 -0.9913
 4823SOL    HW215186   3.224   3.747   4.091 -1.6346 -0.6171  1.4296
 4824SOL     OW15187   5.924   0.654   6.743  0.0728  0.2198 -0.6453
 4824SOL    HW115188   5.831   0.636   6.751 -0.2994  0.8979 -3.2717
 4824SOL    HW215189   5.964   0.569   6.727 -0.1023 -0.0425  0.2847
 4825SOL     OW15190   0.792   6.741   0.802  0.3353  0.0879 -0.8454
 4825SOL    HW115191   0.786   6.663   0.746  2.2551 -1.2750  0.8012
 4825SOL    HW215192   0.880   6.737   0.840  0.0105  2.4108  0.2248
 4826SOL     OW15193   5.324   0.594   3.982  0.0395  0.0586 -0.0224
 4826SOL    HW115194   5.360   0.511   4.012  1.7549 -0.0692 -2.2473
 4826SOL    HW215195   5.231   0.576   3.969  0.4444 -1.6283 -0.7907
 4827SOL     OW15196   3.500   6.037   5.269 -0.5470  0.1867 -0.3044
 4827SOL    HW115197   3.478   6.066   5.357 -0.8021 -0.4661 -0.1479
 4827SOL    HW215198   3.422   6.058   5.217  0.0464  1.6340 -0.6260
 4828SOL     OW15199   6.196   3.877   1.640 -0.5369  0.1565 -0.6193
 4828SOL    HW115200   6.118   3.926   1.614 -1.2032  0.6089  2.0534
 4828SOL    HW215201   6.245   3.938   1.696  0.0463 -1.2580  0.4430
 4829SOL     OW15202   6.702   1.515   5.209 -0.1949  0.6202 -0.4019
 4829SOL    HW115203   6.727   1.607   5.207  1.3921  0.2350  0.8926
 4829SOL    HW215204   6.719   1.483   5.120  1.7063  0.9528 -0.1807
 4830SOL     OW15205   2.220   6.203   5.873 -0.3129  0.2680  0.5110
 4830SOL    HW115206   2.240   6.155   5.793  1.8728 -0.1425  1.2695
 4830SOL    HW215207   2.239   6.295   5.852 -0.6889  0.2895  0.2636
 4831SOL     OW15208   6.059   6.115   0.643 -0.4810  0.0735 -0.3489
 4831SOL    HW115209   6.116   6.187   0.615  0.6529 -1.0051 -0.8467
 4831SOL    HW215210   6.080   6.043   0.584 -3.5207  0.1078 -1.6255
 4832SOL     OW15211   5.501   2.805   6.545  0.2972 -0.6057  0.0837
 4832SOL    HW115212   5.555   2.743   6.495  1.1232 -1.9239  2.5576
 4832SOL    HW215213   5.412   2.772   6.534  0.7177 -2.2273  1.2943
 4833SOL     OW15214   1.670   6.408   3.964  0.3205  0.6826 -0.0587
 4833SOL    HW115215   1.765   6.396   3.959  0.2421 -0.8672  1.7014
 4833SOL    HW215216   1.657   6.473   4.032  0.0126 -1.6606  2.2105
 4834SOL     OW15217   4.746   3.110   4.807 -0.3000 -0.3633 -0.3203
 4834SOL    HW115218   4.701   3.050   4.867  0.2681  0.4273  0.9125
 4834SOL    HW215219   4.837   3.082   4.809 -0.5710 -1.4830 -2.2394
 4835SOL     OW15220   3.505   5.421   3.924 -0.4423 -0.3572 -0.1244
 4835SOL    HW115221   3.594   5.389   3.916 -0.8176 -1.3457 -0.3679
 4835SOL    HW215222   3.506   5.506   3.879  0.2114 -0.6590 -0.6758
 4836SOL     OW15223   4.603   0.365   4.872  0.3825  0.5875  0.5347
 4836SOL    HW115224   4.629   0.455   4.852  4.4351 -0.5487  0.1981
 4836SOL    HW215225   4.586   0.324   4.787  2.1186  0.0645  0.4282
 4837SOL     OW15226   3.923   5.089   4.907 -0.0632 -0.6220 -0.3768
 4837SOL    HW115227   3.953   5.009   4.862 -1.1686 -1.6421  0.6660
 4837SOL    HW215228   3.921   5.064   4.999 -1.1094  0.4122 -0.1252
 4838SOL     OW15229   1.194   6.071   0.598  0.3396 -0.1087  0.4027
 4838SOL    HW115230   1.192   6.124   0.678  1.4947  1.5348 -0.6400
 4838SOL    HW215231   1.126   6.109   0.542  0.6239 -0.2454 -0.0389
 4839SOL     OW15232   2.330   1.749   5.891  0.0651 -0.4177 -0.0136
 4839SOL    HW115233   2.329   1.794   5.807 -0.0902  0.1458  0.2913
 4839SOL    HW215234   2.319   1.656   5.869 -0.3356 -0.2333 -0.5914
 4840SOL     OW15235   5.613   6.019   5.215 -0.4631  0.1639 -0.3422
 4840SOL    HW115236   5.651   6.078   5.150 -2.1205 -0.3025 -1.7560
 4840SOL    HW215237   5.685   5.962   5.241  0.9127  2.1148  0.2949
 4841SOL     OW15238   2.461   5.971   4.449 -0.4816  0.5096 -0.0506
 4841SOL    HW115239   2.498   6.031   4.384 -0.0776  1.2694  0.8667
 4841SOL    HW215240   2.499   5.886   4.427  1.8049  1.2540  0.8217
 4842SOL     OW15241   0.362   0.815   6.027 -0.4780 -0.2096  0.0043
 4842SOL    HW115242   0.413   0.892   6.001  1.1809 -1.7377 -1.3738
 4842SOL    HW215243   0.368   0.814   6.123 -0.9394  1.6533  0.0666
 4843SOL     OW15244   5.657   1.748   5.935  0.5655  0.3783  0.1142
 4843SOL    HW115245   5.723   1.688   5.899 -0.8474  0.2434 -2.3620
 4843SOL    HW215246   5.690   1.835   5.914 -0.0720  0.3086 -1.2120
 4844SOL     OW15247   3.812   0.350   6.360  1.0327  0.8291 -0.5804
 4844SOL    HW115248   3.851   0.327   6.445  0.5975  0.8615 -0.3693
 4844SOL    HW215249   3.873   0.314   6.296  1.0092  0.1807 -0.2503
 4845SOL     OW15250   2.594   0.171   1.523  0.6775  0.3427 -0.1013
 4845SOL    HW115251   2.502   0.157   1.502  0.6136  0.7057 -0.0734
 4845SOL    HW215252   2.605   0.136   1.611  0.9001 -1.0095 -0.6602
 4846SOL     OW15253   2.296   4.176   6.585 -0.4533  0.2224  0.4149
 4846SOL    HW115254   2.221   4.119   6.599 -1.3562  1.5313  1.0843
 4846SOL    HW215255   2.323   4.160   6.494  0.8638 -3.0193  1.3046
 4847SOL     OW15256   6.179   5.654   0.117  0.3337  0.2417  0.5020
 4847SOL    HW115257   6.267   5.678   0.086  0.6084 -2.1673 -0.6713
 4847SOL    HW215258   6.195   5.609   0.200  0.0451  1.3098  1.1548
 4848SOL     OW15259   6.478   2.348   0.522  0.3726 -0.1402  0.3325
 4848SOL    HW115260   6.385   2.329   0.534 -0.0440  1.0609 -0.9344
 4848SOL    HW215261   6.522   2.283   0.577 -1.1629 -1.6081 -0.1032
 4849SOL     OW15262   4.020   6.671   0.575  0.1515 -0.0872 -0.6608
 4849SOL    HW115263   4.042   6.655   0.483 -2.9463 -0.6491 -1.3920
 4849SOL    HW215264   4.017   6.766   0.583 -1.0295 -0.0298 -1.5644
 4850SOL     OW15265   0.254   1.120   2.687 -0.6411  0.0064 -0.2115
 4850SOL    HW115266   0.295   1.152   2.767 -1.2571  0.7186 -0.1661
 4850SOL    HW215267   0.323   1.073   2.641 -0.0314  0.3999  0.2962
 4851SOL     OW15268   2.117   3.737   3.915  0.2728  0.2316 -0.8964
 4851SOL    HW115269   2.025   3.755   3.894  0.6297 -0.0364 -2.7667
 4851SOL    HW215270   2.113   3.676   3.989 -1.0134  1.8303  0.3944
 4852SOL     OW15271   2.562   1.851   2.449 -0.5451 -0.9150  0.2272
 4852SOL    HW115272   2.503   1.811   2.385  1.6346 -1.7725 -1.2854
 4852SOL    HW215273   2.587   1.934   2.408  1.3844 -1.7706 -0.3799
 4853SOL     OW15274   3.711   6.227   0.668  0.3114  0.2724  0.2398
 4853SOL    HW115275   3.686   6.201   0.579  0.0589 -0.0667  0.4078
 4853SOL    HW215276   3.783   6.289   0.655 -0.7100  1.3873 -0.2636
 4854SOL     OW15277   6.606   6.068   4.309  0.1816  0.3369 -0.1688
 4854SOL    HW115278   6.548   6.047   4.235 -0.7190 -0.9783  0.8884
 4854SOL    HW215279   6.594   5.995   4.370  0.5256  1.6535  1.5083
 4855SOL     OW15280   2.302   4.013   5.576  0.0716  0.6202 -0.3948
 4855SOL    HW115281   2.267   3.925   5.558  1.4361 -0.0326  0.0970
 4855SOL    HW215282   2.361   4.031   5.503 -0.7793  1.4591 -0.8905
 4856SOL     OW15283   5.769   0.554   2.933 -0.4533 -0.3006 -0.4266
 4856SOL    HW115284   5.853   0.508   2.936  0.1844  0.8238 -0.5673
 4856SOL    HW215285   5.746   0.556   2.840  0.6855  1.6819 -0.7003
 4857SOL     OW15286   4.323   5.160   3.060 -0.0328  0.0380  0.2068
 4857SOL    HW115287   4.344   5.182   2.970 -0.1750 -1.3537 -0.1767
 4857SOL    HW215288   4.231   5.183   3.070 -0.8674 -2.6538 -0.9357
 4858SOL     OW15289   4.621   5.037   1.907 -0.3909  0.2259 -0.0075
 4858SOL    HW115290   4.599   5.105   1.843 -1.5591  0.6166  0.7877
 4858SOL    HW215291   4.537   5.015   1.949  0.4895  0.7104  2.0950
 4859SOL     OW15292   3.982   2.330   5.590  0.6143 -0.5734  0.1580
 4859SOL    HW115293   4.061   2.384   5.600  0.0504  0.1385  0.8194
 4859SOL    HW215294   3.980   2.275   5.668 -0.7279  0.9792  1.2589
 4860SOL     OW15295   0.051   6.029   6.326 -0.3673 -0.1279 -0.3971
 4860SOL    HW115296   0.140   6.063   6.337 -1.3343  2.3647 -0.0067
 4860SOL    HW215297   0.022   6.009   6.415  0.4561 -2.8028 -0.6768
 4861SOL     OW15298   6.142   2.283   6.178 -0.1200 -0.2701  0.1492
 4861SOL    HW115299   6.057   2.303   6.216  0.1180  0.4251  0.3275
 4861SOL    HW215300   6.196   2.361   6.197 -0.5026  0.8659 -3.0729
 4862SOL     OW15301   5.991   1.529   1.007  0.3207  0.2785 -0.1625
 4862SOL    HW115302   5.938   1.591   0.956  0.1391  1.3338  1.2778
 4862SOL    HW215303   5.993   1.449   0.953 -1.9291  0.5470 -0.6863
 4863SOL     OW15304   3.263   4.951   6.436  0.3245 -0.5416  0.4896
 4863SOL    HW115305   3.326   4.969   6.506  1.7403  0.4347 -1.0225
 4863SOL    HW215306   3.260   5.031   6.384 -2.6818 -0.3320  0.8934
 4864SOL     OW15307   5.775   3.559   1.314  0.4108 -0.6841 -0.3918
 4864SOL    HW115308   5.749   3.643   1.352  0.4423 -1.5269  1.5623
 4864SOL    HW215309   5.856   3.536   1.360  0.6739 -1.5305 -1.2764
 4865SOL     OW15310   5.473   5.677   2.690  0.2076  0.0529 -0.0349
 4865SOL    HW115311   5.452   5.692   2.782  1.4221 -0.9741  0.4284
 4865SOL    HW215312   5.439   5.754   2.645 -0.7102  0.4039  1.2226
 4866SOL     OW15313   1.712   2.350   3.470  0.2863 -0.0596  0.2595
 4866SOL    HW115314   1.649   2.315   3.533 -0.3193 -2.5753 -1.6822
 4866SOL    HW215315   1.690   2.444   3.465 -0.8097 -0.1531  2.3948
 4867SOL     OW15316   2.552   5.339   2.167  0.1963 -0.3247  0.2027
 4867SOL    HW115317   2.485   5.312   2.230  0.2944 -2.2444 -0.4745
 4867SOL    HW215318   2.504   5.360   2.087  0.1443  1.2975  0.6508
 4868SOL     OW15319   4.876   3.891   6.213  0.1446  0.2760 -0.0672
 4868SOL    HW115320   4.871   3.825   6.144  0.8694  1.4754 -1.2828
 4868SOL    HW215321   4.830   3.967   6.177  1.8315  1.4319  0.1565
 4869SOL     OW15322   3.567   4.194   0.869  0.7663 -0.1195  0.1815
 4869SOL    HW115323   3.615   4.115   0.847 -0.4740 -0.8077 -0.0938
 4869SOL    HW215324   3.562   4.194   0.964 -1.6108 -1.8440  0.0999
 4870SOL     OW15325   1.904   5.897   5.912 -0.8172 -0.0930  0.0988
 4870SOL    HW115326   1.928   5.889   6.005  0.5788  1.8776 -0.0481
 4870SOL    HW215327   1.944   5.821   5.871 -0.8154 -0.5972  1.0088
 4871SOL     OW15328   3.053   0.114   5.364 -0.2134 -0.2234  0.0231
 4871SOL    HW115329   3.063   0.209   5.370 -0.7831 -0.2711  2.1840
 4871SOL    HW215330   2.961   0.098   5.385 -0.2640 -1.2182 -0.9146
 4872SOL     OW15331   6.554   1.690   1.254 -0.1530 -0.3522  0.2289
 4872SOL    HW115332   6.518   1.740   1.327 -0.1722 -0.9677  0.6474
 4872SOL    HW215333   6.646   1.679   1.276 -0.4849 -1.8905  0.9530
 4873SOL     OW15334   4.248   2.212   6.485  0.5663  0.2744  0.0437
 4873SOL    HW115335   4.220   2.130   6.444 -0.5758 -0.2836  1.8936
 4873SOL    HW215336   4.194   2.279   6.442  0.4594 -0.1112 -0.4382
 4874SOL     OW15337   0.505   6.094   2.841  0.2889 -0.6558 -0.3481
 4874SOL    HW115338   0.514   6.076   2.748  0.8849 -0.7854 -0.2674
 4874SOL    HW215339   0.431   6.155   2.847 -0.9209 -2.0446 -0.7385
 4875SOL     OW15340   3.532   6.329   0.371 -0.1509  0.0865  0.1060
 4875SOL    HW115341   3.626   6.325   0.387 -0.2538  0.2868  0.7827
 4875SOL    HW215342   3.505   6.416   0.402  0.0338  1.4307 -3.3873
 4876SOL     OW15343   3.172   5.360   0.354 -0.6280  0.2653 -0.4556
 4876SOL    HW115344   3.231   5.394   0.287  0.3138 -0.9383 -0.2546
 4876SOL    HW215345   3.086   5.356   0.311 -0.2173  0.3847 -1.2925
 4877SOL     OW15346   3.355   5.610   5.216  0.5640 -0.0022 -0.0488
 4877SOL    HW115347   3.296   5.619   5.142  0.6873  1.4879  0.0175
 4877SOL    HW215348   3.436   5.575   5.179 -0.5214 -2.6146 -0.0484
 4878SOL     OW15349   5.143   0.398   4.891 -0.3901  0.1608  0.9156
 4878SOL    HW115350   5.121   0.485   4.858 -2.3023 -0.8872 -0.7247
 4878SOL    HW215351   5.154   0.410   4.985 -1.3223  2.0494  0.8095
 4879SOL     OW15352   4.880   0.319   6.761 -0.0113  0.1668  0.3975
 4879SOL    HW115353   4.835   0.373   6.826  0.7722 -0.2787  1.3203
 4879SOL    HW215354   4.818   0.248   6.743 -1.1503  1.4726 -1.0095
 4880SOL     OW15355   6.378   0.903   0.024 -0.2363 -0.3098  0.6111
 4880SOL    HW115356   6.467   0.908  -0.011 -0.5171  1.0052  0.0599
 4880SOL    HW215357   6.387   0.855   0.107  0.9508 -0.3319  0.4722
 4881SOL     OW15358   0.359   3.188   3.820  0.0640 -0.0156 -0.2964
 4881SOL    HW115359   0.304   3.239   3.880 -0.5503 -0.1260 -0.7673
 4881SOL    HW215360   0.389   3.114   3.873 -0.9166 -0.4075 -0.2708
 4882SOL     OW15361   0.772   1.141   6.011  0.1979  0.0534  0.4242
 4882SOL    HW115362   0.802   1.057   6.047  0.5230  0.2148  0.5242
 4882SOL    HW215363   0.825   1.207   6.055 -0.5748  0.3644  0.8820
 4883SOL     OW15364   1.719   4.230   4.960  0.4333  0.0266 -0.4936
 4883SOL    HW115365   1.719   4.174   4.882 -1.5347 -0.3867 -0.2115
 4883SOL    HW215366   1.649   4.195   5.015  1.2618  0.8275  1.1056
 4884SOL     OW15367   4.641   1.360   2.297 -0.4347 -0.1058 -0.0341
 4884SOL    HW115368   4.546   1.363   2.287 -0.5785  0.6586  1.4321
 4884SOL    HW215369   4.671   1.304   2.225 -1.9754 -0.2429 -0.5876
 4885SOL     OW15370   3.368   3.886   6.364  0.2137  0.1315 -0.7373
 4885SOL    HW115371   3.426   3.867   6.290  1.1365  0.5302 -0.1354
 4885SOL    HW215372   3.286   3.844   6.342  0.9792 -1.1120 -1.2577
 4886SOL     OW15373   1.534   3.750   2.162 -0.0898  0.5159 -0.4421
 4886SOL    HW115374   1.445   3.740   2.126  0.0059  0.0048 -0.5385
 4886SOL    HW215375   1.570   3.662   2.161  0.0921  0.5771  0.4495
 4887SOL     OW15376   5.448   2.882   4.129 -0.0215 -0.7395 -0.6254
 4887SOL    HW115377   5.524   2.920   4.086 -0.7267 -0.3899 -1.5734
 4887SOL    HW215378   5.412   2.953   4.181 -0.1726 -0.6772 -0.8157
 4888SOL     OW15379   2.433   4.971   3.681 -0.3156 -0.3341 -0.1306
 4888SOL    HW115380   2.468   5.057   3.659 -0.5309 -0.1710  0.1538
 4888SOL    HW215381   2.397   4.982   3.770 -0.9115 -0.5387 -0.3404
 4889SOL     OW15382   0.199   3.637   0.626 -0.3400  0.2432  0.2688
 4889SOL    HW115383   0.189   3.560   0.569 -0.7429  1.0012 -0.7116
 4889SOL    HW215384   0.171   3.606   0.712 -2.3098 -0.2365 -0.4931
 4890SOL     OW15385   3.531   0.832   1.565  0.2105  0.0589  0.3520
 4890SOL    HW115386   3.472   0.823   1.490  2.3840 -0.5072 -1.3506
 4890SOL    HW215387   3.579   0.749   1.567  0.9324  0.5050  1.7287
 4891SOL     OW15388   2.765   5.895   1.787 -0.4012  0.3519  0.7246
 4891SOL    HW115389   2.685   5.876   1.739 -0.4665  0.1976  0.8943
 4891SOL    HW215390   2.829   5.917   1.720 -0.7901  1.2252  0.6281
 4892SOL     OW15391   3.299   0.044   5.135  0.0171 -0.1526 -0.0180
 4892SOL    HW115392   3.265   0.132   5.151 -0.2180 -0.4522  1.2061
 4892SOL    HW215393   3.344   0.021   5.216  1.0979 -0.7068 -0.7562
 4893SOL     OW15394   0.878   2.977   3.377 -0.0187 -1.0234 -0.0910
 4893SOL    HW115395   0.852   3.062   3.414 -0.4181 -0.9299 -0.5721
 4893SOL    HW215396   0.834   2.913   3.432 -0.8428 -0.8763 -0.5675
 4894SOL     OW15397   6.627   1.968   6.434 -0.1017 -0.3174  0.1958
 4894SOL    HW115398   6.593   1.907   6.500 -0.1314 -0.1163  0.3673
 4894SOL    HW215399   6.690   2.022   6.482 -1.6316  1.1854  0.5498
 4895SOL     OW15400   5.251   6.479   2.205 -0.5194  0.5869 -0.5892
 4895SOL    HW115401   5.230   6.485   2.298  0.3628  1.9038 -0.4600
 4895SOL    HW215402   5.176   6.518   2.161 -0.6888  0.4678 -0.4068
 4896SOL     OW15403   3.168   1.032   6.055 -0.2397 -0.4317 -0.1379
 4896SOL    HW115404   3.117   1.097   6.007 -0.2786  0.0463  0.5416
 4896SOL    HW215405   3.107   0.998   6.120  0.1904 -0.1495  0.4152
 4897SOL     OW15406   1.472   4.714   1.031 -0.0210  0.4022  0.0219
 4897SOL    HW115407   1.526   4.711   1.110 -0.0729  0.7362  0.0720
 4897SOL    HW215408   1.434   4.627   1.024  0.0686  0.3395  0.3068
 4898SOL     OW15409   1.255   2.190   3.004  0.0170 -0.7582 -0.1263
 4898SOL    HW115410   1.286   2.135   2.932  0.2595 -0.7700 -0.0144
 4898SOL    HW215411   1.250   2.278   2.967  0.6533 -0.6695 -0.0163
 4899SOL     OW15412   0.817   2.181   1.487  0.0213  0.1177 -0.4152
 4899SOL    HW115413   0.745   2.167   1.425 -0.7603 -1.4858  0.8252
 4899SOL    HW215414   0.884   2.118   1.460 -1.1953 -2.1728  1.6377
 4900SOL     OW15415   5.719   3.381   2.994  0.4141 -0.2926  0.8107
 4900SOL    HW115416   5.781   3.355   3.062  0.8497  1.1712  0.9858
 4900SOL    HW215417   5.739   3.324   2.920  1.3553 -0.4390  1.1729
 4901SOL     OW15418   2.315   4.675   1.401 -0.4299  0.5058 -0.0919
 4901SOL    HW115419   2.292   4.584   1.420  0.6179  0.3097  0.2757
 4901SOL    HW215420   2.401   4.670   1.360 -0.5553  1.3078 -0.4769
 4902SOL     OW15421   0.033   4.554   1.729  0.2883  0.2160 -0.0976
 4902SOL    HW115422   0.048   4.469   1.770  1.4423  0.6619  0.4025
 4902SOL    HW215423   0.107   4.608   1.755  0.8411  0.6467 -2.3998
 4903SOL     OW15424   2.326   1.232   3.255  0.0307  0.5403 -0.1394
 4903SOL    HW115425   2.312   1.255   3.347 -2.2654  0.8311 -0.5304
 4903SOL    HW215426   2.354   1.314   3.214  0.8463  0.4604  0.2411
 4904SOL     OW15427   0.129   2.611   6.539  0.4065 -0.0206 -0.0404
 4904SOL    HW115428   0.085   2.683   6.494 -0.4907  0.1107  1.0362
 4904SOL    HW215429   0.155   2.648   6.623 -0.5418 -1.1055  0.7339
 4905SOL     OW15430   1.484   1.780   6.472  0.3125 -0.6435 -0.2882
 4905SOL    HW115431   1.420   1.759   6.540  0.3472 -1.2426 -0.4353
 4905SOL    HW215432   1.534   1.854   6.508  1.4256 -2.0156  1.0578
 4906SOL     OW15433   6.053   1.830   3.138 -0.2435  0.2712 -0.3583
 4906SOL    HW115434   6.126   1.770   3.121  2.0135  2.5483  0.9698
 4906SOL    HW215435   6.005   1.788   3.210 -0.2864 -1.2390 -1.2310
 4907SOL     OW15436   5.252   1.837   0.200  0.1600  0.2909 -0.7604
 4907SOL    HW115437   5.165   1.871   0.224  1.6102  2.7443  1.3118
 4907SOL    HW215438   5.298   1.913   0.165  1.4539 -1.0371 -1.9709
 4908SOL     OW15439   5.121   2.681   4.977  0.2578  0.1942  0.4586
 4908SOL    HW115440   5.097   2.729   4.898  1.0722 -2.4948 -1.4759
 4908SOL    HW215441   5.215   2.693   4.985  0.4288 -0.8588  0.0989
 4909SOL     OW15442   0.935   4.711   1.055 -0.2815  0.3302  0.7835
 4909SOL    HW115443   1.016   4.690   1.009  0.4713 -1.1603  2.6981
 4909SOL    HW215444   0.941   4.806   1.070  0.1511  0.5752 -0.8144
 4910SOL     OW15445   6.077   0.433   4.232 -0.1505 -0.0306  0.2542
 4910SOL    HW115446   6.153   0.487   4.210  0.2749 -1.0678 -0.8672
 4910SOL    HW215447   6.006   0.469   4.178 -0.2159  0.3002  0.5574
 4911SOL     OW15448   1.092   6.724   3.964 -0.1519  0.4739 -0.5066
 4911SOL    HW115449   1.097   6.772   3.881  2.4852 -0.5022 -0.9685
 4911SOL    HW215450   1.059   6.638   3.939  1.9419 -0.2730 -0.7871
 4912SOL     OW15451   3.454   1.785   4.589  0.1831 -0.0298 -0.1158
 4912SOL    HW115452   3.539   1.751   4.562  0.4422 -0.0623  0.7441
 4912SOL    HW215453   3.432   1.851   4.523  0.6361 -0.3762 -0.6193
 4913SOL     OW15454   2.589   0.366   5.682  0.1425 -0.0683  0.4636
 4913SOL    HW115455   2.667   0.315   5.705 -0.9168 -1.2045  1.5908
 4913SOL    HW215456   2.528   0.302   5.645 -0.1491  0.8735 -0.7301
 4914SOL     OW15457   5.051   1.953   1.773 -0.2307 -0.6824 -0.7984
 4914SOL    HW115458   5.086   1.869   1.744  1.0314 -1.0991  1.7654
 4914SOL    HW215459   5.060   1.951   1.868 -0.4912  2.2393 -0.6710
 4915SOL     OW15460   1.743   1.267   3.058  0.4222  0.5364  0.3480
 4915SOL    HW115461   1.810   1.309   3.004 -0.2130  1.9808  0.6655
 4915SOL    HW215462   1.792   1.222   3.126  1.0762  1.5976  0.5805
 4916SOL     OW15463   5.439   0.350   4.079  0.0507  0.0355  0.6943
 4916SOL    HW115464   5.419   0.355   4.172 -0.4122  1.1672  0.5413
 4916SOL    HW215465   5.458   0.257   4.063  2.5020  0.2112  2.3829
 4917SOL     OW15466   4.812   1.828   0.361 -0.2230 -0.5823 -0.0143
 4917SOL    HW115467   4.849   1.910   0.394 -0.2120  0.4078 -2.3885
 4917SOL    HW215468   4.865   1.760   0.401  1.9088  0.6905 -0.6071
 4918SOL     OW15469   6.213   5.325   4.439  0.4028 -0.3947 -0.0453
 4918SOL    HW115470   6.308   5.336   4.441  0.3163  0.3164  0.6658
 4918SOL    HW215471   6.185   5.346   4.528 -0.5270  0.4811 -0.5371
 4919SOL     OW15472   5.445   2.468   6.131 -0.1980 -0.0886 -0.2025
 4919SOL    HW115473   5.427   2.400   6.196  1.0211 -0.4178 -0.1941
 4919SOL    HW215474   5.376   2.458   6.066  0.7258 -2.2096 -0.9002
 4920SOL     OW15475   5.249   3.607   4.708  0.1358 -0.7547 -0.4921
 4920SOL    HW115476   5.320   3.669   4.690 -0.5266 -0.2998 -1.5773
 4920SOL    HW215477   5.282   3.523   4.676  1.8795 -1.4467  2.8521
 4921SOL     OW15478   3.839   5.099   2.923  0.0233 -0.2375 -0.1282
 4921SOL    HW115479   3.752   5.066   2.943  0.2573 -0.0623  1.2556
 4921SOL    HW215480   3.828   5.194   2.917  0.3657 -0.0755  1.5090
 4922SOL     OW15481   5.410   2.114   2.219  0.2627 -0.6089  0.6813
 4922SOL    HW115482   5.496   2.080   2.192  0.7600  1.1145  0.0297
 4922SOL    HW215483   5.362   2.126   2.136  0.9568  2.4869  0.6493
 4923SOL     OW15484   6.144   3.346   6.213  0.4507  0.0566 -0.2484
 4923SOL    HW115485   6.128   3.256   6.240  1.7312 -0.0040  0.3329
 4923SOL    HW215486   6.074   3.397   6.256  1.5654 -0.2405  1.9812
 4924SOL     OW15487   5.295   3.763   5.092 -0.0231 -0.5021 -0.4549
 4924SOL    HW115488   5.322   3.732   5.179  2.3021 -0.4262 -1.1101
 4924SOL    HW215489   5.323   3.694   5.032 -1.4066 -0.4480 -1.1913
 4925SOL     OW15490   6.757   1.733   0.790 -0.4819  0.7981  0.1098
 4925SOL    HW115491   6.776   1.684   0.711 -0.2927  0.5746  0.2967
 4925SOL    HW215492   6.682   1.788   0.766  0.3771  1.6709 -0.6129
 4926SOL     OW15493   4.645   1.165   0.706 -0.5259 -0.6303  0.2945
 4926SOL    HW115494   4.677   1.251   0.678  0.7103 -0.0966  3.1365
 4926SOL    HW215495   4.551   1.177   0.717 -0.7179 -0.3041 -1.5910
 4927SOL     OW15496   3.400   0.959   6.647 -0.3064 -0.3475  0.0504
 4927SOL    HW115497   3.370   1.049   6.660 -0.5816 -0.5224  0.6414
 4927SOL    HW215498   3.331   0.905   6.686  1.0023 -0.7332  1.9101
 4928SOL     OW15499   2.247   4.866   2.561  0.0282 -0.1543 -0.3433
 4928SOL    HW115500   2.260   4.861   2.656 -0.6610 -1.2389 -0.2934
 4928SOL    HW215501   2.315   4.808   2.525 -1.1574 -1.5657 -0.3719
 4929SOL     OW15502   1.707   1.260   3.563  0.0703 -0.2858 -0.8261
 4929SOL    HW115503   1.692   1.346   3.523 -0.6583 -0.4576 -0.9391
 4929SOL    HW215504   1.798   1.263   3.593 -0.3801  1.0724  0.5128
 4930SOL     OW15505   0.180   0.928   0.322 -0.3441  0.8339  0.5236
 4930SOL    HW115506   0.266   0.908   0.360 -0.7664 -0.5081  0.7868
 4930SOL    HW215507   0.118   0.876   0.373 -0.9721 -0.6059 -1.6469
 4931SOL     OW15508   5.947   0.450   4.967  0.1978  0.1574  0.0230
 4931SOL    HW115509   5.908   0.395   5.036 -0.0711 -1.1833 -1.1696
 4931SOL    HW215510   5.940   0.397   4.888  5.3181 -0.5120 -0.1182
 4932SOL     OW15511   1.098   2.288   6.305  0.2656  0.1039  0.0366
 4932SOL    HW115512   1.063   2.298   6.394  0.9193  0.1728  0.2873
 4932SOL    HW215513   1.051   2.354   6.254 -1.1051 -0.8577  0.0332
 4933SOL     OW15514   0.013   3.370   5.896 -0.2411 -0.2553  0.1536
 4933SOL    HW115515  -0.049   3.433   5.933 -1.1493 -0.2806 -1.2581
 4933SOL    HW215516   0.050   3.415   5.820  1.0217 -0.4728  0.6325
 4934SOL     OW15517   5.494   5.321   0.074  0.5975  0.4931 -0.0384
 4934SOL    HW115518   5.551   5.254   0.036  1.9963  2.2752 -1.1463
 4934SOL    HW215519   5.554   5.386   0.111 -0.6700  2.4435 -1.2781
 4935SOL     OW15520   5.036   4.532   2.793  0.2203 -0.0326 -0.1088
 4935SOL    HW115521   4.953   4.510   2.752  0.2296  2.5696 -1.6170
 4935SOL    HW215522   5.101   4.478   2.747 -0.0488  1.3340 -2.1384
 4936SOL     OW15523   4.091   5.646   0.415  1.0527  0.5871 -0.3103
 4936SOL    HW115524   4.053   5.609   0.495 -1.2738 -1.1355 -2.1131
 4936SOL    HW215525   4.127   5.730   0.442 -0.9499  0.6984  2.2704
 4937SOL     OW15526   0.817   4.838   3.546 -0.5686  0.6736  0.5772
 4937SOL    HW115527   0.748   4.893   3.509  0.2359 -0.6218 -2.9645
 4937SOL    HW215528   0.889   4.899   3.565 -0.6953  1.2343 -0.7369
 4938SOL     OW15529   4.018   0.237   1.573  0.2562  0.2152 -0.4828
 4938SOL    HW115530   3.976   0.318   1.600 -0.7399  0.1151 -1.6690
 4938SOL    HW215531   4.075   0.262   1.500  1.1311  0.1029  0.1565
 4939SOL     OW15532   6.162   3.919   4.372  0.1857 -0.0062  0.3685
 4939SOL    HW115533   6.168   3.862   4.449  0.3755 -1.5713 -0.7653
 4939SOL    HW215534   6.252   3.945   4.354 -0.0192  1.5971  1.5467
 4940SOL     OW15535   0.451   1.835   5.960  0.2394 -0.1152 -0.6209
 4940SOL    HW115536   0.530   1.788   5.935  0.5062 -0.2188  0.3787
 4940SOL    HW215537   0.470   1.927   5.938  1.2679  0.0955  1.0752
 4941SOL     OW15538   4.718   4.336   6.154  0.6688  0.4328 -0.2284
 4941SOL    HW115539   4.702   4.408   6.093  0.0276  0.1265 -0.4285
 4941SOL    HW215540   4.666   4.358   6.231 -0.0279 -0.1307 -0.5368
 4942SOL     OW15541   0.805   4.470   5.618 -0.0982  0.2368 -0.3712
 4942SOL    HW115542   0.817   4.467   5.523  0.1321  1.5827 -0.4026
 4942SOL    HW215543   0.711   4.469   5.630 -0.1959  2.5941 -0.7497
 4943SOL     OW15544   5.142   6.011   4.621  0.0654 -0.4449  0.1586
 4943SOL    HW115545   5.210   6.018   4.688 -0.8453  1.6384  0.8943
 4943SOL    HW215546   5.148   6.093   4.572 -1.8029 -0.3022  0.1381
 4944SOL     OW15547   2.365   2.229   1.236 -0.0203  0.6091 -0.1223
 4944SOL    HW115548   2.395   2.247   1.325  1.6403  0.9072 -0.7374
 4944SOL    HW215549   2.324   2.310   1.207 -0.8774  0.4031  0.4788
 4945SOL     OW15550   0.532   2.394   0.422 -0.1435  0.4511 -0.8873
 4945SOL    HW115551   0.596   2.418   0.488  0.4782 -0.8431 -0.9998
 4945SOL    HW215552   0.450   2.432   0.453 -0.0536 -0.9081  1.1136
 4946SOL     OW15553   4.044   3.230   6.221  0.3400  0.2947 -0.2173
 4946SOL    HW115554   4.079   3.312   6.255 -0.3711  0.8794 -0.8872
 4946SOL    HW215555   3.962   3.217   6.268  1.1204 -0.7394  0.8783
 4947SOL     OW15556   0.236   1.821   3.338  0.1869 -0.0480  0.5998
 4947SOL    HW115557   0.306   1.799   3.400 -0.5922 -1.8304  0.8760
 4947SOL    HW215558   0.264   1.784   3.255 -0.6949 -1.2933  0.8472
 4948SOL     OW15559   6.097   0.037   2.640 -0.1708 -0.0543  0.1107
 4948SOL    HW115560   6.168   0.095   2.667 -0.6806  1.1516 -1.1012
 4948SOL    HW215561   6.036   0.094   2.594 -1.2516 -1.3477 -0.0791
 4949SOL     OW15562   0.953   2.435   6.510  0.0071 -0.2241 -0.2329
 4949SOL    HW115563   0.885   2.474   6.454  1.2205  1.5047 -0.5347
 4949SOL    HW215564   0.908   2.421   6.594 -1.0282 -0.0943 -0.7474
 4950SOL     OW15565   1.544   1.285   5.429 -0.2464  0.4663 -0.0807
 4950SOL    HW115566   1.473   1.230   5.461 -0.7414  0.1935 -1.6230
 4950SOL    HW215567   1.592   1.310   5.508 -2.1763  0.8358  1.0028
 4951SOL     OW15568   3.131   0.279   2.656  0.0437  0.0383 -0.3387
 4951SOL    HW115569   3.221   0.263   2.684 -0.7794 -1.1614  1.6888
 4951SOL    HW215570   3.091   0.325   2.730 -1.6269 -1.4690 -0.2902
 4952SOL     OW15571   0.140   6.535   2.476 -0.5316 -0.0052 -0.5078
 4952SOL    HW115572   0.090   6.582   2.409 -0.2961  0.5135 -0.3206
 4952SOL    HW215573   0.077   6.517   2.545 -0.9765 -1.2937 -1.2469
 4953SOL     OW15574   6.548   5.053   0.967 -0.3619  0.2564  0.3349
 4953SOL    HW115575   6.520   4.968   0.933 -0.9414  0.7096 -0.3270
 4953SOL    HW215576   6.587   5.033   1.053  2.1754 -1.0482 -1.0773
 4954SOL     OW15577   3.702   5.829   1.663 -0.3413  0.0160  0.1642
 4954SOL    HW115578   3.787   5.791   1.639 -0.1622 -0.6544  1.8051
 4954SOL    HW215579   3.661   5.850   1.579  0.4594 -1.8239 -0.7124
 4955SOL     OW15580   3.694   0.872   1.892 -0.3438  0.3819 -0.1645
 4955SOL    HW115581   3.671   0.953   1.847 -1.8268 -0.3838 -0.8421
 4955SOL    HW215582   3.659   0.882   1.980 -2.1961 -0.2458 -0.8002
 4956SOL     OW15583   2.231   0.042   2.475  0.2821 -0.3790  0.9338
 4956SOL    HW115584   2.288   0.050   2.552  1.0409 -0.2877  0.3686
 4956SOL    HW215585   2.241   0.125   2.429  0.0592 -0.5505  0.5804
 4957SOL     OW15586   0.113   2.374   5.971  0.3106 -0.4887  0.2083
 4957SOL    HW115587   0.075   2.321   6.041  0.2201 -0.7200 -0.0192
 4957SOL    HW215588   0.053   2.364   5.897 -0.4398  0.9937  0.5885
 4958SOL     OW15589   2.250   1.116   4.907 -0.4915 -0.2052  0.4220
 4958SOL    HW115590   2.180   1.154   4.854  0.8580  0.8657 -0.6102
 4958SOL    HW215591   2.247   1.165   4.989 -0.9225 -0.1592  0.3817
 4959SOL     OW15592   4.367   4.199   0.354  0.1189  0.0835 -0.1978
 4959SOL    HW115593   4.446   4.203   0.301  1.1168  0.2064  1.2717
 4959SOL    HW215594   4.296   4.215   0.292  1.3817  2.0951 -1.1983
 4960SOL     OW15595   0.998   3.888   5.751 -0.3344  0.1522  0.0436
 4960SOL    HW115596   1.021   3.890   5.658  0.4132 -1.4668  0.1709
 4960SOL    HW215597   0.915   3.842   5.755  0.6560 -1.6753  0.3336
 4961SOL     OW15598   2.372   6.105   0.407  0.1711 -0.1553  0.4552
 4961SOL    HW115599   2.296   6.123   0.352  0.6030  0.4577  0.0566
 4961SOL    HW215600   2.408   6.024   0.371 -0.1762 -0.3367  0.5162
 4962SOL     OW15601   4.355   2.428   4.515 -0.1750 -0.8539 -0.2276
 4962SOL    HW115602   4.317   2.412   4.601  0.8291 -0.7255  0.2512
 4962SOL    HW215603   4.328   2.517   4.493  0.1602 -0.6283  0.2749
 4963SOL     OW15604   0.557   6.165   2.437 -0.3373  0.2115  0.2763
 4963SOL    HW115605   0.610   6.097   2.478 -2.2400 -1.9249 -0.6578
 4963SOL    HW215606   0.471   6.158   2.479 -1.8080 -0.8485 -2.6969
 4964SOL     OW15607   1.132   6.640   0.253  0.1145  0.5691  0.0908
 4964SOL    HW115608   1.049   6.600   0.231 -0.1921  2.2164 -1.9581
 4964SOL    HW215609   1.109   6.722   0.298  0.6812 -0.2074  1.8435
 4965SOL     OW15610   5.273   5.821   1.157  1.2011 -0.2967 -0.0779
 4965SOL    HW115611   5.319   5.772   1.089 -0.4198 -1.3611 -0.4187
 4965SOL    HW215612   5.201   5.765   1.183 -1.6934  2.5250 -1.5831
 4966SOL     OW15613   4.433   6.696   1.974 -0.1887  0.2584  0.3404
 4966SOL    HW115614   4.439   6.735   1.887 -0.0249 -0.1813  0.1594
 4966SOL    HW215615   4.514   6.647   1.985  0.5140  1.5952  1.3662
 4967SOL     OW15616   2.283   6.531   5.934 -0.4291  0.1216  0.4958
 4967SOL    HW115617   2.367   6.578   5.929 -0.2720 -0.2551 -0.5102
 4967SOL    HW215618   2.296   6.466   6.003  0.4445 -0.5643 -0.2947
 4968SOL     OW15619   1.841   3.780   1.580 -0.1228  0.3987  0.0630
 4968SOL    HW115620   1.769   3.804   1.521 -0.0705  0.0822 -0.1304
 4968SOL    HW215621   1.850   3.855   1.639 -1.0547  0.1670  0.5124
 4969SOL     OW15622   5.002   1.157   2.422 -0.3320 -0.1409 -0.1913
 4969SOL    HW115623   5.045   1.194   2.499 -0.1742 -0.8120  0.0455
 4969SOL    HW215624   4.934   1.100   2.458 -1.2157  0.6611 -0.5592
 4970SOL     OW15625   6.524   1.512   0.401 -0.3536 -0.0157  0.0884
 4970SOL    HW115626   6.495   1.537   0.489  0.6872  0.8962  0.1796
 4970SOL    HW215627   6.619   1.505   0.408 -0.3925 -1.3614 -0.6141
 4971SOL     OW15628   1.375   2.825   6.074 -0.2322 -0.0279  0.3002
 4971SOL    HW115629   1.354   2.732   6.085  0.5386 -0.4985 -2.0950
 4971SOL    HW215630   1.448   2.839   6.133 -0.0363 -1.0595  0.3220
 4972SOL     OW15631   4.561   1.857   2.412  0.0200  0.5165 -0.3227
 4972SOL    HW115632   4.491   1.809   2.368  0.5785  0.2976 -0.9799
 4972SOL    HW215633   4.589   1.800   2.483 -1.5470  1.2841  0.9463
 4973SOL     OW15634   6.742   4.926   6.632 -0.3663 -0.3060  0.3081
 4973SOL    HW115635   6.791   4.951   6.553  0.8014 -0.5853  0.9291
 4973SOL    HW215636   6.768   4.835   6.648 -0.5404 -0.2265  1.0503
 4974SOL     OW15637   5.415   6.257   6.284 -0.0487 -0.6821  0.5876
 4974SOL    HW115638   5.470   6.259   6.362 -1.1060  1.4920  1.3193
 4974SOL    HW215639   5.466   6.304   6.217 -0.1407 -0.4711  0.6647
 4975SOL     OW15640   6.423   4.757   4.817  0.0256 -0.0169  0.5444
 4975SOL    HW115641   6.394   4.847   4.829  0.8662  0.0583  2.1096
 4975SOL    HW215642   6.343   4.705   4.823 -0.6259  0.6804 -1.4843
 4976SOL     OW15643   1.419   3.585   4.300 -0.0003 -0.1536 -0.5495
 4976SOL    HW115644   1.367   3.544   4.370  0.4305  1.2951  0.6450
 4976SOL    HW215645   1.508   3.553   4.314 -0.4447 -2.3288 -2.3648
 4977SOL     OW15646   6.737   1.197   1.404  0.0529 -0.4472 -0.1079
 4977SOL    HW115647   6.832   1.198   1.395  0.2477  0.9367  1.7268
 4977SOL    HW215648   6.716   1.283   1.441 -1.6355 -1.7565  2.0798
 4978SOL     OW15649   6.449   5.133   6.007 -0.1772  0.0967  0.1099
 4978SOL    HW115650   6.529   5.142   5.956 -0.1864  0.7028  0.1989
 4978SOL    HW215651   6.406   5.056   5.971 -0.2770  0.6350 -0.9331
 4979SOL     OW15652   0.759   4.980   3.282 -0.4023  0.0220 -0.6210
 4979SOL    HW115653   0.753   5.073   3.304  0.3869  0.3030 -1.5332
 4979SOL    HW215654   0.774   4.979   3.187  1.5917 -0.9623 -0.3158
 4980SOL     OW15655   1.635   1.705   5.109 -0.1204  0.7289 -0.0687
 4980SOL    HW115656   1.645   1.667   5.022 -0.8408 -0.2652  0.2744
 4980SOL    HW215657   1.721   1.697   5.149 -0.4792 -1.3836  0.3228
 4981SOL     OW15658   4.468   2.236   0.364 -0.6538 -0.3495 -0.2364
 4981SOL    HW115659   4.422   2.155   0.340 -2.2794  0.5670 -0.2359
 4981SOL    HW215660   4.402   2.305   0.355  0.1175  0.6943  1.9162
 4982SOL     OW15661   3.182   2.645   4.130  0.4220 -0.3094 -0.0321
 4982SOL    HW115662   3.241   2.720   4.142 -0.8114  0.2922  2.5927
 4982SOL    HW215663   3.239   2.569   4.141  1.0194  0.2631  1.0020
 4983SOL     OW15664   4.520   1.280   4.512 -0.2908 -0.3097  0.1141
 4983SOL    HW115665   4.574   1.222   4.565 -1.2088 -0.6900  0.6364
 4983SOL    HW215666   4.575   1.300   4.435  1.2337  0.6427  1.4133
 4984SOL     OW15667   5.720   4.668   0.738  0.2561 -0.3835  0.3022
 4984SOL    HW115668   5.696   4.619   0.660  0.5114  1.7854 -1.1820
 4984SOL    HW215669   5.644   4.723   0.757 -0.0817 -1.4103  2.0251
 4985SOL     OW15670   1.491   3.079   3.928  0.3376 -0.4123 -0.6787
 4985SOL    HW115671   1.539   3.105   4.007 -1.5835  0.3170  0.2787
 4985SOL    HW215672   1.465   3.161   3.887 -0.3501 -0.7891 -1.0158
 4986SOL     OW15673   0.415   1.695   1.790 -0.1861  0.0368 -0.0296
 4986SOL    HW115674   0.332   1.712   1.834  0.2166 -0.8856  1.0944
 4986SOL    HW215675   0.426   1.600   1.796  0.5404  0.0616 -0.9212
 4987SOL     OW15676   3.229   5.649   6.534 -0.2902  0.7480 -0.1399
 4987SOL    HW115677   3.147   5.600   6.536  0.6327 -0.8284  0.2923
 4987SOL    HW215678   3.241   5.679   6.624 -0.3542  0.9198 -0.1878
 4988SOL     OW15679   0.074   5.258   2.315 -0.1121 -0.3190 -0.0166
 4988SOL    HW115680   0.115   5.186   2.364  2.8652  1.2802 -0.0236
 4988SOL    HW215681   0.093   5.335   2.368 -0.9621  0.8025 -1.3447
 4989SOL     OW15682   6.424   4.340   6.219 -0.0223  0.2531 -0.4205
 4989SOL    HW115683   6.376   4.319   6.139  2.3545 -0.2278 -1.7545
 4989SOL    HW215684   6.481   4.413   6.195 -0.8573  1.5608  1.4476
 4990SOL     OW15685   2.390   2.985   3.680  0.9515  0.3095 -0.2107
 4990SOL    HW115686   2.441   2.916   3.723  1.0571  0.5019 -0.0257
 4990SOL    HW215687   2.338   2.939   3.614 -0.2154 -0.1624  1.0110
 4991SOL     OW15688   0.989   1.266   6.607  0.5244 -0.2629  0.0784
 4991SOL    HW115689   1.070   1.317   6.605  0.4135 -0.0580  0.8414
 4991SOL    HW215690   1.006   1.196   6.669  0.3795 -0.6725 -0.3389
 4992SOL     OW15691   1.801   5.228   0.170 -0.2684 -0.1470  0.1496
 4992SOL    HW115692   1.870   5.290   0.193 -0.3185 -0.1280  0.2481
 4992SOL    HW215693   1.735   5.281   0.126 -1.1767  0.2062  1.9057
 4993SOL     OW15694   0.719   5.435   5.387  0.6559  0.0744 -0.0274
 4993SOL    HW115695   0.750   5.356   5.344  0.2465  0.2581 -0.6625
 4993SOL    HW215696   0.762   5.434   5.473  1.3363 -0.3763 -0.3718
 4994SOL     OW15697   0.195   6.408   1.928 -0.5517 -0.4931  0.0671
 4994SOL    HW115698   0.281   6.399   1.969 -0.8207 -0.3622  0.6647
 4994SOL    HW215699   0.146   6.332   1.959 -1.4513  0.7351  1.7070
 4995SOL     OW15700   5.927   4.194   4.600  0.5834 -0.2066  0.2225
 4995SOL    HW115701   5.836   4.177   4.627  0.6011 -0.6504  0.0064
 4995SOL    HW215702   5.934   4.151   4.515  0.4078  1.5046 -0.6737
 4996SOL     OW15703   6.165   4.229   0.321 -0.7269  0.5019 -0.5234
 4996SOL    HW115704   6.149   4.169   0.248 -1.2835 -0.3469  0.2891
 4996SOL    HW215705   6.261   4.234   0.326 -0.6387 -1.4461  0.2857
 4997SOL     OW15706   5.030   0.637   2.743  0.8794 -0.8458  0.3685
 4997SOL    HW115707   4.965   0.705   2.758  1.7520  0.7030 -2.3767
 4997SOL    HW215708   4.981   0.566   2.702  0.5291 -0.5354  0.2426
 4998SOL     OW15709   4.270   6.234   3.922 -0.6827 -0.5368 -0.8285
 4998SOL    HW115710   4.234   6.307   3.972  1.0690 -0.6145  0.6087
 4998SOL    HW215711   4.240   6.155   3.967 -0.9496 -0.6647 -1.2236
 4999SOL     OW15712   3.023   4.917   4.696  0.1314 -0.1921 -0.0058
 4999SOL    HW115713   3.108   4.874   4.701  1.3727  2.1949  0.1726
 4999SOL    HW215714   3.024   4.980   4.769 -1.3656  0.5348 -0.5955
 5000SOL     OW15715   1.039   2.858   1.283  0.1636 -0.1645  0.3568
 5000SOL    HW115716   0.963   2.800   1.275  0.0272 -0.0205  0.5881
 5000SOL    HW215717   1.002   2.942   1.313  0.4860 -0.2891  1.1282
 5001SOL     OW15718   5.546   5.496   3.666  0.2319 -0.1287  0.6772
 5001SOL    HW115719   5.543   5.591   3.678 -1.1450 -0.3829  2.5087
 5001SOL    HW215720   5.488   5.479   3.592  1.7326  0.5889 -0.6936
 5002SOL     OW15721   0.309   2.964   4.823 -0.0295  0.2365  0.2297
 5002SOL    HW115722   0.399   2.953   4.853  0.0361  0.4808  0.1183
 5002SOL    HW215723   0.276   2.874   4.813  0.5583  0.1235 -0.8190
 5003SOL     OW15724   6.066   4.713   0.749  0.0228 -0.2843  0.2762
 5003SOL    HW115725   6.015   4.683   0.673  2.4884 -1.0313 -1.1392
 5003SOL    HW215726   6.094   4.633   0.793  0.1782  0.1151  0.9106
 5004SOL     OW15727   2.220   2.094   5.596  0.0764 -0.0466  0.2968
 5004SOL    HW115728   2.255   2.159   5.534 -2.4811  0.5947 -0.5177
 5004SOL    HW215729   2.174   2.146   5.661 -0.0829 -0.9395  0.9019
 5005SOL     OW15730   4.896   3.493   1.231 -0.1272  0.1203  0.3996
 5005SOL    HW115731   4.975   3.534   1.267 -0.2357  1.1712 -0.5132
 5005SOL    HW215732   4.904   3.401   1.255  1.1020  0.3172  0.8047
 5006SOL     OW15733   1.216   6.480   1.323  0.4147  0.1617 -0.2721
 5006SOL    HW115734   1.243   6.563   1.362 -0.2888  0.1178  0.3018
 5006SOL    HW215735   1.234   6.415   1.390  1.3287 -0.2097 -0.8619
 5007SOL     OW15736   1.339   4.986   4.535  0.3587  0.2342  0.2564
 5007SOL    HW115737   1.348   5.019   4.624  0.0542  1.6848 -0.2411
 5007SOL    HW215738   1.248   5.006   4.511  0.5002  0.0292 -0.4496
 5008SOL     OW15739   5.888   5.340   2.473  0.7292 -0.1571 -0.2950
 5008SOL    HW115740   5.832   5.404   2.517  1.4573  0.5863 -0.4425
 5008SOL    HW215741   5.926   5.387   2.399  1.7273 -0.5920 -0.0730
 5009SOL     OW15742   6.124   2.979   4.159  0.2693  0.1802 -0.1276
 5009SOL    HW115743   6.141   3.014   4.247  0.5079 -0.8464  0.2397
 5009SOL    HW215744   6.030   2.960   4.159  0.1583  0.7216 -0.2929
 5010SOL     OW15745   3.875   5.883   0.318  0.2871 -0.2188 -0.6789
 5010SOL    HW115746   3.885   5.889   0.413 -1.1273 -0.3492 -0.5151
 5010SOL    HW215747   3.914   5.798   0.295  1.1977  0.0923 -0.3013
 5011SOL     OW15748   6.644   0.423   5.652  0.0824  0.0973 -0.6113
 5011SOL    HW115749   6.567   0.401   5.704  0.0810 -0.4430 -0.8308
 5011SOL    HW215750   6.704   0.464   5.714  0.2718 -0.9682 -0.0702
 5012SOL     OW15751   5.974   1.859   4.591  0.0739  0.2243 -0.3989
 5012SOL    HW115752   6.010   1.943   4.563 -0.4153  0.6102  0.1206
 5012SOL    HW215753   5.925   1.879   4.671 -0.1413 -0.5335 -0.3356
 5013SOL     OW15754   5.076   5.326   6.484 -0.2626  0.3289 -0.8058
 5013SOL    HW115755   5.111   5.415   6.481 -0.3113  0.3756 -0.0626
 5013SOL    HW215756   5.149   5.272   6.514 -0.5213  0.2704 -0.2755
 5014SOL     OW15757   3.079   6.053   3.769 -0.0331  0.2671 -0.1006
 5014SOL    HW115758   3.146   6.121   3.781 -0.8477  0.9092  0.8859
 5014SOL    HW215759   3.127   5.977   3.739  1.2426  0.5149  1.2790
 5015SOL     OW15760   6.403   0.049   6.563  0.4686 -0.1005 -0.0839
 5015SOL    HW115761   6.431   0.029   6.474 -0.5016  0.6603 -0.5825
 5015SOL    HW215762   6.472   0.105   6.598 -0.1728  1.4073 -1.1444
 5016SOL     OW15763   6.224   4.257   2.478  0.2018 -0.6379 -0.0530
 5016SOL    HW115764   6.201   4.208   2.557 -1.0469  0.2322  0.1336
 5016SOL    HW215765   6.309   4.296   2.498  0.0719 -0.7433  0.7063
 5017SOL     OW15766   4.274   3.098   6.567  0.1096  0.0989  0.0823
 5017SOL    HW115767   4.289   3.111   6.473  1.1437  0.3502  0.2796
 5017SOL    HW215768   4.250   3.185   6.599 -1.2171 -0.1730 -0.1109
 5018SOL     OW15769   3.255   0.230   3.449  0.0096  0.5263 -0.6839
 5018SOL    HW115770   3.301   0.159   3.494 -0.4694  0.0860 -0.8856
 5018SOL    HW215771   3.319   0.300   3.443 -0.0723  0.7962  1.1968
 5019SOL     OW15772   2.430   6.314   2.776 -0.2735 -0.1488  0.0114
 5019SOL    HW115773   2.488   6.263   2.832  1.5853  1.5782 -0.2865
 5019SOL    HW215774   2.364   6.350   2.835  0.5700  0.1167  0.7962
 5020SOL     OW15775   5.113   5.286   4.759  0.1339  0.1112  0.3957
 5020SOL    HW115776   5.140   5.361   4.706 -0.4508 -0.5362 -0.8435
 5020SOL    HW215777   5.050   5.323   4.822 -1.1785  0.4495 -1.0682
 5021SOL     OW15778   4.658   0.133   5.929  0.1247 -0.0279  0.0385
 5021SOL    HW115779   4.563   0.131   5.944  0.1209  0.7496  0.1100
 5021SOL    HW215780   4.696   0.124   6.016  0.1307 -1.8326 -0.1323
 5022SOL     OW15781   4.490   0.510   4.229  0.4021  0.0412 -0.2450
 5022SOL    HW115782   4.431   0.519   4.305  0.8229  0.9959 -0.0315
 5022SOL    HW215783   4.578   0.522   4.265  0.5944  0.6875 -0.9184
 5023SOL     OW15784   4.074   1.807   5.082  0.2817 -0.0898  0.0815
 5023SOL    HW115785   4.000   1.764   5.040 -0.3496 -0.3696  1.4488
 5023SOL    HW215786   4.142   1.739   5.085 -0.6354 -0.9536  2.0244
 5024SOL     OW15787   5.764   2.582   2.542  0.1406 -0.0049 -0.3222
 5024SOL    HW115788   5.732   2.507   2.492 -1.1094 -0.5312  1.2161
 5024SOL    HW215789   5.733   2.566   2.632  3.4972  0.2162  0.9288
 5025SOL     OW15790   0.007   5.472   4.192 -0.1258 -0.2209  0.4013
 5025SOL    HW115791   0.046   5.477   4.105 -0.6576  0.7157  0.2112
 5025SOL    HW215792  -0.069   5.416   4.182 -0.1240 -0.2027  0.2950
 5026SOL     OW15793   3.155   5.963   3.473 -0.3287  0.0530 -0.2306
 5026SOL    HW115794   3.250   5.963   3.481 -0.4677  0.5108  1.5876
 5026SOL    HW215795   3.135   6.045   3.428  0.1666 -0.3822 -1.2707
 5027SOL     OW15796   5.936   5.659   2.568 -0.2199  0.1838  0.4553
 5027SOL    HW115797   6.000   5.715   2.525  0.1856 -0.0766  0.7264
 5027SOL    HW215798   5.947   5.674   2.661 -1.5484  1.2364  0.4565
 5028SOL     OW15799   1.747   4.670   1.099  0.1321 -0.4443  0.1343
 5028SOL    HW115800   1.751   4.765   1.096 -0.7488 -0.3468  1.8318
 5028SOL    HW215801   1.782   4.646   1.184  0.3726 -1.6459 -0.2897
 5029SOL     OW15802   3.263   0.685   6.181  0.2121 -0.1911 -0.5070
 5029SOL    HW115803   3.333   0.731   6.134 -1.0057  0.2303 -1.9624
 5029SOL    HW215804   3.298   0.672   6.269  1.9793  0.3275 -1.1053
 5030SOL     OW15805   4.568   1.276   3.028  0.0340 -0.2218 -0.0363
 5030SOL    HW115806   4.637   1.288   2.963 -1.7871 -1.8673 -2.4106
 5030SOL    HW215807   4.570   1.183   3.049 -1.0101 -0.1653  0.3694
 5031SOL     OW15808   5.007   4.130   5.859  0.7299 -0.3245  0.2688
 5031SOL    HW115809   5.059   4.052   5.882  0.2594  0.1389  3.1643
 5031SOL    HW215810   4.924   4.117   5.905 -0.4517  0.5410 -1.5879
 5032SOL     OW15811   5.723   0.898   4.682 -0.2197 -0.1660 -0.3846
 5032SOL    HW115812   5.793   0.857   4.732  1.1394  2.0187 -0.4027
 5032SOL    HW215813   5.711   0.842   4.605  1.9135 -0.2636 -0.6719
 5033SOL     OW15814   6.612   1.685   1.732  0.0414 -0.3537  0.1544
 5033SOL    HW115815   6.649   1.603   1.766  0.5198 -0.3047 -0.2456
 5033SOL    HW215816   6.673   1.712   1.663  0.6281  1.0662  1.2222
 5034SOL     OW15817   1.200   4.550   4.251 -0.4159 -0.4849 -0.3236
 5034SOL    HW115818   1.242   4.465   4.257  0.1282 -0.3250 -1.5522
 5034SOL    HW215819   1.236   4.588   4.170  0.2579  1.3883  0.8260
 5035SOL     OW15820   5.064   0.915   6.050  0.1427  0.2848 -0.0250
 5035SOL    HW115821   5.019   0.845   6.096  0.9893  0.2906  0.8358
 5035SOL    HW215822   5.092   0.975   6.119  1.4454  0.2854 -0.5368
 5036SOL     OW15823   6.500   3.125   5.869  0.6484 -0.6968 -0.0948
 5036SOL    HW115824   6.568   3.103   5.933  1.2454 -0.2256 -0.5625
 5036SOL    HW215825   6.513   3.063   5.798 -0.8558 -2.0859  0.8199
 5037SOL     OW15826   6.024   0.301   3.844  0.1400 -0.2002 -0.2332
 5037SOL    HW115827   6.104   0.334   3.802  0.6178  1.1832  1.6982
 5037SOL    HW215828   5.977   0.255   3.774  1.1801  1.5858 -2.1506
 5038SOL     OW15829   4.002   2.355   6.354  0.6524  0.3773 -0.4263
 5038SOL    HW115830   3.927   2.369   6.411  0.5963  2.0761 -0.9015
 5038SOL    HW215831   3.965   2.350   6.266  0.8130 -1.5609 -0.3981
 5039SOL     OW15832   4.341   0.300   3.390  0.2610 -0.5753  0.1988
 5039SOL    HW115833   4.303   0.387   3.403  1.3364 -0.3014  1.4885
 5039SOL    HW215834   4.305   0.247   3.461 -0.1827 -1.1379 -0.4311
 5040SOL     OW15835   5.023   1.643   5.415 -0.2584  0.4371  0.6335
 5040SOL    HW115836   5.090   1.706   5.441  0.3594 -0.1757  0.5122
 5040SOL    HW215837   5.040   1.566   5.468 -0.7508  0.2075  0.4643
 5041SOL     OW15838   0.349   2.910   5.171  0.0880  0.0824 -0.4718
 5041SOL    HW115839   0.428   2.888   5.122  0.3204  0.5601 -0.3152
 5041SOL    HW215840   0.371   2.991   5.217 -0.4102  0.0862 -0.2350
 5042SOL     OW15841   0.780   6.265   0.353 -0.6902 -0.1809 -0.1405
 5042SOL    HW115842   0.860   6.279   0.303 -0.3169 -0.7712  0.2840
 5042SOL    HW215843   0.710   6.266   0.287 -0.2444 -0.5733 -0.6279
 5043SOL     OW15844   4.723   6.145   0.922 -0.2152 -0.4891  0.1199
 5043SOL    HW115845   4.684   6.121   1.006  1.4151 -1.1425  0.6980
 5043SOL    HW215846   4.808   6.182   0.944  0.1704 -0.5337 -1.2352
 5044SOL     OW15847   0.608   5.337   5.750 -0.2404 -0.0836 -0.4739
 5044SOL    HW115848   0.694   5.372   5.725 -1.2393  2.1375 -1.0001
 5044SOL    HW215849   0.568   5.311   5.667 -0.8913  0.9060 -0.4839
 5045SOL     OW15850   3.212   4.382   4.609 -0.3634  0.3292 -0.0704
 5045SOL    HW115851   3.152   4.412   4.678 -2.5150 -2.0310 -0.8285
 5045SOL    HW215852   3.241   4.295   4.639 -0.1228 -0.0592 -1.4081
 5046SOL     OW15853   6.399   2.793   1.624  0.1489  0.0431 -0.1010
 5046SOL    HW115854   6.347   2.873   1.617  0.5081  0.4070  1.3078
 5046SOL    HW215855   6.360   2.734   1.559 -0.0834  1.3662 -1.1977
 5047SOL     OW15856   0.407   6.431   4.625 -0.1635 -0.0927 -0.0996
 5047SOL    HW115857   0.497   6.439   4.593 -0.0910  0.6653  0.2890
 5047SOL    HW215858   0.360   6.390   4.553 -0.5140  3.6572 -2.1421
 5048SOL     OW15859   6.181   6.163   5.279 -0.1465 -0.1415 -0.1174
 5048SOL    HW115860   6.184   6.253   5.311  0.4712  0.3404 -1.4853
 5048SOL    HW215861   6.090   6.150   5.253 -0.2765  0.0140  0.2506
 5049SOL     OW15862   3.604   3.571   2.087  0.4382  0.0017 -0.8427
 5049SOL    HW115863   3.647   3.488   2.067  0.1748 -0.5315  0.7480
 5049SOL    HW215864   3.666   3.619   2.142  1.2345  1.5433 -2.9982
 5050SOL     OW15865   2.964   2.805   1.712 -0.5650  0.0001 -0.2879
 5050SOL    HW115866   2.876   2.774   1.690 -0.7295  0.6656 -0.5703
 5050SOL    HW215867   3.019   2.770   1.642 -0.8210  0.6954 -0.8495
 5051SOL     OW15868   0.378   5.026   5.681  0.7705  0.0890  0.3611
 5051SOL    HW115869   0.426   5.084   5.623  0.9070 -0.8150 -0.4447
 5051SOL    HW215870   0.409   5.049   5.769  2.0520  0.0990 -0.0829
 5052SOL     OW15871   0.055   2.157   0.836 -0.0150  0.2196  0.0413
 5052SOL    HW115872   0.084   2.089   0.898  0.2371  0.6578  0.4077
 5052SOL    HW215873   0.082   2.239   0.876 -0.4314  0.5494 -0.3421
 5053SOL     OW15874   0.950   5.766   4.895  0.0118 -0.3227 -0.4278
 5053SOL    HW115875   0.894   5.731   4.964  0.0926 -1.8438 -1.0980
 5053SOL    HW215876   1.021   5.810   4.941 -0.4053 -0.5587  0.4468
 5054SOL     OW15877   0.708   1.681   1.190  1.0415 -0.5838  0.3268
 5054SOL    HW115878   0.644   1.667   1.259 -0.5445  0.1375 -0.9631
 5054SOL    HW215879   0.775   1.737   1.229 -0.3436  0.6338  0.9931
 5055SOL     OW15880   6.518   1.636   0.114  0.0910  0.3644  0.2975
 5055SOL    HW115881   6.531   1.590   0.197 -0.1687  0.2063  0.2503
 5055SOL    HW215882   6.533   1.570   0.046 -0.8855  0.1937  0.2419
 5056SOL     OW15883   6.133   3.023   0.764 -0.0578 -0.2835  0.0721
 5056SOL    HW115884   6.224   3.048   0.777  0.3054 -1.1953 -0.6977
 5056SOL    HW215885   6.109   3.060   0.679 -0.8400  1.1657  0.9123
 5057SOL     OW15886   0.899   2.695   0.814  0.1302  0.0549 -0.3133
 5057SOL    HW115887   0.925   2.773   0.765 -2.0963  0.0644 -1.5281
 5057SOL    HW215888   0.854   2.729   0.892  0.6444 -0.0137  0.0200
 5058SOL     OW15889   5.479   3.215   1.837  0.0468 -0.0250 -0.6718
 5058SOL    HW115890   5.453   3.303   1.811  2.7039  0.7097 -0.9434
 5058SOL    HW215891   5.527   3.180   1.762 -0.4497 -1.4742 -0.3287
 5059SOL     OW15892   4.118   0.346   6.747  0.4251 -0.1022  0.4120
 5059SOL    HW115893   4.114   0.321   6.655  0.5004  0.5421  0.2351
 5059SOL    HW215894   4.152   0.435   6.747  0.7833 -0.2335  1.0838
 5060SOL     OW15895   3.179   4.446   3.571  0.0620  0.0153  0.1044
 5060SOL    HW115896   3.101   4.399   3.603 -1.2705  1.4645 -0.9518
 5060SOL    HW215897   3.248   4.420   3.631 -1.7025  0.3083  2.3396
 5061SOL     OW15898   5.419   1.703   4.992  0.1805  0.5568  0.0595
 5061SOL    HW115899   5.360   1.646   5.041 -1.6114  1.0170 -1.5082
 5061SOL    HW215900   5.444   1.771   5.054 -0.8604  0.2865  0.7889
 5062SOL     OW15901   0.212   6.388   2.243  0.0099  0.0205  0.2201
 5062SOL    HW115902   0.209   6.438   2.324 -0.3683  1.1728 -0.4896
 5062SOL    HW215903   0.126   6.402   2.203 -0.3676 -1.7837  0.3421
 5063SOL     OW15904   3.686   3.662   5.298  0.1386 -0.2866  0.4450
 5063SOL    HW115905   3.754   3.707   5.247  1.8835 -0.8077  2.2539
 5063SOL    HW215906   3.649   3.730   5.354 -0.9544  0.0277 -0.6398
 5064SOL     OW15907   2.982   3.442   5.980  0.0157 -0.6226  0.6908
 5064SOL    HW115908   3.065   3.470   6.019 -0.0230 -2.1760  1.9712
 5064SOL    HW215909   2.995   3.349   5.961 -0.7204 -0.3824 -1.0653
 5065SOL     OW15910   4.079   5.235   2.064  0.2722 -0.4282 -0.2422
 5065SOL    HW115911   4.005   5.218   2.006 -0.1298 -2.8266  0.9045
 5065SOL    HW215912   4.155   5.237   2.006 -0.4031 -0.3374 -1.1382
 5066SOL     OW15913   0.188   6.684   0.196 -0.4920 -0.4674  0.1462
 5066SOL    HW115914   0.228   6.599   0.179  0.6310 -0.5141  2.6973
 5066SOL    HW215915   0.257   6.748   0.177 -0.5568 -0.2711  0.5621
 5067SOL     OW15916   2.048   5.102   3.176  0.5015  0.5723  0.1474
 5067SOL    HW115917   2.057   5.132   3.085 -1.2129  0.3969 -0.0884
 5067SOL    HW215918   2.111   5.155   3.225  0.9954  1.0962 -1.0380
 5068SOL     OW15919   3.334   0.563   6.463  0.4368 -0.1576  0.2733
 5068SOL    HW115920   3.352   0.603   6.548  0.7946 -0.4175  0.3228
 5068SOL    HW215921   3.410   0.507   6.446  0.5068  0.1205 -0.3561
 5069SOL     OW15922   4.197   1.715   6.032 -0.5715 -0.7831 -0.0601
 5069SOL    HW115923   4.241   1.689   5.951 -1.6924 -1.9098 -0.3147
 5069SOL    HW215924   4.104   1.716   6.010 -0.6394  2.7980  0.1374
 5070SOL     OW15925   2.008   0.029   5.589  0.3480 -0.4438  0.0877
 5070SOL    HW115926   1.923   0.033   5.633  0.6386  0.3258  0.5753
 5070SOL    HW215927   2.052   0.110   5.612  1.0733 -0.6653 -0.4760
 5071SOL     OW15928   5.449   2.566   1.376  0.0854  0.0108 -0.4931
 5071SOL    HW115929   5.527   2.518   1.347  0.1063 -0.5461  0.4431
 5071SOL    HW215930   5.398   2.501   1.424 -0.9385  0.3880 -1.0536
 5072SOL     OW15931   4.605   0.289   1.277  0.1754  0.9145 -0.0242
 5072SOL    HW115932   4.549   0.273   1.352 -0.3857 -1.6696 -0.9562
 5072SOL    HW215933   4.687   0.244   1.297  1.1027  2.6587  0.2742
 5073SOL     OW15934   0.312   1.903   6.207  0.3395  0.0009 -0.0969
 5073SOL    HW115935   0.351   1.849   6.138  1.2237  0.2461  0.1959
 5073SOL    HW215936   0.218   1.895   6.195  0.4947  0.1717 -1.4281
 5074SOL     OW15937   2.592   0.377   1.089  0.2574 -0.2523 -0.7695
 5074SOL    HW115938   2.633   0.346   1.170  0.7409  1.6866 -0.2520
 5074SOL    HW215939   2.624   0.466   1.078 -0.5961 -0.1431 -2.5742
 5075SOL     OW15940   6.633   6.421   3.875 -0.2022  0.0385 -0.5885
 5075SOL    HW115941   6.687   6.494   3.846  0.0426 -0.1328 -0.5591
 5075SOL    HW215942   6.623   6.366   3.797  0.7953 -0.6347 -0.2527
 5076SOL     OW15943   1.538   1.442   3.125  0.3033 -0.3864  0.0946
 5076SOL    HW115944   1.464   1.404   3.078  0.0689  0.5183 -0.2658
 5076SOL    HW215945   1.613   1.387   3.100 -0.0716 -0.7445 -0.2515
 5077SOL     OW15946   2.705   6.423   0.682  0.5923  0.2098 -0.0410
 5077SOL    HW115947   2.700   6.347   0.740 -0.0813 -0.0922 -0.4885
 5077SOL    HW215948   2.623   6.421   0.633  0.0397  1.9070  0.7690
 5078SOL     OW15949   2.964   4.737   0.095  0.4507 -0.1747  0.1677
 5078SOL    HW115950   2.967   4.766   0.187 -0.9674 -0.7862  0.4187
 5078SOL    HW215951   2.948   4.643   0.100 -2.4554  0.2271 -0.7231
 5079SOL     OW15952   1.843   3.544   5.603  0.2406 -0.4173  0.2445
 5079SOL    HW115953   1.843   3.451   5.584  0.9000 -0.3653 -0.0361
 5079SOL    HW215954   1.757   3.575   5.576  0.2006 -0.8524 -0.1164
 5080SOL     OW15955   6.428   1.266   1.526 -0.1539  0.3421 -0.1048
 5080SOL    HW115956   6.463   1.324   1.459  0.2103 -0.3102 -0.4861
 5080SOL    HW215957   6.406   1.185   1.479  0.0696 -0.1107  0.5521
 5081SOL     OW15958   0.355   0.836   3.540 -0.0973  0.3011  0.0362
 5081SOL    HW115959   0.354   0.755   3.591  1.9929  0.1989 -0.0064
 5081SOL    HW215960   0.446   0.843   3.509 -0.7825  1.5490 -1.7437
 5082SOL     OW15961   2.624   6.641   3.549 -0.3056 -0.1654 -0.0089
 5082SOL    HW115962   2.584   6.669   3.632 -0.5887  0.8281 -0.4717
 5082SOL    HW215963   2.561   6.579   3.512 -0.7018  0.2275 -0.0035
 5083SOL     OW15964   4.182   1.300   1.906  0.2443  0.6941  0.0910
 5083SOL    HW115965   4.093   1.334   1.914  0.0464  0.4764 -1.1790
 5083SOL    HW215966   4.172   1.214   1.866  0.7942 -0.6645  2.7589
 5084SOL     OW15967   6.044   3.172   2.001 -0.9876 -0.0687  0.0045
 5084SOL    HW115968   6.068   3.113   2.073 -0.2751  0.2103  0.0033
 5084SOL    HW215969   6.095   3.252   2.017 -2.8165  0.9951  0.6408
 5085SOL     OW15970   3.651   4.013   5.742 -0.5549  0.6453 -0.1713
 5085SOL    HW115971   3.711   3.954   5.789  0.0122  0.5536 -0.9900
 5085SOL    HW215972   3.709   4.075   5.697 -1.0431  0.1016 -1.5755
 5086SOL     OW15973   5.125   3.733   2.174  0.0024 -0.1925  0.1142
 5086SOL    HW115974   5.153   3.715   2.263  1.3916  0.0567 -0.2536
 5086SOL    HW215975   5.070   3.811   2.181  0.4463  0.0717  0.7049
 5087SOL     OW15976   3.450   0.491   0.835 -0.3518 -0.0409 -0.4080
 5087SOL    HW115977   3.377   0.438   0.867  0.1180 -0.4472 -0.0141
 5087SOL    HW215978   3.513   0.491   0.906  0.7418 -1.0359 -1.3693
 5088SOL     OW15979   6.395   4.413   4.063 -0.0644 -0.2719 -0.0855
 5088SOL    HW115980   6.485   4.444   4.056 -0.5475  1.2733  0.3019
 5088SOL    HW215981   6.388   4.378   4.151 -0.3200  1.2741  0.5327
 5089SOL     OW15982   2.560   2.761   2.358  0.1244 -0.1063 -0.1188
 5089SOL    HW115983   2.579   2.736   2.268  2.2602  0.1719  0.2332
 5089SOL    HW215984   2.646   2.771   2.399 -0.8057 -0.6271  2.0572
 5090SOL     OW15985   0.322   3.078   3.298 -0.0589  0.4177 -0.2952
 5090SOL    HW115986   0.391   3.099   3.236  1.2143 -1.4095  0.4439
 5090SOL    HW215987   0.352   3.114   3.382  0.4367 -1.1285  0.2100
 5091SOL     OW15988   0.587   3.813   0.123  0.0140 -0.0179 -0.0626
 5091SOL    HW115989   0.492   3.817   0.129  0.0279 -0.6975  0.6490
 5091SOL    HW215990   0.604   3.761   0.045 -0.2081 -1.7898  1.0585
 5092SOL     OW15991   1.139   0.834   3.305 -0.3013 -0.2580  0.1704
 5092SOL    HW115992   1.148   0.746   3.270  0.4784 -0.5976  1.1967
 5092SOL    HW215993   1.108   0.822   3.395  0.7389  0.4596  0.6371
 5093SOL     OW15994   2.586   5.404   6.412 -0.1419  0.2040  0.2531
 5093SOL    HW115995   2.511   5.346   6.428  0.3660 -0.0695  1.7052
 5093SOL    HW215996   2.654   5.346   6.378 -0.4078  0.3690 -0.5821
 5094SOL     OW15997   0.267   6.090   4.530  0.1368  0.0968  0.4220
 5094SOL    HW115998   0.239   6.008   4.490  0.1890  0.3629 -0.1642
 5094SOL    HW215999   0.357   6.102   4.500  0.2573  0.1869  0.8074
 5095SOL     OW16000   4.133   3.611   5.209 -0.0664 -0.2576  0.3318
 5095SOL    HW116001   4.047   3.580   5.181  0.1046 -0.2932 -0.1534
 5095SOL    HW216002   4.114   3.687   5.264 -0.3936 -0.0651 -0.0479
 5096SOL     OW16003   1.055   6.269   5.770  0.2357 -0.1530 -0.1229
 5096SOL    HW116004   1.081   6.220   5.692  2.7750 -1.2331  1.3389
 5096SOL    HW216005   1.034   6.202   5.835  1.6887  0.6749  1.2343
 5097SOL     OW16006   2.815   5.461   0.384  0.0005  0.7697  0.0213
 5097SOL    HW116007   2.802   5.548   0.348 -4.1428 -0.0470 -0.6912
 5097SOL    HW216008   2.872   5.417   0.321  0.2031  2.1882 -0.8091
 5098SOL     OW16009   6.543   6.426   5.503  0.1275  0.4609  0.4886
 5098SOL    HW116010   6.463   6.390   5.542  0.7637 -0.5513  0.9060
 5098SOL    HW216011   6.610   6.415   5.571  1.0953 -0.6827 -0.6106
 5099SOL     OW16012   5.164   2.665   1.350  0.4139 -0.2514 -0.5275
 5099SOL    HW116013   5.156   2.610   1.428  0.0705  0.1228 -0.3027
 5099SOL    HW216014   5.256   2.657   1.325  0.5434 -0.3066 -0.0384
 5100SOL     OW16015   1.597   0.293   5.818 -0.1053 -0.3775  0.1624
 5100SOL    HW116016   1.573   0.386   5.821  0.4790 -0.2376  0.3587
 5100SOL    HW216017   1.669   0.289   5.756  0.4211 -0.5864  0.7876
 5101SOL     OW16018   0.864   5.937   3.535  0.2452 -0.0690  0.5106
 5101SOL    HW116019   0.954   5.968   3.527  0.9774 -2.3002  0.0355
 5101SOL    HW216020   0.871   5.846   3.563 -1.8407 -0.5980 -0.5762
 5102SOL     OW16021   2.442   1.147   3.828 -0.5376 -0.1122 -0.4970
 5102SOL    HW116022   2.419   1.168   3.918 -1.7098 -1.1277 -0.5444
 5102SOL    HW216023   2.476   1.229   3.792  1.5950 -0.1279  1.3584
 5103SOL     OW16024   1.384   2.857   2.102  0.6341 -0.1447 -0.0694
 5103SOL    HW116025   1.463   2.897   2.066  0.0086 -0.0847 -1.4305
 5103SOL    HW216026   1.370   2.779   2.048  0.0125 -0.3833  0.4306
 5104SOL     OW16027   6.764   1.360   0.353 -0.1001  0.0974  0.2996
 5104SOL    HW116028   6.785   1.320   0.269  0.1196  0.0963  0.3535
 5104SOL    HW216029   6.849   1.389   0.387 -0.4090  1.6615 -0.2613
 5105SOL     OW16030   3.913   6.501   6.465  0.5808 -0.4032 -0.3601
 5105SOL    HW116031   3.864   6.499   6.547  0.7106  1.0724 -0.2414
 5105SOL    HW216032   3.927   6.594   6.447  1.4468 -0.7446 -1.5219
 5106SOL     OW16033   3.336   4.767   1.716 -0.2756  0.2558  0.5616
 5106SOL    HW116034   3.296   4.795   1.799  0.9817 -1.5940  1.8289
 5106SOL    HW216035   3.266   4.779   1.651 -1.6146  0.7916  2.0442
 5107SOL     OW16036   2.015   1.508   1.370  0.2118 -0.0177 -0.2648
 5107SOL    HW116037   1.998   1.419   1.402  0.6182  0.6715  1.9171
 5107SOL    HW216038   1.928   1.543   1.351  0.1360 -1.4304 -2.7296
 5108SOL     OW16039   4.206   4.130   5.035  0.0078  0.2748 -0.5338
 5108SOL    HW116040   4.271   4.129   4.964  0.1331 -0.0884 -0.4156
 5108SOL    HW216041   4.129   4.173   4.997 -0.3802 -1.0836 -1.2867
 5109SOL     OW16042   6.152   3.405   5.146  0.2743 -0.0070 -0.3518
 5109SOL    HW116043   6.110   3.377   5.228  1.2009  0.4050  0.2765
 5109SOL    HW216044   6.220   3.467   5.174  2.2039 -1.6797 -1.2318
 5110SOL     OW16045   3.658   4.173   2.719  0.1869 -0.4002  0.1736
 5110SOL    HW116046   3.606   4.247   2.688  1.2971 -0.2941 -1.4970
 5110SOL    HW216047   3.616   4.097   2.680  1.2984 -0.3114 -1.2083
 5111SOL     OW16048   1.488   5.354   0.979 -0.0776  0.3952 -0.7003
 5111SOL    HW116049   1.432   5.347   0.901 -0.7457 -0.1766 -0.1728
 5111SOL    HW216050   1.448   5.424   1.031  1.2048  1.7783 -1.5454
 5112SOL     OW16051   1.674   6.349   6.467 -0.0051  0.6352 -0.2623
 5112SOL    HW116052   1.730   6.422   6.492  2.0969 -0.7692 -0.8069
 5112SOL    HW216053   1.687   6.339   6.373 -0.0252 -0.6450 -0.1403
 5113SOL     OW16054   5.755   4.240   5.603 -0.0834 -0.4804  0.1198
 5113SOL    HW116055   5.758   4.296   5.681  1.4957 -0.6090  0.1761
 5113SOL    HW216056   5.692   4.284   5.545  0.7346  1.0881  0.3797
 5114SOL     OW16057   1.760   4.288   6.288  0.0366 -0.4152  0.4084
 5114SOL    HW116058   1.745   4.375   6.325  1.2257 -0.4527  0.9875
 5114SOL    HW216059   1.835   4.300   6.230 -1.7493 -0.3686 -1.9752
 5115SOL     OW16060   0.760   5.794   2.399  0.1686  0.0758 -0.1082
 5115SOL    HW116061   0.666   5.807   2.387  0.2916  0.0130 -1.2478
 5115SOL    HW216062   0.785   5.732   2.330  0.4640 -2.4800  2.2041
 5116SOL     OW16063   2.514   0.747   6.222 -0.4397  0.0896  0.0019
 5116SOL    HW116064   2.530   0.697   6.302  0.9518 -0.3085 -0.5132
 5116SOL    HW216065   2.601   0.771   6.191 -1.0139  1.0845 -0.8652
 5117SOL     OW16066   5.673   6.362   1.882 -0.6687 -0.3754 -0.3109
 5117SOL    HW116067   5.692   6.430   1.816  0.8394 -1.2848 -0.8305
 5117SOL    HW216068   5.609   6.403   1.940 -2.1050  0.4321 -2.3751
 5118SOL     OW16069   3.859   4.749   0.430 -0.7401  0.7224  0.4388
 5118SOL    HW116070   3.764   4.741   0.422 -1.0122  0.7417  3.3018
 5118SOL    HW216071   3.887   4.668   0.473  0.1538  2.0432  2.4084
 5119SOL     OW16072   6.312   4.729   1.695 -0.0487  0.6166  0.3618
 5119SOL    HW116073   6.322   4.721   1.790  1.1983  0.7454  0.2512
 5119SOL    HW216074   6.321   4.823   1.678  0.0416  0.5583  0.0916
 5120SOL     OW16075   5.755   1.110   4.539  1.1453  0.0497  0.4263
 5120SOL    HW116076   5.774   1.184   4.598 -1.5827  0.4789  0.8114
 5120SOL    HW216077   5.708   1.047   4.594  0.2028 -0.3555 -0.8261
 5121SOL     OW16078   3.135   3.198   0.407 -0.0595  0.0372 -0.0646
 5121SOL    HW116079   3.057   3.203   0.463  0.1188 -0.1585  0.2032
 5121SOL    HW216080   3.184   3.124   0.441  0.9214  1.0016  0.6474
 5122SOL     OW16081   2.839   5.159   5.778  0.1329  0.2827 -0.2914
 5122SOL    HW116082   2.839   5.177   5.684  0.2083  0.8710 -0.1795
 5122SOL    HW216083   2.930   5.166   5.804 -0.1245  2.1412  0.2024
 5123SOL     OW16084   0.272   5.247   3.838  0.0673 -0.2345 -0.3348
 5123SOL    HW116085   0.202   5.192   3.802 -0.1206 -0.5202  0.4617
 5123SOL    HW216086   0.330   5.186   3.883 -0.2534  0.2456  0.7397
 5124SOL     OW16087   3.042   6.207   5.579  0.0774 -0.2695 -0.4498
 5124SOL    HW116088   3.130   6.176   5.601  0.5355  0.9142 -0.5469
 5124SOL    HW216089   3.004   6.233   5.663  0.7280  1.4610 -0.6528
 5125SOL     OW16090   2.162   4.316   4.451  0.6423  0.9660  0.1237
 5125SOL    HW116091   2.253   4.290   4.439  0.4934  0.3087  0.3549
 5125SOL    HW216092   2.125   4.315   4.362  0.1763 -1.4533  0.2962
 5126SOL     OW16093   0.157   0.623   1.826  0.2539  0.3926 -0.3223
 5126SOL    HW116094   0.142   0.543   1.877 -0.1915  1.6041  1.5028
 5126SOL    HW216095   0.127   0.693   1.883  0.5452  1.8702 -1.9498
 5127SOL     OW16096   5.719   2.079   1.645  0.3606 -0.1077 -0.0963
 5127SOL    HW116097   5.798   2.127   1.620  0.0139  0.0780 -0.8485
 5127SOL    HW216098   5.750   1.989   1.660  0.8790  0.1845  0.5863
 5128SOL     OW16099   5.624   4.552   1.104 -0.4726 -0.6567 -0.3698
 5128SOL    HW116100   5.708   4.582   1.068 -0.8382  1.3183  0.3626
 5128SOL    HW216101   5.558   4.588   1.045 -0.8223 -2.9837 -1.4861
 5129SOL     OW16102   3.746   6.239   3.065 -0.0334 -0.0412 -0.2715
 5129SOL    HW116103   3.753   6.293   3.144 -1.7779  1.8150 -1.3701
 5129SOL    HW216104   3.654   6.244   3.041  0.3802 -1.0795 -2.1142
 5130SOL     OW16105   6.434   1.959   2.765  0.4384  0.1254 -0.8524
 5130SOL    HW116106   6.407   2.029   2.705  0.8149  0.2395 -0.8901
 5130SOL    HW216107   6.502   1.999   2.819  0.1683 -0.0083 -0.4165
 5131SOL     OW16108   4.561   3.947   6.312 -0.2224  0.7682  0.5173
 5131SOL    HW116109   4.546   4.041   6.300 -1.7668  0.6379  1.2605
 5131SOL    HW216110   4.500   3.906   6.250  1.0872  0.2597 -0.4506
 5132SOL     OW16111   2.013   1.837   1.378  0.4440 -0.3499 -0.0200
 5132SOL    HW116112   2.064   1.767   1.337 -0.5909 -1.1588  0.0535
 5132SOL    HW216113   1.939   1.792   1.419 -0.0067  0.7425  0.3849
 5133SOL     OW16114   0.279   1.863   4.044 -0.5699  0.2294 -0.0976
 5133SOL    HW116115   0.319   1.786   4.084  0.1427  0.8353  0.3800
 5133SOL    HW216116   0.325   1.873   3.960 -1.3676 -0.4571 -0.6159
 5134SOL     OW16117   2.988   6.491   1.485  0.4519 -0.4367  0.4188
 5134SOL    HW116118   2.921   6.425   1.466  0.8774 -1.1147  1.2392
 5134SOL    HW216119   3.062   6.440   1.520  0.9025  0.4424  0.7503
 5135SOL     OW16120   3.921   4.405   0.641  0.0883  0.1681 -0.0972
 5135SOL    HW116121   4.014   4.383   0.639 -0.0607 -0.4224 -1.1280
 5135SOL    HW216122   3.918   4.493   0.680  0.9126 -0.5226  1.5630
 5136SOL     OW16123   1.971   2.401   5.034 -0.5492  0.0022  0.2340
 5136SOL    HW116124   1.938   2.363   4.953  0.8193  0.8252 -0.7345
 5136SOL    HW216125   1.928   2.486   5.041 -1.0963 -0.3086  0.6698
 5137SOL     OW16126   4.651   1.862   5.262  0.0911  0.1283  0.4293
 5137SOL    HW116127   4.657   1.933   5.326  0.6323 -0.6142  1.2133
 5137SOL    HW216128   4.685   1.785   5.308  0.3393 -0.4504 -0.7003
 5138SOL     OW16129   0.984   4.377   4.164  0.1243 -0.1139  0.4588
 5138SOL    HW116130   0.967   4.446   4.100 -0.2921 -1.9118 -1.4386
 5138SOL    HW216131   1.062   4.407   4.211 -0.5406  2.0253  0.2674
 5139SOL     OW16132   1.557   1.200   1.566 -0.1692  0.1920 -0.1292
 5139SOL    HW116133   1.629   1.256   1.593  0.1001 -0.5462  0.7011
 5139SOL    HW216134   1.507   1.184   1.646 -0.7737  0.0160 -0.5381
 5140SOL     OW16135   0.287   2.108   4.182  0.3301  0.0736  0.1973
 5140SOL    HW116136   0.284   2.160   4.102  1.0325 -1.0547 -0.5709
 5140SOL    HW216137   0.280   2.017   4.153  3.0443 -0.5187  1.1735
 5141SOL     OW16138   1.286   0.359   5.730 -0.1663  0.6677 -0.3471
 5141SOL    HW116139   1.373   0.349   5.768 -0.2996  0.0814 -0.1863
 5141SOL    HW216140   1.241   0.421   5.787 -0.3406 -0.1505  0.4061
 5142SOL     OW16141   0.152   4.909   0.233 -0.1399  0.0602 -0.1915
 5142SOL    HW116142   0.136   4.953   0.316 -1.8577 -0.4260 -0.2472
 5142SOL    HW216143   0.153   4.816   0.255  3.5544  0.0405 -0.0592
 5143SOL     OW16144   5.515   2.049   6.435 -0.2476  0.4153  0.1289
 5143SOL    HW116145   5.494   2.098   6.356  1.2076 -0.2690 -0.7004
 5143SOL    HW216146   5.431   2.040   6.480 -1.1599  0.5031 -1.5120
 5144SOL     OW16147   5.887   4.542   0.124  0.4328  0.2170 -0.0143
 5144SOL    HW116148   5.872   4.632   0.093  0.4113 -0.6135 -2.5273
 5144SOL    HW216149   5.816   4.491   0.085  0.9857 -1.0674  0.6390
 5145SOL     OW16150   4.245   0.570   4.355  0.1132  0.5770  0.1652
 5145SOL    HW116151   4.160   0.527   4.357  0.5009 -0.1578  0.9359
 5145SOL    HW216152   4.225   0.663   4.338 -0.7616  0.2257 -0.7951
 5146SOL     OW16153   3.880   1.096   5.074 -0.5597 -0.5250  0.4791
 5146SOL    HW116154   3.973   1.102   5.052 -0.5671  0.8481  0.7525
 5146SOL    HW216155   3.878   1.102   5.170 -0.9458 -0.2289  0.4542
 5147SOL     OW16156   2.448   3.849   2.819 -0.4047 -0.4158 -1.0540
 5147SOL    HW116157   2.450   3.753   2.824 -1.1768 -0.3440  0.9152
 5147SOL    HW216158   2.508   3.878   2.887  0.5036  0.4976 -2.2417
 5148SOL     OW16159   3.736   5.230   6.107  0.2614  0.3404  0.0356
 5148SOL    HW116160   3.788   5.266   6.178 -0.6791  0.3180  0.7519
 5148SOL    HW216161   3.764   5.278   6.029  1.2084  0.4551  0.4407
 5149SOL     OW16162   3.219   1.340   0.712 -0.4505 -0.3402  0.3821
 5149SOL    HW116163   3.224   1.280   0.638 -1.4118 -0.5221  0.4579
 5149SOL    HW216164   3.181   1.288   0.783  0.8526 -0.2830  1.1300
 5150SOL     OW16165   3.796   1.497   6.647  0.2354 -0.2682  1.0687
 5150SOL    HW116166   3.718   1.443   6.637  1.0560 -1.2942  0.1971
 5150SOL    HW216167   3.773   1.580   6.605  0.1471 -1.1030 -0.5563
 5151SOL     OW16168   5.063   3.087   4.654 -0.2776 -0.2576  0.1576
 5151SOL    HW116169   5.086   3.033   4.579  1.5672 -0.5232  0.8843
 5151SOL    HW216170   5.055   3.176   4.619 -1.6338 -0.7243 -0.7369
 5152SOL     OW16171   1.630   0.955   2.280 -0.1666 -0.1266 -0.0397
 5152SOL    HW116172   1.612   1.002   2.362 -0.7290  1.3794 -0.9992
 5152SOL    HW216173   1.566   0.884   2.278 -0.4507  0.1119  0.5998
 5153SOL     OW16174   5.249   5.666   5.257  0.4964 -0.3995 -0.2764
 5153SOL    HW116175   5.295   5.617   5.325 -0.3405 -1.0961 -0.2103
 5153SOL    HW216176   5.171   5.700   5.300  0.9692  0.8634 -0.3698
 5154SOL     OW16177   3.383   6.100   4.928  0.0977  0.6688 -0.2878
 5154SOL    HW116178   3.387   6.016   4.881  1.2789  0.0575  0.8699
 5154SOL    HW216179   3.310   6.089   4.989  0.5812  0.2753  0.2290
 5155SOL     OW16180   1.948   6.484   6.001 -0.1905  0.5715 -0.0513
 5155SOL    HW116181   1.984   6.516   5.918 -4.0861 -0.4803 -2.2607
 5155SOL    HW216182   1.966   6.390   6.000 -1.2384  0.3652 -0.2738
 5156SOL     OW16183   6.391   1.127   0.906 -0.2835  0.2812  0.3362
 5156SOL    HW116184   6.471   1.176   0.926 -0.1980  0.0391  0.6060
 5156SOL    HW216185   6.419   1.035   0.908 -0.5191  0.2058  0.1955
 5157SOL     OW16186   5.008   4.271   6.753  0.2765  0.5108 -0.3989
 5157SOL    HW116187   5.059   4.330   6.808  1.8012  0.5251 -1.7791
 5157SOL    HW216188   5.064   4.254   6.677 -0.1242 -2.7186 -0.0403
 5158SOL     OW16189   3.810   1.185   2.856  0.0246  0.2531  0.2755
 5158SOL    HW116190   3.852   1.248   2.914  0.7612  0.8903 -0.9362
 5158SOL    HW216191   3.756   1.238   2.797  1.2854 -0.1654 -1.2762
 5159SOL     OW16192   5.713   6.613   5.013 -0.5562 -0.3114 -0.4977
 5159SOL    HW116193   5.736   6.662   5.092  2.2424  0.2983 -1.6119
 5159SOL    HW216194   5.664   6.537   5.045  0.3488  0.0382  1.8082
 5160SOL     OW16195   6.244   1.757   3.810  0.0727  0.4051 -0.1216
 5160SOL    HW116196   6.327   1.730   3.849  0.3606  0.4546 -0.7098
 5160SOL    HW216197   6.187   1.772   3.885 -0.2869 -2.4609  0.2335
 5161SOL     OW16198   2.245   4.093   6.086  0.1039 -0.1164  0.3305
 5161SOL    HW116199   2.278   4.095   5.997 -0.3892 -1.2924  0.1077
 5161SOL    HW216200   2.284   4.015   6.125 -0.6340 -0.2824  0.7549
 5162SOL     OW16201   1.235   4.658   0.487  0.1899  0.4175  0.4230
 5162SOL    HW116202   1.194   4.744   0.473 -0.2533  0.0120 -0.8785
 5162SOL    HW216203   1.324   4.678   0.517  0.2932  1.3476 -0.4695
 5163SOL     OW16204   1.143   6.528   2.828 -0.4192 -0.2852 -0.1633
 5163SOL    HW116205   1.124   6.619   2.803  0.3040  0.2194  1.0480
 5163SOL    HW216206   1.237   6.518   2.811 -0.0782 -0.1724  1.5435
 5164SOL     OW16207   3.633   5.820   3.379  0.9245 -0.0317 -0.4654
 5164SOL    HW116208   3.559   5.804   3.319  0.7690 -1.3055  0.0454
 5164SOL    HW216209   3.692   5.876   3.329 -0.6997  1.5829 -0.6455
 5165SOL     OW16210   1.229   3.865   2.509  0.2242  0.3560 -0.5729
 5165SOL    HW116211   1.301   3.926   2.494 -0.2510  1.0317 -0.1340
 5165SOL    HW216212   1.227   3.809   2.431  2.4338 -0.9219  0.2550
 5166SOL     OW16213   2.359   0.706   2.726 -0.2507  0.5687 -0.0796
 5166SOL    HW116214   2.354   0.611   2.723  3.1460  0.3547 -1.4364
 5166SOL    HW216215   2.371   0.727   2.819  0.9767 -0.4968  0.0212
 5167SOL     OW16216   3.509   3.765   4.670 -0.0489 -0.2415  0.3053
 5167SOL    HW116217   3.499   3.815   4.751  1.0686 -0.8288  0.8171
 5167SOL    HW216218   3.566   3.692   4.694  1.6610  0.5052 -1.3901
 5168SOL     OW16219   1.362   3.048   1.285 -0.1886 -0.3580 -0.0742
 5168SOL    HW116220   1.298   2.991   1.327  0.2031 -1.3131 -0.7381
 5168SOL    HW216221   1.432   2.988   1.258  2.2826  1.0008  3.0163
 5169SOL     OW16222   6.096   0.472   1.105 -0.4248 -0.4211 -0.0133
 5169SOL    HW116223   6.152   0.545   1.076 -1.0817 -0.2290 -0.8315
 5169SOL    HW216224   6.061   0.501   1.190  0.0125 -0.1594  0.0789
 5170SOL     OW16225   5.264   1.363   5.462 -0.4658 -0.2064 -0.5510
 5170SOL    HW116226   5.322   1.290   5.483 -1.7972 -1.4254 -1.0333
 5170SOL    HW216227   5.268   1.370   5.366 -1.0494 -0.2577 -0.5821
 5171SOL     OW16228   1.290   0.009   1.677 -0.0018 -0.3752 -0.1994
 5171SOL    HW116229   1.347   0.043   1.747  0.7058 -0.8643 -0.5391
 5171SOL    HW216230   1.205   0.049   1.695 -0.0851 -1.2512  1.5313
 5172SOL     OW16231   2.499   1.107   4.795  0.6379  0.1698 -0.2713
 5172SOL    HW116232   2.424   1.117   4.854  2.2991  1.7762  1.6238
 5172SOL    HW216233   2.542   1.027   4.823  1.9361  1.4001  1.3303
 5173SOL     OW16234   3.359   4.852   0.795 -0.6452 -0.5604  0.3385
 5173SOL    HW116235   3.443   4.810   0.780 -0.2381  1.0622 -2.3905
 5173SOL    HW216236   3.342   4.842   0.889  3.3767  0.5130  1.2465
 5174SOL     OW16237   5.456   0.575   6.015  0.0182 -0.2842  0.1464
 5174SOL    HW116238   5.465   0.500   6.073  0.5341 -0.8693 -0.6850
 5174SOL    HW216239   5.485   0.650   6.068 -1.1433 -0.5574  1.2016
 5175SOL     OW16240   5.609   2.262   6.233  0.4468  0.0517 -0.1516
 5175SOL    HW116241   5.642   2.287   6.147  0.1105 -1.4318 -0.7399
 5175SOL    HW216242   5.687   2.243   6.285  0.6004 -1.4975 -0.9213
 5176SOL     OW16243   2.618   2.255   3.827 -0.1617 -0.1089 -0.3717
 5176SOL    HW116244   2.687   2.316   3.802 -0.5158  0.7044  0.5707
 5176SOL    HW216245   2.634   2.236   3.919 -0.6774 -0.6107 -0.3771
 5177SOL     OW16246   1.034   5.505   0.278  0.4210  0.1477  0.5700
 5177SOL    HW116247   1.003   5.461   0.199  0.4605 -1.8495  1.6436
 5177SOL    HW216248   1.098   5.569   0.246 -1.8668  1.5652 -1.2844
 5178SOL     OW16249   2.675   0.334   2.104  0.2547  0.3042  0.3390
 5178SOL    HW116250   2.725   0.384   2.168 -0.5582  0.9871  0.4521
 5178SOL    HW216251   2.741   0.281   2.058  1.2274  2.0240 -0.2858
 5179SOL     OW16252   5.270   2.078   6.270  0.2519  0.2960  0.3117
 5179SOL    HW116253   5.176   2.090   6.259  0.6485  0.4349 -3.4582
 5179SOL    HW216254   5.284   1.983   6.263  0.3377  0.1846  1.7372
 5180SOL     OW16255   3.809   5.184   1.148  0.4521  0.2476 -0.0328
 5180SOL    HW116256   3.829   5.110   1.206 -1.3057  0.6065  1.0616
 5180SOL    HW216257   3.880   5.246   1.163 -0.0414  0.3864  1.8370
 5181SOL     OW16258   0.021   2.969   4.269 -0.2971  0.1449 -0.5836
 5181SOL    HW116259   0.075   3.009   4.200 -0.0943 -0.8089 -0.9829
 5181SOL    HW216260  -0.050   3.031   4.282 -0.4618  0.2292 -1.8160
 5182SOL     OW16261   3.495   1.731   3.140 -0.0338  0.1419  0.1577
 5182SOL    HW116262   3.588   1.710   3.136  0.1757  0.7469  1.6583
 5182SOL    HW216263   3.491   1.826   3.123 -0.5848 -0.2408 -2.0684
 5183SOL     OW16264   5.756   5.108   0.034  0.3392 -0.3870  0.6262
 5183SOL    HW116265   5.795   5.196   0.030 -0.4704 -0.0343  0.3062
 5183SOL    HW216266   5.705   5.101  -0.047 -1.1626 -0.4047  1.5695
 5184SOL     OW16267   5.519   0.793   6.704 -0.3463  0.2114 -0.7533
 5184SOL    HW116268   5.604   0.834   6.722  0.4063 -0.5946 -2.4246
 5184SOL    HW216269   5.458   0.841   6.761  1.0862  1.3023 -0.0828
 5185SOL     OW16270   6.098   3.515   4.740 -0.7907  0.4679 -0.2125
 5185SOL    HW116271   6.148   3.443   4.779  0.5562  1.5586  0.1078
 5185SOL    HW216272   6.008   3.499   4.768 -0.3360 -0.5094  0.7400
 5186SOL     OW16273   2.249   4.440   4.867 -0.2841  0.2549  0.6704
 5186SOL    HW116274   2.234   4.532   4.846 -1.0183  0.8137  3.3815
 5186SOL    HW216275   2.163   4.399   4.859  0.3742 -0.6306 -2.3470
 5187SOL     OW16276   3.629   2.028   5.362 -0.2515 -0.6450  0.4045
 5187SOL    HW116277   3.544   2.064   5.337  0.0018  0.1632  0.6750
 5187SOL    HW216278   3.692   2.095   5.336  0.2267 -0.8553  0.9993
 5188SOL     OW16279   2.917   3.339   2.469  0.0052  0.6604  0.1704
 5188SOL    HW116280   3.006   3.362   2.496  0.6252 -0.4352 -0.9034
 5188SOL    HW216281   2.908   3.376   2.381  0.4965 -1.8401 -0.9699
 5189SOL     OW16282   0.463   3.463   4.486 -0.6393 -0.4131  0.1188
 5189SOL    HW116283   0.486   3.533   4.424  0.5379 -0.7516  0.1493
 5189SOL    HW216284   0.503   3.490   4.568 -2.6026  0.2648  0.8723
 5190SOL     OW16285   0.209   5.715   0.357  0.3958  0.0091  0.1895
 5190SOL    HW116286   0.178   5.783   0.297  0.3238 -0.3580 -0.1919
 5190SOL    HW216287   0.290   5.683   0.317 -0.7031 -1.6409 -0.7772
 5191SOL     OW16288   2.380   6.608   2.841 -0.2056  0.1243  0.3536
 5191SOL    HW116289   2.420   6.532   2.883 -1.1144 -0.0231  0.9760
 5191SOL    HW216290   2.307   6.632   2.899 -0.6746  0.7218 -0.4662
 5192SOL     OW16291   1.443   0.583   4.485  0.1949  0.0671 -0.0108
 5192SOL    HW116292   1.375   0.528   4.446 -1.0063  1.9515 -0.6770
 5192SOL    HW216293   1.523   0.559   4.438 -0.0577 -1.9364  0.5468
 5193SOL     OW16294   1.569   3.368   5.683 -0.8091 -0.0390 -1.0350
 5193SOL    HW116295   1.575   3.460   5.658 -1.4582 -0.0545 -1.2745
 5193SOL    HW216296   1.478   3.345   5.663 -0.7728 -0.6021 -0.5461
 5194SOL     OW16297   0.479   2.895   1.430  0.0964 -0.2360  0.4777
 5194SOL    HW116298   0.477   2.836   1.354  0.2337 -2.4459  2.1558
 5194SOL    HW216299   0.572   2.914   1.443  0.0879 -0.0281  0.2548
 5195SOL     OW16300   0.005   0.510   4.597  0.1704  0.1216  0.1080
 5195SOL    HW116301  -0.087   0.487   4.588  0.1199  0.7048 -0.8990
 5195SOL    HW216302   0.033   0.468   4.679 -1.2973  0.9106  1.0329
 5196SOL     OW16303   5.237   4.749   1.841 -0.0240  0.1597 -0.8326
 5196SOL    HW116304   5.208   4.735   1.751 -0.7110  1.5840 -0.8465
 5196SOL    HW216305   5.267   4.840   1.843 -0.4277  0.2855  0.4677
 5197SOL     OW16306   1.099   1.864   4.586 -0.6407  0.1648 -0.2377
 5197SOL    HW116307   1.140   1.786   4.624 -0.5069  0.4344  0.1798
 5197SOL    HW216308   1.028   1.830   4.532 -1.1990 -0.2058  0.7057
 5198SOL     OW16309   1.583   0.005   1.538 -0.2193  0.0943 -0.0403
 5198SOL    HW116310   1.619   0.066   1.602  1.3201  1.1175 -1.8551
 5198SOL    HW216311   1.643  -0.070   1.539  0.5293  0.6680 -1.1886
 5199SOL     OW16312   3.596   2.109   5.824 -1.0236  0.0660 -0.5702
 5199SOL    HW116313   3.601   2.194   5.867 -1.1971 -0.0176 -0.3797
 5199SOL    HW216314   3.539   2.057   5.882  1.3452 -1.0661  0.8037
 5200SOL     OW16315   2.216   0.283   2.743  0.0757  0.0414  0.0992
 5200SOL    HW116316   2.270   0.361   2.761 -0.4298 -0.3734  3.8032
 5200SOL    HW216317   2.280   0.213   2.728  0.5412  0.5356 -0.2405
 5201SOL     OW16318   4.117   6.091   4.890 -0.0646 -0.7377 -0.3396
 5201SOL    HW116319   4.109   6.126   4.801 -4.7919 -1.3128 -0.2669
 5201SOL    HW216320   4.051   6.139   4.941  0.3583 -2.6509  2.1016
 5202SOL     OW16321   0.971   5.468   3.208  0.0851 -0.1338  0.2014
 5202SOL    HW116322   0.881   5.482   3.237 -0.5244  1.3171 -2.2172
 5202SOL    HW216323   0.962   5.433   3.120  1.8945 -0.7237  0.2451
 5203SOL     OW16324   0.921   2.819   4.680 -0.3793  0.4751  0.1378
 5203SOL    HW116325   0.878   2.902   4.702 -1.6348  0.2535 -1.4058
 5203SOL    HW216326   0.994   2.844   4.623 -0.0244  0.6248  0.6564
 5204SOL     OW16327   0.254   1.545   0.724  0.1599 -0.2402 -0.1588
 5204SOL    HW116328   0.269   1.603   0.799 -0.4411  0.2049 -0.3800
 5204SOL    HW216329   0.179   1.491   0.750  0.6268 -0.8227 -0.0118
 5205SOL     OW16330   0.211   5.818   0.069 -0.2109 -0.1373  0.3885
 5205SOL    HW116331   0.282   5.867   0.111 -0.4689  0.3592  0.2498
 5205SOL    HW216332   0.254   5.740   0.034  0.1765 -0.0904  0.7496
 5206SOL     OW16333   6.415   6.298   6.105  0.2378  0.1399  0.4020
 5206SOL    HW116334   6.478   6.292   6.033  0.7162  0.7894  0.7580
 5206SOL    HW216335   6.459   6.255   6.178 -0.8392 -1.8318 -0.0749
 5207SOL     OW16336   4.426   2.334   6.244  0.0634  0.3868  0.1058
 5207SOL    HW116337   4.456   2.264   6.301  0.4097  0.1514 -0.3587
 5207SOL    HW216338   4.397   2.289   6.164 -1.3230  0.6271  0.4598
 5208SOL     OW16339   3.975   5.932   2.564 -0.5423 -0.7146 -0.2311
 5208SOL    HW116340   3.934   5.993   2.503 -0.6071 -0.0330  0.4854
 5208SOL    HW216341   4.057   5.976   2.590 -0.0791 -1.4047 -0.5283
 5209SOL     OW16342   6.543   3.781   0.919 -0.1978 -0.0073  0.1270
 5209SOL    HW116343   6.448   3.787   0.910 -0.2048 -2.2471 -1.7293
 5209SOL    HW216344   6.575   3.867   0.890 -1.6066  0.4716 -0.0374
 5210SOL     OW16345   6.232   6.699   6.311 -0.1611  0.6915 -0.1225
 5210SOL    HW116346   6.170   6.704   6.384  2.0682 -1.3292  2.0431
 5210SOL    HW216347   6.223   6.610   6.278  0.3903  0.9184 -0.8962
 5211SOL     OW16348   6.005   4.430   5.427  0.0129  0.9609 -0.3453
 5211SOL    HW116349   5.929   4.440   5.368 -1.2778 -0.5058  1.0329
 5211SOL    HW216350   6.021   4.336   5.430  1.2927  1.1870  0.1593
 5212SOL     OW16351   2.110   5.748   0.455 -0.0943  0.7981 -0.3249
 5212SOL    HW116352   2.068   5.671   0.494 -0.7109  0.7730 -1.0256
 5212SOL    HW216353   2.168   5.781   0.524 -1.3642  0.9200  0.6985
 5213SOL     OW16354   0.822   6.522   0.556  0.0816  0.6154 -0.0787
 5213SOL    HW116355   0.804   6.443   0.506 -0.6220 -1.3460  3.1462
 5213SOL    HW216356   0.749   6.581   0.536  0.2045  0.1659 -1.9007
 5214SOL     OW16357   5.368   2.844   2.784 -0.7206  0.0923  0.4484
 5214SOL    HW116358   5.420   2.800   2.717 -0.4321 -0.0932  0.7982
 5214SOL    HW216359   5.386   2.937   2.772  0.0858 -0.0090  0.9116
 5215SOL     OW16360   2.476   0.809   2.999  0.1019  0.8030 -0.0945
 5215SOL    HW116361   2.435   0.741   3.052 -1.0855  1.1299 -0.5682
 5215SOL    HW216362   2.565   0.818   3.034 -0.1229 -0.1623  0.7219
 5216SOL     OW16363   0.362   6.125   2.051 -0.0333 -0.1234  0.1192
 5216SOL    HW116364   0.439   6.152   2.002  0.4787 -0.9737  0.4479
 5216SOL    HW216365   0.356   6.186   2.124 -0.1987  0.5003 -0.4081
 5217SOL     OW16366   5.329   0.225   4.813 -0.5983  0.0776 -0.8389
 5217SOL    HW116367   5.258   0.283   4.838  1.3136  1.7093  1.0907
 5217SOL    HW216368   5.307   0.141   4.853 -1.3251  0.6521 -0.0149
 5218SOL     OW16369   0.040   1.903   6.210  0.1262  0.1852 -0.7361
 5218SOL    HW116370  -0.001   1.932   6.128 -1.3264 -0.0646 -0.1072
 5218SOL    HW216371  -0.012   1.943   6.279 -1.0533 -2.6909  0.1401
 5219SOL     OW16372   6.318   1.922   2.111  0.3131  0.2698  0.3696
 5219SOL    HW116373   6.382   1.864   2.152  0.3044  1.1507  1.6444
 5219SOL    HW216374   6.370   1.996   2.079 -0.0359  0.9161  1.2771
 5220SOL     OW16375   2.169   6.530   5.327  0.2167 -0.3788  0.2052
 5220SOL    HW116376   2.150   6.553   5.236  1.6540 -0.0511 -0.0195
 5220SOL    HW216377   2.082   6.522   5.368 -0.4022  1.3249 -0.7286
 5221SOL     OW16378   5.456   0.794   2.120 -0.5203  0.1390  0.1410
 5221SOL    HW116379   5.463   0.870   2.063 -1.4511  0.9779  1.1035
 5221SOL    HW216380   5.525   0.806   2.185  0.1856 -0.5278 -0.4857
 5222SOL     OW16381   5.434   5.299   6.299 -0.6782  0.3058 -0.1139
 5222SOL    HW116382   5.386   5.219   6.319  0.9408 -0.4800  0.7116
 5222SOL    HW216383   5.462   5.332   6.385  1.9805 -0.3360 -0.7174
 5223SOL     OW16384   5.127   4.091   2.151 -0.1324  0.0759 -0.4172
 5223SOL    HW116385   5.037   4.059   2.159 -0.1032  0.4245  1.7093
 5223SOL    HW216386   5.118   4.186   2.140 -0.0388  0.1365 -0.0041
 5224SOL     OW16387   6.748   4.758   4.517  1.0583 -0.3779 -0.2487
 5224SOL    HW116388   6.830   4.783   4.473  1.5308 -1.0857  0.2270
 5224SOL    HW216389   6.775   4.732   4.605  0.2882 -0.3687 -0.0066
 5225SOL     OW16390   6.658   5.335   3.023  0.8799 -0.4650 -0.0660
 5225SOL    HW116391   6.637   5.364   3.112  1.0153  2.0463 -0.8242
 5225SOL    HW216392   6.579   5.350   2.973  2.3160  2.8292 -1.4511
 5226SOL     OW16393   6.589   3.201   1.206  0.3054 -0.1210 -0.3021
 5226SOL    HW116394   6.662   3.258   1.181  0.8265 -1.0408 -0.9198
 5226SOL    HW216395   6.591   3.202   1.302  0.2779  0.9339 -0.3104
 5227SOL     OW16396   3.324   3.394   5.118  0.4238  0.5792 -0.2765
 5227SOL    HW116397   3.297   3.339   5.044 -0.1579 -0.2263  0.5159
 5227SOL    HW216398   3.385   3.457   5.080  0.4556 -0.0851 -1.3669
 5228SOL     OW16399   4.464   6.139   3.132  0.0002 -0.1237 -0.0938
 5228SOL    HW116400   4.558   6.155   3.121 -0.0651 -0.7586 -1.6681
 5228SOL    HW216401   4.421   6.219   3.103  0.0276 -0.1309 -0.1556
 5229SOL     OW16402   6.667   0.812   5.513 -0.1213  0.2737  0.1571
 5229SOL    HW116403   6.584   0.814   5.465 -0.1516  1.7113  0.2569
 5229SOL    HW216404   6.729   0.859   5.457 -0.1187  1.8425  1.4385
 5230SOL     OW16405   1.010   2.494   0.639 -0.1823 -0.1456  0.4566
 5230SOL    HW116406   1.105   2.481   0.644 -0.2067 -0.3081  0.4761
 5230SOL    HW216407   0.998   2.586   0.663  0.0960  0.2467 -0.8643
 5231SOL     OW16408   3.611   2.744   1.867  0.1215  1.0797  0.3851
 5231SOL    HW116409   3.599   2.710   1.956  1.1541  0.7987  0.4115
 5231SOL    HW216410   3.628   2.837   1.880  3.8085  0.4258  0.7283
 5232SOL     OW16411   2.253   3.047   4.439 -0.1530 -0.4016 -0.1305
 5232SOL    HW116412   2.229   3.122   4.385 -1.6558 -0.6706  0.1317
 5232SOL    HW216413   2.347   3.037   4.426  0.2273  2.0016  0.4351
 5233SOL     OW16414   2.712   2.711   3.515  0.4246  0.0814 -0.5231
 5233SOL    HW116415   2.670   2.671   3.592  1.0172  0.7478  0.1614
 5233SOL    HW216416   2.758   2.787   3.551  1.5165 -0.1681 -1.3970
 5234SOL     OW16417   0.918   1.334   5.651 -0.4499 -0.2127 -0.4165
 5234SOL    HW116418   0.885   1.422   5.634 -0.7175  0.0839  1.5647
 5234SOL    HW216419   0.860   1.276   5.602 -2.1127  0.4983  0.7107
 5235SOL     OW16420   4.877   0.348   6.267  0.0158 -0.1325  0.0010
 5235SOL    HW116421   4.917   0.417   6.319  1.4380 -1.4465  0.7003
 5235SOL    HW216422   4.925   0.349   6.184  0.5509 -0.7481  0.2926
 5236SOL     OW16423   3.236   6.515   6.766 -0.0745  0.2647 -0.0302
 5236SOL    HW116424   3.269   6.521   6.856  0.3825  2.0703 -0.2853
 5236SOL    HW216425   3.141   6.510   6.775  0.0950 -2.3728  0.6285
 5237SOL     OW16426   6.451   3.360   4.712 -0.6694 -0.3256  0.0965
 5237SOL    HW116427   6.427   3.275   4.748 -0.1546  0.3234  2.0282
 5237SOL    HW216428   6.545   3.354   4.694 -0.6541 -0.1978  0.1329
 5238SOL     OW16429   5.381   3.507   1.801 -0.4516 -0.6104 -0.4118
 5238SOL    HW116430   5.371   3.527   1.894  0.6111  1.1973 -0.6436
 5238SOL    HW216431   5.298   3.534   1.762 -0.5159 -0.3829 -0.1259
 5239SOL     OW16432   2.441   2.572   3.207  0.0171  0.1385 -0.2974
 5239SOL    HW116433   2.350   2.550   3.227 -0.6661  1.9948 -1.1271
 5239SOL    HW216434   2.483   2.489   3.187 -1.4675 -0.7544  0.2420
 5240SOL     OW16435   1.917   1.412   5.300  0.2299 -0.1309  0.0046
 5240SOL    HW116436   1.894   1.477   5.366  1.0071 -0.3614  0.5066
 5240SOL    HW216437   1.922   1.330   5.349 -1.8525 -0.7693 -0.8240
 5241SOL     OW16438   1.863   4.939   6.679 -0.0566  0.4880  0.2231
 5241SOL    HW116439   1.867   4.943   6.775  0.2073 -0.8452  0.2846
 5241SOL    HW216440   1.945   4.976   6.649  0.1944  0.1916  0.5421
 5242SOL     OW16441   1.099   1.342   3.185  0.5917 -0.2214 -0.5464
 5242SOL    HW116442   1.064   1.279   3.122  1.3789  0.3445 -1.5548
 5242SOL    HW216443   1.183   1.304   3.213  0.5705 -0.1272 -0.3490
 5243SOL     OW16444   2.238   0.525   2.049 -0.1321  0.4176  0.3219
 5243SOL    HW116445   2.312   0.484   2.005 -0.5466  0.7177 -0.6890
 5243SOL    HW216446   2.186   0.453   2.082 -0.7088  0.1223 -1.1939
 5244SOL     OW16447   4.114   0.635   2.178 -0.4719 -0.2340 -0.0001
 5244SOL    HW116448   4.204   0.610   2.162 -0.8443 -2.0234  0.5542
 5244SOL    HW216449   4.090   0.690   2.103  1.7605  2.1913  0.9911
 5245SOL     OW16450   6.293   3.889   6.555 -0.0130  0.1532 -0.2700
 5245SOL    HW116451   6.331   3.945   6.487 -0.5162 -0.2413 -0.8865
 5245SOL    HW216452   6.367   3.864   6.610  0.5758 -0.3743 -1.2885
 5246SOL     OW16453   5.214   5.681   0.341 -0.0951  0.1597 -0.5406
 5246SOL    HW116454   5.124   5.649   0.339  0.4416 -1.4116 -0.4771
 5246SOL    HW216455   5.266   5.609   0.304  1.0329  1.4075 -1.4701
 5247SOL     OW16456   6.415   4.660   3.574 -0.0626 -0.0811 -0.2128
 5247SOL    HW116457   6.424   4.744   3.528 -0.7266 -0.2641 -0.6917
 5247SOL    HW216458   6.436   4.594   3.507  2.6721 -0.2495  0.7399
 5248SOL     OW16459   2.751   1.622   6.181  0.1759  0.0608 -0.1315
 5248SOL    HW116460   2.724   1.632   6.272 -0.3272 -1.6189 -0.0631
 5248SOL    HW216461   2.744   1.527   6.165  1.4232  0.1880 -1.5464
 5249SOL     OW16462   1.309   2.484   0.610  0.1905 -0.5584  0.0347
 5249SOL    HW116463   1.297   2.565   0.559  2.0068 -1.4818 -1.9110
 5249SOL    HW216464   1.357   2.512   0.687  0.5991  0.2800 -0.5125
 5250SOL     OW16465   2.719   4.776   6.191  0.0440  0.4300 -0.2563
 5250SOL    HW116466   2.706   4.863   6.154  0.8269  0.1578 -1.2085
 5250SOL    HW216467   2.674   4.778   6.275  0.2038  1.8056 -0.1941
 5251SOL     OW16468   5.888   0.231   2.512 -0.7690 -0.1888 -0.1436
 5251SOL    HW116469   5.803   0.245   2.554 -0.8202  0.1766 -0.3617
 5251SOL    HW216470   5.912   0.318   2.477 -1.3798 -0.7710 -2.0783
 5252SOL     OW16471   5.589   1.198   6.614  0.1180 -0.7109 -0.0367
 5252SOL    HW116472   5.505   1.232   6.644 -0.2472 -1.6093 -0.0015
 5252SOL    HW216473   5.634   1.172   6.694  1.3163  1.7080  0.1089
 5253SOL     OW16474   2.340   5.164   4.095 -0.3529  0.0603 -0.2921
 5253SOL    HW116475   2.276   5.161   4.166 -0.1686  0.7005 -0.0902
 5253SOL    HW216476   2.374   5.075   4.089  0.5853  0.2885  1.2999
 5254SOL     OW16477   4.295   1.557   6.384 -0.1482 -0.0199 -0.3697
 5254SOL    HW116478   4.206   1.550   6.351 -0.6378  0.1912  0.8622
 5254SOL    HW216479   4.325   1.644   6.357 -0.7931  0.4245  0.3327
 5255SOL     OW16480   3.584   4.548   4.061 -0.3751  0.1286 -0.3685
 5255SOL    HW116481   3.510   4.512   4.109 -0.6591  0.6772 -0.3871
 5255SOL    HW216482   3.587   4.640   4.086  0.8216 -0.0742  0.2742
 5256SOL     OW16483   6.636   4.699   4.979 -0.4078 -0.3608  0.3051
 5256SOL    HW116484   6.560   4.719   4.924 -1.2134  1.3142  1.9619
 5256SOL    HW216485   6.614   4.737   5.064  2.3554  0.2836  0.7679
 5257SOL     OW16486   4.602   3.322   0.573  0.0750 -0.1270  0.0085
 5257SOL    HW116487   4.508   3.336   0.558 -0.5726 -2.2621  1.8285
 5257SOL    HW216488   4.632   3.280   0.492 -0.6567  0.0060 -0.3441
 5258SOL     OW16489   0.570   3.714   0.422 -0.2561  0.1893  0.2819
 5258SOL    HW116490   0.626   3.756   0.357 -0.6669 -2.3136 -1.7917
 5258SOL    HW216491   0.506   3.665   0.370 -2.0799 -0.0033  2.5983
 5259SOL     OW16492   3.088   0.064   0.834 -0.0515 -0.4466 -0.1893
 5259SOL    HW116493   3.175   0.050   0.871 -0.1201  0.3959  0.3101
 5259SOL    HW216494   3.102   0.066   0.739  0.0582 -3.1316 -0.2655
 5260SOL     OW16495   6.166   1.737   4.213 -0.6058  0.2914  0.5353
 5260SOL    HW116496   6.249   1.776   4.188 -1.1078  1.9513  1.4086
 5260SOL    HW216497   6.190   1.668   4.275  0.1366  0.5600  0.5534
 5261SOL     OW16498   0.151   5.767   1.570  0.3755  0.4725  0.1031
 5261SOL    HW116499   0.159   5.838   1.633 -0.3126  1.3270 -0.7516
 5261SOL    HW216500   0.180   5.805   1.487 -2.0411  0.4144 -0.7955
 5262SOL     OW16501   4.237   2.213   5.329 -0.7201  0.2908  0.3725
 5262SOL    HW116502   4.142   2.221   5.323 -0.8031  0.3162  1.6108
 5262SOL    HW216503   4.266   2.203   5.238 -2.0358 -1.3006  0.1020
 5263SOL     OW16504   3.066   2.000   3.105  0.0639 -0.4690 -0.3736
 5263SOL    HW116505   3.069   2.044   3.190 -1.6988 -0.4945 -0.2723
 5263SOL    HW216506   3.020   2.062   3.048  0.5311 -0.7815 -1.0901
 5264SOL     OW16507   5.755   2.008   1.129 -0.1909  0.4492 -0.1591
 5264SOL    HW116508   5.745   2.071   1.200  1.0337  1.3703 -0.7850
 5264SOL    HW216509   5.694   2.037   1.061  0.6295  1.1848 -0.5920
 5265SOL     OW16510   2.063   4.701   4.208 -0.4023  0.0766 -0.3421
 5265SOL    HW116511   2.025   4.781   4.244 -0.1412 -0.0083  0.1292
 5265SOL    HW216512   2.067   4.716   4.113 -0.7671  0.4404 -0.2966
 5266SOL     OW16513   5.058   6.420   1.758  0.2309  0.2569 -0.4487
 5266SOL    HW116514   4.973   6.446   1.793 -0.8261 -1.1123 -1.9148
 5266SOL    HW216515   5.052   6.325   1.749  2.9022 -0.2151  1.9475
 5267SOL     OW16516   5.607   4.365   0.872  0.1774 -0.4777 -0.1193
 5267SOL    HW116517   5.597   4.446   0.922  1.6019  0.1230 -0.7660
 5267SOL    HW216518   5.518   4.338   0.851 -0.3209  0.7534  0.3710
 5268SOL     OW16519   4.272   0.595   1.361  0.7336  0.1585  0.1190
 5268SOL    HW116520   4.261   0.635   1.274  0.8115 -1.4901 -0.6699
 5268SOL    HW216521   4.367   0.591   1.373  0.7670 -1.5499 -0.6490
 5269SOL     OW16522   3.906   1.099   0.339 -0.2523  0.4983 -0.5044
 5269SOL    HW116523   3.830   1.125   0.391 -0.0370 -0.9859  0.5640
 5269SOL    HW216524   3.874   1.027   0.284  0.4565 -0.3224  0.1582
 5270SOL     OW16525   6.485   4.814   0.872 -0.3189  0.0844 -0.7999
 5270SOL    HW116526   6.524   4.729   0.855 -0.1284  0.1195 -0.5370
 5270SOL    HW216527   6.425   4.799   0.945  0.2109  0.3170 -0.3193
 5271SOL     OW16528   6.472   5.511   4.506 -0.5031 -0.0885  0.1895
 5271SOL    HW116529   6.430   5.545   4.427  0.5211  0.1413 -0.2742
 5271SOL    HW216530   6.502   5.589   4.553  1.0662 -0.2804 -0.4356
 5272SOL     OW16531   3.795   3.213   5.117 -0.3612 -0.2009  0.1923
 5272SOL    HW116532   3.771   3.178   5.203 -1.4839  0.1217  0.0164
 5272SOL    HW216533   3.764   3.304   5.118  0.6974  0.1681 -0.1148
 5273SOL     OW16534   4.272   2.103   1.666  0.1989  0.2042 -0.2387
 5273SOL    HW116535   4.225   2.033   1.619 -0.6176  0.8710 -0.4139
 5273SOL    HW216536   4.308   2.059   1.743 -0.7181 -0.3029 -0.0983
 5274SOL     OW16537   2.013   1.691   2.025  0.4109 -0.2651 -0.2695
 5274SOL    HW116538   2.058   1.623   2.075  2.9907  1.9777  0.5640
 5274SOL    HW216539   2.057   1.691   1.940 -0.9351 -0.9704 -0.9827
 5275SOL     OW16540   3.714   3.859   4.344  0.1901 -0.3288  0.0840
 5275SOL    HW116541   3.790   3.809   4.312 -0.5088 -1.7730  0.6627
 5275SOL    HW216542   3.747   3.906   4.420  0.9498  0.3755 -0.6727
 5276SOL     OW16543   3.884   2.496   4.678 -0.3436  0.3761 -0.5494
 5276SOL    HW116544   3.844   2.410   4.668  0.6520 -0.0720 -0.7589
 5276SOL    HW216545   3.926   2.493   4.764  0.8217  0.1679 -1.1139
 5277SOL     OW16546   0.295   1.801   1.463 -0.6611 -0.2421 -1.0303
 5277SOL    HW116547   0.204   1.773   1.466 -0.7291 -0.2290 -2.6347
 5277SOL    HW216548   0.292   1.896   1.465 -0.8029 -0.1793 -3.1993
 5278SOL     OW16549   5.900   3.143   4.268 -0.2592  0.3334  0.1595
 5278SOL    HW116550   5.856   3.165   4.351 -0.5627 -0.0157  0.0932
 5278SOL    HW216551   5.876   3.052   4.252  0.5512  0.1143  0.1563
 5279SOL     OW16552   0.175   3.044   2.879  0.1485 -0.4330 -0.0537
 5279SOL    HW116553   0.165   3.028   2.973  0.7285 -1.2935 -0.1356
 5279SOL    HW216554   0.088   3.028   2.843  0.0974 -0.8084  0.2363
 5280SOL     OW16555   5.856   5.597   1.250  0.4011  0.0429 -0.3031
 5280SOL    HW116556   5.899   5.513   1.234  1.4916  0.3892  0.7979
 5280SOL    HW216557   5.791   5.579   1.317 -0.2986 -0.1964 -1.0305
 5281SOL     OW16558   2.325   6.232   5.607  0.1081  0.2488  0.4345
 5281SOL    HW116559   2.386   6.178   5.558 -0.3985 -1.0213  1.1824
 5281SOL    HW216560   2.378   6.304   5.641  0.8419  0.0588 -0.3121
 5282SOL     OW16561   6.315   4.328   6.670 -0.1226 -0.4233  0.1852
 5282SOL    HW116562   6.220   4.344   6.676 -0.4820 -0.9881 -3.0963
 5282SOL    HW216563   6.329   4.251   6.725 -1.7721 -1.0087 -0.1608
 5283SOL     OW16564   1.339   6.594   5.809  0.3417 -0.2001 -0.0309
 5283SOL    HW116565   1.283   6.645   5.868  1.9638  0.4225  0.9956
 5283SOL    HW216566   1.425   6.635   5.816  1.2381 -1.9509 -0.5877
 5284SOL     OW16567   6.298   0.027   6.065  0.6161  0.4120  0.1334
 5284SOL    HW116568   6.317  -0.060   6.030 -1.2143  0.2620 -0.5560
 5284SOL    HW216569   6.282   0.012   6.158  0.5691  0.0501  0.0691
 5285SOL     OW16570   5.066   6.425   0.369  0.2213 -0.3628  0.6530
 5285SOL    HW116571   5.060   6.346   0.316 -2.0311 -0.9452  1.7382
 5285SOL    HW216572   4.977   6.459   0.374  0.5664  0.3010  3.0925
 5286SOL     OW16573   4.423   5.401   1.448  0.1712  0.1816  0.5072
 5286SOL    HW116574   4.410   5.465   1.378  2.2974  0.4882  0.3582
 5286SOL    HW216575   4.512   5.367   1.433 -0.4272 -1.8445  1.3585
 5287SOL     OW16576   5.555   1.399   2.597 -0.2661  0.4852 -0.0024
 5287SOL    HW116577   5.489   1.330   2.608 -0.6393  0.4760 -2.0725
 5287SOL    HW216578   5.636   1.351   2.580 -0.0705  0.5209  0.8397
 5288SOL     OW16579   5.946   2.855   2.637 -0.3691 -0.1459 -0.0686
 5288SOL    HW116580   5.934   2.949   2.651  1.3819  0.1624 -0.5704
 5288SOL    HW216581   5.943   2.844   2.542  0.0123 -0.5206 -0.0367
 5289SOL     OW16582   4.183   0.324   1.378  0.1833 -0.1819 -0.3307
 5289SOL    HW116583   4.221   0.412   1.372  0.5033 -0.3780 -1.2067
 5289SOL    HW216584   4.251   0.272   1.421  0.4377 -0.2600 -0.8285
 5290SOL     OW16585   3.138   0.400   5.343 -0.0976 -0.3809 -0.2956
 5290SOL    HW116586   3.071   0.416   5.410 -0.1999 -0.0713 -0.4743
 5290SOL    HW216587   3.221   0.419   5.387 -0.1426 -0.4873 -0.1613
 5291SOL     OW16588   2.879   1.604   0.274 -0.5397 -0.0406  0.3645
 5291SOL    HW116589   2.834   1.688   0.264  0.8606  0.6168 -0.5110
 5291SOL    HW216590   2.923   1.611   0.359 -2.2258 -0.7627  1.3156
 5292SOL     OW16591   6.085   1.674   3.418 -0.0007  0.1920 -0.2661
 5292SOL    HW116592   6.099   1.691   3.511 -0.1268  2.2481 -0.5920
 5292SOL    HW216593   5.991   1.654   3.411 -0.3551  1.7198 -0.1552
 5293SOL     OW16594   0.898   0.812   4.630  0.4253 -0.7142 -0.1423
 5293SOL    HW116595   0.979   0.776   4.668  1.1285 -0.0008 -0.9285
 5293SOL    HW216596   0.861   0.739   4.579  0.4709 -1.0999  0.3677
 5294SOL     OW16597   0.881   3.000   6.221  0.5719 -0.1619 -0.6057
 5294SOL    HW116598   0.899   2.976   6.311 -0.3156  0.4413 -0.2627
 5294SOL    HW216599   0.946   2.952   6.170  0.7995 -0.8360  0.3134
 5295SOL     OW16600   4.994   2.125   6.265 -0.4523  0.1018  0.1372
 5295SOL    HW116601   4.923   2.144   6.205  0.0338  1.5796  0.0069
 5295SOL    HW216602   4.968   2.166   6.347 -0.5816 -0.9254  0.6248
 5296SOL     OW16603   3.367   3.089   5.176 -0.3360 -0.4239  0.1914
 5296SOL    HW116604   3.416   3.063   5.098  0.1207 -1.3241  0.7726
 5296SOL    HW216605   3.424   3.152   5.220 -0.3716 -0.3072  0.0726
 5297SOL     OW16606   1.237   6.004   3.257  0.5058  0.0363 -0.3582
 5297SOL    HW116607   1.150   5.967   3.240  0.2582  0.8278 -0.8210
 5297SOL    HW216608   1.297   5.940   3.218  0.0723  0.1484 -1.2428
 5298SOL     OW16609   2.566   6.175   1.960 -0.1170  0.2371  0.2050
 5298SOL    HW116610   2.528   6.128   1.885 -0.3240  1.1304 -0.2545
 5298SOL    HW216611   2.491   6.216   2.003  0.2489  1.5112 -0.3558
 5299SOL     OW16612   1.352   2.230   5.413  0.4759  0.0346  0.0634
 5299SOL    HW116613   1.352   2.198   5.323  1.9060  0.0926  0.0379
 5299SOL    HW216614   1.271   2.194   5.451 -0.0353 -0.1411 -1.1799
 5300SOL     OW16615   0.275   0.802   2.427 -0.9735 -0.2842  0.3177
 5300SOL    HW116616   0.327   0.727   2.398  0.2348  0.3612  0.7685
 5300SOL    HW216617   0.323   0.878   2.395  0.6208  0.4784  4.2235
 5301SOL     OW16618   3.589   6.538   5.497 -0.0586 -0.6060  0.6745
 5301SOL    HW116619   3.564   6.447   5.511  1.9713 -1.0063  1.8608
 5301SOL    HW216620   3.590   6.576   5.585  0.5185  0.1872  0.3322
 5302SOL     OW16621   4.666   2.696   4.274 -0.9065  0.2031 -0.0105
 5302SOL    HW116622   4.674   2.782   4.316 -0.2726 -0.0372  0.3637
 5302SOL    HW216623   4.655   2.635   4.347  0.9948 -0.3154 -0.1326
 5303SOL     OW16624   5.406   4.657   0.548  0.0951 -0.0981 -0.0614
 5303SOL    HW116625   5.421   4.603   0.471 -0.2770  0.6141 -0.6309
 5303SOL    HW216626   5.328   4.620   0.589 -0.2227  0.0720 -0.5129
 5304SOL     OW16627   0.431   2.583   0.859  0.3530  0.7835 -0.2047
 5304SOL    HW116628   0.471   2.669   0.868  0.3369  0.8190 -0.4467
 5304SOL    HW216629   0.379   2.571   0.938 -0.6936  1.5521 -0.7711
 5305SOL     OW16630   5.849   2.720   5.382  0.3505  0.4511  0.2593
 5305SOL    HW116631   5.913   2.669   5.431  0.6638 -0.1836 -0.8064
 5305SOL    HW216632   5.845   2.804   5.429  2.2020  0.6283  0.1458
 5306SOL     OW16633   2.154   6.100   3.552  0.0245  0.5560  0.4727
 5306SOL    HW116634   2.174   6.006   3.555 -0.4675  0.4325  0.0923
 5306SOL    HW216635   2.112   6.118   3.636 -0.4617  0.2880  0.2968
 5307SOL     OW16636   5.704   5.318   2.075  0.2838  0.4450 -0.0074
 5307SOL    HW116637   5.765   5.375   2.122  1.8404 -0.5422 -0.7886
 5307SOL    HW216638   5.711   5.234   2.120 -2.0453  0.8523  1.1792
 5308SOL     OW16639   2.705   6.046   4.804  0.0248 -0.0655  0.2900
 5308SOL    HW116640   2.737   6.039   4.714  1.6817 -0.1001  0.8678
 5308SOL    HW216641   2.610   6.055   4.795  0.2577  0.8523 -1.4966
 5309SOL     OW16642   2.665   4.046   1.938 -0.5967  0.6704 -0.1008
 5309SOL    HW116643   2.648   4.107   2.009  1.0788 -1.4045  2.1608
 5309SOL    HW216644   2.759   4.027   1.944 -0.7166 -0.6679 -1.9434
 5310SOL     OW16645   3.858   5.604   4.110  0.5042  0.2673  0.2127
 5310SOL    HW116646   3.781   5.654   4.140  0.0382 -0.1875 -0.2095
 5310SOL    HW216647   3.844   5.516   4.145  1.2242  0.3779  0.7814
 5311SOL     OW16648   0.748   0.784   0.232 -0.1925 -0.0881  0.5598
 5311SOL    HW116649   0.774   0.778   0.324 -1.4899  2.5296  1.1456
 5311SOL    HW216650   0.656   0.757   0.232 -0.7245  1.6939  0.3437
 5312SOL     OW16651   3.428   3.225   3.515  0.3812  0.0505 -0.0037
 5312SOL    HW116652   3.478   3.167   3.458  0.1089 -2.0137  1.7993
 5312SOL    HW216653   3.396   3.168   3.585 -2.7187  1.7217  0.0228
 5313SOL     OW16654   6.706   6.428   1.330 -0.2535  0.2030  0.4047
 5313SOL    HW116655   6.754   6.347   1.350 -1.2585 -0.7585 -0.9596
 5313SOL    HW216656   6.640   6.401   1.267  0.1456  2.3431 -0.9706
 5314SOL     OW16657   4.305   2.634   2.606 -0.9769  0.1374 -0.6167
 5314SOL    HW116658   4.224   2.617   2.654 -0.2318 -2.3571 -0.1615
 5314SOL    HW216659   4.276   2.661   2.519 -2.3059 -1.2617 -0.6345
 5315SOL     OW16660   0.507   5.626   2.578 -0.2965  0.4121  0.0544
 5315SOL    HW116661   0.563   5.678   2.635  0.3723  1.1574 -1.2681
 5315SOL    HW216662   0.423   5.673   2.578 -0.2473  0.5033  0.2682
 5316SOL     OW16663   3.308   4.795   4.701 -0.0700 -0.3090 -0.1571
 5316SOL    HW116664   3.369   4.798   4.775 -0.9500 -1.3606  0.6282
 5316SOL    HW216665   3.336   4.718   4.651 -0.2129 -0.2915 -0.2612
 5317SOL     OW16666   3.935   4.921   6.330 -0.2479 -0.0268  0.2752
 5317SOL    HW116667   3.922   4.901   6.423  0.8871 -2.7625 -0.1054
 5317SOL    HW216668   3.851   4.900   6.289 -1.0898  2.1814  0.7854
 5318SOL     OW16669   3.352   6.038   2.427  0.0129 -0.1484  0.3523
 5318SOL    HW116670   3.257   6.029   2.413  0.0249  0.1990  0.0054
 5318SOL    HW216671   3.379   6.100   2.359 -0.0375  2.2266  2.4380
 5319SOL     OW16672   2.537   1.972   2.039 -0.2520  0.5548  0.1929
 5319SOL    HW116673   2.551   1.904   2.105  1.0308 -0.4891 -1.1238
 5319SOL    HW216674   2.452   1.950   2.000  0.4577 -0.7070 -0.6844
 5320SOL     OW16675   1.262   2.005   0.717 -0.2189  0.2449  0.3627
 5320SOL    HW116676   1.184   2.004   0.662 -0.5553 -2.2630  0.8267
 5320SOL    HW216677   1.235   2.053   0.796 -0.4404  1.7759 -0.6259
 5321SOL     OW16678   1.239   5.744   1.224 -0.0980  0.0896  0.3725
 5321SOL    HW116679   1.175   5.814   1.237 -2.0450 -1.4982 -0.4616
 5321SOL    HW216680   1.223   5.683   1.295  0.6103 -0.2417  0.2537
 5322SOL     OW16681   2.702   3.846   3.966  0.2386  0.5411  0.1449
 5322SOL    HW116682   2.612   3.822   3.988 -0.0304  0.7570 -0.6742
 5322SOL    HW216683   2.748   3.763   3.959  0.2916  0.4703  1.3523
 5323SOL     OW16684   5.466   4.531   0.303 -0.0971 -0.8710  0.5361
 5323SOL    HW116685   5.547   4.494   0.336  0.3543  0.9922  1.5665
 5323SOL    HW216686   5.493   4.598   0.240 -0.8720 -1.3795 -0.3533
 5324SOL     OW16687   4.842   5.430   3.641  0.5227 -0.0103  0.3625
 5324SOL    HW116688   4.804   5.419   3.728  2.2313  0.7752  1.2395
 5324SOL    HW216689   4.936   5.427   3.656  0.8568  1.4427 -1.2818
 5325SOL     OW16690   4.116   3.299   1.879 -0.3509 -0.4433 -0.1468
 5325SOL    HW116691   4.130   3.393   1.863 -0.6586 -0.5055 -0.8188
 5325SOL    HW216692   4.171   3.279   1.954  1.3837 -0.1841 -1.3093
 5326SOL     OW16693   4.506   0.694   4.472 -0.2458  0.2713  0.0430
 5326SOL    HW116694   4.418   0.723   4.496 -0.1388  1.2855 -0.7780
 5326SOL    HW216695   4.559   0.774   4.471 -0.2179  0.2868 -3.4059
 5327SOL     OW16696   0.056   5.900   1.289  0.5860 -0.5293 -0.0499
 5327SOL    HW116697   0.151   5.904   1.304  0.4078  0.4447  0.8781
 5327SOL    HW216698   0.040   5.963   1.219  0.5238 -0.1310  0.3223
 5328SOL     OW16699   0.510   3.585   4.709 -0.2742  0.5281  0.1618
 5328SOL    HW116700   0.474   3.672   4.726  1.1381  1.3615 -0.9335
 5328SOL    HW216701   0.599   3.602   4.677 -0.1032 -1.3018 -0.4012
 5329SOL     OW16702   3.223   3.980   5.673 -0.3649  0.1938  0.1202
 5329SOL    HW116703   3.208   3.885   5.673 -1.8244  0.4018 -1.6677
 5329SOL    HW216704   3.154   4.015   5.730 -1.5370  0.4013 -1.3941
 5330SOL     OW16705   4.496   4.509   0.334  0.1663  0.1358  0.1347
 5330SOL    HW116706   4.503   4.414   0.330 -0.8149 -0.0404  1.8967
 5330SOL    HW216707   4.403   4.525   0.352  0.3192  1.4373 -0.1799
 5331SOL     OW16708   2.982   5.049   6.503  0.0565 -0.7663 -0.1292
 5331SOL    HW116709   2.887   5.046   6.493  0.0647 -1.1096 -0.1255
 5331SOL    HW216710   3.011   5.109   6.435 -0.1977 -0.3546  0.1250
 5332SOL     OW16711   1.057   4.568   5.593 -0.0023  0.0616  0.1246
 5332SOL    HW116712   1.128   4.528   5.644 -0.4172  0.0610  0.7150
 5332SOL    HW216713   0.984   4.506   5.603 -0.0727  0.0441 -0.5059
 5333SOL     OW16714   2.927   1.113   4.688 -0.3273 -0.2400 -0.4776
 5333SOL    HW116715   3.002   1.172   4.686  0.0219 -0.7008 -2.0297
 5333SOL    HW216716   2.851   1.170   4.701  0.1894  0.3455 -0.0285
 5334SOL     OW16717   3.901   2.848   4.900 -0.5112 -0.0190  0.4277
 5334SOL    HW116718   3.815   2.844   4.941 -1.0150  1.2678 -0.4633
 5334SOL    HW216719   3.952   2.906   4.957 -1.0297  1.2861 -0.4099
 5335SOL     OW16720   5.234   1.026   6.294 -0.5010 -0.2255  0.2211
 5335SOL    HW116721   5.216   1.100   6.351  0.1614 -1.1286  1.6403
 5335SOL    HW216722   5.314   1.050   6.247  1.1620 -1.0742  2.5498
 5336SOL     OW16723   0.907   4.011   4.675 -0.1028  0.0505 -0.2390
 5336SOL    HW116724   0.845   3.984   4.608 -3.0628  3.6536  0.8684
 5336SOL    HW216725   0.975   4.059   4.627 -1.0067  0.6914 -0.8784
 5337SOL     OW16726   2.833   5.891   2.575 -0.3286  0.2563 -0.3933
 5337SOL    HW116727   2.801   5.820   2.519 -0.2188 -1.0226  1.1272
 5337SOL    HW216728   2.755   5.920   2.623  0.0303 -0.3178  0.5605
 5338SOL     OW16729   0.628   5.779   6.436  0.1401  0.3339  0.2165
 5338SOL    HW116730   0.603   5.826   6.515 -0.1046  0.0886  0.2901
 5338SOL    HW216731   0.577   5.820   6.366 -1.0688 -0.6562  0.4873
 5339SOL     OW16732   2.025   3.409   3.061  0.5017 -0.5507 -0.6622
 5339SOL    HW116733   2.035   3.406   3.157 -0.3782  0.2396 -0.5405
 5339SOL    HW216734   2.114   3.424   3.029  0.6549  0.2280  0.0943
 5340SOL     OW16735   4.909   3.879   0.598 -0.6030 -0.1871  0.3354
 5340SOL    HW116736   4.963   3.810   0.560  1.1945  1.1332  0.4179
 5340SOL    HW216737   4.852   3.833   0.660  2.2933 -1.3529  2.2577
 5341SOL     OW16738   3.916   3.856   0.758  0.0038  0.2703 -0.1294
 5341SOL    HW116739   3.859   3.809   0.820  1.9040  0.5906  1.9107
 5341SOL    HW216740   3.879   3.944   0.754 -1.2886 -0.2887 -1.0009
 5342SOL     OW16741   6.424   2.927   4.153  0.5054 -0.0923  0.5827
 5342SOL    HW116742   6.330   2.912   4.161  0.3589  1.3878  2.0054
 5342SOL    HW216743   6.448   2.886   4.070 -1.7812  1.2966 -0.8139
 5343SOL     OW16744   5.868   6.294   4.444  0.2351 -0.0210 -0.0787
 5343SOL    HW116745   5.834   6.331   4.363  2.0563 -1.4028 -1.5193
 5343SOL    HW216746   5.844   6.358   4.511 -1.9255  0.8001 -1.5710
 5344SOL     OW16747   2.527   2.304   5.034 -0.6909  0.3987  0.5860
 5344SOL    HW116748   2.578   2.381   5.059 -0.2654  0.2322  0.2358
 5344SOL    HW216749   2.486   2.329   4.951  0.2822 -0.1237 -0.0619
 5345SOL     OW16750   4.677   3.049   3.036  0.3051 -0.6165  0.0003
 5345SOL    HW116751   4.716   3.050   2.948 -0.0136  0.6357 -0.1449
 5345SOL    HW216752   4.750   3.069   3.095  0.3222 -0.4679 -0.0708
 5346SOL     OW16753   5.172   1.720   3.873 -0.2697  0.0897  0.1095
 5346SOL    HW116754   5.173   1.642   3.928 -0.6117  0.2999  0.4189
 5346SOL    HW216755   5.135   1.788   3.929  0.9065  0.6976  0.1387
 5347SOL     OW16756   2.229   1.363   6.637  0.0194 -0.6783 -0.2269
 5347SOL    HW116757   2.181   1.289   6.675  0.0247 -0.3239  0.4818
 5347SOL    HW216758   2.161   1.419   6.599 -0.1145 -0.3428  0.4869
 5348SOL     OW16759   6.103   6.448   1.425  0.1500 -0.2480  0.6635
 5348SOL    HW116760   6.197   6.451   1.441  0.0542 -2.3943  1.7543
 5348SOL    HW216761   6.069   6.526   1.469  1.4923  0.9210 -0.3460
 5349SOL     OW16762   6.232   5.246   1.977 -0.1837  0.7076 -0.2364
 5349SOL    HW116763   6.235   5.279   1.887  1.0995  0.5673 -0.2542
 5349SOL    HW216764   6.316   5.200   1.989 -0.2028  0.9926  1.1289
 5350SOL     OW16765   0.383   1.704   6.622 -0.2070  0.1032  0.4143
 5350SOL    HW116766   0.448   1.649   6.667  0.0049 -0.6383 -0.7816
 5350SOL    HW216767   0.329   1.739   6.692 -2.5177 -4.3707  1.0580
 5351SOL     OW16768   6.765   2.356   5.436 -0.2437 -0.3835 -0.1315
 5351SOL    HW116769   6.820   2.277   5.439  0.2256 -0.1313 -1.5861
 5351SOL    HW216770   6.715   2.346   5.355 -1.2926  0.0908  0.4536
 5352SOL     OW16771   4.622   5.819   0.748  0.1479  0.0679  0.3580
 5352SOL    HW116772   4.565   5.773   0.810  1.6466 -0.9335  1.0515
 5352SOL    HW216773   4.588   5.908   0.745 -1.9477 -0.7285  0.0988
 5353SOL     OW16774   4.155   4.876   2.705 -0.2684 -0.5120 -0.2312
 5353SOL    HW116775   4.250   4.885   2.717 -0.2979 -0.7747  0.2194
 5353SOL    HW216776   4.119   4.894   2.792 -0.6276 -0.4954 -0.3853
 5354SOL     OW16777   4.573   1.467   6.565 -0.2890  0.1110 -0.0130
 5354SOL    HW116778   4.591   1.423   6.482  0.1978  0.2218  0.0256
 5354SOL    HW216779   4.648   1.527   6.576  0.7521 -1.4440  1.5568
 5355SOL     OW16780   6.353   0.673   2.606 -1.2762 -0.4979 -0.0473
 5355SOL    HW116781   6.319   0.652   2.693  2.0659  1.0326  1.7084
 5355SOL    HW216782   6.425   0.611   2.593 -0.6956  0.3598 -0.9899
 5356SOL     OW16783   0.059   5.586   5.475 -0.2186  0.1569 -0.1928
 5356SOL    HW116784   0.033   5.619   5.389  0.1786  0.1362 -0.3211
 5356SOL    HW216785   0.150   5.614   5.485  0.2135 -1.1247 -0.4120
 5357SOL     OW16786   3.638   2.629   5.884 -0.2451  0.3931 -0.0999
 5357SOL    HW116787   3.642   2.686   5.961  1.6606  0.0160  0.0956
 5357SOL    HW216788   3.636   2.689   5.810 -0.6616  0.7440  0.1920
 5358SOL     OW16789   4.689   0.396   2.633  0.4326  0.5068 -0.3356
 5358SOL    HW116790   4.764   0.378   2.575  1.7974  2.2209  0.8689
 5358SOL    HW216791   4.690   0.324   2.696  0.3632 -0.0848 -0.9991
 5359SOL     OW16792   1.007   3.569   4.830 -0.1108  0.3951  0.1889
 5359SOL    HW116793   1.070   3.512   4.874 -1.0738  0.4418  1.6651
 5359SOL    HW216794   1.017   3.550   4.737  3.1295  1.4489  0.2561
 5360SOL     OW16795   2.562   5.432   0.067  0.0760 -0.3607 -0.2996
 5360SOL    HW116796   2.650   5.466   0.058  0.2693 -0.1757  1.9085
 5360SOL    HW216797   2.505   5.508   0.055  0.3804  0.1979  1.5983
 5361SOL     OW16798   6.681   3.161   1.468 -0.2856 -0.1513 -0.0264
 5361SOL    HW116799   6.615   3.110   1.515  0.9676 -1.0401  0.8006
 5361SOL    HW216800   6.742   3.190   1.536 -0.9358  2.4029 -0.4949
 5362SOL     OW16801   1.041   4.895   0.731  0.3459 -0.0130 -0.0182
 5362SOL    HW116802   1.032   4.800   0.727  2.9106 -0.2829 -0.5788
 5362SOL    HW216803   0.992   4.926   0.654  0.2724 -0.9517 -0.3653
 5363SOL     OW16804   1.250   4.558   2.624  0.0375  0.4245  0.0750
 5363SOL    HW116805   1.251   4.637   2.679  0.3941 -0.0214  0.7259
 5363SOL    HW216806   1.263   4.487   2.686 -1.7649 -0.2667 -0.3244
 5364SOL     OW16807   4.675   5.112   6.345  0.0515  0.3209  0.5604
 5364SOL    HW116808   4.620   5.049   6.391 -2.2196  0.7586 -1.4788
 5364SOL    HW216809   4.647   5.197   6.378 -0.8578  0.5712 -0.8153
 5365SOL     OW16810   4.102   3.860   5.334 -0.8383 -0.8169  0.2472
 5365SOL    HW116811   4.033   3.913   5.374 -0.3902  0.6559 -0.9240
 5365SOL    HW216812   4.172   3.922   5.315 -0.1590 -1.8953 -0.7941
 5366SOL     OW16813   6.301   4.988   2.421  0.5687 -0.4574 -0.0266
 5366SOL    HW116814   6.280   4.976   2.328  2.0634 -1.3423 -0.2824
 5366SOL    HW216815   6.349   5.070   2.424  0.2422 -0.2690  0.0072
 5367SOL     OW16816   0.218   2.318   2.755 -0.4132 -0.1202 -0.8325
 5367SOL    HW116817   0.148   2.365   2.802 -0.7167  0.3315 -1.7179
 5367SOL    HW216818   0.194   2.328   2.663  0.5411 -0.4278 -1.1089
 5368SOL     OW16819   5.158   2.786   3.956 -0.0674  0.1271  0.0325
 5368SOL    HW116820   5.236   2.840   3.969 -0.3000  0.2746  0.8689
 5368SOL    HW216821   5.176   2.705   4.004 -0.2353 -0.0316 -0.1689
 5369SOL     OW16822   1.618   4.048   6.201  0.2386 -0.4323 -0.1566
 5369SOL    HW116823   1.707   4.021   6.180  0.8474  1.6650 -0.3776
 5369SOL    HW216824   1.625   4.090   6.287 -0.6129 -0.6587  0.0333
 5370SOL     OW16825   2.802   0.347   1.289 -0.6321 -0.3011  0.2563
 5370SOL    HW116826   2.739   0.376   1.355 -0.3620  1.3211 -0.1884
 5370SOL    HW216827   2.884   0.334   1.338 -0.9170 -0.9563  0.5659
 5371SOL     OW16828   2.479   4.727   2.008 -0.1440  0.4298 -0.3142
 5371SOL    HW116829   2.482   4.641   2.051 -0.5102  0.0923 -0.9672
 5371SOL    HW216830   2.518   4.713   1.922 -2.4823  0.3511 -1.3936
 5372SOL     OW16831   1.537   6.141   1.800  0.2038 -0.2566 -0.2695
 5372SOL    HW116832   1.480   6.063   1.796  0.7491 -0.7025  0.5965
 5372SOL    HW216833   1.624   6.106   1.818  0.2710  0.6400  1.1622
 5373SOL     OW16834   2.574   1.031   5.969  0.2150 -0.3474 -0.7236
 5373SOL    HW116835   2.640   1.003   6.032  2.1824  1.2295 -2.0302
 5373SOL    HW216836   2.544   0.950   5.928 -0.5215 -1.3079  1.6550
 5374SOL     OW16837   1.422   2.609   4.518  0.3484  0.4205  0.2064
 5374SOL    HW116838   1.358   2.562   4.572  0.7835 -0.8358 -0.3523
 5374SOL    HW216839   1.423   2.698   4.554  0.6022 -0.3827  2.2284
 5375SOL     OW16840   5.250   5.429   0.177 -0.4139 -0.3238  0.4669
 5375SOL    HW116841   5.218   5.381   0.253 -0.4353 -1.3879 -0.2028
 5375SOL    HW216842   5.324   5.378   0.145 -0.7613 -0.2008 -0.5670
 5376SOL     OW16843   1.423   0.576   5.980  0.4431  0.4746  0.0080
 5376SOL    HW116844   1.341   0.539   5.947  0.7214 -0.5857  0.4697
 5376SOL    HW216845   1.429   0.545   6.071  1.4905  0.2992 -0.1074
 5377SOL     OW16846   5.852   2.286   0.216 -0.4603  0.5845 -0.2163
 5377SOL    HW116847   5.824   2.195   0.228 -1.8062  0.9267 -0.7711
 5377SOL    HW216848   5.827   2.307   0.127  1.8571  0.8077 -0.8333
 5378SOL     OW16849   5.694   0.165   5.474  0.6652  0.4090 -0.2985
 5378SOL    HW116850   5.749   0.174   5.552  0.9202  1.9077 -0.6394
 5378SOL    HW216851   5.618   0.222   5.492  0.8050  0.8851 -1.2074
 5379SOL     OW16852   5.294   1.266   1.234 -0.1350 -0.4233  0.2062
 5379SOL    HW116853   5.278   1.340   1.293  1.0313  1.4140 -1.6902
 5379SOL    HW216854   5.375   1.227   1.267  0.5536  0.6388 -0.1760
 5380SOL     OW16855   2.890   4.118   4.613 -0.3564  0.4112 -0.6830
 5380SOL    HW116856   2.872   4.207   4.582  1.0476  0.6808 -0.7682
 5380SOL    HW216857   2.929   4.130   4.700 -2.0885 -0.2267  0.1939
 5381SOL     OW16858   2.447   6.421   3.049 -0.0474  0.2435  0.5198
 5381SOL    HW116859   2.518   6.449   3.107  0.7432 -0.0230 -0.3140
 5381SOL    HW216860   2.427   6.333   3.078  1.5890 -0.5864 -0.7529
 5382SOL     OW16861   1.595   4.920   2.861 -0.4259  0.2412  0.0079
 5382SOL    HW116862   1.588   5.012   2.835  0.7199  0.0622 -1.0011
 5382SOL    HW216863   1.538   4.912   2.937  0.1738  2.0112  0.6782
 5383SOL     OW16864   0.265   0.289   3.307 -0.5510 -0.1334  0.2726
 5383SOL    HW116865   0.303   0.254   3.387 -2.7128 -1.6992  0.6528
 5383SOL    HW216866   0.322   0.257   3.237  1.0148  0.7624  1.1008
 5384SOL     OW16867   2.798   6.382   2.957 -0.0386 -0.2820 -0.1458
 5384SOL    HW116868   2.767   6.432   3.032 -1.9644  1.0317 -1.7800
 5384SOL    HW216869   2.823   6.448   2.892  0.3735 -1.4065 -1.1523
 5385SOL     OW16870   0.716   1.600   6.112 -0.1654 -0.5320 -0.7097
 5385SOL    HW116871   0.691   1.601   6.019  0.0473 -0.9535 -0.7726
 5385SOL    HW216872   0.637   1.570   6.157  0.1493 -1.6447 -0.8887
 5386SOL     OW16873   4.985   3.103   5.065  0.2526  0.3011  0.5510
 5386SOL    HW116874   5.051   3.110   5.135  0.0860  0.3303  0.7045
 5386SOL    HW216875   4.936   3.185   5.071 -0.8495 -0.4243  1.4945
 5387SOL     OW16876   0.988   6.743   1.421 -0.0315 -0.4386  0.4505
 5387SOL    HW116877   1.069   6.735   1.371 -0.8578 -2.6017 -0.5937
 5387SOL    HW216878   0.940   6.813   1.377 -0.2969 -1.6132 -1.1825
 5388SOL     OW16879   5.381   3.461   3.600 -0.2161 -0.1896  0.0148
 5388SOL    HW116880   5.406   3.378   3.640 -2.5055 -0.9535 -0.0191
 5388SOL    HW216881   5.405   3.528   3.664 -0.4896 -1.0888  1.0649
 5389SOL     OW16882   5.642   2.898   0.340  0.3056 -0.2291 -0.2266
 5389SOL    HW116883   5.716   2.868   0.394  1.5932  1.4024 -1.0447
 5389SOL    HW216884   5.629   2.989   0.366 -0.4891 -0.0858 -1.1258
 5390SOL     OW16885   1.012   0.153   0.345 -0.0534 -0.3988  0.0680
 5390SOL    HW116886   1.105   0.155   0.371  0.6568 -2.1606 -2.1801
 5390SOL    HW216887   0.971   0.095   0.408  0.5671 -0.3591  0.5181
 5391SOL     OW16888   5.992   5.331   3.636 -0.2337 -0.2107 -0.1737
 5391SOL    HW116889   5.925   5.324   3.568 -1.6738  0.4179  1.1518
 5391SOL    HW216890   6.001   5.425   3.652  1.4913 -0.2374 -0.8273
 5392SOL     OW16891   3.461   1.372   1.780 -0.1397  0.2544  0.2106
 5392SOL    HW116892   3.428   1.327   1.702  2.6173  0.1555 -0.9600
 5392SOL    HW216893   3.382   1.398   1.828 -1.8502 -1.8977 -1.3245
 5393SOL     OW16894   6.703   5.336   2.090  0.1154 -0.3974 -0.1737
 5393SOL    HW116895   6.613   5.355   2.117  0.3460  1.1769 -0.4894
 5393SOL    HW216896   6.733   5.272   2.155 -0.9685 -0.3502  0.4041
 5394SOL     OW16897   5.016   5.190   5.813  0.6941 -0.3600 -0.2251
 5394SOL    HW116898   5.016   5.211   5.720 -3.1728 -0.8257 -0.3929
 5394SOL    HW216899   4.986   5.099   5.818 -1.1268  0.2959  1.5304
 5395SOL     OW16900   6.225   4.651   6.499  0.1676 -0.3546 -0.8729
 5395SOL    HW116901   6.253   4.569   6.540 -0.2752 -1.1916 -2.2388
 5395SOL    HW216902   6.206   4.709   6.573  1.8723 -0.9963  0.0911
 5396SOL     OW16903   0.297   1.513   3.442 -0.0353 -0.2059 -0.6521
 5396SOL    HW116904   0.293   1.417   3.436 -0.3168 -0.0872 -2.6630
 5396SOL    HW216905   0.339   1.530   3.526 -1.1606 -2.0822  0.3169
 5397SOL     OW16906   5.255   0.268   0.600  0.1238  0.4675  0.8789
 5397SOL    HW116907   5.211   0.238   0.521 -2.0826 -0.8914  2.5532
 5397SOL    HW216908   5.347   0.248   0.585 -0.2697  0.1939 -1.3190
 5398SOL     OW16909   0.033   0.432   2.447  0.9015 -0.0794 -0.1871
 5398SOL    HW116910   0.011   0.370   2.517 -0.2196 -0.2054 -0.6347
 5398SOL    HW216911  -0.017   0.511   2.469  1.4186  0.2712 -0.2515
 5399SOL     OW16912   4.191   2.356   3.265 -0.7147 -0.0258 -0.1249
 5399SOL    HW116913   4.272   2.405   3.278 -0.1630 -1.4775  2.0797
 5399SOL    HW216914   4.122   2.419   3.284 -0.0206  0.1621  1.9289
 5400SOL     OW16915   3.587   3.939   0.995  0.2021 -0.3367  0.5361
 5400SOL    HW116916   3.496   3.920   0.973  0.2060  0.6182 -0.3284
 5400SOL    HW216917   3.588   3.944   1.091 -0.5297 -0.9643  0.5785
 5401SOL     OW16918   0.212   5.472   6.706 -0.0640 -0.5413  0.3621
 5401SOL    HW116919   0.161   5.461   6.786 -0.8568  0.5538  0.0195
 5401SOL    HW216920   0.304   5.468   6.735 -0.3356  0.7068  1.4545
 5402SOL     OW16921   5.386   2.411   3.966  0.2657  0.3010 -0.3117
 5402SOL    HW116922   5.476   2.435   3.944 -0.3091  2.1577 -0.7872
 5402SOL    HW216923   5.353   2.486   4.015 -1.3389  0.0818 -1.0378
 5403SOL     OW16924   3.363   1.055   3.402  0.8013  0.1118  0.3320
 5403SOL    HW116925   3.282   1.009   3.424  1.4427 -2.1171 -1.7641
 5403SOL    HW216926   3.398   1.083   3.487 -1.4517 -0.0817  1.3616
 5404SOL     OW16927   2.661   6.084   4.215 -0.2811  0.5276  0.3028
 5404SOL    HW116928   2.711   6.015   4.259 -1.2006 -0.1248  0.3386
 5404SOL    HW216929   2.727   6.137   4.171  0.5256  0.2583  1.1685
 5405SOL     OW16930   1.543   6.534   0.444 -0.6249 -0.0823 -0.1613
 5405SOL    HW116931   1.638   6.548   0.435 -0.3672 -1.4574  0.3131
 5405SOL    HW216932   1.522   6.571   0.529 -0.9293  2.2261 -1.2044
 5406SOL     OW16933   3.452   6.414   5.891 -0.0006 -0.3575 -0.1757
 5406SOL    HW116934   3.358   6.430   5.880  0.2196  0.2875 -1.2519
 5406SOL    HW216935   3.462   6.387   5.982 -0.8428  2.4265  0.7772
 5407SOL     OW16936   1.562   1.449   6.526  0.2437 -0.0929 -0.3056
 5407SOL    HW116937   1.581   1.520   6.465  0.5028 -0.0056 -0.1268
 5407SOL    HW216938   1.636   1.389   6.516  0.1536 -0.2089 -0.2706
 5408SOL     OW16939   2.515   2.821   3.856 -0.3800  0.0145  0.3622
 5408SOL    HW116940   2.610   2.807   3.861 -0.1533  1.8952  1.9681
 5408SOL    HW216941   2.477   2.736   3.873  1.0140 -0.8267 -0.5554
 5409SOL     OW16942   2.895   2.800   4.436 -0.0330 -0.3941  0.2484
 5409SOL    HW116943   2.906   2.714   4.396  0.2814 -0.3126  0.1638
 5409SOL    HW216944   2.951   2.858   4.385 -0.4726 -0.0807  0.1138
 5410SOL     OW16945   4.236   2.952   0.363 -0.3592 -0.0633  0.7139
 5410SOL    HW116946   4.185   2.968   0.284 -2.1768  1.2962  2.1187
 5410SOL    HW216947   4.188   2.884   0.410  0.3156 -0.3536  0.9862
 5411SOL     OW16948   3.985   6.279   2.043  0.1352 -0.6463  0.4830
 5411SOL    HW116949   3.905   6.328   2.062  0.9425  0.9374 -0.1429
 5411SOL    HW216950   4.032   6.276   2.127  0.2782  0.0115  0.4266
 5412SOL     OW16951   4.531   5.410   5.614 -0.3272  0.1736  0.0376
 5412SOL    HW116952   4.624   5.419   5.594 -0.5023 -0.4450 -1.0975
 5412SOL    HW216953   4.488   5.475   5.559 -0.5635  0.6132  0.7243
 5413SOL     OW16954   5.923   5.070   0.378  0.3213 -0.2912  0.3733
 5413SOL    HW116955   5.828   5.063   0.369  0.6096 -1.4783 -2.2149
 5413SOL    HW216956   5.938   5.161   0.404 -1.4759  0.1026  0.1212
 5414SOL     OW16957   3.520   3.962   4.187  0.6638  0.4528 -0.2620
 5414SOL    HW116958   3.580   3.909   4.239  1.0802  0.9522 -0.2189
 5414SOL    HW216959   3.436   3.918   4.194  0.9132  0.0333  0.1123
 5415SOL     OW16960   3.247   6.070   0.936 -0.2286 -0.3506  0.0204
 5415SOL    HW116961   3.315   6.067   1.003  1.2721  1.1264 -1.3704
 5415SOL    HW216962   3.292   6.105   0.858 -2.5247  0.4564 -0.9823
 5416SOL     OW16963   6.141   4.949   2.653  0.0558  0.4524  0.1874
 5416SOL    HW116964   6.194   4.976   2.578 -1.5955  1.4615 -0.6436
 5416SOL    HW216965   6.067   5.010   2.653 -1.5069 -1.4219  0.8609
 5417SOL     OW16966   4.500   4.094   3.483 -0.1613 -0.5595 -0.0712
 5417SOL    HW116967   4.594   4.110   3.474 -0.4059  0.4697 -0.7810
 5417SOL    HW216968   4.467   4.170   3.531 -0.6885 -0.7690 -0.0997
 5418SOL     OW16969   5.338   1.580   5.607  0.4783  0.1267 -0.1783
 5418SOL    HW116970   5.413   1.549   5.657  0.1216 -0.0677  0.2376
 5418SOL    HW216971   5.311   1.504   5.556 -0.4128 -0.2684  0.8616
 5419SOL     OW16972   6.169   3.281   3.906  0.0598 -0.4572 -0.6137
 5419SOL    HW116973   6.154   3.370   3.873 -1.3447  0.2097  1.6908
 5419SOL    HW216974   6.171   3.226   3.828 -0.2264  1.4521 -1.9909
 5420SOL     OW16975   3.287   0.931   2.577  0.3719 -0.7572  0.1258
 5420SOL    HW116976   3.301   0.921   2.483 -1.5762 -0.4584 -0.2100
 5420SOL    HW216977   3.304   1.024   2.594 -3.0795  0.0696 -0.6482
 5421SOL     OW16978   2.985   5.449   4.521  0.1613  0.0929 -0.2344
 5421SOL    HW116979   3.006   5.536   4.556  0.1804 -0.8290  2.0914
 5421SOL    HW216980   3.050   5.436   4.451  1.6669  0.9762  0.9539
 5422SOL     OW16981   0.157   6.647   5.069  0.1211 -0.2782 -0.3153
 5422SOL    HW116982   0.217   6.589   5.022  0.7553 -0.0283  0.1770
 5422SOL    HW216983   0.159   6.729   5.020 -0.0291 -0.3600 -0.4578
 5423SOL     OW16984   3.226   4.970   5.699  0.3556 -0.0060 -0.4815
 5423SOL    HW116985   3.143   4.936   5.667  0.6802  1.2708 -2.7912
 5423SOL    HW216986   3.241   5.050   5.647  2.3055  0.5669  0.9071
 5424SOL     OW16987   1.466   1.481   4.590 -0.1811 -0.2552 -0.1920
 5424SOL    HW116988   1.541   1.525   4.551  0.8355 -1.0600  0.7983
 5424SOL    HW216989   1.390   1.516   4.544  0.6857  1.6512 -0.2229
 5425SOL     OW16990   0.948   3.556   2.309 -0.1663  0.1394 -0.2953
 5425SOL    HW116991   0.941   3.632   2.252  0.5994 -0.1648 -0.8133
 5425SOL    HW216992   0.909   3.583   2.392 -0.0549  1.0317 -0.5348
 5426SOL     OW16993   2.302   2.703   4.112  0.2459  0.0614 -0.8752
 5426SOL    HW116994   2.292   2.795   4.137  1.2913 -0.1680  0.4489
 5426SOL    HW216995   2.230   2.658   4.158  1.5252 -0.2012  0.9340
 5427SOL     OW16996   1.392   4.610   3.680  0.2721  0.2064 -0.7129
 5427SOL    HW116997   1.308   4.595   3.723  1.4887 -1.1073  1.2514
 5427SOL    HW216998   1.387   4.701   3.650 -0.7646  1.0692  1.8946
 5428SOL     OW16999   3.628   0.465   1.804  0.8491 -0.0415  0.2438
 5428SOL    HW117000   3.552   0.500   1.850  1.2922 -0.5583  1.3706
 5428SOL    HW217001   3.684   0.542   1.789  0.6880  0.1338  0.5375
 5429SOL     OW17002   0.368   1.180   2.908  0.3525 -0.2458 -0.0393
 5429SOL    HW117003   0.379   1.258   2.963 -2.1179 -0.9517  1.5180
 5429SOL    HW217004   0.427   1.115   2.947  1.1746  0.3040 -0.3400
 5430SOL     OW17005   5.515   3.340   2.293 -0.0707  0.6055  0.8354
 5430SOL    HW117006   5.462   3.276   2.246  1.3087 -0.7489  1.0800
 5430SOL    HW217007   5.468   3.356   2.375 -0.0955 -0.5636  1.0487
 5431SOL     OW17008   2.887   5.177   3.492  0.1366  0.5582 -0.4611
 5431SOL    HW117009   2.853   5.140   3.410 -0.4787 -1.8994  0.8454
 5431SOL    HW217010   2.945   5.110   3.526  1.6468  2.2391  0.3427
 5432SOL     OW17011   6.058   1.818   1.530 -0.2006  0.1383 -0.6871
 5432SOL    HW117012   6.088   1.881   1.595  0.3254 -0.9361  0.1121
 5432SOL    HW217013   6.119   1.744   1.537 -0.4014 -0.1903 -2.0770
 5433SOL     OW17014   4.820   0.826   2.801  0.5569 -0.1748  0.0427
 5433SOL    HW117015   4.755   0.786   2.859  0.2136 -1.8915 -1.5145
 5433SOL    HW217016   4.868   0.886   2.858 -0.6512 -0.8405  1.8095
 5434SOL     OW17017   4.344   3.795   0.291 -0.3096 -1.1514 -0.4016
 5434SOL    HW117018   4.273   3.747   0.333 -2.1972  1.8471 -0.0180
 5434SOL    HW217019   4.366   3.865   0.353  1.8000 -0.9936 -1.2806
 5435SOL     OW17020   4.830   3.730   4.542  0.1559  0.1600 -0.2324
 5435SOL    HW117021   4.820   3.666   4.471  0.9051 -2.5074  1.9808
 5435SOL    HW217022   4.759   3.709   4.602 -0.7795  2.7395 -0.4060
 5436SOL     OW17023   0.106   2.750   2.934 -0.5427 -0.2414  0.0711
 5436SOL    HW117024   0.066   2.663   2.942 -2.6330  0.8795  2.9931
 5436SOL    HW217025   0.092   2.790   3.020 -1.5915  3.7769 -1.8314
 5437SOL     OW17026   0.173   6.045   0.315 -0.7829 -0.5681  0.5183
 5437SOL    HW117027   0.201   6.073   0.402 -0.1149  2.0365 -0.4896
 5437SOL    HW217028   0.255   6.023   0.270 -1.0291 -0.7992  0.1835
 5438SOL     OW17029   4.207   3.694   5.919  0.1860  0.3173  0.5736
 5438SOL    HW117030   4.148   3.620   5.937  1.3045 -0.2700  1.9067
 5438SOL    HW217031   4.254   3.668   5.840  1.2922 -0.8570  1.5997
 5439SOL     OW17032   4.866   3.473   2.259  0.2302 -0.1491  0.4296
 5439SOL    HW117033   4.955   3.447   2.235  0.5601 -0.1930  1.6918
 5439SOL    HW217034   4.832   3.399   2.308 -0.4797 -0.0911  0.0303
 5440SOL     OW17035   6.735   3.464   3.091 -0.4035 -0.6587 -0.6919
 5440SOL    HW117036   6.819   3.496   3.123  0.2409 -2.1947 -0.8269
 5440SOL    HW217037   6.718   3.516   3.012  0.2057 -0.0561 -0.4315
 5441SOL     OW17038   0.687   2.207   0.296  0.1758  0.0153  0.5257
 5441SOL    HW117039   0.625   2.249   0.356 -1.1709 -1.8210  0.4724
 5441SOL    HW217040   0.632   2.177   0.223  1.4287  0.0535 -0.4422
 5442SOL     OW17041   3.158   1.582   3.264  0.3325 -0.3948  0.1684
 5442SOL    HW117042   3.176   1.668   3.301 -0.6499  0.3272 -0.9971
 5442SOL    HW217043   3.078   1.553   3.308 -1.0741  0.6465 -1.6222
 5443SOL     OW17044   6.466   0.152   5.270 -0.3036 -0.0753 -0.7413
 5443SOL    HW117045   6.554   0.183   5.293 -0.8995  1.8076 -0.9617
 5443SOL    HW217046   6.445   0.089   5.339  0.7215  0.3839  0.0185
 5444SOL     OW17047   4.724   5.654   5.557 -0.1603  0.4781  0.0070
 5444SOL    HW117048   4.795   5.716   5.572 -0.0867  0.0795  1.4197
 5444SOL    HW217049   4.750   5.576   5.606  0.6897 -1.4225 -3.2867
 5445SOL     OW17050   0.501   3.604   4.170 -0.6256 -0.5503  0.1702
 5445SOL    HW117051   0.572   3.666   4.153  1.4390 -2.3986  1.7980
 5445SOL    HW217052   0.436   3.656   4.218  1.0345  0.4018  1.4510
 5446SOL     OW17053   2.159   4.822   0.061  0.3430 -0.5854  0.3206
 5446SOL    HW117054   2.085   4.882   0.073  1.4286  0.6628  0.9972
 5446SOL    HW217055   2.135   4.743   0.109 -0.3648 -0.0134  0.9097
 5447SOL     OW17056   1.326   0.682   6.749  0.1100 -0.1543  0.0556
 5447SOL    HW117057   1.287   0.750   6.694 -1.2059 -0.8034  0.1739
 5447SOL    HW217058   1.314   0.714   6.838 -0.8652 -0.7048  0.1335
 5448SOL     OW17059   0.759   3.941   1.657  0.2800 -0.8143 -0.5615
 5448SOL    HW117060   0.809   3.889   1.594  2.1398  0.2115  0.0217
 5448SOL    HW217061   0.816   4.016   1.676 -2.5096  1.7014 -1.7150
 5449SOL     OW17062   1.736   4.403   1.350 -0.3716  0.0252  0.0588
 5449SOL    HW117063   1.797   4.337   1.318  0.1926  1.4958 -2.0130
 5449SOL    HW217064   1.790   4.481   1.363 -1.3070  0.5281  0.9437
 5450SOL     OW17065   1.690   4.493   0.566 -0.2135 -0.1897 -0.5389
 5450SOL    HW117066   1.630   4.553   0.522  1.2295  1.1134 -0.7721
 5450SOL    HW217067   1.697   4.527   0.655  0.4987 -0.0834 -0.6323
 5451SOL     OW17068   6.729   6.604   1.581  0.0908 -0.3672  0.3736
 5451SOL    HW117069   6.758   6.569   1.497 -0.0479 -0.4233  0.3475
 5451SOL    HW217070   6.700   6.527   1.630 -1.1624 -0.1986 -0.0614
 5452SOL     OW17071   6.495   6.697   6.320  0.0241  0.8000 -0.1463
 5452SOL    HW117072   6.402   6.674   6.317  0.5354 -1.5385  0.9344
 5452SOL    HW217073   6.526   6.680   6.231 -1.0190  3.6562 -1.0925
 5453SOL     OW17074   1.695   1.166   0.475  0.0981 -0.0736 -0.2199
 5453SOL    HW117075   1.768   1.132   0.526 -1.1568  0.5539  2.0404
 5453SOL    HW217076   1.676   1.252   0.512 -1.8834 -0.2936 -0.6330
 5454SOL     OW17077   4.937   6.013   3.772 -0.2479  0.7239 -0.5149
 5454SOL    HW117078   5.020   6.045   3.806 -0.5322 -1.3848  2.3198
 5454SOL    HW217079   4.962   5.954   3.701  0.6288  0.6893 -0.1856
 5455SOL     OW17080   0.155   0.284   1.746 -0.0749 -0.7075  0.2430
 5455SOL    HW117081   0.120   0.200   1.774  0.5696 -0.3816  2.0857
 5455SOL    HW217082   0.181   0.328   1.827  3.2221 -0.3562 -0.9091
 5456SOL     OW17083   1.609   5.412   0.100 -0.2921  0.4825 -0.4320
 5456SOL    HW117084   1.609   5.495   0.149  0.4323 -0.5076  1.3149
 5456SOL    HW217085   1.632   5.437   0.011  0.1484  2.1447  0.1210
 5457SOL     OW17086   6.194   6.738   3.958 -0.5798 -0.4218  0.3069
 5457SOL    HW117087   6.219   6.676   4.026 -2.2600  0.1146  1.4493
 5457SOL    HW217088   6.260   6.726   3.889  2.0690  0.1105  2.6509
 5458SOL     OW17089   3.108   2.545   1.802 -0.1440  0.3412 -0.3613
 5458SOL    HW117090   3.089   2.470   1.746  0.2248  0.0814 -0.1421
 5458SOL    HW217091   3.151   2.608   1.744 -0.7823  0.5287 -0.6292
 5459SOL     OW17092   5.158   1.596   0.160 -0.2913 -0.4085  0.6841
 5459SOL    HW117093   5.198   1.682   0.147  0.4608 -0.8791 -0.1970
 5459SOL    HW217094   5.178   1.574   0.251  2.9475 -1.3597 -0.2088
 5460SOL     OW17095   1.236   0.602   0.294  0.0669 -0.4580  0.2763
 5460SOL    HW117096   1.295   0.642   0.358  0.6151  1.2234 -1.2578
 5460SOL    HW217097   1.189   0.675   0.255 -0.5847 -1.5094 -0.9267
 5461SOL     OW17098   5.617   2.006   5.787 -0.2915 -0.3056  0.8686
 5461SOL    HW117099   5.646   2.093   5.814  0.0128  0.2006 -0.9675
 5461SOL    HW217100   5.697   1.963   5.758 -0.7776 -0.3192 -0.4915
 5462SOL     OW17101   4.179   4.022   2.027 -0.1656 -0.3800  0.0087
 5462SOL    HW117102   4.087   4.041   2.010  0.2551  0.0731 -1.8225
 5462SOL    HW217103   4.223   4.033   1.943  1.7229  0.3114  1.0318
 5463SOL     OW17104   2.586   1.821   4.379  0.5050  0.6672 -0.0582
 5463SOL    HW117105   2.646   1.798   4.307 -1.1348 -0.4181 -1.1278
 5463SOL    HW217106   2.565   1.913   4.363  1.5172  0.9316  0.0620
 5464SOL     OW17107   6.021   2.152   5.994  0.2753 -0.0033 -0.4863
 5464SOL    HW117108   6.074   2.214   6.045  0.9020 -0.4850 -0.5398
 5464SOL    HW217109   6.085   2.092   5.955 -0.3157 -0.6698 -0.4523
 5465SOL     OW17110   4.933   6.330   6.695 -0.4376 -0.4133  0.2219
 5465SOL    HW117111   4.896   6.287   6.619  0.4957 -0.6675 -0.0902
 5465SOL    HW217112   4.883   6.411   6.703  0.8762  0.6636 -1.9594
 5466SOL     OW17113   2.761   4.137   3.782 -0.3825  0.0568 -0.7560
 5466SOL    HW117114   2.790   4.061   3.731 -1.3709  0.7015 -2.2958
 5466SOL    HW217115   2.790   4.118   3.872 -0.2138 -1.9191 -1.2137
 5467SOL     OW17116   2.188   0.561   2.398  0.5236  0.4033 -0.2989
 5467SOL    HW117117   2.232   0.642   2.425 -1.4068  1.1010  0.8471
 5467SOL    HW217118   2.097   0.573   2.425  0.2086 -2.1900 -0.0784
 5468SOL     OW17119   2.005   6.699   2.484  0.0500 -0.1264  0.4311
 5468SOL    HW117120   2.012   6.663   2.573  0.6650  0.2844  0.5494
 5468SOL    HW217121   2.084   6.752   2.473 -1.5359  2.4112  0.8161
 5469SOL     OW17122   2.519   5.361   0.339 -0.1467 -0.1916  0.3804
 5469SOL    HW117123   2.613   5.369   0.329 -0.0940  1.4578  2.0251
 5469SOL    HW217124   2.484   5.385   0.253  0.9303 -1.4645 -0.4388
 5470SOL     OW17125   6.400   1.781   5.029  0.1433 -0.2481  0.2890
 5470SOL    HW117126   6.477   1.814   5.075 -0.3143 -0.5587  1.2810
 5470SOL    HW217127   6.344   1.744   5.098 -0.5201 -0.7632 -0.5113
 5471SOL     OW17128   2.303   5.931   5.715 -0.8085 -0.6121 -0.3766
 5471SOL    HW117129   2.378   5.982   5.683 -0.5404 -1.2428 -0.7642
 5471SOL    HW217130   2.337   5.884   5.791 -1.3775  0.6891  0.6853
 5472SOL     OW17131   4.667   2.188   3.761  0.2289  0.1754 -0.2956
 5472SOL    HW117132   4.629   2.112   3.716 -1.5716  1.2169 -0.5768
 5472SOL    HW217133   4.682   2.252   3.691  0.4346  0.6037  0.1366
 5473SOL     OW17134   4.279   1.569   5.401  0.2950  0.3782  0.1218
 5473SOL    HW117135   4.360   1.567   5.454  0.2082 -0.5495  0.2249
 5473SOL    HW217136   4.217   1.619   5.455 -0.1856 -1.6422  1.4768
 5474SOL     OW17137   5.672   5.350   4.553  0.5843 -0.3281 -0.3404
 5474SOL    HW117138   5.618   5.274   4.575  0.8803  0.1003  1.9916
 5474SOL    HW217139   5.656   5.412   4.624  2.1559  0.8450 -0.9815
 5475SOL     OW17140   5.938   1.507   0.401  0.6440 -0.1142  0.1362
 5475SOL    HW117141   6.019   1.497   0.352 -0.0330  1.9363 -1.4842
 5475SOL    HW217142   5.941   1.439   0.468  3.2029 -0.7151 -0.5642
 5476SOL     OW17143   3.742   2.034   6.503  0.0225  0.2092 -0.4308
 5476SOL    HW117144   3.778   2.063   6.587  0.4530 -0.7410 -0.2755
 5476SOL    HW217145   3.648   2.027   6.518  0.0357  0.5511 -0.1855
 5477SOL     OW17146   4.872   5.276   0.459 -0.1343 -0.3039  0.3451
 5477SOL    HW117147   4.953   5.286   0.509  0.3276  0.2162 -0.4930
 5477SOL    HW217148   4.813   5.229   0.518  0.8307 -0.8353  0.8952
 5478SOL     OW17149   4.736   3.448   4.802  0.4425 -0.2987 -0.0742
 5478SOL    HW117150   4.830   3.455   4.817  0.5145  0.0152 -0.6574
 5478SOL    HW217151   4.724   3.358   4.770  0.5651 -0.2932 -0.1365
 5479SOL     OW17152   0.629   0.915   3.418  0.1769  0.4326 -0.1774
 5479SOL    HW117153   0.616   0.864   3.338  0.1147  0.4093 -0.1517
 5479SOL    HW217154   0.619   1.006   3.390 -0.7720  0.3818 -0.0098
 5480SOL     OW17155   2.680   0.342   0.854 -0.6472  0.4718  0.0465
 5480SOL    HW117156   2.620   0.355   0.928  0.6476  0.6478  1.0964
 5480SOL    HW217157   2.751   0.288   0.890 -0.3476 -0.0268 -1.2641
 5481SOL     OW17158   3.484   5.711   1.277  0.2611  0.3533  0.8587
 5481SOL    HW117159   3.559   5.661   1.242  0.4611  0.8184  0.6155
 5481SOL    HW217160   3.445   5.653   1.342 -1.1265 -1.2083 -1.3241
 5482SOL     OW17161   1.766   4.551   4.260 -0.2180  0.9577 -0.6215
 5482SOL    HW117162   1.754   4.534   4.166 -0.0411 -1.2487 -0.2862
 5482SOL    HW217163   1.787   4.644   4.265  0.5043  0.9562 -2.8395
 5483SOL     OW17164   1.044   0.942   5.359 -0.4050  0.4353 -0.5205
 5483SOL    HW117165   0.993   1.008   5.313  0.3625 -0.0688 -2.1422
 5483SOL    HW217166   1.074   0.883   5.290  1.4867  0.1363  0.5152
 5484SOL     OW17167   4.367   1.425   1.196  0.1412  0.0028  0.0174
 5484SOL    HW117168   4.287   1.478   1.201 -0.3877 -0.6931 -1.0019
 5484SOL    HW217169   4.429   1.471   1.253 -0.6058  1.2044 -0.1165
 5485SOL     OW17170   4.613   1.014   4.643  0.1664 -0.4445 -0.0256
 5485SOL    HW117171   4.706   1.036   4.645  0.2402 -0.7784  0.2361
 5485SOL    HW217172   4.605   0.950   4.572  0.0303  0.0696 -0.4735
 5486SOL     OW17173   0.725   0.124   5.755  0.3692  0.1190 -0.1347
 5486SOL    HW117174   0.630   0.112   5.757  0.2018  1.3929 -0.0059
 5486SOL    HW217175   0.746   0.162   5.840  0.7633  1.3962 -0.7814
 5487SOL     OW17176   3.774   5.326   4.148  0.0660  0.3436 -0.1478
 5487SOL    HW117177   3.787   5.251   4.090 -0.1458 -0.4058  0.7687
 5487SOL    HW217178   3.840   5.316   4.216 -1.0868  0.0242  0.9455
 5488SOL     OW17179   5.870   1.792   1.311  0.3788  0.1914  0.7235
 5488SOL    HW117180   5.949   1.822   1.357  0.3069 -0.7118  1.4465
 5488SOL    HW217181   5.801   1.851   1.341  0.2374 -0.6719  2.1556
 5489SOL     OW17182   2.297   0.168   1.526  0.3693 -1.0953 -0.3324
 5489SOL    HW117183   2.280   0.247   1.475  2.1839 -0.8515 -0.6094
 5489SOL    HW217184   2.271   0.190   1.615  4.8325  1.4052  0.5275
 5490SOL     OW17185   4.727   4.584   1.323 -0.0064 -0.0578  0.1127
 5490SOL    HW117186   4.698   4.583   1.415  0.3949  1.0771  0.2597
 5490SOL    HW217187   4.675   4.516   1.281  0.7149 -1.4872  1.4561
 5491SOL     OW17188   1.471   5.801   6.560  0.0343 -0.2822 -0.1869
 5491SOL    HW117189   1.389   5.754   6.554 -0.1445  0.1028 -0.7947
 5491SOL    HW217190   1.522   5.753   6.626 -0.5362 -0.7176 -0.0641
 5492SOL     OW17191   4.510   5.779   5.053  0.3340 -0.5770  0.4433
 5492SOL    HW117192   4.530   5.763   5.145 -1.5286 -2.2713  0.5641
 5492SOL    HW217193   4.416   5.795   5.051  0.5340  0.5801 -1.0418
 5493SOL     OW17194   3.662   2.869   2.461 -0.0237  0.4774 -0.2675
 5493SOL    HW117195   3.749   2.867   2.501 -0.7441 -0.7453  1.3242
 5493SOL    HW217196   3.614   2.934   2.512 -0.4355  0.1588 -0.2407
 5494SOL     OW17197   4.850   1.073   2.070  0.1189 -0.5220  0.5395
 5494SOL    HW117198   4.893   1.065   2.155 -0.3770  0.3277  0.8815
 5494SOL    HW217199   4.822   1.165   2.066  2.7586  0.2427 -1.8071
 5495SOL     OW17200   0.625   4.053   4.675  0.7615 -0.5473  0.0112
 5495SOL    HW117201   0.671   4.050   4.591 -0.5320 -2.9569 -0.6832
 5495SOL    HW217202   0.694   4.061   4.740  1.9578 -1.0464 -1.1701
 5496SOL     OW17203   2.084   2.833   5.081  0.0865 -0.2587 -0.6836
 5496SOL    HW117204   2.046   2.848   4.994  0.8515  0.5589 -0.8900
 5496SOL    HW217205   2.091   2.920   5.119  0.1422 -0.5776  0.0366
 5497SOL     OW17206   0.567   3.925   1.845  0.4043  0.5439 -0.1898
 5497SOL    HW117207   0.496   3.932   1.781  0.0295 -1.5403 -0.0371
 5497SOL    HW217208   0.646   3.940   1.794 -0.1051  2.6566 -0.4027
 5498SOL     OW17209   6.023   3.131   6.314 -0.3054 -0.3516  0.1022
 5498SOL    HW117210   6.049   3.083   6.393 -0.5329 -2.2467 -0.9299
 5498SOL    HW217211   5.936   3.097   6.293 -0.1800  0.0317 -1.0370
 5499SOL     OW17212   2.669   5.688   5.801  0.2603 -0.4387 -0.0546
 5499SOL    HW117213   2.658   5.782   5.786 -1.1604 -0.6678 -0.5699
 5499SOL    HW217214   2.755   5.667   5.766 -0.0319  0.4004 -1.2924
 5500SOL     OW17215   0.470   4.280   6.340  0.3445 -0.2816  0.2921
 5500SOL    HW117216   0.478   4.203   6.283  2.6089  0.5725 -0.5911
 5500SOL    HW217217   0.386   4.268   6.384 -0.2781 -2.2435 -1.3418
 5501SOL     OW17218   6.104   2.779   0.449 -0.3287 -0.6386 -0.0567
 5501SOL    HW117219   6.127   2.859   0.497  1.4214 -0.6461 -0.8448
 5501SOL    HW217220   6.018   2.754   0.483  0.6133 -0.3179  2.6587
 5502SOL     OW17221   4.657   2.485   6.647 -0.1269  0.4361  0.2466
 5502SOL    HW117222   4.575   2.517   6.685 -0.6770 -0.1523 -0.4473
 5502SOL    HW217223   4.634   2.460   6.558  0.4602 -1.1934  0.5347
 5503SOL     OW17224   4.504   3.779   1.978  0.4582 -0.8385 -0.0444
 5503SOL    HW117225   4.559   3.857   1.991 -1.2193  0.3332  0.1768
 5503SOL    HW217226   4.558   3.721   1.924  0.8724  1.4594 -2.2207
 5504SOL     OW17227   4.554   5.803   1.096  0.2920 -0.0124 -0.1678
 5504SOL    HW117228   4.526   5.887   1.132  0.0723 -0.7756  1.5102
 5504SOL    HW217229   4.480   5.774   1.043 -0.5507 -0.1725  1.0624
 5505SOL     OW17230   2.962   6.162   4.255  0.3459  0.3581  0.5807
 5505SOL    HW117231   2.937   6.135   4.167  1.5298 -1.7484  0.8408
 5505SOL    HW217232   3.038   6.219   4.243 -0.3371  1.1888  0.1754
 5506SOL     OW17233   0.287   0.865   1.580 -0.5777  0.1757 -0.0413
 5506SOL    HW117234   0.207   0.884   1.531  1.1602  0.6264 -2.8479
 5506SOL    HW217235   0.356   0.865   1.513  1.8513  0.3972  2.3877
 5507SOL     OW17236   6.556   0.022   5.807  0.2853  0.1210  0.2516
 5507SOL    HW117237   6.643   0.023   5.768  0.4173  2.0494  0.5412
 5507SOL    HW217238   6.570   0.045   5.899 -0.4510 -0.3802  0.4981
 5508SOL     OW17239   0.937   0.910   5.795  0.1480 -0.0289 -0.4459
 5508SOL    HW117240   0.987   0.989   5.777 -0.1300  0.2791  0.1158
 5508SOL    HW217241   0.960   0.886   5.885 -0.3206 -0.1749 -0.3619
 5509SOL     OW17242   5.189   3.225   0.576 -0.1384  0.2824  0.2488
 5509SOL    HW117243   5.105   3.179   0.567  1.0669 -1.7769 -0.6347
 5509SOL    HW217244   5.180   3.274   0.658 -1.2744 -1.9120  1.4709
 5510SOL     OW17245   1.467   6.250   0.635  0.2160  0.6039 -0.6020
 5510SOL    HW117246   1.531   6.259   0.705 -0.6197  2.7139 -0.0559
 5510SOL    HW217247   1.412   6.176   0.662  1.6777 -0.4763 -0.5131
 5511SOL     OW17248   1.908   4.028   0.425  0.5583 -0.5040 -0.1393
 5511SOL    HW117249   1.882   4.075   0.345 -0.8365 -0.3474  0.3935
 5511SOL    HW217250   1.934   3.941   0.394 -0.3641 -0.5742 -0.7254
 5512SOL     OW17251   2.802   6.626   2.109  0.1762  0.0424 -0.4379
 5512SOL    HW117252   2.789   6.683   2.185  0.0264  0.6390 -0.9186
 5512SOL    HW217253   2.714   6.594   2.088  0.3885 -1.2744  0.5261
 5513SOL     OW17254   6.491   1.693   3.911 -0.2293 -0.1408  1.0474
 5513SOL    HW117255   6.544   1.613   3.914  0.4804  0.1668 -1.9271
 5513SOL    HW217256   6.536   1.750   3.849 -2.4485  1.3206  0.7020
 5514SOL     OW17257   6.550   1.910   0.772  0.3931 -0.1984  0.2651
 5514SOL    HW117258   6.508   1.889   0.855 -1.3588  1.2041 -0.2242
 5514SOL    HW217259   6.551   2.006   0.768 -0.4579 -0.2380 -1.7509
 5515SOL     OW17260   5.360   2.001   3.968 -0.3802  0.5510 -0.2138
 5515SOL    HW117261   5.339   2.072   4.029 -0.9692 -0.8635  1.2741
 5515SOL    HW217262   5.321   2.027   3.885 -2.4646  0.9640  0.8829
 5516SOL     OW17263   2.646   3.177   5.354 -0.4731  0.5521 -0.0453
 5516SOL    HW117264   2.610   3.206   5.437 -0.2485 -0.9876  0.6203
 5516SOL    HW217265   2.740   3.198   5.360 -0.6933  1.6715 -0.4719
 5517SOL     OW17266   5.307   5.841   0.068  0.1996  0.6393 -1.0117
 5517SOL    HW117267   5.395   5.814   0.093 -0.8444 -0.4411  1.6315
 5517SOL    HW217268   5.258   5.759   0.061 -0.8827  1.3070 -1.3275
 5518SOL     OW17269   1.578   1.416   5.024 -0.0567 -0.1195  0.5244
 5518SOL    HW117270   1.571   1.334   4.974  2.6621 -0.0514 -0.0572
 5518SOL    HW217271   1.671   1.423   5.045 -0.6170  1.6935  2.5471
 5519SOL     OW17272   5.034   0.601   2.149 -0.0433  0.3152  0.0147
 5519SOL    HW117273   5.071   0.515   2.169 -1.9770 -0.2203  1.3808
 5519SOL    HW217274   5.094   0.663   2.190  2.9131 -0.1607 -3.2936
 5520SOL     OW17275   2.285   1.994   0.849 -0.4151  0.4823 -0.0403
 5520SOL    HW117276   2.207   2.048   0.865 -1.7564 -1.6063  0.6513
 5520SOL    HW217277   2.286   1.982   0.754 -1.1770  0.1825 -0.0150
 5521SOL     OW17278   4.924   3.213   1.349  0.2024 -0.2311  0.1879
 5521SOL    HW117279   4.862   3.237   1.417  1.5008  1.6885  0.7325
 5521SOL    HW217280   4.882   3.141   1.301 -1.9252  0.3163  1.2253
 5522SOL     OW17281   2.784   6.112   4.520 -0.6438 -0.0248  0.1205
 5522SOL    HW117282   2.743   6.159   4.447 -1.1450 -0.1899  0.2923
 5522SOL    HW217283   2.793   6.022   4.487  0.3891  0.1976 -0.2395
 5523SOL     OW17284   5.550   1.363   5.168 -0.1210 -0.5973 -0.6768
 5523SOL    HW117285   5.568   1.275   5.200  2.2765  0.0747 -0.1125
 5523SOL    HW217286   5.576   1.420   5.240 -0.0065  0.6578 -1.7059
 5524SOL     OW17287   2.566   1.113   0.293 -0.1423 -0.2845  0.0193
 5524SOL    HW117288   2.607   1.158   0.367  1.0127  1.7999 -1.8163
 5524SOL    HW217289   2.512   1.180   0.251 -0.7838 -1.4276 -1.0343
 5525SOL     OW17290   3.511   6.625   6.395  0.0711  0.0705 -0.1784
 5525SOL    HW117291   3.482   6.533   6.394  1.8523 -0.5820  2.0333
 5525SOL    HW217292   3.449   6.668   6.454 -0.4980  0.1996 -0.8650
 5526SOL     OW17293   5.636   4.968   1.072  0.4163  0.2119 -0.1350
 5526SOL    HW117294   5.598   4.897   1.021  0.4555 -1.1514  1.6963
 5526SOL    HW217295   5.722   4.934   1.099  0.7976  1.2925  0.0181
 5527SOL     OW17296   2.575   2.367   3.018  0.4348 -0.5219  0.4629
 5527SOL    HW117297   2.526   2.292   2.983 -1.1539 -0.1286  1.7783
 5527SOL    HW217298   2.542   2.442   2.969 -0.3145 -0.2572  1.3510
 5528SOL     OW17299   2.134   0.617   6.365 -0.1580  0.1594 -0.2227
 5528SOL    HW117300   2.038   0.624   6.367 -0.0813  1.7560 -0.9996
 5528SOL    HW217301   2.163   0.679   6.432  0.3464 -0.1123 -0.1904
 5529SOL     OW17302   3.930   6.195   3.398 -0.0971  0.6420 -1.0472
 5529SOL    HW117303   3.982   6.235   3.329  0.2309 -0.5305 -1.4773
 5529SOL    HW217304   3.988   6.194   3.474 -0.2524  1.3633 -0.9090
 5530SOL     OW17305   6.178   6.277   5.942  0.0422  0.6089  0.2492
 5530SOL    HW117306   6.123   6.347   5.976  0.3793 -0.2789  2.7128
 5530SOL    HW217307   6.266   6.299   5.972  0.1413 -0.8770  1.0825
 5531SOL     OW17308   5.643   3.183   2.058 -0.3426  0.5764 -0.0752
 5531SOL    HW117309   5.636   3.251   2.125  3.0374  2.3685 -1.4508
 5531SOL    HW217310   5.556   3.180   2.017 -1.6572  1.2753  2.6138
 5532SOL     OW17311   1.546   5.856   5.342  0.0668 -0.1088  0.3723
 5532SOL    HW117312   1.534   5.923   5.274 -0.3933 -1.9375 -1.4145
 5532SOL    HW217313   1.622   5.806   5.312 -0.9960 -1.7926  0.4598
 5533SOL     OW17314   6.650   5.112   3.447 -0.0545  0.5994 -0.1372
 5533SOL    HW117315   6.563   5.152   3.436 -0.2312  0.0419 -0.7211
 5533SOL    HW217316   6.647   5.075   3.535 -0.4955  0.3578 -0.2527
 5534SOL     OW17317   3.826   2.905   3.965  0.2021  0.4150  0.0352
 5534SOL    HW117318   3.770   2.970   3.922 -0.6980 -0.0334  0.5060
 5534SOL    HW217319   3.911   2.915   3.923 -1.1605 -1.4105 -3.3486
 5535SOL     OW17320   4.670   4.185   0.644 -0.4023 -0.4260 -1.2421
 5535SOL    HW117321   4.729   4.151   0.576  1.2868  1.2918 -0.6960
 5535SOL    HW217322   4.631   4.108   0.683  1.6690 -1.6328 -1.4854
 5536SOL     OW17323   2.591   4.717   3.661  0.3635 -0.3372  0.4265
 5536SOL    HW117324   2.658   4.768   3.617  0.7616 -1.8638 -0.7847
 5536SOL    HW217325   2.521   4.780   3.680  1.9489  1.1733  1.3572
 5537SOL     OW17326   4.582   3.096   3.585 -0.4097  0.0833  0.2916
 5537SOL    HW117327   4.492   3.127   3.592 -0.5949  0.2829 -2.3605
 5537SOL    HW217328   4.575   3.010   3.544  0.5066 -0.6631  1.6679
 5538SOL     OW17329   5.765   6.614   1.794  0.6752  0.1519  0.7375
 5538SOL    HW117330   5.760   6.628   1.699 -1.1901 -0.3434  0.7452
 5538SOL    HW217331   5.725   6.692   1.832  1.4409  0.3607  1.1322
 5539SOL     OW17332   0.658   1.456   1.016 -0.2987 -0.2732 -0.0111
 5539SOL    HW117333   0.598   1.479   0.945 -1.8085 -1.2963  0.8805
 5539SOL    HW217334   0.655   1.531   1.075 -1.0900 -0.4913  0.2469
 5540SOL     OW17335   0.099   5.563   6.241  0.3300  0.4753  0.1655
 5540SOL    HW117336   0.139   5.630   6.186  1.2539 -1.9726 -2.2524
 5540SOL    HW217337   0.006   5.586   6.243  0.9987  3.3168  1.6215
 5541SOL     OW17338   1.431   5.102   2.165 -0.3555 -0.5811 -0.1845
 5541SOL    HW117339   1.485   5.085   2.242 -0.7969  0.4343  0.3495
 5541SOL    HW217340   1.368   5.030   2.163 -1.1969  0.0994  1.1631
 5542SOL     OW17341   1.477   2.670   4.951 -0.1671 -0.1459  0.7352
 5542SOL    HW117342   1.562   2.648   4.913 -0.8897 -1.0766 -0.4189
 5542SOL    HW217343   1.480   2.764   4.966  0.6370  0.0214 -0.4119
 5543SOL     OW17344   1.564   4.649   5.428  0.0966  0.1285  0.1331
 5543SOL    HW117345   1.659   4.656   5.433  0.1916  0.2464 -1.6329
 5543SOL    HW217346   1.532   4.696   5.505  1.4275  0.9546  0.1793
 5544SOL     OW17347   3.992   4.459   3.034  0.0775 -0.0293  0.2719
 5544SOL    HW117348   3.914   4.425   2.989  0.4871  1.3910 -1.5708
 5544SOL    HW217349   4.063   4.446   2.971  1.1938 -0.5992  1.6418
 5545SOL     OW17350   3.209   0.073   0.549 -0.4254 -0.2676 -0.6050
 5545SOL    HW117351   3.286   0.102   0.500 -0.5293  2.1179  0.5315
 5545SOL    HW217352   3.195  -0.018   0.523  2.3680 -0.5106 -1.3301
 5546SOL     OW17353   3.880   5.706   5.620  0.2085  0.2576 -0.0698
 5546SOL    HW117354   3.941   5.745   5.683 -1.3563  1.0026  1.0355
 5546SOL    HW217355   3.817   5.776   5.602 -0.7785 -0.7475 -0.5450
 5547SOL     OW17356   2.076   0.363   0.463 -0.0801 -0.4733  0.6905
 5547SOL    HW117357   2.106   0.451   0.483 -0.6242 -0.3520  0.9894
 5547SOL    HW217358   2.156   0.312   0.451  0.2818 -0.5619  3.2056
 5548SOL     OW17359   1.056   2.905   5.274 -0.3474  0.2682 -0.2867
 5548SOL    HW117360   1.042   2.999   5.260  0.4664  0.1981 -1.6029
 5548SOL    HW217361   1.147   2.899   5.304 -0.6995 -0.0196  0.7443
 5549SOL     OW17362   1.478   5.087   5.148 -0.6772  0.1646  0.3670
 5549SOL    HW117363   1.467   5.130   5.233 -0.1438  0.5707  0.2350
 5549SOL    HW217364   1.542   5.018   5.164  0.1157  0.8298  0.0966
 5550SOL     OW17365   3.893   0.664   5.048  0.3510 -0.0890 -0.3775
 5550SOL    HW117366   3.933   0.744   5.014  1.5015 -0.2887  0.4979
 5550SOL    HW217367   3.963   0.599   5.045 -0.1736 -0.6928  0.2864
 5551SOL     OW17368   3.349   6.437   3.486 -0.2488  0.4403  0.2548
 5551SOL    HW117369   3.377   6.422   3.396  1.6317 -0.5882  0.9861
 5551SOL    HW217370   3.266   6.485   3.478 -0.4113 -0.1744 -2.0120
 5552SOL     OW17371   4.261   0.830   6.183  0.2382  0.0409  0.2550
 5552SOL    HW117372   4.278   0.763   6.117 -0.9961 -0.3141  0.2837
 5552SOL    HW217373   4.339   0.828   6.239  1.9740  1.3593 -2.0023
 5553SOL     OW17374   5.623   6.049   6.225  0.3470 -0.1215  0.0226
 5553SOL    HW117375   5.663   6.134   6.240  0.6895 -0.0876 -1.0512
 5553SOL    HW217376   5.573   6.059   6.144 -0.7232 -0.5591  0.6151
 5554SOL     OW17377   4.092   0.842   6.719  0.7110 -0.2126  0.0272
 5554SOL    HW117378   4.176   0.888   6.716 -0.7404  2.4398 -3.2525
 5554SOL    HW217379   4.026   0.911   6.717 -1.5844 -2.3019  0.6018
 5555SOL     OW17380   1.783   3.966   0.059 -0.4158 -0.5444  0.4815
 5555SOL    HW117381   1.727   3.986   0.135 -1.9178  0.1448 -0.7822
 5555SOL    HW217382   1.872   3.974   0.093 -1.0552 -0.7020  2.3009
 5556SOL     OW17383   5.059   4.546   0.527  0.8231  0.0385 -0.1385
 5556SOL    HW117384   5.043   4.605   0.454  0.9617 -0.7603 -0.8176
 5556SOL    HW217385   4.971   4.522   0.559  0.6851 -1.6905 -1.7273
 5557SOL     OW17386   2.321   6.395   3.696 -0.2074 -0.1761 -0.0009
 5557SOL    HW117387   2.227   6.403   3.680 -0.0442  0.5980 -0.6122
 5557SOL    HW217388   2.350   6.326   3.637 -0.1730  0.4577 -0.7270
 5558SOL     OW17389   1.220   3.672   5.358  0.3433 -0.3057  0.1355
 5558SOL    HW117390   1.206   3.634   5.271  0.3948 -1.6442  0.7084
 5558SOL    HW217391   1.282   3.613   5.401 -2.2841 -1.5902  2.3342
 5559SOL     OW17392   1.710   4.520   1.754  0.1205  0.4679 -0.2137
 5559SOL    HW117393   1.725   4.426   1.764  0.4344  0.7279  1.9257
 5559SOL    HW217394   1.616   4.530   1.770  0.2763  0.6477  0.5893
 5560SOL     OW17395   6.756   1.685   4.754 -0.1644  0.3465 -0.4678
 5560SOL    HW117396   6.718   1.773   4.764  1.0223  0.5891  2.2386
 5560SOL    HW217397   6.779   1.680   4.661 -0.8447  2.6415 -0.7939
 5561SOL     OW17398   0.889   1.376   4.183  0.3755 -0.2165  0.5818
 5561SOL    HW117399   0.943   1.365   4.261 -0.6665  0.7069  1.4411
 5561SOL    HW217400   0.950   1.408   4.116  0.9269  0.7337  1.5235
 5562SOL     OW17401   1.058   5.163   4.956 -0.4403  0.6467  0.4869
 5562SOL    HW117402   1.013   5.084   4.985 -0.9181  0.8804  0.3850
 5562SOL    HW217403   1.081   5.210   5.037 -0.5871  0.6438  0.5291
 5563SOL     OW17404   0.335   2.520   1.137 -0.1230  0.0847  0.6403
 5563SOL    HW117405   0.270   2.581   1.170 -0.2610 -0.0665  0.6471
 5563SOL    HW217406   0.405   2.521   1.203 -0.3180 -0.0847  0.8471
 5564SOL     OW17407   0.644   1.336   1.272 -0.4532 -0.0344 -0.5215
 5564SOL    HW117408   0.738   1.338   1.291 -0.6662 -1.3609  0.8313
 5564SOL    HW217409   0.637   1.367   1.182  1.1808  1.0393 -0.3011
 5565SOL     OW17410   1.253   1.853   2.528  0.2273  0.5132 -0.0140
 5565SOL    HW117411   1.196   1.893   2.461 -0.4049 -0.3774 -0.0070
 5565SOL    HW217412   1.307   1.790   2.479  1.8156  1.9442 -0.1662
 5566SOL     OW17413   4.321   6.739   1.700  0.2813 -0.0435 -0.8467
 5566SOL    HW117414   4.262   6.669   1.671 -1.2226  0.8916 -0.0632
 5566SOL    HW217415   4.399   6.727   1.646  0.5209 -3.0444  0.0507
 5567SOL     OW17416   4.800   5.341   6.601 -0.2185  0.7487  0.1059
 5567SOL    HW117417   4.886   5.311   6.572  0.1137  0.3219  1.5261
 5567SOL    HW217418   4.814   5.433   6.625  0.0768  0.3884  1.3234
 5568SOL     OW17419   5.331   0.321   0.320  0.0773  0.4318  0.0452
 5568SOL    HW117420   5.326   0.296   0.228 -0.4819 -1.3128  0.5230
 5568SOL    HW217421   5.417   0.289   0.349 -0.8203 -1.3713  0.7731
 5569SOL     OW17422   1.396   3.092   0.407  0.4354  0.6125  0.5529
 5569SOL    HW117423   1.418   3.072   0.316 -0.3654 -1.0190  0.7074
 5569SOL    HW217424   1.459   3.160   0.433  0.7238  1.0165 -1.1775
 5570SOL     OW17425   0.193   2.560   3.306  0.0379 -0.4107 -0.2889
 5570SOL    HW117426   0.109   2.569   3.352  0.4998  1.1477  0.3182
 5570SOL    HW217427   0.248   2.629   3.344  1.3423 -0.9008 -1.2381
 5571SOL     OW17428   3.559   0.827   0.513 -0.0290 -0.2534  0.2550
 5571SOL    HW117429   3.620   0.816   0.586 -0.8909 -1.0721  0.8576
 5571SOL    HW217430   3.606   0.884   0.452  1.0072 -0.1851  1.0895
 5572SOL     OW17431   3.326   0.832   4.987  0.3513 -0.1681  0.2684
 5572SOL    HW117432   3.314   0.896   4.916  3.1211  0.0846 -0.0060
 5572SOL    HW217433   3.301   0.880   5.066  0.3152  0.5562 -0.1718
 5573SOL     OW17434   5.430   1.139   6.184  0.1666 -0.6053  0.5760
 5573SOL    HW117435   5.446   1.132   6.090 -0.9128 -0.8541  0.3970
 5573SOL    HW217436   5.398   1.229   6.196  1.2494 -0.2595  0.8514
 5574SOL     OW17437   5.261   1.590   2.914  0.0168 -0.5147 -0.1681
 5574SOL    HW117438   5.335   1.649   2.926 -0.9051  0.6282 -0.0195
 5574SOL    HW217439   5.222   1.584   3.001 -1.0865  0.2663 -0.5997
 5575SOL     OW17440   2.229   0.420   1.382 -0.4352  0.0526  0.3254
 5575SOL    HW117441   2.143   0.460   1.393 -0.4936  0.7033 -2.0523
 5575SOL    HW217442   2.247   0.430   1.288  2.3848  0.2589  0.8528
 5576SOL     OW17443   5.796   4.472   3.049 -0.1205 -0.3726  0.1273
 5576SOL    HW117444   5.720   4.505   3.097 -0.1691 -1.6965  0.9792
 5576SOL    HW217445   5.870   4.482   3.109  1.0759  4.0370 -1.8659
 5577SOL     OW17446   5.061   1.969   2.047 -0.3593  0.2302 -0.1771
 5577SOL    HW117447   5.131   1.963   2.112  0.2516  0.2034 -0.8349
 5577SOL    HW217448   4.993   1.910   2.081  0.1723 -0.1960  0.1708
 5578SOL     OW17449   1.268   0.573   1.938 -0.7283 -0.4243  0.0669
 5578SOL    HW117450   1.304   0.603   2.021 -0.0507  0.3221 -0.4952
 5578SOL    HW217451   1.330   0.507   1.907 -1.1908 -0.9964  0.3447
 5579SOL     OW17452   2.950   4.621   1.688  0.3022 -0.2628 -0.1402
 5579SOL    HW117453   2.957   4.636   1.782 -0.9379  0.4834 -0.1479
 5579SOL    HW217454   2.923   4.529   1.680  2.9756 -1.1032  0.1080
 5580SOL     OW17455   2.674   5.557   5.427 -0.0864 -0.1742  0.2235
 5580SOL    HW117456   2.603   5.618   5.405  0.8472  0.4745 -1.1175
 5580SOL    HW217457   2.753   5.606   5.406  0.6505 -2.6004 -2.9740
 5581SOL     OW17458   2.263   4.262   0.172  0.2589 -0.2758 -0.0687
 5581SOL    HW117459   2.275   4.313   0.092  4.1890 -1.2109 -0.1669
 5581SOL    HW217460   2.333   4.291   0.231  0.5674 -3.1539  1.0942
 5582SOL     OW17461   2.308   1.121   6.483  0.0646 -0.4078  0.2414
 5582SOL    HW117462   2.284   1.213   6.500 -2.0627 -0.9604  0.4442
 5582SOL    HW217463   2.361   1.124   6.404  0.6652  1.0890  0.6916
 5583SOL     OW17464   3.635   6.558   5.764  0.0372  0.0567  0.0263
 5583SOL    HW117465   3.697   6.553   5.837  0.1876 -0.0141 -0.1057
 5583SOL    HW217466   3.555   6.518   5.797  1.0086 -2.7078 -0.7792
 5584SOL     OW17467   0.894   6.583   2.666 -0.1101 -0.1517 -0.6382
 5584SOL    HW117468   0.901   6.558   2.758  1.8486  0.4202 -0.6103
 5584SOL    HW217469   0.927   6.507   2.618 -1.1888 -0.4725 -0.8668
 5585SOL     OW17470   2.188   5.295   2.579  0.1606 -0.0144  0.2564
 5585SOL    HW117471   2.249   5.355   2.621  1.4092 -0.5624 -0.7576
 5585SOL    HW217472   2.116   5.351   2.549  1.5461  1.0473 -1.1125
 5586SOL     OW17473   4.296   5.348   5.211 -0.1387 -0.0550 -0.0598
 5586SOL    HW117474   4.252   5.264   5.221  0.5817 -0.4593 -0.2774
 5586SOL    HW217475   4.258   5.386   5.132  1.3034 -1.2790 -1.3679
 5587SOL     OW17476   5.573   2.367   5.560  0.1194 -0.0110  0.3051
 5587SOL    HW117477   5.527   2.323   5.631  0.1814  0.1890  0.4698
 5587SOL    HW217478   5.658   2.391   5.597  0.2267 -0.0786  0.1057
 5588SOL     OW17479   1.671   1.168   5.170  0.0684 -1.1566  0.3429
 5588SOL    HW117480   1.710   1.089   5.207 -1.0042 -1.6443  0.4645
 5588SOL    HW217481   1.648   1.222   5.246 -0.1517 -1.1901  0.2999
 5589SOL     OW17482   5.772   2.522   0.381  0.2903 -0.1072 -0.5954
 5589SOL    HW117483   5.768   2.467   0.302 -0.8742  0.3811 -0.8833
 5589SOL    HW217484   5.684   2.517   0.417  0.9405 -0.7100  0.9521
 5590SOL     OW17485   2.153   3.088   6.016 -0.1152  0.3521 -0.6019
 5590SOL    HW117486   2.163   2.994   6.003 -0.4821  0.5009 -2.0047
 5590SOL    HW217487   2.072   3.110   5.970 -0.8767  1.0859  1.0666
 5591SOL     OW17488   4.700   1.144   1.362 -0.3469  0.4560 -0.0341
 5591SOL    HW117489   4.789   1.151   1.327 -0.2210  1.2098  0.4284
 5591SOL    HW217490   4.677   1.052   1.349  0.8818  0.0215  0.7558
 5592SOL     OW17491   0.162   1.930   4.939 -0.5356  0.3354 -0.1349
 5592SOL    HW117492   0.149   1.878   5.019 -2.2270 -0.4660 -0.9044
 5592SOL    HW217493   0.253   1.914   4.915 -0.8824 -1.9112 -0.0634
 5593SOL     OW17494   4.551   4.062   1.032  0.3678  0.1440  0.2083
 5593SOL    HW117495   4.627   4.020   1.071  0.5361 -0.7936 -1.0752
 5593SOL    HW217496   4.479   4.043   1.092  0.8488 -0.2927  0.6416
 5594SOL     OW17497   5.904   3.827   0.124 -0.2549 -0.1541  0.2848
 5594SOL    HW117498   5.811   3.838   0.145 -0.5655 -1.3140 -0.4035
 5594SOL    HW217499   5.911   3.849   0.031  0.2328  0.2969  0.4250
 5595SOL     OW17500   2.101   0.737   2.139 -0.4558  0.0212 -0.0832
 5595SOL    HW117501   2.137   0.775   2.220 -0.0578  1.3473 -0.8738
 5595SOL    HW217502   2.157   0.661   2.122 -0.1607  0.0864  0.5612
 5596SOL     OW17503   4.615   4.229   0.235  0.5891 -0.5752  0.0244
 5596SOL    HW117504   4.662   4.270   0.162  3.3975 -1.8308  1.0567
 5596SOL    HW217505   4.660   4.146   0.249 -2.0378 -1.8860  1.0338
 5597SOL     OW17506   5.215   3.993   6.515  0.0589 -0.9771  0.2080
 5597SOL    HW117507   5.148   4.046   6.472  0.4859  0.0811  0.8178
 5597SOL    HW217508   5.182   3.904   6.510 -1.3486 -0.4794  0.4215
 5598SOL     OW17509   2.737   2.123   2.766  0.1774 -0.1103 -0.3057
 5598SOL    HW117510   2.647   2.141   2.794  0.5771  2.1096 -0.4295
 5598SOL    HW217511   2.739   2.028   2.754 -1.9431 -0.2721  0.4169
 5599SOL     OW17512   4.445   0.370   5.096  0.0180  0.3707  0.3905
 5599SOL    HW117513   4.475   0.382   5.006 -2.4721 -0.2107 -0.5654
 5599SOL    HW217514   4.350   0.379   5.091 -0.3521 -1.6182  2.6158
 5600SOL     OW17515   1.911   3.820   5.997 -0.0016 -0.2761  0.4720
 5600SOL    HW117516   1.820   3.837   5.971  0.2681  0.7614  0.1805
 5600SOL    HW217517   1.939   3.749   5.940 -0.5982 -0.5288  0.4900
 5601SOL     OW17518   3.990   0.441   5.915 -0.2682 -0.1522 -0.4915
 5601SOL    HW117519   3.940   0.399   5.845  0.3774 -0.7937 -0.5675
 5601SOL    HW217520   4.076   0.398   5.913 -1.1384 -2.2455  2.5342
 5602SOL     OW17521   2.637   4.043   4.516 -0.5946  0.0055 -0.3828
 5602SOL    HW117522   2.724   4.043   4.558 -0.5330 -2.7774 -0.4352
 5602SOL    HW217523   2.586   4.106   4.568  1.0382  0.5956  0.5479
 5603SOL     OW17524   5.741   5.729   6.647  0.0993  0.0113  0.2563
 5603SOL    HW117525   5.778   5.647   6.615  1.9605  0.5337  0.9977
 5603SOL    HW217526   5.739   5.787   6.570 -1.0121 -0.6474 -0.2157
 5604SOL     OW17527   2.019   5.683   5.767  0.0837  0.1862 -0.3464
 5604SOL    HW117528   1.941   5.632   5.748 -1.6288  2.0816  1.2884
 5604SOL    HW217529   2.091   5.633   5.730 -1.5412 -3.2415  0.9449
 5605SOL     OW17530   5.143   4.875   2.415  0.0635 -0.3204 -0.2279
 5605SOL    HW117531   5.095   4.796   2.387 -0.5615 -0.3402  0.8789
 5605SOL    HW217532   5.203   4.843   2.482  0.3006  0.0388 -0.2716
 5606SOL     OW17533   6.238   0.436   0.736 -0.1334  0.5043  0.3303
 5606SOL    HW117534   6.312   0.435   0.797  0.0571 -0.0931  0.0873
 5606SOL    HW217535   6.219   0.529   0.723  0.9104  0.6676 -0.0249
 5607SOL     OW17536   0.542   0.334   1.353 -0.7897 -0.0108  0.4510
 5607SOL    HW117537   0.487   0.275   1.405 -0.4667 -0.4754  0.2707
 5607SOL    HW217538   0.483   0.365   1.284 -0.8796 -0.3732  0.3593
 5608SOL     OW17539   1.737   4.974   1.061  0.6240  0.4706  0.1394
 5608SOL    HW117540   1.775   5.058   1.082 -0.7560  1.0288  0.4634
 5608SOL    HW217541   1.658   4.968   1.115 -1.1457  0.4705 -2.3219
 5609SOL     OW17542   5.503   2.420   4.625  0.1440 -0.3402 -0.4989
 5609SOL    HW117543   5.543   2.453   4.544 -0.2354 -0.1763 -0.6215
 5609SOL    HW217544   5.409   2.434   4.612 -0.0420 -1.6248 -0.6249
 5610SOL     OW17545   1.670   4.301   2.945  0.2537  0.0903 -0.0326
 5610SOL    HW117546   1.695   4.209   2.951 -0.7584 -0.1301  1.3936
 5610SOL    HW217547   1.725   4.337   2.877  2.5345 -0.9575  1.2106
 5611SOL     OW17548   3.578   6.710   2.240  0.2792  0.3007 -0.1573
 5611SOL    HW117549   3.485   6.712   2.215 -0.5672  2.7031  3.0010
 5611SOL    HW217550   3.580   6.657   2.319  1.9165 -1.2449 -1.1974
 5612SOL     OW17551   1.440   0.386   5.181  0.0060  0.0204  0.2284
 5612SOL    HW117552   1.528   0.416   5.205  0.4029  1.0158 -2.2554
 5612SOL    HW217553   1.456   0.319   5.114 -1.1063 -0.5459  0.5216
 5613SOL     OW17554   5.371   2.092   2.908 -0.6557  0.0301 -0.2582
 5613SOL    HW117555   5.348   2.119   2.820  0.8623  0.3326 -0.5682
 5613SOL    HW217556   5.459   2.055   2.900 -0.3623  0.3881  1.1851
 5614SOL     OW17557   1.376   5.866   1.447  0.5720  0.2983 -0.2263
 5614SOL    HW117558   1.462   5.877   1.407 -0.4628  1.1318 -2.2775
 5614SOL    HW217559   1.323   5.936   1.410 -0.9864 -0.1809  1.0522
 5615SOL     OW17560   5.188   4.504   0.762 -0.2146  0.0569 -0.1632
 5615SOL    HW117561   5.140   4.455   0.829 -0.6530  1.1058  0.3021
 5615SOL    HW217562   5.144   4.483   0.680  0.4179 -1.3513 -0.1496
 5616SOL     OW17563   4.357   4.697   4.570  0.1756  0.3373  0.2289
 5616SOL    HW117564   4.349   4.653   4.654 -0.4910  2.3435  1.2465
 5616SOL    HW217565   4.413   4.639   4.518 -0.6278 -1.6587  1.5201
 5617SOL     OW17566   2.617   5.160   1.615  0.4869 -0.1478 -0.3943
 5617SOL    HW117567   2.574   5.169   1.529 -0.2149 -0.8898 -0.1243
 5617SOL    HW217568   2.672   5.082   1.606  2.9016  1.5842 -1.1956
 5618SOL     OW17569   3.792   3.556   6.502  0.1654 -0.2286 -0.1414
 5618SOL    HW117570   3.792   3.636   6.555 -1.2942  0.9734 -1.9004
 5618SOL    HW217571   3.843   3.493   6.553 -1.9251  0.6106  3.1082
 5619SOL     OW17572   1.328   4.717   5.616  0.1619  0.2273 -0.1227
 5619SOL    HW117573   1.304   4.778   5.686 -1.5285  2.0593 -2.2118
 5619SOL    HW217574   1.249   4.666   5.599  0.4604 -0.0004 -0.8848
 5620SOL     OW17575   6.320   5.766   4.661 -0.0659  0.0324  0.2955
 5620SOL    HW117576   6.323   5.862   4.654  0.0432 -0.0899 -1.3227
 5620SOL    HW217577   6.407   5.742   4.694  1.3723  0.1930 -3.1483
 5621SOL     OW17578   5.327   6.498   6.702 -0.7258 -0.4185  0.1361
 5621SOL    HW117579   5.398   6.470   6.760 -0.1422  0.0949 -0.3335
 5621SOL    HW217580   5.281   6.416   6.680  1.0924 -1.0708 -1.3716
 5622SOL     OW17581   0.414   3.826   6.457  0.0248  0.0692 -0.5217
 5622SOL    HW117582   0.432   3.744   6.503  0.3409 -0.2371 -1.1726
 5622SOL    HW217583   0.473   3.824   6.381 -0.1986  0.7474 -0.7185
 5623SOL     OW17584   5.190   4.559   6.110 -0.0875  0.0153 -0.0091
 5623SOL    HW117585   5.247   4.561   6.188  0.7498 -1.4989 -0.5707
 5623SOL    HW217586   5.105   4.532   6.144  0.3164 -0.8155  0.3558
 5624SOL     OW17587   5.092   5.267   1.092 -0.1659  0.8158 -0.1104
 5624SOL    HW117588   5.061   5.239   1.006  0.0025  0.0696  0.0720
 5624SOL    HW217589   5.128   5.355   1.076  1.9245 -0.1948 -1.2774
 5625SOL     OW17590   0.897   1.047   1.481 -0.0041  1.2308  0.1382
 5625SOL    HW117591   0.851   0.999   1.550  0.3262  0.0310 -0.4587
 5625SOL    HW217592   0.945   1.116   1.527 -0.5376  1.0317  1.0027
 5626SOL     OW17593   1.784   5.366   2.059  0.3695 -0.6369 -0.1753
 5626SOL    HW117594   1.800   5.441   2.116  2.9191  0.1216 -1.8034
 5626SOL    HW217595   1.745   5.300   2.117 -0.1991  1.2778  1.6780
 5627SOL     OW17596   3.293   5.436   6.307 -0.0318 -0.1324 -0.5075
 5627SOL    HW117597   3.243   5.508   6.347  1.1967  0.2731  0.3396
 5627SOL    HW217598   3.296   5.458   6.214 -1.3219 -0.1015 -0.5492
 5628SOL     OW17599   3.592   1.788   1.177  0.2491  0.0265  0.0135
 5628SOL    HW117600   3.621   1.731   1.248 -2.3885 -0.0154  1.1115
 5628SOL    HW217601   3.526   1.737   1.129 -1.9710  1.9934  0.8668
 5629SOL     OW17602   6.004   5.684   2.837 -0.3683 -0.0129 -0.0912
 5629SOL    HW117603   5.921   5.704   2.881 -2.2928 -1.7982 -2.7830
 5629SOL    HW217604   6.032   5.601   2.876  0.5336  0.8886  1.2519
 5630SOL     OW17605   6.588   4.892   2.486 -0.1469 -0.0589 -0.2910
 5630SOL    HW117606   6.615   4.932   2.404 -1.4713 -1.0400 -1.2325
 5630SOL    HW217607   6.493   4.904   2.489 -0.3045 -1.3169  0.3629
 5631SOL     OW17608   6.449   6.506   3.326  0.7240  0.3440  0.0048
 5631SOL    HW117609   6.448   6.546   3.413  2.0838  1.7335 -0.5991
 5631SOL    HW217610   6.526   6.450   3.326  1.4508  1.3432 -0.7433
 5632SOL     OW17611   3.509   2.238   3.016  0.0699 -0.1368 -0.5365
 5632SOL    HW117612   3.577   2.287   3.060  0.1490  1.2240 -2.1135
 5632SOL    HW217613   3.431   2.251   3.070  1.0031 -1.6044  1.2033
 5633SOL     OW17614   4.957   5.553   0.820 -0.4960  0.2809 -0.0732
 5633SOL    HW117615   5.012   5.570   0.897 -1.6805  0.3348  0.7827
 5633SOL    HW217616   5.014   5.570   0.745  0.6092  0.4553  0.7960
 5634SOL     OW17617   4.430   5.361   3.915 -0.3152  0.3898  0.2459
 5634SOL    HW117618   4.396   5.333   3.830 -1.8023 -1.0219  1.2646
 5634SOL    HW217619   4.394   5.449   3.927  0.4245  0.8532 -0.8504
 5635SOL     OW17620   1.574   3.614   5.567  0.1720 -0.3136 -0.4562
 5635SOL    HW117621   1.489   3.658   5.574  0.9522  1.1815 -0.1711
 5635SOL    HW217622   1.600   3.625   5.476  1.0831  1.2083 -0.0328
 5636SOL     OW17623   1.410   3.290   3.492  0.3271 -0.2973 -0.1662
 5636SOL    HW117624   1.474   3.329   3.434  1.8531  0.3689  1.9156
 5636SOL    HW217625   1.328   3.336   3.473  1.2433  1.2416 -0.4412
 5637SOL     OW17626   4.687   0.493   3.651 -0.1427  0.0363  0.2174
 5637SOL    HW117627   4.695   0.588   3.647  0.9047 -0.0635 -0.2389
 5637SOL    HW217628   4.766   0.465   3.697  0.1269 -0.7001 -0.6907
 5638SOL     OW17629   4.210   2.162   0.873 -0.0685 -0.1693 -0.0234
 5638SOL    HW117630   4.125   2.161   0.828 -0.6196  1.0283  0.9564
 5638SOL    HW217631   4.259   2.233   0.830  0.7249 -1.3394 -1.0796
 5639SOL     OW17632   0.385   0.446   0.020 -0.0415 -0.2998 -0.0857
 5639SOL    HW117633   0.360   0.477  -0.067 -2.3713 -2.3537 -0.2151
 5639SOL    HW217634   0.368   0.520   0.078  0.3083  0.6572 -1.1920
 5640SOL     OW17635   2.088   6.704   1.849  0.1040  0.4404 -0.2768
 5640SOL    HW117636   2.121   6.616   1.869  0.6506  1.1763  2.1345
 5640SOL    HW217637   2.001   6.706   1.889  0.9081  1.6691  1.4507
 5641SOL     OW17638   5.830   1.822   1.679 -0.1405  0.2139  0.2903
 5641SOL    HW117639   5.784   1.741   1.658 -0.3223 -0.1556  2.0946
 5641SOL    HW217640   5.907   1.820   1.623  0.1131 -1.4411  0.6686
 5642SOL     OW17641   3.110   4.821   6.658  0.8232 -0.7138 -0.2321
 5642SOL    HW117642   3.198   4.822   6.696  0.7265  0.5477 -0.0291
 5642SOL    HW217643   3.052   4.800   6.731  0.9743 -1.7878 -0.4156
 5643SOL     OW17644   6.018   0.131   5.335  0.1166 -0.6410 -0.3932
 5643SOL    HW117645   5.961   0.162   5.405  0.3129 -0.5804 -0.2583
 5643SOL    HW217646   6.085   0.079   5.380  0.5803 -0.1211 -0.4711
 5644SOL     OW17647   6.203   5.499   2.666  0.3576  0.2562 -0.1288
 5644SOL    HW117648   6.112   5.509   2.696 -0.2651 -0.2845 -1.7461
 5644SOL    HW217649   6.221   5.578   2.616  1.1246  0.8061  1.0001
 5645SOL     OW17650   1.125   0.783   2.516 -0.5083 -0.2355  0.3156
 5645SOL    HW117651   1.053   0.846   2.524 -1.4043 -1.3367  1.0002
 5645SOL    HW217652   1.116   0.748   2.427 -1.3054 -0.9689  0.6896
 5646SOL     OW17653   0.533   3.089   0.176  0.3500  0.1516 -0.4698
 5646SOL    HW117654   0.537   3.165   0.118  1.2465  0.8074  0.4420
 5646SOL    HW217655   0.496   3.019   0.121 -0.1119  1.1273 -1.4248
 5647SOL     OW17656   5.590   3.815   2.713 -0.0319 -0.0139 -0.8259
 5647SOL    HW117657   5.510   3.808   2.766 -0.4954 -0.7277 -1.6133
 5647SOL    HW217658   5.559   3.834   2.625  0.6174 -1.2838 -1.3319
 5648SOL     OW17659   3.604   5.562   5.131 -0.0049 -0.2304  0.5410
 5648SOL    HW117660   3.657   5.641   5.127  1.4637 -1.1091  1.9726
 5648SOL    HW217661   3.617   5.519   5.046  0.7662  0.0825  0.4972
 5649SOL     OW17662   5.148   4.388   4.448  0.1471  0.6814 -0.4320
 5649SOL    HW117663   5.208   4.315   4.463 -0.8536 -0.0719 -0.0139
 5649SOL    HW217664   5.191   4.440   4.380  2.2899  1.3393  1.3662
 5650SOL     OW17665   4.698   3.174   0.335 -0.0487  0.2421 -0.6737
 5650SOL    HW117666   4.761   3.102   0.333 -1.3943 -0.9716 -0.2147
 5650SOL    HW217667   4.612   3.131   0.334 -0.8792  1.8624 -1.3129
 5651SOL     OW17668   0.109   3.037   1.328  0.2435 -0.0916 -0.5154
 5651SOL    HW117669   0.033   3.085   1.359 -0.1552 -0.3123 -1.1428
 5651SOL    HW217670   0.181   3.100   1.336  0.2863 -0.3461  1.4461
 5652SOL     OW17671   3.354   5.997   6.652 -0.4170  0.0295 -0.0035
 5652SOL    HW117672   3.297   6.066   6.686  0.3146  0.7934 -0.3044
 5652SOL    HW217673   3.441   6.038   6.647 -0.4722 -0.0656 -2.6927
 5653SOL     OW17674   1.755   5.029   5.641  0.2201  0.0099 -0.0294
 5653SOL    HW117675   1.741   5.101   5.703 -1.6370  0.8761 -1.3871
 5653SOL    HW217676   1.725   4.951   5.688 -0.5159  0.5534  0.4189
 5654SOL     OW17677   4.173   3.467   6.307 -0.0766  0.6527 -0.2893
 5654SOL    HW117678   4.231   3.485   6.233  0.3618  0.9976  0.1380
 5654SOL    HW217679   4.213   3.513   6.381 -0.0057 -0.4538  0.3741
 5655SOL     OW17680   5.713   3.431   3.586  0.0843 -0.0857  0.3490
 5655SOL    HW117681   5.764   3.448   3.665  0.9793 -1.6017  0.1235
 5655SOL    HW217682   5.741   3.498   3.524  1.9485 -0.9868  0.1816
 5656SOL     OW17683   6.708   1.941   4.781 -0.1419 -0.0724 -0.0208
 5656SOL    HW117684   6.672   2.029   4.793 -0.7743 -0.7965  4.2188
 5656SOL    HW217685   6.793   1.944   4.826  0.7892 -1.0480 -1.6830
 5657SOL     OW17686   2.267   2.670   5.171 -0.5240  0.0348  0.2860
 5657SOL    HW117687   2.200   2.732   5.140 -0.6483  0.9723  2.3794
 5657SOL    HW217688   2.223   2.621   5.240 -0.1730 -1.9044 -0.8195
 5658SOL     OW17689   6.505   0.284   6.279  0.3544 -0.2731 -0.2266
 5658SOL    HW117690   6.516   0.194   6.248 -0.4942 -0.4227 -0.1160
 5658SOL    HW217691   6.412   0.291   6.301  0.5242  0.4626  0.3080
 5659SOL     OW17692   3.042   1.694   0.550 -0.1946 -0.5779  0.1779
 5659SOL    HW117693   2.965   1.746   0.574 -0.6710 -0.4554 -1.5230
 5659SOL    HW217694   3.070   1.653   0.632 -2.4903 -1.1891  0.6787
 5660SOL     OW17695   5.998   6.094   3.467 -0.1185  0.0878 -1.1679
 5660SOL    HW117696   5.983   6.047   3.385 -0.6706  0.1980 -1.1292
 5660SOL    HW217697   5.974   6.184   3.447  0.3746  0.2417 -1.0718
 5661SOL     OW17698   3.338   1.648   5.940  0.6826  0.4367  0.6597
 5661SOL    HW117699   3.292   1.721   5.982  1.0974  1.2193 -0.2165
 5661SOL    HW217700   3.313   1.571   5.991 -1.9597  0.7715 -0.0557
 5662SOL     OW17701   4.928   4.900   4.794  0.3742 -0.4383 -0.0128
 5662SOL    HW117702   4.979   4.939   4.865 -1.1923  0.3204  0.7020
 5662SOL    HW217703   4.933   4.964   4.722 -0.5287  0.1599  0.4580
 5663SOL     OW17704   3.533   1.099   4.762 -0.3030 -0.1782 -0.0402
 5663SOL    HW117705   3.507   1.026   4.707  1.3349  0.4406 -1.6936
 5663SOL    HW217706   3.592   1.061   4.827 -0.3645 -0.5373 -0.1959
 5664SOL     OW17707   5.179   2.782   1.678  0.4753 -0.0888 -0.1409
 5664SOL    HW117708   5.191   2.739   1.762  1.1582  1.8269  0.7629
 5664SOL    HW217709   5.268   2.793   1.644  0.1981 -0.9318 -1.1515
 5665SOL     OW17710   2.994   0.399   5.583 -0.6491  0.1326  0.3724
 5665SOL    HW117711   2.992   0.326   5.645  2.9071 -1.5324 -1.2988
 5665SOL    HW217712   3.056   0.461   5.621 -1.8776  1.2211  0.6342
 5666SOL     OW17713   1.216   4.709   1.207 -0.0002 -0.5380 -0.5277
 5666SOL    HW117714   1.161   4.776   1.164 -0.7614 -0.4039  0.6269
 5666SOL    HW217715   1.295   4.706   1.153  0.3612  1.8267 -0.2093
 5667SOL     OW17716   5.862   3.865   5.893  0.1694 -0.0159  0.0403
 5667SOL    HW117717   5.826   3.861   5.804 -2.8250  0.1829  1.1763
 5667SOL    HW217718   5.862   3.774   5.923  2.2804 -0.2358 -0.5319
 5668SOL     OW17719   2.608   6.696   0.801  0.1563  0.2388  0.6688
 5668SOL    HW117720   2.656   6.621   0.765 -0.5870 -0.0566  0.2935
 5668SOL    HW217721   2.583   6.747   0.724  0.0695  0.5149  0.8815
 5669SOL     OW17722   3.612   4.673   0.356  0.1781  0.1008 -0.3140
 5669SOL    HW117723   3.644   4.592   0.316  3.7420  1.1566  0.1765
 5669SOL    HW217724   3.561   4.715   0.287  0.0700 -1.5454 -1.2785
 5670SOL     OW17725   2.312   0.416   5.527  0.2376  0.2606 -0.0420
 5670SOL    HW117726   2.293   0.377   5.442 -1.9362  0.9904  0.0882
 5670SOL    HW217727   2.340   0.342   5.581  1.6737 -0.2069 -1.3717
 5671SOL     OW17728   0.524   6.499   3.497 -0.0413 -0.4805  0.0949
 5671SOL    HW117729   0.573   6.554   3.557  1.9156 -1.8759 -0.1608
 5671SOL    HW217730   0.432   6.518   3.516  0.5627  1.9061  0.8609
 5672SOL     OW17731   4.521   0.534   6.104 -0.1985 -0.1220 -0.2969
 5672SOL    HW117732   4.440   0.539   6.053 -0.1210 -0.1098 -0.4209
 5672SOL    HW217733   4.529   0.620   6.145 -2.1054 -1.2158  2.5891
 5673SOL     OW17734   0.786   5.369   1.224 -0.1937 -0.8686  0.6116
 5673SOL    HW117735   0.723   5.379   1.295 -2.1881  0.9264 -1.3495
 5673SOL    HW217736   0.755   5.293   1.174  0.8892 -1.7894  1.3149
 5674SOL     OW17737   1.264   0.300   2.881  0.2009  0.2377 -0.2281
 5674SOL    HW117738   1.353   0.280   2.852 -0.2340 -0.7335 -0.9102
 5674SOL    HW217739   1.208   0.238   2.834 -0.6158 -0.8052  2.0702
 5675SOL     OW17740   2.823   6.487   2.465 -0.0024 -0.4534 -0.0231
 5675SOL    HW117741   2.769   6.417   2.428  0.9161 -2.2528  1.9639
 5675SOL    HW217742   2.806   6.482   2.559  1.7923  0.5322  0.3651
 5676SOL     OW17743   0.682   0.271   6.714 -0.1183 -0.6267 -0.4818
 5676SOL    HW117744   0.680   0.363   6.739 -0.8225 -1.1401  1.4269
 5676SOL    HW217745   0.651   0.224   6.791  1.6190 -2.5841 -0.9128
 5677SOL     OW17746   1.090   2.332   5.766 -0.0205 -0.4842 -0.6793
 5677SOL    HW117747   1.183   2.356   5.773 -0.1709  0.2382 -1.0991
 5677SOL    HW217748   1.083   2.290   5.681 -0.1565 -0.1805 -0.8177
 5678SOL     OW17749   0.404   3.316   3.041  0.1233 -0.1667  0.5751
 5678SOL    HW117750   0.322   3.347   3.080 -0.4273 -1.6048  0.6333
 5678SOL    HW217751   0.382   3.301   2.949  0.3147 -0.5595  0.5923
 5679SOL     OW17752   3.126   4.917   5.959  0.0733 -0.3371 -0.1592
 5679SOL    HW117753   3.184   4.857   6.005  1.1778  1.1273  0.3919
 5679SOL    HW217754   3.171   4.934   5.876  0.4874  0.8176  0.2794
 5680SOL     OW17755   1.040   3.060   1.830 -0.2822  0.2235  0.3265
 5680SOL    HW117756   0.983   3.136   1.825 -0.9087 -0.0791  2.2865
 5680SOL    HW217757   1.023   3.011   1.750 -2.0391  0.6385  0.4383
 5681SOL     OW17758   5.070   2.318   2.309  0.6643 -0.2669  0.3144
 5681SOL    HW117759   5.161   2.293   2.326  0.5695 -0.0404  1.2177
 5681SOL    HW217760   5.046   2.371   2.386 -0.4675 -0.9738  0.4516
 5682SOL     OW17761   1.514   4.254   3.536  0.1220 -0.8598  0.3810
 5682SOL    HW117762   1.491   4.227   3.447  0.2754 -2.2457  0.7504
 5682SOL    HW217763   1.431   4.250   3.584 -0.0272  0.2264  0.2267
 5683SOL     OW17764   2.310   4.835   3.112 -0.0618  0.2994 -0.2917
 5683SOL    HW117765   2.325   4.917   3.066  1.6080 -0.2187 -0.7019
 5683SOL    HW217766   2.339   4.851   3.202  0.9219 -0.0401 -0.5430
 5684SOL     OW17767   3.738   1.005   1.054 -0.2084  0.5877 -0.2718
 5684SOL    HW117768   3.823   1.050   1.051  1.0727 -1.8672 -2.3670
 5684SOL    HW217769   3.746   0.946   1.129 -0.2700  0.7080 -0.1694
 5685SOL     OW17770   2.735   6.324   0.982 -0.2741  0.6074 -0.1393
 5685SOL    HW117771   2.778   6.239   0.981 -0.7279  0.3636  0.5638
 5685SOL    HW217772   2.797   6.384   0.940 -0.1740 -0.1675 -1.1124
 5686SOL     OW17773   3.312   3.792   3.016  0.1840 -0.6486 -0.6811
 5686SOL    HW117774   3.257   3.714   3.009  0.2081 -0.7676  0.4020
 5686SOL    HW217775   3.260   3.862   2.976 -0.2052 -1.0290 -0.8456
 5687SOL     OW17776   6.529   3.738   4.693 -0.2398 -0.7167  0.4583
 5687SOL    HW117777   6.482   3.696   4.620 -0.4857 -0.0879  0.2517
 5687SOL    HW217778   6.518   3.677   4.766  0.7413 -1.7682 -0.2575
 5688SOL     OW17779   2.325   1.481   5.063 -0.0363  0.0292  0.4841
 5688SOL    HW117780   2.375   1.561   5.049 -1.5788  0.8674 -0.3154
 5688SOL    HW217781   2.251   1.508   5.118 -0.0939 -1.0304  0.9418
 5689SOL     OW17782   6.251   2.210   2.331  0.0814 -0.3418 -0.1840
 5689SOL    HW117783   6.295   2.145   2.277 -1.2387  0.2532 -1.9980
 5689SOL    HW217784   6.269   2.293   2.289  1.7057  0.5151  2.0853
 5690SOL     OW17785   0.334   3.546   3.638 -0.0885 -0.1228 -0.3114
 5690SOL    HW117786   0.240   3.534   3.622 -0.2415  2.0482 -1.2090
 5690SOL    HW217787   0.339   3.577   3.728 -0.3791  1.2072 -0.7366
 5691SOL     OW17788   5.839   2.478   1.466 -0.0380 -0.9149 -0.2936
 5691SOL    HW117789   5.867   2.403   1.519 -2.5594 -1.0529  0.9331
 5691SOL    HW217790   5.778   2.441   1.402 -3.6386  0.3679  2.1882
 5692SOL     OW17791   4.274   4.106   6.529 -0.0819  0.2629  0.3608
 5692SOL    HW117792   4.317   4.023   6.548 -1.9913 -0.6325  0.9259
 5692SOL    HW217793   4.246   4.099   6.438  0.3234  0.5538  0.2120
 5693SOL     OW17794   4.387   5.659   1.323  0.0789  0.3163  0.0789
 5693SOL    HW117795   4.330   5.708   1.383 -1.3299 -0.8327 -0.2681
 5693SOL    HW217796   4.469   5.706   1.323  0.6729 -0.5192  4.1591
 5694SOL     OW17797   6.197   1.998   1.698 -0.0969 -0.2268 -0.6155
 5694SOL    HW117798   6.292   1.991   1.684  0.0046 -0.1110  0.0091
 5694SOL    HW217799   6.186   2.081   1.745 -0.4926 -0.3371 -0.5165
 5695SOL     OW17800   3.224   4.539   2.109 -0.2729 -0.1993  0.3925
 5695SOL    HW117801   3.202   4.490   2.030  1.3730  0.5601 -0.5771
 5695SOL    HW217802   3.313   4.511   2.131 -0.3228  0.3794  1.3634
 5696SOL     OW17803   3.778   4.166   3.358  0.6986  0.5079 -0.2945
 5696SOL    HW117804   3.744   4.078   3.376 -0.3580  0.8991 -0.3355
 5696SOL    HW217805   3.839   4.153   3.286 -1.1300  0.1071 -1.8248
 5697SOL     OW17806   0.024   0.953   5.290 -0.1111 -0.3632 -0.3357
 5697SOL    HW117807   0.084   0.881   5.269 -0.0392  0.1681 -2.0322
 5697SOL    HW217808  -0.032   0.960   5.213 -0.5841  0.9161  0.1236
 5698SOL     OW17809   3.777   3.403   5.522 -0.4538 -0.3246  0.8412
 5698SOL    HW117810   3.696   3.406   5.573 -0.1274  0.8940  1.3114
 5698SOL    HW217811   3.788   3.492   5.489 -0.2263 -0.9066 -0.6950
 5699SOL     OW17812   3.257   5.497   1.399 -0.4449 -0.5226  0.0796
 5699SOL    HW117813   3.260   5.529   1.308 -1.2418 -0.6985 -0.0187
 5699SOL    HW217814   3.186   5.548   1.439  1.0239  0.7568  1.0830
 5700SOL     OW17815   3.404   2.723   5.490 -0.4335  0.1025 -0.3063
 5700SOL    HW117816   3.396   2.630   5.469  1.7565  0.4214 -2.8177
 5700SOL    HW217817   3.339   2.766   5.435  1.2973  0.3846 -2.1998
 5701SOL     OW17818   2.304   5.500   2.380  0.1608 -0.4582 -0.4263
 5701SOL    HW117819   2.291   5.423   2.434  2.8687 -2.2040 -2.1398
 5701SOL    HW217820   2.232   5.498   2.317 -0.8886 -0.4737  0.7617
 5702SOL     OW17821   5.793   1.542   2.839  0.2006  0.1786 -0.6024
 5702SOL    HW117822   5.717   1.544   2.781  0.6438  0.5781 -1.1798
 5702SOL    HW217823   5.833   1.457   2.824 -0.7083 -0.4407  0.4570
 5703SOL     OW17824   5.874   0.851   2.299 -0.3573  0.4337 -0.1123
 5703SOL    HW117825   5.957   0.804   2.289 -0.0732  0.7694  0.5694
 5703SOL    HW217826   5.891   0.937   2.262  0.3928  1.3427  2.2063
 5704SOL     OW17827   2.013   2.021   2.258 -0.3328 -0.2568 -0.1777
 5704SOL    HW117828   1.939   2.071   2.293  0.3266  0.5017  0.1657
 5704SOL    HW217829   2.001   1.933   2.293 -0.9537 -0.0880  0.0522
 5705SOL     OW17830   1.767   4.552   3.924 -0.2910  0.4589  0.3633
 5705SOL    HW117831   1.827   4.593   3.861 -0.3208  1.1563  0.7797
 5705SOL    HW217832   1.700   4.512   3.870 -0.5615  1.4475 -0.0513
 5706SOL     OW17833   2.260   4.972   1.023  0.1553 -0.0054 -0.3417
 5706SOL    HW117834   2.174   4.934   1.006  0.2926  0.3430 -1.9414
 5706SOL    HW217835   2.321   4.914   0.977  0.8515 -0.5938  1.2885
 5707SOL     OW17836   2.919   0.081   5.963  0.1072 -0.1358 -0.1854
 5707SOL    HW117837   2.884  -0.002   5.994 -0.6238  0.4080  0.5093
 5707SOL    HW217838   3.013   0.068   5.956 -0.0744 -1.1953 -0.6563
 5708SOL     OW17839   5.293   1.600   6.515 -0.1049  0.1252 -0.1479
 5708SOL    HW117840   5.281   1.691   6.544 -1.1656  0.2335 -0.8955
 5708SOL    HW217841   5.253   1.598   6.428 -2.7496 -1.7618  1.0346
 5709SOL     OW17842   0.091   1.778   5.661 -0.0753  0.4835 -0.3292
 5709SOL    HW117843   0.115   1.688   5.637  0.5447  0.0982  1.6282
 5709SOL    HW217844   0.167   1.831   5.635  0.4808  0.1094  0.5055
 5710SOL     OW17845   6.378   3.764   6.105 -0.8382  0.0290  0.1380
 5710SOL    HW117846   6.356   3.682   6.149  0.4940 -1.2267 -1.4603
 5710SOL    HW217847   6.293   3.801   6.080 -1.5436  0.1996  2.6959
 5711SOL     OW17848   6.620   4.037   0.853  0.0789 -0.3338 -0.5654
 5711SOL    HW117849   6.580   4.111   0.898  1.2371  0.1114 -0.2572
 5711SOL    HW217850   6.654   4.073   0.771  2.3674 -0.0741  0.4490
 5712SOL     OW17851   2.895   1.951   5.627  0.0573  0.4571 -0.0068
 5712SOL    HW117852   2.836   1.882   5.656  0.4976 -0.1790 -0.6156
 5712SOL    HW217853   2.866   1.971   5.538  0.4106  0.5395 -0.1023
 5713SOL     OW17854   2.413   5.847   0.311  0.1437 -0.4774 -0.9376
 5713SOL    HW117855   2.465   5.837   0.391 -1.0403  1.1985  0.0908
 5713SOL    HW217856   2.364   5.765   0.303 -0.0168 -0.5071  0.2841
 5714SOL     OW17857   1.794   2.162   2.680 -0.0553 -0.4256 -0.0975
 5714SOL    HW117858   1.813   2.068   2.685  0.0482 -0.3393  1.2202
 5714SOL    HW217859   1.749   2.172   2.595  0.4487 -1.5623 -0.5153
 5715SOL     OW17860   3.335   1.428   6.496  0.2235  0.8443  0.3543
 5715SOL    HW117861   3.371   1.495   6.438 -0.3781  0.7209 -0.1662
 5715SOL    HW217862   3.240   1.431   6.480  0.4730 -2.4834 -2.1817
 5716SOL     OW17863   6.122   3.539   5.925  0.2485  0.1149 -0.6299
 5716SOL    HW117864   6.130   3.609   5.989 -0.3664 -1.0546  0.7515
 5716SOL    HW217865   6.176   3.468   5.960  1.2062  0.0270 -2.2230
 5717SOL     OW17866   4.467   4.011   3.762  0.6043  0.5675  0.1733
 5717SOL    HW117867   4.483   4.042   3.851  2.8194  1.8682 -0.6423
 5717SOL    HW217868   4.439   4.089   3.714 -1.1932 -0.2472 -0.1530
 5718SOL     OW17869   6.753   1.412   3.522 -0.5207  0.2952  0.2805
 5718SOL    HW117870   6.843   1.400   3.551 -0.0213  0.2777 -1.2442
 5718SOL    HW217871   6.754   1.496   3.475 -1.4381  0.6052  0.8111
 5719SOL     OW17872   6.577   2.689   4.795  0.1105  0.3145 -0.3792
 5719SOL    HW117873   6.630   2.769   4.796  1.9474 -0.8757  0.4777
 5719SOL    HW217874   6.568   2.668   4.702  0.8048  0.7597 -0.5520
 5720SOL     OW17875   2.092   1.523   0.596  0.1591 -0.2288  0.1557
 5720SOL    HW117876   2.096   1.504   0.689  0.1524 -0.7066  0.0577
 5720SOL    HW217877   2.158   1.466   0.557 -0.2505 -0.4608 -0.2037
 5721SOL     OW17878   6.599   1.571   4.458  0.3162 -0.2701 -0.5196
 5721SOL    HW117879   6.598   1.525   4.374  1.9396 -2.1507  0.4464
 5721SOL    HW217880   6.574   1.505   4.522 -4.2417  1.9885  0.1678
 5722SOL     OW17881   4.243   4.531   5.312 -0.7989 -0.1132  0.2142
 5722SOL    HW117882   4.273   4.584   5.385 -1.9187  0.0601  0.5549
 5722SOL    HW217883   4.148   4.531   5.319 -0.8929 -0.6174 -0.8752
 5723SOL     OW17884   1.488   4.878   0.789 -0.6598  0.0549  0.1928
 5723SOL    HW117885   1.571   4.926   0.794 -1.2352  1.2990 -1.6615
 5723SOL    HW217886   1.506   4.794   0.832  1.5845  0.2515 -0.3022
 5724SOL     OW17887   6.401   2.669   2.042 -0.1679  0.4075  0.8309
 5724SOL    HW117888   6.378   2.581   2.074 -0.9165  0.8879  1.6430
 5724SOL    HW217889   6.436   2.654   1.954 -0.8337 -0.6467  0.7341
 5725SOL     OW17890   1.187   5.581   2.403  0.3024 -0.0476  0.0832
 5725SOL    HW117891   1.222   5.492   2.394 -1.8013 -1.0436  1.3470
 5725SOL    HW217892   1.092   5.569   2.406 -0.2270  2.5242 -3.0267
 5726SOL     OW17893   4.077   5.754   6.274  0.3022 -0.2234 -0.4712
 5726SOL    HW117894   4.056   5.794   6.358  2.9835  0.1353  0.0801
 5726SOL    HW217895   4.031   5.808   6.210  1.3518  1.9007  0.4961
 5727SOL     OW17896   0.578   6.587   3.002 -0.4022 -0.4604 -0.3892
 5727SOL    HW117897   0.572   6.592   3.098 -1.2500  0.8568 -0.4995
 5727SOL    HW217898   0.652   6.529   2.986 -1.3909 -2.1587  1.0678
 5728SOL     OW17899   4.337   0.304   3.004  0.1604 -0.2078  0.2348
 5728SOL    HW117900   4.425   0.321   2.968  0.4417 -0.3780  0.8327
 5728SOL    HW217901   4.346   0.221   3.050 -0.8334 -1.2595 -1.4184
 5729SOL     OW17902   6.013   3.415   5.648 -0.8530  0.2978 -0.5126
 5729SOL    HW117903   6.033   3.355   5.720 -1.8252 -0.7297 -1.0896
 5729SOL    HW217904   6.099   3.448   5.621 -0.4517  0.5383  0.9698
 5730SOL     OW17905   4.878   2.510   5.008 -0.5101  0.5500 -0.3703
 5730SOL    HW117906   4.839   2.543   4.927  2.7820  0.8757 -1.8967
 5730SOL    HW217907   4.931   2.583   5.040 -0.2076 -0.2612  1.0116
 5731SOL     OW17908   3.066   4.016   2.661  0.1286  0.1178  0.5315
 5731SOL    HW117909   2.974   4.028   2.639  1.0720  1.7020 -2.7170
 5731SOL    HW217910   3.078   3.921   2.665 -1.2880 -0.1044 -0.5551
 5732SOL     OW17911   5.935   1.355   2.425  0.0940 -0.5986 -0.9996
 5732SOL    HW117912   5.850   1.312   2.413  0.4687 -0.9199 -2.6336
 5732SOL    HW217913   5.914   1.446   2.445 -0.6788 -1.2100  1.0845
 5733SOL     OW17914   0.085   0.226   2.686 -0.3360 -0.2251 -0.2854
 5733SOL    HW117915   0.006   0.175   2.670 -1.3990  1.0086  0.9360
 5733SOL    HW217916   0.156   0.161   2.688 -0.9281 -1.0804 -3.8539
 5734SOL     OW17917   4.752   2.871   5.883 -0.1104 -0.1002  0.2777
 5734SOL    HW117918   4.767   2.950   5.833 -1.1411  0.6056  1.0576
 5734SOL    HW217919   4.839   2.842   5.910  0.3667  0.0508 -1.0813
 5735SOL     OW17920   1.995   0.727   4.599 -0.0575  0.5269 -0.0530
 5735SOL    HW117921   1.907   0.757   4.576 -0.2991  0.0964  0.2825
 5735SOL    HW217922   2.039   0.804   4.634 -0.6744  0.4913  0.8168
 5736SOL     OW17923   6.528   2.454   6.566  0.1909  0.0021 -0.2087
 5736SOL    HW117924   6.596   2.456   6.499 -0.6450  0.9808 -1.0359
 5736SOL    HW217925   6.576   2.445   6.648  1.5188  3.4509 -0.5326
 5737SOL     OW17926   5.222   0.380   1.023  0.3088  0.1319  0.6717
 5737SOL    HW117927   5.159   0.325   1.069  0.7131  1.1294  2.4594
 5737SOL    HW217928   5.300   0.325   1.014  0.1003 -0.1913  0.8406
 5738SOL     OW17929   5.711   2.130   3.981 -0.4236 -0.2876  0.3956
 5738SOL    HW117930   5.633   2.181   3.958  0.5218  1.2727  0.5750
 5738SOL    HW217931   5.753   2.181   4.049  0.4150 -1.4645  0.7641
 5739SOL     OW17932   4.708   5.454   3.880 -0.2881  0.2512  1.0156
 5739SOL    HW117933   4.615   5.432   3.877  0.0629 -1.4142  1.6538
 5739SOL    HW217934   4.750   5.376   3.918  1.6274  0.1669 -1.1902
 5740SOL     OW17935   5.537   0.839   5.784 -0.3988 -0.1067  0.2645
 5740SOL    HW117936   5.471   0.770   5.782  0.6311 -1.0723 -0.8354
 5740SOL    HW217937   5.586   0.828   5.702 -0.9273  2.6181 -0.4577
 5741SOL     OW17938   3.017   2.351   3.510 -0.0775  0.3656  0.1439
 5741SOL    HW117939   2.982   2.408   3.442 -0.9955 -0.0305  0.2835
 5741SOL    HW217940   2.979   2.265   3.492 -1.3613  0.5297  1.9246
 5742SOL     OW17941   6.074   6.762   0.256 -0.3467  0.2447 -0.4775
 5742SOL    HW117942   6.121   6.687   0.218 -1.8001  0.2606 -2.3991
 5742SOL    HW217943   5.994   6.724   0.292  0.1465  0.5123  0.9120
 5743SOL     OW17944   4.909   4.826   5.527 -0.1302 -0.1618  0.1512
 5743SOL    HW117945   4.956   4.844   5.608  0.6230  2.4388 -0.8323
 5743SOL    HW217946   4.947   4.744   5.496 -0.5895 -1.3115  2.5166
 5744SOL     OW17947   2.383   1.874   5.638 -0.3369  0.3988 -0.2957
 5744SOL    HW117948   2.312   1.935   5.617 -1.6722 -0.9299  0.2135
 5744SOL    HW217949   2.412   1.842   5.552  0.4402  1.8184 -0.5658
 5745SOL     OW17950   0.607   4.114   4.972 -0.0463  0.1220  0.1400
 5745SOL    HW117951   0.566   4.083   5.052 -1.5513 -2.4061 -1.5227
 5745SOL    HW217952   0.534   4.130   4.912  1.0246  2.4068 -0.6229
 5746SOL     OW17953   6.317   4.221   5.215  1.0129 -0.0033  0.5492
 5746SOL    HW117954   6.247   4.158   5.195  1.7164 -0.7227  0.3069
 5746SOL    HW217955   6.338   4.205   5.307  1.7933 -0.7436  0.2528
 5747SOL     OW17956   3.028   5.601   6.239  0.5016 -0.3586 -0.0878
 5747SOL    HW117957   3.016   5.507   6.253 -0.6427 -0.1845  0.1438
 5747SOL    HW217958   2.983   5.642   6.313  2.1738  0.3439  0.5630
 5748SOL     OW17959   5.857   0.498   0.598 -0.0290 -0.2842 -0.7082
 5748SOL    HW117960   5.873   0.522   0.689  1.7902 -0.4786 -0.9630
 5748SOL    HW217961   5.852   0.581   0.552 -2.6659 -0.1041 -0.1975
 5749SOL     OW17962   0.328   0.226   1.504  0.4087  0.6336 -0.1330
 5749SOL    HW117963   0.262   0.157   1.509  0.1266  0.8245 -1.1545
 5749SOL    HW217964   0.313   0.280   1.582  1.1185 -0.8848  1.0787
 5750SOL     OW17965   5.871   4.151   3.371  0.3443  0.4244 -0.0508
 5750SOL    HW117966   5.829   4.162   3.286  0.4574  1.7965  0.0545
 5750SOL    HW217967   5.965   4.164   3.354  0.6539 -1.7361 -0.1300
 5751SOL     OW17968   5.083   1.264   2.664 -0.3667  0.6799 -0.5203
 5751SOL    HW117969   5.065   1.348   2.706 -2.4543 -0.8192  1.6678
 5751SOL    HW217970   5.037   1.200   2.717  0.0534 -1.7248 -2.9536
 5752SOL     OW17971   0.591   6.265   0.162  0.1022 -0.2166  0.1320
 5752SOL    HW117972   0.525   6.321   0.122  0.8364  0.4010 -0.2291
 5752SOL    HW217973   0.543   6.185   0.187 -0.2729 -0.8613 -2.5027
 5753SOL     OW17974   5.945   3.523   6.262  0.4756  0.1888  0.7859
 5753SOL    HW117975   5.881   3.499   6.329  1.1016  3.5044  2.6332
 5753SOL    HW217976   5.891   3.551   6.187 -0.2175 -0.4963  1.0179
 5754SOL     OW17977   3.424   0.793   4.283 -0.0424  0.3189  0.0223
 5754SOL    HW117978   3.373   0.787   4.202  1.0448 -2.8876 -0.5068
 5754SOL    HW217979   3.504   0.839   4.258 -0.0852  0.0904 -0.5370
 5755SOL     OW17980   4.144   6.361   1.147  0.2270 -0.3314 -0.1558
 5755SOL    HW117981   4.151   6.454   1.126 -0.4957 -0.1053  0.5789
 5755SOL    HW217982   4.208   6.319   1.089  0.5566  0.6144 -0.4994
 5756SOL     OW17983   4.593   5.363   1.146 -0.1914  0.2067 -0.0996
 5756SOL    HW117984   4.620   5.405   1.064  0.3600  0.2049  0.0757
 5756SOL    HW217985   4.514   5.314   1.124  1.5182 -2.0830 -1.3063
 5757SOL     OW17986   2.029   0.268   5.720  0.1011  0.2082  0.0043
 5757SOL    HW117987   2.079   0.204   5.772  0.0913  0.1006 -0.1195
 5757SOL    HW217988   2.061   0.353   5.751  0.5324  0.1374 -0.2447
 5758SOL     OW17989   4.973   1.624   5.995 -0.3338  0.3513  0.6555
 5758SOL    HW117990   5.004   1.687   5.931 -1.7748 -0.3326 -0.7673
 5758SOL    HW217991   4.914   1.674   6.052 -1.0304  0.4330 -0.1211
 5759SOL     OW17992   6.288   2.529   0.709 -0.1151  0.2496  0.1880
 5759SOL    HW117993   6.318   2.576   0.786  0.7101  0.9685 -0.5575
 5759SOL    HW217994   6.337   2.568   0.636 -1.7763  0.4318 -0.8660
 5760SOL     OW17995   0.221   4.304   6.486 -0.3084 -0.0778  0.5713
 5760SOL    HW117996   0.208   4.336   6.576 -3.1427 -0.9569  0.5254
 5760SOL    HW217997   0.190   4.376   6.431 -2.4387 -1.0793  0.4020
 5761SOL     OW17998   5.846   5.411   4.355  0.0527 -0.2852 -0.0216
 5761SOL    HW117999   5.890   5.327   4.337 -0.3631  0.1778 -3.4740
 5761SOL    HW218000   5.787   5.392   4.427  2.0903 -2.2201  1.2191
 5762SOL     OW18001   1.799   0.938   3.857 -0.1227 -0.0463  0.4849
 5762SOL    HW118002   1.730   0.872   3.858 -0.7129  0.5755  1.0913
 5762SOL    HW218003   1.771   1.003   3.922  1.2291  0.0038  1.0290
 5763SOL     OW18004   2.208   6.668   6.653  0.2116 -0.5045 -0.2867
 5763SOL    HW118005   2.282   6.724   6.628 -0.4289  0.6894  0.4329
 5763SOL    HW218006   2.217   6.656   6.748 -0.1341 -0.9239 -0.3036
 5764SOL     OW18007   1.446   2.497   2.155  0.1484 -0.1486 -0.1028
 5764SOL    HW118008   1.417   2.535   2.238 -0.5120  0.1103 -0.4459
 5764SOL    HW218009   1.505   2.426   2.180 -1.7038 -1.4619  0.6706
 5765SOL     OW18010   6.535   5.432   3.267  0.4201  0.1515 -0.0657
 5765SOL    HW118011   6.476   5.382   3.323  0.1118  0.0028 -0.5196
 5765SOL    HW218012   6.483   5.508   3.239  0.5506  0.1921 -0.2005
 5766SOL     OW18013   4.110   3.693   1.100 -0.0746  0.2711  0.4818
 5766SOL    HW118014   4.051   3.745   1.154  0.6731 -0.5258  2.0861
 5766SOL    HW218015   4.054   3.630   1.056 -0.7522  1.2511 -0.0797
 5767SOL     OW18016   5.032   4.185   0.579  0.0752 -0.0721 -0.2322
 5767SOL    HW118017   5.003   4.138   0.658 -0.0704 -0.4197 -0.4906
 5767SOL    HW218018   4.958   4.242   0.557  0.0636 -0.0709 -0.1899
 5768SOL     OW18019   1.296   4.644   4.895 -0.2406 -0.3302  0.0189
 5768SOL    HW118020   1.314   4.737   4.908  1.7842 -0.5094 -1.2849
 5768SOL    HW218021   1.222   4.642   4.834 -0.8801  0.4073  0.7590
 5769SOL     OW18022   0.196   4.394   5.076 -0.2827 -0.1090 -0.1638
 5769SOL    HW118023   0.124   4.457   5.078 -1.1521 -1.0711 -0.6254
 5769SOL    HW218024   0.155   4.310   5.097  1.2766 -0.1676  3.0643
 5770SOL     OW18025   2.043   2.777   6.255 -0.5472  0.4517  0.1154
 5770SOL    HW118026   1.950   2.789   6.234 -0.6775 -1.1479 -0.2549
 5770SOL    HW218027   2.045   2.704   6.317  0.4858  0.2255 -0.1693
 5771SOL     OW18028   2.413   2.864   5.819  0.0245 -0.3926 -0.4845
 5771SOL    HW118029   2.453   2.802   5.759 -0.0522 -1.5852  0.6680
 5771SOL    HW218030   2.346   2.814   5.865 -1.9757  1.2719 -1.5231
 5772SOL     OW18031   3.953   0.602   1.151  0.5998 -0.4789  0.2330
 5772SOL    HW118032   4.012   0.541   1.105  1.0915 -0.4027  0.7492
 5772SOL    HW218033   3.999   0.686   1.149 -0.4676  0.0867 -1.2317
 5773SOL     OW18034   0.189   3.438   5.693 -0.4188 -0.9324  0.0880
 5773SOL    HW118035   0.243   3.471   5.622  2.7070 -1.1913  2.2443
 5773SOL    HW218036   0.161   3.352   5.664 -1.0229 -0.1320 -1.7400
 5774SOL     OW18037   0.591   2.286   4.514 -0.1909 -0.1147 -0.3594
 5774SOL    HW118038   0.653   2.221   4.482 -1.1878  0.0323 -2.6709
 5774SOL    HW218039   0.514   2.276   4.457 -0.1210  3.5351 -1.1906
 5775SOL     OW18040   0.902   1.774   2.569  0.0118  0.0962  0.5397
 5775SOL    HW118041   0.958   1.696   2.564 -0.5599 -0.2498 -0.9057
 5775SOL    HW218042   0.963   1.847   2.583  0.7356 -0.4008  0.0434
 5776SOL     OW18043   0.465   4.429   4.782 -0.3252 -0.7678 -0.4066
 5776SOL    HW118044   0.459   4.334   4.788 -0.0404 -0.7687 -0.1050
 5776SOL    HW218045   0.487   4.457   4.871  1.7780 -0.5958 -0.9435
 5777SOL     OW18046   5.010   5.813   3.592  0.4054 -0.3247  0.4848
 5777SOL    HW118047   5.086   5.770   3.554  0.6657  1.8406 -1.5181
 5777SOL    HW218048   4.936   5.784   3.538  0.3132  0.3505  0.2557
 5778SOL     OW18049   4.823   2.237   1.230  0.1715 -0.3593  0.3038
 5778SOL    HW118050   4.830   2.154   1.277  0.7499 -0.5004 -0.0386
 5778SOL    HW218051   4.910   2.253   1.194 -0.6741 -1.1078 -2.1852
 5779SOL     OW18052   2.711   5.747   3.809  0.2648 -0.4675 -0.4655
 5779SOL    HW118053   2.758   5.813   3.757 -0.6155  0.2518 -0.3670
 5779SOL    HW218054   2.779   5.703   3.859  0.9437 -0.0824 -1.0304
 5780SOL     OW18055   5.048   3.113   1.970  0.3854  0.3633 -0.2972
 5780SOL    HW118056   5.117   3.051   1.992  0.3197  0.3179 -0.2179
 5780SOL    HW218057   5.017   3.086   1.884  1.9400  1.6953 -1.2865
 5781SOL     OW18058   6.025   2.126   5.525  0.4236  0.2144 -0.7376
 5781SOL    HW118059   5.961   2.179   5.477  0.2133  1.0188  0.4101
 5781SOL    HW218060   5.972   2.067   5.578  0.6580 -0.8333 -1.6543
 5782SOL     OW18061   5.037   1.249   6.094 -0.4277  0.3099  0.7608
 5782SOL    HW118062   4.973   1.207   6.151  1.2778 -1.0550  1.7153
 5782SOL    HW218063   5.109   1.273   6.153  1.3863 -1.1692 -0.7819
 5783SOL     OW18064   1.551   4.107   2.736 -0.0679 -0.1666 -0.2480
 5783SOL    HW118065   1.490   4.053   2.787 -0.6404 -1.4454 -2.2122
 5783SOL    HW218066   1.634   4.099   2.783 -0.9824  0.1686  1.4888
 5784SOL     OW18067   4.761   5.670   2.904 -0.2000  0.4100 -0.2951
 5784SOL    HW118068   4.810   5.657   2.823 -0.7656  0.1262 -0.5959
 5784SOL    HW218069   4.672   5.643   2.883 -0.9796  2.9096 -0.3760
 5785SOL     OW18070   1.057   2.183   2.006 -0.2738 -0.2688  0.4368
 5785SOL    HW118071   1.034   2.234   2.084  2.4673 -0.4300  1.4405
 5785SOL    HW218072   1.063   2.093   2.037  0.7101 -0.3524  0.0422
 5786SOL     OW18073   2.547   4.692   1.733  0.3565 -0.0045  0.6158
 5786SOL    HW118074   2.458   4.666   1.710  0.5414 -0.0447 -0.0476
 5786SOL    HW218075   2.566   4.767   1.678  0.1929  0.9477  1.8289
 5787SOL     OW18076   1.615   5.634   2.989 -0.5866  0.8738 -0.1547
 5787SOL    HW118077   1.654   5.684   3.061  1.2110  1.3795 -1.4401
 5787SOL    HW218078   1.585   5.701   2.928  0.9628  0.4195 -1.4388
 5788SOL     OW18079   0.024   6.399   4.614  0.4054 -0.1986  0.3432
 5788SOL    HW118080  -0.067   6.423   4.632 -0.5802 -2.4529 -1.3905
 5788SOL    HW218081   0.050   6.344   4.688 -0.2539 -1.0083 -0.0141
 5789SOL     OW18082   5.663   1.014   1.964 -0.0087 -0.0696 -0.2325
 5789SOL    HW118083   5.585   1.067   1.945 -0.3300 -0.3691  0.2233
 5789SOL    HW218084   5.718   1.072   2.017  0.0480  0.1176 -0.4921
 5790SOL     OW18085   1.358   6.695   4.364 -0.7714  0.2235  0.3329
 5790SOL    HW118086   1.423   6.642   4.317  0.3738  1.2258  0.7593
 5790SOL    HW218087   1.309   6.632   4.416 -0.7352 -0.6573 -0.6729
 5791SOL     OW18088   6.071   6.756   4.595 -0.6939  0.3846  0.1581
 5791SOL    HW118089   5.982   6.753   4.632 -1.7209 -4.1674 -2.3110
 5791SOL    HW218090   6.072   6.835   4.541 -3.2091  0.5534  0.2991
 5792SOL     OW18091   4.957   2.210   1.936  0.1480 -0.4635  0.0559
 5792SOL    HW118092   4.968   2.152   1.861  2.4993 -0.6498  0.5196
 5792SOL    HW218093   4.940   2.151   2.010  0.4701 -0.4306  0.1549
 5793SOL     OW18094   6.664   0.236   1.253  0.0277  0.3358  0.2627
 5793SOL    HW118095   6.569   0.235   1.262 -0.1107 -1.7907 -1.1582
 5793SOL    HW218096   6.695   0.162   1.305  0.4158 -2.4124 -3.6918
 5794SOL     OW18097   5.206   2.900   5.712  0.2256 -0.0876 -0.2427
 5794SOL    HW118098   5.202   2.838   5.640 -0.3540 -0.5164  0.1464
 5794SOL    HW218099   5.129   2.879   5.765 -0.5858  1.6798 -0.6903
 5795SOL     OW18100   1.443   2.074   2.620  0.3988  0.4911  0.2177
 5795SOL    HW118101   1.365   2.117   2.656  0.0713 -0.2112  0.3582
 5795SOL    HW218102   1.419   1.981   2.616  0.6066  0.4936 -1.3565
 5796SOL     OW18103   6.546   4.467   1.761 -0.5079  0.8319 -0.1005
 5796SOL    HW118104   6.489   4.541   1.782 -1.4710  0.2769 -0.7335
 5796SOL    HW218105   6.633   4.506   1.752 -0.8791  1.7763  0.2789
 5797SOL     OW18106   4.397   2.697   1.845  0.5591  0.0587  0.4304
 5797SOL    HW118107   4.459   2.626   1.831  0.5963  0.0118  0.8493
 5797SOL    HW218108   4.321   2.673   1.791  0.5925 -0.2697  0.5300
 5798SOL     OW18109   5.257   4.680   6.749 -0.9034 -0.0712  0.0555
 5798SOL    HW118110   5.239   4.767   6.712  2.6330  0.7369  0.0992
 5798SOL    HW218111   5.251   4.621   6.674  0.8036  0.8044 -0.7906
 5799SOL     OW18112   2.277   4.224   6.325 -0.2714  0.1349 -0.2378
 5799SOL    HW118113   2.337   4.294   6.301  0.9803 -0.6456  0.5521
 5799SOL    HW218114   2.254   4.182   6.243 -0.5026  1.0505 -0.6467
 5800SOL     OW18115   1.182   5.827   5.922 -0.7314  0.0543 -0.2718
 5800SOL    HW118116   1.116   5.815   5.990 -0.0529 -1.5456  0.1197
 5800SOL    HW218117   1.244   5.755   5.935  0.1767  0.5516 -1.6924
 5801SOL     OW18118   1.115   4.401   3.625  0.1946  0.2836 -0.3526
 5801SOL    HW118119   1.179   4.350   3.675 -0.3203  0.2626  0.2856
 5801SOL    HW218120   1.090   4.344   3.553 -0.4474 -0.4144  0.4126
 5802SOL     OW18121   1.019   2.521   5.192  0.0288  0.3082 -0.8540
 5802SOL    HW118122   1.079   2.587   5.158 -0.6364  0.4860 -1.6956
 5802SOL    HW218123   1.006   2.459   5.120  2.1902 -1.8631  0.5679
 5803SOL     OW18124   1.474   3.910   0.002 -0.1204 -0.0248 -0.5439
 5803SOL    HW118125   1.536   3.981   0.016  0.8241 -0.9876  0.2603
 5803SOL    HW218126   1.427   3.934  -0.078  0.2766  1.4255 -0.3437
 5804SOL     OW18127   2.910   3.444   3.762  0.1920  0.5353 -0.4041
 5804SOL    HW118128   3.004   3.431   3.775  0.1414 -0.9893 -1.3708
 5804SOL    HW218129   2.888   3.519   3.816  1.9045  0.6788  0.1154
 5805SOL     OW18130   1.642   5.195   3.987  0.1630  0.1594  0.2878
 5805SOL    HW118131   1.657   5.187   4.081 -1.9255  2.0113  0.8338
 5805SOL    HW218132   1.547   5.194   3.978  0.3146  1.1426 -1.7040
 5806SOL     OW18133   0.014   1.793   0.231  0.6639  0.6425 -0.5397
 5806SOL    HW118134   0.082   1.741   0.188 -0.7464 -2.3573  0.7221
 5806SOL    HW218135  -0.061   1.734   0.236 -1.3964  3.2312 -0.0992
 5807SOL     OW18136   6.431   5.980   1.153  0.3581 -0.6655 -0.1098
 5807SOL    HW118137   6.428   5.927   1.073 -1.6290  2.0643 -1.9619
 5807SOL    HW218138   6.494   6.049   1.132  0.9482 -0.7655  1.2809
 5808SOL     OW18139   6.748   1.564   6.491  0.0845  0.3816  0.4060
 5808SOL    HW118140   6.687   1.620   6.540  0.1879  0.6437  0.2310
 5808SOL    HW218141   6.830   1.613   6.489 -0.1945  0.7981 -0.8666
 5809SOL     OW18142   4.893   0.224   0.336  0.3434  0.2408  0.0264
 5809SOL    HW118143   4.934   0.175   0.264  0.8400  2.8821 -1.5463
 5809SOL    HW218144   4.823   0.274   0.294 -0.4344  0.5533  1.6706
 5810SOL     OW18145   2.640   3.900   2.359  0.0881  0.1024 -0.5186
 5810SOL    HW118146   2.631   3.995   2.350  0.0456  0.1550  0.0604
 5810SOL    HW218147   2.551   3.868   2.370  0.1877  0.1086  0.3304
 5811SOL     OW18148   3.786   4.165   6.633  0.0806  0.3147 -0.1366
 5811SOL    HW118149   3.737   4.226   6.578  0.1464 -0.6596 -1.2976
 5811SOL    HW218150   3.721   4.130   6.694 -0.7810 -1.2367 -1.8982
 5812SOL     OW18151   0.359   3.181   3.549 -0.3966 -0.4336 -0.1462
 5812SOL    HW118152   0.388   3.272   3.553 -0.5875 -0.3898  0.3201
 5812SOL    HW218153   0.359   3.152   3.640  1.7825 -1.5711 -0.4635
 5813SOL     OW18154   4.101   3.136   2.704 -0.2967  0.4413 -0.1801
 5813SOL    HW118155   4.136   3.064   2.651 -1.6601 -0.3477 -0.0394
 5813SOL    HW218156   4.013   3.151   2.669 -1.1685 -0.0053  1.7630
 5814SOL     OW18157   3.906   4.495   5.898  0.2454 -0.2669 -0.0331
 5814SOL    HW118158   3.848   4.489   5.821  0.7024 -1.8811 -0.2826
 5814SOL    HW218159   3.846   4.500   5.972 -0.2053  1.3083 -0.4749
 5815SOL     OW18160   1.243   4.079   5.513 -0.5948 -0.0487 -0.2023
 5815SOL    HW118161   1.177   4.013   5.535 -0.9593  0.4961  0.3718
 5815SOL    HW218162   1.198   4.140   5.455 -0.0811 -0.6259 -1.2279
 5816SOL     OW18163   3.841   3.040   0.637  0.1458  0.1295  0.4315
 5816SOL    HW118164   3.839   2.973   0.568 -0.3370  0.0572  0.5152
 5816SOL    HW218165   3.921   3.021   0.686  0.1028 -0.2789  0.3489
 5817SOL     OW18166   6.408   5.252   2.340  0.7947 -0.1114  0.3959
 5817SOL    HW118167   6.418   5.298   2.423  1.1080  0.3491  0.1103
 5817SOL    HW218168   6.316   5.263   2.316  1.0491  1.0933 -0.0788
 5818SOL     OW18169   5.307   6.466   1.466  0.4605 -0.2659  0.3129
 5818SOL    HW118170   5.299   6.372   1.484 -0.2113  0.2821  3.1785
 5818SOL    HW218171   5.393   6.475   1.425  1.3473 -1.9215  1.7155
 5819SOL     OW18172   2.050   0.198   6.025 -0.0807  0.1907  0.0958
 5819SOL    HW118173   2.025   0.282   6.063  1.0425  1.2910 -1.5380
 5819SOL    HW218174   1.968   0.161   5.992 -0.2239  1.8333 -1.4590
 5820SOL     OW18175   5.850   1.861   4.847 -0.1554 -0.2481 -0.3026
 5820SOL    HW118176   5.835   1.943   4.894  1.0449 -0.2451  0.0776
 5820SOL    HW218177   5.762   1.828   4.829 -0.6349  0.2301  1.1022
 5821SOL     OW18178   1.043   6.639   4.600  0.0455 -0.6918  0.0809
 5821SOL    HW118179   1.101   6.581   4.551  0.5923  0.2493 -0.3895
 5821SOL    HW218180   1.060   6.617   4.692  1.5871 -0.0166 -0.0252
 5822SOL     OW18181   5.244   0.790   0.417  0.1961  0.0595  0.0260
 5822SOL    HW118182   5.164   0.841   0.432 -0.1657 -0.2641 -0.7784
 5822SOL    HW218183   5.254   0.737   0.497  0.0425  0.6767  0.4571
 5823SOL     OW18184   0.734   1.733   0.655 -0.1452 -0.0073  0.1142
 5823SOL    HW118185   0.728   1.773   0.742  0.2372 -0.0044  0.1410
 5823SOL    HW218186   0.656   1.678   0.648  0.2320 -0.6321  0.7812
 5824SOL     OW18187   1.200   0.505   6.398 -0.4087  0.3300  0.3209
 5824SOL    HW118188   1.276   0.498   6.455  1.0219 -2.9131 -1.8581
 5824SOL    HW218189   1.129   0.463   6.447  0.0121  0.4633  1.0448
 5825SOL     OW18190   6.299   6.477   0.899 -0.2118  0.4092  0.1958
 5825SOL    HW118191   6.336   6.444   0.981 -2.3317 -0.6174  0.7755
 5825SOL    HW218192   6.296   6.400   0.841 -0.9019  0.6094 -0.0349
 5826SOL     OW18193   5.908   3.449   5.022 -0.2662  0.5976  0.1589
 5826SOL    HW118194   5.874   3.538   5.035 -0.7199  0.0183  3.2327
 5826SOL    HW218195   5.977   3.440   5.087  0.9770 -0.7281 -1.3068
 5827SOL     OW18196   5.730   1.192   0.088 -0.1479  0.4233  0.0452
 5827SOL    HW118197   5.671   1.175   0.162  1.0166  1.2862  1.2076
 5827SOL    HW218198   5.758   1.283   0.101 -0.3168  0.7472 -1.7557
 5828SOL     OW18199   6.141   3.725   0.219  0.5675  0.4384  0.3304
 5828SOL    HW118200   6.154   3.711   0.312 -0.5318  0.0288  0.4178
 5828SOL    HW218201   6.052   3.759   0.211 -0.0296 -1.3169 -0.7463
 5829SOL     OW18202   5.298   1.242   3.014  0.2345  0.2444  0.0281
 5829SOL    HW118203   5.335   1.249   2.925 -0.8990  1.9980 -0.3441
 5829SOL    HW218204   5.203   1.243   3.001  0.0335 -2.1309  1.1153
 5830SOL     OW18205   6.367   6.545   5.861  0.1016  0.1009  0.3754
 5830SOL    HW118206   6.424   6.617   5.834  0.2971  0.4360  1.6349
 5830SOL    HW218207   6.418   6.466   5.842  0.5021  0.3532  0.3805
 5831SOL     OW18208   3.718   4.364   2.923 -0.3740 -0.2645 -0.4871
 5831SOL    HW118209   3.665   4.321   2.990  2.7286 -1.1916  1.5220
 5831SOL    HW218210   3.737   4.294   2.860  1.2699 -0.8642  0.6288
 5832SOL     OW18211   5.770   2.377   0.928  0.5327 -0.2355 -0.5220
 5832SOL    HW118212   5.845   2.328   0.962 -1.1363 -2.1277  0.4979
 5832SOL    HW218213   5.723   2.406   1.006 -1.5509 -1.8076 -1.1684
 5833SOL     OW18214   3.202   4.293   4.935 -0.0167 -0.1556 -0.3443
 5833SOL    HW118215   3.120   4.308   4.887  0.3721 -0.4886 -1.1315
 5833SOL    HW218216   3.246   4.224   4.885  0.4136 -0.4842  0.4897
 5834SOL     OW18217   4.825   2.544   5.700  0.5335  0.4114 -0.0820
 5834SOL    HW118218   4.899   2.488   5.726 -1.1159 -2.6379 -1.7343
 5834SOL    HW218219   4.785   2.570   5.783  0.1677 -2.5067  0.6959
 5835SOL     OW18220   3.268   4.128   1.045 -0.2500  0.5498 -0.6523
 5835SOL    HW118221   3.304   4.056   0.993 -0.5315  0.0592 -0.1737
 5835SOL    HW218222   3.344   4.180   1.070  0.0347 -0.0042 -0.3579
 5836SOL     OW18223   5.117   5.451   3.689  0.2263  0.2021  0.4805
 5836SOL    HW118224   5.152   5.481   3.606 -0.5188  0.1885  0.1569
 5836SOL    HW218225   5.178   5.382   3.718  1.9641  2.0133  1.2502
 5837SOL     OW18226   4.469   3.273   1.319 -0.2945  0.0073 -0.2632
 5837SOL    HW118227   4.394   3.223   1.290 -1.5927  1.5712  0.3226
 5837SOL    HW218228   4.465   3.270   1.414  0.5024 -0.0818 -0.2296
 5838SOL     OW18229   3.126   6.326   0.724  0.0282  0.2097 -0.4804
 5838SOL    HW118230   3.159   6.237   0.719 -0.5581 -0.0457  0.1676
 5838SOL    HW218231   3.199   6.377   0.758  0.2632 -0.0731 -0.5592
 5839SOL     OW18232   1.831   4.008   4.315 -0.4370  0.5446  1.0742
 5839SOL    HW118233   1.854   3.918   4.339 -2.0256 -0.2312 -0.1831
 5839SOL    HW218234   1.886   4.027   4.239 -0.7289  0.3112  0.8021
 5840SOL     OW18235   5.971   0.211   0.523 -0.2657  0.3953  0.4713
 5840SOL    HW118236   6.048   0.228   0.470  0.7591  1.1736  2.1490
 5840SOL    HW218237   5.921   0.293   0.521 -0.2471  0.4127  0.6551
 5841SOL     OW18238   0.167   3.272   0.958  0.1747  0.0499 -0.1405
 5841SOL    HW118239   0.122   3.297   1.039  0.7114  0.5677 -0.0014
 5841SOL    HW218240   0.129   3.187   0.935  0.9162 -0.6899  1.3238
 5842SOL     OW18241   5.654   5.427   2.655  0.4616 -0.6503  0.5017
 5842SOL    HW118242   5.715   5.427   2.729  0.8654  3.0032  0.2278
 5842SOL    HW218243   5.596   5.501   2.672 -2.8669 -2.9905 -0.1478
 5843SOL     OW18244   6.399   5.967   5.080 -0.1278 -0.2245 -0.3100
 5843SOL    HW118245   6.365   5.900   5.020 -1.4208  1.7736 -1.8667
 5843SOL    HW218246   6.323   5.991   5.133 -0.2300  1.5843 -1.2622
 5844SOL     OW18247   1.863   0.186   4.675 -0.3361 -0.0933 -0.4117
 5844SOL    HW118248   1.783   0.169   4.625 -0.9659 -0.0055  0.5644
 5844SOL    HW218249   1.914   0.105   4.666 -0.5773 -0.1862 -0.9545
 5845SOL     OW18250   1.430   2.412   1.687 -0.3933 -0.8869 -0.0338
 5845SOL    HW118251   1.421   2.419   1.782 -1.1499 -1.9694 -0.0125
 5845SOL    HW218252   1.420   2.318   1.669 -1.7018 -0.5216 -1.3204
 5846SOL     OW18253   3.987   3.877   3.383 -0.1090 -0.4321 -0.2228
 5846SOL    HW118254   3.993   3.880   3.479 -2.6284 -0.0419 -0.0392
 5846SOL    HW218255   4.021   3.962   3.355  2.8498 -1.4502  0.1524
 5847SOL     OW18256   5.432   0.206   4.375  0.2563  0.2754  0.0857
 5847SOL    HW118257   5.527   0.194   4.373  0.4912  1.8296  0.7955
 5847SOL    HW218258   5.408   0.196   4.468 -0.3566 -0.6908 -0.1707
 5848SOL     OW18259   0.073   4.533   5.343 -0.2305 -0.4276 -0.2410
 5848SOL    HW118260   0.030   4.506   5.261 -0.0185 -0.7629 -0.2432
 5848SOL    HW218261   0.006   4.581   5.391 -0.2894 -0.0402 -0.7120
 5849SOL     OW18262   2.879   0.661   2.702  0.0404  0.5669  0.2567
 5849SOL    HW118263   2.817   0.589   2.716  0.4784 -0.3393 -2.1622
 5849SOL    HW218264   2.872   0.680   2.608  2.5115  1.3161  0.1924
 5850SOL     OW18265   2.919   0.038   4.685 -0.1131  0.2234 -0.3873
 5850SOL    HW118266   2.921   0.023   4.780 -1.4897 -0.2500 -0.4187
 5850SOL    HW218267   2.828   0.063   4.667  0.5054  1.8434 -1.3671
 5851SOL     OW18268   4.522   3.926   4.737 -0.1819  0.5615  0.0260
 5851SOL    HW118269   4.563   3.839   4.740 -2.3389 -0.4788  0.2551
 5851SOL    HW218270   4.545   3.960   4.651  1.9033  0.3777  0.4926
 5852SOL     OW18271   6.415   3.786   3.479  0.3677  0.6145 -0.5746
 5852SOL    HW118272   6.451   3.767   3.392 -1.6329  1.8656 -1.7224
 5852SOL    HW218273   6.355   3.714   3.496  0.2693  0.7058 -0.5343
 5853SOL     OW18274   3.564   6.328   4.114  0.0184 -0.4971  0.0357
 5853SOL    HW118275   3.628   6.318   4.184 -0.5659 -0.2902  0.6046
 5853SOL    HW218276   3.563   6.422   4.095  1.5720 -0.7727 -1.5873
 5854SOL     OW18277   6.206   2.860   1.915 -0.0596 -0.3054 -0.1678
 5854SOL    HW118278   6.241   2.947   1.937 -0.8190  0.2152 -0.9868
 5854SOL    HW218279   6.239   2.803   1.985 -0.4640  0.8583  1.0080
 5855SOL     OW18280   2.194   6.248   0.725 -0.1558 -0.1411 -0.2870
 5855SOL    HW118281   2.160   6.296   0.801  0.6595  0.8363 -0.5334
 5855SOL    HW218282   2.267   6.301   0.694 -0.5922 -0.4596 -1.8688
 5856SOL     OW18283   6.456   4.100   1.397  0.4641 -0.5917 -0.6286
 5856SOL    HW118284   6.363   4.078   1.397  0.3385 -0.0753 -0.6232
 5856SOL    HW218285   6.495   4.041   1.332 -0.0131 -0.2065 -1.2707
 5857SOL     OW18286   6.131   2.388   6.509  0.2968 -0.0992  0.0936
 5857SOL    HW118287   6.038   2.410   6.517  0.1615 -0.2238 -1.0676
 5857SOL    HW218288   6.173   2.470   6.483  0.1990 -0.5100 -1.4287
 5858SOL     OW18289   1.573   6.146   5.304 -0.3156  0.6259 -0.6204
 5858SOL    HW118290   1.479   6.131   5.312  0.1274 -1.7676  0.4804
 5858SOL    HW218291   1.599   6.180   5.390  0.2590 -1.3189 -0.0034
 5859SOL     OW18292   2.471   3.842   5.123  0.3134 -0.2096 -0.0305
 5859SOL    HW118293   2.393   3.806   5.165 -0.4319  0.2955 -0.9615
 5859SOL    HW218294   2.538   3.840   5.191 -0.0561 -2.1671  0.3091
 5860SOL     OW18295   4.912   6.700   6.298 -0.1574  0.3295  0.1040
 5860SOL    HW118296   4.952   6.615   6.315 -0.2256  0.3287  0.2589
 5860SOL    HW218297   4.951   6.729   6.215 -0.2069  0.1033  0.0005
 5861SOL     OW18298   6.741   3.997   3.263  0.0027 -0.0894  0.6419
 5861SOL    HW118299   6.668   4.011   3.203  0.2273  2.0339  0.8035
 5861SOL    HW218300   6.814   3.971   3.206  0.3010  2.2419 -0.0876
 5862SOL     OW18301   3.062   0.447   4.116 -0.5037  0.0147  0.0824
 5862SOL    HW118302   3.079   0.514   4.182 -0.8960 -1.1371  1.3773
 5862SOL    HW218303   2.980   0.406   4.144 -0.0030 -1.3522 -0.4068
 5863SOL     OW18304   4.737   4.136   1.313  0.4711 -0.0204 -0.1629
 5863SOL    HW118305   4.642   4.137   1.324  0.2915 -3.7281 -0.8126
 5863SOL    HW218306   4.771   4.161   1.399 -1.0759  1.9702 -0.1099
 5864SOL     OW18307   0.963   6.367   4.448  0.1565 -0.4794 -0.3272
 5864SOL    HW118308   1.043   6.417   4.457  0.0397 -0.3835  0.2212
 5864SOL    HW218309   0.896   6.431   4.427 -0.1790 -0.2600  1.3476
 5865SOL     OW18310   0.603   5.364   5.081  0.5567  0.5491 -0.1322
 5865SOL    HW118311   0.599   5.442   5.136  1.6300 -0.3099  1.1995
 5865SOL    HW218312   0.587   5.292   5.141 -1.9698 -0.1780 -1.6207
 5866SOL     OW18313   1.273   3.733   1.543 -0.0015 -0.5315 -0.2869
 5866SOL    HW118314   1.281   3.828   1.552  1.1138 -0.5876 -0.6696
 5866SOL    HW218315   1.361   3.699   1.559  0.0258 -1.3489 -2.0945
 5867SOL     OW18316   6.545   1.482   2.632 -0.4004  0.0502  0.1089
 5867SOL    HW118317   6.507   1.569   2.642 -1.6686 -0.4107 -0.4902
 5867SOL    HW218318   6.631   1.497   2.594 -1.4456  0.9492 -1.9692
 5868SOL     OW18319   5.063   4.607   5.036 -0.4744 -0.2136 -0.3578
 5868SOL    HW118320   5.093   4.531   5.085  0.5415 -0.1502 -0.8729
 5868SOL    HW218321   5.079   4.682   5.094  1.1700 -0.0857 -0.9619
 5869SOL     OW18322   0.227   1.512   3.741 -0.2640  0.4283  0.4057
 5869SOL    HW118323   0.167   1.587   3.735 -0.3089  0.5266  1.8886
 5869SOL    HW218324   0.309   1.549   3.772 -0.0960 -0.0458  0.5291
 5870SOL     OW18325   6.745   0.758   2.491 -0.6202  0.7261 -0.1097
 5870SOL    HW118326   6.700   0.740   2.408 -0.5063 -2.6741  0.4645
 5870SOL    HW218327   6.836   0.773   2.466 -0.3055 -1.6781 -0.5434
 5871SOL     OW18328   5.877   2.945   5.932  0.6060 -0.2474  0.1683
 5871SOL    HW118329   5.832   2.912   5.854 -0.4530  1.1072  0.1860
 5871SOL    HW218330   5.968   2.957   5.904  0.5701 -1.2789 -0.4030
 5872SOL     OW18331   2.069   1.854   5.567 -0.6045 -0.3239 -0.0060
 5872SOL    HW118332   2.116   1.935   5.583  1.9008 -1.9741  1.1668
 5872SOL    HW218333   2.011   1.844   5.643  0.2371 -0.4480  0.6162
 5873SOL     OW18334   1.255   0.285   2.066  0.0046 -0.2667  0.1851
 5873SOL    HW118335   1.181   0.273   2.007  1.7621 -0.9897 -1.9650
 5873SOL    HW218336   1.308   0.353   2.024 -0.6442  2.0136  2.9439
 5874SOL     OW18337   4.731   3.660   5.471 -0.7740 -0.2331 -0.3236
 5874SOL    HW118338   4.747   3.594   5.539  0.4516  1.7492  1.3598
 5874SOL    HW218339   4.818   3.691   5.447 -1.3909  2.1791  0.3707
 5875SOL     OW18340   1.404   3.357   6.070  0.2798 -0.5368  0.9483
 5875SOL    HW118341   1.312   3.339   6.046  0.6704  0.0182 -1.0930
 5875SOL    HW218342   1.404   3.449   6.096 -0.2267 -1.2549  3.6182
 5876SOL     OW18343   0.789   1.998   5.573 -0.6022  0.2684  0.1533
 5876SOL    HW118344   0.795   1.976   5.666  0.9611  0.1653  0.0400
 5876SOL    HW218345   0.750   2.085   5.571  0.6176  0.8468  0.9755
 5877SOL     OW18346   4.843   1.941   5.019  0.0997 -0.0355 -0.0480
 5877SOL    HW118347   4.774   1.945   4.952  0.2826  0.8039 -0.1841
 5877SOL    HW218348   4.796   1.926   5.101 -0.1120 -1.3007 -0.3848
 5878SOL     OW18349   5.106   5.340   0.635 -0.1018 -0.1847 -0.6660
 5878SOL    HW118350   5.108   5.283   0.713 -1.7769  0.5432 -0.0626
 5878SOL    HW218351   5.136   5.425   0.667 -0.7769  0.1114 -0.8068
 5879SOL     OW18352   2.038   2.584   3.401  0.0317 -0.0293  0.2796
 5879SOL    HW118353   1.979   2.529   3.350  0.6067  0.6371 -1.1318
 5879SOL    HW218354   1.980   2.628   3.464 -0.9447  0.3520 -0.8530
 5880SOL     OW18355   2.027   1.226   4.767 -0.0358 -0.3015  0.0262
 5880SOL    HW118356   1.976   1.195   4.693  1.5083 -1.0212 -0.7626
 5880SOL    HW218357   1.968   1.219   4.842 -0.6160 -2.4785 -0.6036
 5881SOL     OW18358   4.097   0.253   6.462  0.1968  0.2357 -0.2363
 5881SOL    HW118359   4.082   0.293   6.376  0.7044 -0.2993 -0.5781
 5881SOL    HW218360   4.187   0.219   6.457 -0.6043 -1.9294 -0.3490
 5882SOL     OW18361   1.861   0.173   1.107 -0.1784  0.1870 -0.4948
 5882SOL    HW118362   1.783   0.120   1.099 -2.3189  3.0855  0.3144
 5882SOL    HW218363   1.906   0.140   1.184 -1.3861 -0.5503 -0.1015
 5883SOL     OW18364   5.750   4.573   5.765  0.2342  0.0220  0.2235
 5883SOL    HW118365   5.785   4.606   5.683 -0.8875 -0.8347 -0.6156
 5883SOL    HW218366   5.815   4.510   5.795  0.6129  0.2859 -0.0391
 5884SOL     OW18367   5.035   2.375   1.049  0.3320  0.2594  0.0344
 5884SOL    HW118368   5.011   2.453   0.999 -0.6142 -1.0348 -1.5917
 5884SOL    HW218369   5.130   2.381   1.058  0.2025  1.9036  0.4570
 5885SOL     OW18370   6.055   5.166   1.687  0.1038  0.0438  0.1659
 5885SOL    HW118371   6.069   5.103   1.617  0.8775  0.5879 -0.1670
 5885SOL    HW218372   6.136   5.217   1.692 -1.1201  2.1524 -0.7314
 5886SOL     OW18373   0.292   5.996   4.797  0.3873  0.4788  0.4303
 5886SOL    HW118374   0.266   6.016   4.707  1.4866  0.4686  0.0998
 5886SOL    HW218375   0.220   5.943   4.832 -0.2776  0.9063 -0.2780
 5887SOL     OW18376   4.181   6.434   4.086  0.2664 -0.1930  0.0228
 5887SOL    HW118377   4.228   6.515   4.066  0.9182 -1.2359 -3.0012
 5887SOL    HW218378   4.092   6.450   4.054  0.2333 -0.4671 -0.0162
 5888SOL     OW18379   2.652   5.032   1.994  0.3159 -0.5591  0.4970
 5888SOL    HW118380   2.639   5.125   1.978  0.7101 -0.3716  1.2342
 5888SOL    HW218381   2.563   4.996   1.995  0.2032 -0.3265 -0.5316
 5889SOL     OW18382   0.676   4.427   2.219  0.3756  0.3445  0.3312
 5889SOL    HW118383   0.595   4.402   2.263  0.0336 -0.5463 -0.7689
 5889SOL    HW218384   0.692   4.356   2.156  0.9654  1.4649 -0.8046
 5890SOL     OW18385   5.020   4.475   4.715  0.1069 -0.4838 -0.1019
 5890SOL    HW118386   5.003   4.429   4.634 -0.6765  0.0348 -0.2353
 5890SOL    HW218387   5.086   4.421   4.760 -0.6683 -1.6243 -0.3290
 5891SOL     OW18388   4.824   1.579   1.977  0.1954 -0.6462  0.6041
 5891SOL    HW118389   4.743   1.586   1.926  2.3211  0.7905 -2.7616
 5891SOL    HW218390   4.823   1.655   2.035 -0.9789 -0.7823  0.7706
 5892SOL     OW18391   5.990   0.348   5.964  0.6606  1.0236 -0.3150
 5892SOL    HW118392   6.066   0.292   5.947  0.0793 -0.2007  1.0204
 5892SOL    HW218393   6.027   0.428   6.000  1.2629 -0.2549  2.0544
 5893SOL     OW18394   6.684   4.593   3.258  0.6811 -0.3128 -0.4039
 5893SOL    HW118395   6.634   4.610   3.178 -1.4754 -3.0217  0.2580
 5893SOL    HW218396   6.746   4.524   3.232  2.0162  0.8998 -0.4606
 5894SOL     OW18397   4.087   4.467   4.598 -0.1553 -0.5453  0.4169
 5894SOL    HW118398   4.028   4.520   4.652  1.1736  0.2738  1.0782
 5894SOL    HW218399   4.056   4.482   4.509  0.2456  1.4301  0.5819
 5895SOL     OW18400   5.046   2.717   2.434  0.2156  0.3199  0.2683
 5895SOL    HW118401   5.070   2.692   2.344 -2.0249 -0.7234 -0.0727
 5895SOL    HW218402   5.018   2.808   2.426 -0.3050  0.1266 -0.1545
 5896SOL     OW18403   2.695   3.800   6.339  0.6104 -0.2397 -0.7830
 5896SOL    HW118404   2.781   3.834   6.363  0.2671  0.4529 -0.5287
 5896SOL    HW218405   2.709   3.759   6.254  1.3060 -0.5875 -0.5085
 5897SOL     OW18406   4.086   3.955   1.591  0.6880 -0.0244  0.3408
 5897SOL    HW118407   4.102   4.048   1.603  2.4600 -0.4422  1.3475
 5897SOL    HW218408   4.044   3.927   1.672 -1.8457  0.2952 -0.8027
 5898SOL     OW18409   4.027   3.636   4.570 -0.0274 -0.0725 -0.7218
 5898SOL    HW118410   3.937   3.651   4.598 -0.2681 -0.7467 -1.1227
 5898SOL    HW218411   4.021   3.565   4.506  1.0309 -1.5386  0.7640
 5899SOL     OW18412   3.332   2.276   4.505 -0.3483 -0.5178  0.0929
 5899SOL    HW118413   3.360   2.318   4.587  1.4924 -2.1663  0.3526
 5899SOL    HW218414   3.242   2.249   4.521 -0.5482  0.6133  0.9831
 5900SOL     OW18415   3.008   1.004   5.467 -0.0316  0.0161 -0.2721
 5900SOL    HW118416   2.982   0.914   5.488  0.7927 -0.6011 -1.8488
 5900SOL    HW218417   3.102   1.006   5.480 -0.0411  0.6463 -0.2858
 5901SOL     OW18418   5.328   2.133   4.591  0.0139 -0.3194 -0.4465
 5901SOL    HW118419   5.273   2.200   4.632 -0.8251 -1.6015  0.5838
 5901SOL    HW218420   5.317   2.147   4.497 -1.9619 -0.4293 -0.2545
 5902SOL     OW18421   0.224   5.695   2.570  0.2480 -0.1790 -0.2410
 5902SOL    HW118422   0.222   5.758   2.497  2.2404  0.7466  0.4756
 5902SOL    HW218423   0.150   5.721   2.626  0.2962  0.7330 -0.5990
 5903SOL     OW18424   4.983   5.566   5.083 -0.3510 -0.2154 -0.4429
 5903SOL    HW118425   4.976   5.615   5.166  3.9824  0.3587 -0.2955
 5903SOL    HW218426   4.939   5.622   5.019 -1.7623  0.4179  1.0265
 5904SOL     OW18427   2.100   1.838   4.113  0.0220 -0.3556  0.1519
 5904SOL    HW118428   2.017   1.853   4.068 -0.3799  1.8850  1.5857
 5904SOL    HW218429   2.077   1.783   4.188  0.2946 -2.0074 -0.9543
 5905SOL     OW18430   4.365   1.790   6.252 -0.2408  0.0530  0.5059
 5905SOL    HW118431   4.445   1.835   6.223 -0.3499  1.8101  2.8408
 5905SOL    HW218432   4.320   1.768   6.170  1.3824  1.2994 -0.7771
 5906SOL     OW18433   0.284   2.604   2.255 -0.1653  0.0762  0.0492
 5906SOL    HW118434   0.286   2.591   2.160  0.2595  0.9458 -0.0627
 5906SOL    HW218435   0.190   2.609   2.276 -0.2444  1.9551 -0.6255
 5907SOL     OW18436   1.833   6.702   4.246 -0.5088  0.2025 -0.4922
 5907SOL    HW118437   1.779   6.669   4.174 -0.9628  0.8245 -0.4360
 5907SOL    HW218438   1.855   6.792   4.220 -1.5144  0.7805  0.6123
 5908SOL     OW18439   2.694   3.941   4.229  0.0050 -0.4792  0.2843
 5908SOL    HW118440   2.717   3.913   4.141  0.9381 -1.2359  0.7582
 5908SOL    HW218441   2.678   4.035   4.220 -1.1195 -0.7681 -0.9114
 5909SOL     OW18442   5.118   2.905   3.614 -0.2938  0.3391  0.2354
 5909SOL    HW118443   5.046   2.912   3.551 -2.2895 -0.0709  2.4024
 5909SOL    HW218444   5.182   2.969   3.585 -2.0067  1.4664 -1.1487
 5910SOL     OW18445   1.376   5.934   0.142  0.2946 -0.5402  0.1038
 5910SOL    HW118446   1.452   5.925   0.083  1.4365 -1.1653  1.6336
 5910SOL    HW218447   1.382   6.024   0.175 -1.1624  0.2799 -1.8068
 5911SOL     OW18448   2.646   4.812   3.273 -0.2872 -0.0031 -0.3509
 5911SOL    HW118449   2.624   4.879   3.209  1.2720  0.6735 -0.1973
 5911SOL    HW218450   2.716   4.850   3.325 -1.4443 -0.5902  1.7103
 5912SOL     OW18451   1.506   1.940   2.254  1.1683 -0.0014  0.1752
 5912SOL    HW118452   1.448   2.006   2.291 -0.4824 -2.1701  1.5965
 5912SOL    HW218453   1.558   1.909   2.328  0.8343 -1.3540 -0.1343
 5913SOL     OW18454   1.212   3.059   2.039 -0.2381  0.1694 -0.0776
 5913SOL    HW118455   1.259   2.976   2.054  0.6428  0.8248  0.8270
 5913SOL    HW218456   1.159   3.042   1.961  1.7327 -0.4880 -1.3074
 5914SOL     OW18457   4.718   4.751   2.596 -0.0928 -0.8710 -0.3148
 5914SOL    HW118458   4.645   4.694   2.620  0.2575 -1.8453 -1.5237
 5914SOL    HW218459   4.685   4.803   2.523  0.6735 -1.8933 -1.4071
 5915SOL     OW18460   0.163   0.544   4.899  0.0316  0.5310 -0.0956
 5915SOL    HW118461   0.175   0.627   4.945 -1.2116  0.4857  0.3369
 5915SOL    HW218462   0.069   0.527   4.904  0.1796 -0.5648 -0.7741
 5916SOL     OW18463   5.477   2.834   3.552 -0.0124 -0.6938 -0.5082
 5916SOL    HW118464   5.477   2.746   3.590  0.3977 -0.5938 -0.2712
 5916SOL    HW218465   5.410   2.831   3.483  1.7938 -1.9567 -2.2652
 5917SOL     OW18466   5.969   4.801   1.850 -0.4426  0.4095 -0.6673
 5917SOL    HW118467   5.893   4.801   1.792 -0.1889 -1.7883 -1.0623
 5917SOL    HW218468   5.940   4.753   1.927  1.5722 -3.8073 -2.3751
 5918SOL     OW18469   3.091   1.197   2.964 -0.0611  0.3037 -0.3688
 5918SOL    HW118470   3.154   1.223   3.031  0.6911  2.2641 -1.7970
 5918SOL    HW218471   3.136   1.128   2.915  1.3093  2.1350 -1.7893
 5919SOL     OW18472   2.800   0.256   5.793  0.1455  0.3386  0.0588
 5919SOL    HW118473   2.860   0.316   5.836 -0.2984  0.0758  1.0638
 5919SOL    HW218474   2.834   0.169   5.812  2.0391  0.2637 -3.2284
 5920SOL     OW18475   6.573   2.983   6.510  0.0114  0.0882  0.4864
 5920SOL    HW118476   6.486   2.953   6.483  0.4072 -0.8352  0.1891
 5920SOL    HW218477   6.614   3.012   6.428 -0.2971  1.2818  0.7450
 5921SOL     OW18478   0.363   3.194   2.307 -0.4182  0.4616 -0.1355
 5921SOL    HW118479   0.393   3.183   2.397  2.7668  0.8456 -1.0949
 5921SOL    HW218480   0.436   3.235   2.261 -1.9055  0.1510 -2.9633
 5922SOL     OW18481   3.693   0.099   5.842 -0.0801 -0.2933 -0.0021
 5922SOL    HW118482   3.686   0.193   5.863 -1.5283 -0.6693  1.3130
 5922SOL    HW218483   3.710   0.097   5.748  0.0092  1.3002 -0.0444
 5923SOL     OW18484   0.376   4.326   1.831 -0.6446  0.3634  0.5168
 5923SOL    HW118485   0.467   4.330   1.858 -0.6420 -1.4765  0.8208
 5923SOL    HW218486   0.376   4.274   1.751 -1.2700  1.5489 -0.2856
 5924SOL     OW18487   4.107   3.549   3.051  0.5705 -0.3683  0.1804
 5924SOL    HW118488   4.069   3.637   3.054 -2.3713 -1.6450  1.0184
 5924SOL    HW218489   4.075   3.512   2.968 -0.1890 -1.5422  0.9960
 5925SOL     OW18490   5.911   3.574   3.220 -0.4606 -0.1150 -0.4606
 5925SOL    HW118491   5.905   3.479   3.230  1.7980 -0.2848 -0.4107
 5925SOL    HW218492   5.828   3.607   3.255 -0.4740 -1.9488  1.3428
 5926SOL     OW18493   5.166   5.233   4.008 -0.4575 -0.8245 -0.2407
 5926SOL    HW118494   5.177   5.249   3.914 -0.7488  1.3842  0.0757
 5926SOL    HW218495   5.182   5.139   4.018  2.6089 -0.5738 -2.0538
 5927SOL     OW18496   0.767   6.541   4.400  0.3565 -0.3058 -0.3892
 5927SOL    HW118497   0.752   6.627   4.438  0.4666 -0.5124  0.1254
 5927SOL    HW218498   0.709   6.482   4.449 -0.5647 -0.3387 -1.5014
 5928SOL     OW18499   5.722   6.268   5.902 -0.0646  0.2824  0.4179
 5928SOL    HW118500   5.746   6.183   5.937 -2.0719 -0.1712  0.7548
 5928SOL    HW218501   5.721   6.256   5.807  0.1363  0.0741  0.4419
 5929SOL     OW18502   0.701   0.327   1.658  0.0028 -0.6343  0.0376
 5929SOL    HW118503   0.676   0.237   1.639 -0.4981 -0.5969  0.5121
 5929SOL    HW218504   0.620   0.369   1.688  0.2996 -0.1098  0.1194
 5930SOL     OW18505   0.216   2.248   3.373 -0.4110 -0.0651 -0.3852
 5930SOL    HW118506   0.282   2.180   3.383 -1.3484 -0.6370  2.3983
 5930SOL    HW218507   0.259   2.316   3.321  1.9396 -0.9791  0.3172
 5931SOL     OW18508   3.928   0.982   5.408 -0.6615  0.4121  0.2520
 5931SOL    HW118509   3.925   1.078   5.407  1.1906  0.5534  2.5059
 5931SOL    HW218510   4.017   0.961   5.379 -0.7761 -0.5980  0.6139
 5932SOL     OW18511   5.784   6.082   0.086 -0.1812 -0.1113  0.4356
 5932SOL    HW118512   5.703   6.090   0.036  1.5664 -0.2739 -2.5726
 5932SOL    HW218513   5.806   5.989   0.081  0.3878 -0.0073  0.9170
 5933SOL     OW18514   5.627   2.337   0.054  0.3992  0.6509 -0.5112
 5933SOL    HW118515   5.540   2.332   0.016  0.6065  0.7081 -0.9901
 5933SOL    HW218516   5.616   2.302   0.143  0.2046 -0.8171 -1.0987
 5934SOL     OW18517   0.668   5.508   3.002  0.4568  0.2057  0.3997
 5934SOL    HW118518   0.600   5.447   2.974  0.8550  0.1219 -0.3829
 5934SOL    HW218519   0.620   5.581   3.041 -0.0319 -0.4503  1.0286
 5935SOL     OW18520   3.684   6.479   4.997 -0.1632  0.4126 -0.4519
 5935SOL    HW118521   3.648   6.450   5.081  2.0584 -0.3926  0.2628
 5935SOL    HW218522   3.723   6.564   5.016  1.0202 -0.1159 -0.4752
 5936SOL     OW18523   0.400   1.699   2.234  0.3159  0.2300  0.2091
 5936SOL    HW118524   0.462   1.664   2.170  1.9249  0.4966  1.5896
 5936SOL    HW218525   0.415   1.794   2.232 -1.1661  0.4636 -0.5774
 5937SOL     OW18526   4.434   0.298   2.609 -0.2173  0.0468 -0.0911
 5937SOL    HW118527   4.379   0.363   2.654 -1.3796 -0.5293 -0.6476
 5937SOL    HW218528   4.520   0.339   2.606 -0.4283  0.6537  1.4646
 5938SOL     OW18529   5.039   3.150   5.423  0.7110 -0.0512  0.9482
 5938SOL    HW118530   4.957   3.101   5.427  0.3138  0.5263  0.0389
 5938SOL    HW218531   5.011   3.242   5.414  1.4280 -0.2095 -4.0718
 5939SOL     OW18532   0.599   4.715   6.149  0.0992 -0.1149 -0.3334
 5939SOL    HW118533   0.692   4.712   6.168 -0.0752  0.3955  0.6454
 5939SOL    HW218534   0.560   4.657   6.215 -0.2228 -0.7866 -1.1026
 5940SOL     OW18535   2.618   1.205   2.991  0.0742 -0.2838 -0.0832
 5940SOL    HW118536   2.666   1.187   3.071 -0.6844  2.4737  1.0454
 5940SOL    HW218537   2.675   1.263   2.941  0.2510 -1.4412 -1.2620
 5941SOL     OW18538   2.453   6.575   5.014  0.1959  0.9876 -0.6220
 5941SOL    HW118539   2.428   6.519   4.941  0.3733 -0.2591  0.2618
 5941SOL    HW218540   2.499   6.649   4.973  0.7058  0.0741 -1.7167
 5942SOL     OW18541   1.485   3.060   2.712  0.3838 -0.4936  0.1836
 5942SOL    HW118542   1.462   3.023   2.626 -1.0597  0.8980 -0.0575
 5942SOL    HW218543   1.441   3.145   2.713  1.8584  0.2578  1.6020
 5943SOL     OW18544   4.142   3.268   1.539  0.1137 -0.4771  0.3143
 5943SOL    HW118545   4.152   3.363   1.537 -1.5822 -0.3047 -0.7259
 5943SOL    HW218546   4.048   3.253   1.547  0.4231 -2.0644  1.2597
 5944SOL     OW18547   3.736   3.990   0.382 -0.4313 -0.2188  0.4686
 5944SOL    HW118548   3.819   3.954   0.351 -0.7194 -0.3490 -0.1620
 5944SOL    HW218549   3.752   4.085   0.389 -0.9872  0.0985 -2.1318
 5945SOL     OW18550   2.869   0.201   2.979  0.0315 -0.0354  0.0485
 5945SOL    HW118551   2.932   0.263   2.943 -0.9172  0.6171 -0.5177
 5945SOL    HW218552   2.852   0.234   3.067 -0.0412  0.1875 -0.0474
 5946SOL     OW18553   3.672   4.842   6.276 -0.5804 -0.3531 -0.8141
 5946SOL    HW118554   3.672   4.768   6.337  1.4315  0.5651  0.3354
 5946SOL    HW218555   3.669   4.801   6.189 -0.3249 -1.7639 -0.1699
 5947SOL     OW18556   6.229   3.667   5.659  0.3485 -0.4505 -0.0618
 5947SOL    HW118557   6.305   3.609   5.655  0.0030 -1.0085  1.2922
 5947SOL    HW218558   6.229   3.701   5.748  0.2437  1.2418 -0.6884
 5948SOL     OW18559   3.328   2.609   4.949  0.3791 -0.1377  0.3004
 5948SOL    HW118560   3.374   2.584   5.029  3.1326  1.0894 -0.8537
 5948SOL    HW218561   3.255   2.663   4.980  0.8874 -0.4036  2.0237
 5949SOL     OW18562   1.275   3.715   0.886  0.0592  0.6981  0.4913
 5949SOL    HW118563   1.292   3.641   0.944 -0.8661 -0.6359 -0.9107
 5949SOL    HW218564   1.180   3.719   0.880  0.1575  0.7178 -1.0660
 5950SOL     OW18565   3.277   5.773   2.736 -0.2609  0.0647 -0.3553
 5950SOL    HW118566   3.297   5.759   2.644  0.5208  2.3633 -0.5747
 5950SOL    HW218567   3.199   5.828   2.736  0.0921  0.5761  0.3332
 5951SOL     OW18568   0.959   3.713   1.128 -0.1218  0.1448 -0.2861
 5951SOL    HW118569   0.975   3.757   1.045 -0.9641  1.3620  0.1788
 5951SOL    HW218570   1.026   3.645   1.132  1.1485  1.3060 -1.0879
 5952SOL     OW18571   6.255   1.447   1.674  0.0226  0.3093 -0.3542
 5952SOL    HW118572   6.315   1.519   1.657 -0.8620  0.4839 -3.0673
 5952SOL    HW218573   6.298   1.370   1.635 -0.7408  0.1279 -0.8616
 5953SOL     OW18574   0.639   2.490   3.250  0.6024  0.3249 -0.0761
 5953SOL    HW118575   0.664   2.483   3.158  0.7229  0.4643 -0.0545
 5953SOL    HW218576   0.591   2.573   3.255  0.1162  0.0431 -0.1217
 5954SOL     OW18577   5.264   6.447   6.121  0.8052 -0.1418  0.1835
 5954SOL    HW118578   5.355   6.437   6.148  0.9772 -1.8268 -0.9741
 5954SOL    HW218579   5.232   6.358   6.107 -0.9933  0.4321  0.4685
 5955SOL     OW18580   4.515   5.302   1.883 -0.0150  0.0711  0.2337
 5955SOL    HW118581   4.593   5.334   1.836  0.6116  0.2259  1.3556
 5955SOL    HW218582   4.504   5.364   1.955 -0.8370 -0.3010  0.4328
 5956SOL     OW18583   3.012   1.161   6.649 -0.3953 -0.7657  0.0113
 5956SOL    HW118584   2.987   1.112   6.728  0.5486 -1.0171  0.1603
 5956SOL    HW218585   2.942   1.225   6.638 -1.3009 -1.7130  0.1938
 5957SOL     OW18586   1.118   3.310   3.687 -0.1630  0.1780 -0.3666
 5957SOL    HW118587   1.126   3.398   3.649  0.2949  0.0340 -0.6107
 5957SOL    HW218588   1.184   3.258   3.641  0.0175 -0.1361  0.2389
 5958SOL     OW18589   0.308   2.606   1.807 -0.4024  0.0395 -1.1021
 5958SOL    HW118590   0.378   2.671   1.817 -0.3188  0.0511 -1.7389
 5958SOL    HW218591   0.248   2.625   1.879 -0.0865  0.4540 -0.9429
 5959SOL     OW18592   1.189   0.302   3.548  0.1394  0.0850 -0.8241
 5959SOL    HW118593   1.248   0.337   3.480 -0.0096  1.7708 -0.1058
 5959SOL    HW218594   1.246   0.246   3.601  0.8570  0.8078 -0.8097
 5960SOL     OW18595   2.049   5.476   3.063 -0.1663  0.0047 -0.0111
 5960SOL    HW118596   2.112   5.473   2.992  3.8990  0.0413  3.3968
 5960SOL    HW218597   2.032   5.570   3.076 -0.0699  0.0546 -0.2541
 5961SOL     OW18598   6.510   2.205   5.002 -0.0768 -0.2032  0.0003
 5961SOL    HW118599   6.530   2.289   5.043  0.4781 -0.9994  1.4014
 5961SOL    HW218600   6.469   2.153   5.071  0.8154 -1.5516 -0.4534
 5962SOL     OW18601   6.412   0.881   2.864 -0.6276 -0.5405 -1.3744
 5962SOL    HW118602   6.326   0.922   2.872  0.5770  1.6564  0.8721
 5962SOL    HW218603   6.426   0.838   2.948  1.4942  1.2325 -0.7752
 5963SOL     OW18604   4.583   3.891   5.275  0.3044 -0.0865 -0.0717
 5963SOL    HW118605   4.611   3.926   5.190  0.5915 -1.0575 -0.3800
 5963SOL    HW218606   4.599   3.797   5.269 -0.8722 -0.3377  0.6020
 5964SOL     OW18607   2.546   4.046   6.306 -0.1911 -0.1338  0.8875
 5964SOL    HW118608   2.474   4.000   6.264 -0.4589  0.4601  0.6946
 5964SOL    HW218609   2.616   3.981   6.311  0.3988  0.2283 -1.9071
 5965SOL     OW18610   4.746   0.119   6.166  0.2916 -0.9304 -0.7992
 5965SOL    HW118611   4.728   0.043   6.223  0.0818  0.1826  0.6385
 5965SOL    HW218612   4.830   0.152   6.196 -0.8691  1.0382  0.4197
 5966SOL     OW18613   2.647   5.500   2.785  0.0598  0.5521 -0.0947
 5966SOL    HW118614   2.725   5.542   2.747  0.4673 -0.0726  0.0508
 5966SOL    HW218615   2.622   5.558   2.857 -0.1196  1.2052 -0.6721
 5967SOL     OW18616   1.437   0.369   1.040  0.1256 -0.1036  0.3752
 5967SOL    HW118617   1.453   0.461   1.063  1.4818  0.1592 -1.5262
 5967SOL    HW218618   1.342   0.360   1.044  0.1517  0.5868  3.4788
 5968SOL     OW18619   6.742   4.177   2.079 -0.7632  0.6656 -0.4002
 5968SOL    HW118620   6.805   4.114   2.043 -2.2513 -1.0662 -0.0407
 5968SOL    HW218621   6.660   4.128   2.086 -1.9362  2.6139  0.0227
 5969SOL     OW18622   3.865   2.107   4.258  0.0468 -0.2192 -0.5874
 5969SOL    HW118623   3.925   2.094   4.185  0.9788 -0.9121  0.3025
 5969SOL    HW218624   3.822   2.191   4.238  1.2102  0.2212 -1.2855
 5970SOL     OW18625   2.074   2.117   4.854  0.3388  0.8561 -0.4259
 5970SOL    HW118626   2.042   2.207   4.847  0.8066  0.9366 -1.6846
 5970SOL    HW218627   2.168   2.125   4.842  0.1681 -0.0042 -2.4421
 5971SOL     OW18628   0.745   1.637   2.933 -0.0841  0.1248  0.2770
 5971SOL    HW118629   0.837   1.650   2.956 -0.0472 -1.8980  1.3908
 5971SOL    HW218630   0.730   1.696   2.859  2.3944 -0.3054 -0.6163
 5972SOL     OW18631   0.517   6.629   1.913  0.6661 -0.9814 -0.6976
 5972SOL    HW118632   0.608   6.647   1.935  0.2833 -0.0874  0.2177
 5972SOL    HW218633   0.480   6.589   1.991 -0.5942  1.8287  0.2093
 5973SOL     OW18634   2.069   0.979   6.472  1.0396  0.5896 -0.3500
 5973SOL    HW118635   2.152   1.025   6.482  1.2583 -0.2362  1.9609
 5973SOL    HW218636   2.087   0.890   6.503 -0.6159  0.3076 -0.1400
 5974SOL     OW18637   2.701   0.199   2.632 -0.3904 -0.0460  0.0014
 5974SOL    HW118638   2.744   0.118   2.604 -0.2414 -0.0005  0.0998
 5974SOL    HW218639   2.748   0.226   2.710 -0.4805  0.1026  0.0055
 5975SOL     OW18640   3.828   1.073   4.608 -0.5242 -0.1782 -0.5561
 5975SOL    HW118641   3.796   0.993   4.649 -0.8871  0.2271 -0.0426
 5975SOL    HW218642   3.827   1.138   4.678  1.7825 -0.2540 -0.4415
 5976SOL     OW18643   4.311   1.162   2.748  0.1359  0.1289 -0.3835
 5976SOL    HW118644   4.327   1.228   2.816  0.2734 -1.2838  0.9863
 5976SOL    HW218645   4.226   1.125   2.771 -0.4876  0.6232 -1.8312
 5977SOL     OW18646   3.060   2.453   2.544  0.3426 -0.1082  0.1533
 5977SOL    HW118647   3.017   2.490   2.467  2.2593  1.8458 -0.0133
 5977SOL    HW218648   2.988   2.417   2.597 -0.9289 -2.5156 -3.0236
 5978SOL     OW18649   0.377   1.215   4.427 -0.2022  0.2148  0.1840
 5978SOL    HW118650   0.457   1.170   4.400 -0.2367  1.3919 -2.0478
 5978SOL    HW218651   0.314   1.145   4.444  0.0595 -0.6647 -2.1826
 5979SOL     OW18652   6.118   1.884   0.192  0.2137  0.4320  0.3296
 5979SOL    HW118653   6.129   1.958   0.251  0.1059 -0.4342  1.4554
 5979SOL    HW218654   6.143   1.918   0.106 -0.0246  1.8157  0.7996
 5980SOL     OW18655   4.179   0.949   1.327  0.4284 -0.0289 -0.2200
 5980SOL    HW118656   4.194   1.043   1.315 -0.4676 -0.0053 -1.2259
 5980SOL    HW218657   4.217   0.930   1.412  2.0400  0.9308 -0.6970
 5981SOL     OW18658   0.690   1.890   4.611  0.4844  0.3439  0.2036
 5981SOL    HW118659   0.714   1.948   4.539  1.3018  1.8732  1.7056
 5981SOL    HW218660   0.622   1.938   4.659  0.9406 -0.0822  1.2731
 5982SOL     OW18661   2.233   6.285   6.145  0.4993 -0.3781 -0.0104
 5982SOL    HW118662   2.275   6.199   6.132  0.9605 -0.2990  0.9086
 5982SOL    HW218663   2.147   6.275   6.106  0.7451 -1.1014 -0.3899
 5983SOL     OW18664   5.757   2.892   2.988  0.3429 -0.1284  0.2857
 5983SOL    HW118665   5.691   2.866   3.053  1.0042 -0.4446  0.8354
 5983SOL    HW218666   5.708   2.942   2.923 -0.1755  1.0747  1.5545
 5984SOL     OW18667   5.167   4.524   5.433 -0.3160 -0.1406  0.2168
 5984SOL    HW118668   5.233   4.489   5.374  1.0610  0.1976  1.5399
 5984SOL    HW218669   5.101   4.563   5.374 -0.2277 -1.9790 -1.1505
 5985SOL     OW18670   5.732   4.845   3.772 -0.0227  0.0029 -0.6491
 5985SOL    HW118671   5.759   4.831   3.862  2.6882 -0.8143 -1.5466
 5985SOL    HW218672   5.808   4.884   3.729 -1.6635  1.4728 -2.3193
 5986SOL     OW18673   1.814   3.154   3.520 -0.2792 -0.1649 -0.1866
 5986SOL    HW118674   1.887   3.154   3.458 -1.7311 -0.8610 -1.9079
 5986SOL    HW218675   1.738   3.181   3.469 -1.8272 -2.3788  0.8891
 5987SOL     OW18676   5.337   0.366   6.369  0.2973  0.3181  0.1041
 5987SOL    HW118677   5.340   0.399   6.458 -0.7748 -0.5108  0.4608
 5987SOL    HW218678   5.318   0.273   6.378 -1.9435  0.6171 -1.0212
 5988SOL     OW18679   3.717   0.207   1.669  0.5604 -0.2153 -0.2070
 5988SOL    HW118680   3.702   0.292   1.709 -0.4197 -1.2967  1.7960
 5988SOL    HW218681   3.804   0.181   1.697  0.2554 -0.5376  0.4651
 5989SOL     OW18682   5.080   2.434   6.508  0.6963  0.4526 -0.7015
 5989SOL    HW118683   5.074   2.501   6.576 -0.6019 -1.2151  0.8763
 5989SOL    HW218684   5.019   2.366   6.536  1.4172 -1.0505 -2.6679
 5990SOL     OW18685   0.959   3.665   3.996  0.5313 -0.2057 -0.5744
 5990SOL    HW118686   0.878   3.615   3.988 -0.3869  0.3986  3.7622
 5990SOL    HW218687   1.025   3.601   4.024  0.8132 -0.0922 -0.9658
 5991SOL     OW18688   3.096   3.839   6.731  0.0948 -0.3892 -0.5211
 5991SOL    HW118689   3.172   3.820   6.676  1.6781  2.2889  0.6303
 5991SOL    HW218690   3.130   3.897   6.799 -2.8116  0.1378  0.5511
 5992SOL     OW18691   3.851   1.225   4.837 -0.5433  0.8310 -0.1586
 5992SOL    HW118692   3.871   1.168   4.911 -0.1510 -0.6640 -1.4101
 5992SOL    HW218693   3.872   1.313   4.870  0.9608  0.0565  1.0513
 5993SOL     OW18694   5.858   5.713   4.804  0.1366 -0.2515 -0.9395
 5993SOL    HW118695   5.920   5.651   4.767 -1.5167 -2.1092 -0.6751
 5993SOL    HW218696   5.794   5.728   4.735 -0.5003 -0.2795 -0.3619
 5994SOL     OW18697   0.271   4.706   1.284 -0.2940 -0.4116  0.4656
 5994SOL    HW118698   0.216   4.776   1.318 -1.2199 -0.4382 -0.9150
 5994SOL    HW218699   0.273   4.640   1.354 -1.8570 -0.3186  0.6268
 5995SOL     OW18700   6.459   6.026   0.532  0.1478  1.1061  0.1045
 5995SOL    HW118701   6.515   6.056   0.460 -0.6062  0.9579 -0.5448
 5995SOL    HW218702   6.481   5.933   0.541  1.3243  1.4628  1.0617
 5996SOL     OW18703   4.135   3.431   3.568 -0.0427  0.1367  0.1803
 5996SOL    HW118704   4.115   3.481   3.489 -1.6294  0.6680  0.9154
 5996SOL    HW218705   4.216   3.384   3.546 -1.9298 -1.9077 -2.7501
 5997SOL     OW18706   1.802   2.821   4.580  0.7771 -0.3550 -0.2516
 5997SOL    HW118707   1.831   2.890   4.521  0.8792 -1.6481 -1.7312
 5997SOL    HW218708   1.710   2.807   4.559  0.5736 -0.2191  0.5080
 5998SOL     OW18709   0.662   6.758   4.555  0.4824  0.2149 -0.5825
 5998SOL    HW118710   0.585   6.722   4.599  1.0460 -0.5185 -0.1892
 5998SOL    HW218711   0.704   6.814   4.620  0.1306  0.8407 -0.8885
 5999SOL     OW18712   6.751   4.761   3.470  0.8202  0.4122  0.1502
 5999SOL    HW118713   6.843   4.745   3.488  0.4560 -1.4101  0.5627
 5999SOL    HW218714   6.725   4.690   3.411 -0.2151  1.1453 -0.2948
 6000SOL     OW18715   0.661   0.867   5.481  0.0534 -0.0165  0.2525
 6000SOL    HW118716   0.615   0.794   5.441  0.0414 -0.3538  0.8701
 6000SOL    HW218717   0.720   0.899   5.413 -0.4917 -0.1109 -0.2683
 6001SOL     OW18718   1.589   0.244   3.682  0.1232  0.4650 -0.1159
 6001SOL    HW118719   1.616   0.258   3.591 -0.8658  1.2524 -0.2965
 6001SOL    HW218720   1.506   0.197   3.675  0.1812  0.2919  0.3899
 6002SOL     OW18721   0.209   2.329   2.471  0.0253  0.0815 -0.2102
 6002SOL    HW118722   0.301   2.347   2.450  0.2888 -0.7521  0.2251
 6002SOL    HW218723   0.177   2.278   2.396 -0.3027  1.0364 -0.7279
 6003SOL     OW18724   5.216   6.105   5.748 -0.9787  0.5441  0.6046
 6003SOL    HW118725   5.257   6.092   5.662 -1.9396 -0.6825  0.3166
 6003SOL    HW218726   5.289   6.122   5.807 -0.0719 -1.1380  0.0055
 6004SOL     OW18727   1.833   2.736   2.763 -0.0346 -0.0683 -0.1534
 6004SOL    HW118728   1.851   2.826   2.736 -0.6646 -0.2158 -1.0788
 6004SOL    HW218729   1.782   2.745   2.844  0.7193  0.3855  0.2818
 6005SOL     OW18730   3.769   5.507   1.816 -0.1869 -0.3889 -0.9347
 6005SOL    HW118731   3.842   5.548   1.862  0.5590 -0.4854 -2.0155
 6005SOL    HW218732   3.809   5.464   1.740 -1.5540  0.8319 -2.3710
 6006SOL     OW18733   3.495   2.173   2.477 -0.7376  0.0987  0.2166
 6006SOL    HW118734   3.478   2.154   2.569 -1.2871  1.8933  0.5046
 6006SOL    HW218735   3.419   2.223   2.448 -0.2474  0.1522 -1.0250
 6007SOL     OW18736   5.027   3.451   3.696 -0.2851 -0.1417  0.3719
 6007SOL    HW118737   5.107   3.501   3.712  0.1472 -0.7049 -0.0108
 6007SOL    HW218738   4.956   3.513   3.712  0.2459  0.5716 -0.0276
 6008SOL     OW18739   2.686   1.443   0.454 -0.0035  0.6420  0.7218
 6008SOL    HW118740   2.707   1.485   0.371 -0.8210  0.0892  0.2364
 6008SOL    HW218741   2.740   1.364   0.456 -0.2161  0.4933  0.5771
 6009SOL     OW18742   5.802   1.494   4.143 -0.0179  0.3551  0.1324
 6009SOL    HW118743   5.790   1.403   4.115  1.3186  0.4384 -0.7652
 6009SOL    HW218744   5.813   1.488   4.238  0.1575 -0.4429  0.0688
 6010SOL     OW18745   2.431   3.049   6.613  0.2122  0.0467 -0.1162
 6010SOL    HW118746   2.511   3.006   6.585  0.6552  0.4472  0.5375
 6010SOL    HW218747   2.458   3.137   6.639 -0.6505  0.6462 -1.2097
 6011SOL     OW18748   5.070   1.448   0.797 -0.0151 -0.4060  0.5391
 6011SOL    HW118749   5.103   1.383   0.859  0.5765 -0.6484 -0.0182
 6011SOL    HW218750   4.992   1.484   0.838  0.1122 -0.8987  1.2122
 6012SOL     OW18751   5.967   0.200   1.614  0.0411  0.0310  0.3431
 6012SOL    HW118752   5.972   0.181   1.520 -1.3609 -0.7201  0.4237
 6012SOL    HW218753   6.034   0.145   1.654 -0.9209 -1.3693  0.0461
 6013SOL     OW18754   2.374   2.971   5.551 -0.4050 -0.0094 -0.3121
 6013SOL    HW118755   2.364   2.983   5.645 -0.6898 -0.7151 -0.2504
 6013SOL    HW218756   2.289   2.997   5.514  0.2096  1.7336 -0.5150
 6014SOL     OW18757   5.590   2.346   1.598 -0.4069 -0.1125 -0.2579
 6014SOL    HW118758   5.631   2.262   1.619 -1.2299 -0.5123 -0.2134
 6014SOL    HW218759   5.597   2.353   1.503 -0.4044 -0.2767 -0.2701
 6015SOL     OW18760   3.777   4.379   5.490  0.4135  0.3198  0.6613
 6015SOL    HW118761   3.849   4.405   5.433  0.7053  0.0566  0.9097
 6015SOL    HW218762   3.700   4.377   5.433  0.5587  0.8339  0.4442
 6016SOL     OW18763   3.319   1.284   4.849 -0.3207  0.5167 -0.3303
 6016SOL    HW118764   3.390   1.221   4.864 -0.5896  0.4493  0.7331
 6016SOL    HW218765   3.360   1.370   4.859 -0.5753  0.4686  1.2354
 6017SOL     OW18766   1.170   6.670   2.070 -0.2695 -0.1307 -0.1143
 6017SOL    HW118767   1.123   6.592   2.099 -0.9134  1.0451  2.1099
 6017SOL    HW218768   1.262   6.649   2.084 -0.4983 -0.0949  1.6199
 6018SOL     OW18769   4.121   0.338   2.820 -0.5503 -0.2183 -0.4186
 6018SOL    HW118770   4.158   0.282   2.889  0.5100 -3.4261 -3.4121
 6018SOL    HW218771   4.194   0.393   2.792 -0.4939 -0.1743 -0.1831
 6019SOL     OW18772   1.601   5.096   5.420 -0.1356 -0.4944 -0.2243
 6019SOL    HW118773   1.544   5.025   5.392  0.5378 -1.5384  0.9863
 6019SOL    HW218774   1.636   5.067   5.504  0.0234  1.3479  0.3690
 6020SOL     OW18775   3.874   0.496   0.809 -0.7096  0.4466 -0.1321
 6020SOL    HW118776   3.811   0.493   0.737 -0.1890 -0.8845 -0.5456
 6020SOL    HW218777   3.917   0.582   0.799 -0.0826 -0.0441 -1.9003
 6021SOL     OW18778   1.097   5.529   2.113  0.8452  0.1155 -0.9474
 6021SOL    HW118779   1.025   5.467   2.104  1.0611 -0.3245  0.2234
 6021SOL    HW218780   1.176   5.476   2.109  0.9913  0.0775  1.6716
 6022SOL     OW18781   5.520   3.588   3.074  0.0243 -0.2214  0.0365
 6022SOL    HW118782   5.484   3.559   3.158  0.9416  0.6212  0.7295
 6022SOL    HW218783   5.566   3.511   3.040  0.2243 -0.3621  0.6226
 6023SOL     OW18784   1.707   0.183   1.990 -0.3460  0.4336  0.2642
 6023SOL    HW118785   1.615   0.178   2.014 -0.8477  1.0293 -1.4601
 6023SOL    HW218786   1.738   0.264   2.031 -0.1039 -0.6890  2.3546
 6024SOL     OW18787   0.373   5.762   1.105 -0.1249 -0.0575  0.2906
 6024SOL    HW118788   0.323   5.703   1.049  2.2019 -0.9264 -0.9391
 6024SOL    HW218789   0.332   5.753   1.192 -1.1525 -1.8429 -0.3483
 6025SOL     OW18790   1.789   4.030   3.624  0.0987  0.1375 -0.1520
 6025SOL    HW118791   1.875   4.063   3.597 -0.2304  0.4290 -0.8705
 6025SOL    HW218792   1.758   4.094   3.687 -0.2564  0.8784 -1.0606
 6026SOL     OW18793   4.680   6.645   5.532  0.2823  0.2922  0.3053
 6026SOL    HW118794   4.615   6.603   5.476 -1.4589  0.0354  2.4503
 6026SOL    HW218795   4.742   6.575   5.553 -0.3777 -0.2068  0.6050
 6027SOL     OW18796   1.348   6.324   4.131  0.0297  0.3235  0.1965
 6027SOL    HW118797   1.419   6.383   4.108 -0.4590  0.9550  0.2790
 6027SOL    HW218798   1.305   6.305   4.048  0.5103 -0.3420  0.0992
 6028SOL     OW18799   6.249   4.282   5.690  0.0790 -0.3425 -0.1803
 6028SOL    HW118800   6.172   4.230   5.713  1.0400 -0.9760  1.6859
 6028SOL    HW218801   6.311   4.265   5.760  1.3897  1.3111 -0.9122
 6029SOL     OW18802   5.674   6.627   6.199 -0.6408  0.0141  0.0312
 6029SOL    HW118803   5.686   6.720   6.220  0.9130 -0.6857  2.3769
 6029SOL    HW218804   5.734   6.581   6.258 -0.5394 -2.4291 -1.9065
 6030SOL     OW18805   4.257   0.940   1.589 -0.0218  0.2785  0.0250
 6030SOL    HW118806   4.242   0.961   1.681  0.9576  0.2513  0.2005
 6030SOL    HW218807   4.337   0.989   1.566  0.7044 -1.0448 -0.3236
 6031SOL     OW18808   1.327   5.644   4.928  0.0540  0.4908 -0.0838
 6031SOL    HW118809   1.404   5.687   4.965 -0.3538  0.7927  0.4216
 6031SOL    HW218810   1.346   5.638   4.834  0.3213  1.3471 -0.0960
 6032SOL     OW18811   6.594   4.352   0.618  0.2676  0.2437 -0.1963
 6032SOL    HW118812   6.677   4.318   0.653 -0.0246  2.8655  3.3212
 6032SOL    HW218813   6.615   4.440   0.589 -1.1087  0.6548  0.0133
 6033SOL     OW18814   2.760   3.447   4.167 -0.1483 -0.9478 -0.3480
 6033SOL    HW118815   2.835   3.503   4.187 -1.6966  1.4333 -1.0479
 6033SOL    HW218816   2.694   3.471   4.232 -0.9945 -1.6229 -0.9541
 6034SOL     OW18817   6.048   6.764   0.650 -0.2186 -0.4762 -0.3155
 6034SOL    HW118818   6.038   6.689   0.592 -0.1114 -0.3690 -0.4723
 6034SOL    HW218819   6.021   6.839   0.597  1.7223 -0.1374 -0.8474
 6035SOL     OW18820   4.592   2.195   4.590 -0.2377 -0.1876  0.4383
 6035SOL    HW118821   4.686   2.205   4.602 -0.1783 -0.4360  0.1954
 6035SOL    HW218822   4.554   2.275   4.626  0.0281 -0.3236  1.0208
 6036SOL     OW18823   6.400   5.151   3.962 -0.2058 -0.3314  0.2954
 6036SOL    HW118824   6.418   5.061   3.936 -1.2411  0.0606 -1.8365
 6036SOL    HW218825   6.348   5.187   3.890 -1.8309  1.2505  2.2118
 6037SOL     OW18826   5.124   3.368   2.796 -0.7161  0.1107  0.0563
 6037SOL    HW118827   5.198   3.326   2.841 -0.4388  2.1136  1.5864
 6037SOL    HW218828   5.048   3.347   2.850 -0.6489  1.1482  0.5677
 6038SOL     OW18829   5.680   2.281   4.861  0.1607 -0.1780 -0.0735
 6038SOL    HW118830   5.645   2.320   4.780  0.3005 -0.8521 -0.4620
 6038SOL    HW218831   5.704   2.356   4.915  0.4574  0.2778 -0.8310
 6039SOL     OW18832   2.657   4.311   1.446 -0.1695 -0.3848 -0.2105
 6039SOL    HW118833   2.607   4.284   1.369 -0.0966 -0.2082 -0.3199
 6039SOL    HW218834   2.652   4.237   1.506  0.7729 -0.9746 -0.8618
 6040SOL     OW18835   6.719   5.152   1.398  0.0850 -0.2738  0.0879
 6040SOL    HW118836   6.771   5.193   1.328  0.2900 -1.3431 -0.3933
 6040SOL    HW218837   6.637   5.201   1.397  0.2579  0.0133 -0.6058
 6041SOL     OW18838   0.055   3.220   0.701 -0.3972 -0.5289 -0.6577
 6041SOL    HW118839   0.128   3.224   0.638  0.5861  1.8407  0.5478
 6041SOL    HW218840   0.087   3.269   0.776 -3.5153  1.1277 -0.3565
 6042SOL     OW18841   4.124   3.921   4.515 -0.0703 -0.0465 -0.1364
 6042SOL    HW118842   4.148   3.962   4.599  0.2970  0.6219 -0.5614
 6042SOL    HW218843   4.107   3.830   4.537 -1.2224  0.3910  0.8957
 6043SOL     OW18844   2.845   4.620   4.968 -0.0654  0.0467  0.4310
 6043SOL    HW118845   2.792   4.571   5.031 -0.2505  1.6652  1.5832
 6043SOL    HW218846   2.789   4.628   4.891 -0.3124 -0.9124  0.5056
 6044SOL     OW18847   6.310   6.052   2.383  0.2102  0.7649 -0.4998
 6044SOL    HW118848   6.300   6.125   2.322  0.0772  0.7746 -0.4656
 6044SOL    HW218849   6.341   6.092   2.464  0.1934  0.7765 -0.4990
 6045SOL     OW18850   6.114   2.021   2.631 -0.4719  0.3480  0.0083
 6045SOL    HW118851   6.042   2.020   2.569 -0.0347  1.1038 -0.5208
 6045SOL    HW218852   6.181   2.077   2.590  0.6318 -0.7701  0.2420
 6046SOL     OW18853   4.752   3.163   4.158 -0.4767  0.0004 -0.1193
 6046SOL    HW118854   4.668   3.147   4.113 -0.2904  0.0449 -0.4854
 6046SOL    HW218855   4.813   3.182   4.087 -0.2269  0.2782  0.1707
 6047SOL     OW18856   5.132   5.969   0.883 -0.2685  0.3560  0.1647
 6047SOL    HW118857   5.152   5.989   0.975  0.2054  1.3210 -0.1432
 6047SOL    HW218858   5.052   5.915   0.887  1.3786 -2.0977  1.3100
 6048SOL     OW18859   3.026   2.545   0.523  0.3526 -0.0044 -0.6182
 6048SOL    HW118860   2.976   2.587   0.593 -0.7690 -1.0157 -0.8107
 6048SOL    HW218861   3.037   2.614   0.458 -0.7957  0.2282 -0.5725
 6049SOL     OW18862   3.111   2.071   3.385 -0.1963  0.0415 -0.2215
 6049SOL    HW118863   3.178   2.127   3.422  0.3963 -0.6703 -0.1954
 6049SOL    HW218864   3.034   2.085   3.440  0.6366 -0.8971  1.1942
 6050SOL     OW18865   3.116   6.656   5.016  0.0249  0.2372 -0.4876
 6050SOL    HW118866   3.022   6.667   5.005  0.0085 -1.4512 -2.2411
 6050SOL    HW218867   3.140   6.720   5.083 -2.5153  0.0409  0.6692
 6051SOL     OW18868   5.934   0.497   2.495  0.0884 -0.2310  0.1867
 6051SOL    HW118869   5.880   0.531   2.566  1.1586  0.5603  0.6243
 6051SOL    HW218870   6.024   0.520   2.519  0.3601  1.1858 -2.0550
 6052SOL     OW18871   2.517   2.914   1.254  0.1251  0.0162  0.1902
 6052SOL    HW118872   2.471   2.900   1.171 -1.0217  0.1459  0.7981
 6052SOL    HW218873   2.504   3.007   1.274 -0.2776 -0.1892  0.9070
 6053SOL     OW18874   5.617   2.698   0.131 -0.9699  0.5245 -0.5826
 6053SOL    HW118875   5.625   2.765   0.199 -0.2422  1.3934 -1.5222
 6053SOL    HW218876   5.549   2.639   0.164  0.4759  0.0385  1.6509
 6054SOL     OW18877   4.666   0.498   1.090 -0.0721 -0.3752 -1.0820
 6054SOL    HW118878   4.755   0.529   1.105 -0.7894  1.3048 -0.1820
 6054SOL    HW218879   4.651   0.434   1.160  0.4103 -0.6259 -1.2064
 6055SOL     OW18880   6.329   6.255   0.609 -0.1475  0.7939 -0.0506
 6055SOL    HW118881   6.337   6.239   0.703 -3.5620  0.8075  0.2935
 6055SOL    HW218882   6.345   6.170   0.569  0.7246  0.6578  0.5744
 6056SOL     OW18883   1.313   4.396   5.232 -0.4111  0.3959 -0.1117
 6056SOL    HW118884   1.314   4.320   5.174  0.5917 -0.2896  0.7864
 6056SOL    HW218885   1.297   4.360   5.319  1.3289  1.0729  0.5077
 6057SOL     OW18886   6.369   2.016   4.594  0.6397  0.1139  0.4561
 6057SOL    HW118887   6.365   2.024   4.689  0.8725  0.0679  0.4703
 6057SOL    HW218888   6.382   1.923   4.578 -1.0444 -0.1262  0.3233
 6058SOL     OW18889   2.435   6.066   1.433  0.4134  0.2171  0.1435
 6058SOL    HW118890   2.339   6.067   1.442  0.5515  1.1178  1.7954
 6058SOL    HW218891   2.466   6.033   1.517  1.5355 -1.0844 -0.7738
 6059SOL     OW18892   2.159   5.833   1.412 -0.7339  0.1319  0.5752
 6059SOL    HW118893   2.250   5.804   1.420 -0.7442 -0.6811 -1.9200
 6059SOL    HW218894   2.161   5.925   1.437  0.4216 -0.3539  2.3889
 6060SOL     OW18895   4.622   3.632   3.182  0.0420  0.3419  0.4521
 6060SOL    HW118896   4.536   3.598   3.158  1.2818 -1.6740 -1.3666
 6060SOL    HW218897   4.606   3.686   3.259 -2.6241 -1.2327  1.0692
 6061SOL     OW18898   1.305   4.651   4.007 -0.0602 -0.2256 -0.4680
 6061SOL    HW118899   1.385   4.653   4.058  0.7460 -1.4580 -1.6246
 6061SOL    HW218900   1.306   4.732   3.956  1.0268 -0.7378 -1.2877
 6062SOL     OW18901   6.173   4.555   0.010 -0.1254  0.0577 -0.7725
 6062SOL    HW118902   6.130   4.635   0.040  1.3328  0.8896 -0.8388
 6062SOL    HW218903   6.252   4.549   0.064 -1.2525 -2.4665  0.6688
 6063SOL     OW18904   4.105   3.557   1.899 -0.6467  0.0516 -0.4577
 6063SOL    HW118905   4.170   3.568   1.968 -0.5559 -2.3086 -0.1264
 6063SOL    HW218906   4.026   3.597   1.933 -0.0470  0.6792  0.1931
 6064SOL     OW18907   5.549   6.235   1.667  0.0718  0.3877 -0.0188
 6064SOL    HW118908   5.599   6.284   1.732  1.2875 -1.5213  0.5368
 6064SOL    HW218909   5.591   6.256   1.584  0.0290  0.9725  0.1069
 6065SOL     OW18910   3.369   3.091   3.034  0.5743 -0.0433  0.3754
 6065SOL    HW118911   3.330   3.121   3.116 -0.1762 -0.6221  0.2472
 6065SOL    HW218912   3.407   3.006   3.056 -0.5596 -0.6930 -0.1074
 6066SOL     OW18913   1.169   0.042   5.701 -0.2436  0.1041 -0.2300
 6066SOL    HW118914   1.156   0.124   5.749 -0.1070 -0.3930  0.6453
 6066SOL    HW218915   1.169   0.069   5.609 -1.5764  0.8994 -0.0056
 6067SOL     OW18916   0.821   5.649   6.311 -1.0586  0.0312 -0.2503
 6067SOL    HW118917   0.758   5.691   6.369  0.3175 -0.9742  2.0406
 6067SOL    HW218918   0.770   5.621   6.235 -2.5021  3.3383 -0.5840
 6068SOL     OW18919   2.395   1.063   0.822 -0.3327 -0.0594 -0.2224
 6068SOL    HW118920   2.370   1.025   0.737  0.2357 -0.8162 -0.0604
 6068SOL    HW218921   2.323   1.038   0.881  0.1875 -1.1665 -0.0440
 6069SOL     OW18922   3.948   3.945   2.446 -0.2092  0.3559 -0.0374
 6069SOL    HW118923   4.002   3.992   2.510  0.5267 -0.8167  0.2264
 6069SOL    HW218924   4.005   3.876   2.413 -1.4219 -0.6562 -0.0612
 6070SOL     OW18925   1.638   6.320   4.742 -0.5607  0.0218  0.0025
 6070SOL    HW118926   1.604   6.405   4.716  2.4175  0.8373 -1.5062
 6070SOL    HW218927   1.634   6.320   4.838 -0.4484  1.9286  0.0269
 6071SOL     OW18928   1.234   1.371   6.597  0.0758  0.1406 -0.2646
 6071SOL    HW118929   1.266   1.447   6.548  2.6477 -1.4853 -1.2262
 6071SOL    HW218930   1.313   1.330   6.631 -1.4597 -0.6146  2.5473
 6072SOL     OW18931   4.368   1.496   4.009  0.5367 -0.1041  0.0899
 6072SOL    HW118932   4.299   1.430   4.006 -2.6933  3.0508  1.2784
 6072SOL    HW218933   4.368   1.535   3.922  1.0680 -0.2768  0.0057
 6073SOL     OW18934   3.707   0.466   3.923 -0.6859  0.1473  0.1233
 6073SOL    HW118935   3.666   0.468   4.010  0.4547 -0.0387  0.6784
 6073SOL    HW218936   3.671   0.542   3.878 -2.7945 -0.8532  0.0405
 6074SOL     OW18937   1.738   5.378   6.076  0.1941  0.3003 -0.0136
 6074SOL    HW118938   1.643   5.372   6.079  0.1656 -1.3848 -2.8598
 6074SOL    HW218939   1.769   5.305   6.129 -0.0887  0.2290  0.0545
 6075SOL     OW18940   6.639   6.634   5.126 -0.1427 -0.1994  0.0027
 6075SOL    HW118941   6.730   6.624   5.098 -0.0821 -0.8570  0.4105
 6075SOL    HW218942   6.608   6.712   5.081  0.3886 -0.4176 -0.7400
 6076SOL     OW18943   6.232   4.828   3.318  0.3978  1.0275 -0.2509
 6076SOL    HW118944   6.138   4.847   3.322 -0.0450 -1.3579  1.2678
 6076SOL    HW218945   6.238   4.748   3.266  1.4928  0.6379  0.4693
 6077SOL     OW18946   5.477   1.686   0.746 -0.0477  0.3370 -1.2796
 6077SOL    HW118947   5.529   1.606   0.754  0.0191  0.6144  1.7081
 6077SOL    HW218948   5.540   1.752   0.716  1.5087  0.7249  2.5507
 6078SOL     OW18949   6.547   3.607   2.221  0.0822 -0.7638  0.0184
 6078SOL    HW118950   6.473   3.651   2.179  0.2980  0.3358  0.7661
 6078SOL    HW218951   6.572   3.538   2.160  0.1065  0.5258 -1.4494
 6079SOL     OW18952   3.258   2.299   2.373  0.6022  0.2756  0.0162
 6079SOL    HW118953   3.236   2.206   2.380  1.0931  0.0523 -1.2403
 6079SOL    HW218954   3.191   2.344   2.425 -0.1587 -0.7163 -0.0936
 6080SOL     OW18955   4.236   5.535   5.727  0.0588 -0.3329 -0.4285
 6080SOL    HW118956   4.189   5.504   5.804  0.4042  0.0944 -0.0424
 6080SOL    HW218957   4.274   5.618   5.754 -0.2767  0.0916 -1.2351
 6081SOL     OW18958   4.118   1.718   5.547 -0.2627 -0.2610  0.0129
 6081SOL    HW118959   4.058   1.721   5.472  0.0823  2.1613 -0.2136
 6081SOL    HW218960   4.061   1.721   5.624 -0.5109  2.0334 -0.2041
 6082SOL     OW18961   6.071   2.343   5.142  0.0519  0.1273  0.2020
 6082SOL    HW118962   6.038   2.417   5.091  1.7939  1.8522  1.4848
 6082SOL    HW218963   6.017   2.343   5.221 -0.3970 -0.4273 -0.0976
 6083SOL     OW18964   6.218   5.851   1.332  0.1164 -0.1376 -0.1446
 6083SOL    HW118965   6.136   5.834   1.378  0.0536  0.5285 -0.0019
 6083SOL    HW218966   6.200   5.825   1.241 -0.1873 -0.1892 -0.0705
 6084SOL     OW18967   1.363   0.974   2.509  0.2410  0.4353  0.5652
 6084SOL    HW118968   1.339   1.049   2.563  2.6784  2.0245 -0.5079
 6084SOL    HW218969   1.291   0.911   2.522 -0.3539  1.7123  3.8014
 6085SOL     OW18970   2.052   6.705   1.533  0.1277  0.0813  0.1147
 6085SOL    HW118971   2.028   6.644   1.603  1.6647 -0.8567 -0.1664
 6085SOL    HW218972   2.144   6.726   1.550 -0.0306  1.3378 -0.5288
 6086SOL     OW18973   3.421   2.260   0.367  0.0453 -0.1237 -0.2066
 6086SOL    HW118974   3.326   2.275   0.373  0.3469  1.4036  0.9796
 6086SOL    HW218975   3.455   2.288   0.452  1.8189  1.2764 -1.3491
 6087SOL     OW18976   3.611   4.855   2.405  0.1779  0.0775 -0.2802
 6087SOL    HW118977   3.561   4.881   2.328 -0.8431 -2.8842 -0.6879
 6087SOL    HW218978   3.550   4.864   2.478 -0.2534 -1.2775 -0.4542
 6088SOL     OW18979   5.071   0.597   3.297  0.2429 -0.5056 -0.2947
 6088SOL    HW118980   5.105   0.645   3.373 -3.4126  2.0184 -0.0937
 6088SOL    HW218981   5.106   0.643   3.221  1.1725 -0.9359 -0.1309
 6089SOL     OW18982   1.105   3.443   4.554 -0.3367  0.1045 -0.1759
 6089SOL    HW118983   1.166   3.517   4.559  0.6526 -0.6362 -1.2409
 6089SOL    HW218984   1.087   3.433   4.461 -2.6642  0.7606  0.1589
 6090SOL     OW18985   4.842   2.233   4.686  0.0833 -0.2644 -0.5335
 6090SOL    HW118986   4.864   2.265   4.773  1.4946  0.8272 -1.2776
 6090SOL    HW218987   4.910   2.168   4.666  0.6923  0.6361 -1.4491
 6091SOL     OW18988   4.547   2.227   2.685 -1.5144 -0.1692 -0.1617
 6091SOL    HW118989   4.529   2.187   2.600 -0.8863  0.8621 -0.7988
 6091SOL    HW218990   4.635   2.196   2.708 -0.9281  0.9889 -0.7683
 6092SOL     OW18991   4.147   0.985   5.687  0.7591  0.0281  0.0602
 6092SOL    HW118992   4.145   1.000   5.592 -0.5260 -0.1793  0.0409
 6092SOL    HW218993   4.136   1.071   5.726 -0.8703 -0.1321 -0.0074
 6093SOL     OW18994   1.695   4.587   0.832  0.3782 -0.2590 -0.0087
 6093SOL    HW118995   1.749   4.657   0.795  0.7400  0.1689  1.3034
 6093SOL    HW218996   1.694   4.604   0.926 -1.9039 -0.3853  0.0059
 6094SOL     OW18997   3.499   1.118   3.655 -0.3840  0.5488 -0.1952
 6094SOL    HW118998   3.482   1.209   3.680 -3.0608  0.3550 -1.1055
 6094SOL    HW218999   3.516   1.073   3.738 -0.9210  1.5207  0.4602
 6095SOL     OW19000   6.346   0.016   3.727  0.1261  0.2218  0.1745
 6095SOL    HW119001   6.294   0.079   3.677  1.3981  0.2980 -1.0775
 6095SOL    HW219002   6.390  -0.037   3.661 -1.3886 -2.4146  1.2020
 6096SOL     OW19003   5.749   2.686   2.108  0.9925  0.2688 -0.2021
 6096SOL    HW119004   5.772   2.675   2.016 -1.0194 -0.1349 -0.6815
 6096SOL    HW219005   5.708   2.603   2.133 -0.2099  1.0553  0.5137
 6097SOL     OW19006   3.408   1.959   4.810  0.0069  0.1147 -0.2233
 6097SOL    HW119007   3.375   2.031   4.757 -1.3611  0.0633  0.5252
 6097SOL    HW219008   3.431   1.891   4.747  0.8716  1.0302 -0.9039
 6098SOL     OW19009   2.245   5.968   0.641  0.0764  0.5816  0.8611
 6098SOL    HW119010   2.247   6.029   0.715  1.8960  1.0161  0.4672
 6098SOL    HW219011   2.311   6.001   0.580  0.8990 -1.6019  0.5131
 6099SOL     OW19012   3.749   1.998   5.623  0.1416 -0.1868  0.0943
 6099SOL    HW119013   3.703   2.014   5.540  0.9929  0.3996 -0.2808
 6099SOL    HW219014   3.701   2.050   5.687 -1.3790 -1.7497  0.2630
 6100SOL     OW19015   3.535   0.313   3.689  0.5427  0.7541 -0.3559
 6100SOL    HW119016   3.540   0.280   3.779  0.7508 -0.3109 -0.7521
 6100SOL    HW219017   3.456   0.368   3.689  0.3967  0.5594  0.4121
 6101SOL     OW19018   0.687   0.111   1.301  0.7818  0.7150  0.5217
 6101SOL    HW119019   0.645   0.195   1.318  1.3521  1.0169  0.4475
 6101SOL    HW219020   0.672   0.095   1.208  0.6955  0.7488  0.5301
 6102SOL     OW19021   5.184   3.672   5.615  0.0700  0.0798 -0.0559
 6102SOL    HW119022   5.257   3.692   5.557 -0.2753 -1.3848 -1.0263
 6102SOL    HW219023   5.225   3.630   5.691  0.4349  1.2305  0.3985
 6103SOL     OW19024   5.745   0.219   6.664  0.1753 -0.4584 -0.2497
 6103SOL    HW119025   5.759   0.281   6.735  1.2342 -1.0253  0.0578
 6103SOL    HW219026   5.653   0.229   6.640 -0.0374  0.1502  0.8071
 6104SOL     OW19027   4.056   1.612   3.902 -0.0317 -0.1562  0.2630
 6104SOL    HW119028   4.075   1.582   3.991  0.7018 -0.0911  0.1333
 6104SOL    HW219029   3.962   1.598   3.891 -0.1938  0.2309  1.1908
 6105SOL     OW19030   2.398   6.766   1.118 -1.4612  0.4187 -0.3162
 6105SOL    HW119031   2.432   6.855   1.108 -1.4659  0.3342 -1.1200
 6105SOL    HW219032   2.322   6.776   1.175  0.8949  0.3643  2.9673
 6106SOL     OW19033   3.163   2.908   3.890 -0.2824 -0.1683  0.3479
 6106SOL    HW119034   3.110   2.866   3.957 -0.4966 -2.1424 -1.0317
 6106SOL    HW219035   3.221   2.839   3.859 -0.9398  0.4366 -2.2770
 6107SOL     OW19036   1.313   1.774   5.139 -0.2373  0.0537 -0.3087
 6107SOL    HW119037   1.304   1.775   5.044  1.3741  1.9930 -0.4769
 6107SOL    HW219038   1.223   1.782   5.171 -0.5481  3.1555 -1.7408
 6108SOL     OW19039   1.601   1.410   0.067 -0.3502  0.0124 -0.4951
 6108SOL    HW119040   1.586   1.393  -0.026  1.9636  0.5934 -0.9933
 6108SOL    HW219041   1.648   1.333   0.098  0.3865  0.5885 -0.1922
 6109SOL     OW19042   2.071   6.551   5.769 -0.6666 -0.1800  0.2857
 6109SOL    HW119043   2.158   6.538   5.805 -0.1967 -1.6308 -1.3370
 6109SOL    HW219044   2.066   6.645   5.750  0.0878  0.1042  1.5037
 6110SOL     OW19045   3.762   1.819   5.148 -0.1856  0.3402  0.1880
 6110SOL    HW119046   3.696   1.878   5.183 -0.9100  0.2189 -0.9679
 6110SOL    HW219047   3.790   1.859   5.066 -0.5854 -0.8251 -0.5389
 6111SOL     OW19048   2.894   2.845   3.318  0.1367 -0.6169 -0.0394
 6111SOL    HW119049   2.968   2.806   3.365 -1.1787 -2.0642  0.8847
 6111SOL    HW219050   2.817   2.802   3.355 -0.9623 -1.6119 -3.3023
 6112SOL     OW19051   3.388   4.899   1.403 -0.5170  0.1683 -0.1997
 6112SOL    HW119052   3.306   4.942   1.428 -0.2588  1.0291 -0.7844
 6112SOL    HW219053   3.435   4.966   1.352  0.4467 -0.3935 -0.0601
 6113SOL     OW19054   0.374   3.946   4.503 -1.0389  0.1697  0.5743
 6113SOL    HW119055   0.439   3.929   4.570 -0.9338 -0.0609  0.4155
 6113SOL    HW219056   0.296   3.974   4.551 -0.7032  0.8124  0.7434
 6114SOL     OW19057   3.423   3.204   1.961 -0.4735  0.0520  0.4723
 6114SOL    HW119058   3.366   3.266   1.916 -0.5376  0.9858  1.8049
 6114SOL    HW219059   3.510   3.245   1.958  0.1592 -1.3379 -1.5081
 6115SOL     OW19060   0.881   0.008   0.026  0.2892 -0.2596 -0.0073
 6115SOL    HW119061   0.800   0.053   0.001 -0.7368 -1.6043  0.8167
 6115SOL    HW219062   0.944   0.078   0.040 -0.8368  0.8268 -0.2975
 6116SOL     OW19063   6.353   2.072   0.253 -0.2531  0.4076  0.0953
 6116SOL    HW119064   6.362   1.987   0.297 -1.5870  0.3131  0.1913
 6116SOL    HW219065   6.283   2.116   0.300 -0.0646  1.2765 -0.4278
 6117SOL     OW19066   2.610   1.938   3.521 -0.0120  0.1296 -0.2221
 6117SOL    HW119067   2.556   2.000   3.570 -0.1017  1.1212 -1.5434
 6117SOL    HW219068   2.552   1.903   3.454  0.6886  0.4222 -0.9905
 6118SOL     OW19069   4.439   4.973   2.685  0.1629 -0.5391  0.6291
 6118SOL    HW119070   4.484   5.049   2.648  0.1854 -0.8482  0.0058
 6118SOL    HW219071   4.502   4.933   2.744  0.6334 -0.8380 -0.0646
 6119SOL     OW19072   3.767   4.605   2.823 -0.3576  0.1511 -0.0264
 6119SOL    HW119073   3.756   4.512   2.845  2.4938 -0.3896 -0.7697
 6119SOL    HW219074   3.794   4.605   2.731  0.9427  1.6478  0.3433
 6120SOL     OW19075   0.427   2.791   1.178  0.3849  0.4172 -0.0553
 6120SOL    HW119076   0.507   2.808   1.128 -0.5419  0.7222 -1.4614
 6120SOL    HW219077   0.356   2.809   1.116 -0.7473 -2.0528  0.4675
 6121SOL     OW19078   2.714   5.945   0.084  0.0518 -0.6212 -0.2564
 6121SOL    HW119079   2.743   6.034   0.103 -0.7165 -0.1884 -1.0626
 6121SOL    HW219080   2.619   5.947   0.100 -0.0812 -1.0999 -0.9581
 6122SOL     OW19081   5.503   0.312   5.569  0.1316  0.1086 -0.0990
 6122SOL    HW119082   5.461   0.316   5.655 -0.1030 -2.0312 -0.0970
 6122SOL    HW219083   5.433   0.285   5.509  1.1265 -2.0153 -0.3387
 6123SOL     OW19084   6.518   1.589   4.858 -0.0540  0.2159 -0.0026
 6123SOL    HW119085   6.460   1.656   4.894  0.8912  0.1535  1.7033
 6123SOL    HW219086   6.598   1.637   4.835 -0.5237  0.1987 -1.7618
 6124SOL     OW19087   1.280   5.116   4.784 -0.2876  0.2239 -0.0280
 6124SOL    HW119088   1.211   5.112   4.851  0.7135 -0.6407  0.9918
 6124SOL    HW219089   1.260   5.194   4.733 -1.1630  0.8242  1.2016
 6125SOL     OW19090   2.741   0.839   0.453 -0.6509 -0.5913 -0.1977
 6125SOL    HW119091   2.693   0.835   0.536  0.9392 -0.3765  0.7584
 6125SOL    HW219092   2.679   0.806   0.388 -1.4659 -2.0653  1.2796
 6126SOL     OW19093   0.468   0.326   1.761 -0.2804 -0.7250 -0.6002
 6126SOL    HW119094   0.405   0.318   1.833 -0.2599  0.3701 -0.4537
 6126SOL    HW219095   0.513   0.241   1.759  0.2109 -0.5324  1.1423
 6127SOL     OW19096   6.314   0.845   2.408  0.7232  0.0187  0.2573
 6127SOL    HW119097   6.397   0.861   2.363 -0.0575 -2.7876 -2.4104
 6127SOL    HW219098   6.336   0.785   2.479  1.2148  0.4392  0.4596
 6128SOL     OW19099   2.690   0.817   1.640  0.0639  0.0208 -1.0126
 6128SOL    HW119100   2.596   0.820   1.619 -0.5822 -1.6969  1.3553
 6128SOL    HW219101   2.699   0.742   1.698  2.3177  2.2319  1.6623
 6129SOL     OW19102   1.239   1.610   6.485  0.1728  0.2175  0.7888
 6129SOL    HW119103   1.272   1.637   6.400  0.8151 -0.6242  0.7648
 6129SOL    HW219104   1.194   1.687   6.519 -0.9644  0.2400 -0.7405
 6130SOL     OW19105   0.169   3.015   2.267  0.2367 -0.0760  0.4654
 6130SOL    HW119106   0.136   2.980   2.350  0.6941 -1.4874  0.0602
 6130SOL    HW219107   0.241   3.073   2.292  0.5969 -0.7648  1.0435
 6131SOL     OW19108   3.356   5.071   4.272  0.1702  0.0700 -0.1128
 6131SOL    HW119109   3.265   5.043   4.279  0.7023 -1.4171  1.4270
 6131SOL    HW219110   3.405   4.990   4.257  1.5472  0.3609  2.4189
 6132SOL     OW19111   5.804   5.467   6.521 -0.0696  0.0573  0.0864
 6132SOL    HW119112   5.805   5.381   6.480 -0.1037  0.3049 -0.4357
 6132SOL    HW219113   5.895   5.483   6.545 -0.1847 -0.4505  0.8736
 6133SOL     OW19114   3.361   3.402   3.109  0.2098  0.1373 -0.4472
 6133SOL    HW119115   3.322   3.344   3.174  1.4296  0.2394  0.4006
 6133SOL    HW219116   3.298   3.404   3.037 -0.1879 -1.6252 -0.1601
 6134SOL     OW19117   4.251   3.187   5.201 -0.0879 -0.1613 -0.2068
 6134SOL    HW119118   4.267   3.124   5.271  0.3235 -0.6709 -0.7632
 6134SOL    HW219119   4.265   3.272   5.242 -0.2618 -0.4391  0.4412
 6135SOL     OW19120   0.937   6.625   5.164  0.3448 -0.0017 -0.3771
 6135SOL    HW119121   0.911   6.691   5.099 -0.2013 -0.7243 -0.9084
 6135SOL    HW219122   0.863   6.564   5.166  0.1354  0.2945  1.3167
 6136SOL     OW19123   4.855   0.266   4.945  0.0486  0.1643 -0.8027
 6136SOL    HW119124   4.898   0.326   4.885  1.5219  1.1224  1.1475
 6136SOL    HW219125   4.766   0.301   4.953  0.1525  0.6352 -1.6043
 6137SOL     OW19126   1.045   3.224   2.672  0.0820  0.1538 -0.0124
 6137SOL    HW119127   0.975   3.267   2.720 -0.5406 -1.4523  0.5611
 6137SOL    HW219128   1.122   3.234   2.727  0.9120  3.9375 -1.6941
 6138SOL     OW19129   0.278   3.575   5.058 -0.2840 -0.3846  0.0782
 6138SOL    HW119130   0.184   3.596   5.055 -0.2695 -0.1452  1.0273
 6138SOL    HW219131   0.285   3.511   5.129  0.1995 -0.7774 -0.3295
 6139SOL     OW19132   1.369   1.743   1.314  0.3476  0.4022  0.3356
 6139SOL    HW119133   1.275   1.763   1.317  0.3296  0.3602  0.0924
 6139SOL    HW219134   1.396   1.742   1.405  0.3801  1.6704  0.3399
 6140SOL     OW19135   1.220   4.872   6.181 -0.1357 -0.1280 -0.2235
 6140SOL    HW119136   1.297   4.815   6.177  1.4559  1.9601 -0.3215
 6140SOL    HW219137   1.169   4.850   6.103  0.4982 -1.3460 -0.3043
 6141SOL     OW19138   6.543   2.651   2.989 -0.2157 -0.6068  0.2912
 6141SOL    HW119139   6.460   2.605   3.000  0.4339 -1.5810  1.1385
 6141SOL    HW219140   6.568   2.678   3.077  0.4386 -0.4263  0.0566
 6142SOL     OW19141   0.079   1.111   3.172 -0.4868  0.0487  0.4172
 6142SOL    HW119142   0.021   1.094   3.247 -0.8297  0.3119  0.2083
 6142SOL    HW219143   0.049   1.050   3.105 -0.2530 -0.1049  0.4519
 6143SOL     OW19144   0.056   4.866   0.597  0.0108  0.5601 -0.6471
 6143SOL    HW119145   0.005   4.920   0.657  0.5754  2.0365 -1.4674
 6143SOL    HW219146   0.079   4.925   0.526 -1.0153 -1.2782 -2.5478
 6144SOL     OW19147   1.195   4.356   3.171 -0.1278 -0.0993 -0.5875
 6144SOL    HW119148   1.163   4.427   3.225  0.6366  1.2309 -1.8277
 6144SOL    HW219149   1.285   4.381   3.149  1.3541 -3.0648  1.7018
 6145SOL     OW19150   5.724   5.743   5.596 -0.1662 -0.5071 -0.0954
 6145SOL    HW119151   5.795   5.795   5.559 -0.2349  0.1563  0.6890
 6145SOL    HW219152   5.765   5.691   5.665 -0.4813  0.0933  0.5568
 6146SOL     OW19153   1.358   6.164   1.098  0.1669  0.6037 -0.0592
 6146SOL    HW119154   1.366   6.135   1.189  1.6126 -0.5122 -0.5172
 6146SOL    HW219155   1.387   6.255   1.099  0.2565  0.5733  0.5800
 6147SOL     OW19156   5.148   3.813   1.602  0.3854 -0.2890  0.4274
 6147SOL    HW119157   5.144   3.720   1.624 -0.1442 -1.1569 -2.9514
 6147SOL    HW219158   5.069   3.828   1.549 -0.4687  2.5420  2.4234
 6148SOL     OW19159   6.701   5.377   3.599 -0.1013  0.4856 -0.0587
 6148SOL    HW119160   6.676   5.313   3.532 -1.3214  0.9172 -0.0321
 6148SOL    HW219161   6.624   5.382   3.656  1.0974 -0.2776  1.6941
 6149SOL     OW19162   1.666   1.634   2.865  0.9395  0.4153  0.1220
 6149SOL    HW119163   1.594   1.672   2.916  0.0366  0.2143 -0.9990
 6149SOL    HW219164   1.739   1.631   2.927 -0.7351 -1.8557  2.0873
 6150SOL     OW19165   4.992   0.022   0.152 -0.4122  0.5693  0.4497
 6150SOL    HW119166   4.981   0.023   0.057 -1.4159 -0.5023  0.5390
 6150SOL    HW219167   5.072  -0.027   0.167 -0.4966  0.3476  0.1755
 6151SOL     OW19168   3.247   3.185   3.289  0.3301 -0.2060 -0.3484
 6151SOL    HW119169   3.264   3.146   3.375  0.7985  1.3561  0.2831
 6151SOL    HW219170   3.154   3.167   3.272 -0.0637  0.5261  1.0172
 6152SOL     OW19171   3.041   5.078   4.906 -0.2586  0.1247  0.2758
 6152SOL    HW119172   3.025   5.171   4.893  0.3770  0.3918  1.3436
 6152SOL    HW219173   3.099   5.074   4.982  2.2716 -0.9627 -1.6116
 6153SOL     OW19174   5.584   0.469   3.853  0.1658  0.6171 -0.0302
 6153SOL    HW119175   5.518   0.483   3.922 -0.4502  0.2655 -0.5468
 6153SOL    HW219176   5.658   0.524   3.880  0.8523 -1.2732  2.1437
 6154SOL     OW19177   1.393   3.818   4.165 -0.0537  0.1888  0.4925
 6154SOL    HW119178   1.394   3.731   4.206  1.8035 -0.8510 -1.6662
 6154SOL    HW219179   1.352   3.804   4.080  2.4269  0.9240 -0.8710
 6155SOL     OW19180   6.721   2.283   3.298 -0.1606 -0.4016 -0.2613
 6155SOL    HW119181   6.811   2.293   3.331  0.1636 -1.5191 -0.7604
 6155SOL    HW219182   6.705   2.189   3.302 -0.4106 -0.4779 -2.4680
 6156SOL     OW19183   4.805   5.725   1.168  0.4280  0.0906  0.0611
 6156SOL    HW119184   4.735   5.739   1.104  0.6546  0.3637 -0.1300
 6156SOL    HW219185   4.761   5.688   1.244  0.3206 -1.2795 -0.6655
 6157SOL     OW19186   5.678   3.960   5.380  0.9767  0.2017 -0.2167
 6157SOL    HW119187   5.667   3.871   5.348  1.4276 -0.4771  1.4319
 6157SOL    HW219188   5.689   4.013   5.301 -0.7403 -0.9775 -1.2718
 6158SOL     OW19189   0.044   2.207   1.895  0.6774  0.2320  0.6946
 6158SOL    HW119190   0.013   2.231   1.807 -0.7782 -1.6716  0.6578
 6158SOL    HW219191   0.136   2.184   1.883  0.6416  0.5504 -0.2130
 6159SOL     OW19192   5.311   4.447   4.983  0.1289 -0.3875  0.0334
 6159SOL    HW119193   5.286   4.391   4.909 -0.2069 -0.4212  0.1743
 6159SOL    HW219194   5.294   4.536   4.953 -1.5088 -0.4820  0.6438
 6160SOL     OW19195   0.919   2.769   4.275  0.1218 -0.3858 -0.2779
 6160SOL    HW119196   0.975   2.819   4.335 -0.2238  0.7385 -0.8763
 6160SOL    HW219197   0.940   2.804   4.189  0.0358 -1.4476 -0.7239
 6161SOL     OW19198   5.705   4.929   1.618 -0.3213 -0.1864 -0.4185
 6161SOL    HW119199   5.732   4.838   1.629  0.1635 -0.0982 -0.8904
 6161SOL    HW219200   5.619   4.924   1.576  0.2377 -0.4022 -1.5494
 6162SOL     OW19201   3.396   2.455   1.173  0.2888 -0.6193 -0.0206
 6162SOL    HW119202   3.483   2.470   1.135  0.8629  0.6341  1.7515
 6162SOL    HW219203   3.341   2.432   1.098  2.0540 -1.0345 -1.2178
 6163SOL     OW19204   2.349   4.402   2.791 -0.3489 -0.0338  0.2316
 6163SOL    HW119205   2.309   4.329   2.838 -0.9905  1.2314  1.6815
 6163SOL    HW219206   2.290   4.476   2.805  0.0809  0.6895 -1.5628
 6164SOL     OW19207   5.081   5.996   6.265 -0.0216  0.6393 -0.5635
 6164SOL    HW119208   5.119   6.029   6.347 -0.7151 -0.5227  0.2421
 6164SOL    HW219209   5.016   5.932   6.293 -0.4511  0.4195 -2.0273
 6165SOL     OW19210   5.512   0.841   1.401  0.0833 -0.0052  0.5822
 6165SOL    HW119211   5.531   0.751   1.426  1.6905  0.0780 -0.2696
 6165SOL    HW219212   5.462   0.876   1.474 -0.1644 -1.4441  1.1229
 6166SOL     OW19213   0.400   0.493   1.157  0.1347 -0.6092  0.1918
 6166SOL    HW119214   0.369   0.404   1.137 -0.4660 -0.0897 -1.2534
 6166SOL    HW219215   0.424   0.529   1.072 -0.8460  1.0721  0.6055
 6167SOL     OW19216   5.571   5.185   3.367 -0.1785  0.4416 -0.0425
 6167SOL    HW119217   5.538   5.195   3.278 -2.0211  1.7910  0.7574
 6167SOL    HW219218   5.578   5.091   3.381 -2.0012  0.1837 -0.8492
 6168SOL     OW19219   5.701   6.124   4.826  0.0574 -0.1646 -0.7310
 6168SOL    HW119220   5.778   6.132   4.769  0.6222 -1.6777 -0.2016
 6168SOL    HW219221   5.699   6.032   4.851 -0.1414  0.4774  1.7717
 6169SOL     OW19222   4.319   2.024   1.932  0.5089 -0.2713 -0.5537
 6169SOL    HW119223   4.397   2.058   1.976  0.0893  0.6491 -0.5048
 6169SOL    HW219224   4.287   1.956   1.990  0.8126 -0.0951 -0.1761
 6170SOL     OW19225   6.197   2.643   5.386 -0.9402  0.2174 -0.1584
 6170SOL    HW119226   6.142   2.709   5.345 -0.0869  0.4656 -0.9337
 6170SOL    HW219227   6.257   2.616   5.317  0.3443  0.4250  0.8605
 6171SOL     OW19228   0.789   5.926   1.878 -0.2231 -0.0747  0.6883
 6171SOL    HW119229   0.760   5.835   1.885  0.1071 -0.3528 -1.3450
 6171SOL    HW219230   0.831   5.944   1.962 -0.4331 -1.7508  1.1700
 6172SOL     OW19231   2.931   0.380   1.735  0.4711  0.3127 -0.0298
 6172SOL    HW119232   2.883   0.325   1.797  0.4003  0.0480 -0.3175
 6172SOL    HW219233   2.864   0.424   1.684  0.5340 -0.0365 -0.4138
 6173SOL     OW19234   0.988   3.150   1.268 -0.1880  0.1622 -0.3011
 6173SOL    HW119235   0.916   3.193   1.222 -0.0768 -1.9901 -2.6135
 6173SOL    HW219236   1.059   3.146   1.205  0.6724 -1.0764  0.7043
 6174SOL     OW19237   3.144   4.556   5.276 -0.1714 -0.0196 -0.0688
 6174SOL    HW119238   3.069   4.508   5.309  0.1359 -0.3747  0.1204
 6174SOL    HW219239   3.211   4.545   5.343  0.5737 -1.0273 -0.9581
 6175SOL     OW19240   4.574   2.203   6.454 -0.2010 -0.7302 -0.2072
 6175SOL    HW119241   4.660   2.182   6.418 -0.2328 -1.0586 -0.0940
 6175SOL    HW219242   4.585   2.194   6.549 -0.8321 -2.5688 -0.2893
 6176SOL     OW19243   4.184   4.718   0.715  0.2132  0.1415 -0.0798
 6176SOL    HW119244   4.239   4.752   0.786 -0.6244 -2.2952  1.8253
 6176SOL    HW219245   4.234   4.645   0.679 -0.0360  0.4167 -0.9872
 6177SOL     OW19246   4.986   4.687   2.300  0.1583  0.1345 -0.1437
 6177SOL    HW119247   5.009   4.679   2.208  0.2702 -1.5153  0.0287
 6177SOL    HW219248   4.892   4.705   2.299 -0.4745 -2.9687 -0.4938
 6178SOL     OW19249   0.224   5.020   2.358  0.2039  0.3589 -0.3171
 6178SOL    HW119250   0.223   4.929   2.329  0.5027  0.7769 -1.6990
 6178SOL    HW219251   0.294   5.024   2.424 -0.4170 -0.5902  0.4079
 6179SOL     OW19252   0.446   2.349   5.578  0.0142 -0.1902 -0.3735
 6179SOL    HW119253   0.453   2.332   5.672  1.3366 -2.7534 -0.8869
 6179SOL    HW219254   0.465   2.264   5.537 -1.4765  0.6607 -2.9287
 6180SOL     OW19255   3.503   2.822   4.437  0.6176  0.3914  0.0009
 6180SOL    HW119256   3.587   2.842   4.479  0.4244 -1.1379  1.1467
 6180SOL    HW219257   3.509   2.729   4.414 -0.8287  0.2253  0.2404
 6181SOL     OW19258   0.779   5.937   3.825 -0.0612 -0.0713  0.5427
 6181SOL    HW119259   0.831   5.982   3.891  0.8938 -1.3780  0.7126
 6181SOL    HW219260   0.804   5.977   3.742  2.0382 -1.3890  0.5021
 6182SOL     OW19261   3.777   5.863   2.129  0.1348  0.1316  0.4753
 6182SOL    HW119262   3.866   5.868   2.166  0.1827  0.0735  0.3680
 6182SOL    HW219263   3.784   5.908   2.045  0.2288 -0.4862  0.1528
 6183SOL     OW19264   3.266   5.907   4.187 -0.1180  0.5343  0.3176
 6183SOL    HW119265   3.321   5.854   4.129 -1.7488 -0.8815  0.0444
 6183SOL    HW219266   3.306   5.994   4.183  1.7165 -0.2965 -0.3889
 6184SOL     OW19267   0.203   2.553   6.262  0.2946  0.0226 -0.0436
 6184SOL    HW119268   0.185   2.629   6.206 -1.7477  0.1773  0.7671
 6184SOL    HW219269   0.222   2.591   6.348  0.6787 -0.3274  0.0258
 6185SOL     OW19270   3.949   3.503   4.862 -0.3698  0.1513  0.1393
 6185SOL    HW119271   4.037   3.513   4.898  1.1133 -1.1205 -3.0425
 6185SOL    HW219272   3.939   3.409   4.846 -2.4439  0.2316  0.7158
 6186SOL     OW19273   5.852   2.333   4.123  0.0371  0.0442  0.1375
 6186SOL    HW119274   5.867   2.351   4.216 -0.5799  1.1197  0.0438
 6186SOL    HW219275   5.937   2.306   4.089  0.1530 -0.8612  1.1221
 6187SOL     OW19276   2.857   0.607   3.957 -0.2501  0.0685  0.0735
 6187SOL    HW119277   2.898   0.526   3.928  0.5354 -0.1513  1.7206
 6187SOL    HW219278   2.770   0.607   3.917 -0.4316 -1.8009  0.4623
 6188SOL     OW19279   4.107   6.259   5.506  0.7795  0.8765 -0.3751
 6188SOL    HW119280   4.030   6.221   5.464  1.8284 -0.7077 -0.9193
 6188SOL    HW219281   4.073   6.335   5.554 -1.0366  0.4743 -0.9688
 6189SOL     OW19282   2.202   3.717   2.776  0.2213  0.0997  0.3581
 6189SOL    HW119283   2.189   3.781   2.846 -1.7648  0.5177 -0.3771
 6189SOL    HW219284   2.265   3.655   2.813  0.7017  1.3872  1.7924
 6190SOL     OW19285   0.097   4.649   0.276  0.3160 -0.1554  0.1459
 6190SOL    HW119286   0.180   4.617   0.311  0.7488 -0.0549 -0.7700
 6190SOL    HW219287   0.051   4.570   0.247  0.8146 -0.0765 -0.8872
 6191SOL     OW19288   2.263   2.249   2.602 -0.3295  0.1896 -0.0943
 6191SOL    HW119289   2.266   2.337   2.639 -0.2426 -0.4977  1.6021
 6191SOL    HW219290   2.193   2.205   2.651 -0.4334 -0.6434 -0.9852
 6192SOL     OW19291   2.392   0.808   1.647 -0.6236  0.9554 -0.4322
 6192SOL    HW119292   2.403   0.714   1.657 -1.3343  0.9167 -0.0260
 6192SOL    HW219293   2.312   0.818   1.597  1.2911  1.2450 -3.5516
 6193SOL     OW19294   4.704   5.175   0.678  0.0038 -0.3760  0.0971
 6193SOL    HW119295   4.719   5.152   0.769 -1.5656  1.8574  0.9597
 6193SOL    HW219296   4.673   5.094   0.637  1.5620 -1.6115  1.3069
 6194SOL     OW19297   0.291   4.517   3.291 -0.8096  0.0999 -0.1330
 6194SOL    HW119298   0.360   4.453   3.275 -0.2451  0.1118  2.0521
 6194SOL    HW219299   0.214   4.481   3.247  0.5250  0.0059 -2.4378
 6195SOL     OW19300   1.219   5.412   2.955 -0.1670  0.2902  0.1091
 6195SOL    HW119301   1.309   5.380   2.963 -0.7971 -0.9386  2.9306
 6195SOL    HW219302   1.229   5.506   2.943  1.5176 -0.0262 -1.3178
 6196SOL     OW19303   5.574   4.036   3.436  0.4130 -0.2378  0.4022
 6196SOL    HW119304   5.652   4.075   3.477  0.8714 -0.9272  0.1891
 6196SOL    HW219305   5.603   4.011   3.348 -0.0644 -0.4343  0.3033
 6197SOL     OW19306   3.401   1.249   2.964  0.8216  0.0910  0.8018
 6197SOL    HW119307   3.440   1.162   2.970 -0.4756 -0.4203  2.2063
 6197SOL    HW219308   3.308   1.235   2.982  0.2185  1.4747 -1.0710
 6198SOL     OW19309   3.594   5.049   5.492 -0.3469  0.2063  0.3278
 6198SOL    HW119310   3.654   5.094   5.432  2.2708 -1.5425  1.5844
 6198SOL    HW219311   3.552   4.982   5.438  2.5636 -1.8639  0.5298
 6199SOL     OW19312   4.250   2.667   4.489  0.2201 -0.1038  0.1641
 6199SOL    HW119313   4.265   2.750   4.534 -0.6052  0.5928 -0.8389
 6199SOL    HW219314   4.175   2.683   4.432 -0.6572 -1.8641  0.7759
 6200SOL     OW19315   2.403   1.870   3.133 -0.4258 -0.2699 -0.6153
 6200SOL    HW119316   2.389   1.945   3.075  0.0845 -0.1016 -0.5229
 6200SOL    HW219317   2.379   1.902   3.220  0.8911  0.1461 -0.3887
 6201SOL     OW19318   3.347   2.066   0.616 -0.3578 -0.2073 -0.1234
 6201SOL    HW119319   3.252   2.083   0.613 -0.3384 -0.1697 -0.5202
 6201SOL    HW219320   3.386   2.153   0.624 -0.2741 -0.0813 -1.8044
 6202SOL     OW19321   1.639   2.888   3.506 -0.1338  0.3173  0.6296
 6202SOL    HW119322   1.593   2.906   3.424 -1.4607  0.5723  1.4068
 6202SOL    HW219323   1.728   2.918   3.491  0.0927 -1.2025 -1.3082
 6203SOL     OW19324   1.497   1.312   3.913 -0.3307  0.3176 -0.7300
 6203SOL    HW119325   1.544   1.334   3.833  1.3730 -0.4185  0.0285
 6203SOL    HW219326   1.565   1.277   3.972 -1.7646 -0.4175  0.5390
 6204SOL     OW19327   3.840   3.156   5.387  0.3233 -0.0030 -0.5033
 6204SOL    HW119328   3.934   3.144   5.378  0.4911  1.9880 -1.6765
 6204SOL    HW219329   3.830   3.237   5.436 -0.7990 -0.5664  0.2349
 6205SOL     OW19330   1.416   5.016   1.574 -0.9924  0.1638 -0.2072
 6205SOL    HW119331   1.432   4.971   1.491 -1.1239 -0.2294 -0.0164
 6205SOL    HW219332   1.403   4.946   1.638  1.1230  0.4266  0.5511
 6206SOL     OW19333   1.897   6.454   4.617 -0.9518 -0.4128  0.4034
 6206SOL    HW119334   1.806   6.439   4.643 -1.0207 -0.2399  0.2646
 6206SOL    HW219335   1.948   6.401   4.678 -1.0630  0.6739  1.4513
 6207SOL     OW19336   5.406   4.601   0.957 -1.1758 -0.3322  0.5564
 6207SOL    HW119337   5.350   4.661   1.008 -2.5884  1.3847 -2.8131
 6207SOL    HW219338   5.345   4.534   0.924 -0.5450 -0.6948  0.1176
 6208SOL     OW19339   1.912   0.700   6.066 -0.6938  0.2280 -0.3037
 6208SOL    HW119340   1.951   0.614   6.080 -0.4007  0.3644 -0.2708
 6208SOL    HW219341   1.888   0.700   5.973 -0.2460  0.2922 -0.4195
 6209SOL     OW19342   2.996   6.667   5.729 -0.1558  0.3624  0.2281
 6209SOL    HW119343   3.005   6.607   5.654  0.6625 -0.4192  0.9392
 6209SOL    HW219344   3.000   6.754   5.690 -0.7381 -0.0421 -0.7564
 6210SOL     OW19345   6.012   5.583   1.985 -0.4524  0.2169 -0.7477
 6210SOL    HW119346   6.057   5.608   1.904  0.4191 -0.8890 -0.6143
 6210SOL    HW219347   6.073   5.607   2.055 -1.0737  0.8815 -0.4257
 6211SOL     OW19348   1.360   6.178   2.638 -0.1813  0.1438  0.1743
 6211SOL    HW119349   1.372   6.262   2.594  1.7900  0.6459  1.5866
 6211SOL    HW219350   1.290   6.136   2.590 -1.2400  2.6211 -0.5405
 6212SOL     OW19351   5.018   5.127   0.856  0.0753 -0.5174 -0.1183
 6212SOL    HW119352   5.035   5.102   0.765 -0.3931  1.5735 -0.8115
 6212SOL    HW219353   4.923   5.124   0.864  0.0696  0.1519  0.0515
 6213SOL     OW19354   2.426   3.348   4.518  0.4557 -0.8782  0.1472
 6213SOL    HW119355   2.424   3.368   4.611 -0.6654 -0.6451  0.0768
 6213SOL    HW219356   2.338   3.316   4.498  0.3674  0.0390 -1.0279
 6214SOL     OW19357   5.585   5.767   0.085 -0.3300 -0.3154 -0.0072
 6214SOL    HW119358   5.652   5.769   0.153  0.0004  0.2845 -0.3453
 6214SOL    HW219359   5.632   5.738   0.007 -0.4756  0.0652 -0.2349
 6215SOL     OW19360   0.398   0.505   4.162  0.0057  0.3836 -0.3643
 6215SOL    HW119361   0.327   0.443   4.144  0.8842 -0.8057  0.2174
 6215SOL    HW219362   0.385   0.530   4.253  1.1335 -0.9040  0.1650
 6216SOL     OW19363   0.970   5.824   6.105  0.1330  0.0864 -0.1844
 6216SOL    HW119364   0.930   5.799   6.021 -0.4559 -0.6503  0.3104
 6216SOL    HW219365   0.931   5.764   6.169  0.5431  0.6787  0.6271
 6217SOL     OW19366   3.978   0.653   4.130 -0.3873  0.0014  0.3399
 6217SOL    HW119367   4.019   0.722   4.182 -0.6062 -0.3369  0.9597
 6217SOL    HW219368   4.037   0.641   4.056 -0.9778  1.7371 -0.4472
 6218SOL     OW19369   2.591   4.934   5.809  0.1154 -0.3959  0.1199
 6218SOL    HW119370   2.591   4.975   5.895 -0.4980 -2.5740  1.1926
 6218SOL    HW219371   2.673   4.962   5.769 -0.3206  1.8872  0.7947
 6219SOL     OW19372   0.812   3.661   5.069  0.7325 -0.0417 -0.3371
 6219SOL    HW119373   0.810   3.722   4.996 -6.6418  0.8895  0.2177
 6219SOL    HW219374   0.808   3.574   5.029  1.3819  0.2531 -1.0434
 6220SOL     OW19375   6.109   0.767   1.002 -0.3734  0.6383 -0.2480
 6220SOL    HW119376   6.083   0.827   0.932  2.1288 -0.8570 -2.5754
 6220SOL    HW219377   6.197   0.797   1.027 -1.2236  1.1388  2.3002
 6221SOL     OW19378   5.904   1.629   5.856  0.5264  0.0682  0.4662
 6221SOL    HW119379   5.923   1.609   5.765 -0.0012 -0.4668  0.4668
 6221SOL    HW219380   5.968   1.696   5.880  1.0802 -0.2479 -0.1049
 6222SOL     OW19381   0.568   5.610   0.439 -0.0889 -0.0809 -0.4557
 6222SOL    HW119382   0.646   5.554   0.435 -0.8930 -1.3070  0.7223
 6222SOL    HW219383   0.517   5.585   0.361 -0.3309 -0.8383 -0.0617
 6223SOL     OW19384   0.312   1.103   3.600  0.3731  0.6526  0.0326
 6223SOL    HW119385   0.246   1.085   3.667 -1.3409  0.1628 -1.7277
 6223SOL    HW219386   0.338   1.016   3.568 -0.4338  0.9418 -1.4337
 6224SOL     OW19387   3.896   0.155   2.570  0.0382 -0.0813 -0.1263
 6224SOL    HW119388   3.964   0.194   2.625 -0.5689  0.4761  0.2476
 6224SOL    HW219389   3.929   0.164   2.481  0.6694 -0.2520  0.0914
 6225SOL     OW19390   0.323   5.716   0.640  0.2313  1.0020  0.1688
 6225SOL    HW119391   0.260   5.744   0.574 -1.2569 -3.3723 -0.4683
 6225SOL    HW219392   0.279   5.734   0.724 -0.6344  0.7510 -0.2172
 6226SOL     OW19393   6.688   0.396   6.568  0.4412  0.5366  0.2614
 6226SOL    HW119394   6.655   0.317   6.610  1.8268 -1.1403 -1.7039
 6226SOL    HW219395   6.651   0.468   6.619 -2.7075 -1.3177  0.7159
 6227SOL     OW19396   5.316   4.126   0.694  0.1422  0.0170  0.1896
 6227SOL    HW119397   5.371   4.050   0.714  0.8590  0.5137  0.1542
 6227SOL    HW219398   5.290   4.161   0.779 -0.1072 -0.2090  0.2067
 6228SOL     OW19399   2.810   2.185   4.799 -0.3263 -0.3514  0.2634
 6228SOL    HW119400   2.774   2.107   4.756 -0.7745 -0.2001  0.3642
 6228SOL    HW219401   2.866   2.150   4.869 -1.1539 -0.5814  0.8196
 6229SOL     OW19402   6.117   3.749   3.303  0.8263  0.0264  0.5078
 6229SOL    HW119403   6.054   3.693   3.258  0.8032  1.0383 -0.7429
 6229SOL    HW219404   6.168   3.688   3.357 -0.9985 -0.8425  1.2988
 6230SOL     OW19405   3.008   4.599   3.405 -0.5425 -0.0676 -0.3227
 6230SOL    HW119406   2.945   4.613   3.475  0.1631 -0.2112  0.3586
 6230SOL    HW219407   3.076   4.544   3.446 -0.0820 -0.0726 -1.0938
 6231SOL     OW19408   0.968   5.093   2.071 -0.1084  0.1103  0.4650
 6231SOL    HW119409   1.001   5.080   1.982 -0.1415 -0.2588  0.5081
 6231SOL    HW219410   0.944   5.186   2.074 -0.8061 -0.0461 -0.1488
 6232SOL     OW19411   1.076   1.014   4.212 -0.0325 -0.2301 -1.3795
 6232SOL    HW119412   1.094   1.091   4.156  1.8134  0.1508 -0.2902
 6232SOL    HW219413   0.995   0.978   4.176  0.8721  0.2611 -4.0547
 6233SOL     OW19414   1.445   1.146   3.507  0.1252 -0.1388 -0.4636
 6233SOL    HW119415   1.511   1.172   3.572 -2.2309  0.3374  1.7980
 6233SOL    HW219416   1.361   1.170   3.547 -1.5568 -2.4556 -2.4680
 6234SOL     OW19417   5.160   6.019   3.901  0.1821 -0.0004  0.6516
 6234SOL    HW119418   5.185   6.082   3.968  2.4000 -0.4711  0.3202
 6234SOL    HW219419   5.223   5.947   3.910 -1.1200 -1.2940 -0.2080
 6235SOL     OW19420   4.198   6.628   4.968  0.9946 -0.0016  0.5299
 6235SOL    HW119421   4.200   6.560   4.901 -1.3991 -0.7547  1.1857
 6235SOL    HW219422   4.237   6.586   5.045 -0.3560 -0.6026  0.8947
 6236SOL     OW19423   5.645   0.720   0.790  0.1941 -0.6482 -0.2477
 6236SOL    HW119424   5.726   0.713   0.840 -0.0951 -1.9470  0.0859
 6236SOL    HW219425   5.602   0.635   0.804 -1.3046  0.0968 -0.2509
 6237SOL     OW19426   6.544   4.649   5.776  0.3550 -0.4910  0.0783
 6237SOL    HW119427   6.578   4.584   5.838  0.9563 -0.3368 -0.0879
 6237SOL    HW219428   6.541   4.730   5.826 -1.2202 -0.8107  0.5497
 6238SOL     OW19429   1.421   3.908   2.872 -0.0458  0.0758  0.2141
 6238SOL    HW119430   1.485   3.844   2.839  0.1259  0.3966 -0.0872
 6238SOL    HW219431   1.385   3.868   2.951 -1.0146 -1.0364 -0.7850
 6239SOL     OW19432   2.952   1.466   1.099 -0.0237 -0.3993 -0.5618
 6239SOL    HW119433   2.936   1.532   1.031  1.1980  0.8937  0.3675
 6239SOL    HW219434   2.885   1.400   1.084 -1.9662  1.5624 -0.8870
 6240SOL     OW19435   4.789   1.779   3.680  0.1769  0.3175 -0.5367
 6240SOL    HW119436   4.859   1.745   3.624  0.8693  0.0452  0.4712
 6240SOL    HW219437   4.752   1.702   3.723  1.2782  0.7244  1.2065
 6241SOL     OW19438   2.630   1.402   2.555 -0.1009 -0.3416  0.0692
 6241SOL    HW119439   2.599   1.460   2.486 -0.6277 -0.1664  0.4462
 6241SOL    HW219440   2.592   1.317   2.534  0.9289 -0.6237 -0.6575
 6242SOL     OW19441   3.357   6.116   5.927 -0.3818 -0.3081 -0.2509
 6242SOL    HW119442   3.400   6.191   5.969  0.1928 -0.5949 -0.3111
 6242SOL    HW219443   3.355   6.048   5.994  1.3124 -1.0556 -0.9225
 6243SOL     OW19444   4.500   2.785   5.804 -0.1040  0.1522 -0.9755
 6243SOL    HW119445   4.460   2.725   5.867  0.6470  0.1447 -0.4957
 6243SOL    HW219446   4.580   2.814   5.848 -0.0835  0.9109 -1.5246
 6244SOL     OW19447   6.022   2.925   5.486 -0.2785 -0.4751  0.2403
 6244SOL    HW119448   6.091   2.911   5.551  0.6599  2.6563  0.0099
 6244SOL    HW219449   5.947   2.957   5.537 -0.9025 -1.9211  0.2451
 6245SOL     OW19450   4.387   2.737   1.132 -0.5317  0.1593 -0.7760
 6245SOL    HW119451   4.296   2.765   1.137 -0.9450 -1.2972 -0.0319
 6245SOL    HW219452   4.386   2.646   1.160  1.5666  0.9569  2.1172
 6246SOL     OW19453   3.593   0.525   4.154  0.2467 -0.4639  0.4177
 6246SOL    HW119454   3.553   0.605   4.120  1.6936  0.3921  0.6452
 6246SOL    HW219455   3.522   0.479   4.198 -0.2122  1.7087  2.0707
 6247SOL     OW19456   4.033   1.170   1.626  0.1773 -0.0017  0.5602
 6247SOL    HW119457   3.987   1.241   1.670 -0.5112  0.4149 -0.7929
 6247SOL    HW219458   4.055   1.205   1.540  3.4355 -0.0493  1.3074
 6248SOL     OW19459   2.920   2.193   2.993  0.1559 -0.0754  0.3937
 6248SOL    HW119460   2.870   2.147   2.926  0.9305 -0.3813  0.0113
 6248SOL    HW219461   2.916   2.285   2.967  0.5951 -0.2116 -0.1738
 6249SOL     OW19462   3.227   5.281   1.730  0.4599 -0.2234  0.2323
 6249SOL    HW119463   3.260   5.271   1.640 -0.0567  0.8631 -0.0853
 6249SOL    HW219464   3.298   5.326   1.776  0.2470  0.2954  0.0596
 6250SOL     OW19465   3.912   2.840   1.233 -0.2447  0.0943  0.1498
 6250SOL    HW119466   3.836   2.796   1.272 -0.3304 -0.8327 -1.0297
 6250SOL    HW219467   3.877   2.889   1.159 -0.1118  2.0006  1.3204
 6251SOL     OW19468   2.109   2.903   3.063 -0.0674  0.3291 -0.3346
 6251SOL    HW119469   2.146   2.952   3.136 -0.7260 -0.2386  0.3892
 6251SOL    HW219470   2.121   2.960   2.987  1.5612  0.4886  0.0232
 6252SOL     OW19471   0.434   1.643   4.489 -0.5324  0.1129 -0.5155
 6252SOL    HW119472   0.518   1.679   4.461  0.1654 -0.7851  0.3895
 6252SOL    HW219473   0.380   1.721   4.506  1.0018  0.7922  1.5157
 6253SOL     OW19474   4.385   4.274   3.660 -0.1084  0.1217 -0.0139
 6253SOL    HW119475   4.342   4.336   3.602  0.4821  0.4270 -0.1333
 6253SOL    HW219476   4.435   4.328   3.721  0.7443 -0.2366 -0.3804
 6254SOL     OW19477   1.459   0.908   4.800 -0.5115 -0.4837  0.0450
 6254SOL    HW119478   1.466   0.899   4.705 -0.7801 -0.1108 -0.0082
 6254SOL    HW219479   1.386   0.968   4.814 -0.6977 -0.8125  0.4969
 6255SOL     OW19480   2.539   5.170   0.633 -0.2361  0.0620  0.9003
 6255SOL    HW119481   2.486   5.168   0.713  0.1052 -1.2227  1.1051
 6255SOL    HW219482   2.505   5.245   0.584 -0.6827  0.6561  2.0838
 6256SOL     OW19483   5.347   5.470   1.530 -0.1109 -0.1245  0.3625
 6256SOL    HW119484   5.313   5.394   1.482 -1.8982  1.4905 -1.0091
 6256SOL    HW219485   5.400   5.432   1.600  1.5205 -2.5796 -2.0956
 6257SOL     OW19486   0.645   4.173   2.119  0.2804  0.5216 -0.3908
 6257SOL    HW119487   0.619   4.137   2.203  0.4853  2.8814  0.7209
 6257SOL    HW219488   0.727   4.129   2.098  1.1166  1.1298  1.4901
 6258SOL     OW19489   3.192   3.211   2.172  0.1530  0.0913  0.3481
 6258SOL    HW119490   3.222   3.302   2.171  0.4415 -0.0021  0.6154
 6258SOL    HW219491   3.101   3.215   2.142  0.5109  0.3466 -0.7282
 6259SOL     OW19492   0.382   3.859   0.566 -0.2297  0.5522 -0.1661
 6259SOL    HW119493   0.328   3.784   0.592 -0.5814 -0.0310 -2.4224
 6259SOL    HW219494   0.460   3.819   0.527  0.1309  1.3606 -0.2768
 6260SOL     OW19495   0.981   0.616   1.148  0.3535  0.5188  0.5159
 6260SOL    HW119496   1.004   0.664   1.227  0.1506  1.8013 -0.1891
 6260SOL    HW219497   1.062   0.612   1.098  0.0324  1.4528 -0.1022
 6261SOL     OW19498   4.614   1.308   1.767  0.2862  0.6305  0.2946
 6261SOL    HW119499   4.624   1.371   1.697 -0.2978  0.4270  0.0248
 6261SOL    HW219500   4.629   1.223   1.725  0.1302  0.5234  0.4528
 6262SOL     OW19501   4.822   4.388   2.652  0.0383  0.4035 -0.3162
 6262SOL    HW119502   4.888   4.365   2.587  0.3753  0.1437  0.1245
 6262SOL    HW219503   4.744   4.409   2.599 -0.5163 -2.4187 -0.7220
 6263SOL     OW19504   6.060   0.242   0.102 -0.3335  0.1799 -0.6844
 6263SOL    HW119505   6.090   0.235   0.011 -0.3708  2.3726 -0.9049
 6263SOL    HW219506   6.057   0.152   0.133 -0.2403 -0.6124 -2.8383
 6264SOL     OW19507   5.151   1.218   3.465  0.0759  0.1525 -0.1525
 6264SOL    HW119508   5.072   1.170   3.488  1.2189 -1.6783  0.0389
 6264SOL    HW219509   5.221   1.153   3.468  1.7575  1.9202  0.6078
 6265SOL     OW19510   5.232   1.382   4.776  0.1605  0.9188 -0.2893
 6265SOL    HW119511   5.246   1.422   4.690  0.1035 -0.2250 -0.8335
 6265SOL    HW219512   5.210   1.291   4.757  3.9519 -0.3639  1.0531
 6266SOL     OW19513   1.847   1.428   5.045  0.0229 -0.3701 -0.0528
 6266SOL    HW119514   1.879   1.346   5.008 -0.6125 -0.6501  0.0193
 6266SOL    HW219515   1.883   1.431   5.133 -2.0357 -1.8122  0.8840
 6267SOL     OW19516   0.446   3.171   5.122  0.0128  0.4889 -0.1800
 6267SOL    HW119517   0.434   3.229   5.047  1.4652  0.5484 -0.3738
 6267SOL    HW219518   0.533   3.191   5.155 -0.3746  0.0323  1.1575
 6268SOL     OW19519   0.904   1.382   0.777  0.1763  0.2172  0.3906
 6268SOL    HW119520   0.942   1.426   0.853  0.0708  1.3707 -0.2073
 6268SOL    HW219521   0.973   1.324   0.746  1.3297  1.9923 -0.4360
 6269SOL     OW19522   3.712   2.936   6.390 -0.4670 -0.1584  0.7655
 6269SOL    HW119523   3.623   2.903   6.382  0.0719 -1.8286  1.3300
 6269SOL    HW219524   3.748   2.888   6.465  2.2988 -2.8293 -2.1049
 6270SOL     OW19525   5.931   2.526   3.017 -0.6997 -0.1785  0.7331
 6270SOL    HW119526   6.000   2.464   2.993 -0.9077 -0.3158  0.4829
 6270SOL    HW219527   5.970   2.612   3.004  0.0735 -0.2478  2.4653
 6271SOL     OW19528   0.256   2.379   0.368  0.1768  0.0272 -0.1016
 6271SOL    HW119529   0.281   2.308   0.427 -0.2619 -1.3134 -1.4949
 6271SOL    HW219530   0.219   2.335   0.292 -0.4861  1.7774 -0.8150
 6272SOL     OW19531   3.059   2.191   6.483  0.4371  0.4058  0.5804
 6272SOL    HW119532   2.969   2.203   6.515 -0.1834  0.2473 -1.0924
 6272SOL    HW219533   3.050   2.174   6.390  2.1758 -0.3241  0.5275
 6273SOL     OW19534   3.194   3.403   3.777 -0.3124  0.2438  0.4337
 6273SOL    HW119535   3.242   3.320   3.781 -0.1809  0.2606 -0.6792
 6273SOL    HW219536   3.257   3.468   3.810  0.5451  0.3067 -1.2559
 6274SOL     OW19537   0.219   3.087   1.672 -0.3617  0.4000 -0.1172
 6274SOL    HW119538   0.137   3.114   1.714 -1.1853  0.6605 -1.8429
 6274SOL    HW219539   0.196   3.008   1.624  0.1057  1.1255 -1.5597
 6275SOL     OW19540   2.264   6.409   6.556 -0.3757 -0.2958  0.1836
 6275SOL    HW119541   2.242   6.485   6.610  0.7778  0.7970 -0.8574
 6275SOL    HW219542   2.281   6.445   6.469 -0.6582 -1.8520 -0.5328
 6276SOL     OW19543   2.889   4.614   3.711  0.2018  0.1694 -0.1238
 6276SOL    HW119544   2.795   4.610   3.729  0.0457 -0.1634 -1.0142
 6276SOL    HW219545   2.921   4.687   3.764 -0.8984  1.5584 -1.3633
 6277SOL     OW19546   2.799   6.599   2.762 -0.0581 -0.1499 -0.9151
 6277SOL    HW119547   2.869   6.639   2.813 -0.1413 -2.1096  0.7935
 6277SOL    HW219548   2.731   6.666   2.758  0.5878  0.5884  0.2443
 6278SOL     OW19549   1.405   6.460   1.139 -0.2495 -0.3256  0.0647
 6278SOL    HW119550   1.338   6.455   1.208  1.0398 -2.7068  1.1901
 6278SOL    HW219551   1.473   6.516   1.176  0.3185 -1.3833  0.6370
 6279SOL     OW19552   6.429   3.181   3.775 -0.0760 -0.3332 -0.0279
 6279SOL    HW119553   6.510   3.203   3.820  0.3700 -0.5473 -0.7097
 6279SOL    HW219554   6.383   3.122   3.835  0.4949 -0.5866  0.1612
 6280SOL     OW19555   2.809   0.602   1.075 -0.3474 -0.4295 -0.1271
 6280SOL    HW119556   2.831   0.529   1.133 -1.7658 -1.3409 -0.6974
 6280SOL    HW219557   2.858   0.676   1.110 -1.7258 -0.7739  2.7414
 6281SOL     OW19558   2.712   5.343   3.023  0.5458 -0.9381  0.4643
 6281SOL    HW119559   2.751   5.414   3.074  0.0682 -1.2069  1.2112
 6281SOL    HW219560   2.700   5.379   2.935  0.6347 -0.2112  0.7553
 6282SOL     OW19561   5.978   4.024   1.581 -0.2253 -0.1362 -0.4177
 6282SOL    HW119562   5.915   4.084   1.622  0.8913  0.4882  0.4066
 6282SOL    HW219563   6.040   4.081   1.537  0.7132 -0.6963  0.1737
 6283SOL     OW19564   3.167   6.168   6.363  0.0567 -0.3848 -0.0351
 6283SOL    HW119565   3.168   6.074   6.379 -0.0419 -0.1656  1.3381
 6283SOL    HW219566   3.075   6.193   6.372 -0.0234 -0.2705 -1.1190
 6284SOL     OW19567   6.153   6.681   3.489  0.1541  0.0175  0.1269
 6284SOL    HW119568   6.227   6.623   3.474  1.4875  1.4172  1.2029
 6284SOL    HW219569   6.178   6.764   3.450 -1.5749  0.0393 -1.0259
 6285SOL     OW19570   6.240   3.759   4.014  0.0401 -0.1600  0.1949
 6285SOL    HW119571   6.269   3.675   4.048  1.2301  0.8568  1.7833
 6285SOL    HW219572   6.157   3.776   4.059  0.3808  0.0439  0.7515
 6286SOL     OW19573   5.134   5.562   3.034  0.4881 -1.0066  0.3879
 6286SOL    HW119574   5.191   5.494   3.069 -0.1206 -1.1138  1.1780
 6286SOL    HW219575   5.046   5.525   3.040  0.0335  0.2742  1.8814
 6287SOL     OW19576   1.668   2.786   4.301 -0.1441  0.4764  0.0747
 6287SOL    HW119577   1.641   2.697   4.275  1.4235 -0.1763  0.6462
 6287SOL    HW219578   1.763   2.784   4.297 -0.0771  1.9059  0.8885
 6288SOL     OW19579   1.919   4.901   4.377 -0.0124 -0.5364 -0.4037
 6288SOL    HW119580   1.882   4.952   4.449  1.4921  1.9457 -1.3391
 6288SOL    HW219581   1.849   4.898   4.312 -0.1913  0.1978 -0.2575
 6289SOL     OW19582   3.679   0.776   2.493 -0.4207  0.1702  0.4982
 6289SOL    HW119583   3.725   0.776   2.577 -0.0051  1.9018  0.2791
 6289SOL    HW219584   3.611   0.709   2.503 -0.1532  0.1273  2.0980
 6290SOL     OW19585   4.411   2.867   6.350 -0.6184 -0.4088 -0.3397
 6290SOL    HW119586   4.361   2.947   6.364  1.3072  0.9086 -0.7006
 6290SOL    HW219587   4.417   2.826   6.436  0.7003  1.2800  0.4042
 6291SOL     OW19588   4.509   3.718   3.993 -0.2719  0.4698 -0.0672
 6291SOL    HW119589   4.519   3.664   3.915 -2.0675 -0.2210  0.1404
 6291SOL    HW219590   4.483   3.804   3.960  0.3565  0.5750 -0.2914
 6292SOL     OW19591   5.432   4.369   1.678 -0.1221 -0.1465  0.3850
 6292SOL    HW119592   5.351   4.420   1.670 -0.5189 -1.0225 -1.6905
 6292SOL    HW219593   5.429   4.332   1.766 -2.1976 -0.4845  0.2038
 6293SOL     OW19594   4.914   2.769   5.547  0.0063  0.3774 -0.5953
 6293SOL    HW119595   4.905   2.745   5.455 -0.0102 -2.2129  0.0405
 6293SOL    HW219596   4.881   2.693   5.595 -1.2752  2.2258  1.5632
 6294SOL     OW19597   4.183   4.583   5.023  0.3569  0.2742  0.6556
 6294SOL    HW119598   4.214   4.573   5.113 -0.2050  0.4270  0.8669
 6294SOL    HW219599   4.098   4.538   5.022 -0.3160  1.5428  0.5815
 6295SOL     OW19600   5.794   6.083   0.690 -0.4420  0.6227 -0.0806
 6295SOL    HW119601   5.775   6.089   0.784 -1.9341  0.2072 -0.3339
 6295SOL    HW219602   5.887   6.105   0.683 -0.9198  3.2227  1.1924
 6296SOL     OW19603   0.004   3.791   5.226 -0.2505  0.5148 -0.0228
 6296SOL    HW119604   0.025   3.736   5.150  1.0359 -1.7272  1.8934
 6296SOL    HW219605  -0.071   3.843   5.197 -0.9257 -1.5646 -2.2384
 6297SOL     OW19606   1.762   6.602   3.007  0.2744  0.4286  0.0576
 6297SOL    HW119607   1.703   6.545   3.055  0.0859  0.7703  0.2341
 6297SOL    HW219608   1.757   6.571   2.916 -0.4878  0.7117 -0.0035
 6298SOL     OW19609   2.036   1.259   3.388 -0.3146  0.5449 -0.0334
 6298SOL    HW119610   2.083   1.342   3.398  1.4750 -0.3338 -1.0195
 6298SOL    HW219611   2.009   1.256   3.297 -1.3639  0.5438  0.2674
 6299SOL     OW19612   1.475   4.125   3.283 -0.4571 -0.3166 -0.0056
 6299SOL    HW119613   1.541   4.072   3.327 -1.0516 -1.5528 -0.5610
 6299SOL    HW219614   1.429   4.063   3.226 -1.6831  0.6469 -0.0865
 6300SOL     OW19615   4.951   2.399   3.989 -0.2036 -0.3411 -0.7323
 6300SOL    HW119616   4.915   2.475   3.943 -0.0562 -1.3269 -2.5271
 6300SOL    HW219617   5.029   2.375   3.939  0.8656 -0.4813  0.9757
 6301SOL     OW19618   2.570   3.449   3.011  0.3146 -0.3495 -0.0078
 6301SOL    HW119619   2.665   3.463   3.012  0.5238 -1.5738 -1.2155
 6301SOL    HW219620   2.535   3.529   2.972  0.9130 -0.2396 -0.3358
 6302SOL     OW19621   5.807   1.159   5.007  0.3993  0.3918  0.6482
 6302SOL    HW119622   5.712   1.157   4.992  0.5933 -0.8256 -0.5102
 6302SOL    HW219623   5.825   1.249   5.034 -1.0527  0.6907  0.6670
 6303SOL     OW19624   4.681   1.344   3.327 -0.4573 -0.2740 -0.7423
 6303SOL    HW119625   4.626   1.304   3.261 -0.4863 -2.5031  0.5807
 6303SOL    HW219626   4.697   1.275   3.391  2.6220  0.7307 -0.2985
 6304SOL     OW19627   4.288   5.337   6.711 -0.0224 -0.5086  0.0052
 6304SOL    HW119628   4.290   5.268   6.644  0.3227  0.2100 -0.7377
 6304SOL    HW219629   4.218   5.311   6.771  0.1019 -1.5026 -0.2661
 6305SOL     OW19630   4.210   0.885   0.583 -0.0981 -0.0029  0.3834
 6305SOL    HW119631   4.276   0.906   0.517 -3.0042 -1.6369 -3.1904
 6305SOL    HW219632   4.233   0.797   0.612  0.1345  0.0113  0.2507
 6306SOL     OW19633   2.287   5.713   6.470  0.1540  0.6506  0.4821
 6306SOL    HW119634   2.204   5.756   6.491 -0.2852  0.1800 -0.2619
 6306SOL    HW219635   2.350   5.785   6.464 -1.0438  1.5184 -3.1469
 6307SOL     OW19636   1.880   0.701   3.339 -0.8822 -0.5164 -0.1956
 6307SOL    HW119637   1.787   0.690   3.320 -0.6008  0.2443 -2.1081
 6307SOL    HW219638   1.896   0.794   3.325  0.3434 -0.8018 -0.6940
 6308SOL     OW19639   3.663   5.939   6.337 -0.5917 -0.3866  0.0967
 6308SOL    HW119640   3.709   5.876   6.281 -0.8063 -1.2270  0.8405
 6308SOL    HW219641   3.654   6.018   6.284 -1.6212 -1.4816 -1.3727
 6309SOL     OW19642   2.126   0.087   3.796  0.1795  0.0427 -0.2390
 6309SOL    HW119643   2.060   0.026   3.830 -1.9617  1.1981 -2.1729
 6309SOL    HW219644   2.161   0.131   3.874 -2.3020  0.3588  0.7327
 6310SOL     OW19645   3.019   6.651   1.220 -0.6280  0.3740 -0.0744
 6310SOL    HW119646   3.027   6.590   1.293 -0.5232  1.4155  0.7944
 6310SOL    HW219647   3.108   6.686   1.208 -0.4336 -0.5097 -1.3412
 6311SOL     OW19648   3.520   4.295   5.409 -0.8463 -0.2208  0.1235
 6311SOL    HW119649   3.536   4.213   5.455 -1.2706 -1.5090 -1.9420
 6311SOL    HW219650   3.435   4.284   5.368 -1.7359  1.9842  1.2812
 6312SOL     OW19651   1.937   5.668   0.845 -0.5456  0.1006  0.8857
 6312SOL    HW119652   1.856   5.659   0.895  0.6041 -1.0871  2.5943
 6312SOL    HW219653   1.943   5.588   0.793 -0.6641  0.3768  0.4428
 6313SOL     OW19654   2.472   2.605   1.945  0.1307 -0.0023  0.6952
 6313SOL    HW119655   2.467   2.516   1.977  1.1769 -0.5231 -0.5583
 6313SOL    HW219656   2.392   2.616   1.892 -0.7967  0.3467  2.1353
 6314SOL     OW19657   6.460   4.708   1.912 -0.6324  0.0004  0.1540
 6314SOL    HW119658   6.447   4.655   1.991 -0.1386 -1.3905 -0.6842
 6314SOL    HW219659   6.513   4.782   1.940  0.3572 -1.0015  0.9183
 6315SOL     OW19660   3.903   3.957   3.662  0.1895  0.0739 -0.0785
 6315SOL    HW119661   3.837   4.023   3.685 -0.0488 -0.7078  1.5546
 6315SOL    HW219662   3.856   3.873   3.669  1.2538 -0.4635  0.7463
 6316SOL     OW19663   5.005   3.654   6.420  0.6684 -0.4925  0.5157
 6316SOL    HW119664   5.075   3.651   6.355  1.7590 -0.7344  1.6886
 6316SOL    HW219665   4.950   3.727   6.391  1.0975 -0.6392 -0.7157
 6317SOL     OW19666   0.378   3.176   6.655 -0.2750 -0.0444 -0.1407
 6317SOL    HW119667   0.442   3.205   6.590  0.7152 -0.9208  0.4525
 6317SOL    HW219668   0.341   3.096   6.619 -1.2732  0.6141 -0.6226
 6318SOL     OW19669   2.625   2.783   2.072 -0.1904 -0.2647 -0.2263
 6318SOL    HW119670   2.708   2.758   2.032 -0.0427  0.9435 -0.7034
 6318SOL    HW219671   2.560   2.728   2.029 -0.0182  0.9543 -2.0963
 6319SOL     OW19672   0.677   0.472   2.854  0.3786  0.0932  0.0870
 6319SOL    HW119673   0.724   0.474   2.771  0.2821 -0.7743  0.0037
 6319SOL    HW219674   0.599   0.526   2.839  0.1957 -0.3279 -0.4957
 6320SOL     OW19675   6.561   5.882   5.393  0.3148 -0.2671 -0.0306
 6320SOL    HW119676   6.525   5.822   5.458  1.4188  0.0347  0.8781
 6320SOL    HW219677   6.518   5.966   5.410 -0.0472 -0.4091 -0.2582
 6321SOL     OW19678   1.956   3.882   6.419 -0.3028 -0.1928  0.3738
 6321SOL    HW119679   2.027   3.842   6.469 -1.0306 -0.4672  1.1991
 6321SOL    HW219680   1.877   3.856   6.465 -0.7897  2.2557  0.9599
 6322SOL     OW19681   2.782   5.866   4.362  0.1973 -0.3764 -0.3025
 6322SOL    HW119682   2.875   5.882   4.342 -0.1093 -0.2587 -1.7199
 6322SOL    HW219683   2.768   5.776   4.332 -0.4799  0.0829 -1.4074
 6323SOL     OW19684   3.230   0.292   5.119  0.2231  0.6413  0.1492
 6323SOL    HW119685   3.200   0.365   5.063  2.7957  1.9071  0.3678
 6323SOL    HW219686   3.191   0.310   5.204  0.7077  1.6933  0.1597
 6324SOL     OW19687   1.405   1.723   0.238 -0.2798  0.1071 -0.0831
 6324SOL    HW119688   1.453   1.734   0.156  0.9642  0.8514  0.7264
 6324SOL    HW219689   1.334   1.787   0.233  0.3390  0.7886 -0.1882
 6325SOL     OW19690   4.292   3.819   5.557  0.2334 -0.0165 -0.1691
 6325SOL    HW119691   4.248   3.850   5.478  1.1897  1.7095 -0.0560
 6325SOL    HW219692   4.375   3.784   5.525  1.5760  2.6617  0.2425
 6326SOL     OW19693   4.443   6.647   1.476 -0.0639  0.0628 -0.0396
 6326SOL    HW119694   4.464   6.627   1.385 -0.5351 -0.2014 -0.0964
 6326SOL    HW219695   4.467   6.568   1.524 -1.1042 -0.3196 -0.1361
 6327SOL     OW19696   4.715   4.588   6.434 -0.0905 -0.1473  0.3486
 6327SOL    HW119697   4.683   4.621   6.350 -0.3775  0.8082  0.8248
 6327SOL    HW219698   4.794   4.639   6.451 -2.8041  3.4457  3.1255
 6328SOL     OW19699   5.906   3.411   5.394  0.0720 -0.0203 -0.5953
 6328SOL    HW119700   5.969   3.480   5.376  0.4875 -0.6490 -1.5730
 6328SOL    HW219701   5.916   3.394   5.488  0.7688  0.4574 -0.5764
 6329SOL     OW19702   3.868   1.994   3.035  0.4188 -0.3467 -0.1933
 6329SOL    HW119703   3.941   1.979   3.095  2.8373  0.0642 -2.9355
 6329SOL    HW219704   3.877   2.086   3.009 -0.0746 -0.7365 -1.8053
 6330SOL     OW19705   1.549   5.907   2.857  0.1451  0.2324  0.2544
 6330SOL    HW119706   1.568   6.001   2.857  1.9988 -0.1296  0.0955
 6330SOL    HW219707   1.524   5.887   2.767  0.8055  0.3713  0.0399
 6331SOL     OW19708   1.175   0.431   4.951  0.4205 -0.1584  0.4975
 6331SOL    HW119709   1.193   0.520   4.982  0.1490 -0.4685  1.5653
 6331SOL    HW219710   1.208   0.430   4.861 -0.8516  1.4343 -0.0075
 6332SOL     OW19711   3.863   1.984   2.588  0.7736 -0.3521  0.2868
 6332SOL    HW119712   3.904   1.913   2.539 -1.3660 -1.6421  0.3082
 6332SOL    HW219713   3.890   1.969   2.679  1.2182 -0.4692  0.1402
 6333SOL     OW19714   5.338   1.037   0.631  0.2900 -0.0355 -0.1802
 6333SOL    HW119715   5.360   0.946   0.615 -1.6127 -0.2378 -1.8902
 6333SOL    HW219716   5.259   1.034   0.686  1.1238  0.5940  1.0612
 6334SOL     OW19717   2.116   3.703   0.049  0.1476  0.5024 -0.0340
 6334SOL    HW119718   2.096   3.681   0.140  0.8655 -0.7358 -0.1606
 6334SOL    HW219719   2.193   3.650   0.028  0.1273  0.9532 -1.2844
 6335SOL     OW19720   2.735   0.451   2.380  0.1244 -0.6484 -0.2692
 6335SOL    HW119721   2.677   0.375   2.380 -0.2384 -0.3741 -1.3803
 6335SOL    HW219722   2.811   0.423   2.431  0.3418 -2.0346 -1.3223
 6336SOL     OW19723   5.106   5.834   5.425 -0.3101  0.0676  0.5156
 6336SOL    HW119724   5.065   5.840   5.511  0.2907  1.9232  0.6760
 6336SOL    HW219725   5.193   5.872   5.436 -0.7478  1.6331 -1.2343
 6337SOL     OW19726   5.279   5.855   6.084  0.1302  0.3327  0.7119
 6337SOL    HW119727   5.350   5.823   6.139  1.3226 -0.1972 -1.0664
 6337SOL    HW219728   5.200   5.839   6.135  1.1957 -0.0717  2.2812
 6338SOL     OW19729   0.932   2.608   3.636  0.6977  0.1141  0.3125
 6338SOL    HW119730   1.004   2.669   3.620  3.5900 -2.8520  1.3129
 6338SOL    HW219731   0.903   2.582   3.549  3.0588 -1.0690 -0.1679
 6339SOL     OW19732   1.216   4.058   0.398  0.1309  0.1383  0.3060
 6339SOL    HW119733   1.175   4.141   0.422 -0.0391 -0.2407  1.3554
 6339SOL    HW219734   1.159   4.021   0.331 -0.2027  0.5073  0.3867
 6340SOL     OW19735   0.315   5.542   6.435 -0.4274 -0.0831  0.4610
 6340SOL    HW119736   0.250   5.582   6.377 -1.8801 -1.2303  1.2748
 6340SOL    HW219737   0.264   5.500   6.504  1.1958 -0.6014  1.3821
 6341SOL     OW19738   1.337   3.889   5.052  0.4986  0.3093 -0.1970
 6341SOL    HW119739   1.247   3.875   5.082 -0.1284  2.6565 -0.9165
 6341SOL    HW219740   1.391   3.874   5.130 -0.5226 -0.7546  0.3238
 6342SOL     OW19741   5.389   1.974   5.657 -0.0558  0.3397  0.4064
 6342SOL    HW119742   5.451   1.971   5.730  0.9362  1.5789 -0.3640
 6342SOL    HW219743   5.325   2.040   5.683  0.3555  0.8551  0.1256
 6343SOL     OW19744   0.560   3.247   1.420  0.6619 -0.2768 -0.8911
 6343SOL    HW119745   0.555   3.335   1.456 -0.3588  0.5873 -3.0808
 6343SOL    HW219746   0.469   3.223   1.400  0.9385 -1.7676 -0.4612
 6344SOL     OW19747   3.146   3.804   1.968  0.0356 -0.1635  0.3646
 6344SOL    HW119748   3.178   3.845   1.887  0.9948 -0.1939  0.7179
 6344SOL    HW219749   3.203   3.728   1.981 -1.5462 -1.4600 -0.1198
 6345SOL     OW19750   2.877   3.500   5.299 -0.1491 -0.5312  0.4586
 6345SOL    HW119751   2.808   3.563   5.276 -0.6410 -1.8066 -1.6648
 6345SOL    HW219752   2.953   3.554   5.318 -0.7483  0.7565 -0.7015
 6346SOL     OW19753   6.127   1.801   5.826  0.1926  0.7229 -0.2726
 6346SOL    HW119754   6.179   1.720   5.825  1.0098  1.2345 -2.3631
 6346SOL    HW219755   6.192   1.871   5.839 -0.5060  1.0690  1.5383
 6347SOL     OW19756   1.362   2.734   0.494  0.4118 -0.3143  0.4628
 6347SOL    HW119757   1.384   2.793   0.423 -1.2168 -1.7915 -1.3477
 6347SOL    HW219758   1.293   2.779   0.543 -1.1860 -0.8618 -1.2093
 6348SOL     OW19759   4.689   5.806   6.728  0.1086  0.2565  0.5870
 6348SOL    HW119760   4.784   5.802   6.736  0.2374 -1.2846 -1.3063
 6348SOL    HW219761   4.658   5.732   6.779 -0.0204  0.2255  0.4632
 6349SOL     OW19762   3.031   0.817   3.268  0.2054 -0.5008 -0.6481
 6349SOL    HW119763   3.020   0.726   3.296 -0.7254  0.0166  0.6843
 6349SOL    HW219764   3.068   0.862   3.344  0.3846  0.3090 -1.2003
 6350SOL     OW19765   5.780   2.875   3.419  0.4262 -0.0918 -0.2451
 6350SOL    HW119766   5.762   2.935   3.491  0.7786 -0.6074  0.2795
 6350SOL    HW219767   5.705   2.815   3.418  0.1791  0.2140 -0.6338
 6351SOL     OW19768   5.476   2.832   1.688  0.1822 -0.0238  0.0257
 6351SOL    HW119769   5.501   2.747   1.652 -1.0346  0.0989 -1.1695
 6351SOL    HW219770   5.558   2.881   1.693  0.8177 -1.0834  0.2356
 6352SOL     OW19771   2.189   5.837   6.203  0.1996  0.2765 -0.1661
 6352SOL    HW119772   2.173   5.761   6.148 -0.6316 -0.9369  1.7123
 6352SOL    HW219773   2.114   5.895   6.187 -1.0183 -0.9237  1.0861
 6353SOL     OW19774   5.528   2.906   1.016 -0.1575  0.5922  0.7065
 6353SOL    HW119775   5.443   2.880   0.981  0.7104  0.3661 -1.3533
 6353SOL    HW219776   5.554   2.833   1.073 -1.6372  0.9932  1.9255
 6354SOL     OW19777   0.625   6.255   3.625  0.0485  0.4342  0.6956
 6354SOL    HW119778   0.620   6.165   3.593  0.0447  0.1440  1.5016
 6354SOL    HW219779   0.575   6.306   3.561  2.3916  0.2941 -1.2870
 6355SOL     OW19780   6.190   4.175   1.471  0.2040  0.1956 -0.2504
 6355SOL    HW119781   6.214   4.231   1.397  1.9689  0.0034  0.1607
 6355SOL    HW219782   6.239   4.211   1.545  1.7308 -2.1545 -0.0869
 6356SOL     OW19783   6.675   4.809   6.218  0.2032 -0.5267  0.2806
 6356SOL    HW119784   6.754   4.829   6.269  0.4356 -0.6800 -0.0183
 6356SOL    HW219785   6.613   4.775   6.283  0.7455 -1.3972  0.3586
 6357SOL     OW19786   2.049   5.729   1.184 -0.1484 -0.1761 -0.1159
 6357SOL    HW119787   2.085   5.755   1.269 -1.0203 -3.5197  1.3507
 6357SOL    HW219788   1.954   5.733   1.197 -0.2806 -0.8384 -0.9116
 6358SOL     OW19789   5.946   1.879   5.137 -0.2753 -0.3761  0.5550
 6358SOL    HW119790   5.942   1.969   5.103  0.1266 -0.8046 -0.6396
 6358SOL    HW219791   6.010   1.884   5.208 -0.1696  0.2605  0.4198
 6359SOL     OW19792   1.822   6.712   3.269  0.1470 -0.3603 -0.4262
 6359SOL    HW119793   1.749   6.666   3.228  0.0262  0.2313 -0.8764
 6359SOL    HW219794   1.784   6.794   3.301  1.0737  0.9765 -2.6476
 6360SOL     OW19795   4.812   4.481   5.626  0.3532  0.3094 -0.4192
 6360SOL    HW119796   4.870   4.469   5.701  0.0368  0.4899 -0.1400
 6360SOL    HW219797   4.850   4.427   5.557  0.6604  0.1570 -0.1329
 6361SOL     OW19798   0.400   0.108   1.955  0.2292  0.2388  0.5159
 6361SOL    HW119799   0.398   0.104   2.051  1.5450  0.3149  0.5509
 6361SOL    HW219800   0.437   0.024   1.928 -1.3523 -0.3136  0.0055
 6362SOL     OW19801   4.990   0.429   5.289  0.1352 -0.0101 -0.0680
 6362SOL    HW119802   4.996   0.417   5.384 -0.7528  0.0717  0.0056
 6362SOL    HW219803   4.955   0.517   5.278 -0.5596 -0.3295 -0.4538
 6363SOL     OW19804   1.679   6.204   0.847  0.2773 -0.4364  0.2306
 6363SOL    HW119805   1.736   6.203   0.770  0.1128  2.3025  0.0523
 6363SOL    HW219806   1.733   6.166   0.916  1.6247  0.2612 -0.4135
 6364SOL     OW19807   5.103   3.825   2.712 -0.3528  0.5247  0.5579
 6364SOL    HW119808   5.195   3.818   2.739  0.3719  1.9473 -1.4461
 6364SOL    HW219809   5.080   3.737   2.683  0.5447  0.2886  0.5502
 6365SOL     OW19810   4.647   4.925   0.607 -0.0480 -0.3283  0.9238
 6365SOL    HW119811   4.574   4.865   0.594  0.6724 -0.9463 -0.3275
 6365SOL    HW219812   4.723   4.868   0.620  0.4323  0.3143  0.9671
 6366SOL     OW19813   3.164   5.881   0.282  0.6727 -0.1358  0.0699
 6366SOL    HW119814   3.246   5.923   0.307  0.9852 -0.0805 -1.0713
 6366SOL    HW219815   3.110   5.952   0.248  0.3320 -0.2628  0.3385
 6367SOL     OW19816   2.166   3.057   6.579  0.0932  0.0120  0.3248
 6367SOL    HW119817   2.258   3.043   6.600  0.8135  1.9029 -1.4173
 6367SOL    HW219818   2.158   3.031   6.487 -1.2739 -0.8308  0.6659
 6368SOL     OW19819   2.169   0.474   1.764 -0.4879 -0.1964 -0.4999
 6368SOL    HW119820   2.180   0.482   1.859  1.5948 -1.9397 -0.5355
 6368SOL    HW219821   2.137   0.385   1.751  0.1925 -0.3164 -1.4734
 6369SOL     OW19822   4.826   3.328   4.379  0.4569 -0.3044 -0.1951
 6369SOL    HW119823   4.767   3.284   4.440 -0.6443  0.5198 -0.6381
 6369SOL    HW219824   4.802   3.291   4.293  0.7671 -0.1621 -0.3426
 6370SOL     OW19825   5.540   4.364   6.287  0.5076  0.0290 -0.4355
 6370SOL    HW119826   5.484   4.397   6.357  1.8470  0.7890  0.2909
 6370SOL    HW219827   5.479   4.338   6.218 -0.8919 -1.6961  1.3992
 6371SOL     OW19828   2.718   1.277   4.696 -0.1108  0.3157 -0.3142
 6371SOL    HW119829   2.696   1.370   4.694 -1.2773  0.0216 -1.3629
 6371SOL    HW219830   2.643   1.235   4.737 -0.4916 -0.4028 -1.7185
 6372SOL     OW19831   3.920   6.650   5.886  0.2281 -0.1191 -0.9004
 6372SOL    HW119832   3.890   6.740   5.876  2.2320  0.7953  0.9452
 6372SOL    HW219833   3.919   6.634   5.980  1.3590 -1.4888 -1.0889
 6373SOL     OW19834   5.288   5.734   0.888  0.5809  0.0412  0.3485
 6373SOL    HW119835   5.327   5.708   0.804  0.7619  1.5886 -0.0556
 6373SOL    HW219836   5.255   5.822   0.873 -0.5730 -0.1783  1.5278
 6374SOL     OW19837   1.284   4.998   3.288 -0.0241  0.5022  0.1353
 6374SOL    HW119838   1.335   5.065   3.334 -1.9766  2.2801 -0.2492
 6374SOL    HW219839   1.247   5.043   3.212 -2.9399 -0.4984  0.9059
 6375SOL     OW19840   2.193   3.038   3.911  0.1140  0.5143 -0.4241
 6375SOL    HW119841   2.271   3.016   3.962 -0.3193  0.5466  0.2691
 6375SOL    HW219842   2.226   3.070   3.828  0.8021 -1.3867 -0.8996
 6376SOL     OW19843   6.167   0.691   5.668  0.5970  0.5701  0.0244
 6376SOL    HW119844   6.120   0.655   5.593  1.6931 -0.5214 -0.1545
 6376SOL    HW219845   6.253   0.649   5.665  0.4744  0.0949  2.1930
 6377SOL     OW19846   4.566   3.101   2.461 -0.3536  0.3474  0.3507
 6377SOL    HW119847   4.579   3.021   2.409 -0.0614  0.3758  0.3777
 6377SOL    HW219848   4.552   3.069   2.550  1.1701  0.3783  0.6158
 6378SOL     OW19849   4.445   3.318   5.523  0.1335  0.1330 -0.1756
 6378SOL    HW119850   4.482   3.235   5.492 -2.0817 -1.4964  1.4117
 6378SOL    HW219851   4.388   3.347   5.452  0.7952  0.2466 -0.6696
 6379SOL     OW19852   0.039   1.148   0.904  0.5531  0.2495 -0.0095
 6379SOL    HW119853   0.106   1.086   0.933  1.4202  0.3759 -1.6625
 6379SOL    HW219854  -0.018   1.160   0.980  0.8737 -1.9158  0.5931
 6380SOL     OW19855   0.773   0.339   0.284  0.8461  0.3183 -0.0482
 6380SOL    HW119856   0.751   0.415   0.231  0.6569  0.8391  0.7627
 6380SOL    HW219857   0.868   0.332   0.279  0.7466 -0.2456 -1.2735
 6381SOL     OW19858   1.708   6.036   6.080 -0.4143 -0.8325 -0.4562
 6381SOL    HW119859   1.743   6.005   5.997  0.7013 -0.7250 -0.0291
 6381SOL    HW219860   1.615   6.013   6.077 -0.6417  0.2529 -2.2282
 6382SOL     OW19861   6.159   2.404   4.226 -0.0531  0.1117  0.2977
 6382SOL    HW119862   6.228   2.462   4.192  1.0354 -1.6205 -0.5211
 6382SOL    HW219863   6.203   2.320   4.238 -1.8391 -0.7847  0.6130
 6383SOL     OW19864   3.943   1.473   5.634  0.4058 -0.1321 -0.1624
 6383SOL    HW119865   3.930   1.409   5.564 -0.2684 -0.5089  0.2934
 6383SOL    HW219866   3.875   1.539   5.620 -1.0114 -1.2378  1.2634
 6384SOL     OW19867   4.839   1.549   3.247  0.2519 -0.2623 -0.4295
 6384SOL    HW119868   4.768   1.500   3.288  1.3241 -0.2330  1.5252
 6384SOL    HW219869   4.903   1.563   3.317  1.0577  1.8653 -1.5268
 6385SOL     OW19870   4.475   5.122   4.818  0.3587 -0.6305  0.4049
 6385SOL    HW119871   4.401   5.182   4.830  0.1545 -0.7758 -0.1233
 6385SOL    HW219872   4.468   5.061   4.891  1.0550  0.4861  1.4334
 6386SOL     OW19873   4.799   4.632   1.969  0.2654 -0.1020  0.0704
 6386SOL    HW119874   4.706   4.656   1.966 -0.1584 -1.7436 -0.4172
 6386SOL    HW219875   4.802   4.555   2.025  0.9379 -1.7440 -2.1634
 6387SOL     OW19876   0.459   0.010   5.758  0.3032  0.6549  0.0827
 6387SOL    HW119877   0.416   0.040   5.678  1.8581  0.1242 -0.9655
 6387SOL    HW219878   0.386  -0.009   5.818 -0.8412  2.1174 -0.7988
 6388SOL     OW19879   0.916   4.255   2.726  0.1074 -0.4611 -0.0647
 6388SOL    HW119880   0.994   4.263   2.672  0.8975 -0.1146  1.1017
 6388SOL    HW219881   0.908   4.161   2.743 -1.1853 -0.7728 -2.2523
 6389SOL     OW19882   0.981   2.431   5.446 -0.2566 -0.3205 -0.3572
 6389SOL    HW119883   0.953   2.441   5.355 -0.5574  1.7774 -0.0605
 6389SOL    HW219884   1.060   2.376   5.441 -0.7317 -0.8983 -1.7949
 6390SOL     OW19885   6.165   4.319   3.514 -0.0915  0.3052  0.1106
 6390SOL    HW119886   6.219   4.353   3.585 -1.4110 -1.8963  2.2569
 6390SOL    HW219887   6.086   4.373   3.517 -0.5177 -0.3455  0.9333
 6391SOL     OW19888   2.439   0.422   2.776  0.5272 -0.3047 -0.2714
 6391SOL    HW119889   2.485   0.380   2.848  1.0098  0.0193 -0.3894
 6391SOL    HW219890   2.503   0.480   2.737 -0.8070  2.4637  1.4708
 6392SOL     OW19891   5.453   5.622   5.648  0.6067 -0.0424 -0.8163
 6392SOL    HW119892   5.429   5.641   5.739 -0.7718 -0.9670 -0.9804
 6392SOL    HW219893   5.526   5.682   5.630  1.6138 -0.6018  1.2378
 6393SOL     OW19894   5.052   2.518   4.488  0.4639 -0.3086 -0.0807
 6393SOL    HW119895   4.969   2.503   4.534  0.4029  1.3728  0.3648
 6393SOL    HW219896   5.032   2.499   4.396 -0.7242  1.2642 -0.1573
 6394SOL     OW19897   0.227   5.770   3.622 -0.1714 -0.5153  0.0346
 6394SOL    HW119898   0.289   5.743   3.690  0.3956  1.2189  0.2537
 6394SOL    HW219899   0.142   5.741   3.653  0.3382 -1.5600  0.4835
 6395SOL     OW19900   1.653   0.834   5.989  0.3563  0.4032 -0.3017
 6395SOL    HW119901   1.628   0.743   5.973 -0.0418  0.3515  0.5849
 6395SOL    HW219902   1.631   0.879   5.908 -1.0102  0.0166 -0.1640
 6396SOL     OW19903   2.226   6.668   4.434 -0.3458 -0.4549  0.1741
 6396SOL    HW119904   2.277   6.712   4.368  0.2130 -1.5247 -0.1211
 6396SOL    HW219905   2.252   6.576   4.428 -3.5857 -1.3869 -1.2405
 6397SOL     OW19906   0.303   2.086   1.475  0.1734  0.5715  0.0257
 6397SOL    HW119907   0.373   2.096   1.410  1.7197 -1.1266  1.3868
 6397SOL    HW219908   0.266   2.174   1.483  2.3873  1.5865 -0.4533
 6398SOL     OW19909   6.058   1.114   1.516  1.0569 -0.2677  0.6301
 6398SOL    HW119910   6.097   1.171   1.449  0.7692  0.1274  0.7971
 6398SOL    HW219911   6.035   1.034   1.468 -1.1409  0.8372 -0.2242
 6399SOL     OW19912   3.529   3.221   4.157 -0.5778 -0.4095  0.1479
 6399SOL    HW119913   3.572   3.154   4.210  1.4301  1.8681  1.4903
 6399SOL    HW219914   3.581   3.300   4.171 -2.1816  1.1605 -2.3352
 6400SOL     OW19915   0.338   4.542   0.382 -0.4773 -0.1063 -0.0067
 6400SOL    HW119916   0.386   4.605   0.435 -0.6342 -0.0865  0.1120
 6400SOL    HW219917   0.404   4.504   0.324 -0.5341  0.7664 -0.6589
 6401SOL     OW19918   0.602   1.873   6.572 -0.0953 -0.6148  0.0779
 6401SOL    HW119919   0.680   1.818   6.580 -0.7877 -1.6329 -0.0499
 6401SOL    HW219920   0.530   1.815   6.594 -0.9823 -0.1921 -1.5898
 6402SOL     OW19921   0.375   0.127   6.225 -0.3237  0.4321 -0.0079
 6402SOL    HW119922   0.390   0.209   6.179 -0.1779  0.7934  0.6848
 6402SOL    HW219923   0.279   0.120   6.230 -0.3814 -0.5395 -2.0185
 6403SOL     OW19924   1.475   2.105   1.911 -0.5331 -0.1787  0.4385
 6403SOL    HW119925   1.444   2.196   1.908  0.2501  0.0687 -0.5792
 6403SOL    HW219926   1.489   2.087   2.004 -0.4642  0.8264  0.6257
 6404SOL     OW19927   1.399   3.510   2.868 -0.0650  0.1917  0.3563
 6404SOL    HW119928   1.462   3.452   2.824  1.4545  2.3123 -0.3545
 6404SOL    HW219929   1.348   3.549   2.796 -0.3316  0.5676  0.7505
 6405SOL     OW19930   1.305   2.060   6.562  0.2092  0.7840 -0.1435
 6405SOL    HW119931   1.379   2.114   6.588 -0.8603  2.5180 -0.6192
 6405SOL    HW219932   1.229   2.103   6.603 -0.7139 -0.0762 -0.9226
 6406SOL     OW19933   5.621   2.256   3.753  0.3298  0.2109 -0.5371
 6406SOL    HW119934   5.681   2.210   3.694 -0.9154 -1.8971 -0.2508
 6406SOL    HW219935   5.557   2.297   3.694 -1.0080 -2.0243 -0.7304
 6407SOL     OW19936   4.874   3.888   1.411 -0.2632  0.1952 -0.4518
 6407SOL    HW119937   4.809   3.953   1.386  1.1698  1.1648 -1.7142
 6407SOL    HW219938   4.947   3.902   1.351  1.0158 -1.0500  0.7710
 6408SOL     OW19939   1.428   1.911   1.711  0.0499 -0.4201 -0.4101
 6408SOL    HW119940   1.446   1.971   1.783 -0.6134 -2.0446  1.1569
 6408SOL    HW219941   1.472   1.830   1.737  1.9948 -0.2698 -3.0647
 6409SOL     OW19942   3.471   3.986   2.595  0.8705 -0.1306  0.3294
 6409SOL    HW119943   3.416   3.907   2.598  1.6061 -0.7043 -0.7021
 6409SOL    HW219944   3.410   4.059   2.598  0.1879 -0.7320  1.5665
 6410SOL     OW19945   3.026   6.287   2.058  0.4006  0.2478 -0.7489
 6410SOL    HW119946   2.945   6.297   2.008 -0.6264  0.5654  0.9191
 6410SOL    HW219947   3.009   6.334   2.140  1.7580 -0.9118  0.2177
 6411SOL     OW19948   3.467   5.858   0.707 -0.2408 -0.4614  0.2471
 6411SOL    HW119949   3.398   5.827   0.649 -0.8956 -0.8129  1.1995
 6411SOL    HW219950   3.548   5.847   0.657 -0.6893 -1.7258 -0.2105
 6412SOL     OW19951   2.254   0.769   6.149 -0.1630  0.0357  0.9930
 6412SOL    HW119952   2.350   0.770   6.155 -0.2116  0.0936  1.7188
 6412SOL    HW219953   2.225   0.725   6.228 -0.6674 -1.8123 -0.1861
 6413SOL     OW19954   1.022   0.449   0.349  0.1448  0.2366  0.2927
 6413SOL    HW119955   1.094   0.502   0.315 -0.1631  0.2468 -0.3625
 6413SOL    HW219956   1.058   0.405   0.426  0.8331  0.2800 -0.0028
 6414SOL     OW19957   4.873   3.955   2.156  0.2514  0.3034 -0.3551
 6414SOL    HW119958   4.827   4.025   2.110 -0.5583  0.6065  0.8908
 6414SOL    HW219959   4.815   3.880   2.151  0.2646  0.2706 -0.0408
 6415SOL     OW19960   0.160   4.531   6.338  0.4738  0.7051  0.3550
 6415SOL    HW119961   0.120   4.494   6.259  0.2054 -0.2822  0.9468
 6415SOL    HW219962   0.088   4.577   6.382  0.6004  1.1690  0.0833
 6416SOL     OW19963   1.596   0.650   1.973  0.3658  0.5866  0.1625
 6416SOL    HW119964   1.565   0.561   1.959  2.0189 -0.0918  0.8033
 6416SOL    HW219965   1.540   0.684   2.043 -0.1447 -0.0028  0.0469
 6417SOL     OW19966   5.069   2.076   1.427 -0.0067  0.5195  0.0209
 6417SOL    HW119967   4.976   2.055   1.441 -0.7850  2.9251 -1.1149
 6417SOL    HW219968   5.087   2.045   1.338 -0.3018  1.7837 -0.4979
 6418SOL     OW19969   4.130   2.592   4.091  0.1100  0.1148 -0.7792
 6418SOL    HW119970   4.168   2.539   4.160 -1.1731  0.6137  0.3229
 6418SOL    HW219971   4.205   2.632   4.047  0.9731 -0.9827 -0.3201
 6419SOL     OW19972   0.913   6.522   6.331  0.9167  0.6516  0.0937
 6419SOL    HW119973   0.952   6.583   6.393  1.5404 -0.4338  0.7786
 6419SOL    HW219974   0.905   6.440   6.379  1.8345 -0.3322 -1.3823
 6420SOL     OW19975   1.511   6.572   4.907 -0.7324 -0.0248  0.2677
 6420SOL    HW119976   1.529   6.642   4.970  0.1778 -1.2022  1.3222
 6420SOL    HW219977   1.531   6.491   4.953 -3.5514 -1.1105 -0.3242
 6421SOL     OW19978   4.162   0.289   2.427  0.2054 -0.4831 -0.1772
 6421SOL    HW119979   4.122   0.370   2.459 -0.4492 -1.3310  1.2169
 6421SOL    HW219980   4.233   0.318   2.370 -0.3803  1.0654 -0.1472
 6422SOL     OW19981   5.095   5.028   3.651 -0.7285  0.0477 -0.1190
 6422SOL    HW119982   5.156   5.002   3.582 -0.5733 -0.6206  0.2650
 6422SOL    HW219983   5.015   4.979   3.631 -1.8254  2.4459 -1.7831
 6423SOL     OW19984   1.016   6.352   4.870 -0.6099 -0.3199  0.0347
 6423SOL    HW119985   0.998   6.271   4.821  0.0116  0.6720 -1.8949
 6423SOL    HW219986   0.933   6.400   4.866 -0.4918 -0.1384 -0.2517
 6424SOL     OW19987   0.232   3.048   0.304  0.0827  0.2064 -0.1558
 6424SOL    HW119988   0.323   3.050   0.274  0.2987  2.1265  0.5203
 6424SOL    HW219989   0.217   3.136   0.338 -0.7199 -1.3289  3.6365
 6425SOL     OW19990   1.020   4.564   3.978  0.0097 -0.3201 -0.3708
 6425SOL    HW119991   1.010   4.656   4.001  0.1592 -0.5608  0.6500
 6425SOL    HW219992   1.114   4.550   3.972 -0.0271 -0.2608 -1.1209
 6426SOL     OW19993   3.487   3.673   4.308 -0.6240 -0.0404  0.6351
 6426SOL    HW119994   3.548   3.615   4.261 -0.8315 -0.4100  0.8188
 6426SOL    HW219995   3.543   3.720   4.370 -0.3895  0.2667  0.1977
 6427SOL     OW19996   0.768   0.459   3.527 -0.6295 -0.4082 -0.0142
 6427SOL    HW119997   0.737   0.393   3.590 -1.1133  0.4111  0.6172
 6427SOL    HW219998   0.772   0.413   3.444  2.4640 -2.2512  1.0459
 6428SOL     OW19999   4.364   6.296   2.200 -0.2839  0.5788  0.1237
 6428SOL    HW120000   4.279   6.326   2.231 -1.2892 -1.5988 -0.4390
 6428SOL    HW220001   4.352   6.283   2.106  0.1230 -1.4743  0.3320
 6429SOL     OW20002   1.634   2.233   2.907  0.7177  0.1689 -0.1988
 6429SOL    HW120003   1.654   2.201   2.819 -0.2458  0.1345 -0.4091
 6429SOL    HW220004   1.649   2.157   2.964 -0.9773 -0.5007 -0.6224
 6430SOL     OW20005   5.016   4.518   5.838 -0.3937  0.2452 -0.5205
 6430SOL    HW120006   5.090   4.580   5.833  0.8438 -1.1911 -0.4491
 6430SOL    HW220007   5.047   4.441   5.791 -1.2537 -0.9648  0.8797
 6431SOL     OW20008   6.354   0.198   2.154  0.2259 -0.4805 -0.1313
 6431SOL    HW120009   6.259   0.181   2.156  0.3501 -1.1298  1.0720
 6431SOL    HW220010   6.389   0.129   2.098  0.2488 -1.7437  1.3962
 6432SOL     OW20011   2.401   1.526   4.461 -0.1504 -0.1910  0.1573
 6432SOL    HW120012   2.347   1.502   4.536  2.5066  1.0939  2.5945
 6432SOL    HW220013   2.490   1.530   4.497  1.2447  0.0500 -3.1866
 6433SOL     OW20014   0.728   2.672   4.550 -0.7068 -0.3367  0.4733
 6433SOL    HW120015   0.788   2.733   4.595 -0.1480  0.0104 -0.7292
 6433SOL    HW220016   0.681   2.727   4.488 -0.0893 -1.1559 -0.7259
 6434SOL     OW20017   1.736   3.304   3.090 -0.3245  0.5138  0.2390
 6434SOL    HW120018   1.774   3.383   3.053 -0.3529 -0.6703 -2.4169
 6434SOL    HW220019   1.796   3.234   3.063 -0.2324 -0.3763  2.6522
 6435SOL     OW20020   3.349   1.860   6.323 -0.3474  0.1862 -0.4283
 6435SOL    HW120021   3.367   1.924   6.254 -0.4440  0.8705  0.1764
 6435SOL    HW220022   3.393   1.780   6.294 -0.5380  0.4195 -1.3667
 6436SOL     OW20023   2.018   4.667   4.545  0.0972 -0.0164  0.3874
 6436SOL    HW120024   1.955   4.597   4.562  0.8148 -1.0285 -1.0146
 6436SOL    HW220025   1.994   4.700   4.458  0.3861  0.8071  0.6159
 6437SOL     OW20026   4.481   5.678   2.317  0.3519  0.0145  0.2913
 6437SOL    HW120027   4.527   5.638   2.391 -0.8873  1.3384  1.8209
 6437SOL    HW220028   4.423   5.742   2.357 -0.5519  0.5663 -1.8318
 6438SOL     OW20029   4.666   2.854   1.290 -0.2339 -0.4224  0.0172
 6438SOL    HW120030   4.665   2.777   1.347 -0.3512 -0.6483 -0.2905
 6438SOL    HW220031   4.580   2.895   1.303 -0.0401 -0.1410  0.4496
 6439SOL     OW20032   0.586   6.338   2.239  0.5473  0.4720  0.6333
 6439SOL    HW120033   0.637   6.260   2.221 -1.5502 -0.6291 -0.7446
 6439SOL    HW220034   0.541   6.320   2.321 -1.6339 -0.7306 -0.7631
 6440SOL     OW20035   2.411   4.923   3.399 -0.0106  0.2613  0.0880
 6440SOL    HW120036   2.423   4.952   3.489  0.1592 -0.7449  0.3915
 6440SOL    HW220037   2.499   4.902   3.368  0.0025  1.1893 -0.5142
 6441SOL     OW20038   4.908   5.848   4.023 -0.4531  0.1762 -0.1157
 6441SOL    HW120039   4.965   5.923   4.008 -1.3289  0.9948  0.5056
 6441SOL    HW220040   4.946   5.777   3.972  1.0210  0.7429  0.1679
 6442SOL     OW20041   5.403   5.580   1.237 -0.6936  0.6595 -0.4428
 6442SOL    HW120042   5.409   5.622   1.323 -0.9302  0.3364 -0.2699
 6442SOL    HW220043   5.393   5.487   1.256  0.2619  0.4639 -0.8254
 6443SOL     OW20044   0.475   6.039   3.195 -0.4000  0.9235 -0.6254
 6443SOL    HW120045   0.486   6.091   3.115 -0.8529 -0.1841 -1.4157
 6443SOL    HW220046   0.501   5.951   3.171  0.0200  0.6958  0.6169
 6444SOL     OW20047   2.934   6.661   6.635 -0.2388  0.6858 -0.0621
 6444SOL    HW120048   2.882   6.659   6.554 -1.1641  1.5166  0.5102
 6444SOL    HW220049   2.903   6.585   6.685 -0.5466  0.8931  0.0611
 6445SOL     OW20050   3.599   6.583   4.381  0.5143  0.6066  0.1162
 6445SOL    HW120051   3.527   6.578   4.444  0.1168 -0.2362 -0.3898
 6445SOL    HW220052   3.555   6.593   4.296  0.9510 -0.8994 -0.3014
 6446SOL     OW20053   5.676   2.927   2.694 -0.1542  0.3868 -0.9513
 6446SOL    HW120054   5.625   2.885   2.624 -1.0734 -2.6767  1.4691
 6446SOL    HW220055   5.766   2.899   2.678 -0.2488  0.2722 -1.2908
 6447SOL     OW20056   4.846   1.070   0.532  0.3701 -0.0789 -0.2680
 6447SOL    HW120057   4.898   1.131   0.478  1.4802  0.7703  1.6952
 6447SOL    HW220058   4.790   1.127   0.585  1.1931 -0.7490  1.3676
 6448SOL     OW20059   5.965   1.771   2.893  0.3083  0.1110  0.6751
 6448SOL    HW120060   5.993   1.815   2.973  0.0574 -0.8445  1.2927
 6448SOL    HW220061   5.894   1.713   2.921 -1.1028  1.1801 -0.5634
 6449SOL     OW20062   2.082   0.577   1.140  0.2374  0.2140 -0.0209
 6449SOL    HW120063   2.156   0.516   1.141 -0.3238 -0.4980 -0.7942
 6449SOL    HW220064   2.009   0.525   1.105 -1.0108  0.4735  2.1138
 6450SOL     OW20065   1.111   4.167   4.572  0.5557 -0.1404  0.1987
 6450SOL    HW120066   1.162   4.088   4.591  2.7502  1.1360 -0.1741
 6450SOL    HW220067   1.171   4.223   4.522 -0.9431  1.7849  0.4776
 6451SOL     OW20068   5.749   3.360   0.918  0.0674 -0.3689 -0.3558
 6451SOL    HW120069   5.725   3.282   0.968 -1.3596 -0.2305 -0.7986
 6451SOL    HW220070   5.823   3.332   0.864  2.1642 -0.3150  2.3505
 6452SOL     OW20071   5.419   6.718   6.147  0.1623 -0.0282  0.2288
 6452SOL    HW120072   5.501   6.669   6.155  1.3335  1.5047 -1.8677
 6452SOL    HW220073   5.438   6.784   6.081 -2.8074  0.3145 -0.3031
 6453SOL     OW20074   5.641   0.616   1.840 -0.4431 -0.2104  0.6578
 6453SOL    HW120075   5.629   0.656   1.754 -2.6333 -0.5255  0.7982
 6453SOL    HW220076   5.704   0.545   1.824 -0.7454 -0.2035 -0.6622
 6454SOL     OW20077   6.492   1.373   6.298 -0.0314  0.6617  0.3936
 6454SOL    HW120078   6.587   1.365   6.297 -0.1436 -1.7076  2.6402
 6454SOL    HW220079   6.474   1.430   6.374 -0.4624 -0.3883  1.0895
 6455SOL     OW20080   3.869   4.823   3.971 -0.5124 -0.2472 -0.7117
 6455SOL    HW120081   3.957   4.788   3.980 -1.1132 -1.5280  0.3352
 6455SOL    HW220082   3.828   4.770   3.903 -1.1740 -1.1517  0.3502
 6456SOL     OW20083   3.743   3.513   1.667  0.7300 -0.4481  0.4495
 6456SOL    HW120084   3.836   3.535   1.659  0.6238 -0.2795 -0.3831
 6456SOL    HW220085   3.700   3.597   1.685  0.7230 -0.5104  0.7285
 6457SOL     OW20086   1.817   3.519   2.440  0.0011  0.2879  0.0257
 6457SOL    HW120087   1.742   3.578   2.454  0.3085  1.0996 -1.6578
 6457SOL    HW220088   1.862   3.518   2.524 -0.0923  2.3512  0.1344
 6458SOL     OW20089   2.724   0.629   1.909  0.0889  0.0588  0.4246
 6458SOL    HW120090   2.699   0.696   1.972  0.4307 -0.4962  1.1522
 6458SOL    HW220091   2.751   0.554   1.962 -0.9329 -0.8932 -0.3876
 6459SOL     OW20092   6.517   0.560   4.990  0.5531  0.3644 -0.0482
 6459SOL    HW120093   6.460   0.531   5.061  0.6628  0.5321  0.1097
 6459SOL    HW220094   6.564   0.481   4.962 -1.2330 -0.2098 -1.5554
 6460SOL     OW20095   6.126   3.219   4.630  0.2087 -0.1913  0.1657
 6460SOL    HW120096   6.104   3.141   4.681 -1.5097  0.0028 -0.2306
 6460SOL    HW220097   6.180   3.271   4.689  0.4332 -1.1608  0.8396
 6461SOL     OW20098   5.803   4.470   6.179  0.3182  0.3324  0.2338
 6461SOL    HW120099   5.778   4.393   6.230 -0.4722 -0.5663 -1.4422
 6461SOL    HW220100   5.721   4.498   6.138  1.0165  0.7017 -0.9405
 6462SOL     OW20101   6.599   5.865   3.206  0.0927  0.4144  0.2907
 6462SOL    HW120102   6.684   5.863   3.251  0.3925  0.3995 -0.2718
 6462SOL    HW220103   6.542   5.810   3.260  0.5742  0.0348  0.4181
 6463SOL     OW20104   0.453   6.497   5.508 -0.1769 -0.0408  0.1985
 6463SOL    HW120105   0.545   6.473   5.525 -0.1543 -0.6184 -0.7049
 6463SOL    HW220106   0.425   6.542   5.588  1.0852  0.6949  0.2458
 6464SOL     OW20107   1.772   4.846   6.121 -0.3493  0.4035  0.1810
 6464SOL    HW120108   1.704   4.913   6.134 -0.3600  0.6307 -1.0142
 6464SOL    HW220109   1.724   4.763   6.122 -0.9561  0.6547 -2.5204
 6465SOL     OW20110   4.903   5.391   6.226 -0.1759 -0.1054  0.1971
 6465SOL    HW120111   4.872   5.481   6.227 -0.7749 -0.3096  0.3039
 6465SOL    HW220112   4.963   5.385   6.300  0.2027  0.3185 -0.0723
 6466SOL     OW20113   1.599   1.241   4.805  0.6499 -0.3308 -0.1470
 6466SOL    HW120114   1.598   1.163   4.860  0.1107  0.2305  0.6528
 6466SOL    HW220115   1.592   1.208   4.716 -0.3858 -1.1588  0.2341
 6467SOL     OW20116   4.316   6.036   4.118 -0.1969 -0.5801  0.1828
 6467SOL    HW120117   4.402   6.015   4.153  0.3218  0.5691 -0.4040
 6467SOL    HW220118   4.258   5.969   4.156  0.8267 -0.9723  1.0792
 6468SOL     OW20119   5.564   6.396   6.099  0.1016  0.1222  0.1084
 6468SOL    HW120120   5.599   6.485   6.100 -0.3077  0.3024 -0.8184
 6468SOL    HW220121   5.594   6.360   6.016 -0.5821 -0.2602  0.0288
 6469SOL     OW20122   5.517   2.352   5.833  0.2058  0.5770  0.0469
 6469SOL    HW120123   5.606   2.330   5.859  0.1998 -2.0039 -1.9630
 6469SOL    HW220124   5.462   2.292   5.883 -0.2059  0.2349 -0.8029
 6470SOL     OW20125   1.881   1.180   4.981 -0.2670  0.3118 -0.5571
 6470SOL    HW120126   1.889   1.092   4.944 -0.1671  0.7037 -1.4685
 6470SOL    HW220127   1.793   1.182   5.018 -1.0305  0.5265 -2.3724
 6471SOL     OW20128   2.475   6.471   3.890  0.1178  0.9133 -0.1677
 6471SOL    HW120129   2.428   6.450   3.809  1.7947 -1.7108 -0.5165
 6471SOL    HW220130   2.426   6.426   3.959  0.4608  0.5585 -0.1533
 6472SOL     OW20131   1.779   3.336   0.472 -0.3272  0.0794 -0.1804
 6472SOL    HW120132   1.767   3.396   0.399 -1.9199  1.4022  1.1003
 6472SOL    HW220133   1.808   3.392   0.544 -0.1686 -0.9611  0.5800
 6473SOL     OW20134   4.016   0.993   6.174  0.0784 -0.1396  0.1746
 6473SOL    HW120135   4.104   0.957   6.178  1.4637  3.1214  0.7219
 6473SOL    HW220136   4.018   1.053   6.099 -1.5211  0.2929  0.4602
 6474SOL     OW20137   0.644   1.142   5.076 -0.0119 -0.5929  0.3052
 6474SOL    HW120138   0.612   1.231   5.063  0.0715 -0.6768 -0.5384
 6474SOL    HW220139   0.579   1.101   5.133  0.0294  0.0544  0.8120
 6475SOL     OW20140   1.165   1.164   1.158  0.3823 -0.2695  0.4010
 6475SOL    HW120141   1.218   1.086   1.139  1.5204  0.2021  1.5487
 6475SOL    HW220142   1.076   1.130   1.169  0.1153 -0.8782 -3.0421
 6476SOL     OW20143   0.988   3.777   0.875  0.1090  0.0831 -0.2107
 6476SOL    HW120144   1.027   3.849   0.824 -1.0410  1.3386  0.6494
 6476SOL    HW220145   0.908   3.755   0.827 -0.5440  0.7070  0.5727
 6477SOL     OW20146   1.473   4.449   4.627 -0.3205  0.4628 -0.3883
 6477SOL    HW120147   1.452   4.400   4.707 -0.2051  0.2263 -0.5046
 6477SOL    HW220148   1.388   4.475   4.592 -0.3563  0.9932  0.0788
 6478SOL     OW20149   0.509   6.535   5.242  0.6339  0.4351 -0.1164
 6478SOL    HW120150   0.496   6.511   5.333 -0.7338  0.8090 -0.2055
 6478SOL    HW220151   0.459   6.616   5.231 -0.0609 -0.1662 -1.4530
 6479SOL     OW20152   5.905   1.760   4.325  0.3638 -0.4475 -0.4894
 6479SOL    HW120153   5.986   1.749   4.275  0.8627  2.5272 -0.4065
 6479SOL    HW220154   5.935   1.788   4.412 -0.7128 -0.9049  0.0398
 6480SOL     OW20155   0.830   2.820   5.411 -0.2933  0.3398 -0.8654
 6480SOL    HW120156   0.889   2.806   5.337  2.1313  1.5682  0.7638
 6480SOL    HW220157   0.851   2.751   5.473  0.0916  1.2981  0.0995
 6481SOL     OW20158   3.455   5.372   6.082 -0.4920  0.3736 -0.3256
 6481SOL    HW120159   3.529   5.409   6.130 -0.9900  1.4644 -0.3812
 6481SOL    HW220160   3.471   5.277   6.081 -0.4956  0.3283  2.0283
 6482SOL     OW20161   1.406   2.408   5.021 -0.0194  0.1758 -0.1801
 6482SOL    HW120162   1.434   2.498   5.002 -0.1491  0.2511 -0.0116
 6482SOL    HW220163   1.366   2.378   4.939  3.0605 -0.9145 -1.3745
 6483SOL     OW20164   1.032   4.683   1.744  0.1145  0.0027  0.4112
 6483SOL    HW120165   0.972   4.649   1.678  1.2499 -1.4915  0.1058
 6483SOL    HW220166   1.047   4.774   1.719  0.2392 -0.4386 -1.1867
 6484SOL     OW20167   5.132   6.489   0.645 -0.0452  0.6087  0.0826
 6484SOL    HW120168   5.116   6.401   0.610  1.3138 -0.3570  1.7884
 6484SOL    HW220169   5.122   6.547   0.570 -0.5721 -1.0447 -1.1574
 6485SOL     OW20170   2.556   6.187   5.909  0.2453 -0.4483 -0.1920
 6485SOL    HW120171   2.539   6.242   5.985  0.4880  0.3329 -0.6906
 6485SOL    HW220172   2.609   6.242   5.851 -1.4698 -0.3780 -1.7263
 6486SOL     OW20173   3.848   6.304   1.148 -0.0740 -0.0306  0.2745
 6486SOL    HW120174   3.765   6.256   1.152  0.1094 -0.3410  0.3646
 6486SOL    HW220175   3.890   6.272   1.069  0.3118 -0.4501  0.6471
 6487SOL     OW20176   3.793   2.782   3.261  0.3702 -0.3377 -0.2598
 6487SOL    HW120177   3.754   2.758   3.345 -0.7987  1.1788 -0.3537
 6487SOL    HW220178   3.869   2.835   3.284 -0.2947  0.5771 -0.1741
 6488SOL     OW20179   5.948   6.657   4.210 -0.1704  0.1999 -0.1419
 6488SOL    HW120180   5.961   6.738   4.161 -2.4434  1.2266  0.8866
 6488SOL    HW220181   5.912   6.596   4.145  2.5134 -0.3668 -1.1685
 6489SOL     OW20182   1.399   1.591   6.047 -0.0515  0.1208 -0.3546
 6489SOL    HW120183   1.394   1.677   6.088  1.6834  0.0615  0.0228
 6489SOL    HW220184   1.418   1.531   6.119 -0.3936 -0.4640 -0.7482
 6490SOL     OW20185   5.871   1.699   6.382  0.7571 -0.1339 -1.1827
 6490SOL    HW120186   5.860   1.793   6.364 -1.0722 -0.3031 -0.9600
 6490SOL    HW220187   5.783   1.666   6.397  1.3850 -1.9040 -1.2336
 6491SOL     OW20188   1.993   4.164   2.303  0.0487 -0.2322 -0.1966
 6491SOL    HW120189   2.045   4.244   2.296 -1.8455  0.9131 -1.5198
 6491SOL    HW220190   2.053   4.100   2.342  1.5255  1.8736  1.0899
 6492SOL     OW20191   5.362   2.566   5.824  0.4255 -0.3090 -0.0307
 6492SOL    HW120192   5.419   2.490   5.821  1.7349  0.7037 -1.5069
 6492SOL    HW220193   5.296   2.550   5.757  1.7876  0.6807 -1.6298
 6493SOL     OW20194   2.780   2.572   2.790  0.1560 -0.5548  0.2360
 6493SOL    HW120195   2.720   2.563   2.865 -0.3825  1.6255  0.1053
 6493SOL    HW220196   2.728   2.618   2.724  1.8753  1.1261  0.0245
 6494SOL     OW20197   0.431   0.103   2.454 -0.4355  0.3550 -0.1422
 6494SOL    HW120198   0.509   0.065   2.495 -0.6779 -0.6112 -0.5530
 6494SOL    HW220199   0.445   0.197   2.458  2.0783  0.1446 -2.6957
 6495SOL     OW20200   0.439   2.904   1.810  0.0452  0.1965 -0.1027
 6495SOL    HW120201   0.410   2.904   1.901  0.5612  1.9872  0.0836
 6495SOL    HW220202   0.379   2.965   1.766 -0.7612 -1.3180 -1.1564
 6496SOL     OW20203   5.201   0.613   2.521  0.1163  0.1607 -0.0793
 6496SOL    HW120204   5.246   0.533   2.550 -2.0070 -1.5004 -1.2307
 6496SOL    HW220205   5.146   0.638   2.596  0.3547  0.2399  0.0718
 6497SOL     OW20206   3.552   5.058   0.608  0.5789 -0.3147  0.9428
 6497SOL    HW120207   3.626   5.045   0.667  0.4415  0.3036  1.2555
 6497SOL    HW220208   3.486   4.996   0.638  1.5766 -2.1044 -0.4026
 6498SOL     OW20209   5.786   4.820   2.872 -0.2361 -0.0134  0.5246
 6498SOL    HW120210   5.766   4.913   2.858 -1.6214 -0.1037  1.7770
 6498SOL    HW220211   5.701   4.777   2.871  0.4271 -1.3210 -0.3198
 6499SOL     OW20212   5.078   3.798   3.199  0.2264  0.0901  0.4449
 6499SOL    HW120213   4.991   3.834   3.216  0.1203  0.1043 -0.1195
 6499SOL    HW220214   5.061   3.710   3.167  0.1974  1.4986 -3.6830
 6500SOL     OW20215   0.251   6.059   4.144 -0.0560  0.3602 -0.6871
 6500SOL    HW120216   0.289   6.018   4.222 -2.8990 -1.9196 -0.4348
 6500SOL    HW220217   0.189   6.123   4.179 -0.7612 -0.1054 -1.0922
 6501SOL     OW20218   4.752   0.111   3.887  0.2259 -0.0845 -0.7338
 6501SOL    HW120219   4.821   0.052   3.857 -0.3596 -0.6225 -1.0102
 6501SOL    HW220220   4.768   0.121   3.981  1.2309  0.5214 -0.9560
 6502SOL     OW20221   3.569   6.751   1.074 -0.0492 -0.5567  0.0433
 6502SOL    HW120222   3.645   6.694   1.083 -0.5083 -0.7887  2.9857
 6502SOL    HW220223   3.573   6.809   1.150 -0.9989  1.6467 -1.5329
 6503SOL     OW20224   6.250   2.473   2.690 -0.1090  0.7779 -0.1340
 6503SOL    HW120225   6.155   2.485   2.692 -0.1845  0.2285 -0.3109
 6503SOL    HW220226   6.282   2.523   2.765 -0.6538 -0.0146  0.6439
 6504SOL     OW20227   6.579   4.074   5.362 -0.1588 -0.3647 -0.6927
 6504SOL    HW120228   6.507   4.134   5.382 -2.1191 -2.4295 -1.2651
 6504SOL    HW220229   6.569   4.002   5.425  3.5876  0.9710  1.5674
 6505SOL     OW20230   1.382   5.278   3.970  0.1437  0.1201  0.2033
 6505SOL    HW120231   1.302   5.250   4.014  0.1029  1.3135  0.9208
 6505SOL    HW220232   1.357   5.291   3.878 -0.4189  0.2127  0.3715
 6506SOL     OW20233   3.282   6.426   2.412  1.0332  0.2229 -0.1186
 6506SOL    HW120234   3.194   6.403   2.383  0.8556 -0.6381  1.1141
 6506SOL    HW220235   3.337   6.353   2.383  1.1992  0.3497 -0.1250
 6507SOL     OW20236   4.532   4.869   6.472  0.1194  0.4675  0.6895
 6507SOL    HW120237   4.485   4.796   6.512 -0.8143  1.3643  1.2427
 6507SOL    HW220238   4.475   4.900   6.402  0.4863  0.7037  0.4920
 6508SOL     OW20239   2.168   6.604   0.151  0.0843 -0.2724  0.1136
 6508SOL    HW120240   2.162   6.683   0.204 -1.0922  0.4838 -1.1003
 6508SOL    HW220241   2.080   6.567   0.152  0.1526 -0.4994 -0.9071
 6509SOL     OW20242   3.735   0.831   0.722  0.2608  0.0065  0.5755
 6509SOL    HW120243   3.819   0.788   0.740 -0.1386  0.0590  2.6439
 6509SOL    HW220244   3.755   0.924   0.727  0.2204  0.0242  0.3942
 6510SOL     OW20245   0.490   3.316   0.402  0.3578  0.4722  0.2170
 6510SOL    HW120246   0.443   3.399   0.398 -1.6398 -0.6823 -0.5511
 6510SOL    HW220247   0.468   3.271   0.321 -0.0498 -1.5855  1.4120
 6511SOL     OW20248   4.441   3.859   2.968  0.1484  0.3248 -0.1023
 6511SOL    HW120249   4.493   3.938   2.952  1.1581 -0.3257 -0.1133
 6511SOL    HW220250   4.503   3.798   3.008 -0.8358 -0.1693  0.6719
 6512SOL     OW20251   3.611   4.250   4.635 -0.1342  0.7837  0.1889
 6512SOL    HW120252   3.542   4.225   4.574 -0.3901 -0.8529  1.1446
 6512SOL    HW220253   3.593   4.343   4.654 -2.7205  0.1052  1.2671
 6513SOL     OW20254   6.547   4.551   0.931  0.2862 -0.0084 -0.2072
 6513SOL    HW120255   6.611   4.482   0.950  0.4971  0.2632  0.0607
 6513SOL    HW220256   6.462   4.511   0.951  0.5135  0.3325  1.4951
 6514SOL     OW20257   0.574   2.956   3.037 -0.1957 -0.6999 -0.3178
 6514SOL    HW120258   0.524   2.896   3.092  0.4107 -0.5331  0.4149
 6514SOL    HW220259   0.605   3.024   3.098 -0.2343 -0.0587 -1.0048
 6515SOL     OW20260   3.555   5.552   2.589 -0.3905 -0.0269 -0.0273
 6515SOL    HW120261   3.647   5.577   2.581  0.2967 -2.7751 -1.3074
 6515SOL    HW220262   3.506   5.630   2.561  1.5721  0.6870 -1.5923
 6516SOL     OW20263   0.862   0.555   2.616 -0.4448 -0.0385  0.4247
 6516SOL    HW120264   0.934   0.492   2.611  0.6613  1.3229 -1.5490
 6516SOL    HW220265   0.855   0.591   2.528 -3.2471  0.2298  0.6969
 6517SOL     OW20266   5.237   5.598   4.192  0.5185  0.3058  0.0284
 6517SOL    HW120267   5.243   5.679   4.242 -0.4192 -0.6640  1.7634
 6517SOL    HW220268   5.147   5.597   4.158  1.0232  0.7606 -1.3652
 6518SOL     OW20269   5.817   4.658   4.607 -0.1482  0.7486 -0.1474
 6518SOL    HW120270   5.851   4.571   4.586 -0.9749  0.6509 -1.1192
 6518SOL    HW220271   5.825   4.707   4.525  0.8981  1.7860  0.5621
 6519SOL     OW20272   4.415   6.029   0.483 -0.1111  0.3325  0.1694
 6519SOL    HW120273   4.473   6.049   0.556  0.0073  0.1446  0.1277
 6519SOL    HW220274   4.387   6.114   0.451 -0.3579  0.4106  0.5880
 6520SOL     OW20275   4.839   2.390   2.711  0.2722  0.2199  0.1455
 6520SOL    HW120276   4.823   2.321   2.776 -0.5120  0.8899  0.6752
 6520SOL    HW220277   4.793   2.466   2.746 -2.4441 -0.1231 -2.5324
 6521SOL     OW20278   4.022   1.492   2.904  0.0338  0.3819 -0.4471
 6521SOL    HW120279   4.115   1.471   2.915  0.4108  1.7628 -0.7707
 6521SOL    HW220280   4.010   1.571   2.956 -1.7705 -1.6323  2.2634
 6522SOL     OW20281   5.365   6.577   4.446  0.5698  0.3283  0.1406
 6522SOL    HW120282   5.379   6.493   4.401  1.6818 -0.0603  1.1843
 6522SOL    HW220283   5.388   6.560   4.537  1.1640  1.8576  0.2964
 6523SOL     OW20284   2.006   1.243   5.855 -0.4838 -0.2161 -0.1559
 6523SOL    HW120285   2.045   1.194   5.782  1.4322  1.5939 -0.3921
 6523SOL    HW220286   2.072   1.241   5.924 -2.0375 -1.3801  1.3534
 6524SOL     OW20287   0.626   4.507   4.100  0.0879  0.5443 -0.1227
 6524SOL    HW120288   0.687   4.455   4.151 -0.5281 -0.3279 -0.2750
 6524SOL    HW220289   0.541   4.492   4.142 -0.2463  0.6593 -0.7594
 6525SOL     OW20290   1.791   1.815   2.119  0.3581  0.1624  0.3841
 6525SOL    HW120291   1.757   1.754   2.184 -2.1771  0.4522 -0.6301
 6525SOL    HW220292   1.865   1.768   2.079 -1.5003 -2.2535 -0.3332
 6526SOL     OW20293   2.986   6.022   3.014  0.1698 -0.1088  0.0810
 6526SOL    HW120294   3.055   6.027   3.081 -0.1931  0.5416  0.4203
 6526SOL    HW220295   2.908   6.054   3.059 -0.3614 -0.8931 -0.2913
 6527SOL     OW20296   4.091   0.255   5.556 -0.1493 -0.1729  0.1982
 6527SOL    HW120297   4.074   0.162   5.546 -0.2189 -0.2904  1.2915
 6527SOL    HW220298   4.178   0.260   5.595 -0.2853  0.1974  0.4631
 6528SOL     OW20299   0.273   5.267   6.511 -0.6248 -0.1381 -0.2457
 6528SOL    HW120300   0.229   5.323   6.575 -1.6221 -0.6108 -0.4980
 6528SOL    HW220301   0.205   5.248   6.446 -0.1544 -1.1965 -0.4341
 6529SOL     OW20302   3.188   4.039   0.128  0.4715 -0.2968  0.3322
 6529SOL    HW120303   3.122   4.107   0.138  0.1235 -0.8934  2.2749
 6529SOL    HW220304   3.271   4.084   0.145  0.6522  0.5403 -2.4980
 6530SOL     OW20305   4.860   4.981   5.117 -0.2433  0.2679 -0.5385
 6530SOL    HW120306   4.843   5.027   5.035 -1.9386  1.4509  0.4340
 6530SOL    HW220307   4.915   5.042   5.167 -0.4480  0.1964 -0.2243
 6531SOL     OW20308   2.524   4.598   0.076 -0.0581 -0.1474  0.2928
 6531SOL    HW120309   2.448   4.551   0.044  0.2922  0.4142 -1.4226
 6531SOL    HW220310   2.523   4.682   0.029  1.5820 -0.1201  0.2622
 6532SOL     OW20311   4.683   2.195   1.880 -0.1173 -0.4590  0.0602
 6532SOL    HW120312   4.753   2.259   1.891 -0.0494 -0.2444 -1.5008
 6532SOL    HW220313   4.701   2.154   1.796 -0.5695 -2.0292  0.7106
 6533SOL     OW20314   6.508   5.657   2.212  0.4907 -0.3864 -0.2828
 6533SOL    HW120315   6.498   5.574   2.165  1.0534 -0.7712  0.2592
 6533SOL    HW220316   6.420   5.695   2.212  0.5457 -0.2352 -1.8869
 6534SOL     OW20317   2.072   4.493   6.682 -0.0976 -0.1438  0.2442
 6534SOL    HW120318   1.979   4.511   6.699  0.2158  1.5309  0.2409
 6534SOL    HW220319   2.071   4.416   6.625 -1.4913 -0.1051  0.1921
 6535SOL     OW20320   3.707   2.367   3.138  0.2841  0.0172 -0.0289
 6535SOL    HW120321   3.648   2.393   3.208 -0.4194  0.8123 -0.8980
 6535SOL    HW220322   3.735   2.449   3.099 -1.3022 -0.4586 -2.2810
 6536SOL     OW20323   5.448   2.834   0.572 -0.1269  0.3321 -0.3910
 6536SOL    HW120324   5.510   2.828   0.499 -0.6775  1.7455 -0.9960
 6536SOL    HW220325   5.363   2.816   0.533 -0.1975 -0.9365  0.3117
 6537SOL     OW20326   3.665   5.416   2.258  0.2159 -0.2193 -0.3507
 6537SOL    HW120327   3.662   5.410   2.162  1.7003  2.4673 -0.6199
 6537SOL    HW220328   3.641   5.329   2.288  1.7747 -1.7296 -3.2133
 6538SOL     OW20329   2.701   2.874   6.271  0.2332  0.2501 -0.1501
 6538SOL    HW120330   2.730   2.803   6.328  1.6126 -0.4144 -1.6548
 6538SOL    HW220331   2.669   2.941   6.331 -0.4890 -1.3743  1.3107
 6539SOL     OW20332   2.146   1.480   2.168  0.1191  0.2887  0.5712
 6539SOL    HW120333   2.113   1.391   2.162  0.6592  0.0407  1.2757
 6539SOL    HW220334   2.161   1.494   2.262  1.5198  0.5811  0.3041
 6540SOL     OW20335   5.583   4.057   2.365  0.4934  0.1102 -0.0506
 6540SOL    HW120336   5.559   4.023   2.279  1.4357 -2.3266  0.5979
 6540SOL    HW220337   5.512   4.118   2.388 -2.5863 -3.2740 -0.2102
 6541SOL     OW20338   5.391   4.207   6.586  0.3153  0.0854 -0.0433
 6541SOL    HW120339   5.308   4.162   6.571  0.4534 -0.9283  2.1604
 6541SOL    HW220340   5.458   4.141   6.568  0.5771  0.1351  0.7273
 6542SOL     OW20341   4.614   6.441   1.568  0.1127  0.3203 -0.0948
 6542SOL    HW120342   4.647   6.372   1.510  0.4113  0.3802  0.0016
 6542SOL    HW220343   4.576   6.393   1.642 -1.1782  0.2121 -0.8083
 6543SOL     OW20344   6.342   5.150   6.762  0.1078  0.4944  0.1330
 6543SOL    HW120345   6.255   5.183   6.788 -0.6747 -1.5348  0.1767
 6543SOL    HW220346   6.332   5.055   6.761  2.0443  0.2803 -0.9498
 6544SOL     OW20347   2.716   5.861   5.021  0.8808 -0.1024 -0.0321
 6544SOL    HW120348   2.778   5.792   5.045 -0.3834 -0.7186  1.5884
 6544SOL    HW220349   2.686   5.837   4.934  1.6136 -0.7528 -0.1166
 6545SOL     OW20350   4.850   0.663   5.570 -0.5580  0.0666 -0.0467
 6545SOL    HW120351   4.933   0.708   5.554  0.1070 -1.5650 -1.3118
 6545SOL    HW220352   4.802   0.722   5.629  1.6014  0.8959  0.9494
 6546SOL     OW20353   0.597   0.773   4.307  0.1522 -0.1138  0.3055
 6546SOL    HW120354   0.505   0.795   4.316 -0.1167 -0.9209 -0.3316
 6546SOL    HW220355   0.605   0.743   4.216  1.0043 -0.2081  0.4088
 6547SOL     OW20356   2.296   4.635   0.372 -0.1392  0.0405  0.1703
 6547SOL    HW120357   2.324   4.548   0.403 -0.1666 -0.4915 -1.2412
 6547SOL    HW220358   2.377   4.679   0.349 -0.1811  0.0600  0.0594
 6548SOL     OW20359   0.186   1.894   2.669 -0.2608  0.1962 -0.2467
 6548SOL    HW120360   0.098   1.886   2.633 -1.2356  1.2557  1.7701
 6548SOL    HW220361   0.244   1.855   2.603 -2.0567  1.0006 -2.3445
 6549SOL     OW20362   3.167   5.923   4.853  0.1598 -0.1547 -0.5411
 6549SOL    HW120363   3.146   6.011   4.821 -0.0552 -0.5350 -1.4561
 6549SOL    HW220364   3.093   5.869   4.826 -0.8028 -0.1681  2.0374
 6550SOL     OW20365   1.434   5.586   5.341  0.0064  0.7155 -0.2579
 6550SOL    HW120366   1.487   5.666   5.347  0.8206  0.1944 -0.3103
 6550SOL    HW220367   1.486   5.520   5.387 -1.8266  0.7916  2.0118
 6551SOL     OW20368   6.543   2.940   1.886  0.1775  0.1061  0.3130
 6551SOL    HW120369   6.501   2.999   1.823  0.7944  1.9679  1.6021
 6551SOL    HW220370   6.558   2.860   1.836 -1.0174  0.8871 -1.3871
 6552SOL     OW20371   1.278   3.663   5.630 -0.0992  0.3895 -0.1609
 6552SOL    HW120372   1.206   3.602   5.646 -0.2166  0.8475  1.0507
 6552SOL    HW220373   1.236   3.739   5.588 -0.1866  0.2900 -0.2554
 6553SOL     OW20374   1.217   2.663   5.049  0.4051 -0.1552  0.1635
 6553SOL    HW120375   1.143   2.677   4.989  1.1893 -0.6578 -0.9365
 6553SOL    HW220376   1.294   2.659   4.992  1.3039  0.5031  1.3112
 6554SOL     OW20377   2.699   4.928   5.333 -0.1802  0.1257 -0.2461
 6554SOL    HW120378   2.650   4.990   5.387  0.1441  1.1120 -1.0798
 6554SOL    HW220379   2.790   4.958   5.339  0.1005 -0.7605  0.0101
 6555SOL     OW20380   3.256   6.114   5.195 -0.0815 -0.2308  0.2532
 6555SOL    HW120381   3.268   6.155   5.280  1.5165  0.3659 -0.2586
 6555SOL    HW220382   3.207   6.178   5.144 -1.5835 -0.8309  0.8792
 6556SOL     OW20383   6.116   5.075   5.227  0.4535  0.0531  0.1034
 6556SOL    HW120384   6.141   5.021   5.152  0.6377  0.2680  0.0103
 6556SOL    HW220385   6.103   5.013   5.298 -0.9221 -0.2912 -0.4176
 6557SOL     OW20386   5.025   5.024   6.182 -0.0839  0.5302 -0.1291
 6557SOL    HW120387   4.974   4.982   6.252 -0.8473  0.4355 -0.7415
 6557SOL    HW220388   5.041   4.954   6.119  2.7917 -0.0124  1.1547
 6558SOL     OW20389   3.570   4.720   0.678 -0.3933 -0.0652  0.2271
 6558SOL    HW120390   3.662   4.744   0.671 -0.7873  1.7994  0.9124
 6558SOL    HW220391   3.570   4.626   0.692  1.4356 -0.0086  0.7105
 6559SOL     OW20392   2.342   1.209   4.575  0.3207  0.1218  0.4644
 6559SOL    HW120393   2.319   1.296   4.607 -2.2701 -0.4090  0.1880
 6559SOL    HW220394   2.405   1.176   4.639  1.7448  2.3806  0.2739
 6560SOL     OW20395   0.294   5.313   2.639  0.4435 -0.4501 -0.2720
 6560SOL    HW120396   0.367   5.344   2.586 -1.2782  1.7748 -1.4187
 6560SOL    HW220397   0.222   5.372   2.617 -0.9689 -0.9306  2.7962
 6561SOL     OW20398   3.435   6.182   3.931  0.0593 -0.3668 -0.2640
 6561SOL    HW120399   3.476   6.236   3.999 -1.1125  1.8075 -1.2233
 6561SOL    HW220400   3.508   6.156   3.875  0.3873  2.1749 -1.0850
 6562SOL     OW20401   6.378   4.515   0.192  0.2966  0.3788  0.4460
 6562SOL    HW120402   6.388   4.538   0.284 -2.6215 -1.4485  1.2736
 6562SOL    HW220403   6.384   4.420   0.190  0.0480  0.3911 -1.2136
 6563SOL     OW20404   0.903   3.797   0.542 -0.5142  0.0062  0.5227
 6563SOL    HW120405   0.857   3.836   0.467 -1.0478 -1.2158  0.2191
 6563SOL    HW220406   0.834   3.772   0.603 -0.1953 -0.9950  0.4701
 6564SOL     OW20407   0.787   0.874   1.983  0.1637 -0.3672  0.0150
 6564SOL    HW120408   0.859   0.810   1.983  0.2868 -0.2364 -0.9953
 6564SOL    HW220409   0.718   0.833   2.035 -0.1647 -1.7959 -1.5180
 6565SOL     OW20410   0.813   4.769   4.746  0.1947  0.1853 -0.1807
 6565SOL    HW120411   0.768   4.831   4.688  1.5033  2.3751  1.0960
 6565SOL    HW220412   0.746   4.739   4.807  0.1486  2.4344  0.8958
 6566SOL     OW20413   5.524   2.475   2.987 -0.1168  0.0771 -0.7199
 6566SOL    HW120414   5.526   2.514   3.074 -1.0081  0.5111 -0.8914
 6566SOL    HW220415   5.431   2.462   2.968  0.1072 -0.8056 -1.2537
 6567SOL     OW20416   2.964   0.109   4.420 -0.6883  0.1823 -0.4007
 6567SOL    HW120417   3.038   0.170   4.433 -1.1057  0.5156  0.5087
 6567SOL    HW220418   2.939   0.084   4.509 -0.3734 -1.5107 -0.7829
 6568SOL     OW20419   2.475   5.785   0.916  0.3564 -0.0258  0.1762
 6568SOL    HW120420   2.484   5.880   0.916  0.9987 -0.0832 -0.4792
 6568SOL    HW220421   2.391   5.769   0.959 -0.5505  0.9139 -1.2135
 6569SOL     OW20422   0.274   5.318   0.375  0.0752  0.0640  0.0213
 6569SOL    HW120423   0.288   5.277   0.460  0.3232 -1.0661 -0.5514
 6569SOL    HW220424   0.335   5.273   0.316 -1.2581 -0.3312 -1.0958
 6570SOL     OW20425   5.147   6.417   5.813  0.4953 -0.0692  0.6691
 6570SOL    HW120426   5.212   6.485   5.831 -0.9506  1.2310  1.0226
 6570SOL    HW220427   5.197   6.348   5.768  2.0126  1.1078  0.5095
 6571SOL     OW20428   5.142   0.199   5.873 -0.4298  0.5890 -0.2926
 6571SOL    HW120429   5.064   0.149   5.848  0.1527 -1.0710  1.1209
 6571SOL    HW220430   5.215   0.153   5.830 -0.2902  2.8938 -2.7042
 6572SOL     OW20431   1.462   4.821   2.103 -0.5014  0.3399  0.0760
 6572SOL    HW120432   1.432   4.850   2.017 -0.8803 -0.4905 -0.0789
 6572SOL    HW220433   1.381   4.805   2.152 -0.3188 -0.9955 -0.0332
 6573SOL     OW20434   6.258   4.043   3.949 -0.1957 -0.6768  0.2689
 6573SOL    HW120435   6.353   4.049   3.950 -0.1462  0.1237 -3.0704
 6573SOL    HW220436   6.238   3.957   3.987  1.7747 -0.4889  1.7884
 6574SOL     OW20437   2.802   2.727   3.841 -0.2569 -0.0054 -0.6385
 6574SOL    HW120438   2.829   2.815   3.869 -0.9877 -0.3831  1.3373
 6574SOL    HW220439   2.884   2.683   3.819  0.6749 -0.4217  3.1950
 6575SOL     OW20440   3.371   0.073   0.915  0.0807 -0.2016 -0.2921
 6575SOL    HW120441   3.460   0.056   0.943  1.3294 -1.4836 -4.6782
 6575SOL    HW220442   3.367   0.168   0.903 -0.1288  0.2227  2.7708
 6576SOL     OW20443   3.251   4.543   5.528 -0.1137  0.6454 -0.6939
 6576SOL    HW120444   3.281   4.463   5.572 -1.0680  0.9131  0.4963
 6576SOL    HW220445   3.178   4.574   5.583  0.5279  2.5727 -0.8931
 6577SOL     OW20446   4.238   1.568   1.572  0.0331  0.0985  0.2972
 6577SOL    HW120447   4.260   1.604   1.486 -0.3335 -2.3596 -0.8838
 6577SOL    HW220448   4.274   1.630   1.635 -0.3178  2.3148 -1.6352
 6578SOL     OW20449   0.270   4.698   1.835  0.2763  0.2458 -1.0840
 6578SOL    HW120450   0.269   4.758   1.910  2.6118  0.8963 -1.5209
 6578SOL    HW220451   0.308   4.617   1.869 -0.6220 -0.1683 -1.0674
 6579SOL     OW20452   5.223   6.278   4.775  0.5574 -0.3152  0.2193
 6579SOL    HW120453   5.133   6.292   4.804  0.0682  0.9375 -1.8576
 6579SOL    HW220454   5.216   6.255   4.683  2.4400  1.2100 -0.3460
 6580SOL     OW20455   4.324   2.946   3.438  0.6784  0.1700  0.2311
 6580SOL    HW120456   4.397   2.891   3.410  1.1030  0.3347  0.9928
 6580SOL    HW220457   4.305   3.001   3.361 -0.4601 -1.7542 -0.9002
 6581SOL     OW20458   3.246   6.135   4.684  0.2601 -0.2143 -0.5439
 6581SOL    HW120459   3.184   6.208   4.688  1.9803  1.5334 -3.9092
 6581SOL    HW220460   3.328   6.170   4.717  0.1379 -1.8125  1.5538
 6582SOL     OW20461   6.084   0.719   4.136 -0.4910 -0.6083 -0.2618
 6582SOL    HW120462   6.056   0.808   4.116 -1.2303 -0.2523  2.1545
 6582SOL    HW220463   6.096   0.678   4.051  1.8385  2.3978 -1.5088
 6583SOL     OW20464   5.762   5.690   2.376  0.7773  0.2453 -0.1300
 6583SOL    HW120465   5.749   5.780   2.346 -1.5252  0.4239  1.3244
 6583SOL    HW220466   5.807   5.699   2.460 -0.8691  0.1228  0.7786
 6584SOL     OW20467   5.229   2.948   5.354 -0.5612  0.3328  0.5398
 6584SOL    HW120468   5.181   2.883   5.301 -0.3574  0.8780 -0.3324
 6584SOL    HW220469   5.165   3.017   5.370 -0.5306  0.3154  0.7343
 6585SOL     OW20470   2.046   4.317   6.483 -0.0890  1.0305  0.4143
 6585SOL    HW120471   2.128   4.278   6.455 -0.4557  0.9739 -0.5886
 6585SOL    HW220472   1.998   4.246   6.525 -0.0465  0.8156  0.0994
 6586SOL     OW20473   4.619   6.302   0.136  0.0870  0.2103  0.0062
 6586SOL    HW120474   4.565   6.255   0.073  0.6260 -0.9203  0.3594
 6586SOL    HW220475   4.633   6.388   0.097  1.2294 -0.7959 -1.9052
 6587SOL     OW20476   0.073   2.646   0.848 -0.0874 -0.2453  0.1511
 6587SOL    HW120477   0.009   2.716   0.860 -0.5355 -0.5854 -0.2433
 6587SOL    HW220478   0.086   2.641   0.753  0.2415 -0.4331  0.2033
 6588SOL     OW20479   4.863   4.909   3.624  0.1427  0.5690  0.2215
 6588SOL    HW120480   4.792   4.972   3.613 -2.0761 -1.0585  4.2827
 6588SOL    HW220481   4.834   4.833   3.573  0.3565  0.9304 -0.4499
 6589SOL     OW20482   4.585   3.541   0.786  0.8098 -0.3944 -0.0086
 6589SOL    HW120483   4.587   3.508   0.876 -1.3862 -1.2857 -0.2599
 6589SOL    HW220484   4.499   3.515   0.752  0.7889  1.7099 -1.7051
 6590SOL     OW20485   0.980   4.674   2.038  0.0493 -0.4137 -0.1396
 6590SOL    HW120486   1.026   4.671   1.954  0.9603  1.1666  0.2763
 6590SOL    HW220487   0.904   4.730   2.022  0.2516 -0.0702  0.1148
 6591SOL     OW20488   0.380   2.508   4.636 -0.0344  0.6265  0.0340
 6591SOL    HW120489   0.345   2.549   4.715  0.9886  0.9136  0.3374
 6591SOL    HW220490   0.395   2.417   4.661 -0.6992  0.4571 -0.1488
 6592SOL     OW20491   1.238   3.358   5.357 -0.4770  0.1924 -0.3718
 6592SOL    HW120492   1.259   3.327   5.445  0.1051  0.5569 -0.3741
 6592SOL    HW220493   1.165   3.418   5.369  2.8311  4.3173  0.5965
 6593SOL     OW20494   3.477   4.275   6.236  0.2024 -0.1218  0.2441
 6593SOL    HW120495   3.513   4.230   6.160 -1.4182  2.4161 -2.0898
 6593SOL    HW220496   3.400   4.225   6.261  1.3937 -1.6275  1.0091
 6594SOL     OW20497   3.464   5.215   5.707  0.5502 -0.1208 -0.2701
 6594SOL    HW120498   3.532   5.274   5.675  1.7027 -1.3417 -0.1029
 6594SOL    HW220499   3.415   5.190   5.629  0.9791 -0.1094 -0.5449
 6595SOL     OW20500   2.981   4.191   3.361 -0.2051  0.6473 -0.2821
 6595SOL    HW120501   2.967   4.231   3.447 -0.3382  0.5196 -0.2441
 6595SOL    HW220502   3.017   4.262   3.308 -0.7531  0.9109 -0.3054
 6596SOL     OW20503   2.229   2.985   4.701  0.3276 -0.1260 -0.0338
 6596SOL    HW120504   2.323   2.967   4.707  0.8482  2.2473 -0.3945
 6596SOL    HW220505   2.212   2.994   4.607 -0.1021  0.1416  0.0666
 6597SOL     OW20506   2.838   1.915   3.262  0.0561  0.0118  0.0717
 6597SOL    HW120507   2.765   1.970   3.233 -0.4657  0.8265  2.7163
 6597SOL    HW220508   2.907   1.931   3.199 -1.2190  1.1714 -1.0653
 6598SOL     OW20509   5.566   6.589   0.890 -0.6866 -0.6589  0.5013
 6598SOL    HW120510   5.550   6.495   0.900  0.0452 -0.8993 -0.5554
 6598SOL    HW220511   5.598   6.599   0.800 -1.6410  0.7217  0.2970
 6599SOL     OW20512   6.516   5.119   0.590  0.2711  0.1330  0.1274
 6599SOL    HW120513   6.435   5.148   0.632  0.8965  0.9074  0.8442
 6599SOL    HW220514   6.488   5.070   0.513 -0.8929 -0.4356  0.9000
 6600SOL     OW20515   2.334   3.009   2.347 -0.2742  0.4519  0.0135
 6600SOL    HW120516   2.425   2.994   2.372 -0.3043 -0.3115 -0.3104
 6600SOL    HW220517   2.310   2.931   2.296 -2.2147 -1.0216  3.0689
 6601SOL     OW20518   5.711   3.677   3.360 -0.2234  0.0316 -0.1600
 6601SOL    HW120519   5.727   3.711   3.448 -0.2860 -2.1130  0.7003
 6601SOL    HW220520   5.636   3.727   3.328 -0.2826  0.7393  1.0553
 6602SOL     OW20521   1.302   3.398   2.324 -0.2419  0.3569  0.2580
 6602SOL    HW120522   1.267   3.482   2.353  0.6544  0.7328  0.2611
 6602SOL    HW220523   1.342   3.360   2.403  3.4589  2.0144 -0.7226
 6603SOL     OW20524   4.262   2.808   1.566  0.4034  0.1641 -0.0602
 6603SOL    HW120525   4.215   2.727   1.587  0.4953  0.0877 -0.1529
 6603SOL    HW220526   4.286   2.844   1.651  0.8574 -0.1940 -0.0321
 6604SOL     OW20527   6.255   2.848   4.777  0.4425 -0.6284 -0.0205
 6604SOL    HW120528   6.199   2.890   4.843  0.0239 -0.8858 -0.2119
 6604SOL    HW220529   6.343   2.880   4.797  0.2154 -0.1524  0.2290
 6605SOL     OW20530   2.549   1.520   4.218 -0.0825  0.6745  0.4779
 6605SOL    HW120531   2.602   1.537   4.140 -1.6311 -1.2293 -1.0413
 6605SOL    HW220532   2.589   1.443   4.258 -0.2380  0.6957  0.6753
 6606SOL     OW20533   0.513   6.317   1.208 -0.6543  0.5103 -0.1223
 6606SOL    HW120534   0.479   6.234   1.175  0.4668 -0.1533  0.3608
 6606SOL    HW220535   0.437   6.362   1.244 -1.3268 -0.1580 -0.6962
 6607SOL     OW20536   3.385   5.175   0.000 -0.4404  0.4296 -0.3930
 6607SOL    HW120537   3.441   5.207  -0.071 -0.2238  0.1543 -0.3475
 6607SOL    HW220538   3.392   5.079  -0.004 -0.7592  0.3978 -0.2677
 6608SOL     OW20539   6.763   2.877   3.861  0.4174 -0.2079 -0.0068
 6608SOL    HW120540   6.778   2.968   3.838  0.0518  0.1714  1.2102
 6608SOL    HW220541   6.826   2.859   3.930 -1.1012 -0.1623  1.4222
 6609SOL     OW20542   4.242   6.505   2.021  0.3984 -0.4075 -0.2637
 6609SOL    HW120543   4.170   6.563   1.996  2.0163  2.0561  0.4955
 6609SOL    HW220544   4.319   6.563   2.023  2.5613 -3.0745 -1.7707
 6610SOL     OW20545   3.786   3.910   1.500  0.0865  0.5079 -0.2086
 6610SOL    HW120546   3.831   3.994   1.508  0.7274  0.0683  0.9193
 6610SOL    HW220547   3.771   3.882   1.590  0.7600 -1.0420 -0.5591
 6611SOL     OW20548   5.184   6.233   3.624  0.4266  0.2753 -0.0678
 6611SOL    HW120549   5.207   6.203   3.536 -0.1492  0.0036 -0.1348
 6611SOL    HW220550   5.218   6.165   3.682 -0.6968 -0.4239 -0.2068
 6612SOL     OW20551   5.197   3.993   3.350 -0.1858  0.2065 -0.2444
 6612SOL    HW120552   5.146   3.941   3.288 -0.8780  1.4888 -0.7822
 6612SOL    HW220553   5.137   4.008   3.423 -0.4706  1.4170 -0.7180
 6613SOL     OW20554   1.746   1.408   0.664  0.4936  0.3678 -0.1785
 6613SOL    HW120555   1.655   1.394   0.692  0.6385 -0.8896 -0.3185
 6613SOL    HW220556   1.747   1.498   0.631 -0.7089  0.3780 -0.2195
 6614SOL     OW20557   6.170   3.769   3.743  0.0057  0.1853  0.1306
 6614SOL    HW120558   6.179   3.860   3.715  0.8351  0.3744  0.9810
 6614SOL    HW220559   6.202   3.769   3.833 -0.0822 -0.9287  0.1627
 6615SOL     OW20560   3.454   6.499   1.474  0.4826  0.4065 -0.2625
 6615SOL    HW120561   3.543   6.471   1.495  0.2160 -1.2338 -1.2242
 6615SOL    HW220562   3.457   6.518   1.380 -0.1256  0.5449 -0.2529
 6616SOL     OW20563   5.009   5.989   5.937 -0.8602  0.2788  0.2016
 6616SOL    HW120564   5.078   5.996   5.871 -0.6122  1.8547  0.6056
 6616SOL    HW220565   5.056   5.994   6.021 -1.3082 -0.3278  0.4935
 6617SOL     OW20566   6.691   6.715   5.520 -0.0891  0.0551  0.2360
 6617SOL    HW120567   6.720   6.802   5.548  0.8152  0.0284 -0.6011
 6617SOL    HW220568   6.598   6.713   5.543 -0.0013  1.0554  0.7214
 6618SOL     OW20569   4.284   0.648   1.620  0.7318  0.7882  0.1420
 6618SOL    HW120570   4.261   0.617   1.532 -0.3073  1.8335  0.0387
 6618SOL    HW220571   4.232   0.727   1.632  0.7293  0.5457  1.7850
 6619SOL     OW20572   2.758   6.201   6.480  0.3154 -0.0231 -0.0766
 6619SOL    HW120573   2.816   6.215   6.404  1.1373 -0.7219  0.4120
 6619SOL    HW220574   2.670   6.210   6.445  0.7135  1.0702 -0.8378
 6620SOL     OW20575   1.174   1.490   0.959 -0.0834  0.0868 -0.5574
 6620SOL    HW120576   1.163   1.585   0.964 -0.6798  0.0694 -1.4874
 6620SOL    HW220577   1.097   1.454   1.003 -0.8405  0.0271 -1.8927
 6621SOL     OW20578   5.566   1.447   1.115  0.6183  0.5102 -0.3346
 6621SOL    HW120579   5.584   1.354   1.101  0.6842  0.6874 -1.4795
 6621SOL    HW220580   5.642   1.480   1.162  0.8870  0.1276 -0.5009
 6622SOL     OW20581   5.448   6.054   1.943 -0.1079 -0.4867  0.0278
 6622SOL    HW120582   5.446   6.128   1.882  1.6394 -0.7778 -0.3903
 6622SOL    HW220583   5.470   5.979   1.889  0.2636 -0.9502  0.8238
 6623SOL     OW20584   6.496   4.260   1.005 -0.3618  0.3230  0.1148
 6623SOL    HW120585   6.445   4.212   1.071 -1.3518 -0.2997 -1.0735
 6623SOL    HW220586   6.580   4.278   1.048 -0.5698 -1.0623  1.1573
 6624SOL     OW20587   0.027   0.131   4.702  0.1429 -0.6707  0.0315
 6624SOL    HW120588   0.061   0.185   4.632 -3.3007  1.5850 -0.0203
 6624SOL    HW220589   0.029   0.042   4.667  2.3233 -0.1014 -1.3306
 6625SOL     OW20590   6.147   5.371   6.376  0.3430  0.2251  0.0709
 6625SOL    HW120591   6.167   5.309   6.305 -0.1499 -1.1698  1.1324
 6625SOL    HW220592   6.090   5.322   6.435  0.5840  1.4472  1.3382
 6626SOL     OW20593   0.826   0.646   5.911 -0.1038  0.0447 -0.4586
 6626SOL    HW120594   0.853   0.696   5.988 -1.9044  0.3692 -0.0210
 6626SOL    HW220595   0.795   0.562   5.946 -2.2946  0.7396 -0.6693
 6627SOL     OW20596   3.880   5.755   3.835 -0.8325  0.2049  0.4131
 6627SOL    HW120597   3.838   5.712   3.910  1.1129 -0.3987  1.1846
 6627SOL    HW220598   3.906   5.841   3.868 -0.9922  0.3780  0.0881
 6628SOL     OW20599   0.186   5.236   4.573 -1.4330 -0.0498 -0.0771
 6628SOL    HW120600   0.132   5.309   4.543 -1.7955 -1.1200 -2.1278
 6628SOL    HW220601   0.124   5.163   4.581 -1.0639 -0.1822  1.8868
 6629SOL     OW20602   3.475   0.735   2.682 -0.1028  0.6155  0.3681
 6629SOL    HW120603   3.461   0.702   2.771  1.3307  2.9354  1.5080
 6629SOL    HW220604   3.425   0.817   2.679 -0.6945  0.2161 -1.2055
 6630SOL     OW20605   2.977   0.266   3.465  0.9560  0.2027 -0.4353
 6630SOL    HW120606   3.072   0.257   3.473  0.9522  0.7873  0.3040
 6630SOL    HW220607   2.942   0.206   3.531  0.7960 -0.4940 -1.1460
 6631SOL     OW20608   2.222   3.005   3.286 -0.5800 -0.3387  0.6662
 6631SOL    HW120609   2.315   3.020   3.267 -0.3644 -1.1336  1.0527
 6631SOL    HW220610   2.223   2.943   3.359 -1.4100  0.3940  1.2976
 6632SOL     OW20611   6.373   5.668   1.566  0.2200  0.2675  0.0431
 6632SOL    HW120612   6.300   5.643   1.509  0.1920  4.3077 -1.8241
 6632SOL    HW220613   6.451   5.646   1.516  0.2447  0.4858 -0.0121
 6633SOL     OW20614   4.335   5.616   0.284  0.4508  0.3633 -0.1735
 6633SOL    HW120615   4.396   5.684   0.309  0.6764  0.1108 -0.0336
 6633SOL    HW220616   4.258   5.630   0.340 -0.4939  2.0024 -1.8364
 6634SOL     OW20617   4.057   0.725   4.702  0.1792  0.1408 -0.4469
 6634SOL    HW120618   4.021   0.785   4.767  0.2227 -0.1572 -0.1430
 6634SOL    HW220619   3.984   0.706   4.643  0.1571  0.4633 -0.5233
 6635SOL     OW20620   1.751   0.948   3.072 -0.0701  0.1216 -0.6175
 6635SOL    HW120621   1.736   1.003   3.149  0.3060  2.7827 -2.3758
 6635SOL    HW220622   1.841   0.916   3.082 -0.3591 -0.3496  0.5174
 6636SOL     OW20623   1.685   6.454   0.996 -0.5256 -0.2562  0.3394
 6636SOL    HW120624   1.730   6.491   0.921 -1.7408  0.9108  0.1765
 6636SOL    HW220625   1.643   6.375   0.963  0.2455 -0.6057  0.1782
 6637SOL     OW20626   4.273   4.428   3.451 -0.3405 -0.3436  0.3924
 6637SOL    HW120627   4.244   4.509   3.408 -1.8718 -0.0913  1.8752
 6637SOL    HW220628   4.198   4.370   3.446 -0.0251 -0.8517  1.4065
 6638SOL     OW20629   1.365   0.665   3.580  0.0692  0.2127 -0.4064
 6638SOL    HW120630   1.440   0.722   3.562 -0.0442  0.2872 -0.6412
 6638SOL    HW220631   1.293   0.703   3.531  0.1315 -0.4495 -1.0238
 6639SOL     OW20632   6.300   4.951   3.805 -0.3173 -0.0281  0.2513
 6639SOL    HW120633   6.300   4.918   3.715  2.1371 -1.1828  0.6155
 6639SOL    HW220634   6.263   4.879   3.856  0.3287 -0.2444  0.4218
 6640SOL     OW20635   6.483   2.543   1.216 -0.2611 -0.5745 -0.2959
 6640SOL    HW120636   6.389   2.553   1.201 -0.5559  1.7177  2.7426
 6640SOL    HW220637   6.517   2.632   1.221  1.6909 -1.3399  0.8573
 6641SOL     OW20638   5.734   2.604   6.668  1.0145  0.3167 -0.6351
 6641SOL    HW120639   5.702   2.635   6.753 -0.6506 -0.0571 -1.1102
 6641SOL    HW220640   5.768   2.516   6.686  2.6879  1.1040  0.0658
 6642SOL     OW20641   5.671   5.007   0.598  0.5620  0.1682 -0.1774
 6642SOL    HW120642   5.586   4.975   0.628  0.9016  0.0544  0.7052
 6642SOL    HW220643   5.710   4.934   0.551 -0.0707  0.4158 -1.0817
 6643SOL     OW20644   3.630   1.693   5.841  1.0150 -0.7412  0.5773
 6643SOL    HW120645   3.690   1.677   5.768  0.6965  2.9306 -0.6192
 6643SOL    HW220646   3.545   1.662   5.808  1.3192 -1.2669  0.2848
 6644SOL     OW20647   3.322   2.710   3.779  0.1957 -0.3352 -0.0134
 6644SOL    HW120648   3.392   2.769   3.753 -0.6269  0.2948 -0.8289
 6644SOL    HW220649   3.316   2.646   3.708 -1.8649  1.2183 -1.2982
 6645SOL     OW20650   2.413   4.371   0.408 -0.9321 -0.6967  0.3915
 6645SOL    HW120651   2.492   4.382   0.354 -1.2201 -3.2980 -0.6803
 6645SOL    HW220652   2.441   4.314   0.480 -1.4228 -0.2396  0.9466
 6646SOL     OW20653   1.583   2.174   6.517  0.3004  0.2254 -0.3529
 6646SOL    HW120654   1.569   2.221   6.599  2.4086  1.5203 -0.6840
 6646SOL    HW220655   1.629   2.094   6.544  0.2095  0.2320 -0.1763
 6647SOL     OW20656   2.853   3.184   5.780 -0.3465 -0.1208  0.1854
 6647SOL    HW120657   2.844   3.120   5.851  0.7436  0.6215  1.0134
 6647SOL    HW220658   2.945   3.179   5.755 -0.2429  1.1364  0.2851
 6648SOL     OW20659   6.109   5.139   0.139 -0.3512  0.2814 -0.2505
 6648SOL    HW120660   6.055   5.208   0.101 -1.5271 -1.1556 -1.2777
 6648SOL    HW220661   6.057   5.105   0.212  0.1435  0.3759  0.1472
 6649SOL     OW20662   6.383   1.271   0.674  0.1347 -0.4552  0.0982
 6649SOL    HW120663   6.381   1.234   0.762 -1.0286 -1.4184 -0.3152
 6649SOL    HW220664   6.345   1.202   0.619 -0.2598  0.6128 -0.9811
 6650SOL     OW20665   1.646   4.646   0.010  0.0520  0.3837 -0.3432
 6650SOL    HW120666   1.667   4.684  -0.076  0.7104 -0.9005 -0.7666
 6650SOL    HW220667   1.715   4.679   0.068  1.3453 -1.1275 -0.9850
 6651SOL     OW20668   3.574   1.267   5.417  0.1127  0.0950  0.9236
 6651SOL    HW120669   3.666   1.276   5.442  1.0295  1.3349 -2.6300
 6651SOL    HW220670   3.565   1.174   5.393  0.6281  0.1568  0.5008
 6652SOL     OW20671   1.111   6.040   3.566  0.4329 -0.0576  0.1065
 6652SOL    HW120672   1.197   6.020   3.529 -0.1891 -0.2929 -1.2427
 6652SOL    HW220673   1.107   6.135   3.569  1.5149 -0.0443  2.0537
 6653SOL     OW20674   1.455   0.190   4.969  0.7232 -0.0411  0.2330
 6653SOL    HW120675   1.398   0.125   5.011 -0.1889  0.6705  0.1018
 6653SOL    HW220676   1.417   0.202   4.882  0.0243  1.7231  0.7509
 6654SOL     OW20677   4.771   2.472   4.559  0.5307 -0.0698 -0.0990
 6654SOL    HW120678   4.711   2.458   4.486  0.9777 -1.2638 -0.2429
 6654SOL    HW220679   4.769   2.390   4.608  0.5345  0.5758  1.0220
 6655SOL     OW20680   3.005   0.835   6.221 -0.3501  0.4705 -0.6259
 6655SOL    HW120681   3.091   0.803   6.194  0.2644  1.1744  0.4357
 6655SOL    HW220682   2.970   0.764   6.275  1.1307  1.6246  1.9612
 6656SOL     OW20683   3.253   1.814   2.332  0.1770 -0.1906  0.3680
 6656SOL    HW120684   3.345   1.814   2.359 -0.5167  3.6282  3.1806
 6656SOL    HW220685   3.206   1.772   2.404 -0.6483  1.2385  0.6912
 6657SOL     OW20686   5.814   5.987   1.484 -0.2184 -0.0720  0.5269
 6657SOL    HW120687   5.782   5.974   1.395 -1.3668  1.1604  0.7373
 6657SOL    HW220688   5.837   5.899   1.515 -2.3679 -0.8593 -0.0398
 6658SOL     OW20689   4.523   2.808   2.398 -0.2036 -0.0322 -0.1164
 6658SOL    HW120690   4.612   2.828   2.369  0.4534  0.2172  1.9720
 6658SOL    HW220691   4.535   2.740   2.465 -1.7025 -0.9644 -0.7681
 6659SOL     OW20692   5.126   6.269   4.066 -0.6444  0.0253 -0.3170
 6659SOL    HW120693   5.112   6.298   3.976  0.1906  0.6968 -0.2410
 6659SOL    HW220694   5.050   6.301   4.114 -0.3791  0.9730 -0.5015
 6660SOL     OW20695   5.901   3.678   5.589  0.2081 -0.2615  0.2751
 6660SOL    HW120696   5.958   3.601   5.591  0.8784  0.2631  1.3863
 6660SOL    HW220697   5.824   3.651   5.640 -0.2367 -0.7219 -0.6285
 6661SOL     OW20698   6.740   5.117   5.069 -0.5323 -0.0345 -0.3329
 6661SOL    HW120699   6.796   5.044   5.096 -0.2313  0.2001 -0.3267
 6661SOL    HW220700   6.668   5.116   5.132 -1.2763 -1.2150 -1.1846
 6662SOL     OW20701   4.154   4.214   1.644  0.3223  0.0932  0.2614
 6662SOL    HW120702   4.146   4.299   1.602  0.4149  1.0475  2.1506
 6662SOL    HW220703   4.223   4.226   1.710 -1.2829 -0.7820  2.1445
 6663SOL     OW20704   1.430   6.280   3.019  0.3087 -0.2039  0.4332
 6663SOL    HW120705   1.397   6.355   2.970  2.3783 -0.3628 -1.2755
 6663SOL    HW220706   1.386   6.286   3.104 -0.2421  2.4059  0.0170
 6664SOL     OW20707   6.486   4.061   3.129 -0.2346  0.1992  0.1764
 6664SOL    HW120708   6.442   3.978   3.111  0.0014  0.4422 -1.6961
 6664SOL    HW220709   6.438   4.099   3.203 -2.4050 -0.1142 -1.0235
 6665SOL     OW20710   5.903   5.086   3.868 -0.0385  0.2162  0.0606
 6665SOL    HW120711   5.824   5.121   3.910 -0.7803 -1.0225 -0.2431
 6665SOL    HW220712   5.875   5.065   3.778  0.8276  0.4310 -0.2611
 6666SOL     OW20713   3.124   1.318   2.193 -0.0804  0.3313 -0.5250
 6666SOL    HW120714   3.074   1.343   2.115 -1.0166 -0.9540 -0.3467
 6666SOL    HW220715   3.121   1.223   2.194 -0.1005  0.3455  1.1208
 6667SOL     OW20716   2.479   0.982   2.706  0.2352 -0.3724 -0.3538
 6667SOL    HW120717   2.419   0.991   2.780  0.1491  0.2999 -0.5045
 6667SOL    HW220718   2.479   0.888   2.687  2.1074 -0.9178  2.0228
 6668SOL     OW20719   6.263   5.532   5.963  0.1718  0.5216  0.1793
 6668SOL    HW120720   6.313   5.491   5.892  0.8372  0.5907  0.6047
 6668SOL    HW220721   6.221   5.607   5.922  0.4177  0.4636 -0.1845
 6669SOL     OW20722   6.029   4.861   3.937 -0.1390 -0.2019 -0.0406
 6669SOL    HW120723   5.975   4.784   3.954 -2.5475  1.2274 -0.9543
 6669SOL    HW220724   5.967   4.934   3.937  1.5202  1.3020 -2.7849
 6670SOL     OW20725   3.019   6.368   2.339 -0.0225 -0.3600 -0.2577
 6670SOL    HW120726   2.970   6.286   2.331 -0.7190  0.2505 -2.4777
 6670SOL    HW220727   2.966   6.421   2.398 -0.2478 -0.9975  0.1221
 6671SOL     OW20728   5.374   0.460   3.441  0.0461  0.5925 -0.0870
 6671SOL    HW120729   5.323   0.496   3.512  0.7293  1.8064 -0.2009
 6671SOL    HW220730   5.321   0.474   3.363 -0.6736 -0.6812  0.1518
 6672SOL     OW20731   2.347   6.231   2.094  0.1751  0.1332 -0.1756
 6672SOL    HW120732   2.277   6.169   2.073  0.3412  0.1241 -0.7156
 6672SOL    HW220733   2.318   6.313   2.053 -0.6878  0.7672  1.6659
 6673SOL     OW20734   6.336   1.477   2.856 -0.0285 -0.1503  0.5216
 6673SOL    HW120735   6.425   1.495   2.826 -0.3665  2.4109  0.9958
 6673SOL    HW220736   6.285   1.471   2.775  0.2125  0.3350  0.3318
 6674SOL     OW20737   5.981   5.598   3.699  0.2424 -0.7808 -0.2553
 6674SOL    HW120738   5.990   5.644   3.616  0.2755 -0.9584 -0.3502
 6674SOL    HW220739   5.897   5.628   3.734  0.1080 -0.9036 -0.4744
 6675SOL     OW20740   2.643   6.740   2.352 -0.2800 -0.1897  0.0750
 6675SOL    HW120741   2.638   6.664   2.409  0.2200 -0.0377  0.3150
 6675SOL    HW220742   2.732   6.773   2.362 -0.2824  0.0186 -0.5566
 6676SOL     OW20743   3.657   4.126   4.882 -0.3942 -0.2088 -0.1458
 6676SOL    HW120744   3.626   4.214   4.905 -0.9062  0.0265 -1.6928
 6676SOL    HW220745   3.633   4.115   4.790 -1.4153 -2.4444  0.3436
 6677SOL     OW20746   0.853   1.941   0.064  0.5175 -0.1473 -0.1127
 6677SOL    HW120747   0.834   1.911   0.153  1.3679 -0.6643 -0.0968
 6677SOL    HW220748   0.876   2.033   0.074  0.6208 -0.2058  0.2033
 6678SOL     OW20749   2.547   0.537   5.003  0.2419 -0.3157 -0.4536
 6678SOL    HW120750   2.572   0.452   4.967  0.6869 -0.3514 -0.0691
 6678SOL    HW220751   2.596   0.544   5.085  0.0191  0.2037 -0.3596
 6679SOL     OW20752   6.610   2.163   0.658 -0.0369  0.1955  0.3140
 6679SOL    HW120753   6.684   2.153   0.718 -0.7339  0.7034  1.2698
 6679SOL    HW220754   6.611   2.084   0.605  1.8211  0.6486 -0.3908
 6680SOL     OW20755   0.401   2.159   6.146 -0.6254 -0.2502  0.7891
 6680SOL    HW120756   0.370   2.069   6.147 -0.9087 -0.1453  2.3351
 6680SOL    HW220757   0.338   2.207   6.200 -0.9675  1.0460 -0.7119
 6681SOL     OW20758   1.170   6.759   5.204  0.2735  0.4445  0.1055
 6681SOL    HW120759   1.156   6.853   5.213 -0.7580  0.4600 -1.4433
 6681SOL    HW220760   1.083   6.723   5.186  0.5447 -0.9018  1.3794
 6682SOL     OW20761   5.080   0.077   4.962 -0.6427  0.1092 -0.0124
 6682SOL    HW120762   5.022   0.135   4.913 -0.3342 -0.2441 -0.7890
 6682SOL    HW220763   5.108   0.130   5.037  0.8393  1.5161 -1.5091
 6683SOL     OW20764   3.055   2.358   3.218  0.2456 -0.7415 -0.4422
 6683SOL    HW120765   3.066   2.382   3.126  0.4860  0.0126 -0.2194
 6683SOL    HW220766   2.982   2.413   3.248  1.7559  0.8056  0.4643
 6684SOL     OW20767   0.866   3.803   1.449  0.6187 -0.4653  0.2608
 6684SOL    HW120768   0.905   3.723   1.483  0.0019 -0.4872  0.9500
 6684SOL    HW220769   0.786   3.775   1.405 -0.4647 -0.0807  1.9356
 6685SOL     OW20770   1.384   4.663   5.251 -0.4412 -0.5389 -0.2288
 6685SOL    HW120771   1.384   4.581   5.200  1.7584  0.1695 -1.4351
 6685SOL    HW220772   1.448   4.648   5.320  0.0696  0.2117 -0.5397
 6686SOL     OW20773   4.606   0.731   0.373  0.2888 -0.2041  0.0141
 6686SOL    HW120774   4.586   0.822   0.396 -0.3671 -0.3390 -0.0122
 6686SOL    HW220775   4.603   0.684   0.457  1.6944 -0.0101  0.1779
 6687SOL     OW20776   6.546   5.452   1.844  0.2327  0.0492 -0.3960
 6687SOL    HW120777   6.480   5.490   1.902 -0.6391 -1.3200 -0.4772
 6687SOL    HW220778   6.497   5.391   1.789  1.7735 -2.1499  0.5831
 6688SOL     OW20779   3.393   0.044   3.575 -0.2882 -0.4784 -0.1169
 6688SOL    HW120780   3.427   0.022   3.488 -0.7310  0.4585 -0.5323
 6688SOL    HW220781   3.470   0.041   3.632  0.1837 -0.0827 -0.7308
 6689SOL     OW20782   1.156   4.303   1.217 -0.0091  0.5076  0.4219
 6689SOL    HW120783   1.110   4.355   1.152  2.1112  1.1588 -0.6069
 6689SOL    HW220784   1.094   4.295   1.289 -2.0899  0.5132 -1.2909
 6690SOL     OW20785   0.560   4.687   0.026 -0.0645  0.0578  0.4086
 6690SOL    HW120786   0.599   4.649  -0.053  0.1163  1.1630 -0.0341
 6690SOL    HW220787   0.485   4.738  -0.005 -0.2496  0.1500  0.9942
 6691SOL     OW20788   3.429   6.485   3.140  0.5400  0.2775 -0.3686
 6691SOL    HW120789   3.376   6.409   3.118  0.1141  0.4814 -0.0708
 6691SOL    HW220790   3.391   6.557   3.089 -0.3771  0.7254  0.9112
 6692SOL     OW20791   2.012   4.345   6.166 -0.3417  0.8249  0.1060
 6692SOL    HW120792   2.059   4.339   6.249 -1.5098  1.0301  0.8010
 6692SOL    HW220793   2.000   4.438   6.151  0.2001  0.7982 -0.4815
 6693SOL     OW20794   1.004   6.183   6.713  0.2244 -0.1976 -0.2268
 6693SOL    HW120795   0.997   6.259   6.770  1.2666 -0.0979 -0.2093
 6693SOL    HW220796   1.090   6.193   6.671 -0.4527 -0.3556 -1.6859
 6694SOL     OW20797   5.104   4.157   4.962  0.2192 -0.1912  0.6266
 6694SOL    HW120798   5.018   4.139   4.924  0.3548 -0.6983  0.5471
 6694SOL    HW220799   5.162   4.169   4.886  0.7676 -2.5289  0.6220
 6695SOL     OW20800   3.822   0.510   4.312  0.1576 -0.3197  0.1773
 6695SOL    HW120801   3.734   0.511   4.274 -0.7631  1.1347  2.2758
 6695SOL    HW220802   3.874   0.565   4.253 -0.6607 -0.0930 -0.3350
 6696SOL     OW20803   2.545   6.532   6.335 -0.5642 -0.1134 -0.7825
 6696SOL    HW120804   2.457   6.530   6.299 -1.2199  0.6783  0.7381
 6696SOL    HW220805   2.539   6.589   6.412  1.3898  0.4371 -0.9917
 6697SOL     OW20806   2.896   5.933   5.939  0.4757 -0.8374 -0.3048
 6697SOL    HW120807   2.952   5.936   5.862  1.1918 -0.6619  0.2186
 6697SOL    HW220808   2.956   5.942   6.013 -0.4267  1.2690  0.2046
 6698SOL     OW20809   2.511   0.936   0.065  0.0624 -0.3637  0.2186
 6698SOL    HW120810   2.499   0.990   0.143  0.0780  2.1605 -1.4920
 6698SOL    HW220811   2.538   0.851   0.100  0.7196  0.8846  2.9252
 6699SOL     OW20812   3.345   1.973   5.378  1.2047 -0.4936  0.0815
 6699SOL    HW120813   3.287   1.944   5.448  0.6662  1.6687  0.5590
 6699SOL    HW220814   3.395   1.895   5.354  0.2960 -1.6188  1.7996
 6700SOL     OW20815   3.441   5.487   5.858 -0.5856  0.3250 -0.4515
 6700SOL    HW120816   3.418   5.409   5.807  0.7633 -0.0254 -0.5515
 6700SOL    HW220817   3.440   5.457   5.949  1.0578 -0.1254 -0.5638
 6701SOL     OW20818   3.401   0.902   1.816 -0.5571  0.3159 -0.2075
 6701SOL    HW120819   3.459   0.925   1.743 -0.1103  1.0983  0.3859
 6701SOL    HW220820   3.390   0.807   1.809  1.3786  0.0416  0.0998
 6702SOL     OW20821   0.352   1.177   4.081 -0.9084 -0.0751  0.0441
 6702SOL    HW120822   0.429   1.232   4.097 -1.5911  1.3264 -1.3471
 6702SOL    HW220823   0.377   1.121   4.008 -0.7912 -0.5149  0.4116
 6703SOL     OW20824   5.215   0.529   6.200 -0.1248 -0.3312 -0.4718
 6703SOL    HW120825   5.263   0.491   6.274  0.1630  1.4008  0.2621
 6703SOL    HW220826   5.261   0.611   6.181 -1.5166  0.3119 -1.1336
 6704SOL     OW20827   3.559   1.749   2.828  0.0516 -0.1184  0.3187
 6704SOL    HW120828   3.580   1.821   2.888 -1.4157 -0.4841  1.2888
 6704SOL    HW220829   3.596   1.671   2.870  0.9340 -0.0787 -0.3435
 6705SOL     OW20830   4.997   0.007   2.351  0.0671  0.2098  0.7627
 6705SOL    HW120831   4.903  -0.004   2.358  0.2228 -1.5670  0.1670
 6705SOL    HW220832   5.034  -0.079   2.373  1.4602  0.3727 -0.7725
 6706SOL     OW20833   4.040   1.249   2.540 -0.4592 -0.1177  0.1773
 6706SOL    HW120834   4.017   1.340   2.561 -1.2465 -0.1744 -0.4038
 6706SOL    HW220835   3.987   1.229   2.463 -2.1405 -1.8672  1.7490
 6707SOL     OW20836   1.355   3.576   6.655  0.6444 -0.8317  0.3172
 6707SOL    HW120837   1.282   3.567   6.715  2.0665 -0.9479  2.0850
 6707SOL    HW220838   1.328   3.530   6.576 -1.6828  0.2217  0.4509
 6708SOL     OW20839   5.162   3.553   3.391 -0.3543  0.8697  0.6251
 6708SOL    HW120840   5.251   3.544   3.359 -1.2146  1.9637 -2.2389
 6708SOL    HW220841   5.168   3.616   3.462  1.3282 -0.0808  1.3489
 6709SOL     OW20842   3.043   4.014   4.132 -0.1122 -0.1313  0.1770
 6709SOL    HW120843   2.999   3.929   4.128  1.2799 -0.9264  1.0900
 6709SOL    HW220844   3.072   4.021   4.223 -0.6016  1.5270  0.2073
 6710SOL     OW20845   1.346   2.177   2.311  0.7429  0.1543 -0.0810
 6710SOL    HW120846   1.300   2.242   2.364 -0.6266  1.7881 -3.1368
 6710SOL    HW220847   1.280   2.110   2.293  0.3269  1.0391 -2.0219
 6711SOL     OW20848   0.197   6.410   0.515 -0.3092  0.1780  0.4993
 6711SOL    HW120849   0.134   6.338   0.506  1.7374 -1.4525 -1.2216
 6711SOL    HW220850   0.258   6.380   0.582 -1.4931  1.8978  2.3944
 6712SOL     OW20851   6.012   6.252   4.190 -0.2013 -0.1436 -0.0087
 6712SOL    HW120852   5.921   6.248   4.162 -0.0793 -3.1224 -0.1458
 6712SOL    HW220853   6.008   6.283   4.281 -1.5228 -2.1041  0.6292
 6713SOL     OW20854   0.482   6.328   0.891  0.4053 -0.3120  0.1226
 6713SOL    HW120855   0.507   6.239   0.917 -1.0389 -0.5260  0.8112
 6713SOL    HW220856   0.401   6.346   0.939 -1.3098  0.0082 -2.7926
 6714SOL     OW20857   4.109   6.111   6.728 -0.2219  0.0717  0.3211
 6714SOL    HW120858   4.133   6.020   6.742 -1.5194  0.0360  2.5476
 6714SOL    HW220859   4.192   6.159   6.736  0.1608 -0.7076  1.0783
 6715SOL     OW20860   0.269   2.892   0.983 -0.0759 -0.1644 -0.2243
 6715SOL    HW120861   0.180   2.871   1.012 -0.5687  0.1993 -1.4414
 6715SOL    HW220862   0.263   2.897   0.888  2.1306 -4.0932 -0.6342
 6716SOL     OW20863   3.877   0.296   5.697  0.3863  0.1008 -0.1242
 6716SOL    HW120864   3.960   0.275   5.654 -0.7263  1.1131 -2.9034
 6716SOL    HW220865   3.819   0.224   5.674  0.3146 -0.3296  1.3583
 6717SOL     OW20866   0.872   5.349   0.882 -0.1933  0.2257 -0.1755
 6717SOL    HW120867   0.960   5.377   0.855  0.0234  0.9723  1.2431
 6717SOL    HW220868   0.867   5.257   0.855  0.0976  0.8381 -2.4510
 6718SOL     OW20869   4.897   0.345   2.465  0.3406 -0.3891  0.0745
 6718SOL    HW120870   4.983   0.314   2.434  0.2430 -1.3938  0.7802
 6718SOL    HW220871   4.839   0.330   2.391  1.0510  1.6801 -0.9464
 6719SOL     OW20872   3.476   1.522   2.580  0.1784 -0.2480  0.5419
 6719SOL    HW120873   3.426   1.470   2.643 -1.3802  1.2293  0.5728
 6719SOL    HW220874   3.440   1.496   2.495  0.8677 -0.7505  0.3998
 6720SOL     OW20875   0.831   3.778   3.733  0.0319  0.2384 -0.1665
 6720SOL    HW120876   0.746   3.777   3.688 -0.4260  2.5464  0.5971
 6720SOL    HW220877   0.809   3.793   3.825  1.2850  1.2422 -0.0238
 6721SOL     OW20878   4.050   4.164   6.756  0.0823 -0.3406  0.3766
 6721SOL    HW120879   3.973   4.171   6.700 -1.4130  0.9282  2.5300
 6721SOL    HW220880   4.124   4.170   6.695 -1.4921 -0.7831 -1.6392
 6722SOL     OW20881   6.191   5.897   3.305  0.0661  0.3218 -0.0217
 6722SOL    HW120882   6.236   5.974   3.338 -1.7647  1.2819  0.3130
 6722SOL    HW220883   6.138   5.929   3.232 -0.1562 -0.7543 -0.3394
 6723SOL     OW20884   5.230   0.669   5.092  0.2774  0.4105 -0.3598
 6723SOL    HW120885   5.284   0.594   5.117 -0.0673  0.6867  1.2907
 6723SOL    HW220886   5.290   0.727   5.046  0.7635 -0.4767 -0.8560
 6724SOL     OW20887   0.159   5.977   1.942 -0.2188 -0.5651 -0.3104
 6724SOL    HW120888   0.232   6.031   1.970 -1.8685 -0.3751  3.9410
 6724SOL    HW220889   0.199   5.895   1.913  1.7431  0.0613  0.5723
 6725SOL     OW20890   6.368   5.086   2.788  0.5350 -0.3054  0.1603
 6725SOL    HW120891   6.333   5.115   2.872 -0.6620 -1.2560 -0.0125
 6725SOL    HW220892   6.332   4.999   2.775 -0.0795  0.2078 -1.8006
 6726SOL     OW20893   5.238   6.610   3.963  0.1426  0.6010 -0.1031
 6726SOL    HW120894   5.268   6.552   4.033 -1.5960 -0.8324 -0.5311
 6726SOL    HW220895   5.248   6.559   3.883 -2.4819  0.4607 -0.3601
 6727SOL     OW20896   2.293   5.664   0.707  0.0931  0.3724 -0.0690
 6727SOL    HW120897   2.342   5.746   0.697  0.6354  0.0084 -0.4391
 6727SOL    HW220898   2.273   5.659   0.800  1.0988  0.3319  0.1484
 6728SOL     OW20899   3.839   6.345   4.528  0.2393  0.6686 -0.5043
 6728SOL    HW120900   3.892   6.361   4.606 -0.8702 -1.1411  0.6556
 6728SOL    HW220901   3.762   6.400   4.540  0.2257  0.6421 -0.4697
 6729SOL     OW20902   5.846   5.985   4.059 -1.2782 -0.3269  0.6349
 6729SOL    HW120903   5.936   5.953   4.059 -0.5345  1.6750  1.6334
 6729SOL    HW220904   5.799   5.926   4.118 -0.4989 -1.0383  0.5508
 6730SOL     OW20905   2.596   6.042   2.679  0.5158  0.1632 -0.5351
 6730SOL    HW120906   2.612   6.085   2.763  0.9584  0.3588 -0.7144
 6730SOL    HW220907   2.636   6.101   2.615  1.0786 -0.4808 -0.7876
 6731SOL     OW20908   3.085   5.525   1.886  0.3289 -0.5855  0.3911
 6731SOL    HW120909   3.087   5.482   1.800 -1.0384 -0.5007  0.3124
 6731SOL    HW220910   3.131   5.608   1.872 -1.4804  0.2703 -0.7489
 6732SOL     OW20911   4.820   3.021   5.501  0.2130  0.0182  0.4552
 6732SOL    HW120912   4.853   2.932   5.517 -1.8383 -0.6209  1.2033
 6732SOL    HW220913   4.789   3.051   5.586  0.1949  1.1644  0.0465
 6733SOL     OW20914   1.901   3.621   5.063 -0.2651 -0.4026  0.3659
 6733SOL    HW120915   1.946   3.654   5.141  1.6913 -1.7073 -0.1823
 6733SOL    HW220916   1.840   3.555   5.097 -0.7206  0.3281  0.9697
 6734SOL     OW20917   3.953   3.189   3.479  0.7271  0.8361  0.2349
 6734SOL    HW120918   4.020   3.181   3.548  0.4357 -2.7684  0.2066
 6734SOL    HW220919   3.997   3.159   3.399 -0.0729  1.2171 -0.3548
 6735SOL     OW20920   0.798   1.189   4.789 -0.5520  0.1590  0.4098
 6735SOL    HW120921   0.775   1.282   4.786 -2.0210 -0.0814  2.5307
 6735SOL    HW220922   0.726   1.145   4.746 -1.1184 -0.1507  1.6373
 6736SOL     OW20923   3.808   4.062   4.593 -0.3921 -0.8836  0.0982
 6736SOL    HW120924   3.740   4.127   4.608 -1.1673 -1.3425 -1.3136
 6736SOL    HW220925   3.863   4.099   4.524  0.6632 -0.6245  1.0596
 6737SOL     OW20926   0.478   1.602   1.382  0.3944 -0.0482 -0.1645
 6737SOL    HW120927   0.422   1.539   1.336 -0.3516  0.0266  0.6346
 6737SOL    HW220928   0.417   1.663   1.422  1.0965  0.7131 -0.2512
 6738SOL     OW20929   5.354   5.088   0.880 -0.4527  0.0074  0.1498
 6738SOL    HW120930   5.259   5.072   0.877 -0.4101 -0.6476  1.7270
 6738SOL    HW220931   5.363   5.181   0.861 -1.3417 -0.1234 -0.9635
 6739SOL     OW20932   1.285   6.119   4.320  0.4476  0.1040  0.3085
 6739SOL    HW120933   1.358   6.061   4.299  0.3709  0.2977 -0.5305
 6739SOL    HW220934   1.285   6.184   4.249 -2.2734 -1.5579 -1.3029
 6740SOL     OW20935   2.979   0.288   2.404  0.5688 -0.1510  0.4389
 6740SOL    HW120936   3.047   0.279   2.336  0.2834  2.2468 -0.2432
 6740SOL    HW220937   3.026   0.278   2.486  1.5128  0.0513 -0.0632
 6741SOL     OW20938   1.459   1.931   5.328 -0.0934  0.1933 -0.0097
 6741SOL    HW120939   1.369   1.939   5.359  0.1188  0.8557  0.4330
 6741SOL    HW220940   1.509   1.989   5.384  0.6719 -0.4600 -0.0193
 6742SOL     OW20941   0.711   0.127   6.249 -0.5361 -0.3825  0.1844
 6742SOL    HW120942   0.785   0.184   6.226 -2.0302  2.1793  1.4226
 6742SOL    HW220943   0.708   0.062   6.179 -0.6533  2.9633 -3.0921
 6743SOL     OW20944   1.780   6.280   0.587  0.1327  0.1543  0.3188
 6743SOL    HW120945   1.717   6.266   0.516 -0.7773  3.4910  0.3888
 6743SOL    HW220946   1.858   6.233   0.560  0.2950  2.5056 -3.6242
 6744SOL     OW20947   5.851   0.448   1.692  0.3780  0.7169  0.5521
 6744SOL    HW120948   5.917   0.512   1.668  0.3789  0.5629  0.1424
 6744SOL    HW220949   5.882   0.366   1.655 -1.0137  1.0118 -1.3511
 6745SOL     OW20950   6.406   5.902   6.014  0.2638 -0.2396  0.5255
 6745SOL    HW120951   6.461   5.827   5.989 -1.7502 -1.5430 -0.1407
 6745SOL    HW220952   6.410   5.902   6.110  1.8221 -0.0003  0.4748
 6746SOL     OW20953   3.263   1.060   5.459 -0.1489 -0.0608 -0.3476
 6746SOL    HW120954   3.272   1.148   5.494  1.2758 -0.4361  0.2774
 6746SOL    HW220955   3.258   1.071   5.364 -2.8841  0.8886 -0.1250
 6747SOL     OW20956   4.143   4.287   5.236 -0.3495  0.6145  0.0046
 6747SOL    HW120957   4.194   4.368   5.241 -0.6525  0.8601 -0.7711
 6747SOL    HW220958   4.182   4.238   5.164 -0.4418  0.2620  0.1915
 6748SOL     OW20959   6.112   5.949   5.062  0.3248 -0.6219  0.0973
 6748SOL    HW120960   6.147   5.982   4.980 -0.5576 -1.9941 -0.8452
 6748SOL    HW220961   6.127   5.854   5.059  1.0736 -0.5985  1.9104
 6749SOL     OW20962   4.439   3.379   1.863  0.5242 -0.3637 -0.1883
 6749SOL    HW120963   4.391   3.452   1.902  0.0219 -0.2726 -0.9617
 6749SOL    HW220964   4.506   3.357   1.927 -0.4364 -0.3800  0.8390
 6750SOL     OW20965   3.519   5.571   6.482 -0.3990 -0.3140 -0.0534
 6750SOL    HW120966   3.438   5.521   6.481 -0.1449 -0.7377 -2.1787
 6750SOL    HW220967   3.509   5.632   6.555 -2.5743 -0.4491 -0.2176
 6751SOL     OW20968   4.326   4.694   3.824 -0.1057 -0.1253 -0.2372
 6751SOL    HW120969   4.362   4.608   3.843 -0.0121  0.0125  0.2216
 6751SOL    HW220970   4.273   4.715   3.901 -0.9586 -0.2154 -0.7968
 6752SOL     OW20971   2.960   6.150   1.512  0.0137  0.2849 -0.2486
 6752SOL    HW120972   2.882   6.203   1.530 -0.6673 -0.4541 -0.9787
 6752SOL    HW220973   2.927   6.061   1.502  1.2537 -0.4353  1.7659
 6753SOL     OW20974   4.237   1.761   2.756  0.1763  0.6970  0.4680
 6753SOL    HW120975   4.277   1.676   2.775 -0.3198  0.1608 -0.8044
 6753SOL    HW220976   4.162   1.767   2.815 -0.7423 -0.4771 -0.5479
 6754SOL     OW20977   6.588   6.647   6.072  0.1737  0.5028 -0.2891
 6754SOL    HW120978   6.570   6.586   6.001 -0.8703 -0.3548  0.6980
 6754SOL    HW220979   6.683   6.639   6.086  0.5113  1.2130 -2.0452
 6755SOL     OW20980   3.707   2.404   1.373  0.1021 -0.4525  0.0505
 6755SOL    HW120981   3.695   2.421   1.467 -1.9451  2.9334 -0.7303
 6755SOL    HW220982   3.658   2.324   1.357  0.0543 -0.7946  1.7502
 6756SOL     OW20983   2.400   2.572   3.886  0.1385 -0.4658  0.1512
 6756SOL    HW120984   2.369   2.590   3.975  0.7268 -1.0775  0.4887
 6756SOL    HW220985   2.341   2.504   3.853  0.0646 -0.4087  0.1684
 6757SOL     OW20986   3.184   3.264   5.405  0.7585 -0.1097  0.0507
 6757SOL    HW120987   3.234   3.186   5.426 -1.5411 -1.3452  1.1821
 6757SOL    HW220988   3.103   3.232   5.365 -0.7724  1.5797  1.6457
 6758SOL     OW20989   2.455   5.662   6.718  0.2402  0.3040  0.3110
 6758SOL    HW120990   2.462   5.755   6.742 -1.8478 -0.1232  2.6960
 6758SOL    HW220991   2.460   5.663   6.622  1.6925  2.7321  0.3504
 6759SOL     OW20992   3.835   5.363   5.900 -0.1395 -0.3649  0.0640
 6759SOL    HW120993   3.807   5.293   5.841 -0.8460  1.4427 -1.8083
 6759SOL    HW220994   3.800   5.443   5.861  2.5314  1.3056  0.9384
 6760SOL     OW20995   2.403   5.288   5.665  0.3234  0.4283 -0.0737
 6760SOL    HW120996   2.458   5.366   5.664  0.5250  0.4001 -6.2656
 6760SOL    HW220997   2.317   5.319   5.636 -0.7712 -0.9425  1.6262
 6761SOL     OW20998   1.384   2.566   2.432 -0.3841 -0.2524  0.3580
 6761SOL    HW120999   1.470   2.587   2.467  0.0287 -0.5184 -0.4987
 6761SOL    HW221000   1.335   2.648   2.440  0.5174  0.4192 -0.8615
 6762SOL     OW21001   3.169   0.859   3.546 -0.2856  0.3283 -0.2746
 6762SOL    HW121002   3.084   0.875   3.588  0.4788  0.2049  1.3133
 6762SOL    HW221003   3.225   0.826   3.615  0.9063 -0.1751 -1.4585
 6763SOL     OW21004   4.131   5.752   4.058 -0.2652 -0.2735 -0.0672
 6763SOL    HW121005   4.059   5.691   4.075 -0.4496 -0.2967 -0.8988
 6763SOL    HW221006   4.210   5.699   4.066 -0.4085 -0.5452 -0.4501
 6764SOL     OW21007   4.142   2.905   1.342  0.2391 -0.3380 -0.0669
 6764SOL    HW121008   4.070   2.873   1.287 -0.8672 -0.7901  1.6028
 6764SOL    HW221009   4.159   2.834   1.403  2.6668 -0.5475 -0.9198
 6765SOL     OW21010   3.276   2.546   0.684  0.4163  0.5366  0.0144
 6765SOL    HW121011   3.205   2.543   0.620 -1.0957  0.2390  1.6638
 6765SOL    HW221012   3.325   2.465   0.670 -1.1119 -0.5019  0.5717
 6766SOL     OW21013   1.597   2.680   2.566 -0.1008 -0.5923  0.0563
 6766SOL    HW121014   1.667   2.619   2.591  0.3822  0.4299  1.2796
 6766SOL    HW221015   1.643   2.755   2.528 -0.8176 -1.9353 -3.5839
 6767SOL     OW21016   3.283   1.966   2.860  0.0834 -0.6361  0.2399
 6767SOL    HW121017   3.228   2.014   2.798 -0.6960 -0.3304  1.1594
 6767SOL    HW221018   3.285   1.876   2.825 -1.0724 -0.6736  0.2346
 6768SOL     OW21019   4.196   5.745   3.561  0.7915  0.3219  0.2771
 6768SOL    HW121020   4.152   5.804   3.500 -2.1851 -1.8235  0.2829
 6768SOL    HW221021   4.212   5.798   3.639  1.5792  2.1337 -1.0851
 6769SOL     OW21022   3.335   2.586   6.473  0.3507 -0.5033 -0.0687
 6769SOL    HW121023   3.245   2.615   6.460  0.4429  1.2212  2.8696
 6769SOL    HW221024   3.329   2.490   6.477 -1.3584 -0.3920  0.3253
 6770SOL     OW21025   2.670   2.105   3.171  0.0635  0.1846 -0.3787
 6770SOL    HW121026   2.696   2.178   3.114  0.9367  0.1239 -0.0642
 6770SOL    HW221027   2.580   2.125   3.196  0.4004  1.3150 -0.0448
 6771SOL     OW21028   6.509   2.068   0.056  0.4467 -0.3087 -0.1704
 6771SOL    HW121029   6.446   2.063   0.128  0.7105 -1.8812 -0.0388
 6771SOL    HW221030   6.463   2.116  -0.013 -0.2508  0.1157  0.5849
 6772SOL     OW21031   2.804   1.236   1.053  0.5807 -0.2571  0.3924
 6772SOL    HW121032   2.788   1.207   1.143  2.1302 -0.0717  0.7382
 6772SOL    HW221033   2.763   1.168   0.998  1.9487 -1.7646  1.2170
 6773SOL     OW21034   5.323   6.674   1.064 -0.0497  0.2998  0.0604
 6773SOL    HW121035   5.306   6.581   1.083  0.1748  0.3859  0.6871
 6773SOL    HW221036   5.261   6.695   0.993  0.1330 -0.4158 -0.3208
 6774SOL     OW21037   3.245   4.385   2.491  0.2562  0.4648  0.4364
 6774SOL    HW121038   3.188   4.400   2.416 -1.8865  0.5415  2.0410
 6774SOL    HW221039   3.304   4.461   2.492  0.3653  0.4191 -1.1825
 6775SOL     OW21040   5.710   5.539   1.466  0.0077 -0.0696 -0.0026
 6775SOL    HW121041   5.738   5.520   1.556  0.1191  0.0658 -0.0090
 6775SOL    HW221042   5.661   5.620   1.472 -2.4746 -1.5485  0.3909
 6776SOL     OW21043   2.140   4.926   5.556 -0.2142 -0.0423  0.3047
 6776SOL    HW121044   2.099   5.011   5.573  0.1689 -0.0255  1.1732
 6776SOL    HW221045   2.143   4.919   5.461 -3.6590 -0.7308  0.1963
 6777SOL     OW21046   6.671   0.028   2.605 -0.0869  0.0051  0.5201
 6777SOL    HW121047   6.629   0.069   2.530  1.9613  1.0157 -0.0911
 6777SOL    HW221048   6.670  -0.066   2.584 -2.2113 -0.0112  0.6226
 6778SOL     OW21049   5.647   1.888   4.305 -0.2589  0.2381  0.4658
 6778SOL    HW121050   5.658   1.961   4.367  0.2560  0.0727  0.5772
 6778SOL    HW221051   5.728   1.838   4.314  0.5634  1.1568 -1.5853
 6779SOL     OW21052   2.901   6.307   6.262 -0.0177 -0.2446  0.2496
 6779SOL    HW121053   2.971   6.316   6.197 -0.3059 -1.2130 -0.1946
 6779SOL    HW221054   2.923   6.373   6.329  1.2682 -0.4632  0.0664
 6780SOL     OW21055   0.012   3.865   2.313 -0.4760 -0.4361 -0.0499
 6780SOL    HW121056  -0.035   3.901   2.238  1.3405 -0.9857 -1.4976
 6780SOL    HW221057   0.091   3.919   2.320  0.6391 -2.0200 -0.1778
 6781SOL     OW21058   4.192   0.854   5.283  0.4380 -0.0102  0.0747
 6781SOL    HW121059   4.248   0.889   5.352 -0.0326 -0.4006  0.6608
 6781SOL    HW221060   4.214   0.761   5.279 -0.7515 -0.3449  0.8863
 6782SOL     OW21061   3.769   5.143   3.294  0.1446 -0.2919  0.1493
 6782SOL    HW121062   3.687   5.094   3.287 -0.4875  0.8396 -0.5159
 6782SOL    HW221063   3.812   5.106   3.371 -1.4633 -0.1999  1.1179
 6783SOL     OW21064   4.272   6.396   3.686  0.2122  0.4650  0.2725
 6783SOL    HW121065   4.273   6.373   3.779 -1.0818 -2.3934 -0.3592
 6783SOL    HW221066   4.361   6.374   3.656  0.2960  0.3248  0.6125
 6784SOL     OW21067   6.237   2.600   3.002 -0.3501 -0.3061 -0.3439
 6784SOL    HW121068   6.213   2.592   3.094 -1.5751 -0.7164 -0.6846
 6784SOL    HW221069   6.185   2.673   2.969 -0.1920 -0.3924 -0.7962
 6785SOL     OW21070   2.705   1.028   1.824  0.1340  0.1509  0.0815
 6785SOL    HW121071   2.653   0.982   1.891  0.5928 -1.6956 -0.8081
 6785SOL    HW221072   2.675   0.992   1.741  0.5077  1.4833 -0.6448
 6786SOL     OW21073   5.067   4.314   1.564 -0.7984 -0.0685  0.3365
 6786SOL    HW121074   5.028   4.227   1.559  0.9463 -0.7946 -1.0950
 6786SOL    HW221075   5.055   4.351   1.477 -1.2040  0.9868  0.8322
 6787SOL     OW21076   4.043   4.495   6.503  0.3733 -0.0940  0.3863
 6787SOL    HW121077   4.137   4.508   6.518  0.7124 -0.3622 -1.3062
 6787SOL    HW221078   4.040   4.427   6.435 -1.0656 -0.4917  0.8387
 6788SOL     OW21079   6.394   6.096   5.442  0.1484  0.2460  0.1803
 6788SOL    HW121080   6.348   6.126   5.364 -1.4564  0.8628  1.3341
 6788SOL    HW221081   6.328   6.047   5.491  0.6118  1.4056  2.0048
 6789SOL     OW21082   4.386   4.388   6.745  0.2739 -0.6172  0.5602
 6789SOL    HW121083   4.326   4.373   6.818  0.5355 -1.1686  0.6621
 6789SOL    HW221084   4.416   4.478   6.757 -2.5633  0.5790 -0.9765
 6790SOL     OW21085   4.029   6.539   3.677  0.2676 -0.1676  0.4829
 6790SOL    HW121086   4.050   6.615   3.622  1.6082  0.2030  1.4856
 6790SOL    HW221087   4.103   6.480   3.664 -1.2297 -1.7522 -1.0455
 6791SOL     OW21088   4.627   2.780   1.994  0.2778 -0.1220 -0.1394
 6791SOL    HW121089   4.547   2.761   1.946 -0.0487 -0.6026  0.5947
 6791SOL    HW221090   4.597   2.825   2.073  0.6109 -1.5217  0.8040
 6792SOL     OW21091   0.156   2.093   6.492  0.0574  0.1179  0.4327
 6792SOL    HW121092   0.171   2.126   6.403 -1.5618 -0.1402  0.0382
 6792SOL    HW221093   0.140   2.171   6.545 -1.3635  0.1510 -0.0107
 6793SOL     OW21094   4.975   6.340   4.881 -0.3389  0.1056  0.5901
 6793SOL    HW121095   4.911   6.269   4.880 -0.5318  0.2803  0.5771
 6793SOL    HW221096   5.020   6.331   4.965  0.0567 -0.4061  0.3245
 6794SOL     OW21097   6.729   6.409   0.827  0.1153  0.9343 -0.2941
 6794SOL    HW121098   6.681   6.370   0.900 -1.1351  0.6336 -1.2750
 6794SOL    HW221099   6.701   6.501   0.826  1.0769  1.2389  0.3780
 6795SOL     OW21100   5.855   1.775   3.770  0.4426 -0.2026 -0.3533
 6795SOL    HW121101   5.885   1.752   3.858  0.9029  1.2092 -0.1349
 6795SOL    HW221102   5.923   1.834   3.737  0.6924 -1.3475 -1.9668
 6796SOL     OW21103   2.307   2.361   6.400  0.0762  0.0184 -0.1003
 6796SOL    HW121104   2.329   2.453   6.415  0.7922 -0.1723  0.0609
 6796SOL    HW221105   2.359   2.336   6.324 -2.3552  0.5469 -1.9972
 6797SOL     OW21106   1.534   5.553   3.738 -0.5792 -0.4768 -0.8563
 6797SOL    HW121107   1.605   5.520   3.794 -0.0792 -0.7548 -1.6498
 6797SOL    HW221108   1.474   5.479   3.729 -1.0052 -0.2275 -0.1469
 6798SOL     OW21109   5.639   4.483   2.797  0.1321  0.1721 -0.5561
 6798SOL    HW121110   5.677   4.479   2.885 -2.1341  1.2637  0.5074
 6798SOL    HW221111   5.688   4.554   2.754  1.7777 -0.8785 -0.4768
 6799SOL     OW21112   3.421   1.369   3.652  0.1719  0.3257  0.4408
 6799SOL    HW121113   3.452   1.457   3.672 -2.4028  1.2011  0.8373
 6799SOL    HW221114   3.398   1.372   3.559  2.0151 -0.5616 -0.0631
 6800SOL     OW21115   5.542   1.194   3.134  0.4864 -0.1247 -0.4884
 6800SOL    HW121116   5.469   1.214   3.076  0.3364 -0.8487 -0.5641
 6800SOL    HW221117   5.577   1.111   3.100  0.5830 -0.4011  0.2683
 6801SOL     OW21118   5.312   5.756   3.938 -0.3919  0.3690 -0.4537
 6801SOL    HW121119   5.371   5.759   3.863  0.5797  1.2404  0.3260
 6801SOL    HW221120   5.323   5.668   3.973  2.0241  1.1262  0.8795
 6802SOL     OW21121   0.876   5.142   3.556 -0.7071 -0.0660 -0.5957
 6802SOL    HW121122   0.907   5.228   3.582  0.9362 -0.7488 -0.2381
 6802SOL    HW221123   0.783   5.143   3.576 -0.8803  1.9071 -1.3607
 6803SOL     OW21124   0.013   5.518   3.389  0.0617  0.3761 -0.1050
 6803SOL    HW121125  -0.069   5.496   3.344 -0.3578  2.6550 -0.5150
 6803SOL    HW221126  -0.002   5.492   3.480  0.0175 -2.0093 -0.7619
 6804SOL     OW21127   3.728   2.296   3.879  0.2108 -0.4952  0.8231
 6804SOL    HW121128   3.716   2.301   3.974  2.2418 -0.2072  1.0847
 6804SOL    HW221129   3.821   2.277   3.868 -0.2465 -1.7363 -1.0944
 6805SOL     OW21130   1.763   0.806   6.312  0.6595 -0.1927 -0.6750
 6805SOL    HW121131   1.797   0.727   6.355  1.1953  0.6981  0.5722
 6805SOL    HW221132   1.741   0.864   6.385  0.1658  0.7659 -1.5867
 6806SOL     OW21133   4.083   2.326   1.571  0.1111  0.2356 -0.2910
 6806SOL    HW121134   4.131   2.260   1.621 -0.6973 -0.7320 -0.7949
 6806SOL    HW221135   4.057   2.282   1.490  0.4943  1.4871 -1.1140
 6807SOL     OW21136   3.593   4.873   2.939 -0.5357 -0.0116  0.4984
 6807SOL    HW121137   3.659   4.828   2.992 -0.8589 -1.3124 -0.1759
 6807SOL    HW221138   3.521   4.811   2.933 -1.9459  1.5112  1.4559
 6808SOL     OW21139   0.796   4.255   1.268 -0.0395  0.2137  0.6595
 6808SOL    HW121140   0.838   4.185   1.317 -1.3290 -0.3891  0.9355
 6808SOL    HW221141   0.825   4.244   1.178  0.1933 -0.3355  0.8045
 6809SOL     OW21142   6.539   5.423   5.983  0.8295  0.0573  0.1113
 6809SOL    HW121143   6.501   5.410   6.070 -2.2967  0.7772 -1.0787
 6809SOL    HW221144   6.563   5.335   5.954  0.4261 -0.3746  1.0643
 6810SOL     OW21145   1.520   0.976   5.481 -0.0469 -0.1319  0.2938
 6810SOL    HW121146   1.438   0.960   5.434 -0.1408  0.6355  0.1785
 6810SOL    HW221147   1.571   0.896   5.470 -1.6647 -1.4909  2.2059
 6811SOL     OW21148   0.896   0.527   5.079  0.5143  0.7132 -0.7008
 6811SOL    HW121149   0.937   0.503   5.162  1.2042 -0.7896 -1.4587
 6811SOL    HW221150   0.938   0.609   5.055  0.3815  1.1146  0.3830
 6812SOL     OW21151   4.723   5.737   4.665  0.3226  0.3178 -0.5936
 6812SOL    HW121152   4.633   5.721   4.692 -0.2981  2.2011 -1.4983
 6812SOL    HW221153   4.727   5.831   4.646  2.7598  0.4738  0.4740
 6813SOL     OW21154   6.011   6.196   0.931  0.2581 -0.2486 -0.3068
 6813SOL    HW121155   6.039   6.105   0.926  0.1087 -0.3224  0.1937
 6813SOL    HW221156   6.018   6.228   0.841 -1.3501 -1.2465 -0.8048
 6814SOL     OW21157   2.356   6.632   1.510 -0.8315 -0.1387  0.0369
 6814SOL    HW121158   2.362   6.726   1.498 -1.9954  0.0191  0.6375
 6814SOL    HW221159   2.441   6.598   1.480  0.4525  1.2963  1.9646
 6815SOL     OW21160   2.422   5.641   2.572 -0.7143  0.1303 -0.4922
 6815SOL    HW121161   2.388   5.586   2.501 -0.4335 -0.3031 -0.2921
 6815SOL    HW221162   2.344   5.669   2.620 -0.8111 -0.5879 -0.2358
 6816SOL     OW21163   1.061   4.466   5.112  0.2883  0.4814  0.0267
 6816SOL    HW121164   1.063   4.397   5.047 -2.3305 -2.1698  2.6253
 6816SOL    HW221165   1.146   4.460   5.157  0.8654  0.3123 -1.0800
 6817SOL     OW21166   2.400   6.156   6.426 -0.4235 -0.1230  0.4311
 6817SOL    HW121167   2.387   6.162   6.331  0.7445  1.8062  0.3624
 6817SOL    HW221168   2.387   6.245   6.458  2.0202 -0.1624  1.6916
 6818SOL     OW21169   3.122   0.332   3.157  0.3378 -0.4149 -0.1146
 6818SOL    HW121170   3.142   0.268   3.225 -0.4624 -1.4185 -0.8168
 6818SOL    HW221171   3.200   0.387   3.153  0.0544  0.2061  2.2193
 6819SOL     OW21172   5.286   4.989   4.047 -0.2095  0.1263  0.8215
 6819SOL    HW121173   5.365   4.962   4.000  1.6200  1.9147  2.7347
 6819SOL    HW221174   5.227   4.914   4.042  2.2631 -1.8614  0.7451
 6820SOL     OW21175   6.094   4.713   4.756 -0.6964 -0.0604  0.1621
 6820SOL    HW121176   6.015   4.695   4.705  0.8701 -2.6740 -1.4460
 6820SOL    HW221177   6.067   4.699   4.847 -2.4078  0.4167 -0.2425
 6821SOL     OW21178   5.464   3.322   5.505 -0.0786 -0.1465 -0.9117
 6821SOL    HW121179   5.391   3.320   5.443 -0.6510  0.6002 -0.2897
 6821SOL    HW221180   5.542   3.333   5.451 -0.4099 -1.1769 -1.6002
 6822SOL     OW21181   1.400   3.022   5.017  0.1593 -0.0317  0.2796
 6822SOL    HW121182   1.354   3.000   4.936 -0.2352 -0.1728  0.5407
 6822SOL    HW221183   1.482   3.062   4.988  0.6970 -1.4434 -0.2112
 6823SOL     OW21184   6.576   0.837   3.421  0.1339  0.3507  0.3871
 6823SOL    HW121185   6.577   0.922   3.467 -0.1832 -0.7142  2.4272
 6823SOL    HW221186   6.666   0.826   3.389 -0.2653  2.2929 -1.5446
 6824SOL     OW21187   5.344   4.405   5.250  0.5987  0.0441 -0.0147
 6824SOL    HW121188   5.306   4.317   5.262  1.1997 -0.1823  0.2331
 6824SOL    HW221189   5.340   4.419   5.156  1.2140 -0.5690 -0.1338
 6825SOL     OW21190   6.592   2.239   4.730 -0.7641 -0.6980  0.5577
 6825SOL    HW121191   6.583   2.221   4.823  0.2699 -0.2999  0.7389
 6825SOL    HW221192   6.502   2.245   4.698 -1.1236 -1.0036  1.4914
 6826SOL     OW21193   3.265   6.281   3.748  0.4454 -0.0418  0.1068
 6826SOL    HW121194   3.313   6.364   3.740  0.0908  0.1553 -0.0027
 6826SOL    HW221195   3.305   6.237   3.823  0.9205  0.0371 -0.0990
 6827SOL     OW21196   5.962   6.735   5.997 -0.7303  0.8113  0.4431
 6827SOL    HW121197   5.991   6.765   6.083  1.3349 -0.5554  0.2546
 6827SOL    HW221198   5.943   6.642   6.009 -0.0767  0.5221 -0.6501
 6828SOL     OW21199   6.555   3.757   3.818 -0.4548 -0.6109  0.3900
 6828SOL    HW121200   6.518   3.674   3.847 -0.0829 -0.9505 -0.1127
 6828SOL    HW221201   6.641   3.735   3.782 -0.6939 -0.1243 -0.4967
 6829SOL     OW21202   6.388   5.659   3.503 -0.5334 -0.0736 -0.0894
 6829SOL    HW121203   6.427   5.587   3.552 -0.3591 -0.2845 -0.5266
 6829SOL    HW221204   6.453   5.730   3.509  0.3754 -0.7413 -1.6098
 6830SOL     OW21205   1.653   0.037   6.567 -0.1183  0.2538 -0.0191
 6830SOL    HW121206   1.718   0.101   6.596 -0.6948  1.3212 -1.0657
 6830SOL    HW221207   1.569   0.081   6.578 -0.7029 -1.1601  1.4349
 6831SOL     OW21208   6.620   4.966   2.034  0.2536  0.6692 -0.0978
 6831SOL    HW121209   6.601   5.044   1.983  0.7991 -0.4064 -1.9889
 6831SOL    HW221210   6.633   4.998   2.123 -1.0300  2.5350 -0.5574
 6832SOL     OW21211   4.018   4.257   4.843  0.1902 -0.1580  0.0486
 6832SOL    HW121212   3.956   4.230   4.775 -0.3292 -0.5687  0.6786
 6832SOL    HW221213   3.972   4.324   4.892  0.0647 -0.8079  0.8192
 6833SOL     OW21214   2.021   5.779   6.554  0.1966 -0.0556  0.2169
 6833SOL    HW121215   1.984   5.841   6.617  0.3562  0.9034 -0.6145
 6833SOL    HW221216   1.953   5.770   6.487 -0.4595 -1.9706  1.0787
 6834SOL     OW21217   3.637   5.901   1.408  0.2406  0.0305 -0.6188
 6834SOL    HW121218   3.585   5.981   1.398  0.0553  0.0617  0.4939
 6834SOL    HW221219   3.581   5.832   1.372  0.0795  0.2995 -0.8810
 6835SOL     OW21220   4.358   1.252   2.480  0.6627  0.4676 -0.1562
 6835SOL    HW121221   4.278   1.254   2.426  0.1004  2.0433  0.7109
 6835SOL    HW221222   4.335   1.194   2.553 -0.4101  2.5070  1.1613
 6836SOL     OW21223   3.578   3.704   0.599 -0.4303  0.6920  0.4743
 6836SOL    HW121224   3.670   3.682   0.613 -0.7343 -1.0146 -0.1290
 6836SOL    HW221225   3.533   3.668   0.675 -0.6049  1.5888  0.8028
 6837SOL     OW21226   5.912   2.431   5.942 -0.0421 -0.4218 -0.6986
 6837SOL    HW121227   5.841   2.458   6.001  0.9702 -0.9013  0.7665
 6837SOL    HW221228   5.985   2.489   5.963 -0.1797  0.5309 -2.6870
 6838SOL     OW21229   5.299   4.172   4.488 -0.1782 -0.4561  0.1055
 6838SOL    HW121230   5.235   4.137   4.550 -0.2298 -2.1426 -0.8919
 6838SOL    HW221231   5.384   4.141   4.520 -0.2425 -1.7202 -0.8881
 6839SOL     OW21232   0.373   3.108   1.276 -0.3048  0.3515  0.0151
 6839SOL    HW121233   0.348   3.066   1.193 -0.5100  1.2230 -0.3731
 6839SOL    HW221234   0.438   3.048   1.314  0.4519  0.3644 -1.1945
 6840SOL     OW21235   4.681   1.113   3.533 -0.2447  0.3361  0.9058
 6840SOL    HW121236   4.622   1.046   3.499  1.2974 -0.3794 -0.4725
 6840SOL    HW221237   4.733   1.068   3.599  0.4044  0.3181  0.3853
 6841SOL     OW21238   2.113   5.598   5.348  0.0330  0.0478 -0.2092
 6841SOL    HW121239   2.117   5.594   5.252 -0.3949  0.9640 -0.2676
 6841SOL    HW221240   2.086   5.688   5.367 -3.0449 -0.9901  0.6734
 6842SOL     OW21241   0.017   0.588   6.078 -0.0376  0.5061  0.2307
 6842SOL    HW121242   0.095   0.618   6.126 -0.4190  1.0174  0.5307
 6842SOL    HW221243   0.001   0.500   6.113  0.8966  0.0553 -0.4327
 6843SOL     OW21244   2.697   1.447   3.996  0.8197  0.2368  0.4654
 6843SOL    HW121245   2.717   1.385   4.066  3.1257 -0.9044 -1.1378
 6843SOL    HW221246   2.712   1.398   3.915 -0.0916  2.0568 -0.8582
 6844SOL     OW21247   5.847   4.607   2.016  0.0671 -0.0255 -0.0178
 6844SOL    HW121248   5.769   4.647   2.053  0.6104 -0.1376  1.3149
 6844SOL    HW221249   5.826   4.513   2.012  0.2137 -0.0890  0.5861
 6845SOL     OW21250   4.051   0.600   2.556 -0.5367  0.2919  0.2983
 6845SOL    HW121251   4.056   0.636   2.645  0.6471 -1.7288  1.0698
 6845SOL    HW221252   4.103   0.661   2.503  1.1093 -0.0223  1.5152
 6846SOL     OW21253   2.264   3.962   3.798  0.4527  0.6409 -0.1884
 6846SOL    HW121254   2.190   3.914   3.834  0.9990  0.4309  0.6501
 6846SOL    HW221255   2.260   3.944   3.704  0.0776 -0.2444 -0.0098
 6847SOL     OW21256   6.284   1.246   2.037 -0.1452  0.4784  0.1320
 6847SOL    HW121257   6.240   1.306   2.097 -0.5594  0.2155  0.0915
 6847SOL    HW221258   6.322   1.303   1.969  0.4883  0.7899  0.7410
 6848SOL     OW21259   6.200   4.177   4.644  0.0792 -0.4626 -0.1650
 6848SOL    HW121260   6.227   4.195   4.554  0.6415  2.1831  0.4941
 6848SOL    HW221261   6.104   4.186   4.643  0.2449  1.5265 -0.1181
 6849SOL     OW21262   1.175   6.354   6.138  0.0871  0.0242  0.2152
 6849SOL    HW121263   1.256   6.341   6.090 -0.6640 -1.0830 -0.7624
 6849SOL    HW221264   1.201   6.405   6.215  1.7153 -0.3924 -0.0404
 6850SOL     OW21265   1.276   6.489   6.356 -0.0507 -0.3327  0.2151
 6850SOL    HW121266   1.247   6.507   6.446  0.7678  1.4159  0.1490
 6850SOL    HW221267   1.328   6.565   6.332 -1.2634 -0.2122 -2.1877
 6851SOL     OW21268   3.511   2.388   3.326  0.2277 -0.6533  0.2505
 6851SOL    HW121269   3.427   2.362   3.288 -1.1655 -0.2165  2.9288
 6851SOL    HW221270   3.515   2.341   3.409  2.0119  0.3991  0.7761
 6852SOL     OW21271   4.986   1.683   0.528 -0.2174  0.0197  0.0017
 6852SOL    HW121272   4.952   1.752   0.584  0.2963 -1.0805  1.7101
 6852SOL    HW221273   5.081   1.689   0.538 -0.0148  1.1139 -2.3546
 6853SOL     OW21274   2.169   1.976   4.587  0.1172 -0.2045 -0.6919
 6853SOL    HW121275   2.199   2.063   4.561  1.0123 -0.0517  0.7842
 6853SOL    HW221276   2.132   1.988   4.675 -0.6159 -1.1458 -0.8551
 6854SOL     OW21277   1.902   6.454   0.138 -0.2911  0.4903 -0.1915
 6854SOL    HW121278   1.806   6.454   0.141 -0.2550  0.2670  1.1427
 6854SOL    HW221279   1.923   6.383   0.077 -0.9219 -1.6736  2.0334
 6855SOL     OW21280   3.220   0.139   6.261 -0.1519 -0.9288 -0.3963
 6855SOL    HW121281   3.211   0.055   6.216 -0.8056 -1.2101  0.2447
 6855SOL    HW221282   3.243   0.201   6.192  1.7753 -1.8845 -0.6570
 6856SOL     OW21283   2.587   4.737   4.803  0.1726  0.3763 -0.7735
 6856SOL    HW121284   2.571   4.642   4.805 -0.0603  0.4250 -0.1996
 6856SOL    HW221285   2.565   4.766   4.891  0.3746  0.9464 -0.9131
 6857SOL     OW21286   0.667   0.426   4.531  0.7304 -0.2438 -0.9452
 6857SOL    HW121287   0.620   0.358   4.482  1.3437 -1.2966 -0.1080
 6857SOL    HW221288   0.627   0.424   4.618  1.5412 -0.3492 -0.5700
 6858SOL     OW21289   1.277   0.403   6.654  0.6287 -0.0407  0.8851
 6858SOL    HW121290   1.190   0.405   6.695  0.6367 -1.1212  0.9527
 6858SOL    HW221291   1.328   0.468   6.703 -0.7851  2.2560 -0.6138
 6859SOL     OW21292   4.531   0.882   0.117  0.0782  0.4292  0.2747
 6859SOL    HW121293   4.621   0.855   0.097 -0.3719 -2.2910  1.6025
 6859SOL    HW221294   4.540   0.936   0.195  0.4749 -1.0784  1.3127
 6860SOL     OW21295   4.605   6.405   4.952 -0.1145 -0.4216  0.6073
 6860SOL    HW121296   4.582   6.313   4.939  0.8108 -0.5975  0.2093
 6860SOL    HW221297   4.633   6.435   4.866  0.7813 -0.1115  0.9998
 6861SOL     OW21298   5.728   5.261   6.297  0.0758 -0.1611  1.1782
 6861SOL    HW121299   5.691   5.173   6.301 -0.2021 -0.4319 -3.7472
 6861SOL    HW221300   5.653   5.319   6.290  0.3121 -0.2346 -3.0117
 6862SOL     OW21301   0.176   0.020   1.525  0.2416  0.1183  0.0668
 6862SOL    HW121302   0.088  -0.013   1.543  0.5013 -1.3110 -1.1421
 6862SOL    HW221303   0.232  -0.024   1.590  0.5092 -1.4624 -1.2033
 6863SOL     OW21304   6.313   1.190   4.667  0.1445 -0.2402  0.4238
 6863SOL    HW121305   6.401   1.182   4.629 -0.8901  0.3582 -2.1867
 6863SOL    HW221306   6.293   1.283   4.661 -1.0276 -0.5083  0.1708
 6864SOL     OW21307   5.066   3.532   5.073 -0.3349  0.3541  0.2563
 6864SOL    HW121308   5.063   3.601   5.139 -0.0997 -0.1940  0.8441
 6864SOL    HW221309   5.004   3.466   5.105  1.3848 -0.9004  1.0542
 6865SOL     OW21310   5.675   5.742   4.589 -0.6190 -1.1796 -0.2431
 6865SOL    HW121311   5.616   5.817   4.594  1.2524  0.1747  3.5561
 6865SOL    HW221312   5.726   5.756   4.510 -0.5273  1.4051  0.2535
 6866SOL     OW21313   4.497   4.679   0.122  0.0437  0.2762  0.4271
 6866SOL    HW121314   4.521   4.622   0.196  1.6209  0.0570 -0.2495
 6866SOL    HW221315   4.576   4.683   0.068 -1.2589  0.0162 -1.5339
 6867SOL     OW21316   3.835   1.692   3.333  0.2405 -0.0460  0.0709
 6867SOL    HW121317   3.822   1.769   3.390 -0.1429  1.2735 -1.7666
 6867SOL    HW221318   3.928   1.696   3.309  0.3942 -0.5882  0.5499
 6868SOL     OW21319   2.816   0.175   5.455 -0.1001 -0.5498 -0.2413
 6868SOL    HW121320   2.797   0.268   5.468 -0.9188 -0.7830  0.2569
 6868SOL    HW221321   2.760   0.130   5.518  0.7625 -1.3549 -0.0407
 6869SOL     OW21322   6.586   4.485   5.574 -0.0167  1.0729  0.0425
 6869SOL    HW121323   6.532   4.523   5.643 -0.0295 -0.7915  1.0633
 6869SOL    HW221324   6.676   4.496   5.605  0.0168  0.8786  0.0104
 6870SOL     OW21325   4.831   6.414   3.167 -0.4748  0.7046 -0.0560
 6870SOL    HW121326   4.864   6.491   3.121  0.1472  1.4737  1.6411
 6870SOL    HW221327   4.765   6.448   3.227 -1.9308 -0.4017 -0.9781
 6871SOL     OW21328   2.041   6.605   5.106 -0.0814  0.2136  0.1449
 6871SOL    HW121329   2.069   6.663   5.035 -0.5648  0.8638  0.4735
 6871SOL    HW221330   1.957   6.570   5.077 -0.5145  0.8593  0.5976
 6872SOL     OW21331   4.353   6.594   2.465 -0.0754  0.9552  0.0615
 6872SOL    HW121332   4.366   6.610   2.371  0.8005 -1.2075 -0.2148
 6872SOL    HW221333   4.355   6.681   2.504  0.3446  1.8279 -1.8366
 6873SOL     OW21334   1.070   1.335   4.378 -0.3532 -0.0332 -0.1693
 6873SOL    HW121335   1.082   1.240   4.390  0.8283  0.1089 -0.1804
 6873SOL    HW221336   1.060   1.369   4.467  0.8064  0.0395 -0.0687
 6874SOL     OW21337   4.545   1.117   5.651  0.3580 -0.6563 -0.2663
 6874SOL    HW121338   4.589   1.065   5.584  0.0731  1.1370 -1.8995
 6874SOL    HW221339   4.595   1.199   5.654 -0.7439  0.0040  0.3792
 6875SOL     OW21340   6.075   0.713   0.204 -0.1988  0.0767  0.5383
 6875SOL    HW121341   6.038   0.718   0.116 -1.6731 -0.3152  1.1175
 6875SOL    HW221342   6.075   0.620   0.225  0.7193  0.1160  0.7066
 6876SOL     OW21343   6.674   4.104   1.712  0.0673 -0.1935 -0.0681
 6876SOL    HW121344   6.728   4.159   1.770 -1.9819 -1.7991  3.5530
 6876SOL    HW221345   6.736   4.041   1.676  1.2241  0.0899  1.3502
 6877SOL     OW21346   1.770   2.593   3.817  0.5870 -0.1086  0.2997
 6877SOL    HW121347   1.817   2.632   3.891 -1.1626  0.0608  1.3532
 6877SOL    HW221348   1.725   2.518   3.855 -0.3692  0.0167 -0.5827
 6878SOL     OW21349   6.187   6.448   0.487  0.6417  0.3104 -0.0411
 6878SOL    HW121350   6.240   6.373   0.513 -1.7725 -1.3556  0.2064
 6878SOL    HW221351   6.225   6.522   0.535  2.0972 -1.0115  0.8882
 6879SOL     OW21352   2.921   5.864   6.682  0.4634 -0.7309  0.1006
 6879SOL    HW121353   2.842   5.892   6.728  1.2979 -0.5377  1.4388
 6879SOL    HW221354   2.981   5.939   6.688  0.2961 -0.3958 -2.0134
 6880SOL     OW21355   1.435   3.220   4.429  0.3371  0.1432  0.2189
 6880SOL    HW121356   1.473   3.171   4.503 -1.6977  0.8103  1.7541
 6880SOL    HW221357   1.434   3.157   4.357  0.4848 -1.1638  1.3314
 6881SOL     OW21358   1.718   0.228   2.538 -0.3101  0.1012 -0.1451
 6881SOL    HW121359   1.806   0.263   2.550 -0.7016  1.7658 -1.8037
 6881SOL    HW221360   1.728   0.133   2.548  1.3607  0.4157  1.3068
 6882SOL     OW21361   0.059   1.432   2.975 -1.1435  0.0778 -0.0940
 6882SOL    HW121362   0.125   1.456   2.910 -0.9017  1.7738  0.7391
 6882SOL    HW221363   0.039   1.340   2.956  0.0570  0.0894 -1.5583
 6883SOL     OW21364   0.448   1.278   6.614  0.6893  1.0292  0.1514
 6883SOL    HW121365   0.451   1.348   6.680  1.1446 -1.6261  3.0309
 6883SOL    HW221366   0.355   1.256   6.606  0.7724  0.4058  0.9255
 6884SOL     OW21367   4.278   0.602   0.377  0.0516  0.0493  0.3223
 6884SOL    HW121368   4.273   0.591   0.472 -0.7077 -0.1050  0.2675
 6884SOL    HW221369   4.327   0.684   0.364 -2.2253  1.5487  0.9027
 6885SOL     OW21370   0.137   6.231   1.454  0.7115 -0.0935  0.5003
 6885SOL    HW121371   0.191   6.292   1.505 -0.6302  1.9807 -0.4651
 6885SOL    HW221372   0.069   6.203   1.515  1.2266 -0.4578  0.9021
 6886SOL     OW21373   1.056   5.664   4.087 -0.2084  0.0931  0.1275
 6886SOL    HW121374   0.987   5.695   4.030 -1.0566  0.0321  1.1118
 6886SOL    HW221375   1.125   5.730   4.080  0.3893 -0.6898 -2.1739
 6887SOL     OW21376   1.030   1.446   4.632  0.1071 -0.5098 -0.3004
 6887SOL    HW121377   1.066   1.526   4.670  0.9143 -0.7878 -0.4542
 6887SOL    HW221378   0.943   1.437   4.670  0.3848 -0.0700  0.4463
 6888SOL     OW21379   6.053   3.578   0.885 -0.4113  0.1333  0.2974
 6888SOL    HW121380   6.042   3.632   0.963  0.9232 -0.1460  0.6962
 6888SOL    HW221381   5.968   3.582   0.840 -0.7023  1.5485  0.9525
 6889SOL     OW21382   1.481   3.350   0.510 -0.1899 -0.0073  0.1882
 6889SOL    HW121383   1.456   3.442   0.500 -1.9617 -0.4244  0.6229
 6889SOL    HW221384   1.577   3.351   0.513 -0.1185  1.6306 -1.6610
 6890SOL     OW21385   2.636   4.211   4.264 -0.1240 -0.5191  0.3763
 6890SOL    HW121386   2.687   4.279   4.221  0.8781 -2.7205 -2.0120
 6890SOL    HW221387   2.678   4.199   4.349  0.3607  1.0397  0.3667
 6891SOL     OW21388   6.464   1.956   1.707  0.4515 -0.1047 -0.0410
 6891SOL    HW121389   6.521   1.936   1.781  0.5250  0.5551  0.0792
 6891SOL    HW221390   6.523   1.964   1.632  0.5380  0.8058  0.1264
 6892SOL     OW21391   4.929   1.159   0.222 -0.6585 -0.6231 -0.2519
 6892SOL    HW121392   4.998   1.210   0.181 -3.2107  2.6495 -0.7201
 6892SOL    HW221393   4.903   1.095   0.155  1.0920 -1.0975 -0.4854
 6893SOL     OW21394   2.452   4.857   0.882 -0.0754  0.0481 -0.0924
 6893SOL    HW121395   2.544   4.837   0.865  0.6704  1.3499  2.1997
 6893SOL    HW221396   2.405   4.777   0.858  1.9261 -1.5058  1.0079
 6894SOL     OW21397   2.072   6.009   4.759  0.0681 -0.1587 -0.0771
 6894SOL    HW121398   2.063   6.011   4.854  0.2007 -1.6567 -0.0271
 6894SOL    HW221399   2.096   5.919   4.739 -0.6908 -0.0385 -1.5991
 6895SOL     OW21400   6.095   5.599   6.210 -0.2011 -0.3824 -0.2280
 6895SOL    HW121401   6.097   5.507   6.238 -3.6994 -0.9453 -1.5826
 6895SOL    HW221402   6.142   5.600   6.127  1.0514 -0.6582  0.4642
 6896SOL     OW21403   0.613   1.081   1.700 -0.5115  0.1790  0.4214
 6896SOL    HW121404   0.546   1.091   1.768 -2.2376 -2.6940 -0.8147
 6896SOL    HW221405   0.656   0.999   1.721 -0.0389  0.0342 -1.0866
 6897SOL     OW21406   5.001   6.249   3.274 -0.0603  0.3142 -0.1427
 6897SOL    HW121407   4.937   6.307   3.234 -1.1352 -1.5494 -1.1823
 6897SOL    HW221408   4.962   6.162   3.269  2.0703 -0.7054  0.2178
 6898SOL     OW21409   5.739   6.141   2.561 -0.0591 -0.2751 -0.1997
 6898SOL    HW121410   5.651   6.178   2.553  0.0701 -0.2743 -1.8563
 6898SOL    HW221411   5.734   6.083   2.637 -1.1743  0.5997  0.4168
 6899SOL     OW21412   1.881   1.686   3.041  0.1713  0.9778  0.5289
 6899SOL    HW121413   1.969   1.723   3.032  1.5626 -1.7308  2.4585
 6899SOL    HW221414   1.839   1.742   3.106  1.3205  0.7903  1.4467
 6900SOL     OW21415   4.675   4.023   5.494 -0.0043 -0.4353 -0.3064
 6900SOL    HW121416   4.647   4.111   5.466 -0.0324 -0.5285 -0.5746
 6900SOL    HW221417   4.657   3.968   5.418  0.3300 -0.6100 -0.2573
 6901SOL     OW21418   1.589   2.296   2.254 -0.6175  0.2426 -0.3608
 6901SOL    HW121419   1.526   2.228   2.275  0.8146 -1.6811 -2.1306
 6901SOL    HW221420   1.634   2.265   2.176  3.9689  0.5409  1.9841
 6902SOL     OW21421   4.137   6.156   4.621  0.5445  0.1449 -0.1756
 6902SOL    HW121422   4.108   6.104   4.546  0.4128 -0.1334  0.0671
 6902SOL    HW221423   4.197   6.220   4.584  1.2922 -0.6573 -0.3809
 6903SOL     OW21424   5.129   0.393   6.704 -0.0977  0.1217 -0.2027
 6903SOL    HW121425   5.133   0.421   6.795 -1.1403  1.2164 -0.4838
 6903SOL    HW221426   5.038   0.370   6.690  0.3709 -1.5557 -0.5346
 6904SOL     OW21427   1.794   5.458   1.161 -0.6975 -0.6771 -0.8493
 6904SOL    HW121428   1.779   5.452   1.066  1.8785  0.3372 -1.3746
 6904SOL    HW221429   1.813   5.550   1.176  1.1361 -1.2117  0.2656
 6905SOL     OW21430   0.110   0.745   6.452 -0.2024 -0.0300  0.4564
 6905SOL    HW121431   0.155   0.817   6.495 -1.0168  1.2359 -0.7872
 6905SOL    HW221432   0.017   0.769   6.454 -0.7228 -1.9895  1.8097
 6906SOL     OW21433   3.693   3.626   4.040  0.7782 -0.1785  0.1567
 6906SOL    HW121434   3.677   3.717   4.017  0.5949 -0.0676  0.7292
 6906SOL    HW221435   3.696   3.580   3.956 -0.0344  0.2007 -0.0793
 6907SOL     OW21436   3.364   0.299   4.020 -0.7508  0.1767  0.2969
 6907SOL    HW121437   3.443   0.248   4.000  1.8572  4.3890 -0.6544
 6907SOL    HW221438   3.348   0.283   4.113  1.7405 -0.0400  0.7134
 6908SOL     OW21439   2.246   0.099   6.370  0.3492  0.1933  0.5376
 6908SOL    HW121440   2.245   0.194   6.377  1.0525  0.1951  0.6927
 6908SOL    HW221441   2.251   0.082   6.276  0.9468  0.3253  0.5418
 6909SOL     OW21442   5.683   4.134   4.343 -0.1713 -0.0944 -0.2695
 6909SOL    HW121443   5.657   4.103   4.430  0.3559 -1.8773 -0.7210
 6909SOL    HW221444   5.779   4.126   4.344 -0.1490  0.1338 -0.9148
 6910SOL     OW21445   6.705   5.986   5.842  0.2693  0.1360  0.2650
 6910SOL    HW121446   6.701   6.038   5.762 -0.7180  0.5722  0.5855
 6910SOL    HW221447   6.792   5.946   5.841  1.0474  1.7951  0.0023
 6911SOL     OW21448   4.935   4.539   6.204 -0.2747  0.6376 -0.1171
 6911SOL    HW121449   4.881   4.516   6.128  0.2288  0.6202 -0.4735
 6911SOL    HW221450   4.907   4.477   6.272 -0.0512  0.0032 -0.5884
 6912SOL     OW21451   0.757   6.255   5.695  0.1509  0.5832  0.4659
 6912SOL    HW121452   0.735   6.321   5.630  0.8617 -0.5064 -0.9091
 6912SOL    HW221453   0.836   6.213   5.661 -0.2735 -0.9567  1.3295
 6913SOL     OW21454   0.742   4.929   2.072 -0.9119  0.3800 -0.5761
 6913SOL    HW121455   0.819   4.979   2.097 -0.5947 -0.1879 -0.4087
 6913SOL    HW221456   0.672   4.960   2.130 -0.8792  1.0928 -0.9181
 6914SOL     OW21457   1.403   0.449   3.412  0.6318  0.1831 -0.2338
 6914SOL    HW121458   1.498   0.435   3.407  0.4425 -1.1775 -0.1749
 6914SOL    HW221459   1.392   0.516   3.480  1.6514  1.5917 -1.3978
 6915SOL     OW21460   2.026   0.960   6.200  0.4853  0.2424  0.0111
 6915SOL    HW121461   2.093   0.900   6.167  0.9109  0.5172  0.3734
 6915SOL    HW221462   2.038   0.960   6.295 -1.7484 -1.7554  0.3469
 6916SOL     OW21463   1.086   6.333   2.509  0.4424  0.1002 -0.0528
 6916SOL    HW121464   1.140   6.367   2.580 -1.0157  1.2366  0.5350
 6916SOL    HW221465   1.018   6.281   2.552  1.6946 -2.2569 -0.8550
 6917SOL     OW21466   4.578   6.106   0.683  0.8305  0.3607 -0.0044
 6917SOL    HW121467   4.608   6.141   0.767  1.1726  0.2864 -0.0959
 6917SOL    HW221468   4.650   6.123   0.623 -0.2418  2.2831 -0.7747
 6918SOL     OW21469   3.123   5.165   5.253  0.0578 -0.6140 -0.0544
 6918SOL    HW121470   3.184   5.109   5.204  0.5754  0.5012 -0.6866
 6918SOL    HW221471   3.067   5.204   5.186 -1.4540 -1.7266  0.5295
 6919SOL     OW21472   3.977   5.317   3.610  0.0886 -0.8737 -0.7273
 6919SOL    HW121473   4.025   5.303   3.529  1.0888 -0.2195 -0.2560
 6919SOL    HW221474   4.033   5.279   3.678 -0.1650 -0.3262 -0.2038
 6920SOL     OW21475   4.953   0.938   2.985 -0.5793  0.7925 -0.1894
 6920SOL    HW121476   5.012   1.012   2.974  1.4192 -0.6981  0.1251
 6920SOL    HW221477   4.948   0.924   3.080 -0.5723  0.2311 -0.2685
 6921SOL     OW21478   2.817   2.716   6.520 -0.0582  0.4532  0.1974
 6921SOL    HW121479   2.744   2.655   6.533  0.0417  0.3587  0.3209
 6921SOL    HW221480   2.779   2.802   6.533 -0.8363  0.6151 -2.7626
 6922SOL     OW21481   5.776   0.195   3.584 -0.1954 -0.1050 -0.2786
 6922SOL    HW121482   5.691   0.187   3.542 -0.0904  0.4401 -0.6085
 6922SOL    HW221483   5.758   0.192   3.678 -0.5207 -0.4988 -0.3531
 6923SOL     OW21484   1.739   5.473   4.697 -0.0413 -0.2669  0.0382
 6923SOL    HW121485   1.768   5.498   4.784 -2.2503  0.3423  0.6443
 6923SOL    HW221486   1.770   5.383   4.685  2.4253  0.5183  0.4260
 6924SOL     OW21487   6.165   1.427   0.145  0.5566 -0.6803  0.2954
 6924SOL    HW121488   6.113   1.360   0.100 -0.6087  0.1522  0.3690
 6924SOL    HW221489   6.118   1.508   0.128  2.1918  0.1761 -0.1245
 6925SOL     OW21490   2.220   3.807   5.219  0.4611 -0.1800 -0.0287
 6925SOL    HW121491   2.161   3.880   5.234 -0.0082  0.2082 -3.2981
 6925SOL    HW221492   2.182   3.734   5.269 -1.3178  0.7547 -0.0017
 6926SOL     OW21493   0.580   1.952   6.308 -0.1922 -0.0601 -0.6456
 6926SOL    HW121494   0.572   1.931   6.401  0.8465 -0.4201 -0.6243
 6926SOL    HW221495   0.490   1.952   6.275 -0.6525  1.0585  0.5681
 6927SOL     OW21496   4.133   2.422   2.196  0.1379 -0.2363  0.6851
 6927SOL    HW121497   4.181   2.385   2.122  1.9118  1.2065  1.0876
 6927SOL    HW221498   4.178   2.389   2.274 -0.6190 -0.3026  1.1002
 6928SOL     OW21499   2.417   5.730   1.425 -0.1886  0.0796 -0.4270
 6928SOL    HW121500   2.396   5.637   1.436 -0.7916  0.2518 -0.1023
 6928SOL    HW221501   2.475   5.732   1.349 -0.4766 -0.5228 -0.6686
 6929SOL     OW21502   5.851   1.408   5.022  0.1462  0.1750 -0.0433
 6929SOL    HW121503   5.907   1.483   5.001 -0.2998  0.6698  0.5224
 6929SOL    HW221504   5.778   1.445   5.072 -0.2000 -0.6031  0.0443
 6930SOL     OW21505   4.367   4.716   5.487  0.4603  0.1805  0.2888
 6930SOL    HW121506   4.348   4.746   5.576  1.0984 -0.4614  0.6559
 6930SOL    HW221507   4.459   4.688   5.491  0.6809  0.7208 -0.7337
 6931SOL     OW21508   4.139   1.620   0.466  0.4992 -0.0734  0.5182
 6931SOL    HW121509   4.127   1.622   0.561 -1.3366 -1.5282  0.3288
 6931SOL    HW221510   4.069   1.564   0.434  1.8846 -0.6470 -1.5928
 6932SOL     OW21511   6.614   3.938   2.111  0.6034  0.2343 -0.1273
 6932SOL    HW121512   6.591   3.900   2.027  0.4087  0.3400 -0.1225
 6932SOL    HW221513   6.530   3.948   2.157  0.4655  2.2094 -0.7720
 6933SOL     OW21514   4.303   1.402   5.087  0.0165 -0.5657  0.2513
 6933SOL    HW121515   4.341   1.356   5.162 -1.8538 -1.9074  0.4016
 6933SOL    HW221516   4.290   1.491   5.119  2.6576 -0.1471  0.3039
 6934SOL     OW21517   0.907   1.537   5.353 -0.3243 -0.2692 -0.3854
 6934SOL    HW121518   0.815   1.512   5.361 -0.0489 -1.1436  0.1235
 6934SOL    HW221519   0.917   1.560   5.260 -1.2190  0.5328 -0.2905
 6935SOL     OW21520   5.315   2.698   5.458  0.1874 -0.4693  0.0842
 6935SOL    HW121521   5.294   2.789   5.435 -2.1356 -1.0551 -0.1627
 6935SOL    HW221522   5.363   2.665   5.383  0.1947  0.2551 -0.2380
 6936SOL     OW21523   2.756   6.074   3.186  0.4421 -0.7519 -0.5571
 6936SOL    HW121524   2.734   6.010   3.253 -4.4752  1.9140  0.5523
 6936SOL    HW221525   2.811   6.138   3.231 -3.3403  1.3624  1.2968
 6937SOL     OW21526   3.133   3.225   2.707 -0.2152  0.0812  0.0633
 6937SOL    HW121527   3.133   3.307   2.658  0.4564  0.5064  0.7639
 6937SOL    HW221528   3.053   3.228   2.759 -0.3018  0.1926 -0.0757
 6938SOL     OW21529   5.071   3.604   4.099 -0.0140 -0.0784  0.0672
 6938SOL    HW121530   4.991   3.648   4.074 -1.1525 -1.6542  0.8655
 6938SOL    HW221531   5.075   3.614   4.194  0.4261 -0.5328  0.0984
 6939SOL     OW21532   5.825   1.433   0.170  0.4067  0.5731 -0.1573
 6939SOL    HW121533   5.785   1.519   0.152 -0.2993  0.3512  0.3558
 6939SOL    HW221534   5.855   1.439   0.261 -0.3972 -0.0142  0.1531
 6940SOL     OW21535   1.662   1.913   2.478 -0.2028  0.0458  0.8319
 6940SOL    HW121536   1.706   1.893   2.561 -0.8849  0.4125  1.2914
 6940SOL    HW221537   1.688   2.003   2.458 -0.4419  0.1349  0.9153
 6941SOL     OW21538   2.999   0.309   3.806  0.3527 -0.1646  0.3739
 6941SOL    HW121539   2.994   0.358   3.724 -0.2074  1.5245  1.3877
 6941SOL    HW221540   2.908   0.289   3.828  0.4946 -0.5517  0.6154
 6942SOL     OW21541   3.635   4.461   0.132 -0.0471 -0.1164 -0.3686
 6942SOL    HW121542   3.593   4.378   0.112  1.3141 -0.6847 -0.8961
 6942SOL    HW221543   3.718   4.459   0.085  0.6628  0.9131  0.7905
 6943SOL     OW21544   1.087   0.126   4.493 -0.3686  0.1578 -0.1534
 6943SOL    HW121545   1.079   0.034   4.516 -0.0666  0.0252 -0.5793
 6943SOL    HW221546   1.055   0.173   4.570  0.9955 -0.2691  0.6905
 6944SOL     OW21547   0.868   3.993   5.360 -0.5102  0.1020 -0.2557
 6944SOL    HW121548   0.883   4.058   5.291  2.4962 -2.1655 -1.8869
 6944SOL    HW221549   0.827   3.919   5.315 -0.9138 -0.3911  0.9003
 6945SOL     OW21550   5.864   1.522   3.122  0.0987  0.8649 -0.2898
 6945SOL    HW121551   5.887   1.540   3.031  0.9002  0.1301 -0.2372
 6945SOL    HW221552   5.945   1.491   3.162 -0.5500 -0.0412  0.3488
 6946SOL     OW21553   0.391   4.875   6.411 -0.0257 -0.5883  0.0732
 6946SOL    HW121554   0.398   4.783   6.385 -1.5488 -1.0594  1.2803
 6946SOL    HW221555   0.481   4.903   6.427  0.3702 -2.1027  0.5098
 6947SOL     OW21556   5.490   6.267   3.694  0.2226 -0.7925 -0.3021
 6947SOL    HW121557   5.525   6.198   3.637 -0.2865 -2.5567  1.4697
 6947SOL    HW221558   5.464   6.221   3.774 -0.0861  1.4747  0.9353
 6948SOL     OW21559   0.706   3.966   0.910  0.3251 -0.7424 -0.2352
 6948SOL    HW121560   0.613   3.990   0.915 -0.0337 -2.3569  1.7746
 6948SOL    HW221561   0.708   3.889   0.854  0.5827 -0.0961 -1.1119
 6949SOL     OW21562   2.630   6.612   5.993 -0.2618  0.8317  0.0044
 6949SOL    HW121563   2.725   6.616   5.982 -0.1605 -1.1054  0.0303
 6949SOL    HW221564   2.615   6.531   6.041 -2.1484 -0.4781 -2.6934
 6950SOL     OW21565   6.622   1.508   2.121 -0.4818  0.2052 -0.2373
 6950SOL    HW121566   6.572   1.570   2.174 -0.2467  1.3569 -1.3269
 6950SOL    HW221567   6.558   1.468   2.063 -0.2894  1.0438 -1.0370
 6951SOL     OW21568   2.170   2.808   5.998  0.0363 -0.5248 -0.1956
 6951SOL    HW121569   2.107   2.807   6.070 -0.4126 -1.9100 -0.5751
 6951SOL    HW221570   2.226   2.732   6.014  2.5137  1.4650  0.8806
 6952SOL     OW21571   6.247   6.340   0.218 -0.3663  0.0431 -0.1341
 6952SOL    HW121572   6.182   6.274   0.199  1.5781 -2.4364  1.5126
 6952SOL    HW221573   6.226   6.369   0.307 -0.6126  0.9385 -0.4777
 6953SOL     OW21574   0.567   3.692   3.174 -0.0580 -0.5719  0.4971
 6953SOL    HW121575   0.514   3.691   3.254 -1.3150 -0.5835 -0.3207
 6953SOL    HW221576   0.503   3.686   3.103  0.9748  0.5048 -0.5412
 6954SOL     OW21577   3.310   5.421   0.107  0.0405 -0.3363  0.1915
 6954SOL    HW121578   3.304   5.472   0.026 -1.0781 -0.4391  0.2013
 6954SOL    HW221579   3.336   5.334   0.079  0.9981 -0.0217  0.0799
 6955SOL     OW21580   0.262   0.642   1.346 -0.6068 -0.5853  0.2580
 6955SOL    HW121581   0.292   0.578   1.282  0.2020  0.0051  0.0498
 6955SOL    HW221582   0.340   0.663   1.398 -1.0572 -0.4049  0.8734
 6956SOL     OW21583   4.582   1.956   3.662  0.0753 -0.5707 -0.1739
 6956SOL    HW121584   4.651   1.893   3.683 -0.4789 -1.2618 -0.3692
 6956SOL    HW221585   4.545   1.923   3.580 -1.3905 -0.9921  0.6411
 6957SOL     OW21586   4.729   4.195   3.884  0.0406  0.7467 -0.2902
 6957SOL    HW121587   4.647   4.150   3.906 -0.0925  1.6355  1.1356
 6957SOL    HW221588   4.703   4.259   3.817 -0.2232  0.2859 -0.6296
 6958SOL     OW21589   2.029   6.540   0.834 -0.6143  0.2387  0.0769
 6958SOL    HW121590   1.994   6.629   0.841  0.6238  0.9575 -2.5893
 6958SOL    HW221591   2.124   6.551   0.836 -0.4534 -1.2448  1.9488
 6959SOL     OW21592   2.850   4.906   4.995  0.3313  0.0580  0.7919
 6959SOL    HW121593   2.936   4.948   4.988  0.7617 -1.0790 -0.9895
 6959SOL    HW221594   2.867   4.825   5.043  0.3417 -0.4048  0.0088
 6960SOL     OW21595   1.638   5.711   6.045 -0.2553 -0.1141 -0.4929
 6960SOL    HW121596   1.595   5.657   6.111 -1.6053  0.2419 -1.0482
 6960SOL    HW221597   1.729   5.715   6.072 -0.2441 -2.2231 -0.1512
 6961SOL     OW21598   4.010   2.035   4.513  0.1776  0.0043  0.2340
 6961SOL    HW121599   4.076   1.968   4.499  1.6941  1.0785  2.0693
 6961SOL    HW221600   4.009   2.085   4.431 -0.7154 -1.9575 -1.0211
 6962SOL     OW21601   2.058   6.008   5.691  0.1552 -0.7558 -0.1224
 6962SOL    HW121602   2.151   5.988   5.700  0.1214 -0.4261  1.0180
 6962SOL    HW221603   2.016   5.955   5.759 -0.4583 -0.6426 -0.4121
 6963SOL     OW21604   1.007   0.343   2.494  0.1880  0.1158 -0.1644
 6963SOL    HW121605   0.998   0.342   2.399 -0.6371  0.2561 -0.0926
 6963SOL    HW221606   0.984   0.254   2.521  1.7599 -0.3157 -0.2055
 6964SOL     OW21607   5.383   5.354   3.483 -0.6364  0.1496 -0.1130
 6964SOL    HW121608   5.324   5.303   3.539 -0.3469 -0.3370 -0.2526
 6964SOL    HW221609   5.444   5.289   3.447  0.1555  0.6936  0.2465
 6965SOL     OW21610   4.564   1.598   4.302  0.3680  0.0614 -0.4224
 6965SOL    HW121611   4.590   1.602   4.210 -0.9606 -0.4360 -0.8337
 6965SOL    HW221612   4.633   1.548   4.345  1.9867  1.9313 -0.7722
 6966SOL     OW21613   5.350   2.721   4.806 -0.3173  0.0270  0.2082
 6966SOL    HW121614   5.432   2.767   4.790 -1.3014  2.1481  1.1643
 6966SOL    HW221615   5.378   2.634   4.835  1.6381  1.1710  1.9350
 6967SOL     OW21616   2.146   3.731   2.346  0.1363  0.8339 -0.0026
 6967SOL    HW121617   2.124   3.657   2.402 -1.3817  1.9117  0.8525
 6967SOL    HW221618   2.076   3.732   2.281  1.4418  0.0942 -1.4564
 6968SOL     OW21619   0.890   2.927   1.054  0.2560  0.3478  0.0483
 6968SOL    HW121620   0.927   2.973   0.979  1.6788 -1.2931 -0.2891
 6968SOL    HW221621   0.965   2.910   1.111 -0.6814  0.8744  1.4808
 6969SOL     OW21622   4.261   4.875   5.280 -0.1587 -0.3237 -0.8193
 6969SOL    HW121623   4.295   4.830   5.358  1.3508  1.8428 -0.1877
 6969SOL    HW221624   4.313   4.839   5.208  2.6021  1.9386 -0.0377
 6970SOL     OW21625   2.009   5.734   1.598  0.0302 -0.5562  0.2046
 6970SOL    HW121626   2.036   5.770   1.682  0.5436 -1.0687  0.2622
 6970SOL    HW221627   2.069   5.774   1.534  0.6871 -1.3887  0.2842
 6971SOL     OW21628   2.201   6.522   3.241  0.1426 -0.4616  0.1093
 6971SOL    HW121629   2.199   6.503   3.334  1.1068 -1.3727 -0.0457
 6971SOL    HW221630   2.143   6.457   3.202  1.6031 -1.6559 -0.1620
 6972SOL     OW21631   0.169   1.512   5.662  0.0917 -0.5350  0.5044
 6972SOL    HW121632   0.172   1.420   5.636 -0.7800 -0.6264  0.7103
 6972SOL    HW221633   0.194   1.512   5.754  0.9668 -0.4590  0.2759
 6973SOL     OW21634   5.703   0.228   6.003 -0.1493  0.2026 -0.1063
 6973SOL    HW121635   5.692   0.286   6.079  2.3730  0.3042  0.2096
 6973SOL    HW221636   5.781   0.261   5.958 -0.7324 -0.7963 -1.9060
 6974SOL     OW21637   1.280   4.350   5.701  0.2165  0.3636 -0.0205
 6974SOL    HW121638   1.278   4.337   5.796  1.7016  1.1277  0.1372
 6974SOL    HW221639   1.284   4.262   5.664  1.4097  0.1076  0.6959
 6975SOL     OW21640   6.656   3.985   0.036  0.0460  0.1457  0.0529
 6975SOL    HW121641   6.568   3.989   0.075 -0.7007 -1.5459 -1.3583
 6975SOL    HW221642   6.640   3.969  -0.057  1.8568 -1.6436  0.0191
 6976SOL     OW21643   0.465   3.849   4.812 -0.6292 -0.2965  0.0152
 6976SOL    HW121644   0.476   3.944   4.818 -2.1554  0.0286 -1.9199
 6976SOL    HW221645   0.471   3.819   4.902  0.0238  1.6290  0.6416
 6977SOL     OW21646   0.482   5.173   5.949 -0.0971  0.2576 -1.0185
 6977SOL    HW121647   0.538   5.156   6.025 -0.4582  0.6539 -0.6642
 6977SOL    HW221648   0.523   5.248   5.905 -0.9469  1.2352 -0.1618
 6978SOL     OW21649   1.912   6.435   1.665  0.2007  0.0732 -0.1475
 6978SOL    HW121650   1.862   6.458   1.744  0.3037  0.7803 -0.2886
 6978SOL    HW221651   2.000   6.416   1.697 -0.0471 -0.7595  0.0492
 6979SOL     OW21652   1.320   3.415   6.405  0.4522 -0.2291 -0.6691
 6979SOL    HW121653   1.413   3.424   6.382  0.4757  0.4505 -0.3203
 6979SOL    HW221654   1.285   3.353   6.340  0.7561  0.8568 -1.8804
 6980SOL     OW21655   2.489   2.893   5.007  0.3136 -0.4398  0.2336
 6980SOL    HW121656   2.438   2.945   5.069  0.7946 -1.1358  1.2160
 6980SOL    HW221657   2.494   2.947   4.928  0.3305  0.7542  1.0536
 6981SOL     OW21658   4.016   5.354   6.573  0.5547  0.0834 -0.0199
 6981SOL    HW121659   4.024   5.290   6.502 -0.1750  0.4835 -0.4727
 6981SOL    HW221660   4.075   5.425   6.549 -0.8380  0.9220 -1.0148
 6982SOL     OW21661   1.073   5.372   0.670  0.3120  0.0559  0.5679
 6982SOL    HW121662   1.156   5.343   0.709  0.5815  1.7389  1.2940
 6982SOL    HW221663   1.095   5.455   0.627 -1.3010  1.2848  2.0414
 6983SOL     OW21664   5.758   3.965   2.000  0.4155  0.4108 -0.3056
 6983SOL    HW121665   5.847   3.972   1.966  0.8590 -1.6874  0.3525
 6983SOL    HW221666   5.707   3.928   1.927 -0.3456  3.2584 -1.2940
 6984SOL     OW21667   2.332   1.223   1.961  0.4938  0.2729  0.0667
 6984SOL    HW121668   2.238   1.242   1.957  0.7234  1.2959 -0.4296
 6984SOL    HW221669   2.349   1.171   1.883  0.8303  2.2766 -1.2281
 6985SOL     OW21670   1.913   4.219   1.574  0.2783  0.2107  0.1922
 6985SOL    HW121671   1.819   4.236   1.564  0.1334 -0.9094 -0.3988
 6985SOL    HW221672   1.946   4.217   1.484  0.4847 -1.4943  0.2919
 6986SOL     OW21673   4.730   2.101   0.834 -0.2642  0.9141  0.1681
 6986SOL    HW121674   4.739   2.071   0.925  1.3418 -0.5986 -0.4844
 6986SOL    HW221675   4.691   2.027   0.788 -1.1882  1.7250 -0.3674
 6987SOL     OW21676   3.061   1.404   5.694  0.5317  0.1233 -0.8412
 6987SOL    HW121677   3.055   1.475   5.630  0.4829  0.9623  0.0866
 6987SOL    HW221678   2.987   1.347   5.673 -0.1056  0.9474 -0.8833
 6988SOL     OW21679   4.183   0.100   2.207 -0.3151 -0.1076  0.1537
 6988SOL    HW121680   4.251   0.130   2.147 -1.2675  0.2792 -0.7699
 6988SOL    HW221681   4.168   0.173   2.266 -1.1055  0.4524 -0.7187
 6989SOL     OW21682   3.162   2.047   2.434 -0.4473  0.1965  0.3253
 6989SOL    HW121683   3.195   1.982   2.373 -0.6204  0.9849 -0.6220
 6989SOL    HW221684   3.154   2.001   2.517  2.0490 -0.2713  0.3312
 6990SOL     OW21685   4.453   2.097   3.370 -0.3963 -0.5693 -0.3587
 6990SOL    HW121686   4.502   2.016   3.383  1.4064  0.5380 -0.1778
 6990SOL    HW221687   4.363   2.074   3.395  0.5608 -1.8463  2.1250
 6991SOL     OW21688   0.666   6.029   4.577  0.1425  0.0253 -0.5408
 6991SOL    HW121689   0.614   6.046   4.498 -0.7314 -0.0630  0.0027
 6991SOL    HW221690   0.673   5.934   4.581  0.4062  0.0405 -0.6511
 6992SOL     OW21691   1.813   1.376   6.118 -0.4431 -0.3924 -0.4335
 6992SOL    HW121692   1.798   1.395   6.026 -0.0666  0.0422 -0.4120
 6992SOL    HW221693   1.820   1.463   6.159 -2.6355 -0.5680  0.3489
 6993SOL     OW21694   2.226   3.364   3.585 -0.0370 -0.1700  0.0777
 6993SOL    HW121695   2.300   3.329   3.634 -0.2982  0.5210  0.9871
 6993SOL    HW221696   2.261   3.383   3.498  0.9617  0.5397  0.6250
 6994SOL     OW21697   1.447   5.504   1.235 -0.4622 -0.4639 -0.1109
 6994SOL    HW121698   1.387   5.579   1.245 -0.0123 -0.1022 -0.1355
 6994SOL    HW221699   1.506   5.511   1.310  2.0831  1.4815 -2.2008
 6995SOL     OW21700   5.431   5.834   0.666  0.0364 -0.1069  0.1989
 6995SOL    HW121701   5.497   5.767   0.646 -0.0224  0.0176 -0.4177
 6995SOL    HW221702   5.401   5.863   0.580 -1.3661 -0.7049  0.4780
 6996SOL     OW21703   5.359   3.096   2.538 -0.2874 -0.5364 -0.3130
 6996SOL    HW121704   5.438   3.072   2.489  0.4204 -0.5316  0.8188
 6996SOL    HW221705   5.354   3.191   2.530  1.5148 -0.1857  2.1158
 6997SOL     OW21706   1.846   5.780   3.581 -0.6752 -0.0313  0.3785
 6997SOL    HW121707   1.909   5.720   3.621  0.6940  2.3386  1.8149
 6997SOL    HW221708   1.869   5.780   3.488  1.1010  0.3986  0.8024
 6998SOL     OW21709   3.897   2.867   5.571 -0.5730  0.5226  0.5509
 6998SOL    HW121710   3.903   2.946   5.624  1.9753 -0.6724  2.1537
 6998SOL    HW221711   3.813   2.827   5.597 -0.7922  1.5313  1.4284
 6999SOL     OW21712   4.241   2.637   0.057 -0.1989 -0.6678 -0.1846
 6999SOL    HW121713   4.311   2.653   0.120 -0.6505  0.2129  0.1044
 6999SOL    HW221714   4.269   2.559   0.009  0.8684 -0.4571  0.0854
 7000SOL     OW21715   0.161   2.078   4.602 -0.3037  0.7980  0.4957
 7000SOL    HW121716   0.168   2.120   4.688 -1.0310  0.7743  0.5639
 7000SOL    HW221717   0.079   2.110   4.566  1.1014  2.6670 -1.1933
 7001SOL     OW21718   3.762   3.823   6.194 -0.3293  0.3828 -0.6141
 7001SOL    HW121719   3.816   3.762   6.144 -1.1179 -1.1425  0.3543
 7001SOL    HW221720   3.819   3.852   6.266  0.4957  1.8680 -1.8323
 7002SOL     OW21721   5.149   0.401   1.860 -0.1289 -0.1319 -0.0439
 7002SOL    HW121722   5.102   0.456   1.922 -0.7073 -0.0343 -0.5660
 7002SOL    HW221723   5.241   0.427   1.869 -0.0008 -1.1879  1.8637
 7003SOL     OW21724   5.850   0.220   2.180  0.4872 -0.3686 -0.9875
 7003SOL    HW121725   5.843   0.304   2.226 -0.1329 -0.4666 -0.8959
 7003SOL    HW221726   5.816   0.238   2.093 -0.4238 -0.7201 -0.7121
 7004SOL     OW21727   1.798   3.125   3.796  0.1722 -0.1653 -0.0821
 7004SOL    HW121728   1.707   3.097   3.796  0.3331 -0.7326  0.5333
 7004SOL    HW221729   1.822   3.134   3.704 -1.0430  1.8267 -0.2305
 7005SOL     OW21730   0.128   0.892   4.741  0.4973  0.3295  0.0878
 7005SOL    HW121731   0.181   0.944   4.802 -0.6904  2.3450 -0.5216
 7005SOL    HW221732   0.055   0.861   4.795 -0.4038  1.8759 -0.2096
 7006SOL     OW21733   4.396   2.905   5.167 -0.1830  0.1956 -0.2991
 7006SOL    HW121734   4.369   2.913   5.259  0.8925  0.2909  0.0121
 7006SOL    HW221735   4.317   2.876   5.122 -0.9821  1.0961  0.4962
 7007SOL     OW21736   2.298   0.501   3.457 -0.2168 -0.2700  0.1942
 7007SOL    HW121737   2.251   0.482   3.539 -2.3849 -1.5230 -1.2814
 7007SOL    HW221738   2.259   0.583   3.426  0.4122  0.0568  0.2513
 7008SOL     OW21739   4.565   0.702   5.137 -0.0336  1.0181  0.5349
 7008SOL    HW121740   4.503   0.741   5.076  0.5049  0.2518 -0.5453
 7008SOL    HW221741   4.515   0.633   5.181 -0.2567  1.1540  0.4961
 7009SOL     OW21742   2.254   6.106   4.551  0.2094  0.0073 -0.0262
 7009SOL    HW121743   2.342   6.074   4.531  0.5299  0.3202  0.8607
 7009SOL    HW221744   2.212   6.033   4.595  0.2953  0.1359  0.2698
 7010SOL     OW21745   5.973   1.306   3.946  0.3810  0.0580  0.2029
 7010SOL    HW121746   5.888   1.281   3.984  0.2437 -1.1372 -0.9000
 7010SOL    HW221747   5.951   1.340   3.859  0.9921  0.2425  0.1190
 7011SOL     OW21748   1.023   2.980   3.780  0.0379 -0.0759 -0.5425
 7011SOL    HW121749   1.067   3.064   3.776  0.1515 -0.0769  0.4736
 7011SOL    HW221750   1.055   2.932   3.703  1.2897  0.1769 -0.1986
 7012SOL     OW21751   3.499   6.275   6.101  0.3849 -0.1525 -0.1435
 7012SOL    HW121752   3.474   6.311   6.186 -0.3791 -3.4902  1.1238
 7012SOL    HW221753   3.582   6.231   6.117  0.8667  0.2565 -1.4411
 7013SOL     OW21754   0.408   4.376   1.026  0.1457 -0.4270 -0.4523
 7013SOL    HW121755   0.450   4.332   0.951  2.2293 -1.9665  1.5516
 7013SOL    HW221756   0.426   4.319   1.100 -1.5168  1.2991  1.3352
 7014SOL     OW21757   6.183   1.009   2.981 -0.3474 -0.0470 -0.1900
 7014SOL    HW121758   6.109   0.961   3.018  0.2549  0.0021  1.1199
 7014SOL    HW221759   6.175   1.097   3.019  0.6805 -0.1965  0.3801
 7015SOL     OW21760   3.466   2.194   2.759  0.0647 -0.1110 -0.2502
 7015SOL    HW121761   3.484   2.236   2.843 -0.5866 -0.2662 -0.0269
 7015SOL    HW221762   3.440   2.105   2.781 -1.0500  0.1300 -0.5363
 7016SOL     OW21763   5.821   4.733   4.351  0.3881 -0.2735  0.2349
 7016SOL    HW121764   5.853   4.681   4.276 -1.1575 -0.5705 -0.2275
 7016SOL    HW221765   5.803   4.819   4.314 -0.3254 -0.4052  0.2675
 7017SOL     OW21766   0.658   5.031   4.055  0.6396 -0.4162 -0.2352
 7017SOL    HW121767   0.659   4.939   4.028  1.1676 -0.6320  0.5143
 7017SOL    HW221768   0.605   5.032   4.134  0.8746 -0.1154 -0.0830
 7018SOL     OW21769   6.603   5.454   1.159 -0.2440  0.4089  0.7121
 7018SOL    HW121770   6.554   5.465   1.078  0.0061  0.3471  0.5547
 7018SOL    HW221771   6.677   5.398   1.136 -0.1834  0.3748  0.9853
 7019SOL     OW21772   4.577   5.450   5.966  0.2755 -0.3278  0.1177
 7019SOL    HW121773   4.547   5.439   5.876 -1.3585  0.5078  0.5330
 7019SOL    HW221774   4.633   5.374   5.983 -0.3594 -1.0979 -1.2187
 7020SOL     OW21775   6.154   1.938   5.360  0.4791 -0.0118 -0.1826
 7020SOL    HW121776   6.172   1.870   5.425  1.5217  1.3729  1.0180
 7020SOL    HW221777   6.112   2.008   5.410 -0.1484  0.4255 -1.3108
 7021SOL     OW21778   0.623   2.429   2.051 -0.4122 -0.4227  0.4919
 7021SOL    HW121779   0.566   2.354   2.034 -2.3042  0.8017  1.2096
 7021SOL    HW221780   0.645   2.421   2.144 -0.9657  0.1427  0.6713
 7022SOL     OW21781   4.046   2.732   4.317 -0.2124 -0.0913  0.5714
 7022SOL    HW121782   4.065   2.688   4.234 -1.2545 -3.2424  1.9188
 7022SOL    HW221783   3.963   2.777   4.301 -0.4565 -0.7537 -0.0910
 7023SOL     OW21784   2.455   0.721   0.248 -0.0551  0.4104 -0.0294
 7023SOL    HW121785   2.371   0.767   0.242 -0.2833  0.1836  1.2948
 7023SOL    HW221786   2.436   0.642   0.297  0.9797  0.4747  0.4986
 7024SOL     OW21787   0.787   3.078   2.030 -0.2829 -0.2388  0.1729
 7024SOL    HW121788   0.853   3.126   1.980  0.1981 -0.8791  0.1830
 7024SOL    HW221789   0.831   3.056   2.113 -1.7341  2.5918  1.7559
 7025SOL     OW21790   5.139   0.817   1.073 -0.0777  0.0501  0.6965
 7025SOL    HW121791   5.226   0.777   1.069 -1.3492 -2.6679 -0.9485
 7025SOL    HW221792   5.127   0.856   0.986 -0.2521  1.0064  1.1425
 7026SOL     OW21793   5.067   3.574   2.645 -0.3120  0.2228  0.4957
 7026SOL    HW121794   4.973   3.556   2.646  0.2229 -2.6806  1.2901
 7026SOL    HW221795   5.107   3.498   2.686  2.4847  0.8876 -0.8622
 7027SOL     OW21796   4.984   6.606   2.949  0.9339  0.0000 -0.3614
 7027SOL    HW121797   4.927   6.599   2.873  2.1543  0.1628 -1.3126
 7027SOL    HW221798   4.929   6.644   3.018 -0.8514 -2.3720 -0.4357
 7028SOL     OW21799   5.698   1.633   1.888 -0.3159  0.0390 -0.0244
 7028SOL    HW121800   5.608   1.652   1.913  0.3854  2.0009  1.1409
 7028SOL    HW221801   5.692   1.602   1.798 -2.4134 -2.5630  0.9458
 7029SOL     OW21802   1.425   2.288   4.501 -0.0340  0.2896  0.2399
 7029SOL    HW121803   1.498   2.347   4.521 -0.1951  1.1200 -1.5202
 7029SOL    HW221804   1.448   2.249   4.417  0.8483 -3.4625  2.1078
 7030SOL     OW21805   5.960   6.584   4.869 -0.1553  0.1650  0.0967
 7030SOL    HW121806   6.040   6.595   4.920 -1.2950  1.0147  1.7566
 7030SOL    HW221807   5.889   6.594   4.933 -1.5781 -1.4445 -1.1643
 7031SOL     OW21808   1.747   3.043   3.277  0.2486  0.1343 -0.5109
 7031SOL    HW121809   1.831   3.088   3.267  0.2715  0.2595  0.2324
 7031SOL    HW221810   1.768   2.950   3.263  0.3170  0.2764 -1.3873
 7032SOL     OW21811   4.813   4.688   3.021  0.0783 -0.6695 -0.4090
 7032SOL    HW121812   4.872   4.731   2.960 -0.4101 -0.4889 -0.7575
 7032SOL    HW221813   4.726   4.701   2.984 -0.2412 -0.4163  0.4141
 7033SOL     OW21814   0.400   0.806   5.705  0.3873  0.3077  0.2782
 7033SOL    HW121815   0.313   0.845   5.703  0.4344  0.6347  3.0733
 7033SOL    HW221816   0.455   0.871   5.748  1.4118 -1.0062  1.0080
 7034SOL     OW21817   3.839   6.540   6.163  0.3946 -0.4600  0.0416
 7034SOL    HW121818   3.914   6.506   6.211  0.8153  0.1735 -0.1675
 7034SOL    HW221819   3.786   6.584   6.230  1.4096  1.1726 -0.1897
 7035SOL     OW21820   1.782   4.343   3.310  0.7121 -0.0095 -0.2614
 7035SOL    HW121821   1.689   4.363   3.323  1.0858  0.3023  2.3297
 7035SOL    HW221822   1.822   4.428   3.289  0.8196  0.3789  1.4143
 7036SOL     OW21823   1.568   0.660   6.596 -0.2440 -0.5090 -0.0228
 7036SOL    HW121824   1.619   0.579   6.606 -1.5427 -1.4924 -1.2099
 7036SOL    HW221825   1.485   0.641   6.640 -0.9729 -0.2277 -1.2532
 7037SOL     OW21826   5.618   5.268   1.431  0.0270 -0.2444 -0.1567
 7037SOL    HW121827   5.632   5.224   1.515 -1.4958 -0.5420 -0.0491
 7037SOL    HW221828   5.654   5.355   1.444  2.8925 -1.3335 -0.2993
 7038SOL     OW21829   4.234   4.805   6.548  0.4418  0.0408  0.3924
 7038SOL    HW121830   4.298   4.734   6.539 -1.1328 -1.3780  0.1079
 7038SOL    HW221831   4.214   4.830   6.458 -0.4416 -0.4843  0.4381
 7039SOL     OW21832   4.773   1.485   1.140 -0.4156 -0.0622 -0.3461
 7039SOL    HW121833   4.784   1.523   1.053 -2.1689 -0.1458 -0.6219
 7039SOL    HW221834   4.843   1.524   1.192  0.1707  0.5890 -1.5884
 7040SOL     OW21835   2.030   1.683   3.393  0.0875 -0.1987 -0.7241
 7040SOL    HW121836   2.093   1.610   3.391 -0.9591 -1.1452  0.1180
 7040SOL    HW221837   1.972   1.663   3.467 -1.0689  0.7599 -1.3485
 7041SOL     OW21838   1.679   4.851   5.151 -0.5218 -0.3465 -0.1801
 7041SOL    HW121839   1.768   4.827   5.126 -0.4052  0.0408 -0.1339
 7041SOL    HW221840   1.651   4.781   5.209  0.2866  0.2804  0.9826
 7042SOL     OW21841   0.140   2.325   1.447 -0.0132 -0.2392 -0.6982
 7042SOL    HW121842   0.197   2.327   1.371 -0.3031  2.7137 -0.8724
 7042SOL    HW221843   0.064   2.377   1.423 -1.6235 -1.9572  0.4675
 7043SOL     OW21844   1.136   1.236   0.774 -0.2106 -0.3838 -0.0094
 7043SOL    HW121845   1.189   1.300   0.822 -1.2114  1.2118 -0.9946
 7043SOL    HW221846   1.126   1.163   0.835 -0.8073  1.2878  1.9414
 7044SOL     OW21847   6.256   6.364   4.891 -0.5500  0.1268 -0.7787
 7044SOL    HW121848   6.244   6.433   4.957  0.2654 -0.8685  0.4533
 7044SOL    HW221849   6.226   6.403   4.809  2.8281  3.0627 -0.7317
 7045SOL     OW21850   5.668   1.465   5.414  0.5143 -0.5335 -0.0001
 7045SOL    HW121851   5.732   1.395   5.397 -0.7344 -1.7030  0.0664
 7045SOL    HW221852   5.621   1.436   5.492 -0.6493 -0.0664 -0.5287
 7046SOL     OW21853   4.745   3.392   1.906  0.2293 -0.1151  0.3224
 7046SOL    HW121854   4.711   3.342   1.831 -1.8524  1.4780  0.1588
 7046SOL    HW221855   4.707   3.349   1.982  1.5954 -1.1575  0.4393
 7047SOL     OW21856   2.703   2.520   5.096 -0.2235  0.2632  0.0106
 7047SOL    HW121857   2.737   2.599   5.054 -2.6614  0.6054 -1.3647
 7047SOL    HW221858   2.634   2.552   5.154 -3.1564 -1.0677 -2.6400
 7048SOL     OW21859   4.670   4.580   4.502 -0.2704 -0.3162  0.5082
 7048SOL    HW121860   4.646   4.657   4.553 -0.9372 -1.2594  1.6578
 7048SOL    HW221861   4.656   4.507   4.562 -0.5581 -1.4080 -0.8621
 7049SOL     OW21862   6.717   1.533   6.080  0.4619  0.2718  0.1118
 7049SOL    HW121863   6.803   1.574   6.068 -0.5323  2.1160 -0.9044
 7049SOL    HW221864   6.674   1.588   6.146  0.0446 -0.6196  0.5779
 7050SOL     OW21865   0.213   3.149   4.660 -0.5415 -0.2193  0.1345
 7050SOL    HW121866   0.248   3.097   4.732  0.0574 -1.0666 -0.7612
 7050SOL    HW221867   0.179   3.085   4.598 -1.0183  0.5016 -0.3613
 7051SOL     OW21868   1.946   3.825   5.612  0.2290  0.3878 -0.6690
 7051SOL    HW121869   2.038   3.802   5.624 -0.3135 -1.8136 -0.4450
 7051SOL    HW221870   1.899   3.746   5.638 -1.7232  1.5058 -0.7646
 7052SOL     OW21871   3.320   2.839   1.766 -0.4490 -0.1018 -0.1907
 7052SOL    HW121872   3.306   2.881   1.851 -0.7071 -0.7120  0.0660
 7052SOL    HW221873   3.407   2.800   1.773 -0.5403 -0.2980 -0.1463
 7053SOL     OW21874   2.480   4.124   5.389  0.0714  0.0999  0.0181
 7053SOL    HW121875   2.479   4.215   5.418 -2.5745  0.4980 -1.2404
 7053SOL    HW221876   2.473   4.129   5.294 -3.9075 -1.4783  0.1674
 7054SOL     OW21877   1.200   1.138   6.233  0.1674  0.1978  0.6094
 7054SOL    HW121878   1.190   1.224   6.192 -0.3843 -0.8344 -1.4770
 7054SOL    HW221879   1.115   1.122   6.275 -0.1004  0.2220  0.0837
 7055SOL     OW21880   0.142   1.877   5.933 -0.2494 -0.6062  0.4789
 7055SOL    HW121881   0.182   1.800   5.974  0.5046  0.3126  1.4765
 7055SOL    HW221882   0.120   1.847   5.844  0.6650 -1.7702  0.6231
 7056SOL     OW21883   6.714   2.219   4.496  0.0189  0.5776 -1.1430
 7056SOL    HW121884   6.755   2.304   4.483 -0.5423  0.8613 -1.0777
 7056SOL    HW221885   6.677   2.223   4.585  1.8732 -0.5231 -0.2930
 7057SOL     OW21886   0.777   5.662   1.420  0.1484 -0.9168  0.4412
 7057SOL    HW121887   0.713   5.616   1.475  0.8006 -0.2368  1.7969
 7057SOL    HW221888   0.726   5.698   1.349 -0.7217 -1.8131  0.6003
 7058SOL     OW21889   4.166   4.492   0.977 -0.1213  0.1934 -0.0181
 7058SOL    HW121890   4.231   4.446   1.030  0.8383  1.6773  0.1243
 7058SOL    HW221891   4.195   4.478   0.887 -0.0036  0.2334  0.0123
 7059SOL     OW21892   1.130   1.122   5.707 -0.3579 -0.2688 -0.1263
 7059SOL    HW121893   1.044   1.163   5.699  0.3245  1.5045  1.2060
 7059SOL    HW221894   1.165   1.154   5.790  1.3010 -1.5277 -0.2984
 7060SOL     OW21895   6.143   1.697   6.260 -0.5252  0.0342  0.2480
 7060SOL    HW121896   6.121   1.790   6.248 -2.5224 -0.7754 -2.8872
 7060SOL    HW221897   6.060   1.656   6.284  0.2173 -1.0931  0.9402
 7061SOL     OW21898   0.191   2.692   4.804 -0.5414 -0.3626  0.2255
 7061SOL    HW121899   0.198   2.634   4.880 -1.4107  0.2662  0.7940
 7061SOL    HW221900   0.128   2.650   4.747  1.3491 -1.6787 -0.9303
 7062SOL     OW21901   1.398   4.331   5.992  0.0897 -0.3947  0.0915
 7062SOL    HW121902   1.400   4.426   5.981 -0.3768 -0.3311  0.5492
 7062SOL    HW221903   1.346   4.317   6.071  2.2998 -0.9056  1.5031
 7063SOL     OW21904   2.595   3.540   5.611  0.0257 -0.5608  0.2316
 7063SOL    HW121905   2.524   3.540   5.675 -2.1904 -0.4909 -2.1725
 7063SOL    HW221906   2.633   3.452   5.617 -1.0733 -1.0084  0.6298
 7064SOL     OW21907   0.772   3.723   5.734  0.3924  0.3797 -0.1034
 7064SOL    HW121908   0.770   3.655   5.667  0.7472  0.7070 -0.4471
 7064SOL    HW221909   0.783   3.676   5.817 -1.6662 -0.1457 -0.1014
 7065SOL     OW21910   2.352   4.414   4.062 -0.0059  0.0178 -0.5414
 7065SOL    HW121911   2.353   4.473   4.138 -0.0988  0.3748 -0.8176
 7065SOL    HW221912   2.444   4.412   4.034 -0.0109  0.0645 -0.5609
 7066SOL     OW21913   3.919   6.318   1.764 -0.0926  0.0291  0.4019
 7066SOL    HW121914   3.913   6.393   1.823  1.9554  1.4437 -1.0923
 7066SOL    HW221915   3.960   6.249   1.816 -3.0161 -0.5234  2.1379
 7067SOL     OW21916   6.452   2.478   5.499  0.0351 -0.1553  0.0193
 7067SOL    HW121917   6.436   2.384   5.505 -2.7747  0.4083  2.0907
 7067SOL    HW221918   6.485   2.502   5.586  1.0727  0.7502 -0.6128
 7068SOL     OW21919   3.794   2.234   5.359 -0.3152  0.4251 -0.1025
 7068SOL    HW121920   3.837   2.215   5.442  0.0434 -0.8403 -0.5652
 7068SOL    HW221921   3.860   2.280   5.308 -0.4559  0.9865  0.2136
 7069SOL     OW21922   3.240   3.140   4.765 -0.1425  0.5380  0.0626
 7069SOL    HW121923   3.262   3.115   4.675 -1.2339  3.2649 -1.0192
 7069SOL    HW221924   3.174   3.076   4.792  0.3447 -0.4320 -0.9890
 7070SOL     OW21925   4.994   5.093   4.612  0.4124  0.1572 -0.0421
 7070SOL    HW121926   5.049   5.114   4.536 -0.1593  0.6867 -0.3170
 7070SOL    HW221927   5.046   5.121   4.687  0.3941  0.9575 -0.3175
 7071SOL     OW21928   2.369   6.749   1.775 -0.5772 -0.0675  0.2490
 7071SOL    HW121929   2.282   6.767   1.810 -1.7924 -0.6233 -2.3014
 7071SOL    HW221930   2.386   6.658   1.798 -0.8068 -0.0392  0.5208
 7072SOL     OW21931   2.838   1.122   3.148 -0.3724  0.3486 -0.1348
 7072SOL    HW121932   2.831   1.210   3.184 -0.3852  0.7621 -1.1342
 7072SOL    HW221933   2.921   1.123   3.101 -0.1723 -0.3052  0.2012
 7073SOL     OW21934   5.059   5.174   5.550 -0.2122  0.6721  0.0437
 7073SOL    HW121935   5.131   5.111   5.542 -1.2852 -0.3848 -1.8010
 7073SOL    HW221936   4.992   5.141   5.490 -1.4502  2.7094  0.2531
 7074SOL     OW21937   3.520   0.093   1.321  0.0590 -0.3252  0.8176
 7074SOL    HW121938   3.499   0.183   1.346 -1.5406 -0.6975  0.8768
 7074SOL    HW221939   3.537   0.049   1.405 -0.7157 -0.4482  0.9165
 7075SOL     OW21940   5.449   5.542   4.053  0.3609  0.2648  0.2860
 7075SOL    HW121941   5.519   5.591   4.097  0.3159  2.4637 -1.9586
 7075SOL    HW221942   5.370   5.564   4.103  0.5872  1.3000  0.2087
 7076SOL     OW21943   0.998   6.513   6.665 -0.2308 -0.1653  0.3911
 7076SOL    HW121944   1.047   6.522   6.746 -0.4866  0.3409  0.4906
 7076SOL    HW221945   0.913   6.475   6.691 -0.9559  1.5707  0.5808
 7077SOL     OW21946   6.334   2.554   5.141  0.1018 -0.8495 -0.2783
 7077SOL    HW121947   6.408   2.615   5.135  1.6333 -2.5180  1.2071
 7077SOL    HW221948   6.292   2.558   5.055  0.6175  1.7228 -0.4484
 7078SOL     OW21949   5.459   2.354   3.510 -0.4354  0.5319  0.1122
 7078SOL    HW121950   5.375   2.390   3.537 -0.6253  1.9648 -2.2311
 7078SOL    HW221951   5.437   2.292   3.441  0.2492 -0.9841  1.2338
 7079SOL     OW21952   2.755   6.316   1.526 -0.2843  0.3385  0.1339
 7079SOL    HW121953   2.667   6.290   1.554  0.2162 -2.9446 -1.0559
 7079SOL    HW221954   2.745   6.336   1.433  0.5468 -2.1036 -0.5316
 7080SOL     OW21955   0.937   1.269   1.635 -0.2684 -0.0419  0.1058
 7080SOL    HW121956   0.957   1.359   1.660  0.4729 -0.5574  1.4441
 7080SOL    HW221957   0.843   1.260   1.651  0.0462 -0.1189  2.0397
 7081SOL     OW21958   1.742   6.292   6.200 -0.0178  0.4054  0.4068
 7081SOL    HW121959   1.707   6.204   6.186  0.0497  0.2601  1.1636
 7081SOL    HW221960   1.828   6.290   6.159 -0.2506  0.2947 -0.0837
 7082SOL     OW21961   6.029   3.199   1.561  0.7073 -0.7832 -0.0243
 7082SOL    HW121962   6.053   3.282   1.518  0.9417 -0.8178  0.0414
 7082SOL    HW221963   6.052   3.212   1.653 -1.3885 -0.0734  0.4279
 7083SOL     OW21964   1.543   4.928   6.442  0.4903 -0.3334  0.0295
 7083SOL    HW121965   1.517   4.905   6.353  0.2150 -0.1543  0.0634
 7083SOL    HW221966   1.471   4.899   6.497 -0.0834  1.0301  0.0204
 7084SOL     OW21967   0.273   4.903   2.007  0.3116 -0.8185 -0.2583
 7084SOL    HW121968   0.275   4.998   1.995 -0.5117 -0.9609 -1.7476
 7084SOL    HW221969   0.297   4.889   2.098  0.0717  0.8428  0.0713
 7085SOL     OW21970   2.659   2.222   1.899  0.2336  0.0103 -0.1258
 7085SOL    HW121971   2.598   2.178   1.840 -1.4861  0.2576  1.4067
 7085SOL    HW221972   2.679   2.305   1.857 -1.5790  0.5175 -0.0113
 7086SOL     OW21973   1.808   6.239   3.605 -0.0515 -0.3952 -0.3671
 7086SOL    HW121974   1.764   6.281   3.679  2.4920 -0.4569  1.2261
 7086SOL    HW221975   1.764   6.154   3.596 -2.0545  0.6406 -0.5675
 7087SOL     OW21976   2.593   3.249   5.624  0.4150  0.2536  0.4181
 7087SOL    HW121977   2.520   3.233   5.684 -0.0191  2.2668  0.4865
 7087SOL    HW221978   2.671   3.245   5.679  0.1821  0.0629  0.7321
 7088SOL     OW21979   3.386   5.420   3.595  0.5109 -0.1348  0.0866
 7088SOL    HW121980   3.371   5.408   3.689 -0.7888  1.9128  0.1675
 7088SOL    HW221981   3.468   5.470   3.590  0.8553 -0.6939  0.1033
 7089SOL     OW21982   1.573   2.057   3.461 -0.2819 -0.1697  0.0712
 7089SOL    HW121983   1.560   2.050   3.367 -0.8918 -1.0244  0.2230
 7089SOL    HW221984   1.545   2.147   3.482 -0.5495 -0.1200 -0.4892
 7090SOL     OW21985   1.081   5.469   5.815  0.0072  0.4065 -0.3187
 7090SOL    HW121986   1.175   5.468   5.831 -0.0500 -2.2801  0.0329
 7090SOL    HW221987   1.041   5.462   5.902 -0.4475 -2.2411 -0.7104
 7091SOL     OW21988   2.995   4.466   0.067  0.3740  0.0703 -0.3069
 7091SOL    HW121989   2.985   4.371   0.079  1.6787  0.1407  1.5855
 7091SOL    HW221990   3.000   4.477  -0.028  0.5887 -1.8022 -0.5478
 7092SOL     OW21991   6.188   6.050   4.247  0.4147  0.0230 -0.0488
 7092SOL    HW121992   6.126   6.107   4.201 -0.1817 -0.6092 -0.0376
 7092SOL    HW221993   6.132   5.986   4.291  1.0692 -0.3627  0.2154
 7093SOL     OW21994   6.024   6.573   3.204  0.1701 -0.6752  0.5210
 7093SOL    HW121995   6.106   6.592   3.158  0.2861 -1.4365  0.4028
 7093SOL    HW221996   6.036   6.611   3.291 -0.4567  1.7011 -0.3795
 7094SOL     OW21997   5.977   5.181   2.707  0.2862 -0.1879  0.0010
 7094SOL    HW121998   5.892   5.154   2.741  0.2939 -1.6633 -1.0952
 7094SOL    HW221999   5.957   5.220   2.622  1.0068 -4.0429 -2.0632
 7095SOL     OW22000   2.100   0.998   0.395 -0.6139  0.2471 -0.2188
 7095SOL    HW122001   2.174   1.057   0.382 -0.1034 -0.9457 -2.9882
 7095SOL    HW222002   2.123   0.948   0.474  0.9285  0.8078 -0.2886
 7096SOL     OW22003   5.501   3.726   0.501 -0.5546  0.0500 -0.2408
 7096SOL    HW122004   5.593   3.699   0.502 -0.1060  1.4209 -2.4134
 7096SOL    HW222005   5.452   3.646   0.485  0.4065 -0.3355 -1.2754
 7097SOL     OW22006   5.722   4.444   3.961 -0.2210 -0.2661  0.2579
 7097SOL    HW122007   5.642   4.441   3.910 -1.1325 -2.9023  1.7637
 7097SOL    HW222008   5.760   4.356   3.952  0.4999 -0.2339  2.6492
 7098SOL     OW22009   3.998   2.103   3.989  0.1900  0.2862 -0.0265
 7098SOL    HW122010   4.013   2.010   3.976  1.9336  0.8122 -2.0056
 7098SOL    HW222011   4.085   2.141   3.994 -0.5017  1.8177  0.7357
 7099SOL     OW22012   6.310   4.582   4.617 -0.0366 -0.5431  0.9455
 7099SOL    HW122013   6.228   4.622   4.645 -0.9955 -1.5537 -0.3181
 7099SOL    HW222014   6.346   4.544   4.696  1.1102  3.0914  2.2579
 7100SOL     OW22015   1.997   5.186   4.883 -0.0782  0.3926 -0.7685
 7100SOL    HW122016   1.983   5.104   4.836  0.6555 -0.6963  0.8298
 7100SOL    HW222017   1.923   5.192   4.944  0.5116  0.2675 -0.0215
 7101SOL     OW22018   6.614   1.400   5.451  0.3031 -0.2030  0.1687
 7101SOL    HW122019   6.689   1.457   5.431  0.3584 -0.9011 -1.7164
 7101SOL    HW222020   6.650   1.311   5.446 -0.4919 -0.5175  0.0138
 7102SOL     OW22021   5.628   4.624   2.377 -0.2825 -0.2170 -0.0357
 7102SOL    HW122022   5.566   4.552   2.387  1.0949 -1.1888  1.9930
 7102SOL    HW222023   5.684   4.618   2.455  1.4494  1.4959 -1.0974
 7103SOL     OW22024   2.040   4.238   2.998  0.2701 -0.6924  0.4460
 7103SOL    HW122025   2.008   4.217   2.910 -0.5914  1.5369  0.1888
 7103SOL    HW222026   1.986   4.185   3.057 -0.9765 -0.1859 -0.2252
 7104SOL     OW22027   2.635   1.428   3.527  0.3446 -0.9675  0.0501
 7104SOL    HW122028   2.723   1.422   3.488  1.1240 -1.8283  1.8781
 7104SOL    HW222029   2.576   1.434   3.452  1.9988  0.0841 -1.2027
 7105SOL     OW22030   2.803   1.192   0.484  0.8525  0.5117 -0.3955
 7105SOL    HW122031   2.832   1.111   0.441  0.0061  0.7043 -1.3459
 7105SOL    HW222032   2.808   1.172   0.578  0.2421 -0.7900 -0.6294
 7106SOL     OW22033   4.963   2.202   5.507  0.4165 -0.5118  0.4381
 7106SOL    HW122034   4.918   2.263   5.449  0.9016 -1.1067 -0.5776
 7106SOL    HW222035   5.025   2.156   5.450  0.8180 -1.1805  1.4047
 7107SOL     OW22036   1.904   3.267   4.920  0.5027  0.0369  0.3093
 7107SOL    HW122037   1.883   3.316   4.999  1.4808  0.9902  0.0060
 7107SOL    HW222038   1.994   3.294   4.899  1.3524 -2.4560  0.5435
 7108SOL     OW22039   6.144   3.980   2.421 -0.0962  0.5823  0.2857
 7108SOL    HW122040   6.071   3.919   2.420  0.1484  0.2676  0.9440
 7108SOL    HW222041   6.122   4.047   2.356 -0.0141 -0.6220 -1.0014
 7109SOL     OW22042   2.688   2.249   4.499  0.6139  0.2297  0.0177
 7109SOL    HW122043   2.747   2.287   4.564 -0.1560  0.2157  0.7185
 7109SOL    HW222044   2.683   2.316   4.430  1.0943  0.4121  0.1535
 7110SOL     OW22045   4.620   1.645   4.752  0.4356 -0.2720  0.0248
 7110SOL    HW122046   4.572   1.676   4.676  2.2282  1.3367 -0.4653
 7110SOL    HW222047   4.598   1.552   4.758 -1.0990 -0.0155 -1.3995
 7111SOL     OW22048   5.628   4.267   2.613  0.6604  0.1420 -0.1298
 7111SOL    HW122049   5.640   4.348   2.663  0.8310  0.2652 -0.3695
 7111SOL    HW222050   5.704   4.213   2.637 -0.4187 -0.7096  1.4864
 7112SOL     OW22051   2.535   1.457   5.991  0.0594  0.4529 -0.0104
 7112SOL    HW122052   2.606   1.513   5.959  0.8602  0.8744  2.4563
 7112SOL    HW222053   2.474   1.452   5.917  1.5230  1.9714 -1.3604
 7113SOL     OW22054   0.390   2.411   5.982  0.0752  0.1374  0.2419
 7113SOL    HW122055   0.298   2.436   5.975 -0.2314 -1.0445 -0.0958
 7113SOL    HW222056   0.391   2.336   6.041  0.7570 -0.1385 -0.1038
 7114SOL     OW22057   0.956   0.197   1.021  0.0139  0.1161 -0.7518
 7114SOL    HW122058   0.946   0.112   1.063  0.8859 -0.7860 -2.2931
 7114SOL    HW222059   0.897   0.256   1.068  1.4802 -0.6717  2.1629
 7115SOL     OW22060   1.188   1.419   6.169 -0.1947  0.0291 -0.3784
 7115SOL    HW122061   1.141   1.484   6.221 -0.5712 -1.4302  1.1708
 7115SOL    HW222062   1.277   1.421   6.204 -0.7626 -1.8829  1.3054
 7116SOL     OW22063   4.966   1.828   6.214  0.4033  0.3182 -0.4519
 7116SOL    HW122064   4.977   1.915   6.252  0.7462 -0.4076  1.1157
 7116SOL    HW222065   4.893   1.789   6.263 -2.8392  1.3597 -4.1237
 7117SOL     OW22066   0.523   4.765   5.263  0.7664  0.0248 -0.3260
 7117SOL    HW122067   0.544   4.698   5.328  0.7574  0.5097  0.1829
 7117SOL    HW222068   0.428   4.767   5.259  0.7460  0.5359  0.2279
 7118SOL     OW22069   6.469   1.521   0.708  0.2002 -0.4196 -0.2943
 7118SOL    HW122070   6.515   1.543   0.789  0.9156  0.7034 -0.9914
 7118SOL    HW222071   6.442   1.430   0.719  0.5043 -0.3415  1.1053
 7119SOL     OW22072   2.921   2.748   3.025 -0.2947  0.1140 -0.1487
 7119SOL    HW122073   2.834   2.710   3.029 -0.1538 -0.0531  1.3816
 7119SOL    HW222074   2.940   2.777   3.114  1.6642 -0.8470 -0.2202
 7120SOL     OW22075   4.863   0.954   1.788  0.7114  0.5070  0.3430
 7120SOL    HW122076   4.880   0.870   1.831  0.0098  0.7480  1.1096
 7120SOL    HW222077   4.876   1.019   1.857  0.9911  1.0117 -0.1827
 7121SOL     OW22078   3.248   5.775   0.556  0.1763  0.0485  0.5711
 7121SOL    HW122079   3.227   5.683   0.569 -3.1458  0.9215  1.8191
 7121SOL    HW222080   3.247   5.787   0.461  0.0517 -1.0597  0.4314
 7122SOL     OW22081   3.847   6.635   2.637 -0.2912  0.1810  0.3374
 7122SOL    HW122082   3.800   6.652   2.719  0.2112  1.3225  0.4017
 7122SOL    HW222083   3.852   6.721   2.594 -1.0580 -0.4978 -1.1712
 7123SOL     OW22084   4.620   0.046   5.322  0.1746  0.2728 -0.2603
 7123SOL    HW122085   4.660   0.021   5.405  0.1513 -0.6458 -0.5158
 7123SOL    HW222086   4.612  -0.036   5.273  0.7567  0.8808 -1.4165
 7124SOL     OW22087   2.842   1.083   3.756  0.8125  0.4255  0.2724
 7124SOL    HW122088   2.922   1.125   3.725  1.2577 -0.2421  0.4957
 7124SOL    HW222089   2.850   0.992   3.727 -0.5534  0.6812 -0.9873
 7125SOL     OW22090   2.680   5.542   6.066  0.1326  0.0582  0.1919
 7125SOL    HW122091   2.636   5.584   6.140  2.3522  2.5937  0.1844
 7125SOL    HW222092   2.671   5.605   5.994 -1.0027 -1.8586 -1.3990
 7126SOL     OW22093   1.540   6.273   3.422  0.0092  0.1332 -0.6176
 7126SOL    HW122094   1.575   6.321   3.497  0.0790  0.1316 -0.6501
 7126SOL    HW222095   1.524   6.185   3.456 -0.5509  0.3011 -0.4315
 7127SOL     OW22096   6.282   4.091   1.109  0.4949 -0.1737  0.4083
 7127SOL    HW122097   6.275   4.029   1.182 -2.3880 -0.9782 -0.4542
 7127SOL    HW222098   6.236   4.048   1.037 -0.4366  2.4238 -0.6080
 7128SOL     OW22099   6.434   5.431   0.479  0.2428 -0.2463  0.2005
 7128SOL    HW122100   6.403   5.348   0.443 -1.2679  0.7508 -0.9166
 7128SOL    HW222101   6.493   5.466   0.413  1.7139 -0.9248  1.1518
 7129SOL     OW22102   0.721   0.651   1.548 -0.1913 -0.8040  0.0490
 7129SOL    HW122103   0.631   0.631   1.524 -0.2916  0.4688 -0.6686
 7129SOL    HW222104   0.772   0.579   1.512 -0.8149 -1.0148 -0.4169
 7130SOL     OW22105   4.451   4.492   4.174 -0.0937 -0.4317 -0.0207
 7130SOL    HW122106   4.477   4.583   4.187 -0.5603 -0.3550  0.3908
 7130SOL    HW222107   4.356   4.497   4.159 -0.0854 -0.8304 -0.2032
 7131SOL     OW22108   0.339   0.784   0.995  0.1667  0.6784  0.0241
 7131SOL    HW122109   0.421   0.777   1.044  0.2609  1.6819  0.0191
 7131SOL    HW222110   0.285   0.842   1.048 -0.1218  0.9245 -0.5413
 7132SOL     OW22111   4.895   1.335   3.895  0.2762 -0.3000 -0.3506
 7132SOL    HW122112   4.954   1.276   3.941 -1.7433 -0.4768  2.1752
 7132SOL    HW222113   4.896   1.415   3.947 -1.0516 -0.0170 -0.7340
 7133SOL     OW22114   5.264   4.193   3.172  0.0470  0.0196 -0.0875
 7133SOL    HW122115   5.255   4.112   3.221  1.9917  0.7942  1.6359
 7133SOL    HW222116   5.319   4.169   3.097  0.1331 -0.3881  0.1043
 7134SOL     OW22117   5.977   3.141   2.634 -0.5410  0.5462  0.7431
 7134SOL    HW122118   5.963   3.107   2.546 -0.2138 -0.4684  1.0714
 7134SOL    HW222119   6.072   3.144   2.644 -0.5722 -0.3503  1.4240
 7135SOL     OW22120   4.987   1.063   5.154 -0.0038 -0.2949  0.8606
 7135SOL    HW122121   4.953   1.057   5.243  2.1003 -1.5448  1.6010
 7135SOL    HW222122   5.043   1.140   5.154 -0.7514  0.2537  0.3523
 7136SOL     OW22123   6.560   5.685   5.852 -0.2403  0.0900  0.4017
 7136SOL    HW122124   6.534   5.600   5.886 -0.0206 -0.0089  0.3199
 7136SOL    HW222125   6.648   5.672   5.817  0.5346  0.7756  2.0034
 7137SOL     OW22126   2.778   1.395   3.195 -0.1443  0.4580  0.2449
 7137SOL    HW122127   2.820   1.444   3.266  0.3525  0.9391 -0.3744
 7137SOL    HW222128   2.734   1.462   3.143  0.5701  0.2674 -0.6293
 7138SOL     OW22129   0.617   2.202   2.994  0.5113  0.1523 -0.0290
 7138SOL    HW122130   0.542   2.245   2.953 -0.4661 -0.8136  0.7223
 7138SOL    HW222131   0.582   2.166   3.076  1.5206 -1.3135 -0.2294
 7139SOL     OW22132   2.866   0.899   1.449 -0.1256  0.3472 -0.2124
 7139SOL    HW122133   2.928   0.947   1.504 -0.0304  0.7525 -0.6763
 7139SOL    HW222134   2.801   0.866   1.511  0.1435  0.5547  0.1846
 7140SOL     OW22135   1.367   1.612   2.407 -0.1190  0.5486 -0.5486
 7140SOL    HW122136   1.322   1.528   2.401 -1.2686  1.0405  1.0961
 7140SOL    HW222137   1.431   1.600   2.477 -1.6724  1.6716  1.0784
 7141SOL     OW22138   4.626   5.787   1.610  0.3826 -0.1174 -0.3534
 7141SOL    HW122139   4.613   5.879   1.634  0.1486 -0.0339 -0.7892
 7141SOL    HW222140   4.717   5.769   1.631  0.4322  0.2188 -0.2774
 7142SOL     OW22141   6.698   5.911   1.806 -0.1322 -0.8939 -0.2732
 7142SOL    HW122142   6.758   5.936   1.876 -1.2617 -1.8486  1.0796
 7142SOL    HW222143   6.728   5.824   1.778  1.1881  0.1005 -1.9834
 7143SOL     OW22144   6.048   2.515   4.704 -0.0355  0.7046 -0.2599
 7143SOL    HW122145   6.066   2.428   4.740 -2.3617 -0.1979 -1.1451
 7143SOL    HW222146   6.110   2.525   4.631 -1.0531 -1.0762 -1.4143
 7144SOL     OW22147   4.378   2.344   1.013 -0.0547  0.0508  0.3448
 7144SOL    HW122148   4.435   2.294   1.071 -0.4048  0.7286  1.2793
 7144SOL    HW222149   4.437   2.405   0.969  0.2379 -0.5893 -0.1621
 7145SOL     OW22150   2.020   4.849   1.023  0.4474  0.5352  0.7563
 7145SOL    HW122151   2.040   4.857   1.116 -1.5736  1.3747  1.1447
 7145SOL    HW222152   1.937   4.896   1.012  1.0130  1.0457 -1.5995
 7146SOL     OW22153   3.813   2.405   6.627  0.1219 -0.5911 -0.6239
 7146SOL    HW122154   3.756   2.374   6.697  0.4996 -1.8228 -0.8496
 7146SOL    HW222155   3.900   2.409   6.667 -0.4113  3.2340  0.3024
 7147SOL     OW22156   6.622   1.202   4.593  0.4548  0.3435  0.6098
 7147SOL    HW122157   6.622   1.107   4.584 -0.3957  0.6351 -3.1693
 7147SOL    HW222158   6.684   1.219   4.665 -0.8797 -3.0957  2.6892
 7148SOL     OW22159   6.059   1.242   6.136 -0.2354  0.2385  0.5379
 7148SOL    HW122160   6.117   1.212   6.066 -0.7668 -2.6956  1.2769
 7148SOL    HW222161   6.115   1.243   6.214 -0.4732  0.1717  0.7109
 7149SOL     OW22162   4.621   2.025   0.171 -0.4182  0.0159  0.4289
 7149SOL    HW122163   4.538   2.030   0.218 -0.3645 -3.6529  1.0739
 7149SOL    HW222164   4.658   1.941   0.197  1.6841 -0.1553 -2.8378
 7150SOL     OW22165   3.614   5.163   2.318  0.3951 -0.2381  0.4167
 7150SOL    HW122166   3.587   5.094   2.258  0.1157  1.2741 -1.2429
 7150SOL    HW222167   3.693   5.129   2.359 -1.2613 -2.6785  1.6936
 7151SOL     OW22168   5.399   3.036   6.057  0.3681 -0.3458  0.5772
 7151SOL    HW122169   5.426   3.063   5.969 -2.4659 -0.1651 -0.2608
 7151SOL    HW222170   5.414   2.941   6.058 -1.2217 -0.6136 -0.7013
 7152SOL     OW22171   3.653   6.207   3.440  1.1887  0.0110  0.2651
 7152SOL    HW122172   3.638   6.291   3.397 -0.6603  0.0489  0.9509
 7152SOL    HW222173   3.748   6.197   3.439  1.4145  1.9073 -0.2071
 7153SOL     OW22174   0.363   4.671   2.797 -0.0554  0.7850 -0.3342
 7153SOL    HW122175   0.436   4.624   2.839 -0.1906 -0.0763 -1.0623
 7153SOL    HW222176   0.287   4.649   2.851 -0.5165 -1.5537 -1.8792
 7154SOL     OW22177   3.224   4.032   3.308  0.4237 -0.3606 -0.2200
 7154SOL    HW122178   3.155   4.097   3.327 -0.2749 -1.5640  1.5568
 7154SOL    HW222179   3.304   4.072   3.342  0.1450 -0.0498  0.0841
 7155SOL     OW22180   1.082   4.377   1.837 -0.0508  0.1476 -0.1146
 7155SOL    HW122181   0.991   4.404   1.841  0.3535  1.5583 -0.3747
 7155SOL    HW222182   1.080   4.296   1.786 -1.3268 -0.6503  1.1708
 7156SOL     OW22183   2.754   0.428   5.445  0.2191 -0.1307  0.0465
 7156SOL    HW122184   2.832   0.462   5.488  1.7639 -1.3136 -1.7104
 7156SOL    HW222185   2.685   0.437   5.510  2.0495 -0.0838  2.0503
 7157SOL     OW22186   6.245   0.777   5.113  0.4062  0.2497  0.2065
 7157SOL    HW122187   6.151   0.781   5.130  0.4573  0.2579  0.4986
 7157SOL    HW222188   6.258   0.829   5.034 -0.2509 -2.3030 -1.6248
 7158SOL     OW22189   6.482   5.199   4.370  0.0653 -0.6698 -0.2056
 7158SOL    HW122190   6.453   5.124   4.318  0.2425 -0.3572 -0.7608
 7158SOL    HW222191   6.541   5.247   4.312 -2.6279  1.7243 -1.0844
 7159SOL     OW22192   1.244   1.139   3.315 -0.1045 -0.7648  0.2662
 7159SOL    HW122193   1.314   1.104   3.369 -2.7415 -2.3938  2.7519
 7159SOL    HW222194   1.184   1.066   3.303 -2.2748  1.0474 -0.2929
 7160SOL     OW22195   3.450   0.593   5.074 -0.1820  0.5768  0.2508
 7160SOL    HW122196   3.430   0.560   4.986 -0.2597 -0.8003  0.7689
 7160SOL    HW222197   3.391   0.667   5.086 -1.1762 -0.1102 -0.3185
 7161SOL     OW22198   1.093   0.186   0.788 -0.5856  0.4122 -0.2264
 7161SOL    HW122199   1.110   0.092   0.780 -0.4420  0.3581  0.6494
 7161SOL    HW222200   1.032   0.193   0.862  2.9415  1.3536  2.7290
 7162SOL     OW22201   0.759   6.385   2.955 -0.7770 -0.9153  0.2266
 7162SOL    HW122202   0.823   6.377   3.026  0.8542 -0.7997 -1.1980
 7162SOL    HW222203   0.702   6.308   2.966 -1.3911 -0.1830  2.4444
 7163SOL     OW22204   3.283   4.999   2.001 -0.5905  0.3776 -0.0858
 7163SOL    HW122205   3.305   5.090   2.022 -1.5672  0.5862  0.0550
 7163SOL    HW222206   3.261   4.960   2.086 -1.9979  0.5183 -0.3780
 7164SOL     OW22207   5.996   4.690   5.008 -0.2487  0.3107  0.1942
 7164SOL    HW122208   6.057   4.724   5.074 -0.6149  0.0115  0.6889
 7164SOL    HW222209   6.015   4.596   5.005  1.0535  0.6042 -1.4738
 7165SOL     OW22210   6.287   3.297   5.470 -0.2484 -0.0513  0.7899
 7165SOL    HW122211   6.347   3.280   5.542 -0.7797 -0.7997  1.0713
 7165SOL    HW222212   6.315   3.380   5.433  1.1969 -0.5861  0.6631
 7166SOL     OW22213   1.068   3.849   6.515 -0.3646  0.3091  0.2317
 7166SOL    HW122214   1.030   3.764   6.536  1.2020 -0.0489  1.7359
 7166SOL    HW222215   1.118   3.834   6.435  0.1748 -0.2808  0.6719
 7167SOL     OW22216   5.786   2.380   3.549 -0.3275 -0.0796  0.2270
 7167SOL    HW122217   5.767   2.410   3.460  0.1665 -0.2388  0.0636
 7167SOL    HW222218   5.787   2.285   3.542  0.9008 -0.0647  0.1450
 7168SOL     OW22219   0.035   1.433   0.010 -0.2859  0.0359 -0.2272
 7168SOL    HW122220   0.017   1.349   0.052 -2.2182  0.3148 -0.4104
 7168SOL    HW222221   0.081   1.411  -0.071  1.3044 -0.6635  0.8539
 7169SOL     OW22222   1.083   1.980   3.874  0.1295 -0.0469  0.3236
 7169SOL    HW122223   1.060   2.035   3.949  0.6462 -0.6841  0.9506
 7169SOL    HW222224   1.163   1.936   3.900  1.5064  1.3371 -1.4249
 7170SOL     OW22225   3.750   6.462   2.162 -0.0185  0.1946  0.0906
 7170SOL    HW122226   3.666   6.491   2.125 -1.5113 -1.4623  2.0658
 7170SOL    HW222227   3.769   6.526   2.230  0.1577  0.3827 -0.1340
 7171SOL     OW22228   4.952   4.934   1.392 -0.1832 -0.8448 -0.0647
 7171SOL    HW122229   4.956   5.021   1.432 -1.2071 -0.7972 -0.0630
 7171SOL    HW222230   4.985   4.875   1.460 -0.8299 -0.6263  0.4386
 7172SOL     OW22231   1.472   1.198   5.853  0.8535  0.0572  0.2195
 7172SOL    HW122232   1.482   1.148   5.934  1.2681 -0.3131 -0.0574
 7172SOL    HW222233   1.391   1.248   5.865  1.6714  1.1132  1.4444
 7173SOL     OW22234   3.630   0.459   0.312 -0.1855 -0.1392  0.4227
 7173SOL    HW122235   3.597   0.545   0.286  1.9752  0.5491 -0.0726
 7173SOL    HW222236   3.675   0.426   0.235 -0.0293 -1.2372  0.9751
 7174SOL     OW22237   3.451   3.955   1.699 -0.4205 -0.0571 -0.0298
 7174SOL    HW122238   3.493   4.025   1.649 -0.1018  0.0087  0.3288
 7174SOL    HW222239   3.386   3.999   1.753 -2.1618 -0.3440 -1.8479
 7175SOL     OW22240   0.148   5.354   2.964 -0.5844 -0.6485 -0.1753
 7175SOL    HW122241   0.156   5.351   2.868 -1.8675  0.6313 -0.3563
 7175SOL    HW222242   0.059   5.322   2.981 -0.1163 -1.5137  0.6449
 7176SOL     OW22243   0.375   3.853   5.086  0.4459 -0.6013  0.5062
 7176SOL    HW122244   0.328   3.770   5.082 -0.5461 -0.1171  1.9000
 7176SOL    HW222245   0.307   3.920   5.084  1.1695  0.1590  0.8221
 7177SOL     OW22246   3.163   6.633   5.357 -0.3029 -0.6374 -0.6226
 7177SOL    HW122247   3.141   6.725   5.344  0.8875  0.1650  2.6158
 7177SOL    HW222248   3.087   6.596   5.401  0.3595 -0.4974  0.6571
 7178SOL     OW22249   0.220   4.824   0.901 -0.1067 -0.2314 -0.4632
 7178SOL    HW122250   0.223   4.741   0.949 -0.2384 -1.2402 -2.1674
 7178SOL    HW222251   0.236   4.891   0.968 -0.8285 -1.5620  1.0729
 7179SOL     OW22252   3.637   4.113   6.011  0.1048 -0.1244  0.4594
 7179SOL    HW122253   3.609   4.109   5.919 -0.2047 -4.3442  0.6395
 7179SOL    HW222254   3.719   4.162   6.008 -0.7534  1.2955 -1.8130
 7180SOL     OW22255   4.814   0.711   0.938 -0.3594  0.0019  0.3308
 7180SOL    HW122256   4.750   0.679   1.002 -0.9425  1.6958  0.6079
 7180SOL    HW222257   4.773   0.789   0.901  0.7134 -0.0188 -0.9085
 7181SOL     OW22258   6.149   0.480   2.154  0.4050  0.6366 -0.7375
 7181SOL    HW122259   6.152   0.573   2.173 -0.7375  0.3643  0.8547
 7181SOL    HW222260   6.059   0.454   2.173  0.4709 -0.6230 -2.0018
 7182SOL     OW22261   6.241   3.120   6.703 -0.0996  0.1637  0.6206
 7182SOL    HW122262   6.157   3.158   6.728 -0.7635 -1.2859  0.6416
 7182SOL    HW222263   6.283   3.098   6.786  0.8278  1.9310  0.6583
 7183SOL     OW22264   0.825   5.743   3.105  0.0825  0.2288 -0.4361
 7183SOL    HW122265   0.846   5.692   3.027 -1.9289  1.7616 -2.0573
 7183SOL    HW222266   0.769   5.686   3.157 -1.2851  0.3758 -1.7246
 7184SOL     OW22267   0.516   1.000   2.601 -0.2526  0.4803  0.2854
 7184SOL    HW122268   0.551   1.089   2.604 -1.8867  1.1452  0.5929
 7184SOL    HW222269   0.492   0.987   2.509 -1.2588  0.8871  0.4767
 7185SOL     OW22270   4.280   1.728   1.828  0.4084  0.1427  0.1289
 7185SOL    HW122271   4.354   1.787   1.840  0.6713 -0.3054  0.7080
 7185SOL    HW222272   4.260   1.696   1.916 -1.0053  0.8990  0.0961
 7186SOL     OW22273   5.965   2.745   6.660 -0.4125 -0.4826  0.2008
 7186SOL    HW122274   5.983   2.729   6.752 -0.6248  1.7499  0.6711
 7186SOL    HW222275   5.884   2.698   6.642 -0.3058 -1.0243  1.1159
 7187SOL     OW22276   4.093   5.440   0.219  0.4142 -0.8261  0.9001
 7187SOL    HW122277   4.089   5.510   0.285  2.6486  1.5188 -1.3526
 7187SOL    HW222278   4.185   5.416   0.216  0.0789 -2.0190 -0.2612
 7188SOL     OW22279   5.404   4.201   3.976 -0.4078 -0.3208  0.0814
 7188SOL    HW122280   5.411   4.271   4.042  0.1396  0.5168 -0.8542
 7188SOL    HW222281   5.361   4.242   3.901 -4.5133 -2.2481  1.2303
 7189SOL     OW22282   6.204   4.504   0.888  0.5119  0.0386  0.0626
 7189SOL    HW122283   6.248   4.440   0.832  0.8262  0.3691 -0.0739
 7189SOL    HW222284   6.186   4.457   0.969  0.8180 -0.1994 -0.0052
 7190SOL     OW22285   0.726   2.443   3.721 -0.0790  0.4695 -0.3754
 7190SOL    HW122286   0.809   2.479   3.690 -0.7197 -0.4229 -3.3123
 7190SOL    HW222287   0.726   2.353   3.688 -0.9648 -0.4520  2.0510
 7191SOL     OW22288   6.712   2.396   5.724 -0.2176  0.6589  0.4506
 7191SOL    HW122289   6.724   2.390   5.629  1.8560 -1.4073  0.7994
 7191SOL    HW222290   6.664   2.317   5.747  0.6570  0.3584  1.2923
 7192SOL     OW22291   3.679   4.495   5.706  0.3443 -0.0840 -0.0827
 7192SOL    HW122292   3.723   4.451   5.633 -0.1131 -1.4894  0.4575
 7192SOL    HW222293   3.609   4.434   5.732  0.0950  0.6809  1.1040
 7193SOL     OW22294   4.112   5.461   1.687 -0.0003  0.0166  0.0929
 7193SOL    HW122295   4.115   5.445   1.593  0.5151  1.4597 -0.1576
 7193SOL    HW222296   4.204   5.459   1.714  0.0383  1.8839  0.1464
 7194SOL     OW22297   1.610   5.441   2.674  0.1199 -0.5526  0.4221
 7194SOL    HW122298   1.701   5.469   2.681  0.4737 -1.3154 -1.0594
 7194SOL    HW222299   1.565   5.516   2.636  0.0459 -0.0403  1.4942
 7195SOL     OW22300   3.476   5.123   1.254 -0.1361 -0.1873 -0.5744
 7195SOL    HW122301   3.562   5.164   1.259  0.5506 -1.6000 -0.5225
 7195SOL    HW222302   3.452   5.129   1.162 -0.5086  1.2656 -0.3814
 7196SOL     OW22303   3.671   5.511   1.198 -0.6087 -0.0463 -0.1189
 7196SOL    HW122304   3.757   5.481   1.167 -0.5070 -0.0671  0.1841
 7196SOL    HW222305   3.608   5.464   1.144 -0.4195  0.5593 -0.8871
 7197SOL     OW22306   5.411   5.954   4.121  0.2139 -0.6421  0.5493
 7197SOL    HW122307   5.412   5.911   4.206  2.2814  0.4493  1.1261
 7197SOL    HW222308   5.384   5.887   4.060 -0.1348 -1.7661  1.9116
 7198SOL     OW22309   3.388   0.873   0.300  0.0397  0.6304 -0.1323
 7198SOL    HW122310   3.423   0.948   0.253  1.6456  0.3396  0.5711
 7198SOL    HW222311   3.443   0.865   0.378 -0.1398 -1.2404 -0.1714
 7199SOL     OW22312   2.182   2.541   2.605  0.2986 -0.7881 -0.0547
 7199SOL    HW122313   2.121   2.610   2.582 -0.8909 -1.7983  0.0293
 7199SOL    HW222314   2.260   2.558   2.552  0.6061  1.4778  1.0749
 7200SOL     OW22315   1.127   5.746   3.286 -0.3337  0.2094  0.8174
 7200SOL    HW122316   1.171   5.673   3.331 -0.2873  0.2167  0.7851
 7200SOL    HW222317   1.037   5.744   3.318 -0.5574 -0.3934  0.1784
 7201SOL     OW22318   5.746   6.496   1.520  0.3484 -0.4794 -0.0171
 7201SOL    HW122319   5.754   6.401   1.509  0.6685 -0.1524 -3.1057
 7201SOL    HW222320   5.836   6.527   1.525  0.2504 -0.2682  0.4913
 7202SOL     OW22321   5.531   3.493   2.594  0.4118 -0.2540  0.0157
 7202SOL    HW122322   5.528   3.575   2.543  1.7620 -0.5872 -0.6335
 7202SOL    HW222323   5.624   3.484   2.617  0.0343 -0.8830  1.2793
 7203SOL     OW22324   2.814   0.743   3.486 -0.3965 -0.2046  0.1858
 7203SOL    HW122325   2.734   0.693   3.472  0.4629 -1.0864 -1.6895
 7203SOL    HW222326   2.848   0.760   3.399  1.9193 -0.6007  0.9736
 7204SOL     OW22327   2.899   5.582   2.711  0.4937 -0.4442  0.5027
 7204SOL    HW122328   2.958   5.561   2.783  0.1181  1.4216  1.3749
 7204SOL    HW222329   2.957   5.606   2.638  0.8230  0.0738  0.9373
 7205SOL     OW22330   2.150   1.658   6.227 -0.4350  0.6995  0.1937
 7205SOL    HW122331   2.085   1.682   6.161 -1.0845 -1.1140  0.1510
 7205SOL    HW222332   2.225   1.626   6.177 -1.7012 -2.6568  0.2895
 7206SOL     OW22333   2.347   1.367   0.534  0.0960  0.2930 -0.2845
 7206SOL    HW122334   2.350   1.276   0.504 -0.3676 -0.0667  0.7486
 7206SOL    HW222335   2.436   1.400   0.521  0.6998 -0.8340  0.9366
 7207SOL     OW22336   5.550   4.653   6.088 -0.0645 -0.9365 -0.3337
 7207SOL    HW122337   5.499   4.637   6.009  0.8362 -0.8765 -0.9369
 7207SOL    HW222338   5.638   4.674   6.056  0.3463 -1.0630  0.6898
 7208SOL     OW22339   1.436   3.449   1.380 -0.8496 -0.5768  0.1178
 7208SOL    HW122340   1.464   3.483   1.464 -1.1030 -2.7147  1.0799
 7208SOL    HW222341   1.344   3.475   1.374 -1.1986 -1.5652  1.1000
 7209SOL     OW22342   4.266   6.464   5.932  0.0545 -0.2126  0.5369
 7209SOL    HW122343   4.325   6.390   5.947  1.3570  0.4112 -1.3044
 7209SOL    HW222344   4.285   6.493   5.843 -0.6676  2.1128  1.0859
 7210SOL     OW22345   1.007   2.615   4.866 -0.3396  0.3327 -0.2783
 7210SOL    HW122346   0.977   2.703   4.844 -0.9430  0.1332 -0.2539
 7210SOL    HW222347   1.080   2.599   4.805 -0.7234  0.5487 -0.8006
 7211SOL     OW22348   6.654   1.242   0.568 -0.2873 -0.1954 -0.7828
 7211SOL    HW122349   6.665   1.296   0.489 -0.5433  0.2448 -0.5215
 7211SOL    HW222350   6.572   1.273   0.607 -0.3850 -0.7099 -0.5730
 7212SOL     OW22351   3.460   4.647   5.819 -0.3514  0.0677 -0.1762
 7212SOL    HW122352   3.530   4.599   5.776  0.7019  0.7917  0.6879
 7212SOL    HW222353   3.467   4.736   5.784  0.4427  0.6334  1.3801
 7213SOL     OW22354   1.697   5.722   0.986 -0.2458  0.4734  0.1341
 7213SOL    HW122355   1.730   5.739   1.075 -0.2526 -1.2359  0.4966
 7213SOL    HW222356   1.606   5.698   0.999  0.4844 -2.6245  0.0234
 7214SOL     OW22357   6.334   2.307   4.711 -0.1174 -0.6368 -0.5303
 7214SOL    HW122358   6.272   2.266   4.771  0.9779 -0.5226  0.7025
 7214SOL    HW222359   6.335   2.399   4.738 -0.3465 -0.3947 -1.3531
 7215SOL     OW22360   0.241   5.076   4.288  0.7151  0.0162 -0.1037
 7215SOL    HW122361   0.153   5.115   4.296  0.9795  0.9044 -1.2619
 7215SOL    HW222362   0.247   5.014   4.360 -0.1743  1.3097  1.1015
 7216SOL     OW22363   4.546   0.548   3.177 -0.4927  0.4108 -0.9747
 7216SOL    HW122364   4.496   0.558   3.259 -0.0414  1.8353 -0.8608
 7216SOL    HW222365   4.637   0.557   3.204 -0.4297  2.7486 -1.8867
 7217SOL     OW22366   0.530   2.604   4.977 -0.3259 -0.0963 -0.1680
 7217SOL    HW122367   0.548   2.562   4.893 -1.6356 -1.3955  0.1845
 7217SOL    HW222368   0.601   2.575   5.034  1.2195  1.7044 -1.0929
 7218SOL     OW22369   5.341   1.210   2.585  0.5198  0.1819 -0.2479
 7218SOL    HW122370   5.258   1.257   2.586  0.6760  0.4862 -1.0131
 7218SOL    HW222371   5.324   1.130   2.634  0.0720  0.7407  0.5104
 7219SOL     OW22372   0.118   0.941   6.656  0.0635 -0.5071  0.1700
 7219SOL    HW122373   0.178   0.974   6.589 -0.2190 -1.7096 -0.6958
 7219SOL    HW222374   0.163   0.957   6.739  0.3835  1.0869 -0.2801
 7220SOL     OW22375   3.898   2.043   6.724 -0.4627  0.7455  0.2606
 7220SOL    HW122376   3.865   2.034   6.814 -2.6342  1.5200 -0.4287
 7220SOL    HW222377   3.967   2.109   6.731 -0.4002  0.5798  1.4051
 7221SOL     OW22378   1.974   0.512   4.436  0.1461  0.1518 -0.3334
 7221SOL    HW122379   1.963   0.586   4.497  1.7077  0.6073 -0.5853
 7221SOL    HW222380   2.024   0.448   4.486 -0.0926 -0.2033 -0.5540
 7222SOL     OW22381   2.724   4.287   0.814 -0.3324 -0.0908  0.2769
 7222SOL    HW122382   2.803   4.275   0.866 -0.3937  1.7867  0.8347
 7222SOL    HW222383   2.682   4.364   0.851 -0.4945  1.1858 -2.3999
 7223SOL     OW22384   2.291   4.108   4.022 -0.3969  0.1502  0.3971
 7223SOL    HW122385   2.326   4.197   4.016  0.7049 -0.2607  0.4505
 7223SOL    HW222386   2.273   4.083   3.932  0.6773 -0.0915  0.2402
 7224SOL     OW22387   6.051   6.068   2.734 -0.4083  0.0908  0.1879
 7224SOL    HW122388   6.097   6.140   2.690 -1.0346 -0.1811 -0.9070
 7224SOL    HW222389   6.118   6.029   2.791  0.2081  0.8905  0.0281
 7225SOL     OW22390   3.524   0.336   1.448  0.1776 -0.3176  0.0823
 7225SOL    HW122391   3.505   0.423   1.483  0.7405  0.5116 -1.6207
 7225SOL    HW222392   3.619   0.334   1.437 -0.0656 -0.1788 -2.3209
 7226SOL     OW22393   0.985   2.341   2.219  0.0999  0.0872 -0.2479
 7226SOL    HW122394   1.059   2.376   2.168 -0.1041 -0.0256 -0.6225
 7226SOL    HW222395   0.950   2.416   2.266  0.8490  0.0233  0.4199
 7227SOL     OW22396   4.360   5.458   6.105  0.3709  0.3667  0.3860
 7227SOL    HW122397   4.445   5.470   6.061  0.7858 -2.3386  0.3723
 7227SOL    HW222398   4.377   5.482   6.196  1.9124 -2.6451  0.9724
 7228SOL     OW22399   0.453   3.113   4.520  0.2277  0.1492 -0.0631
 7228SOL    HW122400   0.501   3.194   4.536  0.0080  0.9819 -3.3115
 7228SOL    HW222401   0.366   3.129   4.557  1.3108 -0.0170  2.6165
 7229SOL     OW22402   0.463   2.383   2.884 -0.1424 -0.2100  0.6050
 7229SOL    HW122403   0.387   2.366   2.828 -0.5675  1.5094  0.6164
 7229SOL    HW222404   0.434   2.453   2.943  1.7639  1.2196 -0.0913
 7230SOL     OW22405   6.031   2.878   1.717 -0.1344 -0.0335  0.2348
 7230SOL    HW122406   6.087   2.863   1.793 -0.9458 -1.2909  0.5938
 7230SOL    HW222407   5.942   2.863   1.750 -0.5509  0.1998 -0.7686
 7231SOL     OW22408   3.446   5.673   3.005 -0.3088 -0.1072 -0.0104
 7231SOL    HW122409   3.405   5.710   2.927  1.2103 -0.5205 -1.0229
 7231SOL    HW222410   3.430   5.579   2.999 -2.2647  0.1094  1.4279
 7232SOL     OW22411   1.657   3.809   5.872  0.1093 -0.5733  0.4974
 7232SOL    HW122412   1.641   3.720   5.838 -1.4364  0.3169 -1.2240
 7232SOL    HW222413   1.578   3.831   5.920 -0.5240  0.7357 -1.0749
 7233SOL     OW22414   4.174   2.573   1.272 -0.1408  0.2688 -0.3736
 7233SOL    HW122415   4.161   2.575   1.367  0.6666  0.8215 -0.2678
 7233SOL    HW222416   4.105   2.515   1.239  0.4848 -1.1456  0.7054
 7234SOL     OW22417   3.099   1.884   2.121 -0.1463  0.0223  0.4813
 7234SOL    HW122418   3.123   1.801   2.079 -1.7136  0.8838 -2.1925
 7234SOL    HW222419   3.143   1.880   2.206  0.9322 -2.9484 -0.1276
 7235SOL     OW22420   2.218   1.445   4.676 -0.6367 -0.0224  0.6428
 7235SOL    HW122421   2.174   1.528   4.660  0.1406  0.5009  1.2265
 7235SOL    HW222422   2.151   1.390   4.717 -0.4068  1.1968  2.7055
 7236SOL     OW22423   6.477   1.120   3.255  0.3195 -0.6116 -0.6217
 7236SOL    HW122424   6.484   1.200   3.202 -1.2131  0.3397  0.5758
 7236SOL    HW222425   6.564   1.110   3.294  0.9706 -0.3858 -1.9591
 7237SOL     OW22426   1.142   1.599   5.935 -0.3843 -0.0451 -0.8476
 7237SOL    HW122427   1.104   1.613   6.022 -1.2672 -0.9485 -1.0745
 7237SOL    HW222428   1.235   1.582   5.952 -0.4804  0.1235 -0.1132
 7238SOL     OW22429   6.632   6.125   0.355 -0.2376 -0.4876 -0.2175
 7238SOL    HW122430   6.669   6.202   0.398 -0.4986  0.1663 -1.1639
 7238SOL    HW222431   6.700   6.097   0.294 -0.1291 -1.0326  0.1486
 7239SOL     OW22432   5.189   2.470   5.608 -0.8400 -0.0022 -0.1616
 7239SOL    HW122433   5.121   2.446   5.544 -1.1664  0.6328 -0.0600
 7239SOL    HW222434   5.242   2.535   5.562  1.4500 -2.5736 -1.2824
 7240SOL     OW22435   0.930   1.404   1.048  0.3605  0.5945  0.6224
 7240SOL    HW122436   0.923   1.413   1.143  0.7376  0.1825  0.6916
 7240SOL    HW222437   0.840   1.386   1.019  0.0989  1.6387  0.7970
 7241SOL     OW22438   0.375   0.349   6.482 -0.4102 -0.2913 -0.0099
 7241SOL    HW122439   0.349   0.258   6.499  0.5435 -0.0371  3.1261
 7241SOL    HW222440   0.310   0.402   6.529  0.1812  0.5863 -0.1639
 7242SOL     OW22441   4.550   6.015   5.270 -0.6982 -0.1654  0.7639
 7242SOL    HW122442   4.534   5.943   5.330 -1.0311  0.0098  0.8886
 7242SOL    HW222443   4.599   5.976   5.197 -0.8952 -0.5193  0.8204
 7243SOL     OW22444   1.073   3.940   3.739 -0.0671  0.3796  0.9573
 7243SOL    HW122445   0.982   3.908   3.737  0.1459 -0.2604  1.3914
 7243SOL    HW222446   1.083   3.987   3.656 -0.0791 -1.5474 -0.1625
 7244SOL     OW22447   0.437   5.951   5.966 -0.7788 -0.0561 -0.1066
 7244SOL    HW122448   0.373   5.906   5.911  0.1790 -0.0385 -1.2574
 7244SOL    HW222449   0.513   5.964   5.909 -0.1841  0.9663  0.8908
 7245SOL     OW22450   2.698   4.577   4.373 -0.1499 -0.6344 -0.1114
 7245SOL    HW122451   2.629   4.553   4.435 -0.6798  0.8373 -0.1060
 7245SOL    HW222452   2.680   4.669   4.352  0.4748 -0.8879 -1.8548
 7246SOL     OW22453   4.835   2.697   6.305 -0.1606 -0.5058  0.2859
 7246SOL    HW122454   4.855   2.791   6.310  1.9158 -0.6827 -3.2479
 7246SOL    HW222455   4.741   2.694   6.283 -0.2068  0.7638  0.2621
 7247SOL     OW22456   0.654   2.806   1.034 -0.2026 -0.1633  0.1872
 7247SOL    HW122457   0.741   2.847   1.036 -0.6734  0.8423  1.8710
 7247SOL    HW222458   0.613   2.841   0.955 -0.4616  2.4311  1.4011
 7248SOL     OW22459   3.493   6.725   5.310  0.2203 -0.3378  0.1692
 7248SOL    HW122460   3.528   6.664   5.375  0.0932 -0.8405 -0.2327
 7248SOL    HW222461   3.505   6.680   5.226 -1.0800 -0.3772 -0.0010
 7249SOL     OW22462   0.915   1.098   1.222 -0.2809  0.0640 -0.6050
 7249SOL    HW122463   0.901   1.083   1.316  0.3325  3.2483  0.0317
 7249SOL    HW222464   0.827   1.098   1.185 -0.4959 -1.8130 -0.1530
 7250SOL     OW22465   1.820   6.563   6.494 -0.1801  0.0882 -0.6905
 7250SOL    HW122466   1.894   6.611   6.456  1.3796 -1.5143  0.2894
 7250SOL    HW222467   1.769   6.630   6.540  1.0293  1.0805 -0.7846
 7251SOL     OW22468   5.889   2.755   2.394 -0.1705 -0.2194 -0.1086
 7251SOL    HW122469   5.849   2.683   2.443  0.5573 -0.6201 -0.0978
 7251SOL    HW222470   5.848   2.750   2.308  0.2199 -0.9454 -0.2582
 7252SOL     OW22471   2.947   5.782   4.788 -0.3251  0.1119 -0.5386
 7252SOL    HW122472   2.861   5.823   4.783 -0.1874  0.3914 -0.6204
 7252SOL    HW222473   2.929   5.688   4.794 -0.6523  0.2068  0.0075
 7253SOL     OW22474   6.204   2.611   3.268 -0.7194 -0.2224 -0.0208
 7253SOL    HW122475   6.167   2.686   3.314 -0.4316  0.5648 -1.0639
 7253SOL    HW222476   6.291   2.599   3.307 -1.3968 -1.0462  1.2794
 7254SOL     OW22477   1.447   3.891   6.027 -0.4114  0.3602 -0.0380
 7254SOL    HW122478   1.491   3.936   6.099  1.0070  0.8258 -1.1725
 7254SOL    HW222479   1.363   3.937   6.018 -0.2559  0.8154  0.7799
 7255SOL     OW22480   4.931   5.094   6.471 -0.4369 -0.3171  0.1019
 7255SOL    HW122481   4.989   5.153   6.423 -0.6084  1.1849  1.6558
 7255SOL    HW222482   4.844   5.115   6.440 -0.4734  0.1192  0.4760
 7256SOL     OW22483   5.531   2.010   6.145  0.4114  0.5004 -0.1579
 7256SOL    HW122484   5.527   2.106   6.139  2.1325  0.6849  1.3613
 7256SOL    HW222485   5.571   1.983   6.062 -0.1488  1.0870 -0.6268
 7257SOL     OW22486   2.720   0.479   2.834  0.3069 -0.3896 -0.0546
 7257SOL    HW122487   2.706   0.390   2.869  2.3800 -1.1386 -1.0496
 7257SOL    HW222488   2.771   0.523   2.902 -0.8638  0.0991  0.5112
 7258SOL     OW22489   1.712   5.068   0.351 -0.4179 -0.4283  0.1452
 7258SOL    HW122490   1.635   5.024   0.316 -1.5508  1.8275 -0.2732
 7258SOL    HW222491   1.725   5.144   0.295 -0.2706  1.3964  2.5369
 7259SOL     OW22492   4.756   2.513   3.199 -0.0161  0.1568 -0.2280
 7259SOL    HW122493   4.789   2.575   3.264 -0.1131 -0.3232  0.2834
 7259SOL    HW222494   4.821   2.443   3.197  0.0721  0.2497 -0.7767
 7260SOL     OW22495   1.808   5.492   2.367  0.2316 -0.0509 -0.1839
 7260SOL    HW122496   1.798   5.397   2.364  1.1785 -0.3161  3.1834
 7260SOL    HW222497   1.722   5.524   2.393 -0.2445  0.0954 -1.8678
 7261SOL     OW22498   1.350   2.580   3.111  0.3342 -0.3990 -0.4457
 7261SOL    HW122499   1.281   2.610   3.052 -0.7115 -1.4439  0.2174
 7261SOL    HW222500   1.417   2.543   3.053 -0.5276 -1.1102 -1.0131
 7262SOL     OW22501   2.703   0.980   5.577  0.7095  0.0849  0.9266
 7262SOL    HW122502   2.765   0.975   5.505 -1.5130 -2.1536 -0.8933
 7262SOL    HW222503   2.671   1.070   5.575  1.7822  0.4554  0.1189
 7263SOL     OW22504   1.001   1.054   4.950 -0.2041  0.1489 -0.1503
 7263SOL    HW122505   0.978   1.082   5.038 -2.5829  1.1363 -1.0498
 7263SOL    HW222506   0.928   1.082   4.896 -0.1542 -3.0464 -1.9862
 7264SOL     OW22507   3.768   0.612   6.336 -0.4750 -1.1235 -0.3072
 7264SOL    HW122508   3.772   0.521   6.366 -0.4504 -1.2439 -0.6763
 7264SOL    HW222509   3.848   0.652   6.368 -0.1066 -1.4407 -0.8360
 7265SOL     OW22510   1.501   5.647   6.274 -0.7338 -0.4548 -0.1628
 7265SOL    HW122511   1.449   5.698   6.336  0.2256  0.2331  0.0774
 7265SOL    HW222512   1.494   5.557   6.304 -1.3108 -0.2890  0.2023
 7266SOL     OW22513   3.567   0.142   4.209 -0.6324 -0.3165  0.3927
 7266SOL    HW122514   3.593   0.167   4.298 -0.2415 -1.5966  0.6451
 7266SOL    HW222515   3.647   0.109   4.169 -0.6438  0.9631 -0.6973
 7267SOL     OW22516   5.882   0.639   5.820 -0.0879 -0.4634  0.2562
 7267SOL    HW122517   5.844   0.584   5.751  1.3767 -1.9425  0.6135
 7267SOL    HW222518   5.939   0.700   5.773  0.6367 -1.2371  0.1429
 7268SOL     OW22519   0.834   0.811   0.956 -0.4167  0.0621  0.4560
 7268SOL    HW122520   0.872   0.724   0.968 -0.2594 -0.0398 -0.6831
 7268SOL    HW222521   0.806   0.838   1.043 -0.0270 -0.9298  0.8907
 7269SOL     OW22522   6.609   5.629   6.184  0.1085  0.5174  0.2062
 7269SOL    HW122523   6.573   5.582   6.108 -0.6928  0.4351  0.6430
 7269SOL    HW222524   6.679   5.683   6.147  0.3409 -0.2304 -0.4597
 7270SOL     OW22525   6.547   2.599   5.872  0.4060 -0.2067 -0.1823
 7270SOL    HW122526   6.622   2.655   5.892  1.5916 -2.4299  1.7752
 7270SOL    HW222527   6.581   2.535   5.809  0.8090 -2.4914  2.2423
 7271SOL     OW22528   1.999   0.361   0.074 -0.1705 -0.1409  0.2635
 7271SOL    HW122529   2.093   0.343   0.076 -0.1814 -0.1032  1.6663
 7271SOL    HW222530   1.958   0.274   0.072 -0.1547 -0.2931  3.5549
 7272SOL     OW22531   5.281   2.376   1.163  0.0504  0.2388  0.0093
 7272SOL    HW122532   5.295   2.403   1.254 -0.4952 -1.6971  0.6947
 7272SOL    HW222533   5.321   2.290   1.157 -1.8854 -0.6303 -0.9574
 7273SOL     OW22534   3.687   6.014   0.858 -0.0362  0.0306 -0.0344
 7273SOL    HW122535   3.606   5.969   0.835  0.9084 -0.8681 -1.7064
 7273SOL    HW222536   3.688   6.092   0.801 -0.7863  1.2251  1.5580
 7274SOL     OW22537   3.557   4.751   4.824 -0.4225 -0.3374  0.4639
 7274SOL    HW122538   3.589   4.760   4.913 -2.7187 -1.5402  1.4363
 7274SOL    HW222539   3.537   4.658   4.814 -0.4698 -0.1733 -1.2211
 7275SOL     OW22540   0.644   2.194   3.604  0.5614 -0.0243  0.1595
 7275SOL    HW122541   0.660   2.125   3.669  1.1353 -1.2364 -1.2462
 7275SOL    HW222542   0.710   2.179   3.537  1.0006  2.2069  0.0527
 7276SOL     OW22543   5.314   0.587   4.666  0.3452 -0.0843  0.1632
 7276SOL    HW122544   5.349   0.502   4.640  0.1540  0.2174 -1.0850
 7276SOL    HW222545   5.359   0.650   4.610 -0.7723  0.4823 -0.1057
 7277SOL     OW22546   1.012   1.782   5.795  0.2472  0.2079  1.0233
 7277SOL    HW122547   1.079   1.831   5.747 -0.6410  1.2600  0.8389
 7277SOL    HW222548   1.061   1.719   5.847  1.2708 -0.8799 -1.1565
 7278SOL     OW22549   0.189   2.915   3.556 -0.1610  0.3535  0.0075
 7278SOL    HW122550   0.149   2.988   3.603  1.2867  0.4437  1.1456
 7278SOL    HW222551   0.115   2.862   3.526 -1.1503  0.9382  1.3685
 7279SOL     OW22552   3.949   1.527   2.147 -0.2334  0.2042 -0.1932
 7279SOL    HW122553   3.964   1.566   2.233 -1.1118 -0.3148  0.1970
 7279SOL    HW222554   3.927   1.602   2.091 -0.8519  0.4063  0.3090
 7280SOL     OW22555   5.423   0.294   2.996  0.7615 -0.4799 -0.0065
 7280SOL    HW122556   5.460   0.350   3.063 -0.8426  0.5875  0.0245
 7280SOL    HW222557   5.340   0.263   3.034 -0.0382 -0.0735 -1.3724
 7281SOL     OW22558   0.629   4.926   2.786 -0.0671 -0.3273  0.2909
 7281SOL    HW122559   0.592   4.859   2.730  0.2404  0.5672 -1.0062
 7281SOL    HW222560   0.555   4.959   2.837 -0.5883 -0.2698 -0.4949
 7282SOL     OW22561   3.374   6.535   5.083 -0.2695  0.1356 -0.1771
 7282SOL    HW122562   3.305   6.597   5.105  2.8670  3.2953  1.4128
 7282SOL    HW222563   3.395   6.554   4.992  0.9376  1.8087  0.4099
 7283SOL     OW22564   2.772   2.945   5.108 -0.3993 -0.5683  0.3296
 7283SOL    HW122565   2.809   2.889   5.177 -0.8402 -1.4277 -0.1171
 7283SOL    HW222566   2.677   2.939   5.122 -0.4832 -0.6338 -0.2600
 7284SOL     OW22567   1.482   5.906   2.597 -0.0209 -0.1749  0.5563
 7284SOL    HW122568   1.418   5.976   2.589 -0.9555 -1.0785  0.0276
 7284SOL    HW222569   1.444   5.833   2.550  0.9477 -1.0482  1.0990
 7285SOL     OW22570   3.214   4.000   2.907  0.0340  0.4734 -0.2059
 7285SOL    HW122571   3.251   4.088   2.906  1.0652  0.0707  1.2207
 7285SOL    HW222572   3.189   3.984   2.817  4.4850  0.2558 -1.5121
 7286SOL     OW22573   2.998   1.569   2.042  0.1479 -0.4807  0.1157
 7286SOL    HW122574   2.970   1.568   2.134  0.7739 -0.7732  0.3037
 7286SOL    HW222575   2.917   1.557   1.993 -0.0899 -1.1125  0.6543
 7287SOL     OW22576   3.409   6.072   0.439 -0.1291  0.5143  0.5170
 7287SOL    HW122577   3.495   6.032   0.452  0.8815  3.4689  3.7783
 7287SOL    HW222578   3.429   6.155   0.396 -1.7364 -0.2688 -1.8258
 7288SOL     OW22579   6.137   4.550   5.638  0.6481 -0.2362 -0.0122
 7288SOL    HW122580   6.106   4.508   5.558  0.4578 -0.6490  0.2763
 7288SOL    HW222581   6.186   4.482   5.683 -0.4000 -0.4074  0.8770
 7289SOL     OW22582   0.498   0.967   0.147 -0.1753  0.3745 -0.7835
 7289SOL    HW122583   0.476   0.933   0.234  0.7915 -0.1134 -0.7252
 7289SOL    HW222584   0.565   1.034   0.164  0.2613  0.0410 -1.1736
 7290SOL     OW22585   3.344   5.934   4.514 -0.0744  0.2730 -0.0257
 7290SOL    HW122586   3.325   5.964   4.426 -1.8911 -0.0261  0.2277
 7290SOL    HW222587   3.300   5.997   4.571  1.2408  0.5733  0.6797
 7291SOL     OW22588   5.765   2.960   2.153 -0.4316  0.4149  0.0227
 7291SOL    HW122589   5.743   2.870   2.131 -0.6689  0.3748  0.4246
 7291SOL    HW222590   5.726   3.012   2.083  1.4026  0.0626 -1.3067
 7292SOL     OW22591   6.106   2.394   0.298 -0.5212 -0.3108  0.1456
 7292SOL    HW122592   6.120   2.347   0.216 -1.0466 -1.5010  0.7294
 7292SOL    HW222593   6.012   2.388   0.314 -0.4107 -0.1546  0.8816
 7293SOL     OW22594   0.994   2.019   2.661 -0.5572 -0.1162 -0.0767
 7293SOL    HW122595   1.078   2.055   2.690  0.8687 -3.8908  0.7784
 7293SOL    HW222596   0.937   2.028   2.737 -0.5773  1.4053 -0.2673
 7294SOL     OW22597   2.868   1.615   0.880  0.4491  0.3326  0.0880
 7294SOL    HW122598   2.849   1.706   0.900 -0.3594  0.1387  0.2348
 7294SOL    HW222599   2.793   1.586   0.827  0.4974 -0.3528  0.3862
 7295SOL     OW22600   5.337   1.622   3.500 -0.4760 -0.1363  0.2186
 7295SOL    HW122601   5.278   1.548   3.510  0.2225 -1.0258 -2.0642
 7295SOL    HW222602   5.390   1.601   3.423 -0.6499  2.9740 -0.8214
 7296SOL     OW22603   4.843   6.256   0.613 -0.5487 -0.5245 -0.1244
 7296SOL    HW122604   4.931   6.220   0.617 -0.4615 -0.1102  2.1317
 7296SOL    HW222605   4.827   6.271   0.519  1.5690 -1.0734 -0.5809
 7297SOL     OW22606   5.124   4.030   0.339  0.0066  0.0343 -0.7550
 7297SOL    HW122607   5.139   3.988   0.255 -0.4022  1.7478 -1.7082
 7297SOL    HW222608   5.029   4.029   0.350  0.0490 -0.0557 -0.3854
 7298SOL     OW22609   3.554   3.897   3.372 -0.6739  0.2097 -0.3405
 7298SOL    HW122610   3.471   3.853   3.353 -0.5530  0.3625 -1.2353
 7298SOL    HW222611   3.581   3.934   3.288  0.5165 -0.2028 -0.1428
 7299SOL     OW22612   0.057   6.480   6.508  0.0980  0.2493 -0.0769
 7299SOL    HW122613   0.039   6.401   6.457 -1.3317  2.5144 -3.3066
 7299SOL    HW222614   0.150   6.498   6.493  0.7023 -1.3860  1.5761
 7300SOL     OW22615   4.932   3.166   3.170 -0.1139  0.5286  0.1469
 7300SOL    HW122616   4.948   3.237   3.108  0.3366  1.2140  1.0396
 7300SOL    HW222617   5.008   3.167   3.228 -0.2424 -0.4977  0.3509
 7301SOL     OW22618   3.669   6.191   5.487  0.1281  0.1148  0.0134
 7301SOL    HW122619   3.662   6.184   5.582  0.9026  0.4424  0.0991
 7301SOL    HW222620   3.721   6.114   5.461 -0.4994 -0.2429 -0.2033
 7302SOL     OW22621   5.321   3.359   2.484  0.0166 -0.0214  0.4471
 7302SOL    HW122622   5.359   3.417   2.551  4.5523 -2.5048  0.2552
 7302SOL    HW222623   5.277   3.418   2.423  2.1863  2.9787  1.6745
 7303SOL     OW22624   3.693   5.407   3.278 -0.1126 -0.3404 -0.2613
 7303SOL    HW122625   3.622   5.413   3.213 -0.2426 -1.3648 -0.2205
 7303SOL    HW222626   3.712   5.313   3.284 -0.4231 -0.3063  1.5418
 7304SOL     OW22627   4.648   1.364   6.317 -0.7975 -0.1324 -0.1284
 7304SOL    HW122628   4.576   1.332   6.263 -0.7567  0.8159 -0.7512
 7304SOL    HW222629   4.722   1.309   6.292 -1.0932 -0.5385 -0.1166
 7305SOL     OW22630   0.841   3.243   3.784  0.1480  0.2638 -0.4308
 7305SOL    HW122631   0.814   3.168   3.732 -1.4389  0.5723 -0.0975
 7305SOL    HW222632   0.932   3.259   3.759  0.9564 -2.5841  0.4816
 7306SOL     OW22633   2.191   4.585   6.209 -0.6124  0.1350 -0.1002
 7306SOL    HW122634   2.265   4.528   6.226  0.6301  1.4796 -0.8864
 7306SOL    HW222635   2.218   4.639   6.134 -2.9995 -0.4455 -1.4344
 7307SOL     OW22636   5.465   4.075   3.001  0.1874  0.2760 -0.4119
 7307SOL    HW122637   5.537   4.091   3.062  0.2942 -0.4336 -0.3482
 7307SOL    HW222638   5.415   4.003   3.040 -1.0106  1.2937 -0.0629
 7308SOL     OW22639   1.480   3.613   1.836  0.2667 -0.4007 -0.4662
 7308SOL    HW122640   1.465   3.638   1.744  2.0963  0.7909 -0.4907
 7308SOL    HW222641   1.503   3.520   1.832 -0.8232 -0.6551 -1.0740
 7309SOL     OW22642   1.445   3.294   1.174  1.1733 -0.1725 -0.3704
 7309SOL    HW122643   1.448   3.348   1.252 -0.0888 -1.2571  0.4424
 7309SOL    HW222644   1.434   3.205   1.206  1.0320 -0.6810 -1.7690
 7310SOL     OW22645   0.601   1.269   2.730  0.4240  0.4800  0.1865
 7310SOL    HW122646   0.649   1.223   2.798 -0.7225 -0.5687  0.2957
 7310SOL    HW222647   0.528   1.311   2.777 -0.8285 -0.9029 -0.4909
 7311SOL     OW22648   2.699   3.461   5.916 -0.8771  0.0747 -0.1366
 7311SOL    HW122649   2.785   3.421   5.924 -0.7359 -0.3114 -3.1482
 7311SOL    HW222650   2.638   3.388   5.920 -0.9822  0.1880  0.3902
 7312SOL     OW22651   1.440   6.501   2.862  0.3326 -0.0121  0.2886
 7312SOL    HW122652   1.459   6.572   2.923  0.0256  0.9576 -0.7330
 7312SOL    HW222653   1.508   6.508   2.794 -1.0747  0.7960 -1.0712
 7313SOL     OW22654   2.133   5.767   2.444  0.3850 -0.0445 -0.9024
 7313SOL    HW122655   2.215   5.807   2.474  1.2934 -1.6190 -1.2222
 7313SOL    HW222656   2.064   5.819   2.486  1.5905 -0.4929  1.7256
 7314SOL     OW22657   0.445   0.906   0.415  0.1767 -0.4726  0.4695
 7314SOL    HW122658   0.462   0.814   0.436  1.7129  0.0552  1.6445
 7314SOL    HW222659   0.439   0.949   0.500 -0.0185  0.6239 -0.0886
 7315SOL     OW22660   5.359   0.386   2.571  0.0467 -0.0580 -0.0520
 7315SOL    HW122661   5.381   0.407   2.480 -1.4632  0.8147 -0.2300
 7315SOL    HW222662   5.333   0.293   2.569 -0.2212  0.0268 -0.5576
 7316SOL     OW22663   3.144   4.996   1.194  0.3605 -0.5074 -0.1611
 7316SOL    HW122664   3.115   4.992   1.285  0.2713  0.4383 -0.1424
 7316SOL    HW222665   3.138   5.088   1.171  1.7129 -0.5326 -0.6972
 7317SOL     OW22666   6.625   5.485   6.657  0.0433  0.6395 -0.0950
 7317SOL    HW122667   6.634   5.406   6.711  1.9554  0.3901 -0.7278
 7317SOL    HW222668   6.697   5.542   6.686  0.4611  0.9188 -1.6660
 7318SOL     OW22669   6.692   0.333   1.561 -0.4055  0.2566  0.2068
 7318SOL    HW122670   6.755   0.262   1.570  0.0182  0.6673  0.4825
 7318SOL    HW222671   6.745   0.412   1.554 -0.8541  0.4509 -1.0647
 7319SOL     OW22672   3.455   1.776   1.575 -0.1178  0.4304  0.2902
 7319SOL    HW122673   3.373   1.768   1.624 -0.5270  0.1584 -0.4223
 7319SOL    HW222674   3.430   1.820   1.494 -0.2058 -2.7433 -1.4693
 7320SOL     OW22675   6.745   5.748   6.718 -0.5101 -0.1550 -0.2992
 7320SOL    HW122676   6.709   5.737   6.806  1.1765 -0.8709  0.2985
 7320SOL    HW222677   6.831   5.787   6.732  0.0608 -0.9422 -1.5920
 7321SOL     OW22678   6.119   0.150   4.976  0.3186  0.4026  0.5013
 7321SOL    HW122679   6.033   0.152   4.935  0.5305 -0.0130  0.0361
 7321SOL    HW222680   6.101   0.165   5.069  0.0400  3.9698 -0.0362
 7322SOL     OW22681   6.366   1.095   2.664  0.2959  0.0316  0.6855
 7322SOL    HW122682   6.384   1.006   2.692 -0.0160 -0.5337 -0.8630
 7322SOL    HW222683   6.431   1.148   2.710  0.4505 -0.9761  1.6529
 7323SOL     OW22684   5.854   6.428   0.960 -0.1988  0.3160 -0.3053
 7323SOL    HW122685   5.914   6.354   0.956 -0.2195  0.3412 -1.2395
 7323SOL    HW222686   5.767   6.388   0.953 -0.2882  0.2909  0.9134
 7324SOL     OW22687   0.680   2.451   4.731 -0.0763 -0.4723 -0.1430
 7324SOL    HW122688   0.635   2.379   4.686  0.2542 -0.0400 -1.1890
 7324SOL    HW222689   0.712   2.506   4.660  0.6496  0.1092  0.6341
 7325SOL     OW22690   0.511   4.270   0.546 -0.0991  0.1485 -0.5259
 7325SOL    HW122691   0.417   4.273   0.560 -0.1407 -1.2553 -0.5248
 7325SOL    HW222692   0.523   4.300   0.456 -0.9086 -3.6847 -1.9902
 7326SOL     OW22693   1.586   4.208   1.487  0.4337  0.1991 -0.3752
 7326SOL    HW122694   1.623   4.291   1.456 -0.0097  0.7817  0.6221
 7326SOL    HW222695   1.497   4.231   1.514  0.8113 -0.2857  1.2996
 7327SOL     OW22696   5.598   1.855   3.528  0.1596 -0.1583 -0.3494
 7327SOL    HW122697   5.624   1.821   3.442 -1.3471 -1.3093 -0.3642
 7327SOL    HW222698   5.505   1.877   3.518  0.3625  1.1483  0.5480
 7328SOL     OW22699   5.546   3.027   6.311 -0.2914 -0.6275 -0.4643
 7328SOL    HW122700   5.539   2.932   6.306  0.1143 -0.5671 -2.5913
 7328SOL    HW222701   5.598   3.052   6.236 -1.5220  1.4022 -0.7050
 7329SOL     OW22702   3.987   1.153   1.098 -0.2378 -0.0955 -0.3353
 7329SOL    HW122703   4.046   1.147   1.023  0.0136 -1.4232 -0.0482
 7329SOL    HW222704   4.045   1.166   1.173 -0.4588  0.7464 -0.3030
 7330SOL     OW22705   5.050   4.007   1.858  0.0283  0.1315  0.5039
 7330SOL    HW122706   5.006   3.926   1.833 -2.2229  1.6839 -0.7947
 7330SOL    HW222707   5.047   4.008   1.953  0.6452 -1.5988  0.5524
 7331SOL     OW22708   1.030   5.870   5.627 -0.1141 -0.4410 -0.3452
 7331SOL    HW122709   1.032   5.863   5.723 -1.0350 -0.3871 -0.3089
 7331SOL    HW222710   0.936   5.871   5.606  0.0875 -0.6866 -1.2649
 7332SOL     OW22711   2.407   4.434   5.139 -0.1021  0.0239 -0.1117
 7332SOL    HW122712   2.344   4.376   5.097 -0.5707  1.3160 -1.1958
 7332SOL    HW222713   2.385   4.429   5.232 -0.6738 -0.8775 -0.2881
 7333SOL     OW22714   0.469   1.965   4.332 -0.1095 -0.1986  1.0059
 7333SOL    HW122715   0.499   1.916   4.256 -1.8701  0.2160  0.0206
 7333SOL    HW222716   0.451   2.053   4.299  0.0961  0.2689  2.1132
 7334SOL     OW22717   3.086   5.238   2.995  0.2306 -0.0756  0.0867
 7334SOL    HW122718   3.094   5.304   2.926 -2.0102  0.0390 -0.0854
 7334SOL    HW222719   3.174   5.232   3.032  1.4001  0.1281 -2.5418
 7335SOL     OW22720   4.417   1.149   1.481 -0.4939 -0.2075 -0.2166
 7335SOL    HW122721   4.454   1.232   1.512 -0.6728 -0.4947  0.8100
 7335SOL    HW222722   4.481   1.115   1.419  0.7838 -0.4958  1.2221
 7336SOL     OW22723   5.726   5.811   3.647 -0.1280  0.1071 -0.2873
 7336SOL    HW122724   5.777   5.886   3.678  1.6826 -0.8576 -0.7987
 7336SOL    HW222725   5.760   5.794   3.559 -1.4240 -0.4993 -0.6757
 7337SOL     OW22726   2.508   4.646   2.708  0.0862 -0.2797  0.2023
 7337SOL    HW122727   2.446   4.645   2.781 -1.9525  0.0814 -1.5053
 7337SOL    HW222728   2.545   4.734   2.709 -0.6560  0.0354  0.2046
 7338SOL     OW22729   2.118   2.466   4.162 -0.6962 -0.5030  0.1510
 7338SOL    HW122730   2.182   2.397   4.181 -0.2359 -0.3426 -0.7832
 7338SOL    HW222731   2.090   2.448   4.072 -0.5460  0.5459 -0.1064
 7339SOL     OW22732   6.360   3.609   5.130 -0.0726  0.2838 -0.1415
 7339SOL    HW122733   6.300   3.682   5.144 -0.0140  0.4779 -0.9047
 7339SOL    HW222734   6.381   3.578   5.219 -2.4542 -0.7240  0.0996
 7340SOL     OW22735   0.002   2.026   0.056 -0.3179 -0.1366 -0.6547
 7340SOL    HW122736  -0.088   2.058   0.043 -0.5848 -0.5401  0.1721
 7340SOL    HW222737  -0.008   1.932   0.071 -0.1098  0.3609  3.0120
 7341SOL     OW22738   3.901   5.542   4.518  0.2595  0.0306 -0.6179
 7341SOL    HW122739   3.807   5.531   4.529  0.0132  1.7200 -0.9947
 7341SOL    HW222740   3.926   5.471   4.458 -0.9369  0.2294 -1.3620
 7342SOL     OW22741   2.008   5.218   4.213 -0.0996 -0.1788  0.3567
 7342SOL    HW122742   2.045   5.257   4.134  1.2318  0.2201  1.1635
 7342SOL    HW222743   2.072   5.153   4.240 -0.3450 -0.0143  1.3386
 7343SOL     OW22744   6.219   6.733   1.424 -0.0962  1.0453 -0.3631
 7343SOL    HW122745   6.269   6.761   1.501 -1.7128 -0.7801  1.4290
 7343SOL    HW222746   6.154   6.801   1.412  0.4018  1.5312 -0.3520
 7344SOL     OW22747   4.745   4.305   6.453  0.4978 -0.6482 -0.0479
 7344SOL    HW122748   4.676   4.255   6.497 -0.8731 -1.5624 -3.1140
 7344SOL    HW222749   4.718   4.396   6.461  0.9140 -0.6720  2.0226
 7345SOL     OW22750   1.080   2.896   6.056  0.0731  0.5510 -0.0675
 7345SOL    HW122751   1.167   2.930   6.035 -0.2688  0.9491 -0.8845
 7345SOL    HW222752   1.029   2.911   5.977 -1.1208  1.6262  0.8775
 7346SOL     OW22753   1.571   1.683   6.759  0.2480  0.8940 -0.1180
 7346SOL    HW122754   1.662   1.651   6.753  0.4939  1.2279  1.5084
 7346SOL    HW222755   1.518   1.605   6.742  0.8151  1.1542 -3.2356
 7347SOL     OW22756   3.643   5.556   6.221  0.0173  0.2143  0.1756
 7347SOL    HW122757   3.730   5.528   6.247 -0.5618 -1.7774  0.0262
 7347SOL    HW222758   3.601   5.584   6.302 -0.1919 -1.5689  0.6919
 7348SOL     OW22759   3.368   4.550   6.199 -0.0073 -0.2658 -0.1601
 7348SOL    HW122760   3.449   4.501   6.215 -0.1318 -1.1548 -2.1421
 7348SOL    HW222761   3.306   4.484   6.168 -0.4720  0.9571 -1.9132
 7349SOL     OW22762   5.910   0.739   5.053 -0.1356  0.0438 -0.0047
 7349SOL    HW122763   5.922   0.784   4.970 -1.5823  0.7345  0.1309
 7349SOL    HW222764   5.915   0.646   5.031  2.9658  0.2224 -0.2748
 7350SOL     OW22765   1.350   2.855   4.033  0.6412  0.6353  0.1025
 7350SOL    HW122766   1.372   2.880   4.123  1.4506 -0.0699  0.1069
 7350SOL    HW222767   1.391   2.921   3.978  0.6844  0.7116  0.2275
 7351SOL     OW22768   4.475   2.862   3.814  0.6217  0.0186  0.2034
 7351SOL    HW122769   4.556   2.888   3.769  0.8936  1.3672  1.4449
 7351SOL    HW222770   4.503   2.796   3.876  1.0992  1.7559  1.8834
 7352SOL     OW22771   3.242   4.789   4.294  0.6684 -0.0650 -0.7109
 7352SOL    HW122772   3.177   4.859   4.297  1.2402  0.4660 -0.6083
 7352SOL    HW222773   3.217   4.737   4.218 -0.6986 -0.6695  0.1333
 7353SOL     OW22774   1.729   6.707   2.521  0.3536 -0.3103  0.2806
 7353SOL    HW122775   1.718   6.649   2.596  1.6428 -1.3289 -0.3084
 7353SOL    HW222776   1.817   6.688   2.488  0.3005  1.0621 -0.6967
 7354SOL     OW22777   6.584   0.984   0.454  0.7331 -0.5531 -0.4406
 7354SOL    HW122778   6.647   0.919   0.484 -0.4115 -0.8629  1.3930
 7354SOL    HW222779   6.628   1.068   0.466  2.0214 -0.9302 -2.3364
 7355SOL     OW22780   2.843   2.010   1.820  0.3574 -0.0459 -0.3357
 7355SOL    HW122781   2.835   1.962   1.738  0.0919  0.2405 -0.4748
 7355SOL    HW222782   2.933   2.044   1.819 -0.3543  1.8613 -1.5432
 7356SOL     OW22783   5.632   0.427   3.145  0.1725  0.4847  0.0001
 7356SOL    HW122784   5.711   0.459   3.102  1.2353  0.1752  1.6485
 7356SOL    HW222785   5.662   0.349   3.193 -1.8613 -1.6843 -2.1245
 7357SOL     OW22786   0.596   4.056   2.953 -0.1850 -0.0988 -0.1281
 7357SOL    HW122787   0.675   4.049   2.899 -0.4196  1.4336 -0.7254
 7357SOL    HW222788   0.524   4.053   2.890 -0.5973 -1.4599  0.4126
 7358SOL     OW22789   5.271   0.937   2.944 -0.3989  0.0651  0.5128
 7358SOL    HW122790   5.366   0.936   2.930 -0.6159  1.5451 -1.2449
 7358SOL    HW222791   5.247   0.845   2.949  1.0593 -0.3357  0.4492
 7359SOL     OW22792   3.568   3.200   6.541 -0.1154  0.2649  0.7081
 7359SOL    HW122793   3.557   3.226   6.449 -0.1025 -0.1132  0.5974
 7359SOL    HW222794   3.597   3.109   6.536 -1.1944 -0.1141  1.1122
 7360SOL     OW22795   3.942   6.164   4.131  0.1449  0.3706 -0.1753
 7360SOL    HW122796   3.964   6.212   4.052  0.2050 -0.9399 -0.9644
 7360SOL    HW222797   3.904   6.082   4.100 -0.8468  0.3069  1.1561
 7361SOL     OW22798   3.943   4.439   0.310  0.2703 -0.3243  0.1216
 7361SOL    HW122799   3.880   4.403   0.373  2.1044 -1.2654  1.4655
 7361SOL    HW222800   3.897   4.435   0.226 -2.0307  0.4375  1.2866
 7362SOL     OW22801   6.712   2.134   1.272 -0.1969  0.1560 -0.1199
 7362SOL    HW122802   6.806   2.124   1.257 -0.1402  0.0704  0.2708
 7362SOL    HW222803   6.683   2.197   1.207 -0.3369 -1.6733 -1.8655
 7363SOL     OW22804   1.695   0.415   2.193  0.1511 -0.4881 -0.0220
 7363SOL    HW122805   1.748   0.494   2.203 -0.1197 -0.3234  0.1154
 7363SOL    HW222806   1.639   0.414   2.270 -1.6848  0.5989 -1.3094
 7364SOL     OW22807   4.122   1.129   0.512 -0.1649 -0.1615 -0.3627
 7364SOL    HW122808   4.154   1.039   0.523  0.2682  0.2054  1.6931
 7364SOL    HW222809   4.069   1.126   0.433  0.5817 -2.0232 -0.8316
 7365SOL     OW22810   3.631   5.897   3.869  0.1687  0.1893 -0.6776
 7365SOL    HW122811   3.653   5.972   3.814  0.9284  0.2230 -0.3360
 7365SOL    HW222812   3.697   5.897   3.938 -0.8656  0.2368  0.3326
 7366SOL     OW22813   4.745   0.383   1.724 -0.1379  0.0706 -0.1448
 7366SOL    HW122814   4.806   0.309   1.721 -0.1414  0.0623 -0.0065
 7366SOL    HW222815   4.773   0.440   1.652  0.6622  0.5546  0.5435
 7367SOL     OW22816   2.347   2.790   2.754 -0.3142 -0.5063  0.5901
 7367SOL    HW122817   2.303   2.820   2.833 -1.4348  0.6808 -0.4755
 7367SOL    HW222818   2.293   2.822   2.682  1.7648  0.2045 -0.7190
 7368SOL     OW22819   5.353   6.042   4.848 -0.1515  0.7451 -0.1089
 7368SOL    HW122820   5.325   6.133   4.842  1.5888  1.6042  3.6633
 7368SOL    HW222821   5.325   6.014   4.935 -0.4444 -2.2716 -1.1298
 7369SOL     OW22822   1.127   2.633   0.998  0.3048 -0.1704  0.4595
 7369SOL    HW122823   1.068   2.645   0.923  0.6588  0.3746  0.2643
 7369SOL    HW222824   1.070   2.643   1.075  0.0024 -0.4139  0.2693
 7370SOL     OW22825   6.278   4.780   5.675 -0.3962  0.2235 -0.2167
 7370SOL    HW122826   6.293   4.755   5.766 -1.4904 -1.9400 -0.5932
 7370SOL    HW222827   6.222   4.711   5.640  0.3418  0.7990 -2.6522
 7371SOL     OW22828   2.821   2.229   2.138 -0.5789  0.8992  0.0520
 7371SOL    HW122829   2.805   2.315   2.102 -1.1730  1.6846  2.0884
 7371SOL    HW222830   2.883   2.244   2.209  0.8356 -0.6274 -0.8367
 7372SOL     OW22831   2.192   3.892   3.544 -0.4717  0.3861 -0.2771
 7372SOL    HW122832   2.139   3.876   3.466 -1.0865 -1.1456  0.4392
 7372SOL    HW222833   2.205   3.805   3.583  0.2028  1.0769  1.0785
 7373SOL     OW22834   3.596   1.335   6.561  0.0183 -0.1776  0.1074
 7373SOL    HW122835   3.601   1.251   6.516  0.4074  0.0016 -0.1854
 7373SOL    HW222836   3.509   1.368   6.541  0.2800  0.0198 -0.7215
 7374SOL     OW22837   3.023   2.126   3.884  0.0299 -0.0406  0.0382
 7374SOL    HW122838   2.999   2.217   3.867  1.3584  0.2906 -0.0786
 7374SOL    HW222839   2.965   2.076   3.826 -0.4046  0.7460 -0.2253
 7375SOL     OW22840   0.787   4.131   0.383  0.5935 -0.1698 -0.3352
 7375SOL    HW122841   0.698   4.105   0.407  0.7714  0.8315  1.4823
 7375SOL    HW222842   0.826   4.051   0.347 -0.7199 -0.8667 -0.2667
 7376SOL     OW22843   2.364   5.229   5.936  0.4527 -0.5856  0.1173
 7376SOL    HW122844   2.442   5.261   5.982  0.0911  0.4756 -0.0091
 7376SOL    HW222845   2.379   5.253   5.845 -0.1544 -0.1322  0.1388
 7377SOL     OW22846   0.530   4.240   2.387 -0.9401  0.6467  0.2490
 7377SOL    HW122847   0.462   4.307   2.395  0.7993  2.2184  2.3101
 7377SOL    HW222848   0.562   4.226   2.476  2.1510  0.7293 -0.7615
 7378SOL     OW22849   3.918   5.130   0.807 -0.5601  0.5127  1.2179
 7378SOL    HW122850   3.972   5.176   0.742  0.1437 -0.1058  1.3604
 7378SOL    HW222851   3.965   5.049   0.824 -1.7752 -0.2469  1.0173
 7379SOL     OW22852   5.926   6.643   2.450 -0.0445 -0.4439  0.0959
 7379SOL    HW122853   5.875   6.706   2.501  0.4889  0.3848 -0.3862
 7379SOL    HW222854   5.887   6.558   2.471  0.8482 -0.2529  2.7117
 7380SOL     OW22855   5.622   5.629   0.577  0.2166  0.2810 -0.0580
 7380SOL    HW122856   5.648   5.590   0.661  2.6835 -0.7181 -1.2383
 7380SOL    HW222857   5.680   5.704   0.566 -0.1266  0.4378 -0.8582
 7381SOL     OW22858   2.314   4.419   6.707 -0.7947 -0.1897 -0.0764
 7381SOL    HW122859   2.316   4.333   6.665  0.9619 -0.9647  1.5615
 7381SOL    HW222860   2.224   4.450   6.692 -1.1577 -1.8442 -1.5562
 7382SOL     OW22861   1.850   4.777   0.712  0.4490 -0.1506 -0.5190
 7382SOL    HW122862   1.939   4.814   0.710 -0.2351  1.4765 -1.4399
 7382SOL    HW222863   1.820   4.782   0.621 -0.6508 -0.5735 -0.1813
 7383SOL     OW22864   5.923   6.739   2.082  0.4000 -0.2475  0.1124
 7383SOL    HW122865   5.852   6.696   2.130  1.1608  0.1677  1.6441
 7383SOL    HW222866   5.923   6.829   2.114  0.4386  0.2478 -1.2371
 7384SOL     OW22867   6.716   0.433   3.444 -0.1757 -0.3804  0.8443
 7384SOL    HW122868   6.641   0.492   3.432  0.4666  0.2392 -0.2996
 7384SOL    HW222869   6.784   0.489   3.482  0.2735 -0.4993  0.2248
 7385SOL     OW22870   2.105   0.409   3.647  0.0165 -0.4634 -0.9150
 7385SOL    HW122871   2.022   0.448   3.622  1.2576  5.2415  3.0401
 7385SOL    HW222872   2.082   0.340   3.709 -1.7341  2.6836  2.0521
 7386SOL     OW22873   1.106   4.171   2.528 -0.0950  0.1283 -0.0505
 7386SOL    HW122874   1.198   4.152   2.546 -0.6260 -0.0686  2.6665
 7386SOL    HW222875   1.107   4.257   2.486  1.1767  1.6866  2.9661
 7387SOL     OW22876   4.774   3.098   5.778 -0.3905  0.2169  0.7377
 7387SOL    HW122877   4.721   3.175   5.762 -0.0538  0.0005 -1.5959
 7387SOL    HW222878   4.854   3.132   5.818  0.0078  1.1640 -0.8248
 7388SOL     OW22879   0.954   4.219   5.562  0.3311 -0.2681 -0.4528
 7388SOL    HW122880   0.949   4.243   5.654 -1.4747  0.8665 -0.8082
 7388SOL    HW222881   0.864   4.225   5.531  1.0338  0.2228 -2.4940
 7389SOL     OW22882   3.941   4.074   1.159  0.0801  0.1512 -0.7990
 7389SOL    HW122883   3.967   4.124   1.082 -1.0435  0.5623 -0.9149
 7389SOL    HW222884   3.915   3.989   1.124  0.7998 -0.1040 -0.7297
 7390SOL     OW22885   3.052   0.728   5.255  0.0604  0.2578  0.6852
 7390SOL    HW122886   3.141   0.761   5.263  0.6937 -0.6130 -2.0932
 7390SOL    HW222887   3.051   0.647   5.305  1.2541 -0.4586 -0.4133
 7391SOL     OW22888   3.966   4.715   3.671  0.0437  0.0258  0.3325
 7391SOL    HW122889   3.876   4.747   3.677  0.1090  0.3369 -0.2558
 7391SOL    HW222890   4.017   4.792   3.647  0.1982 -0.5018 -1.0753
 7392SOL     OW22891   1.158   5.463   1.005 -0.2627  0.3697  0.0627
 7392SOL    HW122892   1.163   5.514   0.924  0.4308  1.1561  0.6007
 7392SOL    HW222893   1.089   5.507   1.056 -0.8553 -0.2576 -0.1829
 7393SOL     OW22894   0.224   2.861   4.090  0.1750  0.0015 -0.3104
 7393SOL    HW122895   0.255   2.775   4.061  1.6367  0.7190 -0.9241
 7393SOL    HW222896   0.291   2.890   4.152 -1.5733 -0.3581  1.8156
 7394SOL     OW22897   1.834   5.308   1.822 -0.1121 -0.0891  0.1184
 7394SOL    HW122898   1.805   5.388   1.778  0.6436 -1.2088 -2.5722
 7394SOL    HW222899   1.803   5.317   1.912 -3.2926  1.5449 -1.0432
 7395SOL     OW22900   5.055   6.599   3.362 -0.0739 -0.2425  0.0486
 7395SOL    HW122901   4.977   6.544   3.361  1.7852 -3.0012 -1.1492
 7395SOL    HW222902   5.096   6.581   3.446  0.1046 -0.0329  0.0071
 7396SOL     OW22903   0.893   0.423   2.221  0.3474  0.2788  0.2238
 7396SOL    HW122904   0.809   0.378   2.230  0.5954 -0.2222  0.0945
 7396SOL    HW222905   0.883   0.504   2.270 -1.1123  1.4953 -1.9797
 7397SOL     OW22906   5.198   1.888   4.567  0.0060  0.0299  0.3222
 7397SOL    HW122907   5.270   1.949   4.583  0.5604 -0.5459  0.0450
 7397SOL    HW222908   5.183   1.846   4.652  1.3275 -1.2748 -0.0744
 7398SOL     OW22909   5.148   3.425   0.224 -0.1020 -0.0956  0.3680
 7398SOL    HW122910   5.055   3.448   0.212  0.4533  0.2618 -3.7002
 7398SOL    HW222911   5.156   3.337   0.187  1.0498 -0.4709  1.4755
 7399SOL     OW22912   3.941   2.333   3.475  0.1129 -0.4798  0.1495
 7399SOL    HW122913   3.970   2.265   3.536  2.6068 -1.2495 -1.8319
 7399SOL    HW222914   3.970   2.415   3.514  0.6809 -0.8712  0.5485
 7400SOL     OW22915   6.256   6.230   3.583 -0.2524 -0.6570  0.6661
 7400SOL    HW122916   6.255   6.145   3.540  0.0405 -0.9313  1.1993
 7400SOL    HW222917   6.165   6.249   3.603 -0.5432  0.0564 -1.2179
 7401SOL     OW22918   5.796   2.203   2.676 -0.3920 -0.5995  0.2793
 7401SOL    HW122919   5.792   2.108   2.690 -0.0584 -0.3578  2.1513
 7401SOL    HW222920   5.755   2.240   2.753 -1.1605  0.7919 -0.7743
 7402SOL     OW22921   3.807   6.669   5.405 -0.3455 -0.0533 -0.3279
 7402SOL    HW122922   3.752   6.597   5.433 -0.6648  0.2209 -0.2503
 7402SOL    HW222923   3.883   6.627   5.365 -1.3861 -0.4284 -1.9653
 7403SOL     OW22924   5.500   0.111   5.130  0.1513 -0.6751  0.0121
 7403SOL    HW122925   5.479   0.053   5.203  2.2354 -0.6564  0.6550
 7403SOL    HW222926   5.478   0.059   5.052  2.8476 -2.7305  0.5447
 7404SOL     OW22927   2.670   0.043   2.868  0.0831 -0.0545  0.4177
 7404SOL    HW122928   2.599   0.045   2.933  0.5130  1.2988  0.8677
 7404SOL    HW222929   2.735   0.104   2.902  0.0134  1.1995 -1.6122
 7405SOL     OW22930   1.476   0.619   0.492  0.3868 -0.7080 -0.3938
 7405SOL    HW122931   1.412   0.548   0.494  1.0736 -1.3251 -0.4499
 7405SOL    HW222932   1.560   0.577   0.508  0.7426  0.1520  0.0397
 7406SOL     OW22933   0.530   5.238   6.415  0.1622 -0.3148 -0.6719
 7406SOL    HW122934   0.559   5.329   6.412  0.9410 -0.5799 -1.5069
 7406SOL    HW222935   0.435   5.243   6.425  0.1166  0.5995 -1.5384
 7407SOL     OW22936   1.308   0.818   0.531  0.3236  0.6755 -0.1159
 7407SOL    HW122937   1.381   0.756   0.521  0.3466  0.8172 -0.8522
 7407SOL    HW222938   1.340   0.898   0.491  0.3266  1.2039  0.9197
 7408SOL     OW22939   4.614   1.877   6.137 -0.1421  0.4403  0.3615
 7408SOL    HW122940   4.574   1.883   6.050 -3.3147 -0.8480  1.6266
 7408SOL    HW222941   4.647   1.787   6.142  1.9345  1.1449 -0.2394
 7409SOL     OW22942   4.120   5.927   5.558 -0.3442  0.5728 -0.3787
 7409SOL    HW122943   4.207   5.961   5.577  0.0100 -1.4100  1.6123
 7409SOL    HW222944   4.075   5.926   5.642 -2.0837  0.8935 -1.2664
 7410SOL     OW22945   1.510   4.097   0.691 -0.2341 -0.0139  0.4592
 7410SOL    HW122946   1.498   4.086   0.785 -1.2694  3.9574  0.9136
 7410SOL    HW222947   1.603   4.081   0.675 -0.3050 -1.9769  1.9149
 7411SOL     OW22948   6.717   5.066   4.243 -0.1878 -0.1087 -1.1436
 7411SOL    HW122949   6.634   5.018   4.245 -0.5859  0.5889 -0.0991
 7411SOL    HW222950   6.759   5.039   4.162 -1.1576 -0.9532 -1.3721
 7412SOL     OW22951   0.287   0.673   4.692  0.1460  0.1457 -0.2358
 7412SOL    HW122952   0.235   0.628   4.759 -0.1219  0.4348 -0.2418
 7412SOL    HW222953   0.249   0.761   4.689  1.3129  0.6770  0.4942
 7413SOL     OW22954   4.457   5.255   0.383  0.2158  0.1554  0.2428
 7413SOL    HW122955   4.473   5.166   0.353  0.4278  1.0984 -2.5290
 7413SOL    HW222956   4.379   5.283   0.337  0.1322  1.4047  1.1160
 7414SOL     OW22957   0.779   1.863   1.913 -0.2851 -0.0370 -0.8091
 7414SOL    HW122958   0.696   1.837   1.952  0.8443 -1.4499  0.7083
 7414SOL    HW222959   0.754   1.908   1.832 -2.5436  0.2942  0.0317
 7415SOL     OW22960   4.456   3.612   5.491  0.3523 -0.1869 -0.6553
 7415SOL    HW122961   4.548   3.629   5.471  1.2345 -0.7601  2.7330
 7415SOL    HW222962   4.429   3.549   5.424  2.5178 -0.2676 -1.4850
 7416SOL     OW22963   1.284   3.356   5.653 -0.7883  0.0532  0.0569
 7416SOL    HW122964   1.302   3.267   5.683  0.2554  0.0903 -0.4035
 7416SOL    HW222965   1.200   3.379   5.693 -0.0775 -0.3704  1.8511
 7417SOL     OW22966   6.245   5.462   5.179  0.1558  0.2854  0.1272
 7417SOL    HW122967   6.218   5.407   5.253  1.0122  1.1091  1.0689
 7417SOL    HW222968   6.333   5.430   5.157  0.0542  0.2932 -0.2759
 7418SOL     OW22969   4.421   0.570   6.497  0.3176 -0.2461 -0.5465
 7418SOL    HW122970   4.355   0.585   6.430  0.3858  1.3451 -0.2882
 7418SOL    HW222971   4.462   0.487   6.473 -0.7825 -0.5199 -1.5228
 7419SOL     OW22972   1.274   6.413   5.569 -0.2247  0.3752  0.1359
 7419SOL    HW122973   1.228   6.390   5.488 -0.4816 -2.6707  1.0857
 7419SOL    HW222974   1.302   6.329   5.605  1.0766  1.7901  2.5328
 7420SOL     OW22975   1.345   5.497   3.411 -0.4714  0.1612  0.1519
 7420SOL    HW122976   1.254   5.501   3.442  0.2684 -0.1368  2.4710
 7420SOL    HW222977   1.381   5.583   3.433  0.2072 -0.2307  0.5746
 7421SOL     OW22978   2.737   3.215   3.765 -0.2844  0.0273 -0.2584
 7421SOL    HW122979   2.787   3.161   3.826  0.5131  0.9388 -0.1001
 7421SOL    HW222980   2.790   3.294   3.754 -0.9916  0.3715 -1.2168
 7422SOL     OW22981   4.862   2.225   6.495  0.3533  0.2443  0.2873
 7422SOL    HW122982   4.829   2.312   6.471  3.1940  1.2680  0.0125
 7422SOL    HW222983   4.865   2.225   6.590 -2.3207 -0.6073  0.4196
 7423SOL     OW22984   5.451   4.654   5.829 -0.1688 -0.1909  0.3036
 7423SOL    HW122985   5.386   4.593   5.795 -1.6968  0.5865  1.7877
 7423SOL    HW222986   5.517   4.659   5.760 -2.5373  0.3669 -1.9851
 7424SOL     OW22987   5.334   5.765   2.233 -0.4799 -0.3392  0.0166
 7424SOL    HW122988   5.310   5.793   2.145  0.5066  0.3222 -0.0486
 7424SOL    HW222989   5.300   5.834   2.290 -1.3921 -0.9208  0.1935
 7425SOL     OW22990   0.291   6.482   5.790  0.0480  0.6301 -0.1222
 7425SOL    HW122991   0.266   6.397   5.828 -1.1036  0.0219 -2.1864
 7425SOL    HW222992   0.386   6.483   5.796  0.1966 -1.5553 -1.5939
 7426SOL     OW22993   3.566   4.725   1.047  0.5792 -0.1052  0.3539
 7426SOL    HW122994   3.485   4.774   1.065  1.8811  2.2388  0.0251
 7426SOL    HW222995   3.546   4.636   1.075 -1.6649  0.7137  1.5571
 7427SOL     OW22996   3.341   1.511   0.225  0.2026 -0.0023  0.0579
 7427SOL    HW122997   3.288   1.574   0.273  0.5739  1.2104 -1.0665
 7427SOL    HW222998   3.304   1.511   0.137 -0.4762 -2.2009  0.3250
 7428SOL     OW22999   6.098   0.079   2.339  0.1023  0.1577 -0.2811
 7428SOL    HW123000   6.038   0.005   2.349 -0.5494  0.5616 -1.0535
 7428SOL    HW223001   6.061   0.147   2.396  0.4942  0.0173  0.1454
 7429SOL     OW23002   2.491   4.764   5.049 -0.4123 -0.4850 -0.4658
 7429SOL    HW123003   2.542   4.757   5.130 -0.6809  0.3257 -0.2208
 7429SOL    HW223004   2.400   4.751   5.077 -0.5538  0.3094 -0.5611
 7430SOL     OW23005   3.577   3.965   5.232  0.2788  0.4061 -0.1547
 7430SOL    HW123006   3.617   3.956   5.318 -0.2590  0.4237  0.0942
 7430SOL    HW223007   3.594   4.056   5.207  0.6402  0.3356 -0.1722
 7431SOL     OW23008   3.770   0.828   6.192  0.1171 -0.3135  0.4636
 7431SOL    HW123009   3.866   0.825   6.183  0.3361 -0.0537  2.4341
 7431SOL    HW223010   3.751   0.766   6.263 -1.2782 -1.0758 -0.5575
 7432SOL     OW23011   6.476   2.760   4.356  0.0881  0.6732  0.3156
 7432SOL    HW123012   6.463   2.844   4.310 -2.3559 -0.0545 -0.3824
 7432SOL    HW223013   6.396   2.711   4.339  1.5138 -1.8440  0.6928
 7433SOL     OW23014   1.866   4.604   5.427  0.6028  0.5016 -0.8390
 7433SOL    HW123015   1.861   4.515   5.393  1.2133 -0.5875  1.7975
 7433SOL    HW223016   1.958   4.614   5.454  0.8707  2.4310 -2.4051
 7434SOL     OW23017   4.507   3.982   5.944  0.6213  0.3490  0.4058
 7434SOL    HW123018   4.435   3.925   5.917  1.8853 -1.4885  0.8256
 7434SOL    HW223019   4.573   3.972   5.876  1.1954  0.6676  0.9065
 7435SOL     OW23020   5.607   0.886   6.050  0.2168 -0.4807  0.2531
 7435SOL    HW123021   5.584   0.884   5.958 -0.0993 -1.1015  0.3389
 7435SOL    HW223022   5.656   0.805   6.064  3.1566  1.1724 -0.1071
 7436SOL     OW23023   1.369   3.299   5.109  0.4611 -0.2283  0.2124
 7436SOL    HW123024   1.310   3.314   5.183 -0.0566 -2.0277  0.1960
 7436SOL    HW223025   1.376   3.204   5.103  3.5845 -0.0544  0.3590
 7437SOL     OW23026   2.465   0.493   4.462  0.4820  0.3712  0.2258
 7437SOL    HW123027   2.413   0.555   4.515 -0.4306  0.5269 -0.8289
 7437SOL    HW223028   2.479   0.419   4.521 -0.7898  0.4082  0.6074
 7438SOL     OW23029   2.107   3.854   3.008  0.8429  0.5301 -0.5954
 7438SOL    HW123030   2.156   3.925   2.967 -0.9244  2.1632  0.0328
 7438SOL    HW223031   2.033   3.839   2.950  1.2794 -0.9319 -0.7973
 7439SOL     OW23032   0.176   2.808   6.113  0.0990 -0.3048 -0.6259
 7439SOL    HW123033   0.173   2.744   6.042 -0.2666 -1.8955  0.8051
 7439SOL    HW223034   0.108   2.872   6.091 -0.8588 -1.4656 -1.0788
 7440SOL     OW23035   0.387   3.367   4.918  0.0475 -0.6203 -0.0262
 7440SOL    HW123036   0.327   3.424   4.966 -1.2006 -0.9532 -1.1372
 7440SOL    HW223037   0.436   3.427   4.861  0.0939 -0.4546  0.1853
 7441SOL     OW23038   1.092   2.789   1.902 -0.2865 -0.5968  0.0329
 7441SOL    HW123039   1.037   2.757   1.830 -2.7606 -0.7873  1.9131
 7441SOL    HW223040   1.069   2.881   1.910  0.5663 -0.3840  0.0858
 7442SOL     OW23041   5.986   2.211   6.694  0.1333 -0.3677 -0.3818
 7442SOL    HW123042   6.057   2.276   6.690  1.9096 -1.7615  4.5454
 7442SOL    HW223043   6.031   2.127   6.697 -1.8175 -1.3886  1.1417
 7443SOL     OW23044   5.847   3.944   5.617  0.1931  0.4127  0.3331
 7443SOL    HW123045   5.784   3.971   5.551 -0.5425  0.0609  0.8899
 7443SOL    HW223046   5.872   3.855   5.592  0.4923  0.5617  0.0978
 7444SOL     OW23047   6.615   5.372   0.742  0.1270  0.5376  0.1106
 7444SOL    HW123048   6.550   5.323   0.791 -0.8026 -0.5530 -2.1210
 7444SOL    HW223049   6.599   5.349   0.650  2.9194  1.1228 -0.5966
 7445SOL     OW23050   2.631   5.610   3.563 -0.7523  0.3331  0.0094
 7445SOL    HW123051   2.620   5.701   3.590  0.4357  1.3126 -2.6218
 7445SOL    HW223052   2.721   5.589   3.585 -0.3845  0.5006 -1.2750
 7446SOL     OW23053   0.647   5.450   4.420  0.0344 -0.2751  0.5534
 7446SOL    HW123054   0.698   5.519   4.378 -1.3172  0.7250  0.5546
 7446SOL    HW223055   0.630   5.387   4.350 -0.5318  0.4232  0.0590
 7447SOL     OW23056   2.586   2.087   5.776  0.3666 -0.0744  0.0162
 7447SOL    HW123057   2.649   2.051   5.839  0.2635  1.2973  0.9388
 7447SOL    HW223058   2.514   2.025   5.775  0.8387 -0.6353  0.4672
 7448SOL     OW23059   3.654   1.553   0.330  0.4385 -0.8813  0.5792
 7448SOL    HW123060   3.731   1.547   0.273  0.3383  0.9316  0.2265
 7448SOL    HW223061   3.583   1.516   0.279  1.1518 -3.0158  1.0856
 7449SOL     OW23062   1.994   5.622   4.251 -0.2916 -0.1809 -0.3847
 7449SOL    HW123063   1.994   5.664   4.165 -1.7522  0.1832 -0.2101
 7449SOL    HW223064   1.902   5.616   4.275  0.1487  0.3701  1.4883
 7450SOL     OW23065   4.215   0.509   6.305  0.4227 -0.4627 -0.2381
 7450SOL    HW123066   4.240   0.417   6.305 -1.8464 -1.1241  0.4298
 7450SOL    HW223067   4.184   0.526   6.217  0.1205 -0.5453 -0.1471
 7451SOL     OW23068   3.968   0.668   6.571  0.2854 -0.6619  0.6595
 7451SOL    HW123069   4.032   0.733   6.600 -0.1924  0.0835  0.0510
 7451SOL    HW223070   4.021   0.599   6.529  0.5710  0.9641 -1.7586
 7452SOL     OW23071   5.389   5.870   3.512 -0.3983 -0.0982  0.3308
 7452SOL    HW123072   5.370   5.809   3.441  0.3184  1.7414 -1.4490
 7452SOL    HW223073   5.328   5.942   3.500 -0.6487 -0.0280  1.9209
 7453SOL     OW23074   4.593   1.026   0.381  0.6166 -0.0898 -0.1817
 7453SOL    HW123075   4.668   1.035   0.440 -0.2427  1.0776  0.7355
 7453SOL    HW223076   4.602   1.098   0.319  0.3779 -0.1035 -0.2326
 7454SOL     OW23077   1.570   5.481   5.797 -0.0390  0.4772  0.1597
 7454SOL    HW123078   1.510   5.528   5.854 -0.1536  1.4437 -0.7227
 7454SOL    HW223079   1.639   5.545   5.777  1.5376 -0.7433  1.5035
 7455SOL     OW23080   4.170   2.703   3.472 -0.3396  0.5680 -0.2255
 7455SOL    HW123081   4.222   2.778   3.501 -0.3475  0.0889  1.0506
 7455SOL    HW223082   4.184   2.700   3.377 -0.9566  2.6405 -0.4056
 7456SOL     OW23083   4.721   5.415   1.755 -0.3774 -0.0964  0.4337
 7456SOL    HW123084   4.715   5.348   1.687  0.7326  0.2876 -0.0643
 7456SOL    HW223085   4.665   5.487   1.723 -0.7611 -0.3756  0.4774
 7457SOL     OW23086   2.304   0.419   6.073  0.2439  0.3195 -0.0656
 7457SOL    HW123087   2.364   0.401   6.145  0.1743 -2.6447 -0.6535
 7457SOL    HW223088   2.360   0.452   6.003  0.6843  0.7724  0.4990
 7458SOL     OW23089   6.662   0.579   0.534  0.5827 -0.4246  0.4463
 7458SOL    HW123090   6.675   0.526   0.612  0.5468 -0.3678  0.4905
 7458SOL    HW223091   6.571   0.564   0.509  0.7628 -0.9150  0.0688
 7459SOL     OW23092   3.638   4.671   5.062  0.0088 -0.1487  0.2673
 7459SOL    HW123093   3.716   4.622   5.038 -0.2461 -0.3104 -0.2319
 7459SOL    HW223094   3.600   4.620   5.134 -1.8354 -2.3053 -2.1461
 7460SOL     OW23095   0.740   2.568   6.317 -0.2605 -0.2507 -0.7079
 7460SOL    HW123096   0.713   2.642   6.263  0.2671  1.1834  0.9440
 7460SOL    HW223097   0.801   2.519   6.262  0.8293  1.5758 -1.1799
 7461SOL     OW23098   1.693   5.682   6.696  0.1773 -0.0002  0.5161
 7461SOL    HW123099   1.782   5.713   6.706 -0.2011  1.1584  0.3313
 7461SOL    HW223100   1.702   5.592   6.666  1.2788  0.6038 -0.9872
 7462SOL     OW23101   2.778   1.025   4.908  0.0884 -0.2251 -0.0490
 7462SOL    HW123102   2.771   0.963   4.835 -0.6040 -0.7924  0.4964
 7462SOL    HW223103   2.761   1.110   4.868  3.2996 -0.0844 -1.2470
 7463SOL     OW23104   6.241   1.262   6.320 -0.4034  0.2779 -0.3376
 7463SOL    HW123105   6.232   1.270   6.415 -0.5266 -0.4269 -0.2825
 7463SOL    HW223106   6.331   1.288   6.302 -0.2037 -0.1383  0.0434
 7464SOL     OW23107   3.792   2.689   6.607 -0.0496 -0.3817  0.1835
 7464SOL    HW123108   3.881   2.688   6.571  0.5644  0.7443  1.6465
 7464SOL    HW223109   3.765   2.597   6.606  1.3408 -0.8034  0.2622
 7465SOL     OW23110   5.513   2.571   3.241  0.3678 -0.3586 -0.2637
 7465SOL    HW123111   5.554   2.657   3.237 -0.4056  0.0892  1.4497
 7465SOL    HW223112   5.424   2.587   3.271  0.3545 -1.8022  0.5116
 7466SOL     OW23113   5.995   3.316   0.743 -0.2331 -0.1179 -0.4828
 7466SOL    HW123114   5.969   3.289   0.655 -0.4519  1.4653 -0.9125
 7466SOL    HW223115   6.028   3.405   0.733 -1.1928  0.4494  1.2018
 7467SOL     OW23116   5.295   0.096   3.634  0.4106 -0.1961  0.4647
 7467SOL    HW123117   5.287   0.161   3.705 -0.2052 -0.9613  1.1095
 7467SOL    HW223118   5.354   0.029   3.669 -0.8303 -1.1723  0.7251
 7468SOL     OW23119   6.185   4.862   6.741  0.0864  0.0126 -0.1111
 7468SOL    HW123120   6.170   4.887   6.832 -1.6986  0.3531 -0.4787
 7468SOL    HW223121   6.280   4.862   6.732  0.2774  0.4531  1.6166
 7469SOL     OW23122   2.003   1.629   4.654 -0.1814 -0.1371  0.4597
 7469SOL    HW123123   1.941   1.559   4.675  0.5178 -0.9190 -0.0238
 7469SOL    HW223124   1.973   1.705   4.704 -2.3994 -0.0789 -0.8924
 7470SOL     OW23125   3.602   1.560   1.627 -0.0289 -0.7119  0.2003
 7470SOL    HW123126   3.548   1.638   1.631  1.9382  0.7637 -1.2159
 7470SOL    HW223127   3.563   1.501   1.692 -1.6661  1.3418  1.1486
 7471SOL     OW23128   1.318   4.005   6.537 -0.1872 -0.7476 -0.3793
 7471SOL    HW123129   1.324   4.061   6.459  1.8692  0.6781  0.7610
 7471SOL    HW223130   1.229   3.970   6.535 -0.6261  0.4263 -2.5791
 7472SOL     OW23131   0.350   1.886   4.556 -0.1901  0.1650  0.1823
 7472SOL    HW123132   0.274   1.941   4.577 -1.5662 -1.5142 -0.2392
 7472SOL    HW223133   0.400   1.937   4.492 -2.6618  0.0076 -1.9871
 7473SOL     OW23134   1.916   5.030   5.263 -0.2907 -0.2964  0.0273
 7473SOL    HW123135   1.824   5.018   5.239  0.2213 -0.9419 -1.7409
 7473SOL    HW223136   1.946   5.101   5.207  0.4506 -0.5231  0.1337
 7474SOL     OW23137   4.128   2.473   3.609  0.0980 -0.3131 -0.0724
 7474SOL    HW123138   4.154   2.552   3.560 -0.1661 -0.5226 -0.5474
 7474SOL    HW223139   4.210   2.425   3.620  0.0485 -0.5881 -0.8875
 7475SOL     OW23140   4.739   1.323   2.041  0.2332  0.0026  0.6932
 7475SOL    HW123141   4.683   1.306   1.965  2.2032 -1.9786 -0.3708
 7475SOL    HW223142   4.790   1.400   2.017 -1.7969  1.6335  1.5456
 7476SOL     OW23143   4.602   2.596   2.580  0.0540 -0.2385  0.2189
 7476SOL    HW123144   4.658   2.598   2.657 -0.5410 -1.9986  0.7200
 7476SOL    HW223145   4.513   2.601   2.616 -0.1972 -0.1849 -0.4141
 7477SOL     OW23146   0.408   6.479   2.098  0.4580  0.3209 -1.0456
 7477SOL    HW123147   0.473   6.446   2.160 -0.3666  0.0381 -0.3231
 7477SOL    HW223148   0.324   6.450   2.133  0.0515 -0.8039 -2.8913
 7478SOL     OW23149   4.038   2.643   2.105  0.4994  0.6150  0.0998
 7478SOL    HW123150   4.078   2.566   2.145  0.0059  1.1822  1.7160
 7478SOL    HW223151   4.109   2.705   2.095  0.2099  1.3051  2.1875
 7479SOL     OW23152   0.314   5.163   2.109 -0.1008  0.0575 -0.2471
 7479SOL    HW123153   0.306   5.240   2.053  4.1439  1.9202  1.5372
 7479SOL    HW223154   0.250   5.177   2.178 -0.2531  1.3745 -0.6396
 7480SOL     OW23155   3.644   2.554   2.390  0.2608 -0.0964  0.3437
 7480SOL    HW123156   3.675   2.478   2.341  0.4680  0.3852 -0.2851
 7480SOL    HW223157   3.602   2.517   2.468 -0.2219 -0.8897 -0.2785
 7481SOL     OW23158   6.390   5.651   3.196  0.0883  0.3390  0.1129
 7481SOL    HW123159   6.356   5.675   3.282  4.0733  0.2734  1.8326
 7481SOL    HW223160   6.393   5.732   3.146  1.8341  1.1997  1.5854
 7482SOL     OW23161   3.685   1.697   4.480  0.4879  0.6786 -0.2555
 7482SOL    HW123162   3.747   1.732   4.416 -0.2232 -0.5946 -1.6899
 7482SOL    HW223163   3.718   1.610   4.501 -1.0548 -0.2347 -1.4525
 7483SOL     OW23164   2.577   4.473   2.028  0.3135  0.0758 -0.2026
 7483SOL    HW123165   2.506   4.419   1.992 -1.6997  3.6912 -1.8807
 7483SOL    HW223166   2.651   4.459   1.969  0.2878 -1.8795  0.1933
 7484SOL     OW23167   6.703   4.444   0.131  0.1973 -0.0994  0.0679
 7484SOL    HW123168   6.688   4.404   0.216  1.9522  0.2571  0.5589
 7484SOL    HW223169   6.621   4.490   0.111  0.0822  0.5623  1.9757
 7485SOL     OW23170   2.262   2.423   3.372 -0.0653 -0.1072 -0.3228
 7485SOL    HW123171   2.196   2.490   3.393 -1.4794 -1.4145 -0.5281
 7485SOL    HW223172   2.309   2.410   3.454  0.3340  1.2500 -0.3170
 7486SOL     OW23173   6.149   0.654   3.853  0.0052 -0.2256  0.0547
 7486SOL    HW123174   6.166   0.573   3.806 -2.5738  0.1608 -1.6655
 7486SOL    HW223175   6.194   0.722   3.803 -0.3161 -0.2069 -0.2111
 7487SOL     OW23176   2.830   2.262   5.112 -0.5518  0.5266 -0.3224
 7487SOL    HW123177   2.829   2.269   5.207  0.9750  1.1415 -0.3467
 7487SOL    HW223178   2.739   2.275   5.086 -1.0249  0.0699  1.0666
 7488SOL     OW23179   6.347   2.505   2.397 -0.1609  0.0788  0.4256
 7488SOL    HW123180   6.370   2.469   2.483 -1.2825 -1.5069  0.0818
 7488SOL    HW223181   6.423   2.557   2.372  0.2509  0.4049  2.2985
 7489SOL     OW23182   5.160   2.807   6.121 -0.1994 -0.3908 -0.2947
 7489SOL    HW123183   5.229   2.853   6.168  0.3235 -1.5653  0.1165
 7489SOL    HW223184   5.123   2.746   6.186 -1.5716  0.1711 -0.5297
 7490SOL     OW23185   2.318   2.092   5.075  0.4390  0.6625 -0.0408
 7490SOL    HW123186   2.330   2.083   4.981 -0.7079  2.4805 -0.3822
 7490SOL    HW223187   2.369   2.169   5.099  0.7603  0.1877  0.8584
 7491SOL     OW23188   5.745   3.730   2.328  0.2330 -0.3214 -0.2889
 7491SOL    HW123189   5.809   3.675   2.283  0.5621  1.3363 -1.9307
 7491SOL    HW223190   5.792   3.812   2.346 -0.8023  0.1377  0.3704
 7492SOL     OW23191   6.126   5.724   5.854  0.6216  0.3263  0.3428
 7492SOL    HW123192   6.073   5.734   5.775  0.7737 -1.3004  0.0276
 7492SOL    HW223193   6.111   5.805   5.903  0.1594  1.1486 -1.1252
 7493SOL     OW23194   2.943   4.331   3.655 -0.2478  0.0214 -0.2315
 7493SOL    HW123195   2.863   4.283   3.677 -0.5080  0.5052 -0.1276
 7493SOL    HW223196   2.922   4.423   3.672  0.2304  0.1813 -0.4931
 7494SOL     OW23197   6.301   4.239   4.391  0.3109 -0.6128 -0.0763
 7494SOL    HW123198   6.288   4.330   4.364  0.4037 -0.6283 -0.1747
 7494SOL    HW223199   6.235   4.190   4.342  0.3435 -0.6149 -0.1186
 7495SOL     OW23200   1.115   2.576   2.107  0.8948 -0.4064  0.2776
 7495SOL    HW123201   1.124   2.653   2.164  2.4788 -0.2557 -0.1501
 7495SOL    HW223202   1.099   2.613   2.020  2.1998 -0.5414 -0.0249
 7496SOL     OW23203   5.138   6.649   0.869 -0.3550 -0.3858 -0.4879
 7496SOL    HW123204   5.091   6.732   0.857 -0.7202 -0.4036  0.7006
 7496SOL    HW223205   5.129   6.604   0.785 -2.2975 -0.2971 -0.3575
 7497SOL     OW23206   0.248   0.769   2.676  0.0372  0.0704 -0.2293
 7497SOL    HW123207   0.340   0.759   2.700 -0.2120  1.8323  1.6636
 7497SOL    HW223208   0.249   0.775   2.581  1.7427 -1.1985 -0.3128
 7498SOL     OW23209   3.764   5.985   1.860  0.1373  0.4461  0.0178
 7498SOL    HW123210   3.739   5.918   1.797  0.1291  0.0650  0.4218
 7498SOL    HW223211   3.686   6.040   1.871 -0.2634 -0.2433  0.6512
 7499SOL     OW23212   4.865   3.918   3.309 -0.3654 -0.1760 -0.0500
 7499SOL    HW123213   4.862   3.993   3.368  1.3547  0.7462 -1.0888
 7499SOL    HW223214   4.790   3.865   3.334 -1.7129  1.9746  0.6098
 7500SOL     OW23215   5.146   4.595   1.612 -0.0886 -0.0455 -0.0548
 7500SOL    HW123216   5.120   4.505   1.595 -1.3592 -0.3260  3.0312
 7500SOL    HW223217   5.064   4.640   1.631  0.6519  1.5395 -0.5202
 7501SOL     OW23218   2.295   0.449   1.092 -0.0028  0.1387  0.2330
 7501SOL    HW123219   2.383   0.412   1.099 -0.2880 -0.6794 -0.3870
 7501SOL    HW223220   2.278   0.452   0.998 -0.5357  0.5412  0.3393
 7502SOL     OW23221   1.602   5.510   1.479 -0.2899 -0.5153 -1.1355
 7502SOL    HW123222   1.596   5.590   1.531 -0.0742 -0.2203 -1.5634
 7502SOL    HW223223   1.692   5.480   1.491 -0.9366 -1.8282  0.6882
 7503SOL     OW23224   0.542   0.053   3.997 -0.0905 -0.3060  0.4203
 7503SOL    HW123225   0.614   0.113   4.017  0.3025 -0.5318 -0.3108
 7503SOL    HW223226   0.541  -0.009   4.070 -0.3245  0.4199  1.0392
 7504SOL     OW23227   4.703   1.272   0.968  0.0911 -0.3942  0.4899
 7504SOL    HW123228   4.716   1.343   1.030 -0.6185 -0.8298  1.1469
 7504SOL    HW223229   4.683   1.315   0.885 -0.1793  0.1675  0.8471
 7505SOL     OW23230   3.824   0.606   4.569 -0.1338 -0.2055 -0.0157
 7505SOL    HW123231   3.731   0.627   4.569  0.2066  1.4767 -2.7903
 7505SOL    HW223232   3.839   0.565   4.484  1.5572 -1.0600  0.6664
 7506SOL     OW23233   6.151   6.124   4.825 -0.8622  0.3792  0.9396
 7506SOL    HW123234   6.170   6.218   4.832  1.6318 -0.1622  1.6203
 7506SOL    HW223235   6.227   6.087   4.780 -1.4413 -1.4711  1.4429
 7507SOL     OW23236   5.376   2.335   6.742  0.0224 -0.0370 -0.4267
 7507SOL    HW123237   5.312   2.382   6.796 -0.0775  0.5605 -1.0504
 7507SOL    HW223238   5.362   2.370   6.654  0.2857 -0.8896 -0.8132
 7508SOL     OW23239   0.253   3.751   2.821  0.7692 -0.3910  0.0125
 7508SOL    HW123240   0.232   3.749   2.728  0.8967 -1.5629 -0.0036
 7508SOL    HW223241   0.302   3.832   2.834 -0.7192  0.6068 -0.6185
 7509SOL     OW23242   3.076   0.582   1.163  0.1506 -0.2513 -0.1784
 7509SOL    HW123243   3.124   0.665   1.159 -0.9038  0.4585  1.4965
 7509SOL    HW223244   3.144   0.516   1.178  0.8189  0.4992  0.1276
 7510SOL     OW23245   2.482   2.621   5.317 -0.2181 -0.2980 -0.4293
 7510SOL    HW123246   2.493   2.704   5.362  0.5151 -1.2718  1.2436
 7510SOL    HW223247   2.409   2.635   5.258 -0.4078  1.3884  0.1844
 7511SOL     OW23248   1.626   4.682   4.627 -0.1612  0.2997  0.4617
 7511SOL    HW123249   1.575   4.610   4.662 -0.7722  1.0617  1.1652
 7511SOL    HW223250   1.570   4.721   4.559  0.2724 -0.0419 -0.0995
 7512SOL     OW23251   3.219   3.718   1.713  0.3374 -0.3420 -0.1760
 7512SOL    HW123252   3.287   3.782   1.695  1.5873 -0.9143  2.2105
 7512SOL    HW223253   3.252   3.636   1.676  0.6418 -0.4677  0.3646
 7513SOL     OW23254   6.416   5.704   2.821 -0.1896 -0.3395  0.4083
 7513SOL    HW123255   6.489   5.759   2.849 -1.5131  1.7838 -0.2232
 7513SOL    HW223256   6.434   5.684   2.730 -1.2744  1.7326 -0.3012
 7514SOL     OW23257   6.539   2.653   1.804 -0.5886 -0.0558 -0.0961
 7514SOL    HW123258   6.479   2.705   1.750 -1.0965 -1.8361 -1.3207
 7514SOL    HW223259   6.611   2.632   1.745 -0.3026 -0.5641  0.4302
 7515SOL     OW23260   0.602   6.598   0.274  0.1632  0.1635  0.6372
 7515SOL    HW123261   0.522   6.556   0.241 -0.2285  1.9539 -0.7603
 7515SOL    HW223262   0.581   6.621   0.365 -0.6704  0.0188  0.4887
 7516SOL     OW23263   1.052   1.529   1.601  0.0672 -0.3067 -0.5161
 7516SOL    HW123264   1.041   1.599   1.536  0.0338 -1.2286 -1.5241
 7516SOL    HW223265   1.139   1.494   1.583 -0.4157 -1.3561 -0.8617
 7517SOL     OW23266   6.399   0.855   0.950 -0.3842 -0.4358 -0.2851
 7517SOL    HW123267   6.359   0.769   0.965  0.4434 -0.3200  3.0383
 7517SOL    HW223268   6.493   0.840   0.960  0.0678  0.2139 -3.2341
 7518SOL     OW23269   4.028   0.356   4.338 -0.4238  0.2301  0.3158
 7518SOL    HW123270   3.941   0.392   4.321  0.1694  1.6623  0.2537
 7518SOL    HW223271   4.014   0.292   4.409 -1.5498  0.3056  0.1670
 7519SOL     OW23272   5.772   4.350   4.851  0.1472 -0.1447  0.3539
 7519SOL    HW123273   5.856   4.395   4.864  0.4450 -0.4013 -0.6628
 7519SOL    HW223274   5.792   4.258   4.864  0.2894 -0.3311 -1.0777
 7520SOL     OW23275   2.282   4.200   5.137 -0.9684  0.2569  0.5815
 7520SOL    HW123276   2.253   4.149   5.061  0.5996  0.2153 -0.0140
 7520SOL    HW223277   2.232   4.165   5.210 -0.8830 -1.2389 -0.0529
 7521SOL     OW23278   5.341   2.175   0.532 -0.3325  0.5777  0.9673
 7521SOL    HW123279   5.262   2.208   0.489  0.4320 -0.7312 -1.5262
 7521SOL    HW223280   5.311   2.099   0.582 -0.5975 -0.1669 -0.3089
 7522SOL     OW23281   6.069   2.101   1.351  0.2564  0.0929  0.4042
 7522SOL    HW123282   6.106   2.135   1.270 -0.1350 -0.8511 -0.1821
 7522SOL    HW223283   6.137   2.043   1.386  1.0469  1.6801  1.5587
 7523SOL     OW23284   3.770   4.838   5.301  0.1354 -0.4635  0.0489
 7523SOL    HW123285   3.777   4.794   5.216 -0.9551 -1.1563  0.3038
 7523SOL    HW223286   3.682   4.876   5.300  0.9382  1.4554 -0.0352
 7524SOL     OW23287   0.546   2.780   0.322 -0.2043  0.1012  0.4131
 7524SOL    HW123288   0.536   2.818   0.235  2.2623 -0.9493 -0.3642
 7524SOL    HW223289   0.458   2.748   0.344 -1.1289  1.5047 -1.1259
 7525SOL     OW23290   5.423   3.873   0.766 -0.6951 -0.6830  0.1450
 7525SOL    HW123291   5.421   3.831   0.680 -0.8150  0.3354 -0.3600
 7525SOL    HW223292   5.489   3.823   0.815 -1.3499 -1.8995 -0.1980
 7526SOL     OW23293   6.397   0.455   2.285 -0.2205 -0.0914 -0.4691
 7526SOL    HW123294   6.424   0.371   2.248 -2.3469 -0.4644 -1.2423
 7526SOL    HW223295   6.313   0.474   2.243  0.6311  2.8593 -0.9672
 7527SOL     OW23296   0.709   3.364   2.645  0.2080  0.4725  0.4868
 7527SOL    HW123297   0.752   3.343   2.728 -0.0510 -0.5782  0.3591
 7527SOL    HW223298   0.619   3.386   2.670  0.3556  0.9812  0.5722
 7528SOL     OW23299   1.683   6.385   5.749 -0.2449 -0.2458  0.3127
 7528SOL    HW123300   1.696   6.480   5.747  0.9129 -0.3655  1.5755
 7528SOL    HW223301   1.764   6.349   5.712 -0.0387 -0.7824  1.2765
 7529SOL     OW23302   4.634   5.037   3.497 -0.0037 -0.5695  0.2430
 7529SOL    HW123303   4.566   5.031   3.565  0.1747  0.7660  0.5582
 7529SOL    HW223304   4.585   5.045   3.415 -0.2209 -1.8551  0.2383
 7530SOL     OW23305   5.475   4.393   2.433  0.1808  0.2569  0.2534
 7530SOL    HW123306   5.415   4.321   2.417 -1.6019  1.8277 -0.2716
 7530SOL    HW223307   5.534   4.361   2.502 -0.4806 -1.7295 -0.0914
 7531SOL     OW23308   6.761   3.516   5.383 -0.1290  0.5449  0.3406
 7531SOL    HW123309   6.762   3.581   5.313  0.9884 -1.2577 -1.3538
 7531SOL    HW223310   6.789   3.564   5.461  0.0552  2.2259 -0.7405
 7532SOL     OW23311   1.071   4.698   4.730  0.1732  0.6974  0.3746
 7532SOL    HW123312   0.978   4.719   4.745 -0.8864 -2.8617 -0.5537
 7532SOL    HW223313   1.084   4.716   4.637 -0.2903 -1.0583 -0.0486
 7533SOL     OW23314   2.361   1.205   2.927  0.3670  0.0806  0.2144
 7533SOL    HW123315   2.351   1.261   2.850 -1.6887 -0.4518  0.0578
 7533SOL    HW223316   2.454   1.212   2.950  1.0111  0.2756 -2.2767
 7534SOL     OW23317   1.752   6.517   0.707  0.0783  0.0840 -0.3114
 7534SOL    HW123318   1.750   6.433   0.661  1.5397  0.1362 -0.4944
 7534SOL    HW223319   1.844   6.532   0.726 -0.1943  1.5419 -0.0671
 7535SOL     OW23320   2.775   1.574   2.973  0.1495 -0.7938  0.4172
 7535SOL    HW123321   2.859   1.594   3.017 -0.7236  1.0340  1.3424
 7535SOL    HW223322   2.790   1.490   2.930  1.6692 -1.7377  2.6483
 7536SOL     OW23323   1.654   3.311   0.996 -0.1175 -0.3902  0.2091
 7536SOL    HW123324   1.642   3.402   1.019 -0.9218 -0.1526 -1.1165
 7536SOL    HW223325   1.598   3.262   1.056 -2.6397  0.2548 -1.5524
 7537SOL     OW23326   2.856   2.324   2.651 -0.1868 -0.0064  0.9461
 7537SOL    HW123327   2.842   2.407   2.696 -0.7153  0.4947 -0.1124
 7537SOL    HW223328   2.815   2.258   2.707  1.4823  0.2519  2.4970
 7538SOL     OW23329   5.034   0.136   3.579  0.1299 -0.3579 -0.4374
 7538SOL    HW123330   5.122   0.102   3.562  0.2502 -0.0569 -0.4281
 7538SOL    HW223331   5.009   0.179   3.497 -0.1341 -0.7087 -0.5438
 7539SOL     OW23332   0.613   2.680   1.684  0.4130 -0.6397  0.4043
 7539SOL    HW123333   0.566   2.632   1.615 -1.0353  0.1852  0.8146
 7539SOL    HW223334   0.552   2.748   1.713  1.5233 -0.1146  1.5656
 7540SOL     OW23335   5.117   4.916   2.992  0.9006 -0.3903  0.4001
 7540SOL    HW123336   5.151   4.843   3.044  1.7318  0.0178  0.4398
 7540SOL    HW223337   5.062   4.875   2.925 -0.5015 -0.8932  1.8270
 7541SOL     OW23338   5.022   3.344   4.571 -0.6877 -0.4100  0.0066
 7541SOL    HW123339   4.956   3.344   4.501  0.0891 -0.4012 -0.7387
 7541SOL    HW223340   4.985   3.400   4.639 -1.5740 -0.6359 -0.2852
 7542SOL     OW23341   5.039   3.554   3.118  0.3310 -0.3786  0.1225
 7542SOL    HW123342   5.045   3.516   3.031  1.1287  0.4367 -0.1907
 7542SOL    HW223343   5.106   3.508   3.169  0.6998 -0.0068 -0.0239
 7543SOL     OW23344   1.889   0.986   5.860 -0.1574 -0.0820  0.6204
 7543SOL    HW123345   1.813   1.010   5.807  1.1656 -0.6404 -1.5927
 7543SOL    HW223346   1.915   1.068   5.902 -0.4137  0.6950 -0.6912
 7544SOL     OW23347   2.745   0.957   6.179 -0.0237  0.2875 -0.0508
 7544SOL    HW123348   2.749   1.004   6.262  0.4775  0.8620 -0.3862
 7544SOL    HW223349   2.832   0.919   6.168 -0.4173 -0.6855  0.1937
 7545SOL     OW23350   3.815   0.345   6.631 -0.1991 -0.4690 -0.4598
 7545SOL    HW123351   3.829   0.263   6.677 -1.3238 -0.7506 -0.6185
 7545SOL    HW223352   3.837   0.413   6.695 -0.8377 -0.8730  0.1904
 7546SOL     OW23353   4.771   3.920   0.040 -0.2354  0.4889 -0.4656
 7546SOL    HW123354   4.763   3.967  -0.043  0.0150  0.9852 -0.2165
 7546SOL    HW223355   4.686   3.877   0.052  0.3460 -1.1128 -1.8731
 7547SOL     OW23356   4.829   0.941   1.159 -0.7695  0.5184  0.3674
 7547SOL    HW123357   4.854   1.005   1.092  1.9583  1.8345  2.5433
 7547SOL    HW223358   4.843   0.856   1.117  2.2808  1.3015 -0.3206
 7548SOL     OW23359   5.001   5.043   2.246 -0.8040  0.7752 -0.9457
 7548SOL    HW123360   5.051   4.984   2.302  0.1461  2.0588 -0.4161
 7548SOL    HW223361   5.043   5.038   2.161  0.4180  2.0757 -0.4252
 7549SOL     OW23362   2.801   1.370   1.510  0.5196 -0.0708  0.4637
 7549SOL    HW123363   2.797   1.444   1.450 -1.1577 -0.0536  0.5621
 7549SOL    HW223364   2.891   1.338   1.504  1.0083  1.4164 -0.2503
 7550SOL     OW23365   0.373   2.981   2.089  0.0102 -0.8925  0.0702
 7550SOL    HW123366   0.290   2.962   2.134  0.1222  0.5300  0.8988
 7550SOL    HW223367   0.439   2.972   2.157  0.1724  1.3544  0.2341
 7551SOL     OW23368   5.210   1.946   0.632 -0.3407  0.0638  0.5620
 7551SOL    HW123369   5.203   1.876   0.697 -1.1185 -0.3190  0.0670
 7551SOL    HW223370   5.150   1.921   0.562  1.6352 -0.3184 -1.0571
 7552SOL     OW23371   4.874   5.165   3.353 -0.0838 -0.3480  0.1835
 7552SOL    HW123372   4.801   5.156   3.414  0.0501 -1.9464  0.1468
 7552SOL    HW223373   4.928   5.234   3.391 -0.2484 -0.9883  1.6524
 7553SOL     OW23374   3.276   2.013   4.159 -0.2973  0.4727  0.4952
 7553SOL    HW123375   3.242   1.991   4.246 -0.6134  1.0870  0.5337
 7553SOL    HW223376   3.243   1.944   4.102  0.1836 -0.1144  0.9207
 7554SOL     OW23377   0.972   6.536   2.344 -1.0554  0.4676  0.6556
 7554SOL    HW123378   1.030   6.481   2.396  1.0005  1.5315 -0.4416
 7554SOL    HW223379   1.004   6.625   2.359 -2.3235  1.0584 -0.0627
 7555SOL     OW23380   6.580   3.823   4.100 -0.4360 -0.3369 -0.5760
 7555SOL    HW123381   6.552   3.915   4.096  1.3561  0.2459  0.0062
 7555SOL    HW223382   6.598   3.800   4.009 -1.2020 -0.2292 -0.7636
 7556SOL     OW23383   2.054   5.004   2.882  0.5983  0.3730 -0.1405
 7556SOL    HW123384   2.024   5.086   2.841 -0.4824  0.5994  1.0621
 7556SOL    HW223385   1.980   4.945   2.873  1.2885 -0.4006 -0.7739
 7557SOL     OW23386   5.664   3.368   4.550 -0.2401  0.2745  0.0617
 7557SOL    HW123387   5.659   3.375   4.646 -1.4557  1.1401 -0.0595
 7557SOL    HW223388   5.717   3.443   4.524  1.8752 -1.1310  0.2097
 7558SOL     OW23389   3.797   6.533   4.207 -0.0356  0.2411  0.4979
 7558SOL    HW123390   3.738   6.565   4.275  0.4088  1.1579  0.4625
 7558SOL    HW223391   3.786   6.438   4.208 -0.1622  0.2598  1.7307
 7559SOL     OW23392   5.662   5.029   0.280 -0.1384  0.3960  0.1376
 7559SOL    HW123393   5.581   4.987   0.251 -1.0113  1.8302  0.4785
 7559SOL    HW223394   5.702   5.063   0.200 -0.1856  0.2264  0.0428
 7560SOL     OW23395   4.624   5.321   5.161 -0.4919  0.4963 -0.0367
 7560SOL    HW123396   4.577   5.342   5.080  1.3803 -0.4249 -1.4107
 7560SOL    HW223397   4.569   5.256   5.205 -2.3216  2.1987  0.2487
 7561SOL     OW23398   5.771   5.851   1.220 -0.3503 -0.2490  0.2938
 7561SOL    HW123399   5.833   5.778   1.219  1.4681  1.2022  2.2408
 7561SOL    HW223400   5.814   5.920   1.169  0.2849  1.2257  2.7334
 7562SOL     OW23401   6.090   5.739   1.096  0.3597 -0.8063 -0.5715
 7562SOL    HW123402   5.995   5.731   1.087  0.2196  0.2543 -0.1617
 7562SOL    HW223403   6.125   5.657   1.062 -0.7448 -1.4886 -0.0562
 7563SOL     OW23404   4.611   1.394   4.849  0.1039  0.0511  0.1194
 7563SOL    HW123405   4.577   1.348   4.926 -3.6014  1.6513 -0.4492
 7563SOL    HW223406   4.680   1.452   4.884  1.0519 -1.9217  1.6137
 7564SOL     OW23407   0.613   0.912   3.701  0.1473  0.3204  0.5485
 7564SOL    HW123408   0.627   0.896   3.607 -0.2302  0.8886  0.3968
 7564SOL    HW223409   0.688   0.869   3.743  0.2232 -0.0970  0.0038
 7565SOL     OW23410   5.683   2.773   0.756  0.4838  0.0969 -0.3118
 7565SOL    HW123411   5.678   2.866   0.777  1.1678  0.6203 -2.3670
 7565SOL    HW223412   5.616   2.759   0.689 -1.9678 -1.6447  2.3365
 7566SOL     OW23413   6.734   6.179   3.233 -0.9810 -0.3088 -0.2279
 7566SOL    HW123414   6.649   6.139   3.248 -1.5625  0.3082 -1.8309
 7566SOL    HW223415   6.740   6.248   3.300 -1.3161 -0.9716  0.4970
 7567SOL     OW23416   6.728   2.447   3.691 -0.0827 -0.4877 -0.9121
 7567SOL    HW123417   6.711   2.353   3.698 -1.9781 -0.0839  0.4397
 7567SOL    HW223418   6.732   2.477   3.782 -1.2208  1.0210 -1.3467
 7568SOL     OW23419   4.369   0.455   4.000 -0.1951 -0.2581 -0.0239
 7568SOL    HW123420   4.421   0.483   4.075 -0.1548  1.4530 -0.6658
 7568SOL    HW223421   4.278   0.465   4.029 -0.1826 -1.8398  0.5906
 7569SOL     OW23422   5.357   1.944   3.183 -0.3487  0.5643  0.2503
 7569SOL    HW123423   5.283   1.888   3.163  0.2864  0.4248 -1.8519
 7569SOL    HW223424   5.366   2.001   3.107  0.2833  2.1589  1.4645
 7570SOL     OW23425   4.924   0.087   0.773 -0.0774 -0.3033 -0.0775
 7570SOL    HW123426   4.878   0.037   0.705 -1.1528  1.0450 -0.3812
 7570SOL    HW223427   5.007   0.111   0.733 -0.7915  0.6595 -1.0322
 7571SOL     OW23428   3.038   1.283   6.149  0.0580 -0.2884 -0.0694
 7571SOL    HW123429   3.075   1.227   6.217 -0.6256 -0.2338  0.3559
 7571SOL    HW223430   2.944   1.283   6.167  0.1527  1.8276  0.5610
 7572SOL     OW23431   4.132   5.385   2.672  0.3635  0.2417  0.2172
 7572SOL    HW123432   4.060   5.331   2.640  1.1324 -1.8795  1.9487
 7572SOL    HW223433   4.091   5.448   2.730 -0.4332  0.9504 -1.0978
 7573SOL     OW23434   5.194   4.399   0.156  0.4838  0.5773 -0.1562
 7573SOL    HW123435   5.285   4.430   0.150 -0.1279  2.1312 -1.8346
 7573SOL    HW223436   5.145   4.474   0.190  0.3583 -1.4363  4.4917
 7574SOL     OW23437   4.041   3.507   2.265  0.7538  0.4401  0.1177
 7574SOL    HW123438   4.024   3.414   2.284  0.3336  0.5122  0.0930
 7574SOL    HW223439   4.052   3.510   2.170  0.8394  0.4044  0.1262
 7575SOL     OW23440   0.033   0.702   2.860  0.0465 -0.3084  0.0802
 7575SOL    HW123441  -0.022   0.630   2.829  0.4918  0.2517 -2.1057
 7575SOL    HW223442   0.102   0.710   2.793  0.9899  1.0234  1.1779
 7576SOL     OW23443   5.101   2.688   2.722  0.1114  0.3108 -0.0643
 7576SOL    HW123444   5.158   2.762   2.739  1.2097 -0.7417  0.8703
 7576SOL    HW223445   5.106   2.674   2.627  2.2232 -0.4261  0.1422
 7577SOL     OW23446   0.196   4.837   5.517  0.2150  0.2665  0.7411
 7577SOL    HW123447   0.227   4.894   5.588  1.0488  1.4257 -0.5253
 7577SOL    HW223448   0.249   4.758   5.524  1.9656  1.3485 -0.0586
 7578SOL     OW23449   1.163   0.877   1.078  0.4914 -0.4138  0.0377
 7578SOL    HW123450   1.239   0.819   1.081  0.8787  0.1609  1.6303
 7578SOL    HW223451   1.114   0.857   1.157 -1.1541 -0.9438 -1.0942
 7579SOL     OW23452   3.011   5.328   3.977 -0.4408 -0.4957 -0.4162
 7579SOL    HW123453   2.955   5.399   3.945 -0.8130 -1.2718 -1.5372
 7579SOL    HW223454   3.060   5.300   3.899 -0.6271 -1.7574 -0.0896
 7580SOL     OW23455   6.386   0.206   1.273  0.0947 -0.4348 -0.8040
 7580SOL    HW123456   6.314   0.246   1.322  0.3847 -0.4291 -0.3758
 7580SOL    HW223457   6.344   0.143   1.216 -0.2578 -0.3979 -0.5855
 7581SOL     OW23458   1.205   1.632   5.458  0.3559  0.3335  0.3351
 7581SOL    HW123459   1.252   1.579   5.522  0.4968  0.6985  0.5329
 7581SOL    HW223460   1.132   1.576   5.429  2.4308 -1.2618 -1.9815
 7582SOL     OW23461   6.729   6.668   0.945 -0.0490 -0.1467 -0.1691
 7582SOL    HW123462   6.774   6.745   0.979  1.1991 -1.0839  0.3355
 7582SOL    HW223463   6.636   6.685   0.961  0.2623  0.9829  0.4677
 7583SOL     OW23464   0.814   4.972   1.399 -0.0025 -0.7542 -0.4774
 7583SOL    HW123465   0.881   4.968   1.332  2.6963  1.6303  1.9687
 7583SOL    HW223466   0.846   4.915   1.469 -0.5813  0.2747  0.6550
 7584SOL     OW23467   3.253   3.093   0.052 -0.3691 -0.4265 -0.5485
 7584SOL    HW123468   3.335   3.142   0.052  1.2173 -2.9919 -0.0327
 7584SOL    HW223469   3.221   3.100  -0.039 -1.3602  3.2991 -0.0287
 7585SOL     OW23470   3.906   1.715   6.033 -1.0292 -0.1387  0.9382
 7585SOL    HW123471   3.887   1.799   5.991  1.3836 -0.2634 -0.5269
 7585SOL    HW223472   3.892   1.731   6.126 -1.2823  1.7105  0.6023
 7586SOL     OW23473   4.724   5.082   1.246 -0.4293  0.0247  0.0755
 7586SOL    HW123474   4.629   5.077   1.257 -0.1935 -0.2900  2.0302
 7586SOL    HW223475   4.757   5.000   1.283  0.5131 -0.5732 -1.9783
 7587SOL     OW23476   1.768   1.592   3.839  0.3949 -0.3103 -0.0753
 7587SOL    HW123477   1.726   1.643   3.908  0.3408 -0.2117 -0.1824
 7587SOL    HW223478   1.698   1.572   3.777  0.8914  1.6266 -1.3270
 7588SOL     OW23479   5.105   3.152   5.689  0.2865 -0.0774  0.0763
 7588SOL    HW123480   5.080   3.144   5.597  1.9978 -1.1481 -0.3157
 7588SOL    HW223481   5.160   3.075   5.706  1.5825  1.1168  1.4477
 7589SOL     OW23482   2.708   3.380   2.659  0.0205 -0.1890 -0.2721
 7589SOL    HW123483   2.781   3.368   2.598  0.2700  0.4246 -0.1015
 7589SOL    HW223484   2.651   3.444   2.615  1.2875  1.9267  1.0831
 7590SOL     OW23485   4.313   6.631   3.959  0.1601  0.3287 -0.2899
 7590SOL    HW123486   4.289   6.714   4.000 -0.7729 -0.0851  0.0273
 7590SOL    HW223487   4.408   6.632   3.955  0.2894  0.2775  2.1328
 7591SOL     OW23488   1.102   4.829   6.649 -0.3457  0.0317  0.0414
 7591SOL    HW123489   1.046   4.905   6.664  0.2460  0.4854 -0.0284
 7591SOL    HW223490   1.041   4.755   6.644 -1.0195  0.6452 -0.9812
 7592SOL     OW23491   4.588   1.669   4.013  0.5195  0.0068 -0.1886
 7592SOL    HW123492   4.551   1.753   3.985 -0.3305 -0.1953  0.3178
 7592SOL    HW223493   4.513   1.610   4.017  1.4224 -1.3822 -2.6812
 7593SOL     OW23494   5.555   3.816   1.826 -0.5822  0.3000 -0.0735
 7593SOL    HW123495   5.547   3.827   1.731 -1.0646  1.4447  0.0950
 7593SOL    HW223496   5.466   3.822   1.859 -0.3007  0.9790  0.5654
 7594SOL     OW23497   4.190   4.219   5.511  0.4164  0.0963 -0.0173
 7594SOL    HW123498   4.195   4.212   5.415 -0.9037  0.7365 -0.1360
 7594SOL    HW223499   4.242   4.296   5.532  3.4454 -1.8729  0.0976
 7595SOL     OW23500   6.634   1.974   1.894 -0.0960  0.1224  0.4891
 7595SOL    HW123501   6.670   1.892   1.929 -0.2769 -0.9429 -1.7065
 7595SOL    HW223502   6.710   2.031   1.883  0.4298 -0.7703 -0.5984
 7596SOL     OW23503   6.116   2.804   0.912  0.1991 -0.0349  0.0914
 7596SOL    HW123504   6.047   2.753   0.870  1.2958  0.3218 -2.2369
 7596SOL    HW223505   6.121   2.885   0.861  0.9353  0.8306  1.5055
 7597SOL     OW23506   1.156   3.230   5.969 -0.2389 -0.4114 -0.3607
 7597SOL    HW123507   1.124   3.314   5.934 -1.1610  0.5272  2.5908
 7597SOL    HW223508   1.076   3.184   5.996  0.4250 -1.3024  0.1013
 7598SOL     OW23509   2.436   4.142   2.195 -0.4416 -0.0472 -0.3728
 7598SOL    HW123510   2.378   4.087   2.247  0.7509 -0.9982 -0.0327
 7598SOL    HW223511   2.377   4.194   2.140 -1.7019  0.4869  1.4161
 7599SOL     OW23512   0.071   2.452   3.089  0.0188 -0.4799 -0.5959
 7599SOL    HW123513   0.119   2.485   3.166 -2.1892  0.8543  0.2532
 7599SOL    HW223514   0.001   2.399   3.126 -1.7712  1.1188 -1.6174
 7600SOL     OW23515   4.826   6.467   0.776 -0.1621 -0.4145  0.2102
 7600SOL    HW123516   4.886   6.516   0.720 -0.2578  0.1077  0.5620
 7600SOL    HW223517   4.795   6.395   0.721  0.0667 -0.1486 -0.2688
 7601SOL     OW23518   5.752   0.390   1.383  0.0245 -0.4800  0.0203
 7601SOL    HW123519   5.773   0.297   1.375 -1.4616 -0.8970  0.8821
 7601SOL    HW223520   5.659   0.395   1.364  0.1915  0.9104 -0.4960
 7602SOL     OW23521   2.670   2.083   2.344  0.1706 -0.5687 -0.3993
 7602SOL    HW123522   2.747   2.103   2.398 -1.5786  1.8864  1.3020
 7602SOL    HW223523   2.701   2.089   2.254  1.8734  0.7601  0.2539
 7603SOL     OW23524   5.924   4.772   3.223 -0.1365  0.0719 -0.2614
 7603SOL    HW123525   5.875   4.799   3.145  0.1452 -1.0961 -0.8460
 7603SOL    HW223526   5.952   4.682   3.204 -0.2875 -0.3057  1.2921
 7604SOL     OW23527   6.102   6.250   3.243 -0.1782  0.1533 -0.0708
 7604SOL    HW123528   6.040   6.304   3.293  0.9606  0.8664  0.5812
 7604SOL    HW223529   6.150   6.313   3.189  0.2264 -0.3599 -0.3031
 7605SOL     OW23530   0.263   1.628   6.013  0.1479  0.6659  0.1773
 7605SOL    HW123531   0.334   1.659   5.957  0.2126  0.2130  0.0030
 7605SOL    HW223532   0.305   1.566   6.072 -0.0799  0.4756  0.1414
 7606SOL     OW23533   1.558   6.622   1.295  0.1601  0.2536 -0.0446
 7606SOL    HW123534   1.592   6.560   1.360 -3.2771 -1.8171 -0.0950
 7606SOL    HW223535   1.516   6.690   1.347  0.3860  0.4018 -0.0553
 7607SOL     OW23536   0.927   5.036   6.655  0.2495  0.0690 -0.6740
 7607SOL    HW123537   0.978   5.102   6.702 -0.0389 -0.5783  0.5814
 7607SOL    HW223538   0.843   5.032   6.701 -0.1363 -0.4085 -1.3954
 7608SOL     OW23539   5.289   0.088   6.354 -0.6658  0.1749 -0.0283
 7608SOL    HW123540   5.201   0.050   6.356 -0.7703  0.4050 -0.1430
 7608SOL    HW223541   5.335   0.038   6.287 -0.5324 -0.3208  0.4284
 7609SOL     OW23542   4.035   3.769   2.705  0.6689 -0.0654  0.1370
 7609SOL    HW123543   4.028   3.853   2.660  0.1959 -1.1746 -1.9406
 7609SOL    HW223544   4.100   3.783   2.773  2.2662  1.3763 -1.6322
 7610SOL     OW23545   2.284   4.271   3.618 -0.1117 -0.1426  0.0835
 7610SOL    HW123546   2.321   4.204   3.560  0.7457  0.3445  0.0570
 7610SOL    HW223547   2.344   4.274   3.693 -1.0794 -0.6006  0.8957
 7611SOL     OW23548   2.488   4.330   3.794 -0.1142 -0.5448  0.0519
 7611SOL    HW123549   2.576   4.293   3.790  0.2086  0.1229  0.8737
 7611SOL    HW223550   2.501   4.421   3.820 -0.9575 -0.0753 -1.1395
 7612SOL     OW23551   3.637   5.702   4.600  0.7804 -0.0104  0.0184
 7612SOL    HW123552   3.566   5.707   4.537  0.9378 -0.4667 -0.1951
 7612SOL    HW223553   3.651   5.608   4.614  0.7062  0.0857  0.7744
 7613SOL     OW23554   0.568   2.716   5.543  0.1014 -0.4341 -0.0786
 7613SOL    HW123555   0.584   2.702   5.636  0.4723 -0.3298 -0.1276
 7613SOL    HW223556   0.643   2.766   5.512  0.5599 -1.4850 -0.6865
 7614SOL     OW23557   4.768   3.524   6.723 -0.0092 -0.1343  0.1799
 7614SOL    HW123558   4.724   3.606   6.699  1.2766  0.0251 -1.7990
 7614SOL    HW223559   4.861   3.547   6.725  0.4570 -1.7821 -1.5051
 7615SOL     OW23560   0.847   4.197   5.168  0.4642  0.7868  0.0241
 7615SOL    HW123561   0.799   4.196   5.086 -2.6024 -1.8585  1.7126
 7615SOL    HW223562   0.812   4.272   5.216  0.4376  0.8388 -0.0758
 7616SOL     OW23563   4.986   4.187   6.461  0.2832  0.2731 -0.6386
 7616SOL    HW123564   4.922   4.256   6.449  0.4197  0.5001 -0.0936
 7616SOL    HW223565   4.934   4.108   6.478  0.1570  0.5969  0.5092
 7617SOL     OW23566   5.073   2.301   2.779  0.0239  0.4168 -0.0148
 7617SOL    HW123567   5.068   2.225   2.722  0.2553  0.7876 -0.5294
 7617SOL    HW223568   4.992   2.349   2.762  0.1093  0.5459 -0.0605
 7618SOL     OW23569   5.429   3.400   5.778 -0.0445  0.0533  0.4230
 7618SOL    HW123570   5.380   3.327   5.817  0.1681  0.9607  2.4777
 7618SOL    HW223571   5.425   3.384   5.684 -0.6470 -2.1946  0.7953
 7619SOL     OW23572   4.828   6.352   4.221 -0.3819  0.0733 -0.2808
 7619SOL    HW123573   4.791   6.334   4.134  0.3723 -0.4960 -0.4940
 7619SOL    HW223574   4.768   6.308   4.282 -0.0250 -0.9175 -0.6298
 7620SOL     OW23575   5.338   4.777   3.279 -0.4568  0.0210  0.0286
 7620SOL    HW123576   5.250   4.751   3.252 -0.4888  0.4061 -0.2362
 7620SOL    HW223577   5.369   4.833   3.208  0.1645 -0.4555 -0.0862
 7621SOL     OW23578   3.638   5.571   0.753  0.3898  0.1965  0.1884
 7621SOL    HW123579   3.559   5.598   0.799  0.3807  0.3999  0.0549
 7621SOL    HW223580   3.660   5.485   0.790 -1.0290 -0.7830 -1.2005
 7622SOL     OW23581   0.321   1.305   0.246 -0.3288  0.3765 -0.1923
 7622SOL    HW123582   0.405   1.265   0.271  0.0117  0.5385 -1.0636
 7622SOL    HW223583   0.304   1.368   0.315 -0.6285 -0.9190  0.9461
 7623SOL     OW23584   3.117   1.488   4.207  0.4171  0.2645  0.2430
 7623SOL    HW123585   3.043   1.429   4.220  0.6620 -0.4238 -1.4888
 7623SOL    HW223586   3.192   1.442   4.244  0.5673 -0.4137 -0.9077
 7624SOL     OW23587   5.141   2.969   4.438  0.4542 -0.1800 -0.3745
 7624SOL    HW123588   5.189   3.020   4.373  1.4604 -0.4984  0.1088
 7624SOL    HW223589   5.196   2.892   4.454 -0.1117 -0.4400  0.3529
 7625SOL     OW23590   4.824   3.634   2.495 -0.0695 -0.7189  0.2848
 7625SOL    HW123591   4.838   3.583   2.415 -1.5262  0.2586 -0.6056
 7625SOL    HW223592   4.871   3.716   2.481  1.1700 -1.2383  1.1919
 7626SOL     OW23593   3.749   6.706   6.333  0.0847  0.4344  0.1162
 7626SOL    HW123594   3.769   6.782   6.388  0.8865 -0.9693  1.8101
 7626SOL    HW223595   3.667   6.671   6.369  0.3522 -0.2006  0.1174
 7627SOL     OW23596   1.597   4.168   2.240 -0.4412 -0.0313 -0.3119
 7627SOL    HW123597   1.525   4.218   2.201  1.4617  2.0259 -1.3226
 7627SOL    HW223598   1.636   4.229   2.303  0.8199 -0.9102 -0.2384
 7628SOL     OW23599   4.628   0.650   3.914 -0.2664  0.4496 -0.7094
 7628SOL    HW123600   4.682   0.647   3.835  0.3038  0.5513 -0.3216
 7628SOL    HW223601   4.582   0.733   3.908 -0.4332  0.3352 -1.0691
 7629SOL     OW23602   2.774   4.794   2.456  0.3357  0.3618  0.1186
 7629SOL    HW123603   2.762   4.878   2.499  0.5716  0.2494  0.4035
 7629SOL    HW223604   2.767   4.729   2.526 -0.1232  0.1226 -0.1429
 7630SOL     OW23605   5.979   0.624   5.457 -0.2057  0.2644  0.1775
 7630SOL    HW123606   5.947   0.712   5.436 -0.8303 -0.1480 -0.6322
 7630SOL    HW223607   5.901   0.573   5.474  0.0989 -0.3517 -0.2403
 7631SOL     OW23608   1.392   2.163   1.593  0.8824  0.5643 -0.7201
 7631SOL    HW123609   1.429   2.148   1.506 -0.1494  1.7691 -1.3813
 7631SOL    HW223610   1.414   2.084   1.643  1.9313  0.0961 -1.9188
 7632SOL     OW23611   1.563   6.089   4.541 -0.2262 -0.1688  0.8107
 7632SOL    HW123612   1.540   6.057   4.454 -1.3349  0.9191  0.6853
 7632SOL    HW223613   1.652   6.059   4.555 -0.6463 -1.8433  0.0130
 7633SOL     OW23614   6.555   3.994   3.611 -0.5891  0.6214  0.0107
 7633SOL    HW123615   6.487   3.937   3.575 -1.8986  2.1152  0.0303
 7633SOL    HW223616   6.568   3.962   3.700 -0.1877 -0.6174 -0.4932
 7634SOL     OW23617   2.429   3.444   4.761 -0.6564 -0.1980  0.2595
 7634SOL    HW123618   2.353   3.475   4.811 -0.2576 -0.7702  1.2166
 7634SOL    HW223619   2.504   3.484   4.804 -0.2577 -1.2578  0.5583
 7635SOL     OW23620   2.468   4.161   4.690 -0.3614  0.1146 -0.7053
 7635SOL    HW123621   2.396   4.106   4.661  0.6974 -1.4223 -0.4587
 7635SOL    HW223622   2.466   4.154   4.785 -0.7722  1.2333 -0.6203
 7636SOL     OW23623   2.074   6.062   5.022  0.2920 -0.0943  0.3289
 7636SOL    HW123624   2.005   6.053   5.088 -0.0685 -0.4181 -0.0897
 7636SOL    HW223625   2.131   6.131   5.056 -0.7963  0.8909  0.1966
 7637SOL     OW23626   1.232   3.518   0.268 -0.1168  0.1193 -0.0179
 7637SOL    HW123627   1.168   3.502   0.198 -0.2335 -1.2038  0.3833
 7637SOL    HW223628   1.178   3.535   0.345 -0.0529  4.3868 -0.7682
 7638SOL     OW23629   5.933   6.271   0.308 -0.2618 -0.1186 -0.2689
 7638SOL    HW123630   5.992   6.208   0.349  1.6337  1.3685 -0.6501
 7638SOL    HW223631   5.916   6.236   0.221  0.3605 -0.3485 -0.2980
 7639SOL     OW23632   0.143   6.121   2.878 -0.1481  0.0797  0.0766
 7639SOL    HW123633   0.172   6.030   2.891 -2.4185 -0.5862  0.6754
 7639SOL    HW223634   0.151   6.161   2.964  0.9015  0.4896 -0.1986
 7640SOL     OW23635   2.274   0.955   4.168 -0.0998  0.1808 -0.0233
 7640SOL    HW123636   2.184   0.933   4.143  0.7326 -0.9100 -2.2012
 7640SOL    HW223637   2.267   1.041   4.208 -1.9954  0.5392 -1.0510
 7641SOL     OW23638   5.892   2.137   2.107 -0.4059  0.1806  0.3817
 7641SOL    HW123639   5.946   2.209   2.074 -0.3960  0.0384  0.0843
 7641SOL    HW223640   5.950   2.088   2.165 -0.2326  0.0599  0.1058
 7642SOL     OW23641   5.155   4.495   2.436  0.4777  0.2799  0.1830
 7642SOL    HW123642   5.101   4.543   2.373  2.1117  1.3082 -0.4741
 7642SOL    HW223643   5.222   4.558   2.463  0.6096 -0.5807  1.9439
 7643SOL     OW23644   5.944   6.541   0.508  0.4174  0.3664  0.4076
 7643SOL    HW123645   6.026   6.496   0.491  1.1977  1.0480  2.3213
 7643SOL    HW223646   5.876   6.474   0.494  1.3592 -0.5418  0.1571
 7644SOL     OW23647   6.157   2.915   5.839 -0.1324 -0.0696 -0.3794
 7644SOL    HW123648   6.209   2.889   5.915  1.1534  0.5849 -1.0084
 7644SOL    HW223649   6.209   2.886   5.764 -0.3021  1.2934 -1.0296
 7645SOL     OW23650   0.808   1.900   3.114 -0.0751  0.2350  0.0939
 7645SOL    HW123651   0.726   1.852   3.129  0.3714 -1.3864 -2.3777
 7645SOL    HW223652   0.876   1.844   3.153  0.1535  0.2470 -0.2926
 7646SOL     OW23653   5.990   3.794   4.116 -0.1522  1.0401  0.3069
 7646SOL    HW123654   6.017   3.706   4.142  0.5829  1.1964  0.0972
 7646SOL    HW223655   6.018   3.850   4.189 -1.5386  0.9721  0.9099
 7647SOL     OW23656   5.159   1.876   5.188 -0.6817  0.1855 -0.3333
 7647SOL    HW123657   5.154   1.966   5.222 -0.7218 -0.3497  1.1413
 7647SOL    HW223658   5.228   1.835   5.240  1.2337  0.1110 -2.8575
 7648SOL     OW23659   6.710   3.058   2.744  0.6247  0.0678  0.0821
 7648SOL    HW123660   6.643   2.990   2.743 -0.1353  0.8118 -1.0044
 7648SOL    HW223661   6.663   3.138   2.766  1.3220  0.4449  0.2265
 7649SOL     OW23662   4.944   5.182   5.248  0.1698 -0.4136  0.0264
 7649SOL    HW123663   5.019   5.231   5.215  0.7044 -0.7526  0.7170
 7649SOL    HW223664   4.880   5.249   5.273  1.1991 -0.0222  1.6869
 7650SOL     OW23665   4.464   5.578   1.643 -0.4018  0.1230  0.1293
 7650SOL    HW123666   4.511   5.651   1.602 -1.8089 -0.2062 -2.1724
 7650SOL    HW223667   4.457   5.513   1.574 -1.2718 -1.2152  1.4598
 7651SOL     OW23668   5.985   0.272   4.731  0.1234  0.1071  0.1842
 7651SOL    HW123669   5.895   0.250   4.751  0.1868  0.7808  1.2946
 7651SOL    HW223670   6.029   0.188   4.720 -0.7814 -0.2109 -1.0854
 7652SOL     OW23671   6.615   5.093   2.291 -0.5062 -0.6569 -0.1584
 7652SOL    HW123672   6.682   5.155   2.320  0.7624 -1.6150 -0.9510
 7652SOL    HW223673   6.532   5.136   2.309  0.3524  1.2469 -0.6526
 7653SOL     OW23674   2.853   3.162   4.939  0.7650  0.1747 -0.1566
 7653SOL    HW123675   2.838   3.137   5.030 -0.8022 -1.4791 -0.8430
 7653SOL    HW223676   2.896   3.086   4.899 -2.4131 -0.8606 -1.8142
 7654SOL     OW23677   6.107   3.972   0.878  0.1059  0.1352 -0.0712
 7654SOL    HW123678   6.038   4.020   0.925  0.0257 -1.2555  1.2726
 7654SOL    HW223679   6.114   4.017   0.794 -2.1418  0.5872 -0.0633
 7655SOL     OW23680   3.310   4.267   5.945 -0.1349 -0.1960  0.0442
 7655SOL    HW123681   3.262   4.186   5.963  0.4392 -0.5875 -0.1419
 7655SOL    HW223682   3.268   4.333   5.999 -1.5440 -0.3005 -0.9132
 7656SOL     OW23683   6.323   5.022   4.548  0.2175 -0.2420  0.1585
 7656SOL    HW123684   6.374   4.941   4.536  0.2876 -0.1987  0.1649
 7656SOL    HW223685   6.373   5.089   4.501  0.7009  0.0158  1.0358
 7657SOL     OW23686   1.723   6.487   2.714  1.5034 -0.4083 -0.0544
 7657SOL    HW123687   1.712   6.393   2.696 -0.9554 -0.0954 -0.2576
 7657SOL    HW223688   1.817   6.502   2.702  1.6474 -2.4678 -1.7807
 7658SOL     OW23689   6.326   0.668   1.607 -0.3618 -0.4268 -0.0087
 7658SOL    HW123690   6.339   0.589   1.554 -0.5907 -0.8895  0.6134
 7658SOL    HW223691   6.396   0.664   1.673 -0.0042  0.2073 -0.3447
 7659SOL     OW23692   3.110   4.307   1.593  1.0389  0.4359 -0.0543
 7659SOL    HW123693   3.055   4.366   1.542  0.2094 -1.3429 -1.2511
 7659SOL    HW223694   3.064   4.296   1.676 -0.2223 -0.7192 -0.8932
 7660SOL     OW23695   6.045   4.974   4.514 -0.1320  0.7982 -0.4482
 7660SOL    HW123696   6.016   5.042   4.575  0.4007  1.5691 -1.0298
 7660SOL    HW223697   6.140   4.989   4.506 -0.1775  0.6301 -1.3525
 7661SOL     OW23698   5.179   5.434   5.775 -0.1699  0.0381  0.5534
 7661SOL    HW123699   5.120   5.359   5.769 -0.9819  0.7460 -0.5033
 7661SOL    HW223700   5.207   5.449   5.684 -0.5379  1.4309  0.6718
 7662SOL     OW23701   3.277   6.583   0.854 -0.1661 -0.2504  0.4711
 7662SOL    HW123702   3.188   6.615   0.844  0.0365  0.3101  0.4249
 7662SOL    HW223703   3.328   6.660   0.879  0.6584 -0.1443 -1.4429
 7663SOL     OW23704   2.297   5.000   0.220 -0.0660  0.1479  0.5308
 7663SOL    HW123705   2.281   5.092   0.201  2.5537  0.1626 -1.9245
 7663SOL    HW223706   2.260   4.953   0.146  2.9551 -0.3955 -0.6893
 7664SOL     OW23707   6.435   1.420   3.692  0.1443  0.1057  0.3447
 7664SOL    HW123708   6.365   1.434   3.755  0.7514  2.5525  0.5495
 7664SOL    HW223709   6.510   1.393   3.745  0.1100  0.2321  0.4602
 7665SOL     OW23710   5.318   2.177   1.967  0.1119  0.5257 -0.3021
 7665SOL    HW123711   5.366   2.110   1.917 -1.8134 -0.0211 -1.4748
 7665SOL    HW223712   5.345   2.260   1.928  0.6936  0.2837 -0.4239
 7666SOL     OW23713   3.641   3.012   1.917  0.0039 -0.1991  0.6364
 7666SOL    HW123714   3.715   3.070   1.900 -0.0280 -0.3747 -0.1080
 7666SOL    HW223715   3.565   3.070   1.920 -0.0142 -0.1952  0.0015
 7667SOL     OW23716   1.435   3.913   0.460 -0.2323 -0.1696 -0.1052
 7667SOL    HW123717   1.358   3.962   0.431 -0.0083  0.1729 -0.1294
 7667SOL    HW223718   1.453   3.946   0.548 -1.3132 -1.6863  0.7190
 7668SOL     OW23719   5.614   5.668   1.056 -0.6771 -0.3937  0.4700
 7668SOL    HW123720   5.674   5.726   1.103 -1.3946  0.7757 -0.0125
 7668SOL    HW223721   5.541   5.655   1.117 -1.8642  1.5621 -0.4622
 7669SOL     OW23722   4.090   1.256   4.399 -0.5749 -0.1287 -0.1809
 7669SOL    HW123723   4.167   1.201   4.415 -0.4261  0.3605  0.7867
 7669SOL    HW223724   4.019   1.194   4.384 -0.0646 -0.5875 -0.7556
 7670SOL     OW23725   5.384   0.081   2.295  0.1722 -0.0950  0.2707
 7670SOL    HW123726   5.301   0.112   2.331  0.6209  1.7995 -0.2928
 7670SOL    HW223727   5.360   0.034   2.215 -0.3484  0.6407 -0.0114
 7671SOL     OW23728   6.573   0.190   6.733 -0.1917 -0.0307 -0.2018
 7671SOL    HW123729   6.553   0.264   6.790 -1.3091  0.0063 -0.6285
 7671SOL    HW223730   6.563   0.113   6.789  3.8567  0.2420  1.0498
 7672SOL     OW23731   3.450   5.822   4.791  0.6496 -0.3067 -0.3177
 7672SOL    HW123732   3.507   5.809   4.715  0.2185 -0.7722 -0.5581
 7672SOL    HW223733   3.363   5.833   4.755  0.6531  0.9507  0.0217
 7673SOL     OW23734   3.779   6.145   6.171  0.0853 -0.7882  0.7319
 7673SOL    HW123735   3.823   6.061   6.163  1.5803  0.1496 -1.6838
 7673SOL    HW223736   3.788   6.185   6.084  0.2281  2.2200  2.0574
 7674SOL     OW23737   1.573   0.782   3.951 -0.6150 -0.3563 -0.1537
 7674SOL    HW123738   1.581   0.690   3.923 -1.8442 -0.1302 -1.3578
 7674SOL    HW223739   1.479   0.795   3.962 -0.5404  1.0613 -1.0639
 7675SOL     OW23740   3.234   1.672   3.610 -0.9130  0.2096  0.1477
 7675SOL    HW123741   3.246   1.704   3.521 -1.0836 -1.4345 -0.4859
 7675SOL    HW223742   3.201   1.748   3.659  2.6204  2.1323 -0.3145
 7676SOL     OW23743   6.119   3.134   3.687  0.0530 -0.5651  0.4533
 7676SOL    HW123744   6.041   3.185   3.667 -0.2775 -1.3490 -0.2992
 7676SOL    HW223745   6.148   3.101   3.602  0.9320 -0.6688  0.7876
 7677SOL     OW23746   3.796   3.817   5.821  0.6011 -0.2452 -0.0378
 7677SOL    HW123747   3.875   3.799   5.771  1.6761 -0.0886  1.5878
 7677SOL    HW223748   3.796   3.752   5.891 -0.3116  0.2311  0.4150
 7678SOL     OW23749   3.708   1.261   4.225  0.4016 -0.0731  0.3787
 7678SOL    HW123750   3.709   1.335   4.163 -0.1340  0.1040  0.5774
 7678SOL    HW223751   3.618   1.230   4.222  0.3004  0.1242  1.2995
 7679SOL     OW23752   2.446   2.501   6.183  0.2934 -0.7325 -0.0106
 7679SOL    HW123753   2.483   2.588   6.167  0.3285 -0.5481  1.0454
 7679SOL    HW223754   2.475   2.448   6.108  1.2201 -0.1296 -0.0792
 7680SOL     OW23755   4.748   2.919   2.220 -0.2000  0.2313  0.3162
 7680SOL    HW123756   4.791   2.851   2.167  0.8883 -0.0849  1.5974
 7680SOL    HW223757   4.805   2.995   2.211 -0.8527  0.6653 -0.2313
 7681SOL     OW23758   6.740   0.396   6.302  0.1517 -0.2670  0.4566
 7681SOL    HW123759   6.655   0.393   6.257 -1.4185  2.5939  2.9769
 7681SOL    HW223760   6.717   0.389   6.395  2.9167 -1.6522  1.0884
 7682SOL     OW23761   4.253   6.063   0.237 -0.7376 -0.0569  0.4446
 7682SOL    HW123762   4.287   6.025   0.318  1.6649  1.3442  0.1407
 7682SOL    HW223763   4.252   5.991   0.175 -0.5828 -0.6537  1.1246
 7683SOL     OW23764   3.021   2.567   3.885  0.1329 -0.1886 -0.1011
 7683SOL    HW123765   3.083   2.541   3.818 -0.4732 -0.1328 -0.6927
 7683SOL    HW223766   3.072   2.622   3.945  0.5336  0.2623 -0.8468
 7684SOL     OW23767   4.139   1.667   0.728  0.3983  0.3616 -0.1478
 7684SOL    HW123768   4.055   1.660   0.772  0.7292  0.0447  0.4366
 7684SOL    HW223769   4.196   1.711   0.791  1.3527 -1.6606  0.4524
 7685SOL     OW23770   0.375   4.384   4.263  0.3185  0.2055  0.2940
 7685SOL    HW123771   0.347   4.325   4.194  0.2804 -1.3628  1.6272
 7685SOL    HW223772   0.440   4.334   4.313  0.6636  1.4571  1.1286
 7686SOL     OW23773   1.556   4.057   5.180 -0.1079  0.2777  0.1364
 7686SOL    HW123774   1.544   4.121   5.250 -0.0881  1.2795 -0.7511
 7686SOL    HW223775   1.485   4.076   5.118  0.5314  0.1356 -0.6508
 7687SOL     OW23776   1.694   2.970   5.973 -0.3237  0.4228 -0.2930
 7687SOL    HW123777   1.630   2.926   5.918 -0.3406 -0.4363  0.3939
 7687SOL    HW223778   1.681   3.063   5.956  1.3612  0.1083 -3.5765
 7688SOL     OW23779   4.760   5.885   5.974 -0.2284 -0.4997 -0.2624
 7688SOL    HW123780   4.763   5.793   5.997  0.8609 -0.3348  0.2924
 7688SOL    HW223781   4.851   5.909   5.955 -0.7267  0.0536 -2.0669
 7689SOL     OW23782   1.249   3.640   3.512  0.0085 -0.2026  0.1369
 7689SOL    HW123783   1.333   3.638   3.466  0.0078 -2.8285  0.1979
 7689SOL    HW223784   1.206   3.559   3.487 -1.2960 -0.2481  2.4180
 7690SOL     OW23785   5.758   2.760   1.446  0.2058 -0.3927 -0.3931
 7690SOL    HW123786   5.791   2.838   1.493  0.5676 -1.6230  1.4532
 7690SOL    HW223787   5.809   2.758   1.365  0.9408  0.7159  0.0271
 7691SOL     OW23788   3.320   6.572   4.541  0.1839  0.0138 -0.1765
 7691SOL    HW123789   3.348   6.603   4.627 -0.7972  0.9989 -0.2000
 7691SOL    HW223790   3.225   6.561   4.549  0.2256 -0.9187 -0.8189
 7692SOL     OW23791   4.676   4.783   5.957 -0.5267  0.8633 -0.2817
 7692SOL    HW123792   4.590   4.777   5.915 -0.2908 -1.5862 -0.5075
 7692SOL    HW223793   4.684   4.874   5.983 -3.1187  1.1715 -0.4385
 7693SOL     OW23794   5.430   0.963   4.779  0.2805  0.1843  0.3346
 7693SOL    HW123795   5.454   1.049   4.813  0.4642  0.6491 -0.9320
 7693SOL    HW223796   5.499   0.943   4.716  0.5588 -1.1566  1.0439
 7694SOL     OW23797   2.231   5.830   4.430 -0.3493  0.3075  0.3456
 7694SOL    HW123798   2.267   5.754   4.386 -1.2157  0.4000 -0.5662
 7694SOL    HW223799   2.307   5.884   4.452  0.1638 -0.1586 -0.2612
 7695SOL     OW23800   4.034   3.860   1.332  0.1336  0.0107  0.7156
 7695SOL    HW123801   3.954   3.826   1.292 -0.3168  0.6952  1.0218
 7695SOL    HW223802   4.004   3.910   1.407  0.7616  1.4005  0.0521
 7696SOL     OW23803   6.445   1.373   5.240 -0.3060  0.3845  0.3137
 7696SOL    HW123804   6.527   1.393   5.286 -1.0696  0.8196  1.5098
 7696SOL    HW223805   6.468   1.380   5.148  1.1337  0.0146  0.6174
 7697SOL     OW23806   2.821   2.504   5.432  0.0679 -0.2029  0.0766
 7697SOL    HW123807   2.878   2.479   5.504 -0.9515  1.1522  1.3831
 7697SOL    HW223808   2.745   2.446   5.440 -1.7956  2.4094  2.4519
 7698SOL     OW23809   0.630   3.049   3.717  0.3614  0.4436  0.1605
 7698SOL    HW123810   0.539   3.019   3.725  0.6072 -0.4996 -0.4923
 7698SOL    HW223811   0.667   2.995   3.647  1.1180  1.5937 -0.3305
 7699SOL     OW23812   6.755   5.784   2.191 -0.5502  0.6223 -0.7575
 7699SOL    HW123813   6.669   5.743   2.180 -0.7124  0.6736  0.2567
 7699SOL    HW223814   6.810   5.744   2.124 -1.3338  0.4973 -1.3284
 7700SOL     OW23815   3.066   1.415   6.472  0.4222 -0.1392  0.0155
 7700SOL    HW123816   3.013   1.495   6.471  0.6941  0.0507  0.6517
 7700SOL    HW223817   3.003   1.344   6.462  0.1943  0.1621 -0.6859
 7701SOL     OW23818   3.816   3.215   6.370 -0.0603 -0.1528  0.1843
 7701SOL    HW123819   3.754   3.143   6.366 -0.7153  0.4390 -0.5097
 7701SOL    HW223820   3.817   3.241   6.463 -2.1916  0.9655 -0.0529
 7702SOL     OW23821   3.274   4.171   2.620  0.2532 -0.9209 -0.5745
 7702SOL    HW123822   3.188   4.130   2.626  0.8531 -2.2595 -0.8543
 7702SOL    HW223823   3.260   4.248   2.565 -1.1695  0.0456  1.0681
 7703SOL     OW23824   2.131   5.264   6.475 -0.0747  0.0291  0.0727
 7703SOL    HW123825   2.114   5.198   6.406 -2.4060  2.0511 -1.3687
 7703SOL    HW223826   2.179   5.333   6.430 -0.4669  0.7814  0.8138
 7704SOL     OW23827   2.655   6.521   4.076 -0.4464  0.8162  0.2520
 7704SOL    HW123828   2.620   6.522   3.987  1.4122  0.5361 -0.4916
 7704SOL    HW223829   2.745   6.492   4.066 -0.5716 -0.3552  2.3549
 7705SOL     OW23830   2.967   2.063   4.200 -0.0138 -0.5662 -0.7172
 7705SOL    HW123831   2.929   2.146   4.229  3.1296  0.5124  0.5935
 7705SOL    HW223832   2.954   2.062   4.105 -1.2219  0.7902 -0.5808
 7706SOL     OW23833   2.634   4.791   1.487  0.2630  0.0002 -0.1246
 7706SOL    HW123834   2.674   4.734   1.421 -0.1096  0.6830 -0.9471
 7706SOL    HW223835   2.707   4.845   1.519  0.7329 -1.2849  1.0562
 7707SOL     OW23836   3.805   6.357   2.836 -0.0868 -0.4926  0.0849
 7707SOL    HW123837   3.718   6.386   2.809  0.7154  1.6988 -0.2482
 7707SOL    HW223838   3.794   6.331   2.928 -1.0436  0.0138  0.1150
 7708SOL     OW23839   1.870   3.234   4.523  0.0656  0.2812  0.1833
 7708SOL    HW123840   1.936   3.295   4.556 -0.3704  0.8386  0.0269
 7708SOL    HW223841   1.818   3.286   4.462  0.2069 -0.4636 -0.5745
 7709SOL     OW23842   5.496   3.932   6.521 -0.0487  0.3534  0.0961
 7709SOL    HW123843   5.415   3.891   6.553  1.4415 -1.3423  1.8629
 7709SOL    HW223844   5.508   3.895   6.434 -0.7219 -0.0726  0.1738
 7710SOL     OW23845   1.697   1.639   2.333 -0.0758 -0.2899 -0.5075
 7710SOL    HW123846   1.694   1.582   2.410 -2.2760 -1.4135 -1.3796
 7710SOL    HW223847   1.688   1.728   2.369  0.3733 -0.6942  0.6338
 7711SOL     OW23848   0.067   3.155   2.038  0.1970 -0.0611  0.1616
 7711SOL    HW123849   0.151   3.201   2.039 -0.2507  0.7949  3.7040
 7711SOL    HW223850   0.081   3.077   2.091 -1.3434  0.3339  1.1828
 7712SOL     OW23851   2.695   2.294   1.389 -0.3072  0.0363 -0.3251
 7712SOL    HW123852   2.733   2.297   1.477 -1.2895 -0.9874  0.1429
 7712SOL    HW223853   2.613   2.341   1.396 -0.0189  0.6476 -0.9023
 7713SOL     OW23854   4.039   2.437   0.024  0.0929  0.0927  0.0951
 7713SOL    HW123855   4.106   2.505   0.030 -0.6546  1.1718 -2.5428
 7713SOL    HW223856   3.977   2.459   0.094  0.6465  1.2345  0.2483
 7714SOL     OW23857   3.332   3.866   0.891 -0.0986 -0.1395 -0.1956
 7714SOL    HW123858   3.301   3.782   0.926  3.6070 -1.7560 -0.5300
 7714SOL    HW223859   3.322   3.858   0.797  2.1206 -1.0816 -0.3864
 7715SOL     OW23860   3.388   5.813   3.513  0.0772 -0.3235  0.1107
 7715SOL    HW123861   3.483   5.814   3.508  0.0328 -0.5820 -0.8987
 7715SOL    HW223862   3.360   5.764   3.435 -0.9357  1.1486 -0.4674
 7716SOL     OW23863   5.049   6.626   5.186  0.0700  0.0046  0.3007
 7716SOL    HW123864   5.024   6.666   5.103  0.4120 -0.8306 -0.2116
 7716SOL    HW223865   5.005   6.680   5.252 -0.6177  0.3709 -0.4358
 7717SOL     OW23866   6.667   2.819   3.609 -0.0558  0.5255 -0.0674
 7717SOL    HW123867   6.609   2.893   3.588 -2.1501 -1.1146 -0.2718
 7717SOL    HW223868   6.686   2.830   3.702 -0.2212  1.4164 -0.1294
 7718SOL     OW23869   0.181   3.971   3.759 -0.0429  0.0522  0.3198
 7718SOL    HW123870   0.120   3.925   3.702  0.8474 -0.9014  0.1333
 7718SOL    HW223871   0.143   4.058   3.769 -0.6934 -0.0806 -0.9468
 7719SOL     OW23872   5.125   5.848   1.839 -0.1844  0.0527 -0.7424
 7719SOL    HW123873   5.158   5.890   1.919 -1.1838 -0.1788 -0.1970
 7719SOL    HW223874   5.194   5.788   1.813 -0.1281 -0.3685  0.3412
 7720SOL     OW23875   3.049   1.297   0.229  0.5455 -0.0848 -0.2089
 7720SOL    HW123876   2.978   1.361   0.235  1.4054  0.7633  1.2593
 7720SOL    HW223877   3.103   1.328   0.157  0.6790  0.5736  0.1688
 7721SOL     OW23878   4.466   5.435   2.142  0.1931  0.5444  0.1223
 7721SOL    HW123879   4.370   5.434   2.132  0.2891  1.2140 -0.8322
 7721SOL    HW223880   4.484   5.512   2.195  0.2912  0.9611 -0.5223
 7722SOL     OW23881   5.797   5.755   1.675  0.2347  0.1462 -0.2968
 7722SOL    HW123882   5.777   5.679   1.729  1.8177 -1.4684 -1.9050
 7722SOL    HW223883   5.716   5.772   1.626  0.1247 -1.0218 -0.5312
 7723SOL     OW23884   4.183   5.866   0.509 -0.0311  0.2163  0.2586
 7723SOL    HW123885   4.264   5.915   0.520 -0.9109  1.5667  0.9129
 7723SOL    HW223886   4.123   5.904   0.573 -0.9658 -1.2334  0.2595
 7724SOL     OW23887   0.950   2.415   4.115 -0.7038  0.0008 -0.6945
 7724SOL    HW123888   0.982   2.491   4.162 -0.7849 -0.5614  0.2891
 7724SOL    HW223889   0.896   2.450   4.044 -0.5295  0.8521 -0.4012
 7725SOL     OW23890   6.267   3.638   2.855  0.3046  0.6683  0.1505
 7725SOL    HW123891   6.294   3.613   2.766 -0.5483  0.1955  0.0200
 7725SOL    HW223892   6.195   3.578   2.876  1.0619  0.2235  1.4923
 7726SOL     OW23893   4.635   2.705   4.574 -0.1952 -0.0805 -0.1185
 7726SOL    HW123894   4.681   2.623   4.590 -2.0632 -1.1651 -0.1012
 7726SOL    HW223895   4.704   2.772   4.573  1.3962 -1.6860 -0.5336
 7727SOL     OW23896   1.105   4.142   0.963 -0.0538 -0.3342  0.3504
 7727SOL    HW123897   1.089   4.236   0.954  0.8285 -0.3679 -1.6838
 7727SOL    HW223898   1.069   4.104   0.883 -0.0796 -1.7082  1.0032
 7728SOL     OW23899   5.855   0.711   1.098  0.3223 -0.0908 -0.3285
 7728SOL    HW123900   5.943   0.733   1.070  0.0947 -0.0598 -1.0226
 7728SOL    HW223901   5.866   0.674   1.186  1.1879 -1.4955 -1.0132
 7729SOL     OW23902   1.578   4.855   3.407 -0.2203  0.2786  0.0509
 7729SOL    HW123903   1.557   4.783   3.348 -3.7303  0.5758  0.8221
 7729SOL    HW223904   1.599   4.928   3.349  1.0525 -0.6990 -0.7489
 7730SOL     OW23905   5.196   3.306   0.828 -0.0937  0.2300  0.6659
 7730SOL    HW123906   5.242   3.389   0.835 -1.6093  1.0701  0.8437
 7730SOL    HW223907   5.233   3.252   0.898  2.2590  0.0618 -0.6521
 7731SOL     OW23908   4.621   2.756   5.545 -0.1097 -0.6586  0.5836
 7731SOL    HW123909   4.551   2.777   5.607  0.5026 -0.1230  1.1010
 7731SOL    HW223910   4.677   2.693   5.591  0.9226  0.5288  0.9760
 7732SOL     OW23911   5.645   1.197   1.104 -0.7345 -0.7704  0.0273
 7732SOL    HW123912   5.715   1.132   1.102 -0.9114 -0.9953  0.8490
 7732SOL    HW223913   5.591   1.172   1.180 -1.9999 -0.9181 -0.8902
 7733SOL     OW23914   0.850   5.194   1.604  0.6557  0.1675 -0.4531
 7733SOL    HW123915   0.904   5.229   1.534  0.4329 -1.1513 -1.3041
 7733SOL    HW223916   0.816   5.111   1.569 -0.1073 -0.1068  0.9011
 7734SOL     OW23917   2.267   6.016   3.288 -0.7139 -0.1195 -0.5867
 7734SOL    HW123918   2.297   5.928   3.266 -2.4074 -0.3865 -1.9350
 7734SOL    HW223919   2.227   6.007   3.374  0.0772 -0.4319 -0.2401
 7735SOL     OW23920   5.805   3.167   0.603 -0.5554 -0.0367  0.4823
 7735SOL    HW123921   5.782   3.229   0.533  0.0512  1.6123  1.7257
 7735SOL    HW223922   5.721   3.140   0.639 -0.7536  3.4668  2.8400
 7736SOL     OW23923   4.114   5.368   3.177  0.3610  0.2790  0.6042
 7736SOL    HW123924   4.044   5.420   3.218 -0.6036 -0.1626 -0.4448
 7736SOL    HW223925   4.150   5.316   3.249 -0.4470  0.4634  1.1567
 7737SOL     OW23926   4.726   3.875   1.695  0.3052 -0.1513 -0.4088
 7737SOL    HW123927   4.803   3.836   1.736  0.7528  0.7479 -0.3697
 7737SOL    HW223928   4.665   3.802   1.683  1.0601 -0.8233 -0.2030
 7738SOL     OW23929   4.629   4.031   2.011 -0.2447  0.1853  0.2944
 7738SOL    HW123930   4.631   4.057   1.918 -2.7000 -1.1986 -0.1843
 7738SOL    HW223931   4.599   4.109   2.057 -0.1314  0.5390 -0.2250
 7739SOL     OW23932   2.297   6.338   4.091  0.3904 -0.0677 -0.0476
 7739SOL    HW123933   2.325   6.378   4.173 -0.3212  0.0627  0.1336
 7739SOL    HW223934   2.292   6.244   4.111 -1.0658  0.1064  0.4325
 7740SOL     OW23935   1.618   5.139   1.966 -0.0852 -0.8701  0.1125
 7740SOL    HW123936   1.569   5.146   2.048 -2.3201 -1.1470 -1.1626
 7740SOL    HW223937   1.696   5.089   1.989  0.8199  1.5480  2.7088
 7741SOL     OW23938   6.293   2.860   2.593 -0.0934 -0.4233 -0.2964
 7741SOL    HW123939   6.348   2.784   2.615 -1.0343 -0.3198  2.5067
 7741SOL    HW223940   6.245   2.832   2.515  0.8691 -2.0503 -0.3352
 7742SOL     OW23941   0.149   5.765   4.861  0.0807  0.2054 -0.1760
 7742SOL    HW123942   0.058   5.742   4.880 -0.0218  0.4908 -0.3117
 7742SOL    HW223943   0.160   5.743   4.768  0.1049  0.3114 -0.1987
 7743SOL     OW23944   2.782   4.381   3.201  0.5516  0.5196 -0.5159
 7743SOL    HW123945   2.771   4.287   3.184  1.4249 -0.2088  2.6448
 7743SOL    HW223946   2.709   4.403   3.259  0.7057  1.6605 -0.7469
 7744SOL     OW23947   0.890   1.943   1.159  0.0548  0.5589  0.8523
 7744SOL    HW123948   0.932   1.968   1.241  2.4763  0.7698 -0.3802
 7744SOL    HW223949   0.833   2.016   1.137 -1.3666  0.0691  2.8245
 7745SOL     OW23950   1.759   6.067   4.763  0.3943  0.2072  0.0581
 7745SOL    HW123951   1.737   6.154   4.729  0.7306 -0.2586 -1.3879
 7745SOL    HW223952   1.854   6.060   4.752  0.0910 -1.2069 -1.9665
 7746SOL     OW23953   2.108   3.284   6.739  0.0999 -0.2566  0.4065
 7746SOL    HW123954   2.135   3.207   6.689 -0.0742 -0.5335  0.7442
 7746SOL    HW223955   2.016   3.296   6.718  0.1700 -0.0317  0.2147
 7747SOL     OW23956   2.808   6.333   1.259 -0.0927 -0.5597  0.1152
 7747SOL    HW123957   2.901   6.312   1.245  0.4455  1.3576  0.6215
 7747SOL    HW223958   2.779   6.369   1.175  0.0529  0.3110  0.4356
 7748SOL     OW23959   0.450   5.434   0.668 -0.0549  0.1588 -0.1972
 7748SOL    HW123960   0.372   5.443   0.614  0.1919  1.9541 -0.2702
 7748SOL    HW223961   0.416   5.413   0.756 -0.5395 -0.5448 -0.5461
 7749SOL     OW23962   0.041   4.091   6.364  0.2648 -0.1740  0.7385
 7749SOL    HW123963   0.102   4.152   6.405  1.3413 -0.9814  0.3751
 7749SOL    HW223964   0.097   4.030   6.316 -0.9280  0.1240 -1.0546
 7750SOL     OW23965   3.001   0.263   0.550  0.7311 -0.1167  0.0429
 7750SOL    HW123966   3.080   0.211   0.541  1.3219  0.9650 -1.1995
 7750SOL    HW223967   3.018   0.319   0.626  0.9824 -0.2116  0.0575
 7751SOL     OW23968   2.645   6.303   4.974  0.2730  0.3814 -0.4112
 7751SOL    HW123969   2.555   6.290   4.944  0.0890  0.0254  0.2697
 7751SOL    HW223970   2.691   6.225   4.946  0.7088  1.1815 -1.9795
 7752SOL     OW23971   0.446   6.016   5.207 -0.2047 -0.5255  0.2272
 7752SOL    HW123972   0.469   6.054   5.122  1.6350  0.0615  0.9633
 7752SOL    HW223973   0.385   5.946   5.185  1.2917 -1.2838 -1.7431
 7753SOL     OW23974   1.024   0.280   3.341 -0.3982  0.5157  0.2262
 7753SOL    HW123975   1.083   0.283   3.417  1.1390 -0.1973 -0.8962
 7753SOL    HW223976   1.083   0.281   3.266 -1.8888  0.8098 -0.9540
 7754SOL     OW23977   5.741   1.727   5.516 -0.4809  0.0666 -0.0339
 7754SOL    HW123978   5.705   1.659   5.459 -0.8216 -1.0036  1.4344
 7754SOL    HW223979   5.821   1.689   5.552  1.3007  1.8182 -1.9941
 7755SOL     OW23980   4.632   0.442   5.474  0.6925 -0.5229  0.2131
 7755SOL    HW123981   4.656   0.385   5.547 -0.9567  0.3692  1.4895
 7755SOL    HW223982   4.676   0.525   5.493 -1.6415  0.4710  1.4975
 7756SOL     OW23983   1.202   4.912   4.222  0.3233  0.4803 -0.5457
 7756SOL    HW123984   1.190   4.912   4.317  3.0500  2.0128 -0.1229
 7756SOL    HW223985   1.165   4.995   4.193  3.4816  2.1419 -0.1243
 7757SOL     OW23986   0.826   4.775   4.382 -0.2456 -0.2147  0.0648
 7757SOL    HW123987   0.795   4.832   4.452  1.1306  0.5116  0.0995
 7757SOL    HW223988   0.765   4.702   4.382 -0.4932 -0.0299  1.7595
 7758SOL     OW23989   3.374   4.180   2.149 -0.6577 -0.4044 -0.0153
 7758SOL    HW123990   3.312   4.133   2.204  0.3239 -0.9718  0.6306
 7758SOL    HW223991   3.460   4.159   2.186 -0.2198  2.6699  0.8983
 7759SOL     OW23992   1.212   0.880   6.605  0.8547 -0.6164 -0.0661
 7759SOL    HW123993   1.122   0.879   6.639  1.1208  2.4424  0.8608
 7759SOL    HW223994   1.201   0.864   6.511 -0.6184 -0.8539  0.1294
 7760SOL     OW23995   4.214   3.188   3.332  0.1881  0.0069  0.7573
 7760SOL    HW123996   4.280   3.157   3.271  0.4240  0.1367  0.9472
 7760SOL    HW223997   4.193   3.277   3.302 -1.1503 -0.6673 -0.3347
 7761SOL     OW23998   3.156   6.379   4.107  0.3859  0.2132  0.2811
 7761SOL    HW123999   3.239   6.369   4.059  0.9966 -3.0023  1.8835
 7761SOL    HW224000   3.168   6.459   4.159  1.1451  1.6429 -2.0289
 7762SOL     OW24001   0.373   2.104   2.722 -0.1501 -0.2936  0.3957
 7762SOL    HW124002   0.325   2.031   2.682 -0.0259  0.9306 -2.0350
 7762SOL    HW224003   0.310   2.176   2.722  0.6967  0.4427  0.0367
 7763SOL     OW24004   2.593   2.592   6.578 -0.6842 -0.0142  0.4786
 7763SOL    HW124005   2.569   2.551   6.661  0.1859 -3.0287 -0.7206
 7763SOL    HW224006   2.509   2.613   6.536 -1.1289 -0.4886  1.1287
 7764SOL     OW24007   4.936   1.109   0.972  0.4149  0.3054  0.6889
 7764SOL    HW124008   4.868   1.177   0.978  1.3048  1.2460  0.2850
 7764SOL    HW224009   5.018   1.158   0.979  1.0722 -0.6729 -0.2383
 7765SOL     OW24010   0.385   5.915   1.740  0.1353  0.1681  0.3714
 7765SOL    HW124011   0.408   5.914   1.647  4.6354 -1.0195  1.3567
 7765SOL    HW224012   0.446   5.978   1.779 -0.0114 -1.1381  2.8206
 7766SOL     OW24013   5.577   5.774   1.970  0.1757 -0.2678  0.0675
 7766SOL    HW124014   5.665   5.742   1.987  0.6894  0.4732 -1.1074
 7766SOL    HW224015   5.569   5.854   2.022  0.4397  0.0271 -0.3433
 7767SOL     OW24016   2.260   0.297   2.381 -0.4945  0.1587  0.3603
 7767SOL    HW124017   2.247   0.391   2.391 -0.7823 -0.0110  1.7425
 7767SOL    HW224018   2.355   0.285   2.389 -0.3293  0.4572 -1.0564
 7768SOL     OW24019   5.046   1.498   2.803 -0.3245  0.4552  0.2801
 7768SOL    HW124020   5.022   1.556   2.731 -1.5289 -0.1396  0.1897
 7768SOL    HW224021   5.126   1.535   2.838  1.1376 -0.0655 -2.3407
 7769SOL     OW24022   5.719   2.105   3.543 -0.3009  0.0727 -0.0296
 7769SOL    HW124023   5.711   2.020   3.585 -1.6964 -0.3730 -1.1714
 7769SOL    HW224024   5.671   2.096   3.461 -0.1345  1.8454 -0.3373
 7770SOL     OW24025   4.609   3.623   1.792  0.2523 -0.1453 -0.5248
 7770SOL    HW124026   4.554   3.561   1.743 -0.3169 -0.7498  0.8663
 7770SOL    HW224027   4.675   3.568   1.834 -1.4974 -0.1019  2.4234
 7771SOL     OW24028   3.193   3.556   6.077 -0.3821 -0.0432  0.3879
 7771SOL    HW124029   3.199   3.638   6.028 -0.1917 -0.3040 -0.0299
 7771SOL    HW224030   3.250   3.568   6.153  2.8133 -1.2354 -1.7205
 7772SOL     OW24031   3.589   4.787   6.017 -0.2980 -0.2191 -0.2252
 7772SOL    HW124032   3.507   4.837   6.020 -1.1772 -1.6786  0.1654
 7772SOL    HW224033   3.573   4.719   5.951  0.4798 -0.7182  0.1007
 7773SOL     OW24034   4.570   2.778   0.948 -0.4723  0.2772  0.1376
 7773SOL    HW124035   4.530   2.790   1.034 -1.5799 -0.8812 -0.1912
 7773SOL    HW224036   4.567   2.865   0.908 -3.1335  0.1568 -0.0523
 7774SOL     OW24037   2.793   6.637   4.314  0.7447 -0.0156  0.4098
 7774SOL    HW124038   2.882   6.672   4.319  1.0222 -0.4554 -1.3321
 7774SOL    HW224039   2.766   6.651   4.224 -1.1472  0.5448  1.0257
 7775SOL     OW24040   1.540   6.481   4.316 -0.2270  0.1319  0.3079
 7775SOL    HW124041   1.623   6.434   4.325  1.0857  2.2093 -0.5770
 7775SOL    HW224042   1.474   6.414   4.333  1.5856 -1.8163  0.0664
 7776SOL     OW24043   0.752   0.151   0.500  0.2269 -0.4016  0.0249
 7776SOL    HW124044   0.795   0.162   0.585 -0.0119 -0.5700  0.1690
 7776SOL    HW224045   0.792   0.218   0.445  0.5622 -0.4518  0.1996
 7777SOL     OW24046   1.760   4.256   4.463 -0.5191  0.2232  0.2253
 7777SOL    HW124047   1.776   4.168   4.430 -0.1395  0.9694 -1.6749
 7777SOL    HW224048   1.696   4.293   4.403 -0.4826  1.3327  0.8489
 7778SOL     OW24049   1.136   5.116   3.081 -0.3021  0.9474  0.0740
 7778SOL    HW124050   1.044   5.140   3.075 -1.1187 -1.5803  1.6352
 7778SOL    HW224051   1.184   5.196   3.062 -2.8167  2.0666 -1.6429
 7779SOL     OW24052   3.550   0.652   2.191  0.5546  0.1482 -0.4665
 7779SOL    HW124053   3.520   0.628   2.279 -0.7283  2.0828 -0.3537
 7779SOL    HW224054   3.502   0.593   2.133 -0.7157  0.7151 -0.0270
 7780SOL     OW24055   5.853   1.345   4.674 -0.2023 -0.0104 -0.4269
 7780SOL    HW124056   5.867   1.374   4.584 -1.0262  1.5017 -0.0877
 7780SOL    HW224057   5.828   1.424   4.721 -0.9707 -1.0093  0.8769
 7781SOL     OW24058   3.595   3.487   3.222 -1.1207 -0.5148 -0.6434
 7781SOL    HW124059   3.524   3.453   3.168 -0.8766 -0.8463 -0.7554
 7781SOL    HW224060   3.555   3.502   3.307 -1.3555 -0.5835 -0.7415
 7782SOL     OW24061   2.899   3.276   2.834 -0.1224 -0.0334 -0.3364
 7782SOL    HW124062   2.829   3.336   2.808 -0.2910 -0.0008  0.1740
 7782SOL    HW224063   2.855   3.193   2.853 -0.0168 -0.0366 -0.0942
 7783SOL     OW24064   5.973   3.540   4.207 -0.1514 -0.0262  0.2860
 7783SOL    HW124065   5.966   3.472   4.140  0.0721  0.7259 -0.5002
 7783SOL    HW224066   6.033   3.502   4.272  0.3497 -0.3997 -0.3794
 7784SOL     OW24067   2.120   6.671   6.120 -0.1603  0.1644 -0.1415
 7784SOL    HW124068   2.072   6.605   6.070  0.6835 -0.1551 -0.5413
 7784SOL    HW224069   2.111   6.751   6.068 -1.8285  0.5534  0.7308
 7785SOL     OW24070   4.010   5.133   5.914 -0.3202 -0.3012  0.9434
 7785SOL    HW124071   3.938   5.069   5.912 -0.5304 -0.0870  1.4766
 7785SOL    HW224072   3.976   5.209   5.867  0.4801 -1.1401 -1.0205
 7786SOL     OW24073   1.525   3.318   1.862  0.1140  0.4117 -0.2178
 7786SOL    HW124074   1.450   3.330   1.920 -0.6858  0.3733 -1.2282
 7786SOL    HW224075   1.486   3.291   1.779  1.1810  1.3263 -1.0240
 7787SOL     OW24076   5.398   4.203   1.467  0.4227 -0.2062  0.6514
 7787SOL    HW124077   5.376   4.118   1.506 -0.7942 -0.1871  0.0252
 7787SOL    HW224078   5.394   4.265   1.539  1.0036 -0.6314  1.0499
 7788SOL     OW24079   0.201   6.222   5.818 -0.2809  0.1008  0.0615
 7788SOL    HW124080   0.256   6.170   5.759 -2.9322 -3.1756  0.3231
 7788SOL    HW224081   0.137   6.264   5.761  1.6465  2.9870 -0.1099
 7789SOL     OW24082   1.877   4.150   5.908  0.5106 -0.1738 -0.2408
 7789SOL    HW124083   1.786   4.170   5.931  0.3270  0.2499 -1.3120
 7789SOL    HW224084   1.878   4.148   5.812  1.3140 -1.6601 -0.2162
 7790SOL     OW24085   0.478   5.464   0.024 -0.0928 -0.5092 -0.2053
 7790SOL    HW124086   0.490   5.385   0.077  0.1762  0.5180  1.2892
 7790SOL    HW224087   0.541   5.454  -0.048 -0.2187 -1.7507 -0.1604
 7791SOL     OW24088   1.349   1.699   3.341 -0.5618 -0.1277  0.1411
 7791SOL    HW124089   1.271   1.647   3.320  0.4282 -1.1119 -1.1956
 7791SOL    HW224090   1.363   1.683   3.434 -1.9779  0.0983  0.4120
 7792SOL     OW24091   2.795   5.515   6.677  0.0523  0.4757  0.1330
 7792SOL    HW124092   2.747   5.543   6.600 -0.6765 -0.4426  0.2363
 7792SOL    HW224093   2.792   5.589   6.737 -1.0868  0.4934  0.0599
 7793SOL     OW24094   2.264   5.752   4.723  1.1219 -0.9163 -0.2819
 7793SOL    HW124095   2.306   5.713   4.647  0.6465 -0.1610 -0.9301
 7793SOL    HW224096   2.184   5.700   4.735 -0.7942  1.3329 -2.6392
 7794SOL     OW24097   5.708   6.377   0.443 -0.4223 -0.1491 -0.1349
 7794SOL    HW124098   5.776   6.384   0.377 -0.9994  1.5386 -0.5784
 7794SOL    HW224099   5.652   6.306   0.413  1.4120 -1.9287  0.5233
 7795SOL     OW24100   1.977   3.150   5.816  0.6302  0.3367 -0.4939
 7795SOL    HW124101   2.038   3.224   5.823 -0.0610  0.7907  1.0627
 7795SOL    HW224102   1.894   3.191   5.791  0.5496 -0.0715 -0.8930
 7796SOL     OW24103   0.802   0.883   1.696 -0.1155 -0.3376  0.5304
 7796SOL    HW124104   0.765   0.813   1.641  1.8178 -0.8853 -0.1435
 7796SOL    HW224105   0.812   0.843   1.782 -0.9007 -0.2439  0.6690
 7797SOL     OW24106   5.737   2.512   2.801  0.1323 -0.0379 -0.1324
 7797SOL    HW124107   5.798   2.530   2.872  0.5905  0.1640 -0.5715
 7797SOL    HW224108   5.651   2.505   2.843  0.2949  0.8422  0.3343
 7798SOL     OW24109   3.403   3.314   3.926  0.6159  0.4187  0.0126
 7798SOL    HW124110   3.434   3.289   4.012  0.2740  1.1469  0.3533
 7798SOL    HW224111   3.460   3.386   3.900  1.1719 -0.2597 -0.6790
 7799SOL     OW24112   6.611   2.588   5.026  0.5282  0.4186 -0.1013
 7799SOL    HW124113   6.690   2.633   5.055  0.0612  0.1332  1.7508
 7799SOL    HW224114   6.611   2.596   4.931  1.9395  1.8103 -0.0014
 7800SOL     OW24115   3.972   0.014   5.072  0.1747 -0.4360 -0.0830
 7800SOL    HW124116   4.040  -0.043   5.036 -0.2494  0.2838 -2.0858
 7800SOL    HW224117   4.020   0.084   5.115  0.6908 -1.4871  1.0846
 7801SOL     OW24118   2.434   1.533   3.928 -0.6280 -0.5397  0.0320
 7801SOL    HW124119   2.390   1.615   3.903 -0.0377 -0.0508  0.5776
 7801SOL    HW224120   2.528   1.556   3.927 -0.4116 -1.4435 -0.6694
 7802SOL     OW24121   0.210   0.822   3.180  0.3707 -0.1747  0.0257
 7802SOL    HW124122   0.282   0.834   3.119 -1.3208  0.0549 -1.9997
 7802SOL    HW224123   0.131   0.831   3.126 -1.1532 -2.2159  1.8094
 7803SOL     OW24124   3.046   4.391   3.175 -0.5378 -0.0646  0.2209
 7803SOL    HW124125   2.953   4.409   3.183  0.0657  3.0621  0.7489
 7803SOL    HW224126   3.071   4.429   3.091 -0.5084 -4.6559 -2.0102
 7804SOL     OW24127   6.720   2.869   2.078 -0.0621 -0.4030  0.9415
 7804SOL    HW124128   6.707   2.895   2.169 -0.5539 -1.5052  1.1934
 7804SOL    HW224129   6.660   2.924   2.028  1.4886  1.4681  1.0837
 7805SOL     OW24130   2.338   0.099   5.005  0.2863  0.4111  0.3476
 7805SOL    HW124131   2.412   0.159   5.010 -0.6917  1.6111  0.8143
 7805SOL    HW224132   2.369   0.018   5.046  1.4280  0.8002  0.2547
 7806SOL     OW24133   5.268   3.700   6.519 -0.6980 -0.5682  0.3483
 7806SOL    HW124134   5.292   3.638   6.450 -1.4138 -1.1450  0.6216
 7806SOL    HW224135   5.311   3.666   6.598 -0.0356 -0.0100  0.2431
 7807SOL     OW24136   2.060   4.147   4.151 -0.6155 -0.0654  0.4538
 7807SOL    HW124137   2.052   4.238   4.121 -1.1031 -0.0208  0.7267
 7807SOL    HW224138   2.146   4.119   4.120 -0.9873  0.0872 -0.7095
 7808SOL     OW24139   4.886   3.529   3.387 -0.1762  0.4817  0.4157
 7808SOL    HW124140   4.980   3.531   3.366 -0.2939  0.9455 -0.0855
 7808SOL    HW224141   4.847   3.591   3.325 -0.6990  0.9323  1.1930
 7809SOL     OW24142   5.404   3.811   3.389  0.0408  0.7231 -0.7191
 7809SOL    HW124143   5.322   3.855   3.409  0.1730  0.4625  0.4047
 7809SOL    HW224144   5.469   3.853   3.446  0.4213  0.0024 -0.6127
 7810SOL     OW24145   2.736   3.676   4.436 -0.8845  0.4893 -0.0625
 7810SOL    HW124146   2.809   3.624   4.468  1.5975  1.9664 -3.0563
 7810SOL    HW224147   2.681   3.615   4.388  1.0299  0.2669 -1.9928
 7811SOL     OW24148   3.777   5.937   3.171 -0.3471  0.0027 -0.3173
 7811SOL    HW124149   3.817   5.876   3.110  1.5410  0.0059  0.8870
 7811SOL    HW224150   3.830   6.016   3.165 -1.8624  1.0009 -0.7535
 7812SOL     OW24151   3.245   0.356   0.943 -0.5537  0.0515  0.1937
 7812SOL    HW124152   3.164   0.345   0.895 -0.5128 -1.4310  0.4434
 7812SOL    HW224153   3.218   0.374   1.033 -0.6301 -1.7209  0.5518
 7813SOL     OW24154   3.525   5.956   2.783  0.2251 -0.6185  0.3716
 7813SOL    HW124155   3.452   6.016   2.796  0.5778 -0.0455 -0.3017
 7813SOL    HW224156   3.484   5.869   2.781 -0.4048 -0.3203  0.1967
 7814SOL     OW24157   2.678   2.483   4.344 -1.0062  0.1141 -0.3541
 7814SOL    HW124158   2.626   2.496   4.264 -1.2336  1.1146 -0.0468
 7814SOL    HW224159   2.725   2.566   4.355 -0.7902 -0.1126  0.4133
 7815SOL     OW24160   5.529   1.076   5.315 -0.3106 -0.4826 -0.5147
 7815SOL    HW124161   5.605   1.099   5.369 -0.4803  0.3540 -0.6339
 7815SOL    HW224162   5.567   1.029   5.240  0.0904 -0.0123 -0.6028
 7816SOL     OW24163   3.629   3.537   3.771  0.3781  0.0145  0.4178
 7816SOL    HW124164   3.667   3.456   3.736  0.7631  0.5408 -0.3931
 7816SOL    HW224165   3.623   3.595   3.695 -1.4499  0.1671  0.6610
 7817SOL     OW24166   5.397   0.401   5.804 -0.0728  0.8272  0.0979
 7817SOL    HW124167   5.301   0.408   5.802 -0.0280  1.7137  0.8063
 7817SOL    HW224168   5.424   0.462   5.872  1.1023  1.8954 -1.2771
 7818SOL     OW24169   5.931   5.356   1.162  0.0260 -0.2286  0.4876
 7818SOL    HW124170   5.842   5.344   1.129  0.5164 -1.5924 -0.3381
 7818SOL    HW224171   5.950   5.276   1.210  0.9598 -0.0890  0.3513
 7819SOL     OW24172   5.840   0.143   4.913 -0.9879  0.8065  0.4427
 7819SOL    HW124173   5.845   0.054   4.880 -0.2243  1.5752 -1.5436
 7819SOL    HW224174   5.749   0.152   4.943 -1.7135  0.1060 -1.4787
 7820SOL     OW24175   1.029   3.081   0.680  0.2077 -0.0038  0.2691
 7820SOL    HW124176   1.087   3.084   0.756 -0.3455  0.6702  0.6699
 7820SOL    HW224177   1.052   3.159   0.629 -0.8144  0.6507  0.7873
 7821SOL     OW24178   0.251   1.225   1.401 -0.2410 -0.2804 -0.0728
 7821SOL    HW124179   0.272   1.292   1.336 -1.4137 -0.9197 -1.1374
 7821SOL    HW224180   0.336   1.197   1.435  0.3395  0.6242 -0.7485
 7822SOL     OW24181   4.341   5.329   4.427 -0.0995 -0.3275  0.0043
 7822SOL    HW124182   4.279   5.301   4.494  1.2502  0.5601  1.6613
 7822SOL    HW224183   4.421   5.281   4.448  0.4324  0.2113 -0.7808
 7823SOL     OW24184   1.750   2.958   5.147 -0.1362  0.6135 -0.3287
 7823SOL    HW124185   1.701   2.884   5.184  0.3716  1.2032  1.6122
 7823SOL    HW224186   1.736   2.951   5.053 -2.3284 -0.3890  0.0151
 7824SOL     OW24187   4.221   4.885   3.611  0.3060  0.0578  0.6781
 7824SOL    HW124188   4.263   4.851   3.690 -0.1230  0.9426  1.2869
 7824SOL    HW224189   4.265   4.967   3.593  0.1677  0.0278  0.1954
 7825SOL     OW24190   4.838   4.582   4.870  0.3703 -0.2491 -0.0839
 7825SOL    HW124191   4.904   4.538   4.817  0.4721  0.5434 -0.6401
 7825SOL    HW224192   4.886   4.649   4.918 -0.0545  0.4981 -0.6829
 7826SOL     OW24193   0.198   5.445   4.849  0.5254  0.4140  0.5297
 7826SOL    HW124194   0.284   5.403   4.852  0.2180 -0.2227  0.3064
 7826SOL    HW224195   0.204   5.506   4.776  1.2002  1.2672  1.2842
 7827SOL     OW24196   1.030   1.878   2.050 -0.0963  0.3403  0.1614
 7827SOL    HW124197   1.085   1.887   1.973 -1.9776  3.9539 -0.8543
 7827SOL    HW224198   0.941   1.871   2.015 -0.7033 -1.3752  1.9221
 7828SOL     OW24199   4.317   3.632   2.639  0.1455  0.2817 -0.4647
 7828SOL    HW124200   4.274   3.715   2.621  1.7891  1.1594 -0.4779
 7828SOL    HW224201   4.406   3.656   2.665  0.4988 -1.4430  0.0150
 7829SOL     OW24202   4.534   0.213   2.354  0.3011 -0.3988  0.2083
 7829SOL    HW124203   4.520   0.287   2.295  0.2870 -0.5608  0.0129
 7829SOL    HW224204   4.501   0.244   2.439  0.1650 -0.2317  0.0941
 7830SOL     OW24205   3.306   5.727   0.032  0.1057 -0.8856  0.2566
 7830SOL    HW124206   3.300   5.699   0.123  0.2445  0.2385  0.6181
 7830SOL    HW224207   3.259   5.811   0.030 -0.4908 -1.2291 -0.8464
 7831SOL     OW24208   5.976   1.944   1.039 -0.3176 -0.5054  0.3800
 7831SOL    HW124209   5.891   1.965   1.078 -0.5125 -2.8868  1.2946
 7831SOL    HW224210   6.026   1.905   1.111  0.5882 -1.6695 -0.8719
 7832SOL     OW24211   4.327   0.147   6.399 -1.2574  0.0188  0.0128
 7832SOL    HW124212   4.363   0.078   6.454 -1.3924 -0.0074  0.0700
 7832SOL    HW224213   4.401   0.181   6.349 -1.5437 -1.6036 -1.5839
 7833SOL     OW24214   5.069   2.836   0.723 -0.0441  0.2825 -0.3625
 7833SOL    HW124215   4.978   2.836   0.694  0.5079  1.2672 -2.1333
 7833SOL    HW224216   5.121   2.850   0.644  1.7488 -1.6860  0.4155
 7834SOL     OW24217   4.043   2.906   3.788 -0.3230 -0.1641 -0.8248
 7834SOL    HW124218   4.083   2.976   3.736 -0.0450 -0.2751 -0.7597
 7834SOL    HW224219   3.983   2.863   3.727 -1.4512  0.9327 -0.5128
 7835SOL     OW24220   1.613   3.748   2.745 -0.0509 -0.0606  0.2800
 7835SOL    HW124221   1.592   3.700   2.665 -0.6681  0.0685  0.3589
 7835SOL    HW224222   1.681   3.810   2.719 -0.9913  0.6985 -0.3948
 7836SOL     OW24223   0.706   5.793   0.640  0.0163  0.2122  0.2028
 7836SOL    HW124224   0.777   5.739   0.674 -0.1123  0.2568  0.5357
 7836SOL    HW224225   0.748   5.847   0.573  0.7326  1.7246  1.8323
 7837SOL     OW24226   4.694   3.830   1.111  0.6693 -0.1077  0.0481
 7837SOL    HW124227   4.776   3.800   1.073  1.4240  0.1359  1.4336
 7837SOL    HW224228   4.655   3.751   1.149  0.4107 -0.1678 -0.3420
 7838SOL     OW24229   6.660   4.284   0.357 -0.3996  0.2812 -0.1736
 7838SOL    HW124230   6.740   4.230   0.352  0.0567  0.7915  1.1638
 7838SOL    HW224231   6.621   4.258   0.441 -0.3896  1.7225  0.2869
 7839SOL     OW24232   4.002   1.725   1.722  0.3977 -0.6124 -0.1039
 7839SOL    HW124233   3.961   1.709   1.807  1.0751 -3.1897 -0.2422
 7839SOL    HW224234   4.096   1.731   1.740  0.5790 -1.5344 -0.7284
 7840SOL     OW24235   4.309   4.303   1.150  0.2267  0.2798 -0.1939
 7840SOL    HW124236   4.329   4.210   1.143  0.5847  0.4055 -0.8358
 7840SOL    HW224237   4.260   4.311   1.232  0.5493 -0.4121  0.0660
 7841SOL     OW24238   5.610   0.310   1.688  0.1923 -0.8419 -0.2881
 7841SOL    HW124239   5.695   0.355   1.684 -0.3819  0.3806  0.8015
 7841SOL    HW224240   5.604   0.278   1.778 -0.2335 -1.4687 -0.5372
 7842SOL     OW24241   6.515   5.297   6.479  0.4007 -0.2585 -0.6804
 7842SOL    HW124242   6.567   5.354   6.536  0.5878 -0.2681 -0.8401
 7842SOL    HW224243   6.440   5.272   6.533 -0.8338  1.9120 -1.3477
 7843SOL     OW24244   5.078   1.337   0.052  0.5237  0.2797  0.0576
 7843SOL    HW124245   5.039   1.413   0.095  0.3381  0.1134  0.1847
 7843SOL    HW224246   5.169   1.361   0.038  0.0854  1.1796 -1.3933
 7844SOL     OW24247   5.144   5.088   3.239 -0.7759  0.1561 -1.1892
 7844SOL    HW124248   5.134   5.049   3.152  0.0404 -2.0672 -0.3070
 7844SOL    HW224249   5.061   5.072   3.283 -0.5005 -0.4152 -0.8832
 7845SOL     OW24250   3.010   2.158   6.206 -0.0714 -0.1247 -0.0037
 7845SOL    HW124251   2.924   2.199   6.193 -0.1697  0.0963  1.3085
 7845SOL    HW224252   3.029   2.116   6.122 -1.2027  0.3085 -0.4886
 7846SOL     OW24253   5.137   6.674   6.583 -0.2995  0.0924  0.0282
 7846SOL    HW124254   5.139   6.638   6.495  0.1479 -1.2772  0.5806
 7846SOL    HW224255   5.197   6.618   6.633  1.5689  2.5037  0.5841
 7847SOL     OW24256   3.126   1.878   0.835  0.4246 -0.1553  0.0093
 7847SOL    HW124257   3.137   1.785   0.816  2.2590 -0.2694  1.5496
 7847SOL    HW224258   3.061   1.881   0.906 -0.5715 -0.1727 -0.8901
 7848SOL     OW24259   1.951   0.612   6.682  0.1274  0.1852  0.5762
 7848SOL    HW124260   1.917   0.527   6.711  1.1399 -0.4161  0.0377
 7848SOL    HW224261   1.939   0.670   6.757  0.7445 -0.7983  1.4513
 7849SOL     OW24262   1.530   5.182   0.554 -0.3525 -0.7399 -0.2771
 7849SOL    HW124263   1.574   5.115   0.501  1.4912 -0.1822  0.4969
 7849SOL    HW224264   1.559   5.165   0.643  0.4960  1.3540 -0.1284
 7850SOL     OW24265   0.645   3.074   1.782  0.1609  0.1744 -0.1429
 7850SOL    HW124266   0.686   3.067   1.868 -0.8359  3.5132  0.6757
 7850SOL    HW224267   0.574   3.010   1.783  0.2391  0.1128  1.4929
 7851SOL     OW24268   2.041   4.016   0.156 -0.2241  0.2401 -0.0074
 7851SOL    HW124269   2.101   4.089   0.170 -1.6422  1.0936  1.7526
 7851SOL    HW224270   2.093   3.938   0.176  1.5989  0.6373 -2.8512
 7852SOL     OW24271   1.102   3.662   5.905 -0.1888  0.0527 -0.1032
 7852SOL    HW124272   1.181   3.695   5.863  0.2165 -1.0571 -0.2205
 7852SOL    HW224273   1.039   3.734   5.896  1.4907  1.9152  2.1261
 7853SOL     OW24274   6.657   0.097   4.099 -0.5919  0.4048  0.8621
 7853SOL    HW124275   6.620   0.121   4.014 -0.5158  1.6181  1.1576
 7853SOL    HW224276   6.620   0.011   4.117 -1.0503  0.3741 -0.1451
 7854SOL     OW24277   4.703   1.764   6.588  0.1715  0.3171  0.0117
 7854SOL    HW124278   4.748   1.814   6.656 -0.2769  1.4442 -0.5110
 7854SOL    HW224279   4.610   1.783   6.601 -0.0052 -0.4308 -0.1509
 7855SOL     OW24280   1.927   2.457   3.165  0.5516  0.0531 -0.1874
 7855SOL    HW124281   1.902   2.375   3.209  1.0108 -0.0886 -0.1871
 7855SOL    HW224282   1.909   2.440   3.073 -0.2460  0.2880 -0.0805
 7856SOL     OW24283   3.788   4.818   0.950  0.4121 -0.3622 -0.4824
 7856SOL    HW124284   3.711   4.803   1.004  0.8264 -3.0489 -0.6027
 7856SOL    HW224285   3.859   4.771   0.995  1.5610  0.4430 -1.4059
 7857SOL     OW24286   3.665   5.029   0.851  0.3706 -0.3880 -0.0293
 7857SOL    HW124287   3.747   5.078   0.859  0.2136  0.3870 -2.5789
 7857SOL    HW224288   3.686   4.941   0.883  2.7185 -0.7057 -2.2541
 7858SOL     OW24289   1.675   3.976   1.084 -0.4558 -0.1576 -0.0044
 7858SOL    HW124290   1.675   3.880   1.080  1.2831 -0.1926  0.6781
 7858SOL    HW224291   1.584   3.998   1.104 -0.4006 -1.7641  2.1880
 7859SOL     OW24292   4.380   4.147   4.818  0.2864 -0.0150  0.2648
 7859SOL    HW124293   4.374   4.200   4.739 -1.0404  0.4694  0.6801
 7859SOL    HW224294   4.431   4.070   4.792  0.9145  0.7396 -0.7287
 7860SOL     OW24295   3.644   2.876   6.727  0.2126  0.0420  0.2008
 7860SOL    HW124296   3.557   2.842   6.745  0.4605 -0.3354  0.7261
 7860SOL    HW224297   3.692   2.801   6.690  1.3128 -0.7545  3.0877
 7861SOL     OW24298   0.894   5.675   3.603  0.5391 -0.0113 -0.4487
 7861SOL    HW124299   0.933   5.614   3.541 -1.2919 -0.0140 -1.6246
 7861SOL    HW224300   0.966   5.698   3.663  1.9650 -1.0723 -1.7270
 7862SOL     OW24301   2.484   0.203   3.595  0.3196 -0.0577 -0.4982
 7862SOL    HW124302   2.437   0.122   3.612 -0.6223  0.8024  1.1202
 7862SOL    HW224303   2.453   0.231   3.509 -1.4882  0.0419  0.1602
 7863SOL     OW24304   3.536   5.290   4.305 -0.1090 -0.1497  0.2361
 7863SOL    HW124305   3.592   5.306   4.229 -1.4880  3.1075 -0.1662
 7863SOL    HW224306   3.479   5.218   4.278  0.1430  0.2508 -1.4105
 7864SOL     OW24307   5.065   1.162   4.664  0.1061 -0.1136  0.3356
 7864SOL    HW124308   5.007   1.238   4.668  0.2105 -0.0406  0.4627
 7864SOL    HW224309   5.030   1.102   4.730  0.5476  0.1900  0.8405
 7865SOL     OW24310   2.036   4.761   3.941 -0.1797 -0.0936  0.3637
 7865SOL    HW124311   2.015   4.716   3.859  0.0589  1.2060 -0.4239
 7865SOL    HW224312   1.972   4.832   3.946  0.2214  0.2219  0.9949
 7866SOL     OW24313   6.112   6.585   5.754  0.4550  0.0055  0.0201
 7866SOL    HW124314   6.183   6.570   5.816  1.4960  2.2419 -0.5519
 7866SOL    HW224315   6.052   6.643   5.800 -1.0201 -1.8532  0.4892
 7867SOL     OW24316   0.089   1.740   4.497  0.8250  0.2500 -0.8176
 7867SOL    HW124317   0.029   1.814   4.493 -0.0155 -0.3899 -0.2010
 7867SOL    HW224318   0.174   1.776   4.472  0.3912  1.3887 -0.6468
 7868SOL     OW24319   0.745   6.398   5.964 -0.3595 -0.0078  0.2697
 7868SOL    HW124320   0.774   6.360   5.881 -0.4228  1.6092 -0.5029
 7868SOL    HW224321   0.682   6.334   5.997 -0.4087 -0.6333 -0.9690
 7869SOL     OW24322   2.294   3.536   4.240 -0.4004  0.0340  0.4628
 7869SOL    HW124323   2.231   3.544   4.168  1.4782 -1.8146 -1.4542
 7869SOL    HW224324   2.313   3.626   4.265  1.3899  0.8860 -3.6112
 7870SOL     OW24325   3.046   6.556   4.532  0.5545 -0.6620  0.3897
 7870SOL    HW124326   2.967   6.606   4.555  1.1101  0.3678  0.0843
 7870SOL    HW224327   3.029   6.468   4.566 -0.7990 -0.4954  0.1765
 7871SOL     OW24328   3.491   1.903   3.593  0.2545  0.0672  0.2195
 7871SOL    HW124329   3.500   1.811   3.570  2.9922  0.6929 -1.4235
 7871SOL    HW224330   3.471   1.947   3.510  0.7686  1.1516  0.6509
 7872SOL     OW24331   5.305   2.371   1.454 -0.0313 -0.3080 -0.0579
 7872SOL    HW124332   5.309   2.279   1.479  0.7361 -0.2728 -0.0387
 7872SOL    HW224333   5.225   2.403   1.495 -1.1393 -1.3501 -1.3812
 7873SOL     OW24334   5.773   0.305   5.192 -0.1138  0.3415 -0.2903
 7873SOL    HW124335   5.723   0.281   5.270  1.6489 -1.5639  0.3051
 7873SOL    HW224336   5.767   0.228   5.135 -0.9614  1.5234 -1.8192
 7874SOL     OW24337   6.404   2.595   3.844  0.2028  0.6493  0.2365
 7874SOL    HW124338   6.414   2.579   3.751  0.5897  0.3282  0.3302
 7874SOL    HW224339   6.376   2.511   3.880 -0.1868  0.8371  0.3722
 7875SOL     OW24340   1.346   0.086   0.054  0.7423  0.6688 -0.3848
 7875SOL    HW124341   1.299   0.014   0.011 -0.1598  0.6495  0.6059
 7875SOL    HW224342   1.393   0.130  -0.017  1.8288 -1.2992 -0.9129
 7876SOL     OW24343   6.315   6.357   1.826  0.1250 -0.6792 -0.1223
 7876SOL    HW124344   6.298   6.376   1.733  2.5421  1.6290 -0.1884
 7876SOL    HW224345   6.385   6.292   1.824 -0.6124 -1.4814  0.0940
 7877SOL     OW24346   4.041   4.273   5.828 -0.7076  0.8374 -0.3826
 7877SOL    HW124347   4.129   4.307   5.816 -0.3169 -0.7154 -2.0248
 7877SOL    HW224348   3.987   4.351   5.844  0.6671  1.9312 -1.0373
 7878SOL     OW24349   2.079   4.683   2.350 -0.2183 -0.0888 -0.0385
 7878SOL    HW124350   2.098   4.693   2.257  0.5018  1.3359  0.2651
 7878SOL    HW224351   2.164   4.670   2.392 -0.5847 -1.3382  0.3629
 7879SOL     OW24352   5.491   3.984   4.233  0.0230 -0.2529  0.4766
 7879SOL    HW124353   5.555   4.050   4.260 -1.0144  1.2670 -0.6385
 7879SOL    HW224354   5.543   3.918   4.188  1.2335 -0.7998  2.5952
 7880SOL     OW24355   2.948   3.057   3.856  0.5270  0.0175 -0.1327
 7880SOL    HW124356   2.930   3.041   3.948  0.6297  1.7659  0.2180
 7880SOL    HW224357   3.033   3.015   3.840  1.1121  0.7938  0.8964
 7881SOL     OW24358   0.259   0.075   2.232 -0.6570  0.0761 -0.4318
 7881SOL    HW124359   0.234   0.157   2.191 -1.1891  0.0154 -0.2326
 7881SOL    HW224360   0.305   0.100   2.312 -0.0064  0.1879 -0.8337
 7882SOL     OW24361   6.563   5.810   4.388 -0.3853 -0.1070  0.2641
 7882SOL    HW124362   6.613   5.809   4.306 -0.3164  0.7343  0.2976
 7882SOL    HW224363   6.473   5.794   4.360 -0.0324 -2.2673  0.2666
 7883SOL     OW24364   0.376   3.140   6.130 -0.7679 -0.4888  0.3125
 7883SOL    HW124365   0.379   3.202   6.203  1.0920  1.0854 -1.0676
 7883SOL    HW224366   0.458   3.092   6.136 -1.4376 -1.6636  0.3350
 7884SOL     OW24367   2.106   6.192   2.399 -0.4913 -0.1535  0.3974
 7884SOL    HW124368   2.198   6.218   2.394 -0.7333  0.5391 -0.7288
 7884SOL    HW224369   2.063   6.248   2.334 -2.0120  0.9007  2.2688
 7885SOL     OW24370   1.626   0.399   6.544 -0.1654  0.1140  0.7615
 7885SOL    HW124371   1.706   0.353   6.519  0.0542  0.0226  1.6387
 7885SOL    HW224372   1.599   0.357   6.626 -0.7467  0.5931  0.8137
 7886SOL     OW24373   1.354   0.892   0.199 -0.0133  0.4085  0.1179
 7886SOL    HW124374   1.334   0.959   0.265 -1.7404 -0.3832  0.4106
 7886SOL    HW224375   1.447   0.906   0.179  0.7348  0.2222  3.2065
 7887SOL     OW24376   6.364   5.666   4.242  0.1932 -0.4949 -0.1736
 7887SOL    HW124377   6.356   5.691   4.150 -1.8894  0.9560  0.3505
 7887SOL    HW224378   6.315   5.584   4.248  0.8352 -0.9019 -0.4716
 7888SOL     OW24379   5.353   4.011   1.642 -0.1476 -0.0017  0.5083
 7888SOL    HW124380   5.277   3.953   1.635  0.3160 -0.5237 -0.3849
 7888SOL    HW224381   5.428   3.953   1.627  0.3316  0.8015 -0.2723
 7889SOL     OW24382   1.576   5.407   5.492 -0.2186  0.0878 -0.4222
 7889SOL    HW124383   1.543   5.317   5.484  0.8944 -0.5816  2.1975
 7889SOL    HW224384   1.580   5.423   5.586  1.3298  2.2493 -0.8353
 7890SOL     OW24385   2.918   3.661   3.947 -0.0947 -0.3376 -0.4396
 7890SOL    HW124386   2.935   3.668   4.041 -1.1327  2.2295 -0.3881
 7890SOL    HW224387   2.983   3.718   3.907  0.1569 -1.1994 -1.2646
 7891SOL     OW24388   3.601   4.438   0.764  0.3667  0.0655  0.2782
 7891SOL    HW124389   3.694   4.430   0.782  0.8445 -0.8233 -2.3553
 7891SOL    HW224390   3.565   4.351   0.783  0.6577 -0.5095 -1.6491
 7892SOL     OW24391   1.284   5.790   2.225  0.3462  0.4362  0.1522
 7892SOL    HW124392   1.230   5.722   2.265  2.3275 -1.1598  0.2172
 7892SOL    HW224393   1.252   5.796   2.135 -0.6972  0.3383  0.5099
 7893SOL     OW24394   6.479   0.410   5.972  0.0284  0.0500 -0.0524
 7893SOL    HW124395   6.442   0.493   6.002 -1.7117  0.5319 -3.3384
 7893SOL    HW224396   6.414   0.345   5.998  0.8235 -0.1680  1.4502
 7894SOL     OW24397   3.146   4.610   2.655 -0.3086  0.1879 -0.7035
 7894SOL    HW124398   3.147   4.522   2.619  0.4183 -0.2647  0.3979
 7894SOL    HW224399   3.106   4.664   2.586  0.8095 -0.6981 -2.0685
 7895SOL     OW24400   1.066   3.127   5.588 -0.1815 -0.0474 -0.0678
 7895SOL    HW124401   1.153   3.100   5.561 -0.1281  0.6523 -0.6001
 7895SOL    HW224402   1.017   3.045   5.596  1.0737 -0.5841  2.2233
 7896SOL     OW24403   3.465   4.267   1.172 -0.0648  0.5078  0.4192
 7896SOL    HW124404   3.557   4.253   1.192 -0.5319 -2.8525  0.4358
 7896SOL    HW224405   3.424   4.280   1.258  0.0878 -0.0554  0.5814
 7897SOL     OW24406   6.003   1.648   4.937 -0.1252  0.2430 -0.0052
 7897SOL    HW124407   5.953   1.728   4.919  1.5904  1.1927 -0.7086
 7897SOL    HW224408   6.050   1.668   5.019  0.8549  0.2451 -0.5590
 7898SOL     OW24409   2.316   4.047   5.844  0.1081 -0.2245  0.2857
 7898SOL    HW124410   2.332   4.052   5.750  1.2787 -0.3495  0.4695
 7898SOL    HW224411   2.292   3.956   5.860  0.0801 -0.2435  0.1354
 7899SOL     OW24412   4.295   0.081   2.545  0.4184 -0.6956 -0.1571
 7899SOL    HW124413   4.231   0.130   2.492  1.8603 -1.3050 -2.5564
 7899SOL    HW224414   4.335   0.147   2.601 -1.9876 -0.2367  1.1084
 7900SOL     OW24415   1.114   1.982   2.341 -0.3798 -0.2515 -0.4672
 7900SOL    HW124416   1.089   1.960   2.251  0.5320  0.3015 -0.8735
 7900SOL    HW224417   1.032   1.990   2.388 -0.7748 -3.9029 -0.4278
 7901SOL     OW24418   3.007   2.454   2.945  0.0514  0.1226 -0.2754
 7901SOL    HW124419   3.077   2.509   2.909 -1.9211  2.8769 -0.0131
 7901SOL    HW224420   2.930   2.476   2.893 -1.6261  0.2886  2.1998
 7902SOL     OW24421   2.629   4.437   2.907 -0.5583 -0.3144 -0.1165
 7902SOL    HW124422   2.565   4.497   2.868 -0.7692  0.0725  0.8100
 7902SOL    HW224423   2.580   4.357   2.925 -0.4023 -0.5837 -0.8602
 7903SOL     OW24424   6.758   6.243   0.613 -0.2191 -0.2653  0.0775
 7903SOL    HW124425   6.711   6.176   0.662  0.0415 -0.4733  0.0440
 7903SOL    HW224426   6.772   6.314   0.676 -0.8328 -0.0829  0.0060
 7904SOL     OW24427   1.240   5.227   1.111 -0.1781 -0.5034  0.4202
 7904SOL    HW124428   1.197   5.304   1.076  0.9818  0.8616  1.9125
 7904SOL    HW224429   1.170   5.163   1.122 -0.9196 -0.1987 -2.1824
 7905SOL     OW24430   1.431   2.051   1.356  0.0746 -0.6518 -1.1071
 7905SOL    HW124431   1.494   1.989   1.393 -2.1014 -2.5874 -0.5522
 7905SOL    HW224432   1.413   2.016   1.269  0.1010  0.1627 -1.4420
 7906SOL     OW24433   2.835   3.445   3.517  0.5766  0.3398 -0.0635
 7906SOL    HW124434   2.826   3.469   3.610 -1.1876  4.2393 -1.1568
 7906SOL    HW224435   2.929   3.432   3.505  0.8580 -0.0226  2.2102
 7907SOL     OW24436   4.564   1.609   1.325  0.0572  0.2471  0.2564
 7907SOL    HW124437   4.517   1.686   1.292 -0.6363 -0.2136  0.1371
 7907SOL    HW224438   4.636   1.597   1.264 -1.9234 -1.3265 -1.8807
 7908SOL     OW24439   5.466   4.801   4.610  0.6144 -0.4899  0.5038
 7908SOL    HW124440   5.484   4.711   4.638 -0.1448 -0.6277  0.5648
 7908SOL    HW224441   5.402   4.833   4.674  0.5290 -0.0663  0.2089
 7909SOL     OW24442   3.966   4.117   4.059  0.4965  0.4710 -0.4899
 7909SOL    HW124443   3.882   4.157   4.038  0.3983  0.1088 -0.7748
 7909SOL    HW224444   4.002   4.090   3.975 -0.8891 -2.9868 -0.0216
 7910SOL     OW24445   3.741   4.316   4.053  0.7533 -0.3278 -0.3636
 7910SOL    HW124446   3.760   4.307   4.147 -3.9506 -0.9049  0.6270
 7910SOL    HW224447   3.714   4.407   4.042  1.8264 -0.1022 -1.3475
 7911SOL     OW24448   6.133   3.949   2.119  0.6136  0.1278 -0.3957
 7911SOL    HW124449   6.049   3.946   2.166  1.1543 -0.1349  0.5841
 7911SOL    HW224450   6.140   4.039   2.088 -0.4340 -0.0706 -1.2530
 7912SOL     OW24451   3.511   1.847   2.387  0.3022  0.1990 -0.0518
 7912SOL    HW124452   3.567   1.910   2.340 -2.0764  1.8862 -0.7390
 7912SOL    HW224453   3.539   1.854   2.478  0.1628  2.2390 -0.1327
 7913SOL     OW24454   0.624   4.045   3.436  0.1784 -0.2440 -0.3637
 7913SOL    HW124455   0.531   4.041   3.415 -0.0775 -0.4587  0.7864
 7913SOL    HW224456   0.668   4.020   3.355 -0.7671 -0.2246 -0.8896
 7914SOL     OW24457   5.413   5.096   1.951 -0.5657  0.7250  0.6765
 7914SOL    HW124458   5.480   5.065   1.891 -0.1958  1.6938  0.5820
 7914SOL    HW224459   5.461   5.115   2.032 -0.8871  0.4467  0.9308
 7915SOL     OW24460   6.140   3.331   1.012 -0.1022 -0.6367  0.1827
 7915SOL    HW124461   6.102   3.393   0.950 -0.0297 -0.7095  0.0658
 7915SOL    HW224462   6.156   3.252   0.961  2.2706  0.1198 -0.3187
 7916SOL     OW24463   0.728   3.497   6.304 -0.0127  0.0735  0.5277
 7916SOL    HW124464   0.805   3.452   6.270 -0.3232  1.6959 -2.5159
 7916SOL    HW224465   0.680   3.430   6.352  1.9017 -1.6130  0.1624
 7917SOL     OW24466   2.264   1.016   2.354 -0.2910  0.3041 -0.5143
 7917SOL    HW124467   2.257   0.955   2.428 -1.4021 -0.5802 -1.3183
 7917SOL    HW224468   2.284   0.960   2.279  0.6973  1.1793 -0.9166
 7918SOL     OW24469   1.095   0.611   0.669 -0.6445  0.2676  0.0376
 7918SOL    HW124470   1.121   0.659   0.591  1.0807  1.1969  1.1641
 7918SOL    HW224471   1.124   0.521   0.653 -1.3268  0.1905 -0.8507
 7919SOL     OW24472   4.816   1.790   2.191  0.5114  0.1479  0.1491
 7919SOL    HW124473   4.830   1.863   2.251 -1.5543  1.6050 -1.0537
 7919SOL    HW224474   4.799   1.714   2.247 -1.5446  1.5076  1.4399
 7920SOL     OW24475   2.692   5.026   6.131 -0.2866  0.1237 -0.3910
 7920SOL    HW124476   2.716   5.061   6.217  0.6717 -0.2002 -0.5155
 7920SOL    HW224477   2.700   5.100   6.071 -0.1199  0.1472 -0.3400
 7921SOL     OW24478   2.620   0.892   0.687 -0.6285 -0.6429 -0.2318
 7921SOL    HW124479   2.626   0.951   0.762 -2.0742 -0.4551 -0.2455
 7921SOL    HW224480   2.636   0.805   0.722  2.8466 -0.1389 -0.4301
 7922SOL     OW24481   6.332   5.241   0.304  0.2867 -0.4357  0.0884
 7922SOL    HW124482   6.289   5.204   0.226 -0.6843 -0.0697  0.4402
 7922SOL    HW224483   6.388   5.170   0.336  1.6488 -0.1900 -1.6440
 7923SOL     OW24484   0.060   4.359   3.222 -0.3351  0.3383  0.2481
 7923SOL    HW124485   0.087   4.297   3.289  1.6986 -0.8591 -1.6096
 7923SOL    HW224486   0.004   4.309   3.163 -0.2047  0.7548 -0.2381
 7924SOL     OW24487   2.819   1.862   5.113  0.0878  0.1765  0.6226
 7924SOL    HW124488   2.786   1.891   5.028  1.5620  0.0500 -0.0241
 7924SOL    HW224489   2.915   1.863   5.102  0.3850  2.1869  2.9344
 7925SOL     OW24490   2.509   1.771   0.714  0.1978 -0.2828  0.1600
 7925SOL    HW124491   2.480   1.809   0.631  0.5489  0.2835  0.2970
 7925SOL    HW224492   2.456   1.815   0.781  1.0865  0.4750  0.3770
 7926SOL     OW24493   0.386   4.366   5.811  0.3544 -0.1329 -0.1259
 7926SOL    HW124494   0.350   4.441   5.763 -0.2136 -0.2962  0.0362
 7926SOL    HW224495   0.453   4.405   5.868  0.5013  0.1643 -0.4944
 7927SOL     OW24496   3.366   0.227   4.784  0.1104  0.1742  0.6660
 7927SOL    HW124497   3.428   0.209   4.856  0.5653 -0.6620  0.0693
 7927SOL    HW224498   3.292   0.269   4.827  0.5775  0.1009  1.5677
 7928SOL     OW24499   0.868   2.511   3.401 -0.2942 -0.0600 -0.2405
 7928SOL    HW124500   0.917   2.454   3.342 -1.0665 -0.2822 -0.6638
 7928SOL    HW224501   0.786   2.528   3.356 -0.1086  1.3316 -0.0837
 7929SOL     OW24502   3.683   3.880   5.469  0.2346  0.1184  0.4763
 7929SOL    HW124503   3.751   3.933   5.429  0.6395 -0.1639  0.7864
 7929SOL    HW224504   3.680   3.909   5.560  0.1587 -0.0875  0.5406
 7930SOL     OW24505   1.544   6.578   2.340  0.3767 -0.6515  0.2716
 7930SOL    HW124506   1.593   6.498   2.325  0.2489 -0.5152 -0.9330
 7930SOL    HW224507   1.610   6.643   2.364  0.5802 -0.9224  0.4399
 7931SOL     OW24508   2.893   4.427   2.854  0.1155  0.2881  0.6315
 7931SOL    HW124509   2.799   4.439   2.866 -0.2999 -0.5091 -1.6202
 7931SOL    HW224510   2.921   4.381   2.933 -1.2128  1.3463  1.7386
 7932SOL     OW24511   0.198   6.273   3.132  0.1811  0.0814 -0.1552
 7932SOL    HW124512   0.117   6.240   3.169 -0.1709  0.1703 -0.8344
 7932SOL    HW224513   0.259   6.275   3.205 -0.3054 -0.3900  0.2663
 7933SOL     OW24514   2.192   5.678   0.051  0.3986  0.4023 -0.2627
 7933SOL    HW124515   2.155   5.683  -0.037  1.3963 -0.3069 -0.7421
 7933SOL    HW224516   2.286   5.663   0.036  0.4208 -0.7039  0.9223
 7934SOL     OW24517   0.703   4.458   3.267  0.0843  0.1709  0.0488
 7934SOL    HW124518   0.713   4.542   3.312  0.3288 -0.2433  0.7746
 7934SOL    HW224519   0.740   4.394   3.327  0.8572 -0.3401 -0.9471
 7935SOL     OW24520   5.994   4.495   3.255  0.1273 -0.4208 -0.0884
 7935SOL    HW124521   6.028   4.485   3.344  1.2508 -0.3889 -0.5096
 7935SOL    HW224522   6.072   4.499   3.199 -0.5778 -0.8525 -1.1221
 7936SOL     OW24523   2.909   0.848   2.000 -1.1332  0.2687  0.1134
 7936SOL    HW124524   2.937   0.764   2.036 -0.5023  0.2808 -0.3418
 7936SOL    HW224525   2.821   0.861   2.037 -0.3663  0.4614  1.9275
 7937SOL     OW24526   0.981   1.337   2.693 -0.5805 -0.2165  0.4945
 7937SOL    HW124527   1.010   1.314   2.605 -0.1075 -0.6913  0.7668
 7937SOL    HW224528   0.894   1.375   2.681 -0.3662  0.0577 -0.2105
 7938SOL     OW24529   6.506   2.098   2.115  0.4396 -0.7210  0.2742
 7938SOL    HW124530   6.553   2.088   2.033  0.3230 -2.7105  0.4327
 7938SOL    HW224531   6.574   2.110   2.181  0.5774 -0.1300  0.0202
 7939SOL     OW24532   1.019   5.123   1.818 -0.0091 -0.0042 -0.0988
 7939SOL    HW124533   0.938   5.125   1.767 -0.6768  0.9935  0.9976
 7939SOL    HW224534   1.080   5.177   1.767 -0.0607 -0.6705 -0.8697
 7940SOL     OW24535   1.053   5.897   6.736 -0.2317  0.3068  0.3368
 7940SOL    HW124536   1.041   5.991   6.723  1.3412  0.3708 -0.8269
 7940SOL    HW224537   1.148   5.886   6.741 -0.3961 -1.2696  0.1473
 7941SOL     OW24538   4.170   2.012   6.307  0.4410  0.5902  0.5656
 7941SOL    HW124539   4.187   1.937   6.249 -0.0497 -0.7135  2.0738
 7941SOL    HW224540   4.115   2.071   6.255  2.6705  0.9816 -1.4461
 7942SOL     OW24541   6.295   2.087   0.628 -0.2226 -0.1103 -0.0472
 7942SOL    HW124542   6.268   2.178   0.610 -0.7658 -0.5357 -1.4625
 7942SOL    HW224543   6.329   2.090   0.717  0.0743  1.5617 -0.1826
 7943SOL     OW24544   1.093   3.505   6.733 -0.1236 -0.5351  0.5572
 7943SOL    HW124545   1.008   3.487   6.772  0.2727 -1.6344  0.9463
 7943SOL    HW224546   1.076   3.508   6.638 -0.2629 -2.8428  0.4741
 7944SOL     OW24547   2.131   3.701   4.494 -0.5252  0.0526  0.3398
 7944SOL    HW124548   2.163   3.791   4.505  1.4925 -0.6563  0.4422
 7944SOL    HW224549   2.069   3.707   4.420  1.2673  1.1377 -1.1194
 7945SOL     OW24550   5.400   6.292   4.322  0.5677 -0.2130  0.7996
 7945SOL    HW124551   5.466   6.222   4.322  0.2266 -0.5362 -0.3532
 7945SOL    HW224552   5.405   6.329   4.234 -0.4987  0.0455  0.8520
 7946SOL     OW24553   4.779   0.728   4.126 -0.9897  0.0342  0.2618
 7946SOL    HW124554   4.740   0.683   4.052 -0.0412  0.9409 -0.8054
 7946SOL    HW224555   4.793   0.818   4.096  2.1615 -0.3274  0.4919
 7947SOL     OW24556   3.494   0.412   0.014 -0.1260 -0.5712 -0.4454
 7947SOL    HW124557   3.567   0.426  -0.046 -1.1391 -1.6204 -1.9630
 7947SOL    HW224558   3.437   0.488   0.002 -0.3860 -0.8344 -0.9481
 7948SOL     OW24559   2.677   4.482   5.162  0.2802  0.3899  0.0491
 7948SOL    HW124560   2.582   4.473   5.169  0.1483  2.8621  2.1674
 7948SOL    HW224561   2.698   4.556   5.219  3.3505  0.5833 -1.2464
 7949SOL     OW24562   0.818   0.673   3.282 -0.3336 -0.0228 -0.1746
 7949SOL    HW124563   0.780   0.655   3.368 -0.7342  0.7716 -0.1825
 7949SOL    HW224564   0.901   0.626   3.282 -0.0326  0.4938  0.8925
 7950SOL     OW24565   3.020   5.345   3.244 -0.7028 -0.1730  0.5569
 7950SOL    HW124566   3.059   5.274   3.192 -2.0452 -0.2774 -0.3442
 7950SOL    HW224567   2.973   5.300   3.314  0.9130 -0.0409  1.7358
 7951SOL     OW24568   3.644   5.544   3.525  0.3612  0.1497 -0.0922
 7951SOL    HW124569   3.636   5.527   3.431 -0.4492  0.3571 -0.0588
 7951SOL    HW224570   3.721   5.601   3.532  0.8820 -0.4805 -0.5548
 7952SOL     OW24571   3.158   4.382   1.252  0.4861 -0.0506 -0.0028
 7952SOL    HW124572   3.222   4.349   1.315  1.8385  2.1719 -0.1425
 7952SOL    HW224573   3.101   4.439   1.303 -1.2925 -1.8862  0.0834
 7953SOL     OW24574   2.722   5.209   3.268  0.0477  0.1619  0.0193
 7953SOL    HW124575   2.717   5.260   3.187  3.0287  2.6006  1.2843
 7953SOL    HW224576   2.646   5.235   3.319 -0.0043  1.1645 -0.5697
 7954SOL     OW24577   0.695   5.298   2.320  0.8125 -0.5789  0.2237
 7954SOL    HW124578   0.649   5.314   2.403  0.6130 -0.2143  0.0463
 7954SOL    HW224579   0.646   5.227   2.279  0.0785  0.1563 -0.2044
 7955SOL     OW24580   1.261   3.688   2.045 -0.1654  0.1861 -0.4593
 7955SOL    HW124581   1.221   3.734   1.972 -0.6445  0.0764 -0.2681
 7955SOL    HW224582   1.322   3.626   2.005  0.1527  0.6795 -0.7320
 7956SOL     OW24583   3.566   1.087   6.441  0.0889  0.1904  0.2106
 7956SOL    HW124584   3.514   1.072   6.362  0.2216  2.1453 -0.2907
 7956SOL    HW224585   3.523   1.036   6.509 -0.9605 -0.2665 -0.7791
 7957SOL     OW24586   0.551   5.736   0.885  0.6295 -0.2351  0.1892
 7957SOL    HW124587   0.599   5.655   0.901  0.3224 -0.5982 -0.7115
 7957SOL    HW224588   0.493   5.745   0.961  0.9850 -0.6214  0.5032
 7958SOL     OW24589   3.098   2.741   6.325  0.2410  0.1273  0.2833
 7958SOL    HW124590   3.042   2.749   6.402  0.0840 -0.2479  0.2086
 7958SOL    HW224591   3.161   2.812   6.334 -2.0230  2.4057 -1.1297
 7959SOL     OW24592   1.138   0.537   5.895 -0.4706  0.0154  0.2930
 7959SOL    HW124593   1.152   0.549   5.988  0.3414  3.0578 -0.1759
 7959SOL    HW224594   1.063   0.593   5.874 -1.3113 -1.4372 -0.7078
 7960SOL     OW24595   3.861   1.159   3.636  0.1411 -0.3451  0.1876
 7960SOL    HW124596   3.920   1.170   3.711 -1.3556  1.4969  1.1192
 7960SOL    HW224597   3.859   1.064   3.621  0.3334 -0.7477  2.5769
 7961SOL     OW24598   6.740   6.380   3.428 -0.1534  0.8839 -0.0452
 7961SOL    HW124599   6.755   6.446   3.361  1.0158 -0.8256 -1.5097
 7961SOL    HW224600   6.783   6.415   3.507  1.7115  1.2186 -1.1855
 7962SOL     OW24601   4.094   1.768   3.106  0.4111 -0.3521 -0.0517
 7962SOL    HW124602   4.080   1.860   3.128  0.7998 -0.6721  1.6282
 7962SOL    HW224603   4.189   1.758   3.106  0.3839 -0.6372 -0.7555
 7963SOL     OW24604   0.756   2.106   6.576  0.2603  0.1200  0.6059
 7963SOL    HW124605   0.728   2.015   6.565  0.6077  0.0469  0.3133
 7963SOL    HW224606   0.687   2.158   6.534  1.0336 -0.1021 -0.9829
 7964SOL     OW24607   3.837   4.177   1.579 -0.0349 -0.3445  0.4363
 7964SOL    HW124608   3.835   4.273   1.587  1.9620 -0.2805  0.4255
 7964SOL    HW224609   3.829   4.146   1.670  3.9006 -0.0208  0.9884
 7965SOL     OW24610   6.604   5.252   6.217  0.1867  1.2592 -0.2053
 7965SOL    HW124611   6.594   5.267   6.311  1.5657 -1.1958  0.3820
 7965SOL    HW224612   6.537   5.187   6.197  4.1083 -3.2447  0.5102
 7966SOL     OW24613   0.679   3.406   4.945  0.1016  0.2526  0.1002
 7966SOL    HW124614   0.599   3.451   4.917  0.8315  0.8649 -1.0717
 7966SOL    HW224615   0.719   3.376   4.863  0.1847 -1.5880  0.8026
 7967SOL     OW24616   5.173   2.124   5.285  0.4267  0.1014 -0.2506
 7967SOL    HW124617   5.134   2.191   5.229  0.6225 -1.0826 -1.8259
 7967SOL    HW224618   5.229   2.173   5.346 -1.8644  1.6299  0.6721
 7968SOL     OW24619   0.411   4.027   2.047  0.1111  0.0593 -0.3432
 7968SOL    HW124620   0.459   4.108   2.064  1.1987 -0.5348 -0.5699
 7968SOL    HW224621   0.470   3.975   1.993  0.5400 -2.0326  2.0988
 7969SOL     OW24622   6.372   6.479   3.595 -0.7210 -0.2811  0.3354
 7969SOL    HW124623   6.340   6.392   3.573  2.1278 -1.2260 -0.2040
 7969SOL    HW224624   6.333   6.498   3.681 -0.3717 -2.5996  1.0245
 7970SOL     OW24625   6.133   3.501   3.770  0.2505 -0.6609  0.1922
 7970SOL    HW124626   6.148   3.595   3.759 -1.0778 -0.4875 -0.2437
 7970SOL    HW224627   6.191   3.460   3.706  2.4164 -0.2526  1.8501
 7971SOL     OW24628   1.067   5.355   6.187  0.0505 -0.3442 -0.1669
 7971SOL    HW124629   1.131   5.294   6.150  1.8826  0.5043  1.5552
 7971SOL    HW224630   1.057   5.327   6.278  0.0967  1.2522  0.3415
 7972SOL     OW24631   5.568   3.652   0.213 -0.5239 -0.4056 -0.2202
 7972SOL    HW124632   5.473   3.642   0.205 -0.8104 -0.0267  2.2450
 7972SOL    HW224633   5.579   3.718   0.282  1.5322  0.5327 -1.4033
 7973SOL     OW24634   6.162   1.283   3.606  0.4464 -0.5181 -0.3535
 7973SOL    HW124635   6.238   1.317   3.655  0.3891 -0.5090 -0.2710
 7973SOL    HW224636   6.086   1.319   3.652  0.3853 -0.7253 -0.2898
 7974SOL     OW24637   1.714   6.659   5.618  0.4222 -0.6617  0.1074
 7974SOL    HW124638   1.642   6.711   5.582  0.4530  0.4935  1.6353
 7974SOL    HW224639   1.739   6.599   5.547 -0.9292  0.0656 -1.0060
 7975SOL     OW24640   0.322   6.542   3.979  0.1176 -0.2974 -0.1514
 7975SOL    HW124641   0.339   6.571   3.889 -0.4746 -1.3114 -0.6091
 7975SOL    HW224642   0.306   6.448   3.971  1.2622 -0.6220  1.1938
 7976SOL     OW24643   2.878   0.599   4.551  0.1866 -0.5396 -0.0411
 7976SOL    HW124644   2.802   0.607   4.494 -1.2378 -0.6204  1.7810
 7976SOL    HW224645   2.897   0.689   4.578  1.3686 -0.4114 -1.2733
 7977SOL     OW24646   0.366   6.405   2.936 -0.2632 -0.5366  0.0858
 7977SOL    HW124647   0.324   6.367   3.014  0.4476 -0.7984  0.3477
 7977SOL    HW224648   0.425   6.471   2.971 -0.4868 -0.1400 -0.2863
 7978SOL     OW24649   5.745   4.240   3.594  0.0344 -0.0034 -0.2728
 7978SOL    HW124650   5.811   4.214   3.529 -0.8407  1.1940 -1.6562
 7978SOL    HW224651   5.700   4.314   3.554 -0.4223  0.8462  1.7763
 7979SOL     OW24652   0.777   2.794   2.967 -0.1006  0.4724  0.9805
 7979SOL    HW124653   0.743   2.704   2.972  2.0443 -0.6241 -2.8046
 7979SOL    HW224654   0.709   2.847   3.009 -3.5702 -2.3698 -0.8119
 7980SOL     OW24655   4.870   6.146   2.223  0.3864 -0.3082 -0.5547
 7980SOL    HW124656   4.811   6.071   2.233 -0.2549  0.3139  0.4593
 7980SOL    HW224657   4.893   6.171   2.312  0.4943  0.7740 -0.8741
 7981SOL     OW24658   4.725   0.008   2.319 -0.1058 -0.0570 -0.2925
 7981SOL    HW124659   4.683   0.092   2.301 -1.3130 -0.6677 -0.3481
 7981SOL    HW224660   4.670  -0.057   2.275  1.0616 -0.8369 -0.6153
 7982SOL     OW24661   0.429   4.563   6.313  0.1257  0.5630 -0.6143
 7982SOL    HW124662   0.466   4.476   6.327  0.7562  0.5932 -2.0148
 7982SOL    HW224663   0.335   4.550   6.320  0.0980 -0.6439 -2.8783
 7983SOL     OW24664   4.626   3.219   0.854 -0.0241 -0.6256  0.4487
 7983SOL    HW124665   4.632   3.224   0.950  0.5797 -1.3786  0.4523
 7983SOL    HW224666   4.568   3.145   0.837 -2.2993  1.1114  0.2526
 7984SOL     OW24667   6.564   6.322   5.860 -0.5884 -0.3490 -0.3421
 7984SOL    HW124668   6.631   6.342   5.796  0.1239 -2.1859 -0.1912
 7984SOL    HW224669   6.531   6.235   5.835 -1.3283 -0.4379  0.8924
 7985SOL     OW24670   0.368   2.752   2.966 -0.7641  1.0269 -0.5695
 7985SOL    HW124671   0.275   2.770   2.950 -0.7482  0.3814 -1.4402
 7985SOL    HW224672   0.409   2.763   2.880 -0.3893 -0.9095 -0.6488
 7986SOL     OW24673   5.263   0.229   5.448 -0.0008 -0.1728 -0.7396
 7986SOL    HW124674   5.238   0.304   5.501  0.9296 -1.4605  1.6260
 7986SOL    HW224675   5.181   0.198   5.410 -0.9217  0.0218  1.0051
 7987SOL     OW24676   0.176   4.025   5.008 -0.2340 -0.3108 -0.0286
 7987SOL    HW124677   0.146   4.071   5.087 -1.0075  0.2730 -0.6543
 7987SOL    HW224678   0.096   4.006   4.960  0.1454 -1.6380 -0.1561
 7988SOL     OW24679   0.366   2.752   3.422  0.0374  0.7726  0.3836
 7988SOL    HW124680   0.316   2.817   3.471  0.5171  2.0406 -0.7635
 7988SOL    HW224681   0.426   2.714   3.486  0.1984  1.9287  0.9249
 7989SOL     OW24682   3.088   1.050   2.115 -0.3637  0.4235 -0.2403
 7989SOL    HW124683   3.155   1.060   2.047 -0.3511 -2.2764 -0.6744
 7989SOL    HW224684   3.020   0.996   2.074 -0.3857 -1.1967  1.8469
 7990SOL     OW24685   5.395   5.664   5.908 -0.3931 -1.1860  0.0682
 7990SOL    HW124686   5.374   5.575   5.937 -1.4780 -0.8272  0.4138
 7990SOL    HW224687   5.332   5.720   5.953 -1.2109 -0.4591 -1.8983
 7991SOL     OW24688   1.569   2.762   3.742  0.4824  0.2825 -0.1078
 7991SOL    HW124689   1.605   2.834   3.689 -0.7575  2.1856  1.5399
 7991SOL    HW224690   1.639   2.698   3.746  1.7630  1.5547 -1.3356
 7992SOL     OW24691   4.497   1.730   1.050  0.2670 -0.2319 -0.6140
 7992SOL    HW124692   4.578   1.781   1.039 -1.1923  1.9392 -1.7801
 7992SOL    HW224693   4.427   1.792   1.027 -1.7032 -2.1756  0.0177
 7993SOL     OW24694   2.817   1.886   1.574 -0.1143 -0.0131 -0.0729
 7993SOL    HW124695   2.757   1.818   1.604  0.3840  0.3023  1.6806
 7993SOL    HW224696   2.767   1.934   1.508 -1.1538 -0.8783  0.0745
 7994SOL     OW24697   4.798   2.805   0.715  0.0100  0.4027 -0.0515
 7994SOL    HW124698   4.751   2.724   0.697 -0.3587  0.8113 -0.9489
 7994SOL    HW224699   4.738   2.855   0.771  0.6345 -0.3391  1.2913
 7995SOL     OW24700   3.971   2.742   4.643  0.1752 -0.0489 -0.2586
 7995SOL    HW124701   3.955   2.648   4.638 -3.0367  0.2702  1.9815
 7995SOL    HW224702   3.953   2.764   4.735  1.3193  2.6794 -0.6331
 7996SOL     OW24703   3.182   1.912   5.581  0.0995  0.0639  0.0620
 7996SOL    HW124704   3.087   1.922   5.580 -0.0430 -0.8931  1.9751
 7996SOL    HW224705   3.206   1.917   5.673  1.9891  0.8839 -0.4449
 7997SOL     OW24706   6.228   1.753   5.518  0.4396  0.2209 -0.5158
 7997SOL    HW124707   6.227   1.770   5.612 -0.9292  0.3647 -0.5462
 7997SOL    HW224708   6.261   1.664   5.510  2.5060  0.9265 -0.0248
 7998SOL     OW24709   4.422   1.930   6.525 -0.1502 -0.0328 -0.4813
 7998SOL    HW124710   4.374   1.906   6.446  0.2286  0.0411 -0.7373
 7998SOL    HW224711   4.475   2.006   6.498 -0.0894  0.0494 -0.1319
 7999SOL     OW24712   0.086   0.608   3.593 -0.0210  0.2005  0.3442
 7999SOL    HW124713   0.180   0.595   3.595  0.0700  0.8408  0.3893
 7999SOL    HW224714   0.075   0.701   3.570 -0.6497 -0.2060 -1.0453
 8000SOL     OW24715   0.333   5.456   2.075 -0.4050  0.0997  0.0741
 8000SOL    HW124716   0.370   5.470   2.162 -0.2554  1.1387 -0.1490
 8000SOL    HW224717   0.246   5.495   2.079 -0.7126 -0.5744 -0.0003
 8001SOL     OW24718   1.591   2.117   5.479  0.0250  0.1977 -0.1150
 8001SOL    HW124719   1.673   2.159   5.453 -0.2835  0.1551 -1.1912
 8001SOL    HW224720   1.524   2.164   5.429 -0.7560  1.1480  1.7954
 8002SOL     OW24721   6.025   3.820   6.628  0.0273  0.3861  0.4501
 8002SOL    HW124722   6.111   3.854   6.602 -0.3342 -0.0614 -1.3947
 8002SOL    HW224723   6.039   3.727   6.641 -0.0272  0.4295  0.8117
 8003SOL     OW24724   2.397   3.902   2.545  0.2967  0.1689  0.0808
 8003SOL    HW124725   2.364   3.846   2.615 -0.2801 -0.0698 -0.3771
 8003SOL    HW224726   2.461   3.959   2.588  0.6932 -0.6590  0.5997
 8004SOL     OW24727   0.404   6.706   4.695  0.2611 -0.1138  0.2586
 8004SOL    HW124728   0.354   6.747   4.765  0.7532  1.1901 -0.1361
 8004SOL    HW224729   0.414   6.615   4.722 -2.3132 -0.4158  0.3543
 8005SOL     OW24730   3.590   5.791   6.064 -0.1280 -1.3654 -0.3938
 8005SOL    HW124731   3.682   5.815   6.056 -0.4623  0.4605  0.9047
 8005SOL    HW224732   3.591   5.709   6.113  0.8664 -1.9035 -1.3113
 8006SOL     OW24733   4.713   1.052   5.000  0.0266  0.0780  0.3009
 8006SOL    HW124734   4.774   0.981   4.980  0.4927 -0.1615  2.4684
 8006SOL    HW224735   4.769   1.124   5.030 -0.5427  0.8806 -0.5458
 8007SOL     OW24736   1.758   0.117   3.027  0.5819 -0.4885 -0.0334
 8007SOL    HW124737   1.740   0.023   3.030  1.1401 -0.5553  1.3175
 8007SOL    HW224738   1.843   0.124   2.983  0.4567 -0.6104 -0.2929
 8008SOL     OW24739   5.411   4.932   0.259 -0.0348  0.1332  0.6361
 8008SOL    HW124740   5.390   4.919   0.352 -0.4388 -2.6634  0.1834
 8008SOL    HW224741   5.358   4.867   0.213  1.9204 -0.0993 -1.3622
 8009SOL     OW24742   4.178   4.194   1.360 -0.3242 -0.0476 -0.5144
 8009SOL    HW124743   4.168   4.185   1.454 -0.9132  1.9262 -0.3761
 8009SOL    HW224744   4.093   4.225   1.329  0.3690  0.9656 -1.4606
 8010SOL     OW24745   0.500   0.521   5.417 -0.2557  0.5121 -0.4642
 8010SOL    HW124746   0.530   0.463   5.486  2.4998  0.9425 -1.1990
 8010SOL    HW224747   0.426   0.568   5.455 -1.7795 -2.5938  0.5224
 8011SOL     OW24748   4.896   2.004   2.379  0.0167 -0.2679 -0.2478
 8011SOL    HW124749   4.860   2.077   2.329 -1.9520 -0.0828  1.3464
 8011SOL    HW224750   4.825   1.977   2.437  2.3620 -0.0161  2.9148
 8012SOL     OW24751   4.957   3.702   1.026  0.3773 -0.0279 -0.1001
 8012SOL    HW124752   4.974   3.666   1.113 -1.4433 -1.1238 -0.1724
 8012SOL    HW224753   5.025   3.768   1.014  2.5004 -1.9689  0.9045
 8013SOL     OW24754   3.296   2.987   4.488 -0.1250  0.0543 -0.4555
 8013SOL    HW124755   3.369   2.933   4.458  1.3249  1.2150  0.8249
 8013SOL    HW224756   3.242   2.928   4.540  1.3177 -0.2733  0.7287
 8014SOL     OW24757   3.736   2.091   1.572  0.1183  0.2981  0.6926
 8014SOL    HW124758   3.651   2.115   1.537  0.3388 -0.4815 -0.4049
 8014SOL    HW224759   3.731   1.997   1.587  1.4892 -0.1548 -1.4552
 8015SOL     OW24760   3.716   1.255   0.959 -0.6891 -0.1129  0.1772
 8015SOL    HW124761   3.713   1.165   0.991 -0.6152 -0.5294 -0.9861
 8015SOL    HW224762   3.637   1.265   0.906  0.6914 -0.3635 -1.9775
 8016SOL     OW24763   3.113   2.209   1.175 -0.4159  1.0485  0.3427
 8016SOL    HW124764   3.025   2.182   1.147 -0.2127 -0.1426  0.8160
 8016SOL    HW224765   3.171   2.178   1.106  0.1275 -2.2105  2.1441
 8017SOL     OW24766   5.096   2.580   6.272 -1.1405 -0.6656 -0.2223
 8017SOL    HW124767   5.094   2.519   6.346 -0.0519  0.5539  0.8307
 8017SOL    HW224768   5.010   2.622   6.274 -0.4856  0.6542  1.4806
 8018SOL     OW24769   2.049   2.044   1.973 -0.2673 -0.5792  0.3194
 8018SOL    HW124770   1.966   2.054   1.926  0.5396  0.7958 -0.8715
 8018SOL    HW224771   2.025   2.010   2.059 -2.0765  0.0407  0.0702
 8019SOL     OW24772   2.829   0.170   1.933  0.3927 -0.7759 -0.1026
 8019SOL    HW124773   2.904   0.125   1.895  0.1520 -1.8389  0.6728
 8019SOL    HW224774   2.753   0.125   1.897  0.1514 -1.0463  0.7358
 8020SOL     OW24775   1.887   3.063   5.356 -0.4630 -0.2478  0.0962
 8020SOL    HW124776   1.828   3.052   5.282  0.6412 -1.4845 -0.6412
 8020SOL    HW224777   1.893   2.976   5.395  1.4758 -0.3603 -0.3566
 8021SOL     OW24778   2.422   4.210   3.035 -0.0131 -0.3891  0.4248
 8021SOL    HW124779   2.499   4.174   3.079  0.8467  1.2977  0.3674
 8021SOL    HW224780   2.390   4.278   3.095  0.3435  0.9712 -0.8974
 8022SOL     OW24781   4.102   1.389   4.164  1.3474  0.5267  0.6507
 8022SOL    HW124782   4.071   1.344   4.243 -3.0432  1.0371 -0.6416
 8022SOL    HW224783   4.076   1.480   4.177  1.6273  0.8367 -0.8999
 8023SOL     OW24784   1.283   3.043   3.477  0.2049  0.2912 -0.8918
 8023SOL    HW124785   1.332   3.124   3.493 -1.6391  1.2909 -0.1239
 8023SOL    HW224786   1.233   3.061   3.398 -0.3529 -0.0385 -0.6126
 8024SOL     OW24787   3.959   2.341   1.321  0.2152  0.3074 -0.5053
 8024SOL    HW124788   3.891   2.374   1.380  0.3891  0.4508 -0.3869
 8024SOL    HW224789   3.917   2.340   1.235  0.0821  0.4539 -0.4418
 8025SOL     OW24790   4.379   5.009   2.030 -0.2073  0.1130 -0.2055
 8025SOL    HW124791   4.320   4.943   2.066 -1.3329  0.8441 -0.6944
 8025SOL    HW224792   4.325   5.059   1.969  0.5759  1.6398  0.3282
 8026SOL     OW24793   4.783   2.474   0.144 -0.1039  0.0718  0.3313
 8026SOL    HW124794   4.878   2.471   0.143 -0.1326 -1.2949 -0.8716
 8026SOL    HW224795   4.758   2.500   0.055 -0.8466  0.5459  0.6686
 8027SOL     OW24796   6.448   1.410   1.215  0.0263  0.1708  0.8797
 8027SOL    HW124797   6.484   1.493   1.247 -1.7892  2.2816 -2.2288
 8027SOL    HW224798   6.355   1.428   1.203 -0.6179 -2.7153  1.2291
 8028SOL     OW24799   4.454   3.285   2.295  0.1975  0.5738  0.3121
 8028SOL    HW124800   4.483   3.223   2.363 -1.0656 -1.1378 -0.6648
 8028SOL    HW224801   4.516   3.274   2.224 -0.1456  0.2820  0.0567
 8029SOL     OW24802   4.170   6.362   0.638  0.1415 -0.0650 -0.1819
 8029SOL    HW124803   4.095   6.419   0.657 -1.0798 -1.4374 -0.7906
 8029SOL    HW224804   4.232   6.419   0.592 -0.9935  0.8105 -0.6600
 8030SOL     OW24805   1.383   1.222   2.649 -0.4447  0.2203 -0.8613
 8030SOL    HW124806   1.355   1.305   2.687  1.1168  0.2449  0.3078
 8030SOL    HW224807   1.404   1.167   2.724  0.0389 -0.6929 -1.6488
 8031SOL     OW24808   0.530   5.193   5.528 -0.6838 -0.3124 -0.1126
 8031SOL    HW124809   0.605   5.142   5.557 -0.2761  0.9350  1.1218
 8031SOL    HW224810   0.546   5.209   5.435  1.3613  1.2090  0.4704
 8032SOL     OW24811   5.379   4.809   4.313  0.3428  0.8314 -0.5492
 8032SOL    HW124812   5.446   4.860   4.266  2.5331 -0.7234  0.7613
 8032SOL    HW224813   5.419   4.793   4.399 -0.6881 -2.2673 -0.6024
 8033SOL     OW24814   6.199   5.229   3.775  0.5468 -0.0596 -0.4729
 8033SOL    HW124815   6.114   5.260   3.746  0.1940 -0.8089 -0.2649
 8033SOL    HW224816   6.189   5.134   3.782  0.8875  0.0116  1.1975
 8034SOL     OW24817   6.752   4.037   0.575 -0.4361  0.9580 -0.0838
 8034SOL    HW124818   6.846   4.054   0.589 -0.2565  1.8994 -2.1648
 8034SOL    HW224819   6.750   3.954   0.527 -0.8165 -0.3145  2.1146
 8035SOL     OW24820   4.205   3.856   2.889  0.4358 -0.3879 -0.4612
 8035SOL    HW124821   4.144   3.830   2.958  0.9975 -0.5508 -0.0216
 8035SOL    HW224822   4.290   3.860   2.933  0.9158 -1.2318 -1.3086
 8036SOL     OW24823   3.411   6.128   4.263  0.7555 -0.1727 -0.0927
 8036SOL    HW124824   3.375   6.177   4.337  1.6030 -2.1065  1.6519
 8036SOL    HW224825   3.453   6.195   4.209 -0.8570  1.4182  0.5753
 8037SOL     OW24826   4.332   2.635   2.978 -0.2280  0.4625 -0.0711
 8037SOL    HW124827   4.265   2.631   2.909  0.6547  0.8432 -0.9627
 8037SOL    HW224828   4.380   2.553   2.969 -1.7867 -0.7275  1.8548
 8038SOL     OW24829   0.834   4.419   0.483  0.3308  0.0804  0.1919
 8038SOL    HW124830   0.773   4.456   0.547  1.3485  0.4126  0.9808
 8038SOL    HW224831   0.783   4.354   0.436 -1.0326  1.3534 -0.1070
 8039SOL     OW24832   0.828   1.120   0.203  0.0575  0.2810  0.1486
 8039SOL    HW124833   0.789   1.050   0.256  0.5065 -0.9075 -1.0579
 8039SOL    HW224834   0.915   1.133   0.240  0.6808 -1.1168 -0.7778
 8040SOL     OW24835   3.978   5.889   5.024  0.5546 -0.4346  0.2418
 8040SOL    HW124836   4.014   5.958   4.967  0.7029 -1.3860 -0.8359
 8040SOL    HW224837   3.891   5.872   4.989  0.5175 -0.7823  0.5012
 8041SOL     OW24838   5.003   6.342   3.831 -0.7412  0.0579 -0.3838
 8041SOL    HW124839   5.036   6.317   3.745  1.6118  2.9858 -0.4103
 8041SOL    HW224840   4.953   6.422   3.816  0.0710  0.8553  1.0157
 8042SOL     OW24841   2.682   5.661   2.451  0.0901 -0.0085  0.3270
 8042SOL    HW124842   2.642   5.601   2.514  0.8131  1.7740  2.5439
 8042SOL    HW224843   2.667   5.620   2.366 -1.6210 -2.0680  1.5781
 8043SOL     OW24844   2.091   4.938   6.505 -0.4447 -0.5119 -0.3194
 8043SOL    HW124845   2.135   4.853   6.502  0.5541  0.0523 -2.4514
 8043SOL    HW224846   2.151   4.995   6.552  0.0615 -0.3425 -1.1619
 8044SOL     OW24847   5.933   4.775   3.495 -0.1765 -0.0057 -0.0213
 8044SOL    HW124848   5.932   4.870   3.506 -1.8095  0.0692 -0.6547
 8044SOL    HW224849   5.935   4.762   3.400 -0.0049 -0.5957  0.0641
 8045SOL     OW24850   5.150   4.798   5.260 -0.0954 -0.1319  0.0361
 8045SOL    HW124851   5.237   4.771   5.288 -0.2186 -0.2688  0.2865
 8045SOL    HW224852   5.159   4.891   5.239  0.9385 -0.9126 -3.2369
 8046SOL     OW24853   1.729   3.543   2.166  0.7892  0.2888  0.3383
 8046SOL    HW124854   1.732   3.471   2.102  1.8149  0.8430 -0.2567
 8046SOL    HW224855   1.737   3.499   2.250  1.6147 -0.2906 -0.0297
 8047SOL     OW24856   6.544   4.301   4.502  0.0860 -0.6283 -0.3104
 8047SOL    HW124857   6.451   4.310   4.480  0.0011 -0.6538  0.0224
 8047SOL    HW224858   6.587   4.374   4.457 -0.3110  0.2759  0.7544
 8048SOL     OW24859   0.710   1.603   1.769 -0.2897 -0.6351 -0.1791
 8048SOL    HW124860   0.631   1.656   1.782  0.3860  0.6538 -1.1789
 8048SOL    HW224861   0.765   1.623   1.845 -1.0792 -1.8333  0.7158
 8049SOL     OW24862   4.224   1.823   3.610 -0.1863  0.0286 -0.2192
 8049SOL    HW124863   4.129   1.824   3.620 -0.0135  0.2920  1.4543
 8049SOL    HW224864   4.256   1.885   3.675  1.0598  0.9913 -1.7115
 8050SOL     OW24865   3.689   3.891   1.972 -0.3500 -0.3462  0.0043
 8050SOL    HW124866   3.608   3.882   2.021 -0.1941 -0.8650  0.1755
 8050SOL    HW224867   3.748   3.937   2.032  0.4083 -2.5199  1.0081
 8051SOL     OW24868   0.548   1.944   2.437 -0.0791 -0.3177 -0.1532
 8051SOL    HW124869   0.539   1.976   2.347 -0.2661 -1.6780 -0.6221
 8051SOL    HW224870   0.541   2.023   2.491  2.6036  0.8804 -1.4463
 8052SOL     OW24871   4.123   3.115   5.564 -0.4917  0.1246  0.1615
 8052SOL    HW124872   4.079   3.078   5.641  1.6950 -1.0392  0.9203
 8052SOL    HW224873   4.138   3.207   5.587  1.2901 -0.5162  1.7093
 8053SOL     OW24874   5.327   6.705   4.852  0.0948  0.2586  0.0622
 8053SOL    HW124875   5.335   6.621   4.807  0.2836  1.1073 -1.5206
 8053SOL    HW224876   5.234   6.713   4.870  0.1235 -0.4624  0.5933
 8054SOL     OW24877   1.210   0.873   6.318 -0.5619 -0.0525  0.3298
 8054SOL    HW124878   1.294   0.832   6.296 -1.0444 -0.7771 -0.2123
 8054SOL    HW224879   1.216   0.961   6.280 -0.4901 -0.5058 -0.7345
 8055SOL     OW24880   2.137   1.272   0.262 -0.1993 -0.0338 -0.1653
 8055SOL    HW124881   2.056   1.291   0.309 -0.9990  0.7744 -1.8093
 8055SOL    HW224882   2.113   1.201   0.202  0.1949  0.4272 -0.8858
 8056SOL     OW24883   2.190   2.154   3.492 -0.2640  0.0899 -0.4453
 8056SOL    HW124884   2.180   2.071   3.445  1.1277 -0.0013 -0.6169
 8056SOL    HW224885   2.134   2.215   3.445  0.1117 -0.3210 -1.4437
 8057SOL     OW24886   0.522   3.689   1.173 -0.4798 -0.6906 -0.0087
 8057SOL    HW124887   0.573   3.609   1.163  1.9295  0.9826 -1.6523
 8057SOL    HW224888   0.477   3.700   1.089 -1.5942 -0.8523  0.5657
 8058SOL     OW24889   0.496   5.720   3.079 -0.3728 -0.0019 -0.2398
 8058SOL    HW124890   0.482   5.728   3.173 -0.0969  0.3893 -0.2283
 8058SOL    HW224891   0.410   5.700   3.043  0.0646 -3.3497  0.4238
 8059SOL     OW24892   4.684   0.787   5.776  0.0135 -0.3090  1.0146
 8059SOL    HW124893   4.648   0.700   5.761  1.1255 -0.4570 -1.0741
 8059SOL    HW224894   4.628   0.825   5.844 -0.8309 -2.4276  1.5425
 8060SOL     OW24895   5.345   0.727   0.674 -0.0913  0.4137 -0.0910
 8060SOL    HW124896   5.319   0.636   0.687  0.6519  0.2869  0.5020
 8060SOL    HW224897   5.415   0.742   0.737 -1.6242  2.0254  1.2996
 8061SOL     OW24898   4.372   4.979   5.032 -0.9471  0.0410 -0.1987
 8061SOL    HW124899   4.398   5.027   5.110  0.9637  1.1279 -1.4440
 8061SOL    HW224900   4.306   5.034   4.990  0.0620  0.8127 -0.7856
 8062SOL     OW24901   0.045   0.946   1.481  0.2876  0.3131 -0.5965
 8062SOL    HW124902   0.015   1.037   1.482 -0.1371  0.1535  1.4388
 8062SOL    HW224903  -0.035   0.894   1.480  0.5315 -0.0641 -0.3065
 8063SOL     OW24904   0.620   4.220   2.635  0.3956 -0.0852 -0.4387
 8063SOL    HW124905   0.678   4.149   2.664  0.4529  0.3081  0.4372
 8063SOL    HW224906   0.542   4.211   2.689  0.8856  1.2343  0.5395
 8064SOL     OW24907   4.283   2.718   0.767 -0.0838  0.0072 -0.1034
 8064SOL    HW124908   4.192   2.713   0.794 -0.5946  1.3963 -1.5179
 8064SOL    HW224909   4.330   2.746   0.846 -1.3245  2.3764 -0.1590
 8065SOL     OW24910   2.696   5.105   6.389 -0.0062  0.3948 -0.0478
 8065SOL    HW124911   2.660   5.025   6.427 -0.1991 -0.3078 -1.6594
 8065SOL    HW224912   2.714   5.161   6.464 -3.2168  0.2521  0.8955
 8066SOL     OW24913   5.522   0.734   2.846  0.0079  0.0364 -0.3856
 8066SOL    HW124914   5.607   0.744   2.888 -0.1761 -0.0283  0.0112
 8066SOL    HW224915   5.514   0.640   2.830 -0.1429  0.0001 -0.0942
 8067SOL     OW24916   1.075   3.036   0.214  0.6259  0.0298 -0.3354
 8067SOL    HW124917   1.108   2.953   0.247  1.5297  0.6265  0.2859
 8067SOL    HW224918   0.985   3.041   0.248  1.3421  0.3630  1.5776
 8068SOL     OW24919   5.340   4.123   3.553 -0.2110 -0.0576 -0.3612
 8068SOL    HW124920   5.427   4.112   3.515 -0.2667  0.3404 -0.6009
 8068SOL    HW224921   5.283   4.143   3.479 -0.8736 -2.2568 -0.4777
 8069SOL     OW24922   4.352   0.745   2.018  0.0249 -0.4852  0.1620
 8069SOL    HW124923   4.418   0.785   1.961 -0.7655 -0.2555 -0.6189
 8069SOL    HW224924   4.371   0.779   2.105 -1.5948  2.9555 -0.7228
 8070SOL     OW24925   6.511   0.080   3.336  0.4025  0.0859 -0.3796
 8070SOL    HW124926   6.600   0.071   3.302  0.5154 -0.7132  0.1162
 8070SOL    HW224927   6.519   0.059   3.429 -0.1807  0.7157 -0.1866
 8071SOL     OW24928   1.685   5.808   2.231 -0.7558  0.2574 -0.1643
 8071SOL    HW124929   1.635   5.885   2.259 -2.5582 -0.0659 -2.2779
 8071SOL    HW224930   1.667   5.741   2.297 -0.7964  1.0424  0.6161
 8072SOL     OW24931   2.442   4.325   1.006 -0.0126  0.4020 -0.2223
 8072SOL    HW124932   2.360   4.365   0.977  0.4212  1.2726 -0.2854
 8072SOL    HW224933   2.500   4.400   1.022  1.7008 -0.3038 -2.9343
 8073SOL     OW24934   6.683   2.169   3.600 -0.5766  0.3232 -0.7718
 8073SOL    HW124935   6.687   2.126   3.515  0.1493 -0.2904 -0.4405
 8073SOL    HW224936   6.609   2.127   3.645  0.9196 -1.5276  0.0338
 8074SOL     OW24937   2.976   6.471   5.535 -0.7875 -0.0439 -0.5602
 8074SOL    HW124938   2.983   6.376   5.529  0.2100  0.0326 -0.6582
 8074SOL    HW224939   2.882   6.488   5.526 -0.8210 -0.9180 -2.0423
 8075SOL     OW24940   5.052   3.016   2.717  0.1388  0.3353 -0.0356
 8075SOL    HW124941   5.001   3.032   2.637 -1.1505  0.2772  0.7506
 8075SOL    HW224942   5.098   3.099   2.732  1.2002  0.0004 -1.4020
 8076SOL     OW24943   1.416   6.061   4.821  0.2888  0.0549  0.2974
 8076SOL    HW124944   1.458   6.117   4.755 -0.7452  0.9842  0.4155
 8076SOL    HW224945   1.339   6.025   4.777  1.0985 -1.5302  0.1303
 8077SOL     OW24946   0.014   3.701   3.673  0.0171 -0.5929 -0.1980
 8077SOL    HW124947   0.009   3.779   3.617 -0.7206 -1.2696 -1.0968
 8077SOL    HW224948   0.024   3.628   3.611 -1.6038 -1.4374  0.4828
 8078SOL     OW24949   3.136   3.386   3.484 -0.6016  0.7897 -0.3139
 8078SOL    HW124950   3.205   3.339   3.437  0.6522  2.8079 -0.5411
 8078SOL    HW224951   3.152   3.367   3.576 -0.8499 -0.2187 -0.4772
 8079SOL     OW24952   5.159   1.215   1.800  0.2332 -0.3520 -0.0242
 8079SOL    HW124953   5.145   1.303   1.835  0.9398 -0.2723  0.0606
 8079SOL    HW224954   5.083   1.199   1.745 -0.1328  0.1263  0.3345
 8080SOL     OW24955   6.441   5.407   2.132 -0.1805 -0.1701 -0.0018
 8080SOL    HW124956   6.428   5.335   2.193 -0.7304 -1.5812 -1.7432
 8080SOL    HW224957   6.352   5.439   2.113 -0.0194  0.2113 -0.1245
 8081SOL     OW24958   6.586   6.399   4.140 -0.7285  0.2664  0.9083
 8081SOL    HW124959   6.558   6.490   4.149  1.8435  1.0882  1.0412
 8081SOL    HW224960   6.592   6.384   4.046 -0.4464  0.4667  0.8943
 8082SOL     OW24961   3.937   2.608   1.847 -0.1792  0.0153 -0.5346
 8082SOL    HW124962   3.968   2.610   1.938 -0.7339  2.3962 -0.3656
 8082SOL    HW224963   3.859   2.553   1.850 -0.3941  0.3650  0.4788
 8083SOL     OW24964   4.272   4.246   2.151 -0.5849  0.1586 -0.4199
 8083SOL    HW124965   4.199   4.270   2.208 -0.6061 -0.2558 -0.2658
 8083SOL    HW224966   4.252   4.156   2.124 -1.7221  1.0974 -2.8839
 8084SOL     OW24967   2.144   1.000   3.408  0.5565 -0.0342 -0.7197
 8084SOL    HW124968   2.072   1.063   3.415  1.6872  1.0763  1.6033
 8084SOL    HW224969   2.207   1.041   3.349  0.5433  0.2463 -0.5364
 8085SOL     OW24970   6.208   3.509   2.297 -0.2740 -0.0601  0.4955
 8085SOL    HW124971   6.201   3.558   2.379  0.8604 -1.0286  1.1808
 8085SOL    HW224972   6.281   3.449   2.310 -1.2099 -1.4813 -0.5636
 8086SOL     OW24973   3.491   5.116   4.921 -0.1423 -0.1957 -0.0440
 8086SOL    HW124974   3.499   5.211   4.924 -0.9264 -0.1214 -0.2124
 8086SOL    HW224975   3.498   5.094   4.828 -0.5291 -0.2471 -0.0631
 8087SOL     OW24976   5.184   2.162   1.660 -0.4995  0.2944  0.0197
 8087SOL    HW124977   5.140   2.143   1.577  0.8676  0.2749 -0.7060
 8087SOL    HW224978   5.159   2.089   1.717 -1.1396  0.1140 -0.4785
 8088SOL     OW24979   3.649   0.922   3.542 -0.7206 -0.1157 -0.3340
 8088SOL    HW124980   3.649   0.937   3.447  0.9942  1.9601 -0.0444
 8088SOL    HW224981   3.629   1.008   3.579  1.5556 -0.2470  1.2628
 8089SOL     OW24982   6.093   1.887   0.690 -0.1107 -0.2849 -0.0831
 8089SOL    HW124983   6.174   1.936   0.677  0.4605 -1.0341  0.5912
 8089SOL    HW224984   6.038   1.945   0.743 -0.6970  0.9271 -1.9889
 8090SOL     OW24985   5.684   3.731   5.261 -0.3171  0.3484  0.1962
 8090SOL    HW124986   5.661   3.651   5.307  0.5052  0.4760  0.8479
 8090SOL    HW224987   5.670   3.711   5.169 -0.5347 -0.3976  0.3865
 8091SOL     OW24988   6.763   5.761   2.684 -0.0230  0.4860  0.1292
 8091SOL    HW124989   6.692   5.803   2.733 -0.8837  0.6489 -1.2425
 8091SOL    HW224990   6.838   5.765   2.743 -0.7082  1.8344  0.9436
 8092SOL     OW24991   2.613   5.909   6.099  0.1151 -0.3301 -0.0649
 8092SOL    HW124992   2.661   5.922   6.017 -1.3484  0.7845 -0.7637
 8092SOL    HW224993   2.672   5.943   6.167  1.4907 -1.5905 -0.5888
 8093SOL     OW24994   6.105   5.621   4.635  0.1953 -0.0778  0.1590
 8093SOL    HW124995   6.135   5.531   4.652  0.7959  0.0797 -0.0595
 8093SOL    HW224996   6.185   5.670   4.617  0.0024  0.8286  1.7106
 8094SOL     OW24997   3.430   1.839   0.472  0.7161  0.1462  0.2427
 8094SOL    HW124998   3.354   1.797   0.433  0.7986  0.8281 -0.6827
 8094SOL    HW224999   3.395   1.916   0.517  0.8529  0.4568 -0.1782
 8095SOL     OW25000   3.053   1.209   0.936  0.1060 -0.5095  0.1521
 8095SOL    HW125001   2.965   1.226   0.972 -0.0917 -0.4018 -0.3853
 8095SOL    HW225002   3.109   1.274   0.979 -0.4314  0.7224 -0.9905
 8096SOL     OW25003   2.427   6.658   3.324 -0.9683 -0.6832  0.0272
 8096SOL    HW125004   2.385   6.744   3.331 -0.6445 -0.6416  2.0120
 8096SOL    HW225005   2.368   6.606   3.271 -1.1021  0.8018 -1.3396
 8097SOL     OW25006   3.662   5.286   2.024  0.4887  0.2772  0.7898
 8097SOL    HW125007   3.678   5.191   2.019 -1.9466 -0.0941 -0.6302
 8097SOL    HW225008   3.744   5.325   1.994  1.2286 -1.3891  0.5499
 8098SOL     OW25009   2.402   4.381   5.428 -0.0913  0.6310  0.3341
 8098SOL    HW125010   2.383   4.475   5.421 -0.7162  0.5532  1.0078
 8098SOL    HW225011   2.319   4.341   5.452  0.3322 -0.0157  0.7346
 8099SOL     OW25012   4.153   0.485   4.717 -0.0766 -0.2237  0.2276
 8099SOL    HW125013   4.121   0.575   4.712 -0.5116 -0.4313 -0.7192
 8099SOL    HW225014   4.203   0.472   4.637  1.2048 -0.3673  1.0349
 8100SOL     OW25015   1.181   1.370   1.349 -0.2385 -0.1829  0.9723
 8100SOL    HW125016   1.252   1.378   1.413  0.5636 -1.3922  0.2523
 8100SOL    HW225017   1.222   1.330   1.273 -1.2068  1.1821 -0.2926
 8101SOL     OW25018   0.654   2.522   1.128 -0.3205  0.1322 -0.5711
 8101SOL    HW125019   0.618   2.524   1.216  0.4407  1.4770 -0.2770
 8101SOL    HW225020   0.652   2.613   1.099  2.0074  0.1136 -0.8754
 8102SOL     OW25021   1.691   5.881   0.743 -0.5959  0.1767  0.0768
 8102SOL    HW125022   1.660   5.852   0.829  0.5182 -0.9071  0.1163
 8102SOL    HW225023   1.784   5.899   0.755 -0.8096  1.7551 -0.4743
 8103SOL     OW25024   3.274   1.109   4.404  0.5124  0.0457 -0.1329
 8103SOL    HW125025   3.213   1.037   4.388 -0.4103  0.8156 -0.1230
 8103SOL    HW225026   3.359   1.066   4.415  0.0939 -0.9864 -0.8149
 8104SOL     OW25027   2.691   4.487   1.090  0.6344  0.4706 -0.1839
 8104SOL    HW125028   2.747   4.411   1.078 -0.1898 -0.0273 -1.0124
 8104SOL    HW225029   2.730   4.554   1.034  1.5862  0.7817  0.8507
 8105SOL     OW25030   2.876   0.820   3.733 -0.0350  0.1856 -0.0617
 8105SOL    HW125031   2.812   0.773   3.786  0.4805  1.2098  1.5184
 8105SOL    HW225032   2.857   0.793   3.643 -3.2179  1.0601  0.2756
 8106SOL     OW25033   5.314   5.046   5.486  0.0037 -0.7525  0.1656
 8106SOL    HW125034   5.335   4.954   5.500 -0.3407 -0.9189 -0.4042
 8106SOL    HW225035   5.388   5.081   5.437  0.5865 -0.4884  1.2106
 8107SOL     OW25036   1.281   4.679   6.492  0.0579 -0.1262 -0.3189
 8107SOL    HW125037   1.203   4.715   6.535 -0.2168 -1.7060  0.5459
 8107SOL    HW225038   1.281   4.587   6.516  2.2161 -0.1489 -0.3116
 8108SOL     OW25039   0.941   4.822   3.050  0.6690  0.1643  0.5582
 8108SOL    HW125040   1.006   4.776   3.102 -0.5832 -3.4927 -0.9625
 8108SOL    HW225041   0.991   4.858   2.977  1.7183  1.5748  1.9372
 8109SOL     OW25042   2.447   5.983   5.136 -0.2546 -0.3004 -0.1348
 8109SOL    HW125043   2.403   5.991   5.051 -0.3752  1.0919  0.0435
 8109SOL    HW225044   2.532   5.943   5.115  1.1013  3.0670 -1.4048
 8110SOL     OW25045   5.465   6.397   5.300 -0.5161  0.8033  0.3321
 8110SOL    HW125046   5.436   6.314   5.337  0.7258  0.7984  1.3234
 8110SOL    HW225047   5.506   6.373   5.217 -1.9193  0.6495 -0.3302
 8111SOL     OW25048   2.413   4.386   5.941  0.0001  0.1093 -0.5198
 8111SOL    HW125049   2.320   4.370   5.921 -0.5085 -0.5685  2.2060
 8111SOL    HW225050   2.459   4.364   5.860 -2.2375  0.6983 -1.9833
 8112SOL     OW25051   6.701   3.958   2.592 -0.4169 -0.2107 -0.0622
 8112SOL    HW125052   6.714   4.021   2.521 -1.3512  2.8027  2.3228
 8112SOL    HW225053   6.624   3.908   2.567  0.5532 -0.7146 -2.1736
 8113SOL     OW25054   4.941   1.598   3.537 -0.1297 -0.1221  0.7291
 8113SOL    HW125055   5.016   1.584   3.595 -0.4183 -2.5932  0.5719
 8113SOL    HW225056   4.882   1.525   3.556 -0.9786 -0.0539 -1.4688
 8114SOL     OW25057   1.507   3.721   6.417  0.2120  0.7654 -0.5307
 8114SOL    HW125058   1.579   3.743   6.475  1.1452 -0.1535 -1.3062
 8114SOL    HW225059   1.428   3.738   6.468  1.0215 -1.7646  1.6922
 8115SOL     OW25060   1.976   0.549   2.722 -0.1302 -0.1951 -0.1226
 8115SOL    HW125061   1.959   0.600   2.643 -0.7415 -0.0534  0.0940
 8115SOL    HW225062   1.962   0.458   2.696  0.3765 -0.2080 -0.3577
 8116SOL     OW25063   5.125   3.090   6.068  0.2595 -0.4051 -0.3719
 8116SOL    HW125064   5.219   3.104   6.057  0.1157 -1.7840 -4.2882
 8116SOL    HW225065   5.115   2.995   6.061 -1.5123 -0.1854 -0.9342
 8117SOL     OW25066   0.028   1.691   3.734  0.5564 -0.1018  0.7321
 8117SOL    HW125067  -0.060   1.694   3.695  1.2409  0.8370 -0.7950
 8117SOL    HW225068   0.012   1.688   3.829 -1.1239  1.6060  0.5336
 8118SOL     OW25069   6.107   6.239   1.983 -0.5184  0.4473 -0.2095
 8118SOL    HW125070   6.191   6.250   1.938  0.4679  1.7221  1.8739
 8118SOL    HW225071   6.052   6.310   1.948 -1.3613 -1.4586 -2.8890
 8119SOL     OW25072   0.098   5.794   3.319 -0.0178 -0.2103 -0.3897
 8119SOL    HW125073   0.144   5.809   3.401  0.2785  1.1076 -0.7758
 8119SOL    HW225074   0.085   5.700   3.315 -0.4607 -0.2339  1.3911
 8120SOL     OW25075   2.400   4.681   5.476 -0.4074  0.1384 -0.2763
 8120SOL    HW125076   2.399   4.698   5.570 -2.3952  1.6822 -0.5429
 8120SOL    HW225077   2.383   4.767   5.436 -1.5692 -0.8459 -1.9594
 8121SOL     OW25078   1.334   0.610   5.092  0.0891 -0.1985  0.2439
 8121SOL    HW125079   1.390   0.614   5.015  1.6995  0.2979  1.4160
 8121SOL    HW225080   1.341   0.519   5.122 -2.6319 -1.1156 -1.6705
 8122SOL     OW25081   5.908   1.029   2.557  0.6743 -0.6978 -0.4167
 8122SOL    HW125082   5.999   1.036   2.528  0.8677  1.2474  0.6011
 8122SOL    HW225083   5.912   0.976   2.637  0.5447 -3.0192 -1.8800
 8123SOL     OW25084   4.161   6.485   3.255  0.5355  0.1807 -0.3779
 8123SOL    HW125085   4.250   6.499   3.286  0.2828  1.9734 -0.4096
 8123SOL    HW225086   4.126   6.573   3.241 -1.4644 -0.4903  0.2480
 8124SOL     OW25087   3.277   1.037   0.968 -0.1971  0.4380 -0.2282
 8124SOL    HW125088   3.362   1.031   0.924  0.9800  0.1699  2.0524
 8124SOL    HW225089   3.214   1.016   0.899  1.5862  0.3492 -1.8839
 8125SOL     OW25090   2.765   1.219   2.013 -0.1436 -0.7547  0.5057
 8125SOL    HW125091   2.705   1.175   2.074 -1.4040  0.0335 -0.1437
 8125SOL    HW225092   2.746   1.178   1.928  1.1814 -1.4328  0.5285
 8126SOL     OW25093   1.146   0.352   0.575  0.4929 -0.1275  0.4111
 8126SOL    HW125094   1.113   0.301   0.649  2.3529 -2.4360 -0.2529
 8126SOL    HW225095   1.207   0.292   0.531  1.1491  1.9886 -1.6564
 8127SOL     OW25096   0.227   2.842   1.505 -0.3038  0.0258  0.2077
 8127SOL    HW125097   0.185   2.892   1.435  0.0480 -0.9822 -0.7493
 8127SOL    HW225098   0.320   2.852   1.489 -0.2172 -0.0289  0.6664
 8128SOL     OW25099   0.265   4.516   3.944 -0.3092 -0.5359  0.5029
 8128SOL    HW125100   0.349   4.537   3.905 -0.0035 -0.7882  1.0262
 8128SOL    HW225101   0.203   4.573   3.899  0.2810  0.3395  0.7749
 8129SOL     OW25102   4.356   0.339   0.309 -0.7403  0.1353  0.2463
 8129SOL    HW125103   4.449   0.327   0.326 -0.4413 -1.1645 -2.1268
 8129SOL    HW225104   4.348   0.429   0.277 -0.3886  0.4088  0.9221
 8130SOL     OW25105   3.998   2.375   5.224 -0.1256 -0.3832 -0.3901
 8130SOL    HW125106   4.050   2.364   5.144 -0.6754 -1.5779 -0.5909
 8130SOL    HW225107   4.028   2.458   5.260  1.0463 -0.4581 -1.1592
 8131SOL     OW25108   0.046   6.595   3.790  0.0918  0.4025  0.0372
 8131SOL    HW125109   0.081   6.684   3.789 -0.0506  0.4501 -1.5340
 8131SOL    HW225110   0.099   6.549   3.854 -0.2933  1.8026  1.3965
 8132SOL     OW25111   2.407   5.675   5.873 -0.2828  0.3154 -0.1867
 8132SOL    HW125112   2.493   5.691   5.833 -0.0326  3.0564  1.3099
 8132SOL    HW225113   2.350   5.654   5.799  0.3673  4.3387 -1.9737
 8133SOL     OW25114   3.099   0.417   0.063 -0.0892  0.8421 -0.1269
 8133SOL    HW125115   3.153   0.338   0.070 -1.0076  0.0061 -2.0383
 8133SOL    HW225116   3.046   0.418   0.142 -0.4096 -0.7387 -0.3100
 8134SOL     OW25117   0.270   5.584   3.048  0.2909  0.1921 -0.4685
 8134SOL    HW125118   0.293   5.548   3.134  1.2786 -0.0003 -0.8107
 8134SOL    HW225119   0.219   5.514   3.006  1.7013 -0.5988 -0.9005
 8135SOL     OW25120   2.636   3.898   3.453 -0.2921  0.3444 -0.0584
 8135SOL    HW125121   2.720   3.939   3.433  0.8195 -1.8741 -0.0077
 8135SOL    HW225122   2.579   3.971   3.477  1.3155  1.9694 -1.1031
 8136SOL     OW25123   1.339   0.881   3.110 -0.2929  0.3785 -0.2486
 8136SOL    HW125124   1.326   0.823   3.034  1.7826 -2.0757  1.1644
 8136SOL    HW225125   1.265   0.863   3.167 -0.0117 -0.3889 -0.1211
 8137SOL     OW25126   0.710   3.507   0.525  0.2383  0.4284 -0.0150
 8137SOL    HW125127   0.712   3.585   0.470  0.0041  0.3969 -0.0696
 8137SOL    HW225128   0.674   3.438   0.469  0.8209  0.1814 -0.0894
 8138SOL     OW25129   3.492   4.009   3.651  0.5494  0.4147  0.2342
 8138SOL    HW125130   3.502   3.962   3.568 -1.6252 -1.0098  0.7113
 8138SOL    HW225131   3.398   4.027   3.657  0.7385  0.8739  2.1771
 8139SOL     OW25132   4.089   1.017   2.188  0.4183  0.0509 -0.2534
 8139SOL    HW125133   4.074   0.959   2.113 -1.2849 -0.1858  0.2431
 8139SOL    HW225134   4.184   1.021   2.197  0.7500  1.5292 -3.5629
 8140SOL     OW25135   5.845   5.033   3.589  0.0650  0.3470 -0.0362
 8140SOL    HW125136   5.905   5.106   3.574  0.4748 -0.3964 -2.2274
 8140SOL    HW225137   5.759   5.074   3.599  0.6042  1.2619  0.9356
 8141SOL     OW25138   1.301   0.815   4.530  0.5003  0.2920 -0.5671
 8141SOL    HW125139   1.360   0.741   4.516  2.5689  1.5361  1.2964
 8141SOL    HW225140   1.289   0.854   4.444  2.3299 -0.0612 -0.9867
 8142SOL     OW25141   4.578   2.816   3.459  0.3066  0.6412 -0.0264
 8142SOL    HW125142   4.671   2.811   3.436  1.1851  3.5126  2.5316
 8142SOL    HW225143   4.565   2.741   3.518  0.7920 -0.2155 -0.9901
 8143SOL     OW25144   1.953   2.214   4.172  0.0477  0.1480  0.6086
 8143SOL    HW125145   1.948   2.143   4.108 -1.6562  1.0216 -0.2578
 8143SOL    HW225146   2.047   2.228   4.185  0.4067 -0.5322 -1.1450
 8144SOL     OW25147   2.956   3.576   1.726 -0.6684 -0.2341  0.2520
 8144SOL    HW125148   3.024   3.643   1.725 -1.0490  0.2021  1.8382
 8144SOL    HW225149   2.971   3.525   1.646  2.0550 -0.6613  0.9617
 8145SOL     OW25150   1.860   1.929   5.101  0.1722  0.0029 -0.2912
 8145SOL    HW125151   1.869   1.925   5.196 -0.6428  1.0856 -0.1542
 8145SOL    HW225152   1.910   1.854   5.068  0.9574 -0.0196  0.9494
 8146SOL     OW25153   0.729   4.031   4.417 -0.4262  0.5828 -0.1920
 8146SOL    HW125154   0.701   3.956   4.364  0.9413 -0.3464  0.3729
 8146SOL    HW225155   0.806   4.064   4.372  1.5487 -1.0293  1.8773
 8147SOL     OW25156   4.680   6.076   1.497  0.3662 -0.2757  0.2292
 8147SOL    HW125157   4.756   6.124   1.528  1.2102 -1.1054 -0.5112
 8147SOL    HW225158   4.639   6.135   1.434 -0.5002  0.7981  1.7776
 8148SOL     OW25159   0.183   2.105   5.749 -0.2189  0.0604 -0.0499
 8148SOL    HW125160   0.261   2.132   5.799 -0.6173  0.3281  0.4302
 8148SOL    HW225161   0.134   2.050   5.810 -1.5264  1.7141  0.4297
 8149SOL     OW25162   4.614   5.560   2.506  0.3479 -0.0515 -0.2391
 8149SOL    HW125163   4.677   5.620   2.545 -0.4214  1.1829 -0.8794
 8149SOL    HW225164   4.583   5.506   2.579 -1.2560  2.3874  0.9381
 8150SOL     OW25165   5.341   1.536   4.110  0.1550 -0.1086 -0.4847
 8150SOL    HW125166   5.409   1.524   4.176 -0.5571  2.0114  0.6701
 8150SOL    HW225167   5.335   1.630   4.098 -1.0274 -0.3755 -2.2323
 8151SOL     OW25168   2.207   3.551   4.878 -0.8430 -0.0157 -0.0381
 8151SOL    HW125169   2.202   3.625   4.939  0.9097 -0.5696  0.8409
 8151SOL    HW225170   2.182   3.475   4.931 -4.3510  0.1432 -1.3995
 8152SOL     OW25171   5.096   4.947   0.620  0.1826 -0.7187  0.5752
 8152SOL    HW125172   5.094   4.874   0.683  2.1778 -1.7874 -0.5577
 8152SOL    HW225173   5.035   4.920   0.551 -0.2069 -0.6279  0.8807
 8153SOL     OW25174   3.091   2.189   4.588  0.2310 -0.6864  0.1753
 8153SOL    HW125175   3.016   2.172   4.646  0.4177  0.5317  0.7829
 8153SOL    HW225176   3.093   2.113   4.529 -2.2836 -0.1399 -0.6944
 8154SOL     OW25177   0.301   2.749   5.532 -0.1683 -0.0186 -0.2495
 8154SOL    HW125178   0.397   2.746   5.528 -0.0726  0.6851  1.3391
 8154SOL    HW225179   0.277   2.687   5.601 -0.6297  2.4029  1.8448
 8155SOL     OW25180   1.901   1.737   6.691  0.2134 -0.3661 -0.1758
 8155SOL    HW125181   1.913   1.732   6.597  1.0215  2.5716 -0.2791
 8155SOL    HW225182   1.939   1.822   6.716 -2.3824  0.1380  2.3992
 8156SOL     OW25183   6.541   4.848   5.974  0.1392 -0.2101  0.1363
 8156SOL    HW125184   6.604   4.860   5.903  0.0905 -0.7785 -0.0094
 8156SOL    HW225185   6.588   4.875   6.053 -0.3335  1.9715 -0.2989
 8157SOL     OW25186   4.335   4.795   0.918 -0.0847  0.2642  0.2029
 8157SOL    HW125187   4.341   4.765   1.009  1.5070 -2.1864 -0.6494
 8157SOL    HW225188   4.416   4.843   0.903  0.7030 -1.2329 -0.5241
 8158SOL     OW25189   4.095   4.956   1.617 -0.1790 -0.2350  0.4780
 8158SOL    HW125190   4.121   5.028   1.559  0.7536  1.9336  3.4986
 8158SOL    HW225191   4.023   4.991   1.669 -1.3197 -2.3111  0.3393
 8159SOL     OW25192   0.840   6.346   1.177  0.0348 -0.3052  0.2082
 8159SOL    HW125193   0.921   6.396   1.171 -0.8963  1.0144 -1.7206
 8159SOL    HW225194   0.828   6.308   1.090 -2.7488  1.6795 -0.3515
 8160SOL     OW25195   4.369   0.771   4.095 -0.5111  0.2999  0.0582
 8160SOL    HW125196   4.364   0.769   4.000  1.5664  1.7655 -0.1186
 8160SOL    HW225197   4.432   0.703   4.118  0.8783  1.5885  0.1788
 8161SOL     OW25198   2.035   2.230   2.807 -0.8469  0.1739 -0.4514
 8161SOL    HW125199   1.942   2.214   2.792 -0.8859 -0.0708  0.0161
 8161SOL    HW225200   2.040   2.323   2.830 -1.1397 -0.0830  0.7061
 8162SOL     OW25201   2.887   1.859   1.237 -0.3089  0.0509  0.1111
 8162SOL    HW125202   2.862   1.771   1.265  2.6748 -0.7862  0.3190
 8162SOL    HW225203   2.825   1.917   1.280 -2.1525 -1.9344  0.1879
 8163SOL     OW25204   1.438   2.225   0.691 -0.2511  0.0002 -0.3090
 8163SOL    HW125205   1.397   2.140   0.677 -0.6384  0.1759 -0.2603
 8163SOL    HW225206   1.369   2.289   0.669 -0.1504  0.2923  0.2150
 8164SOL     OW25207   1.437   6.000   0.877 -0.2375 -0.0376  0.3035
 8164SOL    HW125208   1.376   6.047   0.934 -0.0532  1.4910 -0.7185
 8164SOL    HW225209   1.521   6.044   0.891  0.0885 -0.5210 -0.1306
 8165SOL     OW25210   0.742   3.760   5.299  0.2982 -0.2774 -0.4899
 8165SOL    HW125211   0.766   3.687   5.356 -1.7742 -1.0196 -0.5277
 8165SOL    HW225212   0.765   3.730   5.211 -1.4760 -1.2886 -0.6104
 8166SOL     OW25213   0.949   3.834   2.223  0.3936  0.0753  0.3374
 8166SOL    HW125214   0.987   3.916   2.253 -1.3303  1.0782 -0.1430
 8166SOL    HW225215   0.863   3.830   2.265  0.2406 -1.2381 -0.0510
 8167SOL     OW25216   4.165   2.888   2.647  0.4996 -0.1109  0.3291
 8167SOL    HW125217   4.222   2.812   2.660  0.4477 -0.1987  0.0445
 8167SOL    HW225218   4.088   2.870   2.701 -0.3413 -1.1284 -1.1755
 8168SOL     OW25219   1.429   3.607   6.139 -0.1626  0.6043  0.1356
 8168SOL    HW125220   1.461   3.658   6.064 -1.3318  0.6601 -0.3313
 8168SOL    HW225221   1.460   3.656   6.216 -1.1946  1.9694 -0.3037
 8169SOL     OW25222   2.527   0.231   2.430  0.0242  0.1627  0.1189
 8169SOL    HW125223   2.558   0.149   2.391 -2.9410 -0.5457 -0.9344
 8169SOL    HW225224   2.561   0.229   2.519  1.1814 -1.5439 -0.3305
 8170SOL     OW25225   0.930   5.997   2.771 -0.1534 -0.3029 -0.0935
 8170SOL    HW125226   0.945   5.941   2.695 -1.4322  0.2709 -0.7857
 8170SOL    HW225227   1.014   5.999   2.816  1.4377  1.5658 -2.9778
 8171SOL     OW25228   2.372   2.920   6.255 -0.5062  0.1518 -0.2619
 8171SOL    HW125229   2.294   2.957   6.296 -0.5450  0.7034 -0.8280
 8171SOL    HW225230   2.402   2.988   6.195 -0.1825 -0.4658 -0.8058
 8172SOL     OW25231   6.124   2.345   3.222 -0.3119 -0.8499 -0.3772
 8172SOL    HW125232   6.121   2.441   3.225  0.1968 -0.8485  0.1372
 8172SOL    HW225233   6.192   2.325   3.158 -0.3100 -0.8689 -0.3698
 8173SOL     OW25234   6.591   4.832   1.617 -0.0430  0.2644  0.2799
 8173SOL    HW125235   6.529   4.774   1.661  0.0242 -0.4890 -0.6136
 8173SOL    HW225236   6.670   4.828   1.671 -0.8974  1.5884  1.6822
 8174SOL     OW25237   3.225   1.167   0.507 -0.1474 -0.2302 -0.3247
 8174SOL    HW125238   3.222   1.080   0.546  0.4835  0.1947  0.6944
 8174SOL    HW225239   3.170   1.160   0.429  0.2455 -1.6526 -0.4877
 8175SOL     OW25240   3.724   4.755   5.671 -0.3039 -0.3509  0.0400
 8175SOL    HW125241   3.688   4.668   5.658 -1.0824  0.3703 -2.8452
 8175SOL    HW225242   3.648   4.812   5.680  0.1966  0.1813  1.0238
 8176SOL     OW25243   0.158   0.713   5.225  0.2986  0.0661  0.3016
 8176SOL    HW125244   0.182   0.675   5.309 -1.6607 -1.0452  0.3973
 8176SOL    HW225245   0.228   0.686   5.165 -0.3605 -2.6776  0.6675
 8177SOL     OW25246   2.824   3.845   2.854  0.1571 -0.5698 -0.1595
 8177SOL    HW125247   2.875   3.780   2.805  1.5907  0.0418  0.4780
 8177SOL    HW225248   2.779   3.896   2.787  0.1389 -1.3249 -0.7285
 8178SOL     OW25249   0.244   5.761   6.150  0.2249  0.2232 -0.3635
 8178SOL    HW125250   0.185   5.832   6.122  0.5108  0.2585 -0.8839
 8178SOL    HW225251   0.332   5.800   6.143  0.2947  0.2334  0.5939
 8179SOL     OW25252   0.842   5.438   4.984 -0.2139 -0.0876 -0.4330
 8179SOL    HW125253   0.760   5.395   5.005 -0.2403 -0.5095 -1.3485
 8179SOL    HW225254   0.857   5.499   5.056 -0.6006 -1.0277  0.4579
 8180SOL     OW25255   5.071   5.648   1.225  0.3070  0.1842 -0.6617
 8180SOL    HW125256   4.981   5.656   1.195  0.2002 -0.0465 -0.4067
 8180SOL    HW225257   5.068   5.666   1.319 -0.0969 -3.5554  0.1450
 8181SOL     OW25258   6.033   0.960   0.821  0.2784  0.3447  0.3301
 8181SOL    HW125259   6.060   1.050   0.842  1.0415  0.7079 -2.0477
 8181SOL    HW225260   5.950   0.970   0.774  1.6511  0.0398 -2.2512
 8182SOL     OW25261   0.622   4.113   5.924 -0.6058 -1.1170  0.1390
 8182SOL    HW125262   0.627   4.051   5.852 -1.4645 -0.7530 -0.2457
 8182SOL    HW225263   0.529   4.116   5.946 -0.5953  0.1375  0.0511
 8183SOL     OW25264   6.753   2.003   3.403 -0.1274 -0.2399  0.2671
 8183SOL    HW125265   6.698   1.954   3.342  0.8177  1.8944 -2.3783
 8183SOL    HW225266   6.840   1.966   3.391  0.4264  1.4626 -1.1172
 8184SOL     OW25267   5.190   5.597   6.467  0.0234  0.4791 -0.7126
 8184SOL    HW125268   5.271   5.621   6.423  1.4694 -1.0961  1.0247
 8184SOL    HW225269   5.189   5.651   6.546  0.1025 -0.5214 -0.0188
 8185SOL     OW25270   5.899   4.587   4.131 -0.2116  0.0300  0.0001
 8185SOL    HW125271   5.987   4.578   4.095 -0.3997 -1.6106 -0.0872
 8185SOL    HW225272   5.844   4.534   4.074 -1.2985  1.2137 -0.0680
 8186SOL     OW25273   0.284   1.201   6.134 -0.0169  0.0332  0.2426
 8186SOL    HW125274   0.377   1.185   6.148  0.2755  0.7209 -0.8752
 8186SOL    HW225275   0.270   1.290   6.165  0.0015  0.4511 -0.9175
 8187SOL     OW25276   3.166   4.670   6.407 -0.2592  0.3009 -0.6790
 8187SOL    HW125277   3.185   4.616   6.330 -0.9970 -0.8335 -0.0770
 8187SOL    HW225278   3.229   4.640   6.473  0.3092  1.2079 -0.7956
 8188SOL     OW25279   2.416   4.420   6.236  0.0271 -1.1755 -0.5475
 8188SOL    HW125280   2.501   4.399   6.275  0.1696  0.2636 -0.0591
 8188SOL    HW225281   2.431   4.412   6.142  0.7639 -0.7675 -0.4747
 8189SOL     OW25282   0.792   0.679   5.655 -0.1235 -0.0900  0.2901
 8189SOL    HW125283   0.764   0.765   5.623  0.2307 -0.1971 -0.3140
 8189SOL    HW225284   0.792   0.688   5.750 -3.3456 -0.4209  0.3998
 8190SOL     OW25285   6.564   4.517   6.044  0.3410  0.4396  0.0498
 8190SOL    HW125286   6.654   4.489   6.065 -0.2543 -0.3722  1.5962
 8190SOL    HW225287   6.558   4.606   6.078  0.3589  0.2528  0.5507
 8191SOL     OW25288   1.422   2.878   2.895  0.1449 -0.2817  0.2448
 8191SOL    HW125289   1.351   2.916   2.947 -1.4640 -0.5992 -1.6502
 8191SOL    HW225290   1.460   2.953   2.848  0.4088 -0.2689  0.4742
 8192SOL     OW25291   6.464   0.963   1.918  0.5014  0.6305 -0.8402
 8192SOL    HW125292   6.422   0.983   1.834 -0.1021  2.3408 -0.1448
 8192SOL    HW225293   6.490   0.871   1.910  0.3267  0.7256 -2.8504
 8193SOL     OW25294   3.137   5.386   5.647 -0.0092  0.0473  0.6974
 8193SOL    HW125295   3.042   5.377   5.637 -0.0668 -0.4112  1.5623
 8193SOL    HW225296   3.151   5.377   5.742  0.9868 -0.8473  0.4720
 8194SOL     OW25297   0.511   3.501   5.975  0.2782 -0.2465  0.8648
 8194SOL    HW125298   0.468   3.486   6.059  0.4290 -0.0480  0.9780
 8194SOL    HW225299   0.492   3.423   5.924  1.8324 -1.2474  1.7695
 8195SOL     OW25300   6.066   1.560   6.616 -0.3940  0.5312 -0.2985
 8195SOL    HW125301   6.014   1.592   6.543  0.0988  3.7042  0.6924
 8195SOL    HW225302   6.004   1.553   6.689 -0.2947  0.1917 -0.2470
 8196SOL     OW25303   4.980   2.587   0.882 -0.0693  0.2096 -0.1847
 8196SOL    HW125304   4.985   2.639   0.963  1.1976  0.3058 -0.3051
 8196SOL    HW225305   5.000   2.649   0.812 -0.0810 -0.1001 -0.4647
 8197SOL     OW25306   1.430   4.557   2.404  0.1363 -0.4822 -0.7005
 8197SOL    HW125307   1.417   4.652   2.408  0.8220 -0.3403 -1.6406
 8197SOL    HW225308   1.386   4.524   2.482  0.7445  0.6942  0.1589
 8198SOL     OW25309   4.192   2.529   4.947  0.2441 -0.4282 -0.0325
 8198SOL    HW125310   4.102   2.549   4.921  0.2027 -1.0192 -0.3477
 8198SOL    HW225311   4.209   2.589   5.020 -0.7271 -0.9448  0.6310
 8199SOL     OW25312   0.349   0.192   1.127 -0.6240 -0.4968  0.3770
 8199SOL    HW125313   0.407   0.198   1.052  0.7110  0.5249  1.4771
 8199SOL    HW225314   0.355   0.101   1.156 -0.3120 -0.6186 -0.0750
 8200SOL     OW25315   6.335   0.629   6.035 -0.7174 -0.2597  0.3748
 8200SOL    HW125316   6.326   0.686   5.958  0.5657 -0.4110  0.1078
 8200SOL    HW225317   6.393   0.677   6.094  1.2508 -1.7685 -0.3135
 8201SOL     OW25318   0.610   3.804   3.581  0.0611  0.2151 -0.4125
 8201SOL    HW125319   0.544   3.765   3.523  0.1780  0.7691 -0.9216
 8201SOL    HW225320   0.641   3.881   3.533  2.5333 -1.1464 -1.1120
 8202SOL     OW25321   1.797   1.372   0.944  0.0423 -0.1566  0.1332
 8202SOL    HW125322   1.777   1.464   0.962  1.2279 -0.0733  1.1011
 8202SOL    HW225323   1.813   1.369   0.850 -1.7117  0.2906 -0.1968
 8203SOL     OW25324   0.583   5.757   3.513  0.0201  0.2007 -0.1883
 8203SOL    HW125325   0.672   5.755   3.546  0.2530  0.8050 -0.7799
 8203SOL    HW225326   0.559   5.850   3.512  0.3663  0.3121 -2.6038
 8204SOL     OW25327   2.619   5.576   4.123  0.2239  0.0440  0.5113
 8204SOL    HW125328   2.633   5.483   4.143  0.8839 -0.5942 -2.6599
 8204SOL    HW225329   2.699   5.619   4.150 -0.4159 -0.1356  2.8074
 8205SOL     OW25330   5.611   2.339   2.490 -0.3275  0.0663 -0.5626
 8205SOL    HW125331   5.673   2.281   2.534 -0.8773  0.1070  0.2732
 8205SOL    HW225332   5.531   2.288   2.483 -1.2050  1.1269  1.2981
 8206SOL     OW25333   1.783   4.731   1.602 -0.0374  0.2750  0.0226
 8206SOL    HW125334   1.769   4.661   1.667  1.8488 -0.5573 -0.4359
 8206SOL    HW225335   1.736   4.806   1.638 -2.3581 -1.2924  0.3895
 8207SOL     OW25336   2.834   4.627   3.044 -0.5553 -0.6886 -0.1666
 8207SOL    HW125337   2.776   4.701   3.061  0.2638  0.2327 -1.3408
 8207SOL    HW225338   2.798   4.556   3.097 -1.7086  0.3696  0.4940
 8208SOL     OW25339   1.569   0.590   5.749  0.1265  0.5513  0.1567
 8208SOL    HW125340   1.522   0.660   5.704 -0.6136 -0.1080 -0.1192
 8208SOL    HW225341   1.532   0.587   5.837  0.8668  1.1718  0.4935
 8209SOL     OW25342   0.993   0.304   1.975  0.5937  0.6835  0.4264
 8209SOL    HW125343   0.969   0.320   2.066 -0.0899 -0.1182  0.3860
 8209SOL    HW225344   0.940   0.366   1.925 -0.0532  0.1755  0.4756
 8210SOL     OW25345   6.420   5.230   5.461  0.3278 -0.0672  0.0759
 8210SOL    HW125346   6.435   5.317   5.498  0.1309 -1.0077  2.4703
 8210SOL    HW225347   6.326   5.215   5.474  0.3781 -0.6676 -0.2471
 8211SOL     OW25348   3.656   0.515   5.477  0.2046 -0.5008  0.2846
 8211SOL    HW125349   3.693   0.447   5.534  0.3728 -0.1900  0.5449
 8211SOL    HW225350   3.703   0.595   5.500  0.4514 -0.4189 -0.4625
 8212SOL     OW25351   1.214   2.360   2.452 -0.0102 -0.2671 -0.0660
 8212SOL    HW125352   1.268   2.439   2.450 -1.4142  0.7455  1.0161
 8212SOL    HW225353   1.140   2.380   2.394  0.1351 -1.1784 -0.5768
 8213SOL     OW25354   3.689   3.367   1.014 -0.0085 -0.5233  0.1922
 8213SOL    HW125355   3.648   3.325   0.938  1.3902  0.0655 -0.9278
 8213SOL    HW225356   3.616   3.406   1.062 -0.8974 -0.5685 -1.0862
 8214SOL     OW25357   4.348   3.142   3.799 -0.2391 -0.1004  0.6522
 8214SOL    HW125358   4.413   3.212   3.804  0.6793 -0.6914 -2.1088
 8214SOL    HW225359   4.398   3.062   3.819 -0.3894 -0.4089 -0.1924
 8215SOL     OW25360   0.554   4.016   1.468 -0.4300 -0.9706 -0.0611
 8215SOL    HW125361   0.597   3.974   1.393  1.3505  1.5693 -0.5536
 8215SOL    HW225362   0.604   3.988   1.544 -0.2235 -0.9655 -0.1959
 8216SOL     OW25363   6.087   1.043   3.740  0.0207 -0.8735 -1.1699
 8216SOL    HW125364   6.157   1.051   3.804  0.4323 -2.0402 -1.4551
 8216SOL    HW225365   6.092   1.124   3.689  0.3599 -0.4020 -0.4015
 8217SOL     OW25366   1.131   3.467   4.022  0.2907 -0.3612 -0.4306
 8217SOL    HW125367   1.175   3.487   3.940 -1.0060 -0.5596 -1.1850
 8217SOL    HW225368   1.057   3.412   3.997 -0.6940  0.4009  0.7698
 8218SOL     OW25369   3.417   5.196   6.435  0.3590  0.0028 -0.8560
 8218SOL    HW125370   3.371   5.256   6.377 -0.1666  0.1204 -0.3293
 8218SOL    HW225371   3.509   5.213   6.419  0.2270 -0.2835 -1.9748
 8219SOL     OW25372   3.624   5.983   4.592 -0.3011 -0.2677  0.6157
 8219SOL    HW125373   3.537   5.944   4.586 -1.0839  1.3994  0.9072
 8219SOL    HW225374   3.608   6.076   4.603  1.5326  0.7612 -4.2725
 8220SOL     OW25375   5.654   1.428   2.266  0.0426 -0.1299 -0.5692
 8220SOL    HW125376   5.711   1.437   2.190  1.1044  0.2746  0.2492
 8220SOL    HW225377   5.654   1.334   2.286 -0.3922 -0.2609 -1.1719
 8221SOL     OW25378   6.704   4.199   3.022 -0.2730  0.2600 -0.7595
 8221SOL    HW125379   6.747   4.149   2.953 -0.5107  0.1152 -0.8032
 8221SOL    HW225380   6.614   4.165   3.024 -0.0393 -0.3387  0.1965
 8222SOL     OW25381   6.435   6.092   5.808 -0.6757 -0.9807  0.0143
 8222SOL    HW125382   6.516   6.053   5.774 -0.4722 -1.0221  0.5278
 8222SOL    HW225383   6.412   6.037   5.883 -0.0093  0.2595  1.1669
 8223SOL     OW25384   3.689   2.658   2.736  0.2895  0.0179 -0.6388
 8223SOL    HW125385   3.650   2.612   2.662  1.3132 -0.6831 -0.7576
 8223SOL    HW225386   3.615   2.699   2.780 -0.3513  0.3192 -1.9615
 8224SOL     OW25387   3.687   5.711   0.536 -0.1856  0.7843 -0.1448
 8224SOL    HW125388   3.657   5.653   0.467 -1.2136  0.2429  0.7410
 8224SOL    HW225389   3.686   5.657   0.615 -0.5165  1.8200  0.5708
 8225SOL     OW25390   0.872   3.307   2.885 -0.4141  0.4972 -0.3054
 8225SOL    HW125391   0.878   3.222   2.927  1.0261  0.7613  0.0546
 8225SOL    HW225392   0.812   3.358   2.940 -2.2217 -0.6273 -1.1691
 8226SOL     OW25393   5.246   1.963   4.932  0.1776  0.2054  0.4612
 8226SOL    HW125394   5.213   1.925   5.013 -4.4544 -1.0421 -1.8318
 8226SOL    HW225395   5.294   1.892   4.889  0.9074  0.2728  1.1537
 8227SOL     OW25396   1.217   0.227   5.505  0.7557  0.1485  0.0766
 8227SOL    HW125397   1.168   0.271   5.435 -1.0745 -3.0906 -0.8001
 8227SOL    HW225398   1.207   0.285   5.581 -1.1159  1.5105 -1.1403
 8228SOL     OW25399   2.852   2.689   1.965  0.2307  0.3058  0.4135
 8228SOL    HW125400   2.936   2.718   2.001  0.8003 -1.1129  0.2738
 8228SOL    HW225401   2.876   2.633   1.890 -0.7984 -0.8600  0.9296
 8229SOL     OW25402   4.126   3.633   6.563  0.1643  0.4035  0.8667
 8229SOL    HW125403   4.077   3.554   6.542  0.1248  0.4276  0.8672
 8229SOL    HW225404   4.162   3.617   6.650  1.6380 -0.3387  0.1514
 8230SOL     OW25405   3.174   2.490   5.925  0.3550  0.0962 -0.0634
 8230SOL    HW125406   3.260   2.512   5.958  0.7013  0.6969 -1.3147
 8230SOL    HW225407   3.115   2.553   5.965  0.6031  0.1313  0.2425
 8231SOL     OW25408   3.909   4.189   6.050  0.3829 -0.1179  0.4046
 8231SOL    HW125409   3.946   4.105   6.076 -0.4549 -0.6865 -0.1962
 8231SOL    HW225410   3.958   4.213   5.971 -0.5100 -0.8833 -0.4049
 8232SOL     OW25411   4.834   6.601   0.307  0.0019  0.4738  0.0215
 8232SOL    HW125412   4.790   6.534   0.256  0.1839  0.6047 -0.3071
 8232SOL    HW225413   4.864   6.665   0.243  0.2465  0.6291  0.2886
 8233SOL     OW25414   4.610   1.881   0.724  0.4059 -0.1004  0.1404
 8233SOL    HW125415   4.624   1.823   0.649  0.5043 -1.1639  0.9719
 8233SOL    HW225416   4.516   1.896   0.725  0.5080  0.6096 -0.7077
 8234SOL     OW25417   6.376   4.814   0.608 -0.1308 -0.4745  0.6727
 8234SOL    HW125418   6.288   4.850   0.619 -0.5092 -1.2287  0.1569
 8234SOL    HW225419   6.417   4.825   0.694 -0.8657 -0.4798  1.0280
 8235SOL     OW25420   3.061   2.688   5.019 -0.6518 -0.0326  0.5307
 8235SOL    HW125421   3.061   2.616   5.082 -2.3411 -0.6694 -0.1916
 8235SOL    HW225422   2.973   2.689   4.982 -0.2413  1.5354 -0.4672
 8236SOL     OW25423   4.923   6.575   6.010  0.1526 -0.0384 -0.1422
 8236SOL    HW125424   4.849   6.561   6.069 -0.0125  0.0861 -0.3210
 8236SOL    HW225425   4.958   6.487   5.995 -0.4695 -0.1886 -0.7187
 8237SOL     OW25426   3.021   1.690   6.499  0.4227  0.1264 -0.2556
 8237SOL    HW125427   3.049   1.711   6.588  0.9388  0.3258 -0.4664
 8237SOL    HW225428   2.973   1.767   6.470  1.1285  0.4603 -0.5240
 8238SOL     OW25429   4.169   3.203   4.459  0.2464  0.9187 -0.1129
 8238SOL    HW125430   4.080   3.198   4.495 -0.7505  0.0241 -2.6045
 8238SOL    HW225431   4.222   3.152   4.519 -0.8842  1.6328  1.5236
 8239SOL     OW25432   2.734   1.007   2.803 -0.6226 -0.0382 -0.1978
 8239SOL    HW125433   2.717   1.052   2.886  0.1765  0.4972 -0.3126
 8239SOL    HW225434   2.651   1.012   2.756 -0.9851 -0.0507  0.4373
 8240SOL     OW25435   0.261   0.667   5.469 -0.0071  0.3731 -0.2105
 8240SOL    HW125436   0.209   0.674   5.549 -0.5206  1.3060 -0.6138
 8240SOL    HW225437   0.299   0.754   5.457 -2.7510  1.3335 -2.8387
 8241SOL     OW25438   0.813   3.594   1.870  0.0946  0.1107  0.2063
 8241SOL    HW125439   0.719   3.578   1.875 -0.0884  0.5184 -1.6205
 8241SOL    HW225440   0.829   3.662   1.936 -1.0971  0.9000 -0.2954
 8242SOL     OW25441   1.853   6.457   1.224  0.3822  0.0475  0.4560
 8242SOL    HW125442   1.779   6.444   1.165  0.3564 -1.0949  0.7206
 8242SOL    HW225443   1.929   6.427   1.175  0.2630 -1.6061  1.2451
 8243SOL     OW25444   0.366   4.113   4.830 -0.5396 -0.5494 -0.0789
 8243SOL    HW125445   0.300   4.128   4.762 -0.7933 -0.0167  0.2776
 8243SOL    HW225446   0.316   4.117   4.912  0.1154  0.9807  0.2595
 8244SOL     OW25447   1.697   2.176   5.156 -0.6543  0.5295 -0.3303
 8244SOL    HW125448   1.761   2.108   5.133 -1.0390 -1.0799  3.0784
 8244SOL    HW225449   1.740   2.229   5.223 -1.9993  0.9110  0.2540
 8245SOL     OW25450   5.453   0.347   4.594  0.3744 -0.2485  0.1632
 8245SOL    HW125451   5.426   0.300   4.673 -0.3416 -0.3670 -0.1484
 8245SOL    HW225452   5.548   0.358   4.604  0.4242 -1.0509  0.6116
 8246SOL     OW25453   6.030   4.023   5.198  0.2917  0.2506 -0.2245
 8246SOL    HW125454   6.010   3.932   5.218  0.6193 -0.2020 -1.8445
 8246SOL    HW225455   5.986   4.073   5.266 -1.2975 -1.0208 -0.2938
 8247SOL     OW25456   1.344   5.540   6.550 -0.2661 -0.0168 -0.5697
 8247SOL    HW125457   1.253   5.541   6.523  0.0475 -0.2096 -1.6619
 8247SOL    HW225458   1.342   5.559   6.644 -1.4655 -0.6143 -0.4676
 8248SOL     OW25459   5.121   3.920   5.990  0.7205  0.1287  0.2445
 8248SOL    HW125460   5.205   3.896   5.950  0.1684  2.4204 -2.4878
 8248SOL    HW225461   5.055   3.880   5.933 -0.0569  0.8092  0.6452
 8249SOL     OW25462   1.323   3.293   1.668  0.8329 -0.3831 -0.0133
 8249SOL    HW125463   1.296   3.308   1.577 -0.5443 -1.8785  0.1373
 8249SOL    HW225464   1.337   3.198   1.673  1.5999 -0.2064  1.1515
 8250SOL     OW25465   5.656   5.633   4.221  0.5883 -0.2525  0.5226
 8250SOL    HW125466   5.688   5.716   4.257  1.2891 -0.2012 -0.2161
 8250SOL    HW225467   5.704   5.566   4.270  1.7016 -0.1786 -0.4583
 8251SOL     OW25468   3.805   3.688   2.262 -0.3383 -0.0730  0.4089
 8251SOL    HW125469   3.883   3.661   2.311 -0.9798 -0.2555  1.3414
 8251SOL    HW225470   3.743   3.715   2.329 -0.4885  1.6629 -0.4125
 8252SOL     OW25471   4.864   3.225   3.534  0.1919  0.3941  0.3671
 8252SOL    HW125472   4.769   3.214   3.540  0.1203 -0.4449 -1.6903
 8252SOL    HW225473   4.876   3.320   3.528 -0.4677  0.5399  1.1930
 8253SOL     OW25474   2.078   0.241   3.391 -0.5119 -0.1574 -0.4808
 8253SOL    HW125475   2.063   0.167   3.450  2.4816  0.3390  0.9717
 8253SOL    HW225476   2.096   0.314   3.449  1.7087  0.5227 -1.9668
 8254SOL     OW25477   4.040   6.068   1.892  0.0119 -1.3808  0.1966
 8254SOL    HW125478   3.960   6.032   1.853 -0.1956 -2.4551  1.5769
 8254SOL    HW225479   4.010   6.143   1.944  0.4000  0.6491 -2.3758
 8255SOL     OW25480   6.196   4.971   2.154 -0.0631 -0.2902  0.1771
 8255SOL    HW125481   6.150   5.021   2.086  0.2056  1.0282  0.9371
 8255SOL    HW225482   6.145   4.891   2.164 -1.1351  0.3212 -0.3018
 8256SOL     OW25483   6.599   2.316   2.576  0.0743 -0.3999  0.1921
 8256SOL    HW125484   6.525   2.321   2.636 -0.5199  3.7606 -0.7603
 8256SOL    HW225485   6.644   2.400   2.585  2.7701 -1.5585 -1.6611
 8257SOL     OW25486   4.516   5.449   4.914  0.0091 -0.0721 -0.0906
 8257SOL    HW125487   4.505   5.511   4.842  0.7498 -0.0639 -0.2008
 8257SOL    HW225488   4.491   5.498   4.992  0.5960  0.3721 -0.1772
 8258SOL     OW25489   1.025   4.590   0.646 -0.4016  0.0391 -0.3358
 8258SOL    HW125490   0.964   4.521   0.618 -0.6905  0.5481 -0.9798
 8258SOL    HW225491   1.091   4.592   0.576 -0.3458  0.3538 -0.2724
 8259SOL     OW25492   3.649   0.474   6.109 -0.1438 -0.0287 -0.2132
 8259SOL    HW125493   3.671   0.526   6.186 -0.0601 -1.4102  0.7125
 8259SOL    HW225494   3.655   0.536   6.036  1.6124  0.8638  0.6508
 8260SOL     OW25495   5.861   2.665   4.459 -0.1535  0.5747 -0.3225
 8260SOL    HW125496   5.932   2.708   4.507  0.3433 -0.1964 -0.3482
 8260SOL    HW225497   5.881   2.571   4.466 -0.6136  0.4011 -1.1921
 8261SOL     OW25498   5.849   6.252   1.528  0.1650 -0.1004 -0.2091
 8261SOL    HW125499   5.814   6.164   1.514 -3.0515  1.1546 -0.5787
 8261SOL    HW225500   5.937   6.249   1.491 -0.3127 -2.8099 -1.2751
 8262SOL     OW25501   6.747   6.464   5.684 -0.0151 -0.0713  0.1106
 8262SOL    HW125502   6.767   6.553   5.710 -0.6830 -0.3177  1.4958
 8262SOL    HW225503   6.813   6.443   5.618  0.6612  1.1435  0.3878
 8263SOL     OW25504   5.541   2.827   5.048  0.2683  0.5097 -0.1397
 8263SOL    HW125505   5.581   2.859   4.967 -1.1702 -0.3924 -1.2259
 8263SOL    HW225506   5.520   2.907   5.097  2.0511  1.0364 -0.1814
 8264SOL     OW25507   2.071   0.081   4.955 -0.6656 -0.3456  0.2877
 8264SOL    HW125508   2.076   0.107   4.863 -1.7168 -2.3183 -0.3394
 8264SOL    HW225509   2.163   0.077   4.983 -0.3479  0.4776 -0.6027
 8265SOL     OW25510   3.952   4.113   3.135  0.1903  1.0265 -0.2915
 8265SOL    HW125511   3.915   4.123   3.047 -1.4958  0.2075  0.2920
 8265SOL    HW225512   4.043   4.142   3.127 -0.3279  2.2332 -1.9951
 8266SOL     OW25513   1.246   5.384   4.732 -0.4515  0.2350  0.2990
 8266SOL    HW125514   1.306   5.363   4.804 -0.8076  0.9146  0.7958
 8266SOL    HW225515   1.300   5.432   4.670 -0.7213  1.7575  1.2224
 8267SOL     OW25516   1.956   1.203   5.476 -0.3918  0.0766 -0.2789
 8267SOL    HW125517   1.866   1.170   5.472  0.2576 -1.6274 -1.5812
 8267SOL    HW225518   2.002   1.140   5.532 -0.4213  2.0452  2.0601
 8268SOL     OW25519   4.581   6.626   0.630 -0.2479  0.0124 -0.5705
 8268SOL    HW125520   4.529   6.705   0.636 -0.7754 -0.4080  0.5136
 8268SOL    HW225521   4.527   6.565   0.580 -0.1896  0.0662 -0.6982
 8269SOL     OW25522   1.384   2.450   1.334 -0.0510  0.5033 -0.4906
 8269SOL    HW125523   1.395   2.444   1.429 -0.9510  1.4844 -0.3186
 8269SOL    HW225524   1.420   2.536   1.311 -0.3607  0.5136 -0.9501
 8270SOL     OW25525   3.338   1.986   3.129 -0.2002 -0.2345 -0.3643
 8270SOL    HW125526   3.364   1.944   3.046 -1.6148  0.5329 -1.2034
 8270SOL    HW225527   3.243   1.987   3.127 -0.2336  0.4287  0.9763
 8271SOL     OW25528   2.059   0.407   4.027 -0.0698  0.5654 -0.4648
 8271SOL    HW125529   2.092   0.486   4.070 -1.6598 -0.3762  2.6625
 8271SOL    HW225530   1.995   0.439   3.964 -1.5989  1.7520  1.6245
 8272SOL     OW25531   6.183   6.316   4.419  0.0840  0.3851  0.1254
 8272SOL    HW125532   6.274   6.341   4.434  0.2205 -0.3688  0.5627
 8272SOL    HW225533   6.188   6.235   4.369 -0.3567  0.8718 -0.7236
 8273SOL     OW25534   2.687   6.528   3.214  0.4659  0.7106 -0.3249
 8273SOL    HW125535   2.756   6.500   3.273  1.0659  1.9739 -0.4185
 8273SOL    HW225536   2.642   6.598   3.260 -1.0713 -0.4245 -0.0642
 8274SOL     OW25537   6.219   1.721   1.945  0.2050 -0.5517 -0.0350
 8274SOL    HW125538   6.244   1.799   1.994 -0.0576 -0.3140 -0.2821
 8274SOL    HW225539   6.126   1.732   1.928 -0.0312 -1.3463  0.7142
 8275SOL     OW25540   1.964   2.349   2.438 -0.2855  0.1181  0.1625
 8275SOL    HW125541   2.056   2.373   2.430  0.6692 -2.9634  1.0028
 8275SOL    HW225542   1.930   2.407   2.505  0.4559  2.7611 -1.6886
 8276SOL     OW25543   3.488   6.735   3.319 -0.5072 -0.2352 -0.3407
 8276SOL    HW125544   3.467   6.651   3.277 -0.2205  0.4752 -1.9422
 8276SOL    HW225545   3.524   6.788   3.248  2.1932  0.2082  1.3266
 8277SOL     OW25546   2.028   0.794   3.853 -0.2627  0.4470  0.0574
 8277SOL    HW125547   1.988   0.707   3.849  1.7142 -0.3895 -3.4323
 8277SOL    HW225548   1.956   0.854   3.837 -1.5610 -0.5346  1.9826
 8278SOL     OW25549   0.473   6.151   4.965 -0.2775  0.2481 -0.0202
 8278SOL    HW125550   0.474   6.244   4.943 -1.1636  0.7770  1.9568
 8278SOL    HW225551   0.412   6.112   4.903 -0.0330  1.0250 -0.7523
 8279SOL     OW25552   4.958   0.924   3.239 -0.3769  0.7102 -0.1328
 8279SOL    HW125553   5.028   0.990   3.232 -1.6785  2.1831  0.5345
 8279SOL    HW225554   4.957   0.901   3.332  1.9466 -2.3851 -0.7740
 8280SOL     OW25555   3.631   1.755   6.131 -0.1979 -0.2200  0.0033
 8280SOL    HW125556   3.637   1.695   6.057 -1.2909 -0.2684 -0.0517
 8280SOL    HW225557   3.618   1.699   6.207 -1.1854 -0.0655 -0.0432
 8281SOL     OW25558   5.541   6.229   1.329 -0.2182  0.5130  0.0862
 8281SOL    HW125559   5.591   6.188   1.258  0.5332  1.9268 -0.2122
 8281SOL    HW225560   5.548   6.323   1.313 -0.9470  0.8145  1.4279
 8282SOL     OW25561   4.064   4.321   2.316  0.4165  0.2717 -0.2664
 8282SOL    HW125562   4.102   4.347   2.400 -0.6668 -1.2626  0.7460
 8282SOL    HW225563   3.970   4.315   2.334  0.3867 -2.1699 -0.9668
 8283SOL     OW25564   0.799   4.601   5.142 -0.2807  0.2764 -0.0429
 8283SOL    HW125565   0.720   4.588   5.089 -1.4151  1.5753  1.2873
 8283SOL    HW225566   0.867   4.553   5.095 -2.1201 -1.9589 -0.5393
 8284SOL     OW25567   4.942   0.635   1.155 -0.2124  0.5842 -0.1697
 8284SOL    HW125568   4.922   0.599   1.068 -3.1148  1.6871 -0.0122
 8284SOL    HW225569   5.021   0.688   1.141  2.0734 -2.8945 -1.1320
 8285SOL     OW25570   4.537   6.359   3.626  0.6900 -0.6355  0.6250
 8285SOL    HW125571   4.582   6.275   3.637  1.0136 -0.7098 -1.1831
 8285SOL    HW225572   4.583   6.419   3.685  0.4780 -1.7058  1.9012
 8286SOL     OW25573   0.430   3.188   5.415  0.2062 -0.0255 -0.2558
 8286SOL    HW125574   0.519   3.173   5.383  0.9133  0.1061  1.6248
 8286SOL    HW225575   0.380   3.209   5.336  1.6493 -0.9447 -1.4411
 8287SOL     OW25576   3.712   0.581   3.058  0.2231 -0.1095 -0.3597
 8287SOL    HW125577   3.769   0.517   3.016  0.9389 -0.4893  1.1547
 8287SOL    HW225578   3.669   0.532   3.128 -2.0495  0.1548 -1.5342
 8288SOL     OW25579   6.580   1.060   4.138 -0.0233 -0.1764  0.1158
 8288SOL    HW125580   6.648   1.116   4.175 -0.7598 -0.0581  1.3274
 8288SOL    HW225581   6.529   1.030   4.214 -1.0996 -0.5502 -0.7307
 8289SOL     OW25582   0.397   2.269   4.878  0.7530 -0.0992 -0.6062
 8289SOL    HW125583   0.308   2.236   4.878  0.9665 -0.6746 -0.4429
 8289SOL    HW225584   0.401   2.330   4.952  1.1153 -1.7397  0.7522
 8290SOL     OW25585   5.346   6.113   0.133  0.3213 -0.1942 -0.3439
 8290SOL    HW125586   5.301   6.165   0.066 -0.8391 -0.5176  0.1831
 8290SOL    HW225587   5.320   6.023   0.115 -1.0437 -0.1526  1.3421
 8291SOL     OW25588   6.133   3.504   3.052  0.4738 -0.2834  0.5808
 8291SOL    HW125589   6.207   3.489   3.111  0.3968 -1.7862  0.3308
 8291SOL    HW225590   6.069   3.552   3.105  0.2144 -2.0170  1.8855
 8292SOL     OW25591   2.609   4.922   2.708 -0.2977  0.7873 -0.5661
 8292SOL    HW125592   2.583   4.997   2.655  0.3790  1.1222 -0.4296
 8292SOL    HW225593   2.636   4.960   2.792 -1.3048  0.2709  0.0059
 8293SOL     OW25594   4.286   1.556   5.823  0.0965 -0.2530 -0.5901
 8293SOL    HW125595   4.330   1.540   5.739 -0.1635 -3.1809 -0.2126
 8293SOL    HW225596   4.347   1.522   5.888 -0.7079 -0.0737  0.2548
 8294SOL     OW25597   5.879   2.869   4.262 -0.3236 -0.0514  0.4416
 8294SOL    HW125598   5.851   2.813   4.334  0.5212 -2.2625 -0.8969
 8294SOL    HW225599   5.824   2.842   4.188 -0.1350  1.1271 -0.1423
 8295SOL     OW25600   0.132   3.633   6.099 -0.0601  0.3088 -0.2881
 8295SOL    HW125601   0.066   3.675   6.044 -0.4179  1.5910  1.0902
 8295SOL    HW225602   0.173   3.705   6.147  3.1601 -0.3106 -1.9323
 8296SOL     OW25603   0.068   6.611   6.152 -0.1760 -0.3001 -0.5965
 8296SOL    HW125604   0.141   6.635   6.094  0.9562  0.0573  0.9362
 8296SOL    HW225605   0.107   6.548   6.213 -1.6740 -1.6375 -0.9715
 8297SOL     OW25606   2.942   4.363   5.349  0.3994  0.2232 -0.3428
 8297SOL    HW125607   2.881   4.358   5.276  0.0426  1.6739 -0.1682
 8297SOL    HW225608   2.886   4.385   5.424  0.4754 -3.1445  0.7664
 8298SOL     OW25609   4.466   6.362   6.436  0.9994  0.5330  0.3182
 8298SOL    HW125610   4.417   6.303   6.378  0.0596 -0.4648  2.0535
 8298SOL    HW225611   4.472   6.444   6.389 -0.1103 -0.1340 -1.0034
 8299SOL     OW25612   5.561   5.010   2.205 -0.0816 -0.0054 -0.1253
 8299SOL    HW125613   5.645   5.051   2.182  0.7520 -1.1888  0.7739
 8299SOL    HW225614   5.547   5.032   2.297 -1.0206  0.6073 -0.4020
 8300SOL     OW25615   3.009   5.446   6.497 -0.0221  0.2170 -0.1126
 8300SOL    HW125616   3.038   5.358   6.521  1.0042  0.9638  1.4367
 8300SOL    HW225617   2.945   5.470   6.563 -0.8083  0.3752 -0.9244
 8301SOL     OW25618   0.370   2.736   4.471 -0.0050 -0.1694 -0.2077
 8301SOL    HW125619   0.456   2.779   4.474  0.6142 -1.4336  0.5499
 8301SOL    HW225620   0.377   2.665   4.535 -0.7276 -1.9579 -2.0995
 8302SOL     OW25621   2.142   1.080   3.002 -0.2555  0.5954  0.5253
 8302SOL    HW125622   2.136   1.104   3.094  0.9948 -0.7603  0.9987
 8302SOL    HW225623   2.218   1.127   2.969 -0.6451  1.0072  0.2097
 8303SOL     OW25624   0.426   5.440   4.050  0.8499 -1.0120  0.1581
 8303SOL    HW125625   0.409   5.402   3.964 -0.5252  0.2353 -0.1390
 8303SOL    HW225626   0.419   5.367   4.111 -1.6857 -1.2778 -0.3999
 8304SOL     OW25627   1.601   0.281   4.516 -0.2091  0.5711 -0.2259
 8304SOL    HW125628   1.520   0.233   4.499 -1.2350  2.2663 -0.1636
 8304SOL    HW225629   1.623   0.321   4.432  2.2502 -2.3560 -1.0601
 8305SOL     OW25630   6.289   4.343   3.243  0.4918  0.7986 -1.0142
 8305SOL    HW125631   6.369   4.376   3.285  2.7858 -2.2756 -2.7102
 8305SOL    HW225632   6.231   4.320   3.316  1.1652  2.9740  0.2474
 8306SOL     OW25633   5.964   2.235   1.575 -0.0847 -0.2733 -0.4268
 8306SOL    HW125634   5.982   2.198   1.489 -0.2991  1.0101 -1.0273
 8306SOL    HW225635   6.045   2.218   1.625 -0.4838 -2.2790 -0.4171
 8307SOL     OW25636   0.843   1.057   4.487  0.5676 -0.0888  0.2117
 8307SOL    HW125637   0.850   0.968   4.522 -0.7291 -0.1325  0.4017
 8307SOL    HW225638   0.933   1.088   4.480  1.1029 -1.8173 -0.8635
 8308SOL     OW25639   3.602   5.510   0.355 -0.6220 -0.7724 -0.0015
 8308SOL    HW125640   3.612   5.540   0.265 -0.1825 -0.6934  0.0698
 8308SOL    HW225641   3.664   5.438   0.364 -3.2157 -3.2024 -0.8117
 8309SOL     OW25642   3.695   4.431   3.534  0.1246 -0.4585  0.0405
 8309SOL    HW125643   3.671   4.436   3.626 -1.4586 -0.9464 -0.3342
 8309SOL    HW225644   3.613   4.443   3.486  0.8727 -0.5240 -1.2993
 8310SOL     OW25645   5.366   3.775   2.860 -0.9531 -0.2580 -0.5072
 8310SOL    HW125646   5.401   3.687   2.872  1.4949  0.6503 -0.6609
 8310SOL    HW225647   5.349   3.807   2.949 -0.6374 -0.4425 -0.3794
 8311SOL     OW25648   3.750   3.640   1.397 -0.8551  0.7408  0.1075
 8311SOL    HW125649   3.777   3.709   1.458  1.3750  0.2705 -0.3099
 8311SOL    HW225650   3.782   3.559   1.436 -0.3129  0.3265 -1.1412
 8312SOL     OW25651   4.253   3.643   3.706  0.3343 -0.1925 -0.0641
 8312SOL    HW125652   4.260   3.717   3.645  0.6658  1.5015  1.9664
 8312SOL    HW225653   4.191   3.583   3.664  0.1122  1.2102 -1.7890
 8313SOL     OW25654   4.392   1.773   3.118 -0.0088 -0.8291  0.2761
 8313SOL    HW125655   4.397   1.834   3.044 -0.6913  0.0329  0.9268
 8313SOL    HW225656   4.459   1.707   3.099  0.8609  0.2096 -0.3592
 8314SOL     OW25657   0.319   3.288   2.023  0.1340  0.1651 -0.0327
 8314SOL    HW125658   0.308   3.298   2.117 -0.3504  0.2706 -0.1036
 8314SOL    HW225659   0.398   3.234   2.014  0.1409  0.0980  0.4334
 8315SOL     OW25660   6.302   5.816   2.153 -0.3380 -0.1000  0.1043
 8315SOL    HW125661   6.300   5.879   2.225 -1.9677 -0.0640  0.0330
 8315SOL    HW225662   6.240   5.850   2.089  1.5572  0.1979 -1.6207
 8316SOL     OW25663   3.810   0.068   6.744  0.0376  0.1180  0.0503
 8316SOL    HW125664   3.844  -0.007   6.792 -0.6979  0.8227  1.6814
 8316SOL    HW225665   3.719   0.044   6.724 -0.2528  0.6630  0.7350
 8317SOL     OW25666   6.321   6.325   5.609 -0.2165 -0.2225 -0.4086
 8317SOL    HW125667   6.322   6.230   5.599 -0.1343 -0.2771  0.1072
 8317SOL    HW225668   6.260   6.341   5.681 -0.2385  0.1150 -0.5002
 8318SOL     OW25669   4.732   0.060   4.674 -0.9086 -0.3809  0.3808
 8318SOL    HW125670   4.674   0.135   4.662 -0.0899  0.1133 -0.5274
 8318SOL    HW225671   4.745   0.055   4.769 -1.0735  0.5413  0.4600
 8319SOL     OW25672   5.804   6.390   2.471  1.0024  0.6191  0.4226
 8319SOL    HW125673   5.793   6.311   2.524 -0.7051  2.2585  2.6248
 8319SOL    HW225674   5.725   6.393   2.417  0.8985  0.9758  0.5907
 8320SOL     OW25675   0.458   0.435   0.671 -0.3048 -0.2437 -0.1417
 8320SOL    HW125676   0.521   0.400   0.608  0.6790  0.8660  0.2032
 8320SOL    HW225677   0.420   0.357   0.712 -0.8016 -0.9825 -1.9189
 8321SOL     OW25678   0.851   5.441   5.657 -0.3308 -0.4185  0.5654
 8321SOL    HW125679   0.918   5.502   5.685 -0.0495 -1.3377  1.9606
 8321SOL    HW225680   0.895   5.356   5.653 -1.2730 -0.9378  0.9734
 8322SOL     OW25681   5.914   5.972   4.718  0.1467 -0.1478  0.1035
 8322SOL    HW125682   5.908   5.881   4.747 -1.3046  0.3987  1.6017
 8322SOL    HW225683   5.992   6.006   4.763  0.2745 -0.4572  0.1145
 8323SOL     OW25684   0.482   4.184   4.428  0.2493  0.4146 -0.3116
 8323SOL    HW125685   0.562   4.133   4.425  1.1293  1.7718 -0.3307
 8323SOL    HW225686   0.420   4.129   4.477  1.7301  0.0969  1.2230
 8324SOL     OW25687   3.116   2.761   2.051 -0.0549  0.0012  0.6067
 8324SOL    HW125688   3.170   2.834   2.022  0.4601  0.1025  1.7751
 8324SOL    HW225689   3.160   2.684   2.017  0.5795  0.1120  1.1639
 8325SOL     OW25690   1.074   6.630   5.480  0.3577  0.0722 -0.2184
 8325SOL    HW125691   1.061   6.631   5.385 -0.7403  1.5122 -0.0704
 8325SOL    HW225692   0.990   6.658   5.516  0.9238  0.0157  1.1612
 8326SOL     OW25693   3.193   1.599   5.265  0.1720 -0.7444 -0.0016
 8326SOL    HW125694   3.273   1.651   5.260 -0.2420 -0.0192  0.7845
 8326SOL    HW225695   3.174   1.575   5.174 -0.3267  1.5518 -0.5336
 8327SOL     OW25696   1.948   6.493   5.485 -0.4304 -0.2306  0.2166
 8327SOL    HW125697   1.967   6.562   5.549  3.7679 -1.6211  0.6333
 8327SOL    HW225698   1.954   6.412   5.535 -1.4261 -1.1212 -1.0754
 8328SOL     OW25699   4.602   5.485   4.501  0.3577  0.0189 -0.2376
 8328SOL    HW125700   4.512   5.462   4.527  0.7182 -0.3077  0.7461
 8328SOL    HW225701   4.626   5.420   4.435 -0.6041  0.9086 -1.4952
 8329SOL     OW25702   6.274   4.750   1.020 -0.2519 -0.0313  0.3071
 8329SOL    HW125703   6.208   4.689   0.988  0.1595 -0.6138  0.5568
 8329SOL    HW225704   6.229   4.834   1.025  0.0475  0.4361 -3.2386
 8330SOL     OW25705   5.488   0.329   1.293  0.9306  0.2577  0.0621
 8330SOL    HW125706   5.466   0.252   1.345 -2.0558  0.5974 -0.5804
 8330SOL    HW225707   5.466   0.305   1.203  0.2560  1.7300 -0.1880
 8331SOL     OW25708   6.727   3.363   4.680  0.1427  0.7794  0.0232
 8331SOL    HW125709   6.775   3.345   4.761 -1.7132  1.0918  1.2363
 8331SOL    HW225710   6.785   3.419   4.629  1.6110  0.0257  0.8273
 8332SOL     OW25711   3.488   6.591   0.457  0.3990  0.1284  0.6151
 8332SOL    HW125712   3.521   6.678   0.436  0.9248 -0.3202 -0.4939
 8332SOL    HW225713   3.506   6.580   0.550  0.2766  1.2177  0.7764
 8333SOL     OW25714   6.021   4.294   6.343  0.2399  0.0535 -0.1161
 8333SOL    HW125715   5.936   4.270   6.379 -0.4024 -0.0237 -1.6394
 8333SOL    HW225716   6.055   4.213   6.305  1.2614 -0.0504  0.9877
 8334SOL     OW25717   1.525   0.870   1.497 -0.1760 -0.1026 -0.2954
 8334SOL    HW125718   1.472   0.838   1.570  0.2916  0.8223  0.4619
 8334SOL    HW225719   1.566   0.949   1.531  2.3770 -1.2544 -0.5658
 8335SOL     OW25720   5.285   2.586   4.169  0.6586  0.5184  0.0481
 8335SOL    HW125721   5.212   2.613   4.224  0.8899 -0.4857  0.8669
 8335SOL    HW225722   5.356   2.646   4.193  0.8326 -0.0702  1.0480
 8336SOL     OW25723   4.900   4.735   1.604 -0.2742 -0.2416 -0.5455
 8336SOL    HW125724   4.884   4.795   1.677  0.2518  0.7236 -1.1987
 8336SOL    HW225725   4.817   4.689   1.592 -0.8956  0.8136 -0.4249
 8337SOL     OW25726   1.892   6.250   5.619 -0.5074 -0.0258  0.1484
 8337SOL    HW125727   1.913   6.211   5.534  0.7375  0.2850  0.2960
 8337SOL    HW225728   1.922   6.185   5.683 -0.4017  0.2263  0.3578
 8338SOL     OW25729   6.579   5.282   0.056 -0.2337 -0.0336  0.0782
 8338SOL    HW125730   6.506   5.221   0.052  1.2913 -1.9709  0.8453
 8338SOL    HW225731   6.655   5.227   0.076  1.1197  2.1752  1.1999
 8339SOL     OW25732   1.076   4.702   4.435  0.7521  0.2132 -0.1692
 8339SOL    HW125733   1.106   4.669   4.350 -0.0243 -0.5354 -0.1703
 8339SOL    HW225734   0.987   4.735   4.418  0.3570 -0.4910  0.4645
 8340SOL     OW25735   3.703   4.740   3.702 -0.4090  0.2880  0.0457
 8340SOL    HW125736   3.642   4.756   3.629 -1.1287 -1.3489  0.2606
 8340SOL    HW225737   3.670   4.659   3.743  0.0902  1.0901  2.0783
 8341SOL     OW25738   0.124   1.798   5.236 -0.3585 -0.1079  0.3190
 8341SOL    HW125739   0.176   1.862   5.286 -0.7178 -1.1977  2.1329
 8341SOL    HW225740   0.142   1.714   5.279 -1.3176 -0.9497 -0.9021
 8342SOL     OW25741   3.321   2.304   6.487 -0.0226 -0.2626  0.0103
 8342SOL    HW125742   3.356   2.269   6.405 -0.5957 -0.1345 -0.2839
 8342SOL    HW225743   3.238   2.259   6.500 -1.6181  2.2059 -1.2471
 8343SOL     OW25744   0.504   0.449   3.803 -0.4890 -0.0305  0.3063
 8343SOL    HW125745   0.445   0.524   3.797  0.4121  0.5379 -1.9322
 8343SOL    HW225746   0.583   0.485   3.843 -0.5281 -0.0818  0.4296
 8344SOL     OW25747   6.674   6.452   2.615  0.3563 -0.0552  0.4964
 8344SOL    HW125748   6.593   6.466   2.665 -0.2932  2.6524 -1.2176
 8344SOL    HW225749   6.659   6.370   2.569 -0.5125 -0.7144  1.9197
 8345SOL     OW25750   6.443   6.145   3.301  0.2268 -0.2185  0.8734
 8345SOL    HW125751   6.366   6.193   3.331  0.3771  0.7199 -0.2475
 8345SOL    HW225752   6.424   6.122   3.210  1.1651 -0.1957  0.6659
 8346SOL     OW25753   3.268   0.768   3.118  0.0909 -0.5389  0.1133
 8346SOL    HW125754   3.190   0.768   3.173 -0.5773 -1.9189 -0.8015
 8346SOL    HW225755   3.264   0.851   3.070 -0.6106 -0.4406  0.3376
 8347SOL     OW25756   3.797   0.626   5.834  0.1494 -0.0604 -0.1837
 8347SOL    HW125757   3.834   0.714   5.844  0.9721 -0.3074 -1.0089
 8347SOL    HW225758   3.870   0.567   5.851  0.1814 -0.5464 -1.9069
 8348SOL     OW25759   1.334   4.323   4.191  0.0651 -0.1202 -0.0532
 8348SOL    HW125760   1.413   4.357   4.233 -0.1325 -0.0424  0.2545
 8348SOL    HW225761   1.318   4.239   4.234  0.1655 -0.2890 -0.3425
 8349SOL     OW25762   6.641   3.062   3.282  0.1805  0.4252  0.1845
 8349SOL    HW125763   6.573   3.024   3.338  0.1749  0.2239  0.0400
 8349SOL    HW225764   6.608   3.150   3.262 -1.1208 -0.4595 -1.7391
 8350SOL     OW25765   0.801   4.972   2.584  0.6713  0.3802  0.5334
 8350SOL    HW125766   0.750   5.047   2.552  0.7723 -0.3545 -1.4019
 8350SOL    HW225767   0.764   4.954   2.670 -2.7228 -0.4010 -0.9820
 8351SOL     OW25768   1.994   6.642   3.937  0.9670  0.0328  0.7123
 8351SOL    HW125769   1.999   6.560   3.985 -2.7793  0.6206  2.2836
 8351SOL    HW225770   1.935   6.623   3.864  1.4329  0.9008  0.0977
 8352SOL     OW25771   5.390   0.945   5.055 -0.0216  0.6985 -0.0945
 8352SOL    HW125772   5.393   0.930   4.961 -1.2699 -1.0547  0.1050
 8352SOL    HW225773   5.480   0.935   5.084  0.4235  1.6027 -1.1437
 8353SOL     OW25774   5.097   4.191   5.397  0.1700 -0.5388 -0.1644
 8353SOL    HW125775   5.019   4.233   5.360  0.3717  1.1084  1.2522
 8353SOL    HW225776   5.147   4.162   5.320 -2.5781 -3.1030 -1.1194
 8354SOL     OW25777   0.175   4.234   2.348  0.4884  0.5516 -0.2098
 8354SOL    HW125778   0.092   4.203   2.384  0.4814  0.6385 -0.1502
 8354SOL    HW225779   0.149   4.300   2.283  0.6027  2.6701  1.8270
 8355SOL     OW25780   4.810   5.464   5.724  1.2090  0.2125 -0.3116
 8355SOL    HW125781   4.819   5.425   5.811  3.6514  1.8586  0.2013
 8355SOL    HW225782   4.896   5.452   5.683  1.0341  2.2429 -1.3181
 8356SOL     OW25783   5.034   3.116   0.090 -0.3067 -0.4189 -0.3665
 8356SOL    HW125784   5.074   3.169   0.022  0.7285  0.5256  0.9535
 8356SOL    HW225785   4.959   3.074   0.047  0.1854  0.3493 -2.0008
 8357SOL     OW25786   0.565   3.429   1.090 -0.4892  0.6875 -0.2917
 8357SOL    HW125787   0.507   3.369   1.042  1.1540 -0.1930 -1.2266
 8357SOL    HW225788   0.601   3.486   1.023  1.1019  0.0554  0.0107
 8358SOL     OW25789   6.165   5.276   2.256  0.2537  0.1230  0.0983
 8358SOL    HW125790   6.136   5.367   2.243  1.4735  0.4391 -0.4388
 8358SOL    HW225791   6.163   5.238   2.168 -0.0288 -0.3123  0.2910
 8359SOL     OW25792   3.938   3.226   0.458  0.2854 -0.3446  0.1880
 8359SOL    HW125793   4.029   3.202   0.442 -0.0513 -1.7477  0.3613
 8359SOL    HW225794   3.919   3.189   0.544 -0.2957  0.4211  0.3952
 8360SOL     OW25795   0.573   6.025   0.519  0.4408 -0.3521 -0.4173
 8360SOL    HW125796   0.643   6.074   0.475  0.9196 -0.7715 -0.1324
 8360SOL    HW225797   0.523   5.985   0.448  0.3227  0.1774 -0.6335
 8361SOL     OW25798   2.433   1.288   4.111 -0.2706  0.6399 -0.1099
 8361SOL    HW125799   2.450   1.382   4.100  1.9491  0.2401 -0.3872
 8361SOL    HW225800   2.516   1.253   4.144 -0.8892 -1.3281 -0.6057
 8362SOL     OW25801   5.593   1.103   4.294  0.0476  0.1327 -0.0986
 8362SOL    HW125802   5.583   1.030   4.233  0.6399  0.1668 -0.2416
 8362SOL    HW225803   5.667   1.078   4.350 -0.9438 -0.2220  1.0727
 8363SOL     OW25804   0.327   1.471   6.257  0.4931 -0.9365  0.0106
 8363SOL    HW125805   0.295   1.543   6.312 -1.8092 -1.7532 -0.2099
 8363SOL    HW225806   0.405   1.439   6.302  0.2383  0.2299  1.3093
 8364SOL     OW25807   6.553   0.726   1.747 -0.3938  0.0252  0.2414
 8364SOL    HW125808   6.614   0.684   1.687  0.9371  1.9671  0.1799
 8364SOL    HW225809   6.609   0.766   1.813 -1.5908  2.0322  0.0677
 8365SOL     OW25810   0.258   1.082   4.903 -0.1416 -0.4127 -0.5447
 8365SOL    HW125811   0.336   1.116   4.858  0.3728 -0.2538  0.4606
 8365SOL    HW225812   0.286   1.069   4.993 -1.2946 -0.3123 -0.1642
 8366SOL     OW25813   3.900   1.685   5.335 -0.6713  0.3342 -0.1232
 8366SOL    HW125814   3.873   1.747   5.268  0.2991  0.3960 -0.4743
 8366SOL    HW225815   3.918   1.604   5.287  0.7505  0.5920 -0.0600
 8367SOL     OW25816   1.584   6.328   5.010  0.1811 -0.2123  0.6598
 8367SOL    HW125817   1.540   6.253   5.050  0.8817 -2.1225 -1.9999
 8367SOL    HW225818   1.659   6.345   5.066  1.6179 -3.3568 -0.1783
 8368SOL     OW25819   3.547   1.538   0.673  0.4500 -0.4709 -0.2853
 8368SOL    HW125820   3.518   1.518   0.584 -0.3157 -1.1500  0.1098
 8368SOL    HW225821   3.504   1.621   0.695 -0.3094 -0.9077 -0.1119
 8369SOL     OW25822   4.390   2.308   3.581 -0.7192  0.2482 -0.0475
 8369SOL    HW125823   4.476   2.333   3.548  0.1416 -1.7810  0.5622
 8369SOL    HW225824   4.370   2.226   3.535 -1.5034 -0.2658  1.1833
 8370SOL     OW25825   2.730   1.050   4.020  0.0721 -0.3517  0.6458
 8370SOL    HW125826   2.769   1.081   3.938 -1.2218  0.4077  0.3110
 8370SOL    HW225827   2.663   0.988   3.993  0.0437 -0.5457  1.1564
 8371SOL     OW25828   2.005   2.873   4.807  1.0828  0.3198  0.0043
 8371SOL    HW125829   2.082   2.919   4.774  1.5704 -1.6249 -1.7515
 8371SOL    HW225830   1.936   2.893   4.744  1.2730 -1.1797 -0.7206
 8372SOL     OW25831   0.754   4.228   0.965 -0.2224 -0.0757  0.9770
 8372SOL    HW125832   0.752   4.133   0.962  1.4216 -0.0536 -1.4690
 8372SOL    HW225833   0.677   4.255   0.915  1.0558 -0.1162 -1.0476
 8373SOL     OW25834   1.407   4.177   2.519  0.2477 -0.3655  0.3290
 8373SOL    HW125835   1.438   4.257   2.476 -0.7949 -0.5897 -0.8525
 8373SOL    HW225836   1.476   4.156   2.582  0.3652  1.6715  0.9258
 8374SOL     OW25837   5.509   4.443   3.745  0.3982  0.0971  0.0400
 8374SOL    HW125838   5.543   4.415   3.660 -1.7100 -0.4485 -0.6680
 8374SOL    HW225839   5.425   4.397   3.753  0.0296  1.0512  1.8952
 8375SOL     OW25840   0.104   6.276   3.715  0.0600  0.6227 -0.9595
 8375SOL    HW125841   0.059   6.193   3.729  0.3679  0.5616 -0.2859
 8375SOL    HW225842   0.174   6.276   3.780 -1.6130  2.6266  0.9200
 8376SOL     OW25843   4.417   6.695   2.790  0.5482 -0.3990  0.8579
 8376SOL    HW125844   4.324   6.690   2.770  0.5141 -0.8507  1.1376
 8376SOL    HW225845   4.426   6.655   2.876  1.2880 -2.3248 -0.0811
 8377SOL     OW25846   3.712   6.222   5.819  0.4079 -0.0882 -0.2101
 8377SOL    HW125847   3.778   6.260   5.877 -0.0651 -1.2896  1.1512
 8377SOL    HW225848   3.636   6.280   5.827  0.5003 -0.0012  0.0299
 8378SOL     OW25849   5.803   0.750   2.022 -0.0802  0.1988 -0.3950
 8378SOL    HW125850   5.746   0.677   1.997  0.0504  0.4215 -1.3518
 8378SOL    HW225851   5.757   0.828   1.993  0.2945  0.4346 -0.3624
 8379SOL     OW25852   3.042   5.677   3.421  1.0033 -0.2682  0.6566
 8379SOL    HW125853   3.075   5.765   3.436  0.9527 -0.0731 -0.3523
 8379SOL    HW225854   3.058   5.661   3.328  0.4818 -1.0995  0.7066
 8380SOL     OW25855   3.298   0.597   6.735  0.0623  0.3201  0.2123
 8380SOL    HW125856   3.264   0.685   6.714 -0.4562 -0.5736 -3.0133
 8380SOL    HW225857   3.224   0.552   6.775 -0.0470  0.9582  0.7436
 8381SOL     OW25858   6.296   5.965   1.558 -0.0016 -0.3334  0.0681
 8381SOL    HW125859   6.330   5.885   1.598 -1.1959 -0.9636 -0.1634
 8381SOL    HW225860   6.202   5.949   1.546 -0.4228  1.4014  0.7674
 8382SOL     OW25861   5.817   3.975   2.769 -0.2446 -0.1972 -0.3981
 8382SOL    HW125862   5.894   3.925   2.744 -0.9970 -0.7690 -1.5630
 8382SOL    HW225863   5.743   3.918   2.749 -0.9758  0.3128  0.7918
 8383SOL     OW25864   2.381   4.976   2.114  0.0001  0.1682 -1.0249
 8383SOL    HW125865   2.360   4.971   2.021 -0.3874  0.9096 -0.9826
 8383SOL    HW225866   2.417   4.890   2.136  0.2069  0.0365 -1.8873
 8384SOL     OW25867   3.260   3.609   5.608  0.1685 -0.3107 -0.3265
 8384SOL    HW125868   3.261   3.636   5.516 -1.0990  0.3002 -0.1695
 8384SOL    HW225869   3.196   3.668   5.649  0.2389 -1.0227  0.8068
 8385SOL     OW25870   2.538   5.898   6.562 -0.1237  0.3281  0.0165
 8385SOL    HW125871   2.561   5.934   6.648  0.6368  0.4148 -0.2166
 8385SOL    HW225872   2.504   5.973   6.513  0.6785  0.5569 -0.1924
 8386SOL     OW25873   3.295   2.138   3.824  0.0283  0.4070  0.5760
 8386SOL    HW125874   3.304   2.190   3.903  0.9431  2.4385 -0.8126
 8386SOL    HW225875   3.201   2.135   3.808 -0.0076  2.5312  0.1565
 8387SOL     OW25876   4.022   0.779   3.415  0.2658 -0.1289 -0.0552
 8387SOL    HW125877   3.991   0.830   3.340 -1.0749  0.5640  0.9212
 8387SOL    HW225878   3.953   0.791   3.481  1.6115 -0.3787  1.4223
 8388SOL     OW25879   2.642   0.025   4.590 -0.1113  0.3989  0.0867
 8388SOL    HW125880   2.547   0.020   4.576  0.2720  1.0050 -3.0073
 8388SOL    HW225881   2.680  -0.006   4.508  2.3903  0.5803  1.1388
 8389SOL     OW25882   6.309   2.574   4.826 -0.4273  0.6299 -0.6413
 8389SOL    HW125883   6.387   2.629   4.826 -0.1290  0.2131 -1.4227
 8389SOL    HW225884   6.236   2.635   4.815 -0.1023  0.8776 -1.4431
 8390SOL     OW25885   2.459   5.896   3.808  0.2260 -0.0131 -0.1927
 8390SOL    HW125886   2.532   5.836   3.790  0.5560 -0.2257  1.7198
 8390SOL    HW225887   2.499   5.983   3.805  0.1879 -0.0192 -0.8925
 8391SOL     OW25888   4.211   1.936   0.013  0.0935 -0.0199  0.1044
 8391SOL    HW125889   4.197   1.901  -0.074 -0.5049  0.1956  0.1152
 8391SOL    HW225890   4.214   2.031   0.001 -0.8255  0.0573  0.4316
 8392SOL     OW25891   6.053   1.105   1.786  0.1719  0.2917 -0.1375
 8392SOL    HW125892   6.048   1.107   1.691 -0.5006 -0.1898 -0.1200
 8392SOL    HW225893   5.996   1.176   1.815 -3.0949 -2.2084 -0.0328
 8393SOL     OW25894   3.435   0.573   3.696  0.4445 -0.1858  0.5821
 8393SOL    HW125895   3.503   0.602   3.757  2.3893 -0.6890 -1.2984
 8393SOL    HW225896   3.431   0.642   3.629  0.2120 -0.9125 -0.1588
 8394SOL     OW25897   2.005   5.424   0.091 -0.8593  0.1571 -0.0297
 8394SOL    HW125898   1.994   5.426  -0.004  1.6095  2.4720 -0.3183
 8394SOL    HW225899   1.990   5.514   0.119 -0.9199 -0.3690  1.7128
 8395SOL     OW25900   2.262   0.833   0.568 -0.6109 -0.2850  0.5858
 8395SOL    HW125901   2.309   0.796   0.643  0.5915  1.2260  0.5930
 8395SOL    HW225902   2.249   0.758   0.509  1.0345 -0.9031  0.9798
 8396SOL     OW25903   0.193   4.305   2.678  0.7389  0.2287 -1.1065
 8396SOL    HW125904   0.228   4.229   2.725 -0.0051 -0.0893 -1.0701
 8396SOL    HW225905   0.255   4.319   2.606  0.9319 -0.3401 -1.0513
 8397SOL     OW25906   6.309   6.752   4.865  0.1897 -0.2512 -0.0450
 8397SOL    HW125907   6.390   6.737   4.914 -0.0165  0.7261  0.6074
 8397SOL    HW225908   6.251   6.797   4.926 -0.7288 -0.6271 -0.6217
 8398SOL     OW25909   3.561   4.875   1.638 -0.3575 -0.1326  0.4322
 8398SOL    HW125910   3.518   4.871   1.552  2.7674 -4.9089 -1.1431
 8398SOL    HW225911   3.498   4.834   1.697 -1.4020  0.6426 -0.1154
 8399SOL     OW25912   2.902   4.401   0.328 -0.3118 -0.0254 -0.6194
 8399SOL    HW125913   2.917   4.453   0.407 -1.4068  1.1712 -1.1824
 8399SOL    HW225914   2.962   4.436   0.263  0.9615 -1.3585 -0.1772
 8400SOL     OW25915   1.801   1.421   4.676 -0.0102 -0.0145  0.2128
 8400SOL    HW125916   1.744   1.375   4.737 -0.2885  0.5393  0.3648
 8400SOL    HW225917   1.827   1.354   4.613 -1.3246 -0.1240 -0.2210
 8401SOL     OW25918   2.724   5.571   4.573 -0.0456 -0.1075 -0.0154
 8401SOL    HW125919   2.766   5.505   4.519  0.3797  0.5476 -0.4955
 8401SOL    HW225920   2.765   5.560   4.659  0.6116  0.0570 -0.2976
 8402SOL     OW25921   0.599   0.355   6.319 -0.4247  1.0168 -0.3879
 8402SOL    HW125922   0.616   0.266   6.287  1.8813  0.4836  2.0910
 8402SOL    HW225923   0.529   0.345   6.382 -0.0180  0.9168  0.0492
 8403SOL     OW25924   6.019   3.810   2.759 -0.3949  0.1493  0.6543
 8403SOL    HW125925   5.989   3.766   2.680 -0.0963  1.0261  0.0441
 8403SOL    HW225926   6.113   3.792   2.763 -0.9128 -2.4486  2.4719
 8404SOL     OW25927   1.631   4.028   0.260 -0.2720 -0.2138 -0.1446
 8404SOL    HW125928   1.655   4.108   0.307 -0.7835 -1.0089  1.5332
 8404SOL    HW225929   1.560   3.991   0.312 -1.1297 -0.9260 -1.7990
 8405SOL     OW25930   2.937   5.546   1.144  0.2458 -0.0266  0.2449
 8405SOL    HW125931   2.865   5.508   1.095 -0.1306  1.3177 -0.2716
 8405SOL    HW225932   2.898   5.578   1.225  0.5760 -0.8243  0.7211
 8406SOL     OW25933   1.111   1.082   2.641  0.3219  0.4180  0.1676
 8406SOL    HW125934   1.099   1.177   2.648  0.8888  0.5161 -0.1623
 8406SOL    HW225935   1.053   1.046   2.707 -0.1133  0.9856  0.1034
 8407SOL     OW25936   6.547   5.616   1.369  0.4616 -0.3195  0.2247
 8407SOL    HW125937   6.533   5.551   1.300 -0.7194  1.1568 -0.9668
 8407SOL    HW225938   6.631   5.592   1.408 -0.0689 -2.7061 -0.0185
 8408SOL     OW25939   2.620   2.009   4.610 -0.4823 -0.2613  0.2699
 8408SOL    HW125940   2.654   2.090   4.572  0.3969  0.0384  1.6574
 8408SOL    HW225941   2.626   1.946   4.539 -1.8554  1.0602 -1.0502
 8409SOL     OW25942   3.495   4.528   5.241  0.0982  0.1887  0.2346
 8409SOL    HW125943   3.429   4.491   5.182 -1.2132  2.1738  0.4449
 8409SOL    HW225944   3.515   4.456   5.302 -2.6584 -0.1219  0.8379
 8410SOL     OW25945   5.916   4.432   4.475 -0.8401 -0.2797  0.2514
 8410SOL    HW125946   5.928   4.346   4.514  2.3621  0.0211  0.0223
 8410SOL    HW225947   5.897   4.414   4.383  1.4891 -0.7426 -0.1733
 8411SOL     OW25948   6.092   4.471   2.886 -0.3768  0.5013 -0.1290
 8411SOL    HW125949   6.141   4.405   2.935  0.1176  0.5505 -0.5466
 8411SOL    HW225950   6.019   4.423   2.847 -0.1919  0.2614 -0.1816
 8412SOL     OW25951   4.714   3.676   1.362  0.4189 -0.0828 -0.1423
 8412SOL    HW125952   4.772   3.752   1.373  1.4169 -0.7199 -0.9415
 8412SOL    HW225953   4.769   3.610   1.320 -0.8280 -0.7731 -0.7133
 8413SOL     OW25954   4.982   3.267   5.896 -0.9165 -0.2522  0.2940
 8413SOL    HW125955   5.002   3.211   5.971 -3.2920 -0.8560  0.5055
 8413SOL    HW225956   5.043   3.239   5.828 -1.3323 -2.3425  0.7584
 8414SOL     OW25957   5.672   4.428   0.487  0.3221 -0.1700  0.3055
 8414SOL    HW125958   5.746   4.399   0.434 -0.4244  0.1125 -0.9177
 8414SOL    HW225959   5.654   4.356   0.546  1.0923 -0.5449  0.0811
 8415SOL     OW25960   4.604   1.700   0.504  0.4052  0.1412 -0.1612
 8415SOL    HW125961   4.633   1.613   0.480 -0.2950  0.4290 -2.1695
 8415SOL    HW225962   4.680   1.756   0.490  0.0393  0.2872 -1.6952
 8416SOL     OW25963   5.867   5.189   3.120  0.2722  0.0155 -0.0227
 8416SOL    HW125964   5.813   5.155   3.191 -2.7025  3.0511 -0.7237
 8416SOL    HW225965   5.884   5.280   3.143  1.2640  0.3825 -2.0546
 8417SOL     OW25966   5.960   6.603   5.544  0.1980 -0.3883 -0.2063
 8417SOL    HW125967   6.000   6.592   5.458  0.5135 -3.0339  0.2301
 8417SOL    HW225968   6.026   6.571   5.605  0.2788  2.1973  1.1156
 8418SOL     OW25969   5.908   4.368   1.084  0.1691 -0.3584 -0.0020
 8418SOL    HW125970   5.912   4.457   1.049  0.0449 -0.3445  0.0202
 8418SOL    HW225971   5.974   4.366   1.153 -1.8083  0.5710  1.9504
 8419SOL     OW25972   0.713   4.556   0.232  0.2313  0.1023 -0.4219
 8419SOL    HW125973   0.667   4.607   0.165  0.6151  0.8645 -0.1052
 8419SOL    HW225974   0.791   4.523   0.187  0.3774  0.4328 -0.4096
 8420SOL     OW25975   5.558   1.393   1.468  0.0435 -0.2938 -0.2881
 8420SOL    HW125976   5.465   1.371   1.469  0.3162 -1.4756 -0.1110
 8420SOL    HW225977   5.603   1.310   1.484  1.1186  0.3300  0.0295
 8421SOL     OW25978   3.787   2.748   2.201  0.3547 -0.2310 -0.4606
 8421SOL    HW125979   3.794   2.832   2.154  1.4183  0.3675  0.7372
 8421SOL    HW225980   3.871   2.706   2.186 -0.4830 -1.4841 -1.7568
 8422SOL     OW25981   0.998   0.783   4.930  0.0747 -0.9070 -0.1493
 8422SOL    HW125982   1.031   0.755   4.845 -0.9103 -0.3158 -0.7363
 8422SOL    HW225983   0.995   0.878   4.924 -0.8691 -0.9120  0.2160
 8423SOL     OW25984   2.838   1.842   3.942 -0.4990  0.0502 -0.8927
 8423SOL    HW125985   2.859   1.908   3.876 -1.8596  0.9104 -0.4933
 8423SOL    HW225986   2.763   1.795   3.906  0.2207 -1.0370 -1.0021
 8424SOL     OW25987   1.311   6.488   2.377  0.2126 -0.2891 -0.4392
 8424SOL    HW125988   1.328   6.395   2.392 -0.1863 -0.7304 -2.5632
 8424SOL    HW225989   1.398   6.527   2.373  0.3641 -0.4512  1.1389
 8425SOL     OW25990   0.325   6.486   6.455  0.3149 -0.7258 -0.3575
 8425SOL    HW125991   0.380   6.441   6.391  0.9201 -0.1232 -0.2677
 8425SOL    HW225992   0.385   6.507   6.527  0.5148  2.0755 -1.2969
 8426SOL     OW25993   2.793   5.470   0.878  0.1758 -0.7826  0.5667
 8426SOL    HW125994   2.834   5.556   0.891 -3.9441  1.8265 -2.4074
 8426SOL    HW225995   2.830   5.438   0.795 -0.2319 -0.6295  0.3227
 8427SOL     OW25996   2.005   0.866   3.126  0.0989  0.7921 -0.5370
 8427SOL    HW125997   2.020   0.773   3.114 -1.8615  0.5606 -1.3528
 8427SOL    HW225998   2.061   0.908   3.060  1.5953  0.2507  0.3668
 8428SOL     OW25999   3.667   0.470   0.604 -0.1479  0.6243 -0.2434
 8428SOL    HW126000   3.664   0.492   0.511 -1.8169 -1.7580 -0.7873
 8428SOL    HW226001   3.576   0.475   0.632  0.2089  0.2237  1.0017
 8429SOL     OW26002   2.388   6.535   4.740  0.5576 -0.6845 -0.0006
 8429SOL    HW126003   2.333   6.475   4.690 -0.8315  0.8719 -0.3843
 8429SOL    HW226004   2.478   6.510   4.718 -0.0266  0.1428 -3.5179
 8430SOL     OW26005   3.105   4.462   5.781  0.6059  0.0365 -0.2514
 8430SOL    HW126006   3.171   4.504   5.836  0.0029  0.9288 -0.2091
 8430SOL    HW226007   3.044   4.422   5.843  0.1411  0.7088 -0.2763
 8431SOL     OW26008   3.893   3.697   1.988 -0.1691 -0.5468 -0.0751
 8431SOL    HW126009   3.878   3.704   2.083  1.2367  1.3168  0.0475
 8431SOL    HW226010   3.824   3.750   1.949  1.4153  1.7751  0.1309
 8432SOL     OW26011   4.481   3.724   0.560  0.1438 -0.4918 -0.2820
 8432SOL    HW126012   4.535   3.701   0.635 -0.0099  1.0287  0.3052
 8432SOL    HW226013   4.467   3.818   0.568 -4.3567 -1.1527  0.7712
 8433SOL     OW26014   2.673   4.116   1.647 -0.5572 -0.1923 -0.2763
 8433SOL    HW126015   2.668   4.098   1.741  0.8859  1.8046  0.2152
 8433SOL    HW226016   2.625   4.044   1.607  2.5047 -3.4939  1.7192
 8434SOL     OW26017   0.807   0.072   5.048 -0.2221 -0.2075 -0.2085
 8434SOL    HW126018   0.840   0.106   4.965  1.5965 -1.8854 -0.2209
 8434SOL    HW226019   0.825   0.141   5.112 -0.0034  0.3729 -0.8896
 8435SOL     OW26020   3.276   1.358   3.891 -0.1448 -0.9218  0.1703
 8435SOL    HW126021   3.299   1.371   3.799 -2.8038  0.0275 -0.4051
 8435SOL    HW226022   3.198   1.412   3.904 -1.1161 -2.7887  2.4052
 8436SOL     OW26023   2.429   2.297   2.086 -0.1321 -0.3056 -0.1651
 8436SOL    HW126024   2.418   2.270   2.177 -3.3484 -0.1676 -0.4655
 8436SOL    HW226025   2.454   2.217   2.040 -0.9605 -0.9006  0.4122
 8437SOL     OW26026   3.453   1.508   4.929 -0.3697  0.2983 -0.3442
 8437SOL    HW126027   3.527   1.566   4.910  1.1135 -1.3025  0.3672
 8437SOL    HW226028   3.478   1.463   5.010 -2.3467  0.0685  0.1615
 8438SOL     OW26029   0.730   0.900   6.195 -0.3780 -0.3853 -0.2958
 8438SOL    HW126030   0.680   0.819   6.184  0.8978 -1.1751 -0.4172
 8438SOL    HW226031   0.817   0.870   6.222 -0.3595  1.0299  1.2177
 8439SOL     OW26032   3.906   2.291   2.483 -0.8861 -0.0620 -0.8707
 8439SOL    HW126033   3.886   2.318   2.394 -1.4833 -0.4581 -0.8568
 8439SOL    HW226034   3.829   2.242   2.512 -0.9189  0.5086  0.0450
 8440SOL     OW26035   5.298   4.225   2.334  1.0061 -1.0346 -0.4316
 8440SOL    HW126036   5.299   4.293   2.267  1.8767  0.1346  0.7319
 8440SOL    HW226037   5.260   4.149   2.291 -2.0056  0.7835 -1.1509
 8441SOL     OW26038   2.781   6.327   1.970 -0.5834  0.3533  0.2157
 8441SOL    HW126039   2.728   6.374   2.034  0.5782  0.0797  1.4023
 8441SOL    HW226040   2.720   6.263   1.932 -1.6798  1.5502 -0.0712
 8442SOL     OW26041   3.762   3.331   2.876  0.2230  0.1767  0.1275
 8442SOL    HW126042   3.746   3.425   2.884  1.8137  0.3290  1.6385
 8442SOL    HW226043   3.856   3.323   2.862  0.2982 -1.2586  1.3434
 8443SOL     OW26044   5.797   5.877   4.330  0.0908  0.2382 -0.4336
 8443SOL    HW126045   5.841   5.956   4.361  0.5699 -0.5128  0.8536
 8443SOL    HW226046   5.857   5.806   4.351 -1.5214 -0.7656  0.9554
 8444SOL     OW26047   5.822   4.145   0.515  0.0550  0.1219  0.2132
 8444SOL    HW126048   5.863   4.219   0.471 -0.6373 -0.4418 -1.4360
 8444SOL    HW226049   5.895   4.092   0.547  0.5955  0.1284 -0.9860
 8445SOL     OW26050   3.991   3.750   0.162  0.0600 -0.3574 -0.3851
 8445SOL    HW126051   4.077   3.737   0.121  1.7464 -0.3050  2.9046
 8445SOL    HW226052   4.002   3.714   0.250 -3.3710 -0.4347  0.0529
 8446SOL     OW26053   4.150   3.539   0.046  0.2036 -0.1531  0.5906
 8446SOL    HW126054   4.060   3.520   0.072  0.6847 -3.7892 -0.1507
 8446SOL    HW226055   4.205   3.495   0.111  1.4687  0.7048  0.1437
 8447SOL     OW26056   2.655   5.961   5.783  0.3241  0.3203  0.2905
 8447SOL    HW126057   2.745   5.983   5.806  0.1641  0.5427  0.7104
 8447SOL    HW226058   2.603   6.032   5.819 -0.1743 -0.6016  1.4293
 8448SOL     OW26059   1.070   3.851   5.494 -0.2413 -0.1144  0.1382
 8448SOL    HW126060   0.990   3.890   5.461 -0.4206 -0.5191  0.0882
 8448SOL    HW226061   1.118   3.824   5.415  0.4484  1.1066  0.1245
 8449SOL     OW26062   5.445   3.484   3.330  0.3247 -0.2069  0.7045
 8449SOL    HW126063   5.452   3.546   3.403  1.3317  0.7559 -0.2077
 8449SOL    HW226064   5.491   3.406   3.360  2.5597  0.9328  0.3088
 8450SOL     OW26065   5.332   5.170   4.642 -0.2318  0.5622 -0.1907
 8450SOL    HW126066   5.255   5.192   4.695 -1.9772  0.3007 -2.5144
 8450SOL    HW226067   5.310   5.201   4.554  2.5950  1.0031 -0.7949
 8451SOL     OW26068   1.145   1.123   1.760 -0.4031 -0.1718  0.4810
 8451SOL    HW126069   1.077   1.067   1.799 -0.4101 -1.1864 -0.9257
 8451SOL    HW226070   1.096   1.187   1.708 -0.3523  0.5048  1.2520
 8452SOL     OW26071   2.215   5.359   3.949  0.4111 -0.2794 -0.7232
 8452SOL    HW126072   2.250   5.292   4.008  2.6058  0.6252 -0.9527
 8452SOL    HW226073   2.290   5.385   3.895 -0.0158  3.4555  0.3688
 8453SOL     OW26074   3.536   1.369   4.662  0.1094 -0.3715  0.0425
 8453SOL    HW126075   3.539   1.275   4.683  0.8388 -0.1848  0.8139
 8453SOL    HW226076   3.563   1.412   4.743  1.5929  0.4443 -0.8685
 8454SOL     OW26077   4.353   2.015   0.656 -0.2100 -0.2769 -0.3266
 8454SOL    HW126078   4.295   2.051   0.589 -0.3155 -1.0335 -0.6532
 8454SOL    HW226079   4.303   2.023   0.738 -0.1084  0.5816 -0.3515
 8455SOL     OW26080   4.516   3.579   4.434  0.1538  0.5735  0.0600
 8455SOL    HW126081   4.475   3.501   4.399 -1.9350  1.3783  0.6625
 8455SOL    HW226082   4.524   3.638   4.359 -2.1825  1.3965  0.4132
 8456SOL     OW26083   6.415   0.719   4.006  0.1261  0.6411 -0.4574
 8456SOL    HW126084   6.324   0.691   4.001  0.6279 -0.8103 -1.7073
 8456SOL    HW226085   6.455   0.662   4.072  0.0573  1.5250  0.3659
 8457SOL     OW26086   2.580   0.424   4.002 -0.4069  0.1620  0.1807
 8457SOL    HW126087   2.612   0.513   4.016  1.1022 -0.6857  2.5341
 8457SOL    HW226088   2.485   0.430   4.015 -0.6221  1.8157 -1.9731
 8458SOL     OW26089   3.586   2.628   4.067 -0.4279  0.2873 -0.5543
 8458SOL    HW126090   3.641   2.641   3.990  0.5937  0.8410  0.2648
 8458SOL    HW226091   3.601   2.537   4.092 -0.3906  0.2487 -0.7165
 8459SOL     OW26092   1.780   2.455   2.644 -0.8064 -0.6029 -0.0533
 8459SOL    HW126093   1.805   2.426   2.732 -0.6501  0.8644  0.4087
 8459SOL    HW226094   1.694   2.416   2.629 -0.5695 -1.3507  0.5067
 8460SOL     OW26095   5.601   0.229   0.311 -0.0207 -0.3484 -0.2317
 8460SOL    HW126096   5.628   0.295   0.374 -1.9630  1.7960 -1.5707
 8460SOL    HW226097   5.623   0.267   0.226 -0.9880 -1.5155 -1.0258
 8461SOL     OW26098   5.621   1.565   3.638 -0.4220  0.5736 -0.1799
 8461SOL    HW126099   5.616   1.510   3.560  0.3273 -0.6342  0.6092
 8461SOL    HW226100   5.582   1.512   3.707  1.3547  0.5573  0.8443
 8462SOL     OW26101   2.430   4.925   4.041 -0.0287 -0.4132  0.2769
 8462SOL    HW126102   2.367   4.875   3.989 -0.7680  0.9040 -0.1233
 8462SOL    HW226103   2.515   4.886   4.021 -0.7822 -2.8113  1.5149
 8463SOL     OW26104   3.969   5.645   2.001 -0.1548 -0.2668 -0.2249
 8463SOL    HW126105   4.032   5.694   1.948 -1.4780  0.3543 -1.2305
 8463SOL    HW226106   3.929   5.710   2.058 -0.9193 -0.4100 -0.5935
 8464SOL     OW26107   4.885   6.298   2.466 -0.2942  0.0569 -0.2274
 8464SOL    HW126108   4.849   6.386   2.452 -0.9083 -0.1828 -0.2074
 8464SOL    HW226109   4.885   6.287   2.561 -1.9915 -0.6657 -0.2842
 8465SOL     OW26110   5.628   3.155   0.057  0.1400 -0.1990 -0.0900
 8465SOL    HW126111   5.649   3.078   0.004 -0.7327 -0.5390  0.0520
 8465SOL    HW226112   5.563   3.202   0.007 -2.3067 -1.6416  1.6061
 8466SOL     OW26113   1.488   0.646   4.881 -0.0853  0.4572  0.4693
 8466SOL    HW126114   1.462   0.724   4.832  0.2242 -0.0961 -0.5799
 8466SOL    HW226115   1.487   0.575   4.817  1.4670 -0.0527  0.9855
 8467SOL     OW26116   3.357   4.423   4.188 -0.2947  0.2678  0.1949
 8467SOL    HW126117   3.275   4.422   4.139 -0.1547  0.7310 -0.0570
 8467SOL    HW226118   3.334   4.462   4.272 -0.6065 -0.8514  0.6302
 8468SOL     OW26119   2.627   5.547   5.002  0.3878 -0.6646 -0.6853
 8468SOL    HW126120   2.558   5.594   5.049  0.7356 -1.0616  0.2318
 8468SOL    HW226121   2.609   5.455   5.018  2.2801 -0.7405  1.2736
 8469SOL     OW26122   1.663   1.856   1.414 -0.3783  0.3554 -0.6921
 8469SOL    HW126123   1.614   1.779   1.445 -1.7670  2.0553  1.5335
 8469SOL    HW226124   1.705   1.891   1.493 -0.8774  2.6245 -1.3862
 8470SOL     OW26125   2.696   4.215   2.155 -0.1706 -0.0163 -0.5423
 8470SOL    HW126126   2.614   4.191   2.199  0.3725 -1.4542 -0.2606
 8470SOL    HW226127   2.696   4.310   2.152 -1.2122  0.0259  0.6867
 8471SOL     OW26128   1.824   1.188   4.539  0.2794  0.2554 -0.2029
 8471SOL    HW126129   1.832   1.210   4.446 -0.9949  2.3257  0.1530
 8471SOL    HW226130   1.743   1.136   4.545 -1.0286  2.2758  0.0855
 8472SOL     OW26131   2.992   0.937   2.727  0.6079 -0.1768 -0.5210
 8472SOL    HW126132   2.900   0.955   2.743  0.9256  1.2488 -0.1878
 8472SOL    HW226133   2.995   0.846   2.698 -0.7068 -0.8139  1.2610
 8473SOL     OW26134   5.694   4.901   5.593 -0.3009 -0.4099  0.6914
 8473SOL    HW126135   5.613   4.856   5.570 -0.6357  1.0852 -1.2238
 8473SOL    HW226136   5.763   4.841   5.569 -0.7825 -0.6354 -0.1310
 8474SOL     OW26137   5.564   1.207   4.823 -0.3637 -0.2211  0.0399
 8474SOL    HW126138   5.639   1.266   4.809 -0.1484 -0.1614  1.4293
 8474SOL    HW226139   5.490   1.266   4.838 -0.1839 -0.2937  1.2479
 8475SOL     OW26140   6.203   2.706   4.010 -0.0193 -0.1880  0.2987
 8475SOL    HW126141   6.161   2.772   3.954  0.5128  1.8151  2.1914
 8475SOL    HW226142   6.280   2.678   3.960 -0.4428  0.3514 -0.6859
 8476SOL     OW26143   5.273   5.109   1.621  0.4614 -0.1260  0.0302
 8476SOL    HW126144   5.245   5.131   1.710 -1.5958  0.3045 -0.7055
 8476SOL    HW226145   5.317   5.188   1.590 -0.0906  0.2387  0.1637
 8477SOL     OW26146   1.245   4.817   2.736  0.3901  0.5160 -0.3580
 8477SOL    HW126147   1.295   4.890   2.771 -0.4744  1.0240 -0.1704
 8477SOL    HW226148   1.153   4.845   2.742  0.0534 -0.5594 -0.3176
 8478SOL     OW26149   3.095   5.990   0.666  0.6465  0.3205 -0.1678
 8478SOL    HW126150   3.147   5.993   0.747  1.7563 -0.1568 -0.8482
 8478SOL    HW226151   3.140   5.926   0.611 -0.0867  0.6609 -1.1795
 8479SOL     OW26152   5.811   1.544   1.233 -0.0110 -0.1874 -0.1366
 8479SOL    HW126153   5.824   1.630   1.273 -0.1568 -0.5164  0.6418
 8479SOL    HW226154   5.880   1.537   1.167  0.4366  0.2467  0.2777
 8480SOL     OW26155   0.969   3.792   4.503 -0.1246  0.1504 -0.0031
 8480SOL    HW126156   1.060   3.771   4.524  0.4052  0.3474 -1.9792
 8480SOL    HW226157   0.972   3.818   4.411 -2.3266 -0.7495 -0.3388
 8481SOL     OW26158   6.323   3.327   5.927 -0.4883  0.0388  0.6883
 8481SOL    HW126159   6.350   3.338   6.018 -1.3671 -1.9805  1.2252
 8481SOL    HW226160   6.390   3.270   5.889 -0.2197  0.7359  0.1112
 8482SOL     OW26161   4.185   3.009   1.831 -0.0018 -0.1488 -0.5359
 8482SOL    HW126162   4.122   2.946   1.796  0.9799 -1.2785 -0.2843
 8482SOL    HW226163   4.144   3.095   1.816 -1.7506 -0.8839 -0.0513
 8483SOL     OW26164   4.978   2.716   1.152  0.3479 -0.5804 -0.3303
 8483SOL    HW126165   4.906   2.660   1.182 -0.6034  0.8095  0.0305
 8483SOL    HW226166   5.033   2.728   1.229 -1.5562  2.1607  0.7076
 8484SOL     OW26167   0.129   2.217   4.850 -0.5137 -0.5490 -0.0346
 8484SOL    HW126168   0.079   2.299   4.841 -0.3872 -0.4163  0.4612
 8484SOL    HW226169   0.106   2.185   4.937 -1.1893 -1.4634 -0.5384
 8485SOL     OW26170   4.180   5.512   0.960  0.0144  0.4370 -0.3053
 8485SOL    HW126171   4.086   5.531   0.965  0.2067  1.2855  0.0608
 8485SOL    HW226172   4.192   5.477   0.871 -0.7606 -0.3321 -0.1144
 8486SOL     OW26173   1.597   6.756   5.157 -0.8654  0.3814 -0.2521
 8486SOL    HW126174   1.665   6.798   5.209 -1.8568  0.4276  1.0095
 8486SOL    HW226175   1.559   6.827   5.106 -1.3331  0.7009  0.5457
 8487SOL     OW26176   3.620   0.985   3.278 -0.3459 -0.4135 -0.1609
 8487SOL    HW126177   3.543   1.040   3.267 -0.8247 -1.1323 -0.4519
 8487SOL    HW226178   3.616   0.923   3.205  1.4049  0.5841 -1.1249
 8488SOL     OW26179   2.555   3.662   6.027  0.3929 -0.0692  0.5629
 8488SOL    HW126180   2.473   3.629   5.992  1.3226 -1.0515 -0.7238
 8488SOL    HW226181   2.623   3.610   5.984  1.6038 -0.7728  3.2089
 8489SOL     OW26182   3.410   6.324   6.363 -0.1397  0.9191 -0.0323
 8489SOL    HW126183   3.446   6.313   6.451  0.1241 -1.4883 -0.4004
 8489SOL    HW226184   3.331   6.269   6.362 -0.7717  1.8091 -0.9649
 8490SOL     OW26185   1.883   3.103   2.959 -0.0865 -0.1401  0.2301
 8490SOL    HW126186   1.974   3.128   2.977  0.6102 -1.6594 -1.0853
 8490SOL    HW226187   1.890   3.030   2.897 -2.1052 -2.2480  2.3748
 8491SOL     OW26188   5.873   0.980   6.417 -0.1967 -0.0348 -0.6645
 8491SOL    HW126189   5.805   0.914   6.430  0.0585 -0.4220 -1.2462
 8491SOL    HW226190   5.853   1.019   6.332 -2.0041  2.6527  0.9163
 8492SOL     OW26191   5.000   4.268   2.450  0.3896 -0.2383 -0.8509
 8492SOL    HW126192   5.068   4.334   2.433  0.1744 -0.0883 -1.1425
 8492SOL    HW226193   5.044   4.202   2.504 -0.4392  2.0566  2.7638
 8493SOL     OW26194   3.589   1.015   5.082  0.3621  0.2150 -0.0459
 8493SOL    HW126195   3.685   1.021   5.080  0.4106 -0.6728 -0.8685
 8493SOL    HW226196   3.572   0.921   5.088 -0.4877  0.2625 -1.5894
 8494SOL     OW26197   1.224   2.227   1.245 -0.2608 -0.3000  0.5492
 8494SOL    HW126198   1.278   2.302   1.272 -0.1889 -0.2213  0.1864
 8494SOL    HW226199   1.173   2.206   1.323  1.2242 -1.1932  1.3059
 8495SOL     OW26200   3.431   4.559   2.436  0.5076  0.0623 -0.1794
 8495SOL    HW126201   3.463   4.527   2.352  0.3156  1.0738 -0.6448
 8495SOL    HW226202   3.456   4.652   2.438  0.2018  0.1332  0.7183
 8496SOL     OW26203   0.076   5.637   5.201  0.1852 -0.4644  0.3826
 8496SOL    HW126204   0.087   5.548   5.167  1.6062  0.2473 -1.0453
 8496SOL    HW226205  -0.003   5.670   5.158 -0.2390 -0.9624  0.7751
 8497SOL     OW26206   2.810   5.166   1.234  0.0505 -0.4092 -0.0997
 8497SOL    HW126207   2.731   5.197   1.277  1.1906  2.6768 -0.1187
 8497SOL    HW226208   2.801   5.194   1.143  1.6367  1.0090  0.1497
 8498SOL     OW26209   4.883   4.241   2.019 -0.0268  0.4410 -0.4327
 8498SOL    HW126210   4.960   4.263   1.967  0.2984 -1.6628 -0.8596
 8498SOL    HW226211   4.809   4.262   1.962  0.2494  1.0443 -0.5767
 8499SOL     OW26212   1.310   4.962   0.603  0.2109  0.5865 -0.9788
 8499SOL    HW126213   1.232   4.936   0.652  0.5522  0.8701 -0.2872
 8499SOL    HW226214   1.384   4.933   0.656  0.6026  2.6035 -0.3590
 8500SOL     OW26215   6.692   5.527   4.862  0.3743 -0.4618 -0.6556
 8500SOL    HW126216   6.659   5.448   4.818  0.5674  0.3966 -2.3946
 8500SOL    HW226217   6.776   5.500   4.900 -0.1702 -1.4365 -0.1059
 8501SOL     OW26218   5.625   6.642   3.363  0.1262  0.0040 -0.2791
 8501SOL    HW126219   5.710   6.682   3.379 -0.3480  0.4790  1.1534
 8501SOL    HW226220   5.636   6.594   3.281  2.4902 -1.9085  1.0926
 8502SOL     OW26221   3.480   2.504   5.150 -0.4311 -0.0941  0.2816
 8502SOL    HW126222   3.409   2.501   5.214  0.1216 -0.5032  0.8788
 8502SOL    HW226223   3.558   2.523   5.202  0.2403 -1.7382 -0.0963
 8503SOL     OW26224   5.702   0.742   3.134  0.8159 -0.2882 -0.2988
 8503SOL    HW126225   5.729   0.677   3.069  0.4004  0.6505 -1.4229
 8503SOL    HW226226   5.690   0.691   3.215  1.6198 -1.4151 -0.8744
 8504SOL     OW26227   6.255   5.403   4.152 -0.2020 -0.1344  0.1953
 8504SOL    HW126228   6.236   5.379   4.243  0.2634  1.8699  0.8559
 8504SOL    HW226229   6.175   5.380   4.104  0.0388 -2.4517  0.8490
 8505SOL     OW26230   3.702   4.177   1.237  0.3237  0.3426  0.0611
 8505SOL    HW126231   3.651   4.098   1.255  0.6008 -0.2088 -1.4661
 8505SOL    HW226232   3.791   4.145   1.220 -0.0637  0.6671 -2.9742
 8506SOL     OW26233   0.992   4.296   5.846  0.0669 -0.0168 -0.4344
 8506SOL    HW126234   1.001   4.377   5.896 -0.4960  0.0547 -0.4412
 8506SOL    HW226235   0.908   4.260   5.875  0.6171 -0.9214  0.0387
 8507SOL     OW26236   1.816   1.073   2.804  0.1609 -0.6469 -0.0631
 8507SOL    HW126237   1.767   1.100   2.882  1.2358  1.7998 -0.1741
 8507SOL    HW226238   1.753   1.024   2.752 -1.1469 -0.6025  1.4278
 8508SOL     OW26239   4.679   2.433   6.360 -0.4575 -0.0847  0.0029
 8508SOL    HW126240   4.667   2.513   6.308 -0.9347 -0.4852 -0.4999
 8508SOL    HW226241   4.599   2.384   6.347  0.2653 -1.1390 -0.5506
 8509SOL     OW26242   5.687   3.002   3.655  0.5128 -0.0645 -0.0382
 8509SOL    HW126243   5.734   2.940   3.711  0.6720 -0.1854 -0.3029
 8509SOL    HW226244   5.607   2.956   3.630 -0.5135  0.7324  1.6963
 8510SOL     OW26245   1.586   1.940   4.371 -0.6308  0.1911  0.3522
 8510SOL    HW126246   1.678   1.963   4.385 -0.4816 -0.8899  1.2027
 8510SOL    HW226247   1.545   2.021   4.340  0.2910  1.0800  1.4345
 8511SOL     OW26248   5.131   3.728   3.625  0.1397 -0.0511 -0.1857
 8511SOL    HW126249   5.043   3.759   3.647  0.1909 -0.7431  1.0653
 8511SOL    HW226250   5.190   3.790   3.669  0.2419 -1.4978  1.8041
 8512SOL     OW26251   3.779   5.031   0.178  0.0665  0.9395 -0.5897
 8512SOL    HW126252   3.777   5.122   0.147 -1.3053  0.3156 -2.4149
 8512SOL    HW226253   3.696   5.020   0.225  0.8196  1.0099  0.7576
 8513SOL     OW26254   4.707   3.898   3.649  0.0073 -0.0048 -0.1315
 8513SOL    HW126255   4.767   3.973   3.649  0.4258 -0.3078  1.6570
 8513SOL    HW226256   4.622   3.937   3.671  0.2946 -0.0751  1.1768
 8514SOL     OW26257   4.151   5.431   4.006  0.0042  0.4159  0.3816
 8514SOL    HW126258   4.152   5.489   3.930 -0.4407  1.5904  1.2497
 8514SOL    HW226259   4.058   5.421   4.027  0.1455  0.6222  1.1402
 8515SOL     OW26260   6.278   4.365   4.837  0.2097  0.0979 -0.5317
 8515SOL    HW126261   6.336   4.290   4.853 -0.4846  0.0863  2.3700
 8515SOL    HW226262   6.238   4.347   4.753  1.1288 -2.0867 -0.5471
 8516SOL     OW26263   2.184   6.039   6.602  0.4223 -0.2564  0.1082
 8516SOL    HW126264   2.120   6.008   6.538  0.9555 -0.0413 -0.5288
 8516SOL    HW226265   2.242   6.097   6.553  0.5729  0.2651  0.8789
 8517SOL     OW26266   0.431   5.654   0.218  0.1144 -0.2237  0.0732
 8517SOL    HW126267   0.453   5.602   0.141 -0.9613 -0.6193  0.0280
 8517SOL    HW226268   0.459   5.743   0.196 -1.4820 -0.0634 -1.3373
 8518SOL     OW26269   6.194   4.948   0.795 -0.2154  0.0813 -0.0562
 8518SOL    HW126270   6.175   4.977   0.885 -0.1853  0.1551 -0.0736
 8518SOL    HW226271   6.140   4.870   0.783 -1.4262  0.9814 -0.5286
 8519SOL     OW26272   0.521   5.927   6.228  0.2747 -0.4345  0.2780
 8519SOL    HW126273   0.606   5.971   6.232 -0.3685  0.8719 -0.0915
 8519SOL    HW226274   0.485   5.951   6.143 -0.5464 -0.8184  0.5053
 8520SOL     OW26275   2.095   0.187   4.353 -0.8324 -0.2841 -0.0214
 8520SOL    HW126276   2.023   0.226   4.302 -1.3349 -0.7788  0.2996
 8520SOL    HW226277   2.077   0.214   4.443  1.0514  2.0974 -0.3192
 8521SOL     OW26278   5.194   5.095   0.160 -0.1415  0.2019  0.0963
 8521SOL    HW126279   5.210   5.142   0.242  0.3726 -0.4228  0.3534
 8521SOL    HW226280   5.272   5.040   0.148 -1.1925 -1.3463  0.3163
 8522SOL     OW26281   0.815   2.057   3.796 -0.1816  0.1767 -0.8637
 8522SOL    HW126282   0.873   1.991   3.758  1.1984  0.1983  1.1191
 8522SOL    HW226283   0.857   2.140   3.776 -0.4071  0.2915 -0.8613
 8523SOL     OW26284   5.919   2.143   3.233 -0.4278 -0.0970 -0.0408
 8523SOL    HW126285   5.973   2.221   3.223 -0.9884  0.3234  0.1896
 8523SOL    HW226286   5.837   2.165   3.190 -0.4278 -0.7268 -0.3716
 8524SOL     OW26287   1.524   6.272   6.682  0.3709 -0.1913  0.5087
 8524SOL    HW126288   1.566   6.292   6.598  0.2471  2.6136  1.0874
 8524SOL    HW226289   1.455   6.210   6.659 -0.3032  1.2691 -1.6275
 8525SOL     OW26290   1.577   5.077   4.336  0.0203 -0.2514 -0.1900
 8525SOL    HW126291   1.489   5.041   4.352 -0.6941  1.6986  0.3797
 8525SOL    HW226292   1.635   5.020   4.387 -1.1538 -0.2255  1.2214
 8526SOL     OW26293   0.570   4.716   0.384 -0.0230 -0.5135  0.3132
 8526SOL    HW126294   0.623   4.748   0.457  1.1117 -0.6462 -0.4360
 8526SOL    HW226295   0.627   4.652   0.340 -0.3753  0.1919 -1.1818
 8527SOL     OW26296   6.378   1.752   4.540 -0.1080 -0.1548 -0.1270
 8527SOL    HW126297   6.315   1.721   4.475  0.9179  0.0874 -1.2568
 8527SOL    HW226298   6.463   1.722   4.507  0.5970  1.4167  0.2219
 8528SOL     OW26299   3.205   1.600   4.992 -0.0060  0.2648  0.3460
 8528SOL    HW126300   3.163   1.561   4.916 -0.6138  0.0302  0.7950
 8528SOL    HW226301   3.299   1.595   4.974 -0.0626 -1.6883  0.5367
 8529SOL     OW26302   2.101   3.330   5.536 -0.0358  0.0045  0.0903
 8529SOL    HW126303   2.128   3.365   5.621 -1.3010 -0.1705  0.5776
 8529SOL    HW226304   2.006   3.325   5.542 -0.2737  1.4119 -1.8833
 8530SOL     OW26305   4.469   2.556   4.955  0.1737 -0.2845 -0.0802
 8530SOL    HW126306   4.378   2.529   4.952  0.7094 -2.1295 -0.9185
 8530SOL    HW226307   4.473   2.634   4.900 -0.3703 -2.0027 -2.6881
 8531SOL     OW26308   0.114   5.438   0.732  0.1608 -0.1584 -0.2163
 8531SOL    HW126309   0.021   5.420   0.741  0.0870 -0.0601 -0.8030
 8531SOL    HW226310   0.156   5.353   0.749  0.0616  0.1179  1.5792
 8532SOL     OW26311   5.878   3.026   3.210  0.3066  0.3065  0.2680
 8532SOL    HW126312   5.840   2.988   3.130  1.1188  1.3816 -0.6450
 8532SOL    HW226313   5.858   2.962   3.279 -1.2112 -0.1965 -0.6131
 8533SOL     OW26314   4.971   6.464   4.412 -0.3965 -0.0482 -0.5038
 8533SOL    HW126315   4.911   6.423   4.349 -1.6190 -0.0706  0.6511
 8533SOL    HW226316   5.042   6.499   4.358 -0.4059 -1.8172 -1.7207
 8534SOL     OW26317   6.681   1.966   0.453 -0.1777 -0.4632  0.4128
 8534SOL    HW126318   6.685   1.932   0.364 -1.1148 -0.2962  0.3040
 8534SOL    HW226319   6.768   2.003   0.468 -0.3854  0.5534 -0.8463
 8535SOL     OW26320   1.754   4.746   6.538  0.2538  0.0986 -0.2400
 8535SOL    HW126321   1.696   4.802   6.486 -0.1685  0.7513  0.9199
 8535SOL    HW226322   1.803   4.806   6.593  2.4326 -0.4160 -1.5666
 8536SOL     OW26323   5.378   5.056   2.537  0.8250 -0.2037  0.3652
 8536SOL    HW126324   5.407   5.147   2.540 -0.2416  0.1267  2.1760
 8536SOL    HW226325   5.327   5.049   2.457  0.7131  0.8720  0.3385
 8537SOL     OW26326   3.726   1.495   3.180  0.0831  0.0827  0.1808
 8537SOL    HW126327   3.783   1.418   3.179  0.9597  0.7271 -0.0564
 8537SOL    HW226328   3.776   1.561   3.227 -0.3311  0.7595 -0.3180
 8538SOL     OW26329   5.928   0.938   4.356  0.4429 -0.0506 -0.2202
 8538SOL    HW126330   5.852   0.881   4.371 -0.2717  0.2579 -2.4292
 8538SOL    HW226331   5.969   0.947   4.442 -1.9917 -0.2843  1.0070
 8539SOL     OW26332   0.256   1.010   6.438 -0.9423 -0.7695 -0.1234
 8539SOL    HW126333   0.207   1.003   6.356 -0.1380  0.9959 -0.7940
 8539SOL    HW226334   0.348   0.999   6.412 -0.7012 -0.4125  0.5632
 8540SOL     OW26335   2.820   3.507   3.080  0.0526 -0.2969 -0.5044
 8540SOL    HW126336   2.897   3.452   3.096  1.9578  1.9489 -1.6068
 8540SOL    HW226337   2.849   3.596   3.101 -2.3509  0.5587 -0.6428
 8541SOL     OW26338   5.871   2.349   1.818 -0.3181 -0.4149 -0.0849
 8541SOL    HW126339   5.951   2.348   1.871 -0.0560  0.6055 -0.4445
 8541SOL    HW226340   5.896   2.304   1.737 -0.2294 -0.4802 -0.0219
 8542SOL     OW26341   0.008   3.559   5.063  0.0512  0.8882  0.2423
 8542SOL    HW126342  -0.087   3.567   5.058  0.0501  2.1792  1.7469
 8542SOL    HW226343   0.030   3.492   5.000 -1.7895  1.1361 -0.6964
 8543SOL     OW26344   2.629   0.055   1.799  0.7776 -0.0764 -0.7784
 8543SOL    HW126345   2.538   0.027   1.797  0.5730  0.5543 -0.3820
 8543SOL    HW226346   2.677  -0.016   1.757  0.3712 -1.3962  0.9235
 8544SOL     OW26347   3.427   5.652   4.423 -0.3299 -0.6407 -0.9196
 8544SOL    HW126348   3.372   5.730   4.423  0.7085  0.1084  1.0867
 8544SOL    HW226349   3.372   5.585   4.382 -1.7586  0.7564 -1.3605
 8545SOL     OW26350   0.550   1.829   3.160 -0.6863  0.0163 -0.4297
 8545SOL    HW126351   0.526   1.922   3.168 -1.8166 -0.2947 -0.1462
 8545SOL    HW226352   0.478   1.791   3.109  1.6178  0.0446 -3.9237
 8546SOL     OW26353   3.367   5.617   0.288  0.0461  0.4601 -0.0662
 8546SOL    HW126354   3.364   5.534   0.239 -0.7547 -0.6348  1.7903
 8546SOL    HW226355   3.443   5.608   0.346  0.0510  1.0927  0.0276
 8547SOL     OW26356   0.104   5.402   5.087  0.1355 -0.0446 -0.4235
 8547SOL    HW126357   0.122   5.313   5.119  1.6137  0.2463 -0.4173
 8547SOL    HW226358   0.148   5.405   5.002  0.4688  0.8455 -0.2134
 8548SOL     OW26359   2.140   4.440   3.143 -0.1065  0.3651  0.0559
 8548SOL    HW126360   2.108   4.368   3.089  0.6169  0.0038  0.1035
 8548SOL    HW226361   2.061   4.479   3.180 -0.5626  0.1854 -0.7140
 8549SOL     OW26362   5.115   3.068   2.396  0.1704  0.8050  0.3466
 8549SOL    HW126363   5.134   3.016   2.318  1.5449  0.8634  0.6259
 8549SOL    HW226364   5.198   3.070   2.444 -1.1529 -0.9021  2.8220
 8550SOL     OW26365   5.398   5.044   1.212  0.6947 -0.2783  0.3685
 8550SOL    HW126366   5.471   5.012   1.159  0.1469 -2.9303  1.1479
 8550SOL    HW226367   5.320   5.017   1.163  0.2155 -0.8696  1.4472
 8551SOL     OW26368   4.339   3.823   6.168  0.0834  0.1966  0.1738
 8551SOL    HW126369   4.258   3.863   6.201 -0.5739 -1.0052  0.0571
 8551SOL    HW226370   4.317   3.796   6.079 -0.0789 -2.0369  0.8538
 8552SOL     OW26371   1.358   5.580   0.414  0.0699  0.5974 -0.3073
 8552SOL    HW126372   1.395   5.630   0.486 -1.3060 -1.6345  2.0292
 8552SOL    HW226373   1.276   5.626   0.392 -0.2050  0.4840  0.4891
 8553SOL     OW26374   5.855   3.299   3.263  0.3156 -0.0716 -0.0552
 8553SOL    HW126375   5.887   3.208   3.258  1.9543  0.4931 -0.0354
 8553SOL    HW226376   5.798   3.300   3.340  2.3694 -0.4591  1.4955
 8554SOL     OW26377   1.145   6.269   3.927 -0.2353 -0.5292  0.6909
 8554SOL    HW126378   1.085   6.195   3.939 -1.1755  0.0709 -0.2333
 8554SOL    HW226379   1.088   6.344   3.911  0.8031 -0.2419 -1.7992
 8555SOL     OW26380   5.924   6.122   6.174 -0.2216 -0.4453  0.1125
 8555SOL    HW126381   5.931   6.169   6.257  0.2863 -1.0331  0.3997
 8555SOL    HW226382   6.003   6.069   6.169  0.1671  0.2217 -1.1403
 8556SOL     OW26383   6.061   0.012   1.858 -0.6133 -0.2785 -0.1370
 8556SOL    HW126384   5.998   0.004   1.930 -0.4791  0.4756  0.0676
 8556SOL    HW226385   6.105   0.095   1.874 -0.3690 -0.2567 -0.9233
 8557SOL     OW26386   6.630   0.887   6.707 -0.1323 -0.1570 -0.3626
 8557SOL    HW126387   6.722   0.903   6.724 -0.3230  0.3082  0.2247
 8557SOL    HW226388   6.623   0.887   6.611  0.2485  1.1591 -0.4049
 8558SOL     OW26389   1.453   5.252   3.394  0.2564 -0.2308  0.9228
 8558SOL    HW126390   1.403   5.331   3.371 -1.5341 -1.0266  2.0116
 8558SOL    HW226391   1.467   5.260   3.489  1.7311 -0.3056  0.7237
 8559SOL     OW26392   2.138   0.816   5.903  0.0460  0.0468 -0.2425
 8559SOL    HW126393   2.049   0.850   5.903  0.1760  0.3829  0.6166
 8559SOL    HW226394   2.157   0.797   5.995  0.9412  0.1927 -0.3938
 8560SOL     OW26395   3.788   0.520   2.633 -0.5712 -0.1235  0.2537
 8560SOL    HW126396   3.834   0.591   2.678  0.0678 -0.0255 -0.5298
 8560SOL    HW226397   3.849   0.492   2.564 -0.2296 -2.3588  1.4165
 8561SOL     OW26398   2.826   3.713   5.841 -0.0983 -0.2716 -0.2860
 8561SOL    HW126399   2.783   3.631   5.867 -0.4169  0.1116  0.3859
 8561SOL    HW226400   2.754   3.772   5.818  0.1519 -0.3793 -1.4066
 8562SOL     OW26401   1.132   3.071   4.295  0.1679 -0.2650  0.0309
 8562SOL    HW126402   1.171   3.153   4.325 -0.3649  0.1990 -0.5399
 8562SOL    HW226403   1.091   3.093   4.211 -1.2739 -0.7474  0.5988
 8563SOL     OW26404   3.457   3.579   0.871 -0.7045 -0.2789  0.2472
 8563SOL    HW126405   3.387   3.579   0.937 -1.3676 -1.2529 -0.4380
 8563SOL    HW226406   3.477   3.486   0.857  1.1054  0.0080  0.8098
 8564SOL     OW26407   4.668   5.949   2.434  0.2064  0.1626 -0.1095
 8564SOL    HW126408   4.694   5.951   2.526  1.1100  1.6554 -0.3879
 8564SOL    HW226409   4.740   5.902   2.390 -0.1214 -0.3577 -0.1003
 8565SOL     OW26410   0.252   0.320   4.760  0.2537  0.3678 -0.2256
 8565SOL    HW126411   0.324   0.365   4.715  0.4699 -0.9571 -1.2453
 8565SOL    HW226412   0.219   0.385   4.822  2.7210  0.8055  0.7091
 8566SOL     OW26413   0.983   6.137   4.285 -0.3882  0.2144 -0.2650
 8566SOL    HW126414   1.078   6.129   4.294 -0.2406 -0.0469 -1.9656
 8566SOL    HW226415   0.963   6.222   4.324  0.5119  0.1921  0.2670
 8567SOL     OW26416   3.107   5.863   5.142  0.0584  0.5359 -0.1939
 8567SOL    HW126417   3.118   5.866   5.047 -1.4167  1.4987 -0.3483
 8567SOL    HW226418   3.150   5.942   5.174 -1.1300  1.2035 -0.2421
 8568SOL     OW26419   6.462   0.789   5.339  0.5212 -0.1753 -0.3008
 8568SOL    HW126420   6.444   0.697   5.325  1.2160 -0.4622  0.6527
 8568SOL    HW226421   6.479   0.824   5.251  1.6315 -1.2463 -0.5196
 8569SOL     OW26422   2.251   1.215   6.026  0.2604  0.6508  0.3663
 8569SOL    HW126423   2.255   1.268   6.105  1.7756  2.4376 -0.8345
 8569SOL    HW226424   2.315   1.145   6.040  0.4369  0.8964  0.7859
 8570SOL     OW26425   3.776   2.473   0.199  0.2796 -0.0916  0.4712
 8570SOL    HW126426   3.761   2.495   0.291  3.3177 -0.2905  1.0931
 8570SOL    HW226427   3.709   2.409   0.177 -0.4078 -0.1249  2.5948
 8571SOL     OW26428   5.938   5.993   5.268 -0.1670  0.2682 -0.7733
 8571SOL    HW126429   6.007   5.967   5.207 -0.2019  1.1570 -1.2013
 8571SOL    HW226430   5.879   5.918   5.271  1.7052 -1.2066  0.9158
 8572SOL     OW26431   5.907   2.177   0.563  0.1503  0.0068  0.2474
 8572SOL    HW126432   5.944   2.147   0.646  0.6301  0.9223  0.3706
 8572SOL    HW226433   5.918   2.272   0.565 -1.4573  0.2155 -0.0798
 8573SOL     OW26434   4.971   3.956   3.705  0.1480  0.4013 -0.5701
 8573SOL    HW126435   5.067   3.964   3.708  0.1939  0.8215 -2.5310
 8573SOL    HW226436   4.945   3.955   3.797  2.1228 -0.8569  0.0321
 8574SOL     OW26437   6.098   1.235   2.694  0.3136 -0.0626  0.2373
 8574SOL    HW126438   6.186   1.197   2.689 -0.0496 -0.6777 -2.2619
 8574SOL    HW226439   6.098   1.303   2.627 -0.7698  0.6889  0.9940
 8575SOL     OW26440   5.017   0.113   2.095 -0.0565 -0.4418 -0.3243
 8575SOL    HW126441   4.998   0.066   2.176  0.0566 -1.0508 -0.6480
 8575SOL    HW226442   4.975   0.198   2.105 -1.8687 -1.3006 -0.5195
 8576SOL     OW26443   6.642   1.913   5.186  0.3543 -0.7519 -0.0736
 8576SOL    HW126444   6.727   1.873   5.204  1.2120  0.8331 -0.6299
 8576SOL    HW226445   6.613   1.946   5.271  0.6799 -0.5239 -0.0530
 8577SOL     OW26446   1.914   0.492   0.290 -0.3095 -0.2580 -0.1093
 8577SOL    HW126447   1.966   0.441   0.353 -0.9316 -1.2312 -0.3630
 8577SOL    HW226448   1.931   0.450   0.206 -1.0186 -0.1954 -0.2832
 8578SOL     OW26449   3.610   2.362   5.915 -0.1479 -0.2155 -0.0216
 8578SOL    HW126450   3.557   2.343   5.992  1.3286 -1.1209  0.7875
 8578SOL    HW226451   3.622   2.457   5.918 -1.6661 -0.0074 -0.1892
 8579SOL     OW26452   5.590   1.466   3.079  0.4087  0.2871 -0.0775
 8579SOL    HW126453   5.684   1.479   3.064  0.4704  0.9902  0.9181
 8579SOL    HW226454   5.582   1.373   3.101  0.8636  0.2141 -0.2192
 8580SOL     OW26455   3.661   0.686   4.922  0.3237 -0.0415  0.7459
 8580SOL    HW126456   3.595   0.691   4.991 -1.1296  0.1344 -0.6407
 8580SOL    HW226457   3.744   0.678   4.970 -0.7217 -0.7632  2.5010
 8581SOL     OW26458   2.744   6.618   5.209 -0.5030 -0.5644 -0.1199
 8581SOL    HW126459   2.727   6.640   5.117 -2.9604 -1.6491  0.0369
 8581SOL    HW226460   2.751   6.703   5.253  0.4631 -0.0361 -1.2461
 8582SOL     OW26461   4.994   0.687   6.700 -0.1255 -0.3470 -0.2725
 8582SOL    HW126462   5.027   0.654   6.784 -0.6740  0.2589  0.1853
 8582SOL    HW226463   5.070   0.729   6.659 -0.3676  1.2963  0.9051
 8583SOL     OW26464   0.377   3.233   5.879 -0.4629 -0.5850 -0.4886
 8583SOL    HW126465   0.290   3.228   5.839 -0.7037  1.4008 -0.2462
 8583SOL    HW226466   0.367   3.191   5.965 -1.3036  0.0610 -0.2690
 8584SOL     OW26467   1.076   2.712   0.318 -0.4805 -0.0060 -0.4569
 8584SOL    HW126468   0.984   2.693   0.303 -0.4368  0.9974 -2.0861
 8584SOL    HW226469   1.120   2.683   0.238  0.1754  2.5879 -1.0590
 8585SOL     OW26470   0.030   0.527   4.301 -0.8239  0.1641 -0.9770
 8585SOL    HW126471   0.087   0.454   4.277  1.5217  2.2266 -1.8844
 8585SOL    HW226472   0.022   0.521   4.396 -0.6651 -1.2780 -1.0532
 8586SOL     OW26473   3.446   3.469   2.669  0.0872 -0.4859 -0.2696
 8586SOL    HW126474   3.430   3.396   2.728  0.0810  0.0664  0.4267
 8586SOL    HW226475   3.535   3.455   2.636  1.6394  1.2373  2.8933
 8587SOL     OW26476   5.836   4.093   4.963  0.3017  0.0475  0.1763
 8587SOL    HW126477   5.751   4.070   5.001  0.7187  0.0092  1.1008
 8587SOL    HW226478   5.900   4.071   5.031  0.9697  1.0306 -0.1222
 8588SOL     OW26479   3.574   0.928   2.128 -0.1595 -0.1092 -0.1231
 8588SOL    HW126480   3.575   0.836   2.155  0.6384  0.2211  0.9945
 8588SOL    HW226481   3.482   0.946   2.108 -0.6905 -0.5259  1.8405
 8589SOL     OW26482   6.685   2.509   6.338 -0.1407  0.3770 -0.5023
 8589SOL    HW126483   6.761   2.483   6.286 -0.7505 -0.5224 -0.9742
 8589SOL    HW226484   6.684   2.604   6.334  0.5898  0.3651 -1.0214
 8590SOL     OW26485   1.488   4.413   5.529 -0.2129  0.7615 -0.4157
 8590SOL    HW126486   1.417   4.401   5.591  0.8123  0.2362  0.6743
 8590SOL    HW226487   1.477   4.503   5.496 -1.5870  0.5482 -0.5462
 8591SOL     OW26488   5.774   5.096   2.850  0.0262 -0.3573  0.0134
 8591SOL    HW126489   5.806   5.134   2.932  1.3871 -0.8041 -0.3047
 8591SOL    HW226490   5.690   5.140   2.835  0.9807  1.6372  0.3114
 8592SOL     OW26491   1.269   2.974   5.540 -0.1666  0.1344  0.0281
 8592SOL    HW126492   1.331   2.978   5.613  0.3273 -0.4337 -0.3652
 8592SOL    HW226493   1.320   2.943   5.466 -0.7876  0.2333 -0.4455
 8593SOL     OW26494   4.348   2.467   0.327 -0.1685  0.3610 -0.4931
 8593SOL    HW126495   4.369   2.547   0.279 -2.0449  1.1767 -0.0092
 8593SOL    HW226496   4.355   2.492   0.419 -1.8210  0.3041 -0.3243
 8594SOL     OW26497   0.297   2.685   0.399  0.2425 -0.6103  0.7969
 8594SOL    HW126498   0.211   2.721   0.377  1.0756  0.6939 -0.4202
 8594SOL    HW226499   0.286   2.590   0.392 -0.9185 -0.4211 -0.0303
 8595SOL     OW26500   6.033   1.114   5.362 -0.3084 -0.2698  0.3664
 8595SOL    HW126501   6.054   1.182   5.299  0.4318 -0.3666  0.5050
 8595SOL    HW226502   6.117   1.079   5.389 -0.6677 -0.9735  0.5942
 8596SOL     OW26503   6.616   5.223   4.839  0.1074  0.1323  0.0093
 8596SOL    HW126504   6.641   5.207   4.748 -0.2960  0.7644 -0.2122
 8596SOL    HW226505   6.675   5.168   4.890  2.2940  1.9597 -0.4762
 8597SOL     OW26506   6.424   0.343   0.934 -0.2549  0.1883 -0.0323
 8597SOL    HW126507   6.372   0.266   0.956 -1.1264  0.6175 -0.5648
 8597SOL    HW226508   6.501   0.307   0.890 -0.7604 -0.3735 -0.4811
 8598SOL     OW26509   5.733   1.555   1.623 -0.0478  0.3355 -0.2367
 8598SOL    HW126510   5.686   1.509   1.554  1.6389  0.1701 -1.3054
 8598SOL    HW226511   5.823   1.524   1.615  0.6421  2.0951  0.4934
 8599SOL     OW26512   2.512   5.800   2.766  0.0900 -0.4313 -0.3113
 8599SOL    HW126513   2.527   5.886   2.725 -0.2594 -0.4248 -0.4290
 8599SOL    HW226514   2.474   5.747   2.696 -0.5022 -0.4237  0.0027
 8600SOL     OW26515   6.584   5.902   6.573  0.5310  0.0625 -0.3897
 8600SOL    HW126516   6.631   5.848   6.637 -1.1922 -1.5657 -0.4687
 8600SOL    HW226517   6.546   5.839   6.512  0.1860  1.4892 -1.6722
 8601SOL     OW26518   4.904   3.907   2.895  0.1846  0.3598  0.3708
 8601SOL    HW126519   4.928   3.998   2.877  0.1163  0.2757 -0.1546
 8601SOL    HW226520   4.951   3.856   2.829  0.7011 -0.0394  1.0478
 8602SOL     OW26521   4.993   4.241   3.804  0.1526 -0.1158  0.1670
 8602SOL    HW126522   4.909   4.196   3.806  0.8129 -1.3758  0.3528
 8602SOL    HW226523   4.999   4.285   3.888 -1.0833  1.4243 -0.5401
 8603SOL     OW26524   1.440   2.500   5.283  0.1553  0.1014 -0.3637
 8603SOL    HW126525   1.405   2.436   5.345 -0.2626  0.2103 -0.4828
 8603SOL    HW226526   1.425   2.460   5.197 -1.8155  1.1683 -0.5422
 8604SOL     OW26527   3.600   6.196   1.921  0.2318 -0.0140 -1.0759
 8604SOL    HW126528   3.664   6.231   1.983 -0.2786 -0.0231 -0.5413
 8604SOL    HW226529   3.529   6.163   1.975 -1.4808  2.4097 -1.7343
 8605SOL     OW26530   2.237   3.677   6.418  0.0470  0.0728  0.3228
 8605SOL    HW126531   2.288   3.707   6.342  1.0078 -0.2101  0.8394
 8605SOL    HW226532   2.187   3.602   6.385  1.0507 -0.5428  0.1399
 8606SOL     OW26533   2.859   0.419   4.759 -0.3413  0.0915  0.3723
 8606SOL    HW126534   2.857   0.493   4.698 -0.4451  0.7219  1.1295
 8606SOL    HW226535   2.928   0.362   4.726 -2.1335 -0.8776 -1.8227
 8607SOL     OW26536   2.352   1.434   1.755 -0.2252  0.4391 -0.0527
 8607SOL    HW126537   2.389   1.360   1.706 -0.6706  0.2106 -0.0477
 8607SOL    HW226538   2.316   1.491   1.688 -1.1045 -0.0212  0.0179
 8608SOL     OW26539   4.411   6.275   0.305  0.2690 -0.6036  0.1467
 8608SOL    HW126540   4.474   6.296   0.237 -1.3645  1.0037 -0.9025
 8608SOL    HW226541   4.365   6.198   0.272 -0.8971  0.4999 -0.8531
 8609SOL     OW26542   0.153   0.517   1.024  0.4736  0.2105 -0.0158
 8609SOL    HW126543   0.065   0.520   1.061  0.4563 -0.9915  0.0829
 8609SOL    HW226544   0.183   0.608   1.024 -1.1175  0.7605 -0.9113
 8610SOL     OW26545   3.834   4.990   2.357  0.2130  0.4097  0.1532
 8610SOL    HW126546   3.763   4.928   2.375  1.3141 -1.3606 -1.3240
 8610SOL    HW226547   3.885   4.993   2.438  0.0545 -0.5325  0.2992
 8611SOL     OW26548   1.439   1.960   4.596  0.4010  0.2555 -0.2086
 8611SOL    HW126549   1.419   2.053   4.601 -2.7676 -0.3469 -0.5388
 8611SOL    HW226550   1.496   1.951   4.519 -0.2415  1.7400 -0.8705
 8612SOL     OW26551   1.241   0.414   6.161  0.2365 -0.7873  0.0196
 8612SOL    HW126552   1.214   0.466   6.236  1.5272  1.8905 -1.2934
 8612SOL    HW226553   1.303   0.351   6.197 -0.8622 -1.0238  1.5512
 8613SOL     OW26554   4.342   2.356   1.999 -0.3766 -0.5909 -0.8590
 8613SOL    HW126555   4.354   2.261   2.001 -0.0757 -0.5571 -1.0371
 8613SOL    HW226556   4.410   2.390   2.056 -1.5586 -0.5787  0.5839
 8614SOL     OW26557   2.907   0.891   0.905 -0.0652 -0.0792 -0.1610
 8614SOL    HW126558   2.894   0.891   1.000  1.4508 -1.2703  0.0737
 8614SOL    HW226559   2.871   0.975   0.876  1.2134  1.1764  1.7334
 8615SOL     OW26560   3.264   3.994   5.269  0.0191  0.0064  0.0358
 8615SOL    HW126561   3.350   3.960   5.294 -0.0545 -0.3799 -0.2283
 8615SOL    HW226562   3.213   3.993   5.350  0.5339  1.0729  0.3853
 8616SOL     OW26563   5.348   5.642   3.338  0.5134 -0.4838 -0.6764
 8616SOL    HW126564   5.279   5.577   3.349  2.1809 -1.8998  1.9125
 8616SOL    HW226565   5.406   5.605   3.272  0.2949 -0.5817 -0.8153
 8617SOL     OW26566   6.619   4.891   3.664 -0.3299 -0.7041 -0.2208
 8617SOL    HW126567   6.547   4.921   3.610 -0.4667 -0.3844  0.1357
 8617SOL    HW226568   6.660   4.821   3.613  0.5910  0.7358 -1.4996
 8618SOL     OW26569   1.358   2.140   0.099 -0.2742  0.0692  0.6102
 8618SOL    HW126570   1.292   2.094   0.151 -0.0669  0.0582  0.8625
 8618SOL    HW226571   1.438   2.090   0.113 -1.0528 -2.2825 -2.8275
 8619SOL     OW26572   6.540   0.744   3.135 -0.4139  0.2467  0.2688
 8619SOL    HW126573   6.597   0.721   3.208 -2.0575 -0.2563  1.4080
 8619SOL    HW226574   6.479   0.808   3.170 -0.3042  1.1107 -1.0598
 8620SOL     OW26575   2.038   6.246   2.889 -0.6143  0.3518  0.7275
 8620SOL    HW126576   2.060   6.201   2.970  0.3148 -0.0595  0.2611
 8620SOL    HW226577   2.066   6.336   2.902 -0.4060  0.2693  0.8346
 8621SOL     OW26578   5.442   3.426   0.856  0.0135 -0.0945 -0.0417
 8621SOL    HW126579   5.493   3.390   0.928 -1.8256 -2.2873  0.2351
 8621SOL    HW226580   5.446   3.521   0.868 -1.1064 -0.4409  3.5970
 8622SOL     OW26581   2.960   5.814   2.127 -0.2396 -0.7759  0.2691
 8622SOL    HW126582   2.884   5.868   2.108  1.4445  1.4575 -0.2449
 8622SOL    HW226583   2.923   5.726   2.142 -2.9872  0.4321  0.9904
 8623SOL     OW26584   3.308   6.702   1.626 -0.1786 -0.2200 -0.3224
 8623SOL    HW126585   3.262   6.639   1.682  0.0689 -0.3129 -0.2235
 8623SOL    HW226586   3.369   6.648   1.575  0.1442 -0.0386 -0.1254
 8624SOL     OW26587   2.833   5.023   0.057  0.0098  0.6175  0.1498
 8624SOL    HW126588   2.856   4.931   0.062 -2.1251  0.0688  0.5412
 8624SOL    HW226589   2.782   5.039   0.137 -3.1908  1.0688 -1.9217
 8625SOL     OW26590   6.552   6.141   3.581 -0.7226 -0.3222 -0.6833
 8625SOL    HW126591   6.529   6.146   3.488 -0.2127  1.4776 -0.7328
 8625SOL    HW226592   6.611   6.216   3.595  1.7570 -2.4166  0.3663
 8626SOL     OW26593   0.326   3.674   5.849  0.1113  0.1670  0.3565
 8626SOL    HW126594   0.279   3.608   5.799 -0.3201 -0.3445  1.4133
 8626SOL    HW226595   0.402   3.628   5.885  0.6724  0.6452 -0.2124
 8627SOL     OW26596   4.604   4.879   0.977 -0.1592 -0.3873 -0.4570
 8627SOL    HW126597   4.640   4.828   1.050  2.6710  0.6552 -1.0617
 8627SOL    HW226598   4.636   4.835   0.899 -1.0724 -0.0429 -1.0230
 8628SOL     OW26599   6.028   5.390   2.885  0.3855 -0.7114  0.1776
 8628SOL    HW126600   6.031   5.304   2.843  0.4561 -0.7481  0.2591
 8628SOL    HW226601   6.110   5.396   2.934  0.7519 -0.2739 -0.4733
 8629SOL     OW26602   4.184   4.784   2.063 -0.7272 -0.1257 -0.1652
 8629SOL    HW126603   4.155   4.701   2.100 -0.1300  0.0172  0.6554
 8629SOL    HW226604   4.146   4.851   2.120  2.3274  0.0282  1.8369
 8630SOL     OW26605   4.230   1.304   5.361  0.3110 -0.2986  0.6790
 8630SOL    HW126606   4.138   1.288   5.384 -0.1610 -0.3761 -1.1941
 8630SOL    HW226607   4.248   1.393   5.393 -1.1436  0.6453 -1.0165
 8631SOL     OW26608   0.323   6.680   3.710  0.1765  0.0574 -0.1462
 8631SOL    HW126609   0.269   6.752   3.742 -0.4925  0.1761 -1.5076
 8631SOL    HW226610   0.412   6.714   3.711  0.2008 -0.0115  1.7679
 8632SOL     OW26611   0.021   6.584   3.240 -0.2020 -0.5096  0.5262
 8632SOL    HW126612   0.005   6.525   3.167 -0.4251  0.3880 -0.1635
 8632SOL    HW226613   0.096   6.637   3.213 -0.6049  0.1748  0.7158
 8633SOL     OW26614   6.631   1.999   1.500  0.4888 -0.3668 -0.0196
 8633SOL    HW126615   6.653   2.034   1.413  1.4204  3.5065  1.6996
 8633SOL    HW226616   6.673   1.913   1.502  2.3580  0.4223 -2.5904
 8634SOL     OW26617   6.591   3.145   6.726 -0.1362 -0.5512 -0.0147
 8634SOL    HW126618   6.586   3.096   6.643  0.1838 -0.7404  0.0740
 8634SOL    HW226619   6.642   3.223   6.704 -2.3894  0.7757 -0.6362
 8635SOL     OW26620   1.545   0.412   4.743 -0.0224  0.2571 -0.4672
 8635SOL    HW126621   1.619   0.404   4.804 -0.1610 -0.5285 -0.3938
 8635SOL    HW226622   1.569   0.356   4.669 -0.6187 -0.1411 -0.3614
 8636SOL     OW26623   4.438   3.511   6.451  0.0357 -0.3908 -0.0597
 8636SOL    HW126624   4.506   3.577   6.468  0.9750 -1.3945  0.1724
 8636SOL    HW226625   4.436   3.503   6.356  0.4973 -0.5983 -0.0564
 8637SOL     OW26626   3.562   1.015   2.865  0.3162 -0.3223 -0.1166
 8637SOL    HW126627   3.572   0.951   2.936 -0.6229 -0.1841  0.1486
 8637SOL    HW226628   3.648   1.057   2.858  0.1085  0.4024  1.6438
 8638SOL     OW26629   5.298   3.337   4.633 -0.0358 -0.0696  0.8044
 8638SOL    HW126630   5.204   3.341   4.616 -0.0073 -0.5881  0.4797
 8638SOL    HW226631   5.337   3.326   4.546  0.3199  0.1134  0.9417
 8639SOL     OW26632   4.754   6.274   5.700  0.3097  0.5221 -0.5436
 8639SOL    HW126633   4.845   6.303   5.702  0.5161 -0.1064 -0.5292
 8639SOL    HW226634   4.748   6.219   5.621  0.7834 -2.1307  1.2184
 8640SOL     OW26635   4.847   1.344   5.264 -0.0589  0.7058 -0.1711
 8640SOL    HW126636   4.872   1.261   5.306 -0.6902  0.3415 -0.5222
 8640SOL    HW226637   4.895   1.410   5.314 -2.5229  0.4967  2.6305
 8641SOL     OW26638   4.068   4.048   0.473 -0.2701  0.1644 -0.1710
 8641SOL    HW126639   4.158   4.067   0.500 -0.5307 -0.0578  0.8666
 8641SOL    HW226640   4.068   4.066   0.378  1.0468 -0.5309 -0.3258
 8642SOL     OW26641   0.214   4.159   0.913 -0.2536 -0.0681  0.0077
 8642SOL    HW126642   0.136   4.110   0.889 -0.3835  0.1454 -0.0101
 8642SOL    HW226643   0.200   4.246   0.875 -0.4391  0.2575  0.8229
 8643SOL     OW26644   0.278   2.925   0.705 -0.2100 -0.1516 -0.0165
 8643SOL    HW126645   0.322   2.999   0.661  0.6682 -0.9628 -0.5244
 8643SOL    HW226646   0.237   2.876   0.633 -0.5072 -0.3427  0.2846
 8644SOL     OW26647   5.262   1.810   0.889 -0.0145 -0.4899  0.1621
 8644SOL    HW126648   5.300   1.823   0.976  0.1143  0.1850  0.0063
 8644SOL    HW226649   5.327   1.758   0.842 -0.6460 -1.9714  0.8696
 8645SOL     OW26650   0.452   1.610   5.419 -0.3953  0.6969  0.0693
 8645SOL    HW126651   0.367   1.572   5.398 -1.1059  1.8651  0.7667
 8645SOL    HW226652   0.458   1.686   5.361 -0.2489  1.1656  0.7034
 8646SOL     OW26653   1.460   0.332   0.428 -0.3719  0.6502  0.0994
 8646SOL    HW126654   1.490   0.273   0.497 -1.6119 -1.2443 -0.9420
 8646SOL    HW226655   1.540   0.365   0.388  0.3445 -0.8216  0.2908
 8647SOL     OW26656   2.940   5.724   0.334 -0.5933 -0.0674 -0.9107
 8647SOL    HW126657   2.921   5.780   0.410  1.1664  0.7454 -1.0356
 8647SOL    HW226658   3.033   5.739   0.316  0.3344 -4.1493 -0.0391
 8648SOL     OW26659   2.309   6.680   2.119  0.3364  0.8954  0.2319
 8648SOL    HW126660   2.384   6.739   2.111 -0.1364  1.4766  0.0802
 8648SOL    HW226661   2.333   6.620   2.189  1.9818 -0.4614 -1.4235
 8649SOL     OW26662   1.571   5.550   5.093 -0.0856 -0.3912  0.1284
 8649SOL    HW126663   1.541   5.528   5.181  0.9130  0.5283  0.7107
 8649SOL    HW226664   1.583   5.645   5.095 -0.0666 -0.3610 -1.0072
 8650SOL     OW26665   0.671   3.294   6.748  0.3302 -0.1725  0.1770
 8650SOL    HW126666   0.672   3.339   6.663  1.2484 -0.8745 -0.1948
 8650SOL    HW226667   0.716   3.212   6.732 -2.6442 -1.9276  0.4815
 8651SOL     OW26668   6.318   6.482   3.892  0.1319  0.8185  0.0644
 8651SOL    HW126669   6.408   6.503   3.868 -0.0867 -0.7485 -2.3397
 8651SOL    HW226670   6.319   6.389   3.913 -1.2299  0.3214 -1.8446
 8652SOL     OW26671   6.446   5.424   2.866  0.8356 -0.1816 -0.3628
 8652SOL    HW126672   6.408   5.414   2.779  0.5960  0.1130 -0.2912
 8652SOL    HW226673   6.476   5.514   2.869 -0.4470  0.2378  0.3777
 8653SOL     OW26674   1.894   5.245   2.778 -0.1856 -0.4993  0.1220
 8653SOL    HW126675   1.802   5.219   2.771 -0.1249 -0.0273 -3.1178
 8653SOL    HW226676   1.892   5.341   2.774  0.2759 -0.3290  2.9238
 8654SOL     OW26677   6.684   5.113   4.615  0.2943 -0.1072  0.0073
 8654SOL    HW126678   6.628   5.162   4.555 -0.0823  1.7549  1.8145
 8654SOL    HW226679   6.662   5.021   4.599 -0.5459  0.4143 -1.9424
 8655SOL     OW26680   0.997   5.825   2.548 -0.3158 -0.1279  0.2141
 8655SOL    HW126681   0.992   5.729   2.556 -2.6086 -0.1514 -0.8679
 8655SOL    HW226682   0.916   5.848   2.502  0.9414  2.1934 -0.8811
 8656SOL     OW26683   4.396   6.232   6.049  0.0794  0.3633 -0.1857
 8656SOL    HW126684   4.337   6.157   6.041  1.6086 -0.8859 -0.0270
 8656SOL    HW226685   4.468   6.212   5.989  1.2014  1.0218  0.9196
 8657SOL     OW26686   6.554   4.039   4.578  0.2354 -0.2531 -0.2163
 8657SOL    HW126687   6.501   3.997   4.511 -0.8562  1.2021 -0.3004
 8657SOL    HW226688   6.560   4.131   4.550  0.0921  0.2822  1.4465
 8658SOL     OW26689   4.354   6.585   3.429 -0.4375  0.2823  0.7564
 8658SOL    HW126690   4.335   6.670   3.467 -2.3431  0.4027 -0.3858
 8658SOL    HW226691   4.384   6.532   3.502  0.8893  1.9602  1.4540
 8659SOL     OW26692   5.458   3.800   5.715 -0.5287 -0.1299 -0.2712
 8659SOL    HW126693   5.396   3.821   5.785  0.5490 -1.4757  1.1125
 8659SOL    HW226694   5.434   3.859   5.644 -3.1076 -0.2865  0.3961
 8660SOL     OW26695   4.787   1.017   4.029  0.0205  0.1314 -0.0531
 8660SOL    HW126696   4.777   1.067   4.110 -1.4237 -1.6815  0.9347
 8660SOL    HW226697   4.724   1.056   3.969  1.9238  2.2542 -0.7405
 8661SOL     OW26698   2.957   5.368   0.145 -0.0764 -0.5607 -0.0797
 8661SOL    HW126699   3.010   5.405   0.075  0.6111 -0.1249  0.6638
 8661SOL    HW226700   2.928   5.284   0.110 -0.9145  0.2640 -1.4307
 8662SOL     OW26701   3.347   0.255   2.239  0.2191 -0.2855 -0.2964
 8662SOL    HW126702   3.427   0.250   2.290  0.5122  1.8692 -0.5057
 8662SOL    HW226703   3.289   0.189   2.278  1.7595 -1.2270  0.4148
 8663SOL     OW26704   2.383   0.038   4.670  0.4150 -0.6454  0.0986
 8663SOL    HW126705   2.382  -0.027   4.741 -0.6540 -0.5651  0.1512
 8663SOL    HW226706   2.300   0.026   4.624  0.8331 -0.2692 -0.7638
 8664SOL     OW26707   1.648   3.809   1.923 -1.1415  0.1456  0.2407
 8664SOL    HW126708   1.653   3.818   2.018  0.0474 -3.3445  0.5940
 8664SOL    HW226709   1.610   3.722   1.909 -0.6998  0.3384 -2.4533
 8665SOL     OW26710   5.793   4.212   3.877 -0.2368  0.3668  0.4644
 8665SOL    HW126711   5.775   4.219   3.783  0.9871 -0.5971  0.1521
 8665SOL    HW226712   5.827   4.123   3.889 -1.0776  0.2213  1.9448
 8666SOL     OW26713   4.109   0.525   3.413  0.1309 -0.7257 -0.3527
 8666SOL    HW126714   4.078   0.614   3.397  1.1084 -0.6139 -1.7435
 8666SOL    HW226715   4.063   0.472   3.348 -1.4603 -1.4714  1.3397
 8667SOL     OW26716   2.583   5.743   4.767 -0.1465  0.2294  0.0936
 8667SOL    HW126717   2.574   5.661   4.815  2.2084 -0.9082 -1.2916
 8667SOL    HW226718   2.537   5.727   4.684  1.1685 -0.0799 -0.5908
 8668SOL     OW26719   2.457   0.456   0.378 -0.2128 -0.0136 -0.1826
 8668SOL    HW126720   2.470   0.395   0.450  0.2779 -0.5998 -0.7641
 8668SOL    HW226721   2.470   0.404   0.299 -0.2513  0.7307 -0.6917
 8669SOL     OW26722   6.125   2.226   4.876 -0.0628  0.2114  0.2458
 8669SOL    HW126723   6.138   2.254   4.966 -1.6044 -1.5474  1.0536
 8669SOL    HW226724   6.139   2.131   4.878 -1.9427 -0.1209 -0.9881
 8670SOL     OW26725   2.465   6.489   5.677  0.1487 -0.5527  0.0475
 8670SOL    HW126726   2.465   6.578   5.714  1.5349  0.0991 -1.4063
 8670SOL    HW226727   2.441   6.502   5.585 -3.4536 -2.1572  0.6687
 8671SOL     OW26728   3.862   5.102   6.631 -0.3969  0.2180 -0.0202
 8671SOL    HW126729   3.819   5.143   6.555  0.0521 -1.5443 -1.2634
 8671SOL    HW226730   3.894   5.176   6.683 -0.2203  1.4826 -1.8481
 8672SOL     OW26731   0.655   4.746   1.390 -0.0913 -0.3910  0.5712
 8672SOL    HW126732   0.703   4.828   1.392  1.2497 -1.1629  3.3317
 8672SOL    HW226733   0.701   4.692   1.326  0.6478  0.0663  0.7177
 8673SOL     OW26734   4.836   3.172   0.676 -0.4740  0.1183  0.4661
 8673SOL    HW126735   4.816   3.084   0.708 -0.6916 -0.3429 -0.9081
 8673SOL    HW226736   4.875   3.158   0.590 -0.1836  1.3554  0.3896
 8674SOL     OW26737   6.249   2.847   1.150  0.4903 -0.0008  0.0504
 8674SOL    HW126738   6.213   2.902   1.220 -0.3499 -2.1119  1.3191
 8674SOL    HW226739   6.189   2.859   1.077 -0.0124  0.3278  0.5114
 8675SOL     OW26740   1.010   3.227   2.107 -0.1951 -0.6179 -0.1773
 8675SOL    HW126741   1.016   3.230   2.203  0.3509  0.0682 -0.2255
 8675SOL    HW226742   1.091   3.185   2.079  1.9492  3.4434 -0.5468
 8676SOL     OW26743   4.437   4.805   4.073 -0.1296 -0.0062 -0.1862
 8676SOL    HW126744   4.516   4.798   4.019 -0.2874  1.1150 -0.5850
 8676SOL    HW226745   4.467   4.792   4.162  0.2769 -1.0185 -0.4722
 8677SOL     OW26746   4.668   6.546   5.155  0.0787 -0.4496 -0.1093
 8677SOL    HW126747   4.763   6.542   5.150  0.2100  2.5871 -1.2112
 8677SOL    HW226748   4.637   6.497   5.078  0.8319  0.9107 -1.2975
 8678SOL     OW26749   1.245   5.816   2.799  0.1366  0.4349 -0.0513
 8678SOL    HW126750   1.256   5.769   2.882 -0.5570  1.8147  0.8365
 8678SOL    HW226751   1.201   5.897   2.823  0.4461  1.1090 -1.7072
 8679SOL     OW26752   1.421   1.079   0.395 -0.6847 -0.5210 -0.6337
 8679SOL    HW126753   1.397   1.162   0.354 -3.1140  0.4633  2.6041
 8679SOL    HW226754   1.515   1.087   0.412 -0.4707  0.6808 -2.2916
 8680SOL     OW26755   5.484   6.225   2.468 -0.0727 -0.2647 -0.2299
 8680SOL    HW126756   5.517   6.212   2.379  1.4982  0.6883  0.1966
 8680SOL    HW226757   5.447   6.313   2.467 -0.1512 -0.2950  0.0160
 8681SOL     OW26758   4.303   5.972   3.728  0.0754  0.1539  0.3402
 8681SOL    HW126759   4.364   6.029   3.775  1.9285 -1.4221 -0.0834
 8681SOL    HW226760   4.358   5.902   3.693 -1.4682  0.5584 -3.0780
 8682SOL     OW26761   5.472   0.150   6.598  0.3025 -0.8303  0.1054
 8682SOL    HW126762   5.408   0.138   6.528 -0.1877 -0.4380  0.4845
 8682SOL    HW226763   5.425   0.128   6.678 -0.3650  2.5743  0.7449
 8683SOL     OW26764   0.364   0.558   3.553 -0.3414  0.0275  0.1567
 8683SOL    HW126765   0.401   0.478   3.590 -2.9600 -1.3886 -0.1350
 8683SOL    HW226766   0.386   0.554   3.460 -0.5164 -0.4024  0.1303
 8684SOL     OW26767   3.568   0.802   3.029 -0.2892  0.4875 -0.1716
 8684SOL    HW126768   3.628   0.729   3.045  0.4440  1.0802 -0.2033
 8684SOL    HW226769   3.481   0.762   3.032  0.0433 -0.1787  1.0254
 8685SOL     OW26770   6.204   3.296   4.890  0.4598  0.4808 -0.3339
 8685SOL    HW126771   6.177   3.226   4.949 -0.3611 -0.2348 -1.5137
 8685SOL    HW226772   6.207   3.375   4.944  0.7339 -0.3538  0.8665
 8686SOL     OW26773   5.849   3.785   4.594 -0.2505  0.3165 -0.1420
 8686SOL    HW126774   5.838   3.745   4.508 -0.1398 -0.8570  0.3776
 8686SOL    HW226775   5.944   3.783   4.610 -0.1387  1.7863 -0.5752
 8687SOL     OW26776   1.482   0.296   2.724  0.4228 -0.0230 -0.0663
 8687SOL    HW126777   1.571   0.268   2.703  0.1269 -0.8201 -0.2764
 8687SOL    HW226778   1.443   0.317   2.639  0.3386  0.1270  0.0086
 8688SOL     OW26779   4.594   2.447   4.364 -0.7445  0.3218 -0.4835
 8688SOL    HW126780   4.604   2.361   4.324  1.2289 -1.0085  2.7353
 8688SOL    HW226781   4.512   2.441   4.414 -2.1141  1.3117 -2.5154
 8689SOL     OW26782   6.248   1.575   1.089 -0.0769 -0.2939  0.2675
 8689SOL    HW126783   6.302   1.599   1.014 -0.6491 -1.3686 -0.4959
 8689SOL    HW226784   6.158   1.577   1.057 -0.3637 -0.2810  1.0552
 8690SOL     OW26785   5.361   3.583   0.003 -0.0004 -0.3332 -0.4767
 8690SOL    HW126786   5.340   3.508   0.059 -0.8071 -1.0916 -1.7338
 8690SOL    HW226787   5.343   3.660   0.057  1.2487 -1.0534  0.9739
 8691SOL     OW26788   6.726   5.062   0.764 -0.2313  0.3601  0.4236
 8691SOL    HW126789   6.664   5.084   0.694 -2.0350 -2.3319  1.0941
 8691SOL    HW226790   6.675   5.067   0.844  0.7669 -0.4885  1.1370
 8692SOL     OW26791   2.235   6.141   0.093  0.4849 -0.5482 -0.0697
 8692SOL    HW126792   2.156   6.160   0.145  0.8209  0.4647  0.0862
 8692SOL    HW226793   2.205   6.080   0.025 -0.5656  0.2479 -0.3425
 8693SOL     OW26794   4.000   5.248   0.557 -0.0644  0.1735 -0.5229
 8693SOL    HW126795   3.923   5.252   0.500 -0.2855 -1.0868 -0.3179
 8693SOL    HW226796   4.067   5.204   0.504  0.5463  1.3353 -0.7303
 8694SOL     OW26797   0.724   5.494   3.986 -0.3696 -0.2193 -0.3750
 8694SOL    HW126798   0.754   5.582   3.963 -0.0703 -0.2949 -0.2802
 8694SOL    HW226799   0.633   5.505   4.011  0.0381  0.2670  0.9010
 8695SOL     OW26800   0.250   1.383   4.645 -0.5604  0.5483  0.2224
 8695SOL    HW126801   0.246   1.451   4.578 -1.3200 -0.3356 -0.6620
 8695SOL    HW226802   0.310   1.318   4.610 -2.4232 -0.8339 -0.5163
 8696SOL     OW26803   4.150   1.122   0.787  0.0819  0.4243 -0.0272
 8696SOL    HW126804   4.134   1.126   0.693 -1.3097 -0.0927  0.1816
 8696SOL    HW226805   4.103   1.198   0.823 -0.5771 -0.1776  0.4023
 8697SOL     OW26806   0.649   2.620   0.056  0.1103  0.3603  0.4240
 8697SOL    HW126807   0.675   2.555  -0.010  1.5339 -0.2723  1.5761
 8697SOL    HW226808   0.557   2.603   0.072  0.7561 -2.2504  1.6419
 8698SOL     OW26809   6.354   3.430   3.236  0.3255  0.1737 -0.2895
 8698SOL    HW126810   6.444   3.459   3.252  0.5752 -0.9142  0.3511
 8698SOL    HW226811   6.360   3.334   3.234 -0.7852  0.1015 -0.4537
 8699SOL     OW26812   6.671   1.398   4.145 -0.7450 -0.2385 -0.0595
 8699SOL    HW126813   6.692   1.329   4.208  1.1192 -0.0996 -0.4769
 8699SOL    HW226814   6.735   1.467   4.163 -0.5096  0.0131 -1.7446
 8700SOL     OW26815   4.280   3.108   6.270 -0.2724  0.2061  0.2347
 8700SOL    HW126816   4.185   3.119   6.263 -0.1371  2.4856  1.5543
 8700SOL    HW226817   4.314   3.133   6.184 -0.9948 -2.5506 -0.8820
 8701SOL     OW26818   1.539   3.642   2.489  0.1865 -0.1000  0.2642
 8701SOL    HW126819   1.538   3.734   2.462 -0.6156 -0.2270 -0.1420
 8701SOL    HW226820   1.451   3.610   2.469  0.3034 -0.8172  0.8918
 8702SOL     OW26821   2.241   2.237   4.511  0.1663  0.5491 -0.3552
 8702SOL    HW126822   2.268   2.324   4.543  2.1238  0.2254 -1.0542
 8702SOL    HW226823   2.257   2.241   4.417  0.1616 -0.5389 -0.4022
 8703SOL     OW26824   3.874   1.512   0.149  0.1488 -0.8926 -0.9777
 8703SOL    HW126825   3.932   1.588   0.145 -0.8999  0.0239  0.6144
 8703SOL    HW226826   3.860   1.487   0.058  1.9927 -0.3327 -1.4374
 8704SOL     OW26827   5.622   6.755   4.233  0.0281 -0.8345 -0.2953
 8704SOL    HW126828   5.548   6.799   4.190 -0.6450 -0.9142  0.7737
 8704SOL    HW226829   5.699   6.803   4.202 -0.3604 -1.4799 -2.3411
 8705SOL     OW26830   0.906   5.598   2.878  0.8122 -0.3199  0.3045
 8705SOL    HW126831   0.968   5.533   2.845  1.3245 -1.2813  3.0830
 8705SOL    HW226832   0.841   5.547   2.926 -0.6197  0.9443 -0.2498
 8706SOL     OW26833   2.525   4.470   4.895 -0.2046  0.0942 -0.1971
 8706SOL    HW126834   2.525   4.449   4.989  0.9356 -2.3044 -0.7080
 8706SOL    HW226835   2.435   4.456   4.867 -0.7437  1.6492  0.6972
 8707SOL     OW26836   4.363   1.464   2.061  0.6489 -0.1065 -0.2027
 8707SOL    HW126837   4.296   1.505   2.115  1.2975 -0.7779  1.1357
 8707SOL    HW226838   4.316   1.436   1.982 -0.6012 -0.3779  0.6224
 8708SOL     OW26839   4.196   5.213   4.179 -0.0230  0.1856  0.3668
 8708SOL    HW126840   4.171   5.301   4.151 -0.5373  0.3500  1.3253
 8708SOL    HW226841   4.290   5.208   4.161  0.3014  1.4409  1.6096
 8709SOL     OW26842   2.832   6.232   3.512  0.3684  0.8726  0.2212
 8709SOL    HW126843   2.819   6.296   3.442 -1.2793 -0.9324 -1.1921
 8709SOL    HW226844   2.925   6.210   3.508  0.5402  1.7266 -0.5668
 8710SOL     OW26845   6.124   5.102   4.081  0.0505  0.8414  0.0651
 8710SOL    HW126846   6.120   5.018   4.037 -0.8328  1.1712 -0.4860
 8710SOL    HW226847   6.210   5.138   4.056 -0.5367  1.1376 -1.5997
 8711SOL     OW26848   1.848   3.607   1.827  0.0010 -0.1227  0.0950
 8711SOL    HW126849   1.857   3.687   1.879 -2.7023 -0.0124  0.4827
 8711SOL    HW226850   1.860   3.636   1.737  1.8960  0.1861  0.4269
 8712SOL     OW26851   3.242   2.865   5.327  0.7084  0.2981  0.0442
 8712SOL    HW126852   3.301   2.910   5.267  0.6608 -0.2478 -0.4166
 8712SOL    HW226853   3.163   2.849   5.276 -0.2147  1.8898  0.9510
 8713SOL     OW26854   2.217   0.814   2.531 -0.6160 -0.0275 -0.2386
 8713SOL    HW126855   2.279   0.771   2.589 -0.8143 -0.2015 -0.1538
 8713SOL    HW226856   2.156   0.858   2.590 -0.5542  0.1704 -0.3210
 8714SOL     OW26857   3.728   4.137   3.739 -0.1741  0.1516  0.0468
 8714SOL    HW126858   3.638   4.134   3.706 -0.0035  0.5611 -0.4741
 8714SOL    HW226859   3.723   4.194   3.816 -0.3462  0.2592 -0.0422
 8715SOL     OW26860   1.072   2.762   5.707 -0.2444 -0.2149  0.0338
 8715SOL    HW126861   1.133   2.775   5.634  0.6612  0.4404  0.8976
 8715SOL    HW226862   1.121   2.710   5.771 -1.2081 -1.2222 -0.0237
 8716SOL     OW26863   4.150   0.134   1.805 -0.7617 -0.0570  0.5091
 8716SOL    HW126864   4.223   0.083   1.769  0.9905  2.0922  0.9030
 8716SOL    HW226865   4.103   0.166   1.728  0.3779  0.8655  0.1784
 8717SOL     OW26866   5.579   0.313   4.952  0.3875  0.2901  0.5338
 8717SOL    HW126867   5.571   0.278   5.041  1.9843 -0.5122  0.3678
 8717SOL    HW226868   5.508   0.271   4.904 -0.5052  0.7481  1.4258
 8718SOL     OW26869   3.048   2.089   0.700  0.1603 -0.1627 -0.1332
 8718SOL    HW126870   3.071   2.168   0.750  1.8257  1.4124 -3.2639
 8718SOL    HW226871   3.082   2.017   0.752  1.4716  1.3840  1.2239
 8719SOL     OW26872   0.599   2.146   1.321 -0.2209 -0.4197  0.0496
 8719SOL    HW126873   0.554   2.062   1.311 -0.8000 -0.2708  1.3083
 8719SOL    HW226874   0.647   2.157   1.239 -0.7760 -1.5982 -0.4523
 8720SOL     OW26875   2.187   0.057   1.249  0.1863 -0.3019  0.1871
 8720SOL    HW126876   2.093   0.043   1.244  0.0516  1.0151 -1.1840
 8720SOL    HW226877   2.203   0.081   1.340 -0.5023 -2.5159  0.9158
 8721SOL     OW26878   0.615   0.815   6.718 -0.0638  0.1083 -0.2470
 8721SOL    HW126879   0.568   0.865   6.784  0.0798  1.2961 -1.0196
 8721SOL    HW226880   0.691   0.780   6.763 -1.1467 -0.9706  0.7600
 8722SOL     OW26881   1.598   2.177   0.896  0.1851  0.5635 -0.1851
 8722SOL    HW126882   1.532   2.215   0.838  0.2914  1.0974  0.0465
 8722SOL    HW226883   1.600   2.235   0.972 -1.8123 -1.5464  1.5466
 8723SOL     OW26884   1.179   3.130   6.324  0.4030  0.4149  0.5356
 8723SOL    HW126885   1.108   3.191   6.342  2.0488  2.3548  0.6298
 8723SOL    HW226886   1.146   3.045   6.353 -1.4008  1.5025  1.7464
 8724SOL     OW26887   1.692   4.536   4.975  0.6479 -0.2143  0.4763
 8724SOL    HW126888   1.609   4.573   5.003  0.8185 -0.2170  0.9792
 8724SOL    HW226889   1.677   4.442   4.972 -0.1742 -0.0461 -2.0415
 8725SOL     OW26890   4.672   5.455   0.905  0.3073  0.0921  0.2267
 8725SOL    HW126891   4.763   5.469   0.877 -0.0187 -0.0450 -0.9202
 8725SOL    HW226892   4.622   5.455   0.823 -0.8386  1.0448  0.9272
 8726SOL     OW26893   6.015   1.976   6.230  0.6598  0.1235  0.1974
 8726SOL    HW126894   5.940   1.989   6.288  0.5503  0.1840  0.0422
 8726SOL    HW226895   6.029   2.061   6.189 -0.0126 -0.2284 -0.7649
 8727SOL     OW26896   2.042   0.465   6.126 -0.5798  0.4709 -0.2694
 8727SOL    HW126897   2.078   0.472   6.214 -2.1868  1.2938  0.3426
 8727SOL    HW226898   2.116   0.437   6.072  0.7073  1.1115  1.1228
 8728SOL     OW26899   3.278   1.625   3.017 -0.0623 -0.0187 -0.4201
 8728SOL    HW126900   3.219   1.617   3.092 -0.6224 -0.4755 -0.9045
 8728SOL    HW226901   3.364   1.641   3.056 -0.6830  1.8095  0.2503
 8729SOL     OW26902   0.328   2.496   4.279  0.3594 -0.3645 -0.0294
 8729SOL    HW126903   0.352   2.428   4.342  2.6287  0.5327  0.1183
 8729SOL    HW226904   0.378   2.573   4.306 -0.0336  0.5695 -1.8440
 8730SOL     OW26905   6.358   6.147   6.495  0.2486  0.2840  0.3824
 8730SOL    HW126906   6.320   6.060   6.509 -1.8174  0.8058 -1.7106
 8730SOL    HW226907   6.419   6.134   6.422  0.8886  0.3491  0.8991
 8731SOL     OW26908   3.907   5.793   2.958  0.2416 -0.6990  0.5949
 8731SOL    HW126909   3.975   5.748   2.907  0.5452  0.2986  0.1115
 8731SOL    HW226910   3.882   5.868   2.904 -0.7370 -0.6578  1.0979
 8732SOL     OW26911   0.853   5.154   5.319  0.0639  0.3642 -0.2410
 8732SOL    HW126912   0.785   5.105   5.273 -0.4892 -0.2066  1.1577
 8732SOL    HW226913   0.920   5.170   5.253 -0.1537 -1.5164 -0.9508
 8733SOL     OW26914   6.589   3.971   1.161 -0.0947  0.3036 -0.0317
 8733SOL    HW126915   6.670   4.018   1.141 -0.4697  0.8437 -0.3066
 8733SOL    HW226916   6.584   3.902   1.095 -0.0348  0.4920 -0.2331
 8734SOL     OW26917   6.337   1.854   3.041 -0.1811  0.2887  0.5742
 8734SOL    HW126918   6.396   1.888   2.974  0.5554 -2.4679 -0.2410
 8734SOL    HW226919   6.257   1.906   3.032  0.2293  0.5569 -1.8622
 8735SOL     OW26920   5.997   6.603   1.630 -0.3310  0.3436  0.0619
 8735SOL    HW126921   6.009   6.539   1.701  0.4811  0.9432  0.4813
 8735SOL    HW226922   6.016   6.687   1.671  1.4237  0.5854 -1.1782
 8736SOL     OW26923   3.066   5.636   5.956 -0.2579  0.4319  0.3569
 8736SOL    HW126924   3.046   5.639   6.050  1.8162 -0.9159  0.8721
 8736SOL    HW226925   3.151   5.679   5.948 -0.8577  1.3872 -1.0589
 8737SOL     OW26926   5.653   2.481   4.385  0.1404  0.2808  0.2095
 8737SOL    HW126927   5.637   2.551   4.320 -1.6410  1.2994  1.7014
 8737SOL    HW226928   5.745   2.492   4.408 -0.0047  1.9127  0.1350
 8738SOL     OW26929   3.318   0.272   0.146 -0.2747  0.1460  0.1875
 8738SOL    HW126930   3.400   0.303   0.107 -0.4328  0.0906 -0.1879
 8738SOL    HW226931   3.327   0.292   0.240 -0.3341  1.2470 -0.0369
 8739SOL     OW26932   4.818   1.152   6.270 -0.0965  0.2626  0.2309
 8739SOL    HW126933   4.840   1.173   6.361  1.1249  1.4418 -0.3207
 8739SOL    HW226934   4.805   1.058   6.269 -1.4827  0.4116  1.9189
 8740SOL     OW26935   5.606   2.113   3.271 -0.5568  0.0234 -0.1856
 8740SOL    HW126936   5.512   2.114   3.251 -0.1621  0.9558 -2.1220
 8740SOL    HW226937   5.632   2.205   3.266  0.4465 -0.2236  0.4389
 8741SOL     OW26938   4.925   1.455   1.565 -0.3585 -0.6724 -1.5248
 8741SOL    HW126939   5.001   1.473   1.510 -0.6474 -0.1583 -1.7616
 8741SOL    HW226940   4.924   1.360   1.574 -0.4036 -0.7789 -2.5524
 8742SOL     OW26941   5.124   1.301   6.377 -0.6562 -0.0594 -0.8468
 8742SOL    HW126942   5.052   1.318   6.437 -0.4694 -1.9887 -0.0168
 8742SOL    HW226943   5.189   1.369   6.397 -1.9461  1.2755 -1.1382
 8743SOL     OW26944   1.174   0.285   5.226  0.5643  0.4633  0.2294
 8743SOL    HW126945   1.207   0.369   5.259  1.8876  0.5388 -1.2346
 8743SOL    HW226946   1.164   0.298   5.132  0.2583 -0.8705  0.0671
 8744SOL     OW26947   2.251   1.211   1.217 -0.5598 -0.4200  0.7977
 8744SOL    HW126948   2.248   1.144   1.149 -0.0621  0.6715 -0.3098
 8744SOL    HW226949   2.159   1.223   1.243 -0.8415 -0.2500 -0.2608
 8745SOL     OW26950   0.954   0.920   6.722 -0.6175  0.2494 -0.0347
 8745SOL    HW126951   0.886   0.981   6.750 -1.9185 -1.1085 -0.1963
 8745SOL    HW226952   0.915   0.870   6.651 -0.1902 -1.9326  1.2028
 8746SOL     OW26953   4.188   1.230   1.240 -0.3208  0.1690  0.1507
 8746SOL    HW126954   4.140   1.279   1.306 -1.3750  1.7557 -1.7312
 8746SOL    HW226955   4.267   1.281   1.224 -0.2731  0.0147 -0.1180
 8747SOL     OW26956   4.535   5.193   0.052 -0.1622 -0.7076 -0.1295
 8747SOL    HW126957   4.560   5.226   0.138  0.7810  1.1347 -1.0827
 8747SOL    HW226958   4.447   5.227   0.037 -0.8562 -2.1203  0.6401
 8748SOL     OW26959   0.995   4.562   5.890 -0.0526  0.1425  0.1124
 8748SOL    HW126960   0.983   4.653   5.915 -0.6235  0.2843 -0.6531
 8748SOL    HW226961   0.925   4.545   5.827  0.3262 -0.6913 -0.0917
 8749SOL     OW26962   5.928   4.369   0.350 -0.0140  0.8703  0.1731
 8749SOL    HW126963   5.923   4.398   0.259  1.0769 -0.4365 -0.3198
 8749SOL    HW226964   6.018   4.338   0.360 -0.5989 -0.5131  1.2305
 8750SOL     OW26965   5.323   0.140   3.220 -0.0238 -0.6199 -0.1640
 8750SOL    HW126966   5.394   0.157   3.282 -0.0503 -0.4254 -0.1869
 8750SOL    HW226967   5.271   0.071   3.262  0.4556 -1.1121 -0.3771
 8751SOL     OW26968   0.448   3.107   2.806 -0.0346 -0.5522 -0.3771
 8751SOL    HW126969   0.367   3.079   2.847 -0.2172  1.1720  0.4885
 8751SOL    HW226970   0.518   3.065   2.856 -0.3357 -0.2914  0.2596
 8752SOL     OW26971   2.788   1.503   6.750  0.2366  0.3516 -0.2249
 8752SOL    HW126972   2.717   1.460   6.798  0.3464 -0.1922 -0.5460
 8752SOL    HW226973   2.840   1.546   6.818 -1.3061  2.1380 -0.1126
 8753SOL     OW26974   6.027   0.633   1.568 -0.1668  0.5109 -0.2425
 8753SOL    HW126975   6.071   0.660   1.649  1.2025  0.4734 -0.9651
 8753SOL    HW226976   5.960   0.700   1.555 -2.4327 -1.1306  2.5320
 8754SOL     OW26977   4.718   2.964   4.356  0.1910  0.2359 -0.0081
 8754SOL    HW126978   4.742   3.032   4.292  0.2641 -0.6381 -0.9152
 8754SOL    HW226979   4.671   3.012   4.424  0.4628  1.2442 -0.5148
 8755SOL     OW26980   2.290   4.222   1.221 -0.4818 -0.2082 -0.3718
 8755SOL    HW126981   2.277   4.129   1.206 -0.4326 -0.4223  0.8965
 8755SOL    HW226982   2.309   4.258   1.134  0.8477 -1.5981 -0.6741
 8756SOL     OW26983   0.947   0.460   6.527 -0.0236  0.2129 -0.0992
 8756SOL    HW126984   0.983   0.473   6.614 -0.4150 -1.6137  0.3653
 8756SOL    HW226985   0.881   0.392   6.538 -2.2108  2.0699 -1.2862
 8757SOL     OW26986   4.839   4.136   1.578  0.1165 -0.1473 -0.0875
 8757SOL    HW126987   4.819   4.044   1.599  1.8118 -0.4083  0.4512
 8757SOL    HW226988   4.809   4.185   1.655  0.5044 -0.4080  0.2303
 8758SOL     OW26989   2.666   1.581   4.509 -0.0157 -0.4868 -0.4376
 8758SOL    HW126990   2.761   1.572   4.513  0.1057  0.2263 -1.5163
 8758SOL    HW226991   2.652   1.659   4.456 -1.1823  0.1668  0.7839
 8759SOL     OW26992   2.001   4.852   1.888  0.3589 -0.2072  0.3415
 8759SOL    HW126993   2.017   4.761   1.912  1.7631 -0.0681 -0.0399
 8759SOL    HW226994   2.087   4.894   1.892 -0.4364  1.4070  1.7570
 8760SOL     OW26995   1.105   5.395   4.030 -0.3836  0.4591  0.3104
 8760SOL    HW126996   1.154   5.377   4.110 -0.9833  0.2510  0.6314
 8760SOL    HW226997   1.079   5.487   4.037  1.8084  1.2086 -0.8623
 8761SOL     OW26998   5.314   1.069   5.621 -0.2412 -0.7321 -0.0773
 8761SOL    HW126999   5.290   1.051   5.530 -0.3037  2.0061 -0.6356
 8761SOL    HW227000   5.230   1.077   5.666 -0.3054  1.2143 -0.4863
 8762SOL     OW27001   6.317   0.310   5.495  0.3390  0.4592 -0.1397
 8762SOL    HW127002   6.269   0.267   5.424  1.4439 -1.0839  0.0089
 8762SOL    HW227003   6.331   0.241   5.560  1.6211  1.1934  0.3965
 8763SOL     OW27004   2.029   4.404   4.111  0.1222 -0.3896 -0.3755
 8763SOL    HW127005   2.104   4.457   4.141  0.4773 -0.7917 -0.5413
 8763SOL    HW227006   1.955   4.464   4.115  0.1169 -0.4960  1.5039
 8764SOL     OW27007   0.146   5.388   5.856  0.5502 -0.2505 -0.3480
 8764SOL    HW127008   0.162   5.363   5.947 -0.5481  0.5705  0.0782
 8764SOL    HW227009   0.232   5.409   5.821  0.7801  1.0804  0.9946
 8765SOL     OW27010   3.025   1.616   1.545  0.2811  0.1507 -0.0799
 8765SOL    HW127011   2.963   1.660   1.602  0.9206  1.1376 -0.1267
 8765SOL    HW227012   2.977   1.600   1.464  0.8789  3.5094 -1.1904
 8766SOL     OW27013   6.031   6.174   2.256  0.6772 -0.1646  0.3675
 8766SOL    HW127014   6.073   6.182   2.170 -3.6951  2.4838 -1.6957
 8766SOL    HW227015   6.052   6.256   2.300  0.1826 -0.1079  0.4961
 8767SOL     OW27016   5.590   6.466   2.794  0.0002 -0.2481 -0.1638
 8767SOL    HW127017   5.525   6.500   2.732  0.5542  0.0222 -0.6095
 8767SOL    HW227018   5.669   6.517   2.775  0.5665 -1.1191 -0.1790
 8768SOL     OW27019   1.550   2.286   6.109  0.4860 -0.0689  0.4880
 8768SOL    HW127020   1.573   2.369   6.069 -0.5560  0.5559  1.1684
 8768SOL    HW227021   1.458   2.296   6.134  0.7646 -0.8989  1.8817
 8769SOL     OW27022   1.806   5.410   0.884  0.0981 -0.0066 -0.5978
 8769SOL    HW127023   1.736   5.345   0.874  0.1564  0.0629 -1.5083
 8769SOL    HW227024   1.886   5.364   0.858  0.5252 -0.3340  1.2279
 8770SOL     OW27025   1.938   5.540   3.901 -0.4959  0.1393  0.4962
 8770SOL    HW127026   2.023   5.496   3.892 -0.8248 -0.5762  0.8075
 8770SOL    HW227027   1.960   5.632   3.918  0.2217 -0.1016  0.9025
 8771SOL     OW27028   2.625   0.855   4.712 -0.7571  0.2806 -0.8401
 8771SOL    HW127029   2.572   0.779   4.737  0.5157 -0.7449 -1.2023
 8771SOL    HW227030   2.647   0.839   4.620  0.1771  0.7059 -0.6904
 8772SOL     OW27031   3.825   3.382   1.317 -0.6665  0.1748 -0.0852
 8772SOL    HW127032   3.773   3.428   1.252  0.4543  3.0407  0.9718
 8772SOL    HW227033   3.915   3.396   1.290 -0.2995 -1.3825  0.2968
 8773SOL     OW27034   6.330   3.190   0.510  0.3417 -0.0893  0.0055
 8773SOL    HW127035   6.270   3.116   0.522 -0.3756  0.3378 -0.8385
 8773SOL    HW227036   6.389   3.186   0.585 -1.4954  0.1622  1.5202
 8774SOL     OW27037   5.361   2.075   0.069 -0.6632  0.5688  0.7951
 8774SOL    HW127038   5.450   2.082   0.103  0.7674 -0.0775 -2.6332
 8774SOL    HW227039   5.341   2.163   0.035 -0.1424 -0.0376 -1.1421
 8775SOL     OW27040   4.924   0.039   5.837 -0.4975 -0.6131 -0.1039
 8775SOL    HW127041   4.921  -0.038   5.893  0.5514 -0.1830  0.5493
 8775SOL    HW227042   4.840   0.083   5.852 -0.4906 -0.8511  0.6221
 8776SOL     OW27043   0.420   3.515   2.284 -0.0493 -0.6070  0.3851
 8776SOL    HW127044   0.481   3.442   2.291  0.6744  0.0821  1.4634
 8776SOL    HW227045   0.456   3.582   2.343 -1.2138  0.2465  0.1437
 8777SOL     OW27046   1.968   5.149   5.511 -0.1306  0.2591 -0.0337
 8777SOL    HW127047   1.966   5.103   5.428 -0.6087  0.3874 -0.0929
 8777SOL    HW227048   1.882   5.132   5.551  0.6861 -1.1764  1.1823
 8778SOL     OW27049   6.756   0.164   5.184 -0.5785  0.3393  0.4685
 8778SOL    HW127050   6.835   0.111   5.169 -0.7902  0.2207 -0.2727
 8778SOL    HW227051   6.788   0.242   5.228 -0.3084 -0.5795  1.9289
 8779SOL     OW27052   5.858   5.492   2.225  0.0184  0.2240 -0.4315
 8779SOL    HW127053   5.833   5.571   2.273 -1.6058  1.4919 -3.1957
 8779SOL    HW227054   5.932   5.519   2.171  2.2751 -1.3665  1.8144
 8780SOL     OW27055   4.593   4.380   5.777 -0.0941  0.2129 -0.3429
 8780SOL    HW127056   4.670   4.403   5.725 -0.1980  0.2871 -0.4640
 8780SOL    HW227057   4.611   4.416   5.863 -0.0429  0.3284 -0.4020
 8781SOL     OW27058   1.658   2.629   3.423 -0.1385  0.0979 -0.1646
 8781SOL    HW127059   1.653   2.719   3.456 -0.1366 -0.1118  0.4141
 8781SOL    HW227060   1.726   2.632   3.355 -1.8023  1.0352 -1.8150
 8782SOL     OW27061   2.909   4.915   2.021  0.2695 -0.2663  0.1701
 8782SOL    HW127062   2.831   4.968   2.004 -0.6274 -1.6042 -0.0405
 8782SOL    HW227063   2.900   4.841   1.961  2.3847  0.2229 -0.7761
 8783SOL     OW27064   3.387   0.515   5.426  0.7583  0.4830  0.5356
 8783SOL    HW127065   3.347   0.599   5.405  1.9161  1.0313  0.5075
 8783SOL    HW227066   3.472   0.537   5.465  1.4353 -0.6877 -0.2393
 8784SOL     OW27067   2.999   0.583   6.359  0.3043 -0.2699  0.0182
 8784SOL    HW127068   2.949   0.636   6.422 -0.5786 -1.3751  0.2612
 8784SOL    HW227069   3.064   0.538   6.412 -0.8343 -1.6764  0.2562
 8785SOL     OW27070   6.207   1.142   0.485  0.3211 -0.0896 -0.1382
 8785SOL    HW127071   6.142   1.074   0.471  0.6637 -0.2644 -0.9262
 8785SOL    HW227072   6.272   1.128   0.416  1.4609 -0.2414  0.9330
 8786SOL     OW27073   3.971   1.498   2.619  0.1582 -0.2111 -0.3935
 8786SOL    HW127074   4.003   1.505   2.709  1.6247  1.0580 -0.9952
 8786SOL    HW227075   3.877   1.480   2.629  0.7814 -2.7563  1.3812
 8787SOL     OW27076   0.302   6.255   2.689  0.2462 -0.0364  0.7174
 8787SOL    HW127077   0.236   6.213   2.745  0.1964  0.0400  0.7156
 8787SOL    HW227078   0.354   6.308   2.748  0.6586 -0.5347  0.8054
 8788SOL     OW27079   5.795   0.220   1.038  0.6797 -0.5153 -0.1981
 8788SOL    HW127080   5.823   0.179   1.120  0.8784  0.6662  0.3422
 8788SOL    HW227081   5.861   0.194   0.974  0.6529 -1.2534  0.0708
 8789SOL     OW27082   6.079   2.503   2.408  0.0336 -0.0611  0.5148
 8789SOL    HW127083   6.175   2.507   2.399  0.1048 -2.1113  0.0334
 8789SOL    HW227084   6.049   2.480   2.320 -0.9422  0.8981  0.5943
 8790SOL     OW27085   2.235   4.543   4.599 -0.1545 -0.4357 -0.4374
 8790SOL    HW127086   2.159   4.594   4.572 -0.3048 -0.8916 -0.8831
 8790SOL    HW227087   2.225   4.459   4.554  1.2276 -0.0796 -1.4362
 8791SOL     OW27088   6.333   2.097   5.579 -0.7855  0.5003 -0.6121
 8791SOL    HW127089   6.246   2.089   5.542 -0.1387 -1.0915 -1.8720
 8791SOL    HW227090   6.390   2.112   5.503  0.1928  0.1423  0.0423
 8792SOL     OW27091   6.137   0.138   5.885 -0.8081 -0.0938  0.5279
 8792SOL    HW127092   6.181   0.096   5.959  1.2052 -1.7681 -1.5813
 8792SOL    HW227093   6.054   0.090   5.876  0.6715 -2.5237 -0.7226
 8793SOL     OW27094   0.435   3.523   6.257  0.0941  0.2736  0.4418
 8793SOL    HW127095   0.348   3.485   6.248  0.2097  0.2155 -0.4776
 8793SOL    HW227096   0.488   3.451   6.293  0.1113 -0.1662 -0.4595
 8794SOL     OW27097   2.965   3.711   4.206  0.3666  0.9056  0.4655
 8794SOL    HW127098   3.033   3.755   4.257  2.0573 -0.3869 -0.6187
 8794SOL    HW227099   2.992   3.619   4.202 -1.5024  0.3311  0.0925
 8795SOL     OW27100   3.457   6.465   1.192 -0.6195  0.1122  0.4922
 8795SOL    HW127101   3.544   6.425   1.180 -0.3719  0.6678  0.3825
 8795SOL    HW227102   3.462   6.545   1.140 -1.6342 -0.4854 -0.5441
 8796SOL     OW27103   1.369   2.564   0.874  0.0960 -0.4424 -0.1996
 8796SOL    HW127104   1.310   2.622   0.922  0.2146  0.3963 -1.0480
 8796SOL    HW227105   1.365   2.481   0.921 -1.1737 -0.1676  0.1866
 8797SOL     OW27106   1.888   5.970   6.737 -0.3836 -0.5312 -0.1391
 8797SOL    HW127107   1.932   5.956   6.821  0.4573 -0.0957 -0.5042
 8797SOL    HW227108   1.798   5.993   6.761 -0.6128 -2.1527  0.5896
 8798SOL     OW27109   3.920   5.002   3.558 -0.4013  0.3175  0.1406
 8798SOL    HW127110   4.004   5.032   3.525 -0.5644 -1.1113 -1.7156
 8798SOL    HW227111   3.922   5.020   3.651  1.3625  1.6529 -0.1381
 8799SOL     OW27112   4.807   2.419   6.093  0.0685  0.1978 -0.0352
 8799SOL    HW127113   4.787   2.393   6.183 -0.5937  1.9763  0.3630
 8799SOL    HW227114   4.901   2.406   6.085  0.1881  0.3046  1.0279
 8800SOL     OW27115   2.686   4.859   0.711  0.2878  0.3510 -0.5576
 8800SOL    HW127116   2.647   4.793   0.653  2.0481 -0.4748 -0.8274
 8800SOL    HW227117   2.675   4.941   0.664  0.5039 -0.1330 -1.4745
 8801SOL     OW27118   0.861   0.480   1.822  1.0220 -0.1372 -0.3811
 8801SOL    HW127119   0.786   0.534   1.848  1.4521  0.1189  0.3266
 8801SOL    HW227120   0.823   0.413   1.765  0.2996  0.1690 -0.2660
 8802SOL     OW27121   5.217   5.989   2.993 -0.1428 -0.0633  0.3168
 8802SOL    HW127122   5.140   5.945   2.957  0.4144  0.7682 -1.9880
 8802SOL    HW227123   5.187   6.077   3.013 -0.4024 -0.4696  1.7412
 8803SOL     OW27124   3.903   6.661   4.772 -0.5407  0.0424 -0.7862
 8803SOL    HW127125   3.865   6.646   4.685 -1.2451  0.0519 -0.4863
 8803SOL    HW227126   3.937   6.576   4.799 -1.1398 -0.1688 -0.6881
 8804SOL     OW27127   6.622   2.876   0.049  0.6175  0.1830 -0.1712
 8804SOL    HW127128   6.678   2.927  -0.009  0.3394 -1.4096 -1.8685
 8804SOL    HW227129   6.563   2.829  -0.009  2.6203 -4.2047  1.1192
 8805SOL     OW27130   1.623   0.903   0.182 -0.3761  0.2531  0.3121
 8805SOL    HW127131   1.626   0.808   0.195 -0.8766  0.3262  1.0010
 8805SOL    HW227132   1.691   0.938   0.240 -1.0912  0.4107  1.0656
 8806SOL     OW27133   4.886   2.827   1.961 -0.2461 -0.3641  0.3709
 8806SOL    HW127134   4.902   2.839   1.867  0.5849 -2.1467  0.2674
 8806SOL    HW227135   4.791   2.818   1.968 -0.3968  0.8080 -0.1751
 8807SOL     OW27136   1.010   4.960   2.774  0.3163 -0.2734  0.1712
 8807SOL    HW127137   1.015   5.054   2.793  0.0833 -0.4767  1.2604
 8807SOL    HW227138   0.981   4.956   2.683 -0.5114  0.6983  0.3808
 8808SOL     OW27139   1.897   1.008   1.617 -0.2057 -0.1820 -0.2498
 8808SOL    HW127140   1.960   1.029   1.686  0.7166 -0.7800 -0.8909
 8808SOL    HW227141   1.814   0.996   1.663  0.2875 -0.0217  0.6923
 8809SOL     OW27142   5.615   1.971   2.482 -0.2668  0.1548  0.5693
 8809SOL    HW127143   5.707   1.995   2.478 -0.1990 -0.3787 -1.9234
 8809SOL    HW227144   5.612   1.881   2.450 -1.7860  0.5410 -0.4313
 8810SOL     OW27145   4.589   1.751   5.665  0.2263 -0.3569  0.0115
 8810SOL    HW127146   4.615   1.749   5.758  1.0475  1.7957 -0.1565
 8810SOL    HW227147   4.511   1.805   5.663  0.0580 -0.6180 -0.5329
 8811SOL     OW27148   1.894   3.267   6.210 -0.5870 -0.1143 -0.5615
 8811SOL    HW127149   1.844   3.288   6.289 -0.4676 -0.1683 -0.4709
 8811SOL    HW227150   1.834   3.285   6.138 -0.8737 -0.5677 -0.4368
 8812SOL     OW27151   2.756   6.237   5.478 -0.1444 -0.0529 -0.0568
 8812SOL    HW127152   2.844   6.208   5.451 -0.2700  1.7484 -2.6413
 8812SOL    HW227153   2.699   6.210   5.406 -1.3659  0.6515  0.6256
 8813SOL     OW27154   2.325   1.932   6.519  0.1942  0.3061 -0.1300
 8813SOL    HW127155   2.391   2.001   6.527  0.1382  0.3303  0.1608
 8813SOL    HW227156   2.242   1.979   6.514  0.2276  0.2877 -0.8841
 8814SOL     OW27157   6.465   6.326   0.050  0.4837 -0.2745  0.5057
 8814SOL    HW127158   6.383   6.297   0.090 -1.0356  1.0766 -1.5590
 8814SOL    HW227159   6.496   6.250   0.000 -1.7754  0.5422 -2.2126
 8815SOL     OW27160   2.563   6.503   2.138  0.3728 -0.0717  0.0647
 8815SOL    HW127161   2.518   6.445   2.076  1.0318  0.8963 -1.3222
 8815SOL    HW227162   2.496   6.522   2.204  0.2826 -2.7943  0.8154
 8816SOL     OW27163   2.982   5.229   1.700  0.4597  0.1438 -0.6591
 8816SOL    HW127164   3.075   5.241   1.721  0.5978 -1.8181 -0.1121
 8816SOL    HW227165   2.982   5.190   1.613  0.1867 -0.6734 -0.2988
 8817SOL     OW27166   0.714   0.357   4.973 -0.0009 -0.4987 -0.2789
 8817SOL    HW127167   0.670   0.342   5.056 -1.8834  1.1997 -0.9320
 8817SOL    HW227168   0.784   0.419   4.994 -0.7066  0.2118 -0.0351
 8818SOL     OW27169   2.014   6.163   0.301  0.3861  0.7846  0.0781
 8818SOL    HW127170   1.988   6.128   0.386  0.9891 -0.3276 -0.1872
 8818SOL    HW227171   1.935   6.202   0.265  0.2090  1.5978  1.3082
 8819SOL     OW27172   2.309   1.658   2.754 -0.0752  0.2009  0.2231
 8819SOL    HW127173   2.391   1.610   2.770 -0.8384 -1.2933 -0.2674
 8819SOL    HW227174   2.240   1.596   2.777 -1.1207  0.3188 -2.4553
 8820SOL     OW27175   0.528   0.661   6.253 -0.0947 -0.0208  0.4219
 8820SOL    HW127176   0.434   0.650   6.262 -0.1527  0.8566  1.0134
 8820SOL    HW227177   0.565   0.576   6.277 -0.8248 -0.9892 -1.7830
 8821SOL     OW27178   0.220   4.609   2.576 -0.1589 -0.1035  0.1700
 8821SOL    HW127179   0.142   4.607   2.631  0.5428 -2.4630  1.1328
 8821SOL    HW227180   0.289   4.644   2.632 -0.3740  1.4582 -0.5116
 8822SOL     OW27181   1.795   5.700   5.278 -0.7511  0.5916  0.1455
 8822SOL    HW127182   1.863   5.747   5.328  0.8908 -1.0241 -0.5110
 8822SOL    HW227183   1.798   5.611   5.312 -1.6609  0.1948 -0.8058
 8823SOL     OW27184   2.534   1.709   1.556  0.8035  0.4901  0.2852
 8823SOL    HW127185   2.589   1.631   1.568 -0.1882 -0.1606  0.7126
 8823SOL    HW227186   2.445   1.674   1.551  0.3876  1.5682  0.0426
 8824SOL     OW27187   4.092   4.668   3.401 -0.4388  0.0635 -0.7492
 8824SOL    HW127188   4.093   4.698   3.492 -0.0468 -0.9035 -0.4326
 8824SOL    HW227189   4.101   4.749   3.350 -1.7228  0.7385  0.0273
 8825SOL     OW27190   3.160   2.814   5.928  0.1729  0.6117  0.0595
 8825SOL    HW127191   3.091   2.753   5.903 -1.3562  1.4998  1.9308
 8825SOL    HW227192   3.212   2.827   5.848 -1.0641 -1.0513 -1.0379
 8826SOL     OW27193   6.007   0.497   4.544  0.0295  0.7066 -0.2905
 8826SOL    HW127194   6.028   0.465   4.457 -1.1460  0.8217 -0.6158
 8826SOL    HW227195   6.035   0.427   4.603 -1.3878 -0.3823 -0.9150
 8827SOL     OW27196   2.747   5.821   1.126  0.2707 -0.2184 -0.4242
 8827SOL    HW127197   2.675   5.879   1.152 -1.4521 -1.7243 -1.7426
 8827SOL    HW227198   2.722   5.735   1.161  0.9170 -0.9624 -1.7613
 8828SOL     OW27199   1.657   2.625   4.743 -0.4499  0.2397 -0.3194
 8828SOL    HW127200   1.752   2.627   4.726 -0.1758 -0.8445  1.0241
 8828SOL    HW227201   1.621   2.575   4.670  0.4172 -2.1857  0.8478
 8829SOL     OW27202   6.310   1.163   0.015  0.0410 -0.1134 -0.2559
 8829SOL    HW127203   6.247   1.202  -0.046  1.3387  0.3698 -1.3176
 8829SOL    HW227204   6.298   1.068   0.003 -0.8630 -0.0281 -0.0454
 8830SOL     OW27205   6.560   6.084   6.267 -0.3189  0.1878  0.2358
 8830SOL    HW127206   6.524   5.997   6.249 -0.7516  0.4517 -0.2016
 8830SOL    HW227207   6.651   6.068   6.292 -0.1273 -0.3220 -0.7575
 8831SOL     OW27208   6.123   0.446   0.276 -0.3882  0.2386 -0.0385
 8831SOL    HW127209   6.106   0.378   0.211  0.4759 -0.0321  0.0048
 8831SOL    HW227210   6.176   0.403   0.342 -1.5490  0.4255  1.0218
 8832SOL     OW27211   0.694   1.414   3.801 -0.0835  0.3224  0.1921
 8832SOL    HW127212   0.641   1.357   3.746  1.0926 -1.1548  0.5731
 8832SOL    HW227213   0.707   1.364   3.882  0.7852  1.2120  0.6143
 8833SOL     OW27214   2.136   4.586   5.502  0.3084  0.3162 -0.0444
 8833SOL    HW127215   2.157   4.583   5.595  1.6919 -2.7164 -0.4048
 8833SOL    HW227216   2.206   4.639   5.463  1.1291 -0.5041  0.3043
 8834SOL     OW27217   4.677   0.934   0.837 -0.0534  0.7485  0.2996
 8834SOL    HW127218   4.614   0.959   0.905  0.7618  0.5175  1.1407
 8834SOL    HW227219   4.682   1.010   0.779 -2.1151  0.2889 -0.5371
 8835SOL     OW27220   3.019   4.657   5.972  0.1233 -0.0224 -0.5074
 8835SOL    HW127221   2.937   4.638   5.926  0.4920 -0.0190 -1.1707
 8835SOL    HW227222   3.049   4.739   5.934 -0.5673  0.9982  1.1240
 8836SOL     OW27223   3.672   3.432   4.224  0.1644  0.0819 -0.1229
 8836SOL    HW127224   3.721   3.448   4.305 -0.1561 -3.5286  0.8832
 8836SOL    HW227225   3.721   3.477   4.156  1.4255  1.6845  1.8004
 8837SOL     OW27226   6.161   4.198   4.168  0.0529  0.1406 -0.1625
 8837SOL    HW127227   6.206   4.137   4.111 -1.2868 -0.7162 -0.3286
 8837SOL    HW227228   6.125   4.264   4.108  0.1565  0.2135 -0.1432
 8838SOL     OW27229   1.377   4.131   1.162  0.1047  0.1993  0.4650
 8838SOL    HW127230   1.290   4.171   1.162  0.3210  0.6880 -0.6843
 8838SOL    HW227231   1.437   4.205   1.154  0.5434 -0.2750 -0.6890
 8839SOL     OW27232   6.253   1.087   3.423  0.0776  0.0502  0.0225
 8839SOL    HW127233   6.333   1.124   3.385  0.5324  0.3126  1.2025
 8839SOL    HW227234   6.219   1.157   3.478 -0.2175 -0.5477  0.6000
 8840SOL     OW27235   0.073   2.095   5.509  0.0872  0.1772  0.2119
 8840SOL    HW127236   0.093   2.089   5.602 -0.2951  1.1895  0.3707
 8840SOL    HW227237   0.158   2.087   5.466  0.3115  0.0896  0.6641
 8841SOL     OW27238   4.133   6.200   5.861  0.8818  0.6053  0.0236
 8841SOL    HW127239   4.070   6.144   5.817 -0.3979  2.1814 -0.2012
 8841SOL    HW227240   4.176   6.249   5.791 -0.5395  2.4766  0.4120
 8842SOL     OW27241   0.562   3.716   1.438 -0.9108 -0.2832 -0.1199
 8842SOL    HW127242   0.539   3.702   1.346  2.6222 -1.2724 -0.9388
 8842SOL    HW227243   0.561   3.628   1.476 -0.0449 -0.1839  0.1514
 8843SOL     OW27244   1.508   5.668   2.007  0.0987 -0.1154 -0.2750
 8843SOL    HW127245   1.541   5.740   2.061  1.0123 -0.6393 -0.1271
 8843SOL    HW227246   1.511   5.592   2.065  2.6523 -1.0281 -1.5435
 8844SOL     OW27247   6.131   2.875   4.511  0.2923  0.1291  0.2736
 8844SOL    HW127248   6.187   2.832   4.575  0.0128 -1.3986 -0.5049
 8844SOL    HW227249   6.187   2.941   4.470  1.2335 -0.7532  0.1564
 8845SOL     OW27250   0.903   5.513   2.548  0.0236 -0.0631 -0.8436
 8845SOL    HW127251   0.830   5.500   2.609  1.4645  0.4599  1.0530
 8845SOL    HW227252   0.944   5.427   2.542  0.4519  0.0994 -0.3036
 8846SOL     OW27253   5.573   2.557   6.435 -0.1803  0.0935 -1.0199
 8846SOL    HW127254   5.511   2.485   6.432  0.6735 -0.7876  1.2332
 8846SOL    HW227255   5.598   2.564   6.528  0.3032  2.8001 -1.2899
 8847SOL     OW27256   5.076   0.088   0.473  0.0769 -0.1388 -0.3891
 8847SOL    HW127257   5.145   0.039   0.429  0.1413 -0.7202  0.3475
 8847SOL    HW227258   5.006   0.095   0.408 -0.0667 -1.5126 -0.4075
 8848SOL     OW27259   1.405   5.714   1.014  0.0385 -0.0001  0.3804
 8848SOL    HW127260   1.409   5.796   0.965 -1.9726  0.5845  1.1432
 8848SOL    HW227261   1.355   5.735   1.092  0.9117 -1.5748  1.3855
 8849SOL     OW27262   0.265   1.234   3.361  0.4752  0.1576  0.0185
 8849SOL    HW127263   0.218   1.175   3.304  0.6751 -0.3846  0.4076
 8849SOL    HW227264   0.285   1.182   3.439  0.3936  0.8192  0.4918
 8850SOL     OW27265   1.082   1.619   0.329 -0.1889 -0.6891  0.3738
 8850SOL    HW127266   1.051   1.617   0.420 -1.7088 -0.5686 -0.1287
 8850SOL    HW227267   1.176   1.638   0.336 -0.6132  1.0151  1.8555
 8851SOL     OW27268   3.082   0.117   4.044 -0.0878 -0.1221  0.5430
 8851SOL    HW127269   3.143   0.073   4.103  1.6061 -1.3203 -2.0055
 8851SOL    HW227270   3.018   0.049   4.021  0.4437 -0.2738 -0.5551
 8852SOL     OW27271   3.876   6.528   3.173  0.4286 -1.2154  0.5520
 8852SOL    HW127272   3.967   6.510   3.199  0.3248 -0.0657  1.7674
 8852SOL    HW227273   3.885   6.581   3.094  0.8214 -1.2108  0.5947
 8853SOL     OW27274   1.589   2.506   4.290  0.2271  0.1879 -0.0476
 8853SOL    HW127275   1.500   2.504   4.325 -0.1167  0.3648 -0.9036
 8853SOL    HW227276   1.645   2.505   4.368 -0.5118 -0.2496  0.4877
 8854SOL     OW27277   6.329   6.682   1.676  0.4085 -0.3880 -0.9540
 8854SOL    HW127278   6.283   6.653   1.755  0.8499 -0.3965 -0.6963
 8854SOL    HW227279   6.407   6.728   1.709  0.6081 -0.4116 -1.3829
 8855SOL     OW27280   0.671   5.420   4.695 -0.0329  0.0526  0.2287
 8855SOL    HW127281   0.764   5.440   4.706  0.1667 -0.8935  0.3564
 8855SOL    HW227282   0.659   5.413   4.601  0.1391 -0.3082  0.2312
 8856SOL     OW27283   5.049   4.645   0.149 -0.1122  0.0680  0.2874
 8856SOL    HW127284   5.015   4.729   0.181 -1.2442 -0.2979  0.0481
 8856SOL    HW227285   5.127   4.669   0.098  1.2427  0.7426  2.5864
 8857SOL     OW27286   4.541   2.671   6.223 -0.5042 -0.1735 -0.5061
 8857SOL    HW127287   4.564   2.710   6.139  0.0527 -0.1945 -0.3659
 8857SOL    HW227288   4.500   2.742   6.272  1.1391  0.4403  0.0116
 8858SOL     OW27289   1.687   6.569   6.127 -0.2607  0.2632  0.4392
 8858SOL    HW127290   1.621   6.512   6.166 -1.0487  0.8278 -0.0443
 8858SOL    HW227291   1.763   6.513   6.115 -0.6664 -0.4136  0.9527
 8859SOL     OW27292   6.564   5.475   5.518  0.1160 -0.0558  0.1644
 8859SOL    HW127293   6.656   5.500   5.506 -0.4103  1.8273 -0.0299
 8859SOL    HW227294   6.520   5.557   5.540 -1.9790 -0.4761 -2.2762
 8860SOL     OW27295   4.032   3.622   3.936 -0.7009 -0.5120 -0.1966
 8860SOL    HW127296   4.090   3.679   3.886 -1.1437 -0.4373 -0.6334
 8860SOL    HW227297   3.962   3.600   3.875 -1.1622 -0.5573  0.3448
 8861SOL     OW27298   6.257   3.923   5.480 -0.2769  0.0978 -0.4203
 8861SOL    HW127299   6.332   3.981   5.494 -0.0678 -0.0784 -0.8238
 8861SOL    HW227300   6.269   3.853   5.544 -0.3858  0.3551 -0.1161
 8862SOL     OW27301   5.158   5.685   1.490  0.0609 -0.4592  0.3134
 8862SOL    HW127302   5.237   5.635   1.510 -0.1748 -1.3095 -0.8819
 8862SOL    HW227303   5.185   5.777   1.500  1.5868 -0.6853 -1.4095
 8863SOL     OW27304   5.851   3.607   5.994  0.7880  0.1637  0.2022
 8863SOL    HW127305   5.938   3.580   5.964  0.4280 -0.1416 -0.5594
 8863SOL    HW227306   5.791   3.578   5.926 -0.0089 -0.3190  1.0907
 8864SOL     OW27307   5.573   2.856   3.187 -0.0551 -0.4908 -0.0632
 8864SOL    HW127308   5.577   2.924   3.255 -2.0691 -2.2382  1.8864
 8864SOL    HW227309   5.481   2.853   3.161  0.4625 -0.7715 -1.9342
 8865SOL     OW27310   0.770   1.461   4.743  0.0715 -0.4283 -0.5937
 8865SOL    HW127311   0.704   1.425   4.684  1.4277  0.3561 -2.6615
 8865SOL    HW227312   0.721   1.510   4.808 -1.4330 -0.5933 -1.5822
 8866SOL     OW27313   6.497   2.666   0.549 -0.2104 -0.7471 -0.4687
 8866SOL    HW127314   6.542   2.589   0.584 -1.9243 -2.2503 -1.4956
 8866SOL    HW227315   6.507   2.659   0.454 -1.1413 -0.2034 -0.6184
 8867SOL     OW27316   4.412   5.397   3.153  0.4138  0.3705 -0.5029
 8867SOL    HW127317   4.320   5.422   3.164  0.6504  1.3701 -0.7627
 8867SOL    HW227318   4.408   5.305   3.126 -0.5231  0.5036 -0.8508
 8868SOL     OW27319   6.733   2.784   6.393  0.1447  0.2695  0.0589
 8868SOL    HW127320   6.681   2.819   6.466 -0.8629 -0.5342 -0.2633
 8868SOL    HW227321   6.740   2.857   6.332 -1.5979  0.0611 -0.4185
 8869SOL     OW27322   5.526   1.009   6.412 -0.2319  0.2778  0.0996
 8869SOL    HW127323   5.563   1.057   6.486  2.4178  0.0580 -1.0045
 8869SOL    HW227324   5.512   1.075   6.345 -0.2074  0.0922 -0.0891
 8870SOL     OW27325   6.765   4.791   2.740 -0.1003  0.1373  0.4393
 8870SOL    HW127326   6.818   4.871   2.743  0.4295 -0.2432  1.3702
 8870SOL    HW227327   6.705   4.805   2.667  1.6957  0.3047 -1.0308
 8871SOL     OW27328   4.585   2.009   4.331  0.3124 -0.6501 -0.2071
 8871SOL    HW127329   4.609   2.089   4.284  0.7918 -0.1793  0.8090
 8871SOL    HW227330   4.552   2.040   4.415 -0.1860 -1.4930 -0.0894
 8872SOL     OW27331   0.222   5.268   5.559  0.1199 -0.8247  0.0551
 8872SOL    HW127332   0.233   5.357   5.595 -0.9640 -0.6283 -0.0904
 8872SOL    HW227333   0.289   5.217   5.604  1.5270  0.3142 -0.7057
 8873SOL     OW27334   6.181   0.920   2.014  0.4247  0.4565  0.1024
 8873SOL    HW127335   6.148   0.992   1.961  2.8454  0.1488 -1.9412
 8873SOL    HW227336   6.276   0.935   2.019  0.5425 -0.7478  2.5168
 8874SOL     OW27337   5.682   0.956   3.471 -0.2322  0.3056  0.3905
 8874SOL    HW127338   5.629   0.883   3.437 -0.1467  0.3172  0.2323
 8874SOL    HW227339   5.618   1.023   3.493 -0.3163  0.1646  0.5759
 8875SOL     OW27340   4.174   4.285   0.199 -0.1114  0.7485 -0.0621
 8875SOL    HW127341   4.119   4.348   0.246 -0.4709  0.0646  0.4559
 8875SOL    HW227342   4.118   4.251   0.130  0.2221  1.3077 -0.6130
 8876SOL     OW27343   2.853   5.516   4.833 -0.6946 -0.3725  0.1046
 8876SOL    HW127344   2.838   5.423   4.816  0.1484 -0.5299  0.2177
 8876SOL    HW227345   2.802   5.534   4.912 -1.4506 -0.5605 -0.3334
 8877SOL     OW27346   5.223   1.646   0.670  0.2268  0.2067 -0.1410
 8877SOL    HW127347   5.312   1.643   0.704  0.6203  0.7910 -1.1196
 8877SOL    HW227348   5.180   1.570   0.710  0.7888  0.6653  1.3517
 8878SOL     OW27349   5.400   6.116   5.376 -0.1506 -0.5668  0.0029
 8878SOL    HW127350   5.361   6.049   5.431  0.9791 -1.1726  0.0622
 8878SOL    HW227351   5.462   6.069   5.320  0.2561  0.3456 -0.3277
 8879SOL     OW27352   3.038   1.242   1.452  0.3541  0.0814 -0.1603
 8879SOL    HW127353   3.070   1.152   1.450 -0.4876 -0.2415  0.8822
 8879SOL    HW227354   3.118   1.295   1.460  0.6016 -0.7892  3.8380
 8880SOL     OW27355   6.388   6.742   2.335 -0.4995 -0.2865 -0.0626
 8880SOL    HW127356   6.357   6.680   2.401 -0.3611 -0.8230 -0.4965
 8880SOL    HW227357   6.309   6.787   2.304 -0.8994 -1.8448 -1.3654
 8881SOL     OW27358   4.834   4.648   3.512 -0.8277  0.0158 -0.0850
 8881SOL    HW127359   4.765   4.638   3.447  0.0829  2.0879 -1.4023
 8881SOL    HW227360   4.857   4.558   3.537 -3.0084 -0.7155 -0.6657
 8882SOL     OW27361   2.962   0.829   4.880 -0.5656 -0.4121 -0.0611
 8882SOL    HW127362   2.950   0.738   4.909 -1.4519 -0.2038  0.2700
 8882SOL    HW227363   2.933   0.882   4.955  0.8511  0.1495  0.1041
 8883SOL     OW27364   4.260   2.968   5.393  0.1318 -0.4256  0.3147
 8883SOL    HW127365   4.231   3.018   5.469 -0.3621  1.1894 -0.8866
 8883SOL    HW227366   4.180   2.935   5.353  0.4353 -1.8391  0.8724
 8884SOL     OW27367   4.858   1.939   2.954 -0.1128  0.4653 -0.6383
 8884SOL    HW127368   4.951   1.925   2.940  0.0373  2.0622 -1.3417
 8884SOL    HW227369   4.834   1.878   3.024  1.1279 -1.0162 -1.4848
 8885SOL     OW27370   4.451   3.474   0.198 -0.2569  0.2516  0.5715
 8885SOL    HW127371   4.521   3.454   0.136  0.7088  0.8882  1.4509
 8885SOL    HW227372   4.482   3.550   0.246 -2.4770  1.8547 -0.4792
 8886SOL     OW27373   4.598   2.518   5.894  0.5721  0.7667 -0.1708
 8886SOL    HW127374   4.530   2.523   5.962  0.0732 -1.8988 -0.4127
 8886SOL    HW227375   4.671   2.474   5.937  0.3581 -0.6770 -1.2541
 8887SOL     OW27376   0.763   6.064   6.241  0.2781  0.6441  0.2869
 8887SOL    HW127377   0.836   6.058   6.180 -0.2042 -0.8402 -0.1651
 8887SOL    HW227378   0.803   6.087   6.325  1.2071  0.3466 -0.0731
 8888SOL     OW27379   0.668   1.095   6.579 -0.5352  0.0650  0.3399
 8888SOL    HW127380   0.641   1.018   6.530  0.1849 -0.8066  1.2833
 8888SOL    HW227381   0.595   1.157   6.571 -1.1719 -0.7727 -0.3026
 8889SOL     OW27382   6.448   5.491   3.708 -0.6562  0.3605 -0.0335
 8889SOL    HW127383   6.364   5.474   3.750 -0.0920  0.0383  0.9935
 8889SOL    HW227384   6.500   5.536   3.775  0.2723 -0.1867 -0.3665
 8890SOL     OW27385   5.016   1.961   0.215  0.1623 -0.6353  0.6998
 8890SOL    HW127386   5.037   2.028   0.149  0.2254 -1.5384 -0.2193
 8890SOL    HW227387   5.039   2.001   0.298  1.4533  0.0154  0.0517
 8891SOL     OW27388   3.994   2.493   3.870  0.0773 -0.4151 -0.2918
 8891SOL    HW127389   4.039   2.508   3.787 -0.1052 -0.5877 -0.4216
 8891SOL    HW227390   4.054   2.528   3.937 -0.6319  1.5433 -0.6328
 8892SOL     OW27391   3.092   3.678   2.384  0.1716 -0.0611 -0.0706
 8892SOL    HW127392   3.006   3.690   2.344 -0.9698 -2.4462  1.5101
 8892SOL    HW227393   3.080   3.706   2.475  1.3537  0.5374 -0.0862
 8893SOL     OW27394   6.332   1.850   3.324 -0.0315 -0.5273 -0.3637
 8893SOL    HW127395   6.310   1.874   3.234 -3.9813  2.0207  1.1770
 8893SOL    HW227396   6.273   1.778   3.345 -0.6414  0.3064  0.8425
 8894SOL     OW27397   5.288   6.127   3.395  0.0238 -0.1742 -0.0271
 8894SOL    HW127398   5.215   6.087   3.349 -0.3993 -0.4934  0.9185
 8894SOL    HW227399   5.315   6.200   3.339 -1.1307  0.0558 -0.2830
 8895SOL     OW27400   6.412   4.586   1.196 -0.3345  0.2397 -0.2535
 8895SOL    HW127401   6.354   4.639   1.142  1.4533  2.4491 -0.0909
 8895SOL    HW227402   6.487   4.567   1.140 -0.1919 -0.6823  0.2393
 8896SOL     OW27403   6.130   3.440   1.484  0.2307  0.2790 -0.0739
 8896SOL    HW127404   6.199   3.506   1.490 -1.0578  1.6296  0.2419
 8896SOL    HW227405   6.056   3.478   1.531 -0.0721 -2.0406  1.4084
 8897SOL     OW27406   4.310   1.090   6.041  0.0437  0.1087  0.5666
 8897SOL    HW127407   4.368   1.142   5.986 -2.0450 -0.9395 -2.7875
 8897SOL    HW227408   4.222   1.124   6.022 -0.8632 -1.1631  2.3242
 8898SOL     OW27409   1.832   1.011   2.112 -0.3154 -0.0517 -0.0898
 8898SOL    HW127410   1.769   0.976   2.175 -0.6620 -0.1596 -0.4918
 8898SOL    HW227411   1.844   0.940   2.049  0.8424 -0.3458  0.4357
 8899SOL     OW27412   2.311   1.033   5.393  0.1350 -0.0463 -0.6198
 8899SOL    HW127413   2.298   1.085   5.314  2.4001  1.9391  0.2569
 8899SOL    HW227414   2.390   0.982   5.376 -1.3425 -2.2922 -0.9627
 8900SOL     OW27415   4.316   3.739   4.174 -0.4146  0.3310 -0.2935
 8900SOL    HW127416   4.368   3.726   4.095 -3.0634  1.3257 -2.2745
 8900SOL    HW227417   4.269   3.656   4.186  0.3560  0.0087  0.5300
 8901SOL     OW27418   4.532   4.005   4.473  0.2612 -0.1473  0.5988
 8901SOL    HW127419   4.539   4.098   4.454  3.3345 -0.4686 -0.2004
 8901SOL    HW227420   4.480   3.969   4.402 -0.6749  0.9076  0.7507
 8902SOL     OW27421   5.978   0.931   6.021 -0.1214  0.2255 -0.2774
 8902SOL    HW127422   6.057   0.973   6.056  0.3286 -0.1013 -0.8867
 8902SOL    HW227423   5.906   0.969   6.071  0.4734  0.0933  0.6975
 8903SOL     OW27424   1.872   6.722   1.985  0.2294 -1.0838 -0.3374
 8903SOL    HW127425   1.804   6.788   1.974 -0.3686 -1.7113 -0.3796
 8903SOL    HW227426   1.909   6.741   2.072  0.5185 -0.2722 -0.6302
 8904SOL     OW27427   2.617   1.758   3.278  0.7484 -0.2548 -0.3717
 8904SOL    HW127428   2.705   1.796   3.277 -0.0175  1.6749  1.3106
 8904SOL    HW227429   2.563   1.820   3.230 -0.1442 -0.2294  0.6455
 8905SOL     OW27430   3.498   5.127   2.899 -0.0593  0.0019  0.6364
 8905SOL    HW127431   3.530   5.036   2.904  0.9255  0.2433 -0.8634
 8905SOL    HW227432   3.436   5.126   2.826  0.4678  0.6771  0.1772
 8906SOL     OW27433   2.503   1.850   2.743 -0.0002 -0.0485 -0.7997
 8906SOL    HW127434   2.506   1.847   2.647  1.1349  0.8109 -0.8091
 8906SOL    HW227435   2.422   1.805   2.766 -0.5197  0.1415 -2.1878
 8907SOL     OW27436   2.911   1.137   0.724  0.3792  0.1580  0.0888
 8907SOL    HW127437   2.962   1.175   0.796  1.0992 -2.0192  0.7959
 8907SOL    HW227438   2.976   1.096   0.668 -0.4021 -0.5490 -0.3118
 8908SOL     OW27439   5.643   4.092   1.395 -0.4816  0.2150 -0.2708
 8908SOL    HW127440   5.557   4.112   1.434  0.8410  0.9223  2.4005
 8908SOL    HW227441   5.664   4.168   1.342 -1.5034  0.0227 -0.9759
 8909SOL     OW27442   5.502   4.004   0.076  0.5254  0.0613 -0.0684
 8909SOL    HW127443   5.530   4.088   0.038 -0.5278  1.7214  2.6516
 8909SOL    HW227444   5.549   3.999   0.160 -1.3757 -0.8015  0.9848
 8910SOL     OW27445   4.428   6.433   4.283  0.3543 -0.2653 -0.6611
 8910SOL    HW127446   4.373   6.389   4.218 -1.2345  1.9324 -0.8174
 8910SOL    HW227447   4.445   6.519   4.246  0.8412  0.4021  1.0858
 8911SOL     OW27448   0.957   6.027   4.027  0.4260  0.2746  0.2893
 8911SOL    HW127449   1.037   5.976   4.014  2.1535  3.0128 -0.1074
 8911SOL    HW227450   0.967   6.065   4.114 -1.8983 -1.8119  1.5402
 8912SOL     OW27451   4.344   4.764   2.927  0.4955  0.0060  0.7216
 8912SOL    HW127452   4.324   4.856   2.942 -2.5025 -0.5687  0.5108
 8912SOL    HW227453   4.331   4.722   3.012 -3.0699 -0.9885 -0.2179
 8913SOL     OW27454   6.215   5.882   2.864 -0.0898  0.1586  0.3687
 8913SOL    HW127455   6.291   5.825   2.863  0.4392  0.7493 -3.8282
 8913SOL    HW227456   6.140   5.822   2.860  0.4296 -0.3618 -2.9253
 8914SOL     OW27457   3.872   3.081   6.692  0.4937  0.1456  0.1078
 8914SOL    HW127458   3.796   3.023   6.701 -0.0391  0.6351 -1.1174
 8914SOL    HW227459   3.939   3.026   6.652  0.4528 -0.0039  0.2410
 8915SOL     OW27460   2.420   5.632   5.193 -0.2370 -0.2305 -0.0274
 8915SOL    HW127461   2.350   5.610   5.132  0.3781 -1.9031 -0.1601
 8915SOL    HW227462   2.376   5.673   5.267 -1.1261  0.6321 -1.0250
 8916SOL     OW27463   1.246   5.050   0.327  0.2794  0.5028 -0.3455
 8916SOL    HW127464   1.253   5.019   0.417 -2.8743 -1.1167 -0.5756
 8916SOL    HW227465   1.254   5.145   0.333  1.4116  0.3120  1.4625
 8917SOL     OW27466   3.788   5.470   1.482  0.1597  0.3534 -0.6709
 8917SOL    HW127467   3.843   5.528   1.430  1.6305 -1.5204 -1.2739
 8917SOL    HW227468   3.724   5.436   1.420 -0.4590  1.0192 -0.4030
 8918SOL     OW27469   1.819   0.798   1.937 -0.0400 -0.0954  0.1236
 8918SOL    HW127470   1.770   0.716   1.938  1.2460 -0.8774  2.4271
 8918SOL    HW227471   1.892   0.782   1.878  1.1465 -1.2158  1.8539
 8919SOL     OW27472   3.302   0.398   1.249  0.0921  0.5953 -0.0742
 8919SOL    HW127473   3.379   0.438   1.290  0.6695 -1.2166  0.6708
 8919SOL    HW227474   3.290   0.315   1.297 -0.4023 -0.6547 -2.2939
 8920SOL     OW27475   0.866   5.759   5.859 -0.0966 -0.3463  0.1488
 8920SOL    HW127476   0.781   5.741   5.818 -0.6271  0.6788  0.7649
 8920SOL    HW227477   0.910   5.674   5.862 -0.4896 -0.6224 -1.5532
 8921SOL     OW27478   2.365   1.082   1.709 -0.0746  0.5927  0.7797
 8921SOL    HW127479   2.440   1.119   1.663 -0.8027  1.3875  0.2059
 8921SOL    HW227480   2.367   0.989   1.689  0.7161  0.6213  0.7194
 8922SOL     OW27481   4.000   2.230   1.068  0.0030  0.4195 -0.0623
 8922SOL    HW127482   4.054   2.151   1.064 -0.5771  0.0232 -0.0901
 8922SOL    HW227483   3.945   2.225   0.990  0.6111  1.3221 -0.5600
 8923SOL     OW27484   1.798   6.041   3.163 -0.2546  0.6704  0.3190
 8923SOL    HW127485   1.848   6.089   3.229  2.8169 -1.2617 -0.5530
 8923SOL    HW227486   1.795   5.951   3.195 -2.9442  0.6606  0.1886
 8924SOL     OW27487   2.351   6.670   0.628 -0.0608  0.1779  0.5849
 8924SOL    HW127488   2.403   6.687   0.549  0.5812 -0.6877  0.8149
 8924SOL    HW227489   2.301   6.591   0.607 -1.0230  0.7952  0.5005
 8925SOL     OW27490   1.845   0.672   5.804 -0.4012  0.0687 -0.3271
 8925SOL    HW127491   1.874   0.702   5.718 -0.3783  0.6040 -0.1348
 8925SOL    HW227492   1.770   0.617   5.787  0.5331 -1.0618 -0.8104
 8926SOL     OW27493   0.369   6.509   0.093 -0.3600 -1.1094 -0.2260
 8926SOL    HW127494   0.331   6.424   0.072  1.3169 -1.7870 -0.6399
 8926SOL    HW227495   0.375   6.554   0.008  0.9598 -1.5327 -0.3716
 8927SOL     OW27496   4.156   2.024   2.693 -0.0809  0.0851 -0.3557
 8927SOL    HW127497   4.154   2.016   2.598 -0.4289  1.5592 -0.4924
 8927SOL    HW227498   4.228   1.968   2.721  0.0730 -0.2858 -1.5023
 8928SOL     OW27499   0.802   1.452   6.518 -0.1070  0.5734 -0.4875
 8928SOL    HW127500   0.850   1.532   6.538  1.5201  0.1220 -2.3506
 8928SOL    HW227501   0.829   1.390   6.585  1.9825  0.3312 -1.4940
 8929SOL     OW27502   3.808   3.472   6.244  0.1421  0.9275  0.1467
 8929SOL    HW127503   3.794   3.518   6.328  2.9188  1.4032  0.3947
 8929SOL    HW227504   3.843   3.387   6.269 -1.8745 -0.1097 -0.4572
 8930SOL     OW27505   2.280   0.214   5.829  0.2119 -0.1292  0.8565
 8930SOL    HW127506   2.361   0.245   5.870 -0.3388 -1.9722  3.5156
 8930SOL    HW227507   2.212   0.236   5.893 -0.9942 -1.1561 -0.0635
 8931SOL     OW27508   5.370   6.105   0.763 -0.2957 -0.0589 -0.0664
 8931SOL    HW127509   5.306   6.047   0.804  1.1521 -0.5210  1.6096
 8931SOL    HW227510   5.407   6.054   0.691  0.9529 -1.2249  1.3842
 8932SOL     OW27511   4.057   2.939   3.045 -0.6915  0.3306 -0.2413
 8932SOL    HW127512   4.004   2.949   2.966 -1.2012  1.7600  0.2696
 8932SOL    HW227513   4.067   3.027   3.079 -1.9564 -0.4388  2.2399
 8933SOL     OW27514   0.705   3.736   0.730  0.2566 -0.7459  0.6143
 8933SOL    HW127515   0.688   3.677   0.803 -0.4918  0.0626  1.1106
 8933SOL    HW227516   0.626   3.730   0.676 -0.1313  0.3429  1.0502
 8934SOL     OW27517   1.119   3.448   1.782  0.2499  0.0385 -1.0130
 8934SOL    HW127518   1.186   3.380   1.773 -0.7594 -1.0625 -0.3045
 8934SOL    HW227519   1.142   3.492   1.864  0.0574 -0.3951 -0.7244
 8935SOL     OW27520   0.987   2.144   3.442  0.0794  0.0202 -0.8194
 8935SOL    HW127521   0.927   2.118   3.374 -0.3717 -0.1042 -0.3761
 8935SOL    HW227522   1.045   2.069   3.455 -0.4313 -0.3037 -0.4091
 8936SOL     OW27523   2.490   6.155   3.156  0.6936 -0.1194 -0.1410
 8936SOL    HW127524   2.435   6.102   3.213 -0.8683  0.7607 -0.7988
 8936SOL    HW227525   2.580   6.133   3.181  0.0280 -0.0183  2.3900
 8937SOL     OW27526   0.287   4.281   3.640 -0.4895  0.6767  0.6001
 8937SOL    HW127527   0.281   4.242   3.552 -0.2758 -1.1794  1.3827
 8937SOL    HW227528   0.373   4.323   3.641  0.1806 -0.6719  0.4574
 8938SOL     OW27529   3.306   3.707   3.577 -0.0610 -0.1577  0.2631
 8938SOL    HW127530   3.330   3.747   3.493 -0.1571  0.4184  0.5096
 8938SOL    HW227531   3.212   3.695   3.573 -0.1948  0.7247  0.6552
 8939SOL     OW27532   5.024   1.923   5.965  0.4682 -0.4000  0.1765
 8939SOL    HW127533   5.000   1.876   6.045  0.1497  0.4623  0.6047
 8939SOL    HW227534   5.103   1.880   5.934  1.1202 -0.1812  1.4704
 8940SOL     OW27535   4.462   3.071   1.867  0.9317  0.4046 -0.0551
 8940SOL    HW127536   4.375   3.039   1.841  0.6416  1.0045  0.1640
 8940SOL    HW227537   4.493   3.119   1.790  0.9411  0.4328 -0.0341
 8941SOL     OW27538   5.325   4.554   4.251 -0.1591  0.6272 -0.3805
 8941SOL    HW127539   5.324   4.649   4.259  0.0316  0.5810  0.2500
 8941SOL    HW227540   5.401   4.526   4.302  0.3913  0.2059 -1.4194
 8942SOL     OW27541   6.201   6.274   6.687  0.1605  0.3408 -0.0229
 8942SOL    HW127542   6.231   6.364   6.678  1.5276 -0.0785  0.2461
 8942SOL    HW227543   6.245   6.226   6.617 -1.3072  0.0533 -0.7696
 8943SOL     OW27544   3.525   5.006   3.270 -0.0416  0.4258 -0.2839
 8943SOL    HW127545   3.442   5.037   3.306  0.9501 -0.8046  3.2501
 8943SOL    HW227546   3.526   4.912   3.287  1.0842  0.0232 -2.3985
 8944SOL     OW27547   0.954   6.690   1.668  0.4151  0.4439 -0.2280
 8944SOL    HW127548   0.986   6.706   1.579 -0.6678 -1.2939 -0.9697
 8944SOL    HW227549   0.969   6.772   1.715  2.5584  0.8300 -1.5428
 8945SOL     OW27550   2.308   0.130   0.758  0.3674  0.0317  0.2381
 8945SOL    HW127551   2.214   0.124   0.778 -0.0340  0.1913 -1.5120
 8945SOL    HW227552   2.328   0.048   0.714  1.0343  0.0536  0.4974
 8946SOL     OW27553   1.212   1.980   4.360 -0.2961  0.1963 -0.2568
 8946SOL    HW127554   1.156   2.057   4.361 -1.3162 -0.5258 -0.5867
 8946SOL    HW227555   1.176   1.923   4.428  0.2293 -0.1488 -0.2608
 8947SOL     OW27556   6.126   5.657   0.794  0.9791  0.5675  0.8590
 8947SOL    HW127557   6.058   5.592   0.812  0.0028  0.8097 -1.8386
 8947SOL    HW227558   6.208   5.607   0.798  0.2097 -0.9955 -1.6287
 8948SOL     OW27559   1.691   5.476   3.964 -0.4186 -0.7284 -0.5756
 8948SOL    HW127560   1.778   5.500   3.933  0.0764 -2.0856 -0.2445
 8948SOL    HW227561   1.695   5.382   3.980 -1.2968 -0.4431  1.5612
 8949SOL     OW27562   4.108   2.534   2.758  0.5871  0.8363 -0.3277
 8949SOL    HW127563   4.071   2.542   2.846  0.4409  0.9243 -0.3985
 8949SOL    HW227564   4.088   2.444   2.732  1.3249  0.5538  0.0482
 8950SOL     OW27565   5.945   3.122   6.726 -0.7053 -0.2613 -0.2749
 8950SOL    HW127566   5.909   3.211   6.717  1.5414  0.4770 -2.7445
 8950SOL    HW227567   5.875   3.065   6.693 -2.0027  0.6012  0.9225
 8951SOL     OW27568   3.551   3.647   5.782  0.2718  0.1325 -0.3213
 8951SOL    HW127569   3.606   3.725   5.783  2.3809 -1.3033  2.5011
 8951SOL    HW227570   3.543   3.621   5.874 -1.7978 -2.0291 -1.0322
 8952SOL     OW27571   2.835   1.934   2.143  0.4654  0.1418 -0.0101
 8952SOL    HW127572   2.930   1.929   2.137  0.4629 -0.6146  0.5397
 8952SOL    HW227573   2.812   1.881   2.219 -0.5715 -1.6453 -1.5093
 8953SOL     OW27574   5.244   3.204   1.076 -0.2520  0.2285  0.1417
 8953SOL    HW127575   5.323   3.197   1.130  2.4507 -1.5070 -3.7378
 8953SOL    HW227576   5.185   3.138   1.111  0.1875  1.1799  2.7814
 8954SOL     OW27577   3.174   4.726   3.649 -0.4412  0.2461 -0.2560
 8954SOL    HW127578   3.259   4.697   3.617 -0.8813  0.4776 -1.6513
 8954SOL    HW227579   3.112   4.660   3.618 -1.3568  2.2607 -2.8906
 8955SOL     OW27580   4.692   6.478   4.693  0.2364  0.4286 -0.3997
 8955SOL    HW127581   4.655   6.543   4.634 -0.8555  1.1340  1.0402
 8955SOL    HW227582   4.780   6.510   4.711 -0.3954  1.7043  0.5438
 8956SOL     OW27583   3.946   2.013   0.706  0.0949  0.1632 -0.0813
 8956SOL    HW127584   3.921   2.014   0.613 -0.9047 -0.4482  0.1825
 8956SOL    HW227585   4.015   1.947   0.712  0.5978  0.6419 -0.4963
 8957SOL     OW27586   4.979   0.958   4.860  0.0075  0.2378 -0.1124
 8957SOL    HW127587   4.995   0.963   4.954 -0.8299 -0.6292  0.0945
 8957SOL    HW227588   5.026   0.879   4.832  0.3650  0.5691 -0.4419
 8958SOL     OW27589   0.945   3.349   0.307 -1.2189  0.2753  0.6956
 8958SOL    HW127590   0.995   3.373   0.385 -1.4230  0.6184  0.7237
 8958SOL    HW227591   0.969   3.258   0.289  0.3065  0.7885  0.0308
 8959SOL     OW27592   0.994   6.724   0.538 -0.3706  0.1456 -0.1268
 8959SOL    HW127593   1.071   6.717   0.594  0.1990  0.9474 -0.7946
 8959SOL    HW227594   0.939   6.650   0.563  0.2756 -0.0029  0.8777
 8960SOL     OW27595   5.454   1.078   2.388 -0.4174  0.1774 -0.0757
 8960SOL    HW127596   5.405   1.112   2.462  0.8547 -0.9810  1.3236
 8960SOL    HW227597   5.455   0.983   2.400 -1.9861 -0.2305 -2.7259
 8961SOL     OW27598   4.804   6.709   4.440 -0.0636  0.2503  0.1765
 8961SOL    HW127599   4.762   6.731   4.523 -0.4390  1.9714 -0.4388
 8961SOL    HW227600   4.860   6.634   4.460 -0.4317  0.4116  1.8890
 8962SOL     OW27601   5.579   4.423   3.477 -0.1893 -0.0331  0.3186
 8962SOL    HW127602   5.617   4.492   3.424 -0.6900  0.1507  0.1901
 8962SOL    HW227603   5.486   4.422   3.453 -0.0906 -1.1040 -0.0669
 8963SOL     OW27604   0.670   6.365   4.570  0.3310  0.3708  0.5617
 8963SOL    HW127605   0.687   6.271   4.572 -0.0853  0.2384 -1.3479
 8963SOL    HW227606   0.709   6.398   4.651  2.0851 -1.1778  0.3852
 8964SOL     OW27607   2.919   1.595   2.304 -0.4086  0.1029 -0.3054
 8964SOL    HW127608   2.939   1.668   2.363 -1.9756 -0.5485  1.0777
 8964SOL    HW227609   2.909   1.520   2.363  2.0074 -1.4373 -1.7679
 8965SOL     OW27610   0.072   5.865   4.584  0.4594  0.8708 -0.0783
 8965SOL    HW127611   0.146   5.805   4.577 -0.7598 -0.6389 -0.4703
 8965SOL    HW227612   0.041   5.875   4.494 -0.2373  0.9228  0.1595
 8966SOL     OW27613   2.478   1.817   3.902  0.1005 -0.4950 -0.2076
 8966SOL    HW127614   2.405   1.861   3.857 -0.0836 -1.3624 -0.7665
 8966SOL    HW227615   2.533   1.785   3.831  0.4009 -0.8865  0.2053
 8967SOL     OW27616   6.325   0.120   5.688 -0.7381  0.4578  0.1338
 8967SOL    HW127617   6.408   0.102   5.732  0.2801  1.3845 -1.3980
 8967SOL    HW227618   6.261   0.120   5.759  0.7719  1.1323  1.5384
 8968SOL     OW27619   0.447   5.486   5.393  0.2326 -0.0167  0.3850
 8968SOL    HW127620   0.430   5.517   5.304  0.3381  1.4490  0.8554
 8968SOL    HW227621   0.542   5.475   5.397  0.3240  0.7814  0.5730
 8969SOL     OW27622   1.640   4.029   4.810  0.0358  0.0832  0.0866
 8969SOL    HW127623   1.555   3.987   4.795 -0.4983  1.1649 -0.0134
 8969SOL    HW227624   1.671   4.051   4.722  1.2838 -1.9305 -0.0086
 8970SOL     OW27625   2.471   2.454   3.642  0.2448  0.3490 -0.3418
 8970SOL    HW127626   2.514   2.452   3.728  0.1615  0.7527 -0.2907
 8970SOL    HW227627   2.378   2.453   3.662  0.2189  1.4324 -0.4024
 8971SOL     OW27628   4.128   3.753   2.357 -0.8549 -0.4468 -0.7127
 8971SOL    HW127629   4.206   3.777   2.307 -1.6890  2.6640 -0.6257
 8971SOL    HW227630   4.110   3.662   2.332  0.8476 -0.1198 -3.3000
 8972SOL     OW27631   0.920   2.759   1.697  0.1402 -0.0160 -1.0977
 8972SOL    HW127632   0.834   2.719   1.708 -0.3194  1.1872 -0.2821
 8972SOL    HW227633   0.902   2.850   1.675  1.2065  0.4931  0.0621
 8973SOL     OW27634   4.816   2.945   0.250 -0.5318 -0.1831  0.5014
 8973SOL    HW127635   4.815   2.855   0.283  1.6734 -0.7355 -0.7940
 8973SOL    HW227636   4.852   2.938   0.161 -0.6930  1.9363  0.2271
 8974SOL     OW27637   6.658   0.972   2.659 -0.0070 -0.1402  0.1172
 8974SOL    HW127638   6.684   0.891   2.616  0.0027 -0.9762  1.6460
 8974SOL    HW227639   6.597   0.944   2.728 -0.1040  1.1661  0.5873
 8975SOL     OW27640   0.302   6.273   3.940 -0.0226 -0.0225 -0.4450
 8975SOL    HW127641   0.396   6.260   3.929  0.2034  0.7513  0.4475
 8975SOL    HW227642   0.278   6.212   4.010 -0.1301 -0.0179 -0.4781
 8976SOL     OW27643   1.679   5.998   3.573  0.3150 -0.1761  0.4994
 8976SOL    HW127644   1.607   5.984   3.511  0.7904  0.0545 -0.1124
 8976SOL    HW227645   1.735   5.921   3.561 -0.1385 -0.6627  1.4192
 8977SOL     OW27646   0.501   3.953   2.486  0.4459 -0.0924  0.4129
 8977SOL    HW127647   0.490   4.035   2.440  0.3853 -0.6189 -0.5247
 8977SOL    HW227648   0.451   3.964   2.567 -1.0555  0.1400 -0.5287
 8978SOL     OW27649   5.597   1.982   2.877 -0.2631 -0.0495  0.0697
 8978SOL    HW127650   5.657   1.960   2.948 -2.1904 -3.0060  0.9045
 8978SOL    HW227651   5.648   1.969   2.797  0.2816 -2.3930  0.7620
 8979SOL     OW27652   4.303   0.540   2.687 -0.7642  0.5620 -0.0281
 8979SOL    HW127653   4.328   0.627   2.719  1.3370 -0.1543  0.3664
 8979SOL    HW227654   4.279   0.554   2.595  0.0987  1.4761 -0.1213
 8980SOL     OW27655   4.730   2.119   6.152  0.0674  0.2341 -0.2652
 8980SOL    HW127656   4.665   2.170   6.104 -1.9161 -0.4541  1.6478
 8980SOL    HW227657   4.705   2.028   6.138  1.2364 -0.0926 -0.3255
 8981SOL     OW27658   0.974   5.416   4.734  0.2336 -0.4309 -0.4446
 8981SOL    HW127659   0.960   5.406   4.828 -0.0272 -0.9291 -0.5395
 8981SOL    HW227660   1.062   5.383   4.719  0.6449  0.5460 -0.2229
 8982SOL     OW27661   4.104   1.060   4.706  0.6300  0.0464  0.1941
 8982SOL    HW127662   4.135   1.144   4.739  1.3329  0.3566 -1.2204
 8982SOL    HW227663   4.042   1.083   4.636  1.8251 -0.6053 -1.0991
 8983SOL     OW27664   6.264   1.684   0.322 -0.1052 -0.2989  0.4551
 8983SOL    HW127665   6.226   1.756   0.272  2.1835 -1.5587 -3.2837
 8983SOL    HW227666   6.309   1.726   0.395 -0.1115  1.9387 -0.8038
 8984SOL     OW27667   5.724   2.901   4.018  0.2022 -0.0326 -0.0063
 8984SOL    HW127668   5.734   2.853   3.936 -0.5045  0.9105 -0.6424
 8984SOL    HW227669   5.733   2.993   3.994  0.5194  0.2235  1.0602
 8985SOL     OW27670   2.150   6.352   1.746 -0.0544  0.0100 -0.4182
 8985SOL    HW127671   2.192   6.395   1.819  1.3507  0.5903 -1.5519
 8985SOL    HW227672   2.188   6.264   1.744  0.3854  0.2050 -0.8285
 8986SOL     OW27673   5.077   2.125   0.911  0.8342  0.2458 -0.6401
 8986SOL    HW127674   5.154   2.164   0.870 -0.2780  1.2422 -1.8398
 8986SOL    HW227675   5.026   2.200   0.942  0.4689 -0.4134  0.3917
 8987SOL     OW27676   6.503   1.609   3.478  0.3086 -0.4839 -0.1711
 8987SOL    HW127677   6.545   1.551   3.415  0.3986  0.6605 -1.1822
 8987SOL    HW227678   6.474   1.551   3.549 -0.7568 -1.9323 -1.7533
 8988SOL     OW27679   0.756   6.627   6.125  0.0279  0.1339  0.1482
 8988SOL    HW127680   0.789   6.583   6.204  1.9084 -0.6164 -1.0211
 8988SOL    HW227681   0.744   6.556   6.062  0.2256  0.9407 -0.7985
 8989SOL     OW27682   6.469   4.361   2.518 -0.2293 -0.2440 -0.0460
 8989SOL    HW127683   6.491   4.332   2.606 -0.5182  0.0026  0.1113
 8989SOL    HW227684   6.407   4.433   2.531  0.2094  0.2162 -0.4297
 8990SOL     OW27685   4.321   0.137   5.267  0.1720  0.0706  0.0645
 8990SOL    HW127686   4.310   0.053   5.311 -0.6904 -0.2543 -0.7731
 8990SOL    HW227687   4.247   0.144   5.208  0.0943  1.5384  0.3021
 8991SOL     OW27688   6.554   1.914   5.663  0.2072 -0.2396 -0.3714
 8991SOL    HW127689   6.524   1.879   5.747 -0.9170  0.7346 -0.3609
 8991SOL    HW227690   6.627   1.856   5.638  1.3996  0.2113  1.8887
 8992SOL     OW27691   4.922   1.470   6.542 -0.1714  0.8899 -0.2474
 8992SOL    HW127692   4.885   1.523   6.471  0.7204 -0.4490 -1.7419
 8992SOL    HW227693   4.927   1.531   6.616  0.2511  2.7358 -1.7394
 8993SOL     OW27694   0.770   3.872   6.676 -0.2944  0.0560 -0.0643
 8993SOL    HW127695   0.771   3.782   6.641  0.4606 -0.1075  0.3760
 8993SOL    HW227696   0.844   3.915   6.633  0.4393 -0.0499  1.0614
 8994SOL     OW27697   0.987   1.977   1.430  0.0812  0.1146 -0.2080
 8994SOL    HW127698   0.933   1.909   1.469  0.6628  1.0334  2.2838
 8994SOL    HW227699   1.076   1.958   1.458  0.7440  0.0179 -2.2621
 8995SOL     OW27700   1.219   5.743   0.255 -0.4342 -0.3166  0.0379
 8995SOL    HW127701   1.297   5.783   0.215  0.5670 -1.8791  0.3696
 8995SOL    HW227702   1.155   5.813   0.258  1.1438  1.1483  0.2364
 8996SOL     OW27703   0.561   2.514   1.375 -0.4531  0.3126 -0.2501
 8996SOL    HW127704   0.500   2.548   1.441  0.9640  0.7708  0.8432
 8996SOL    HW227705   0.593   2.432   1.413  1.7604  1.4837  0.5106
 8997SOL     OW27706   1.602   6.036   1.381  0.6079 -0.7440  0.3786
 8997SOL    HW127707   1.646   6.118   1.356  0.3408 -0.9942 -0.9368
 8997SOL    HW227708   1.664   5.993   1.440  0.7016  0.4627  1.1754
 8998SOL     OW27709   4.930   0.847   3.483 -1.0231  0.1367  0.1956
 8998SOL    HW127710   4.854   0.850   3.539 -0.7854  0.4256  0.5038
 8998SOL    HW227711   4.990   0.786   3.526 -1.3611 -0.6344 -0.4047
 8999SOL     OW27712   0.736   5.346   0.361  0.6674  0.3223  0.3472
 8999SOL    HW127713   0.808   5.341   0.424  1.0932 -1.6096 -0.2647
 8999SOL    HW227714   0.659   5.322   0.411  0.9977 -1.1656  0.1431
 9000SOL     OW27715   4.228   5.090   0.931 -0.0478 -0.3060 -0.1876
 9000SOL    HW127716   4.262   5.004   0.906 -1.3432 -0.5091 -1.3356
 9000SOL    HW227717   4.232   5.142   0.851  0.3498  0.5929  0.4016
 9001SOL     OW27718   2.590   4.191   1.201  0.4463 -0.3345  0.0832
 9001SOL    HW127719   2.519   4.227   1.147 -0.4366  1.0271  2.0695
 9001SOL    HW227720   2.666   4.244   1.179  0.3935 -0.5928 -0.7206
 9002SOL     OW27721   5.543   4.740   2.897 -0.5009 -0.1878 -0.6866
 9002SOL    HW127722   5.484   4.798   2.946  0.6237  1.0084 -0.7348
 9002SOL    HW227723   5.509   4.653   2.914 -2.2556  0.4768 -0.6463
 9003SOL     OW27724   4.094   2.742   0.481 -0.1137  0.3626  0.4478
 9003SOL    HW127725   4.086   2.657   0.525 -0.9153  1.0615  1.6898
 9003SOL    HW227726   4.063   2.725   0.392  2.2475 -1.2519 -0.1018
 9004SOL     OW27727   1.386   6.055   6.545  0.2869 -0.3237 -0.0193
 9004SOL    HW127728   1.404   5.963   6.568  1.6486 -0.2700 -0.8406
 9004SOL    HW227729   1.422   6.065   6.457 -0.4669  0.8272 -0.2005
 9005SOL     OW27730   0.876   3.741   6.156 -0.5815 -0.1384  0.3320
 9005SOL    HW127731   0.875   3.675   6.086  1.0192 -1.1484  1.2223
 9005SOL    HW227732   0.795   3.725   6.205  0.7102 -2.7689  1.6952
 9006SOL     OW27733   4.005   5.400   1.163  0.0824  0.9406  0.0072
 9006SOL    HW127734   4.027   5.488   1.193  0.1927  0.7526  0.4758
 9006SOL    HW227735   4.073   5.380   1.098  0.3602  0.9935  0.2832
 9007SOL     OW27736   6.092   3.144   5.292  0.0518  0.2886 -0.1901
 9007SOL    HW127737   6.136   3.199   5.358  1.5485 -1.6260  0.4448
 9007SOL    HW227738   6.063   3.067   5.341 -0.2134 -0.4375 -1.4810
 9008SOL     OW27739   2.690   2.028   1.393 -0.2143 -0.4402  0.0645
 9008SOL    HW127740   2.694   2.122   1.409  0.7280 -0.3486 -0.6503
 9008SOL    HW227741   2.597   2.009   1.382 -0.3933  0.4299  0.0654
 9009SOL     OW27742   2.104   5.379   5.538  1.0675  0.1063  0.0568
 9009SOL    HW127743   2.091   5.443   5.468 -1.2800  1.1315  1.3892
 9009SOL    HW227744   2.047   5.306   5.515  2.2951 -0.7053 -0.4586
 9010SOL     OW27745   4.526   4.706   2.015 -1.7072  0.5287  0.1956
 9010SOL    HW127746   4.460   4.771   1.989 -1.3630  1.4290  1.4680
 9010SOL    HW227747   4.476   4.640   2.064 -2.2007 -0.6677 -1.8634
 9011SOL     OW27748   4.472   4.023   2.690  0.4556 -0.1546 -0.0457
 9011SOL    HW127749   4.548   3.967   2.675 -1.0201 -2.4177  0.5078
 9011SOL    HW227750   4.421   3.976   2.757 -2.8997 -0.2551 -2.5276
 9012SOL     OW27751   0.282   5.849   4.375  0.1710  0.0548  0.3256
 9012SOL    HW127752   0.353   5.787   4.396  0.3066  0.1251  0.0773
 9012SOL    HW227753   0.230   5.804   4.308  0.6540  0.4797 -0.3453
 9013SOL     OW27754   4.252   2.166   3.072 -0.1196 -0.3374  0.3341
 9013SOL    HW127755   4.280   2.227   3.003  0.1900 -0.2034  0.5792
 9013SOL    HW227756   4.218   2.223   3.141 -1.0736 -0.4960  0.0154
 9014SOL     OW27757   4.107   1.213   6.747  0.0337  0.1313  0.7128
 9014SOL    HW127758   4.101   1.166   6.664  0.0979  1.1789  0.1003
 9014SOL    HW227759   4.040   1.173   6.803 -1.5738  0.9126 -0.5977
 9015SOL     OW27760   4.663   1.257   0.262 -0.2584  0.2931 -0.1609
 9015SOL    HW127761   4.647   1.263   0.168  0.6513 -0.5465 -0.3772
 9015SOL    HW227762   4.756   1.236   0.270  0.1239  2.2763  0.9850
 9016SOL     OW27763   2.180   2.663   4.751 -0.0787 -0.1244  0.1156
 9016SOL    HW127764   2.265   2.669   4.795 -1.2286  1.8086  2.1268
 9016SOL    HW227765   2.122   2.720   4.802 -2.0012  0.4672 -2.6365
 9017SOL     OW27766   3.134   0.467   0.678 -0.0130  0.0315 -0.0656
 9017SOL    HW127767   3.080   0.504   0.608 -0.9536  0.9414  1.1244
 9017SOL    HW227768   3.211   0.524   0.681 -0.1490  0.2159 -0.0943
 9018SOL     OW27769   2.557   4.678   0.538  0.4306 -0.0589  0.5000
 9018SOL    HW127770   2.586   4.609   0.479  0.0662 -0.7797  1.1649
 9018SOL    HW227771   2.519   4.745   0.481  1.1050 -0.2446 -0.1698
 9019SOL     OW27772   4.135   6.681   2.712 -0.8387  0.4265 -0.4195
 9019SOL    HW127773   4.050   6.644   2.686  0.1760 -0.9134 -1.9650
 9019SOL    HW227774   4.169   6.720   2.632  0.9261 -0.9247 -0.3655
 9020SOL     OW27775   5.147   1.430   3.654  0.0568 -0.0297  0.2912
 9020SOL    HW127776   5.183   1.401   3.738  0.4895  1.3251  0.5812
 9020SOL    HW227777   5.156   1.354   3.597  0.1609 -0.8239  1.3534
 9021SOL     OW27778   2.811   5.952   3.666 -0.2764  0.1331 -0.3859
 9021SOL    HW127779   2.752   6.024   3.687  1.8898  2.6891 -2.6162
 9021SOL    HW227780   2.898   5.991   3.668  1.2328 -3.0697  0.8599
 9022SOL     OW27781   3.700   4.599   3.233 -0.5401  0.1131 -0.5003
 9022SOL    HW127782   3.771   4.538   3.257  1.1429  2.5692  1.0935
 9022SOL    HW227783   3.737   4.652   3.163 -2.2638 -1.1386 -2.4002
 9023SOL     OW27784   3.566   6.460   2.760 -0.0390  0.3033  0.5709
 9023SOL    HW127785   3.590   6.536   2.813 -0.2890  2.7785 -2.6639
 9023SOL    HW227786   3.471   6.467   2.750 -0.0845 -0.5347  0.3677
 9024SOL     OW27787   5.775   5.404   2.890 -0.4530 -0.7937 -0.2362
 9024SOL    HW127788   5.870   5.391   2.881 -0.6139 -1.7362 -0.6095
 9024SOL    HW227789   5.757   5.385   2.981  0.2715  3.0214  0.8054
 9025SOL     OW27790   1.074   5.500   3.466  0.1994 -0.5896 -0.5295
 9025SOL    HW127791   1.086   5.426   3.526  0.9511  0.0120  0.0804
 9025SOL    HW227792   1.039   5.460   3.386 -1.6146 -1.2959  0.5729
 9026SOL     OW27793   4.578   4.452   1.116 -0.0378 -0.0485  0.6371
 9026SOL    HW127794   4.526   4.379   1.149 -0.2398 -0.9650 -1.5727
 9026SOL    HW227795   4.515   4.521   1.097 -0.4049 -0.8798 -1.3056
 9027SOL     OW27796   5.283   4.267   0.932  1.0646  0.6536  0.4168
 9027SOL    HW127797   5.201   4.310   0.954 -1.0508 -2.8358 -0.2390
 9027SOL    HW227798   5.312   4.228   1.015  0.8616  0.0274  0.2014
 9028SOL     OW27799   1.387   0.176   6.551 -0.1458 -0.3211  0.3426
 9028SOL    HW127800   1.379   0.173   6.456  0.2815 -0.1916  0.3000
 9028SOL    HW227801   1.336   0.253   6.577  2.2467  1.4718 -0.0736
 9029SOL     OW27802   1.408   3.296   3.771  0.5214 -0.6029 -0.3279
 9029SOL    HW127803   1.425   3.277   3.679 -1.1924 -0.6275 -0.6603
 9029SOL    HW227804   1.390   3.390   3.774 -1.4646 -0.9664 -0.3578
 9030SOL     OW27805   3.527   2.933   5.891  0.1509 -0.1325 -0.7766
 9030SOL    HW127806   3.612   2.970   5.914  0.1675  0.2658 -1.4637
 9030SOL    HW227807   3.466   2.971   5.955  0.9270 -2.6186  1.5237
 9031SOL     OW27808   0.922   0.454   5.527  0.2295  0.3609 -0.7280
 9031SOL    HW127809   0.842   0.400   5.528  0.4728  0.0188  0.8036
 9031SOL    HW227810   0.893   0.539   5.559  0.2405  0.5911 -1.3253
 9032SOL     OW27811   4.957   6.299   5.995 -0.4547  0.4753 -0.3288
 9032SOL    HW127812   5.028   6.337   5.944  0.2096 -2.1208 -1.3727
 9032SOL    HW227813   4.981   6.208   6.008 -2.3769  0.1709  1.5083
 9033SOL     OW27814   0.249   3.980   2.326 -0.0930 -0.0776  0.4783
 9033SOL    HW127815   0.327   3.977   2.270 -0.1843  0.3305  0.3232
 9033SOL    HW227816   0.234   4.073   2.341 -2.2216  0.0352 -1.8701
 9034SOL     OW27817   0.670   2.243   6.117  0.2630 -0.2701 -0.0455
 9034SOL    HW127818   0.708   2.156   6.119 -1.3570 -1.0385 -1.4227
 9034SOL    HW227819   0.578   2.229   6.140 -0.1085  1.0029 -0.7105
 9035SOL     OW27820   3.500   6.593   4.022 -0.0994  0.5390 -0.3688
 9035SOL    HW127821   3.488   6.688   4.018 -0.4745  0.4555 -1.3137
 9035SOL    HW227822   3.549   6.572   3.943  2.0411  0.2376  1.0021
 9036SOL     OW27823   1.648   0.728   3.200 -0.3905  0.9443 -0.3363
 9036SOL    HW127824   1.606   0.664   3.142  0.6566  0.1329 -0.2041
 9036SOL    HW227825   1.675   0.798   3.141 -1.6938  1.3687 -0.4592
 9037SOL     OW27826   1.433   6.627   3.312  0.4074 -1.0172  0.4542
 9037SOL    HW127827   1.383   6.565   3.365 -1.3234  0.5418  0.7287
 9037SOL    HW227828   1.489   6.673   3.376  0.6412 -1.3127  0.4618
 9038SOL     OW27829   2.249   1.604   2.429 -0.3669 -0.2576 -0.8393
 9038SOL    HW127830   2.327   1.571   2.386 -0.1248 -0.1148 -0.5086
 9038SOL    HW227831   2.267   1.595   2.523 -0.5301  0.2688 -0.7544
 9039SOL     OW27832   1.814   3.535   4.576 -0.1377 -0.3742  0.7113
 9039SOL    HW127833   1.859   3.559   4.657 -1.5332  1.5259  0.9523
 9039SOL    HW227834   1.854   3.591   4.509 -0.3652 -0.5214  0.4511
 9040SOL     OW27835   2.401   5.952   4.829  0.2920  0.4218  0.5293
 9040SOL    HW127836   2.341   5.887   4.792  0.2884  1.4670 -1.3622
 9040SOL    HW227837   2.488   5.912   4.823  0.1311  0.0628  0.6104
 9041SOL     OW27838   1.459   6.355   5.901  0.3391 -0.0845  0.4504
 9041SOL    HW127839   1.394   6.422   5.883  0.9615  0.5540  0.5450
 9041SOL    HW227840   1.529   6.371   5.837 -0.5678 -2.1227 -1.1106
 9042SOL     OW27841   2.926   4.269   1.794 -0.1999  0.3106  0.2373
 9042SOL    HW127842   2.941   4.241   1.885 -2.0015 -0.2345  0.3849
 9042SOL    HW227843   2.854   4.332   1.800 -0.4511  0.1322 -0.8332
 9043SOL     OW27844   4.841   0.232   1.484  0.2020 -0.8190  0.0703
 9043SOL    HW127845   4.907   0.162   1.489 -0.2092 -1.1753  0.5182
 9043SOL    HW227846   4.875   0.291   1.416  2.5268  0.6074  2.3607
 9044SOL     OW27847   5.853   1.743   0.893 -0.4191  0.3942 -0.0494
 9044SOL    HW127848   5.888   1.815   0.946 -1.0174  1.9558 -1.7202
 9044SOL    HW227849   5.788   1.785   0.837 -1.2959 -1.6021 -0.5338
 9045SOL     OW27850   5.629   4.391   4.264  0.5797  0.1616  0.1464
 9045SOL    HW127851   5.623   4.297   4.283  1.2364  0.2969  1.0660
 9045SOL    HW227852   5.685   4.396   4.186  0.2728 -0.2261 -0.1021
 9046SOL     OW27853   5.461   1.701   1.053 -0.7168  0.0329 -0.1922
 9046SOL    HW127854   5.499   1.615   1.041 -0.2635  0.5211 -2.3772
 9046SOL    HW227855   5.530   1.763   1.028 -1.5292  0.9908 -0.1343
 9047SOL     OW27856   1.468   5.061   5.895 -0.4435 -0.0821  0.3523
 9047SOL    HW127857   1.469   5.042   5.989 -2.2719  0.8416  0.5905
 9047SOL    HW227858   1.550   5.110   5.880  0.6963 -1.7142  1.1053
 9048SOL     OW27859   6.107   0.699   6.376 -0.1525  0.1024 -0.2559
 9048SOL    HW127860   6.151   0.765   6.323 -0.7256  0.5254 -0.2000
 9048SOL    HW227861   6.129   0.721   6.466  0.5944 -0.4560 -0.2926
 9049SOL     OW27862   2.850   1.300   2.827  0.0798 -0.1888 -0.5681
 9049SOL    HW127863   2.851   1.292   2.732  0.0533  0.0942 -0.5931
 9049SOL    HW227864   2.935   1.266   2.855  0.7557  1.2351 -0.8232
 9050SOL     OW27865   1.505   4.550   1.311  0.2010 -0.2137 -0.1318
 9050SOL    HW127866   1.575   4.524   1.371 -0.3751  0.1207  0.6974
 9050SOL    HW227867   1.475   4.469   1.271 -0.2428 -0.5872  0.9520
 9051SOL     OW27868   5.276   3.446   6.418  0.3145  0.5943  0.1055
 9051SOL    HW127869   5.191   3.446   6.373 -0.4646 -1.3704  1.4871
 9051SOL    HW227870   5.330   3.386   6.366 -0.4985 -1.4580  1.5650
 9052SOL     OW27871   0.721   4.687   3.771 -0.3392  0.2468 -0.0524
 9052SOL    HW127872   0.811   4.655   3.779 -0.3581 -0.1088 -1.1558
 9052SOL    HW227873   0.714   4.715   3.680 -1.6632 -0.7142 -0.2522
 9053SOL     OW27874   5.096   3.574   1.683 -0.2519 -0.0686  0.1501
 9053SOL    HW127875   5.057   3.506   1.738  0.8613 -0.2735  0.7037
 9053SOL    HW227876   5.106   3.534   1.597 -3.6469  0.8171 -0.7277
 9054SOL     OW27877   5.009   5.672   3.837 -0.1619 -0.4107 -0.8297
 9054SOL    HW127878   5.066   5.595   3.842 -2.3533 -1.9824  1.4968
 9054SOL    HW227879   5.015   5.700   3.746  3.5282 -1.0914 -0.8628
 9055SOL     OW27880   4.778   5.700   0.567  0.0438  0.2618  0.2276
 9055SOL    HW127881   4.708   5.688   0.502  1.5680 -1.6730 -1.1445
 9055SOL    HW227882   4.736   5.743   0.641 -2.0993  1.0927 -1.4378
 9056SOL     OW27883   3.997   2.849   1.767  0.0414 -0.1510 -0.1217
 9056SOL    HW127884   3.943   2.870   1.691  1.6651  0.6555 -1.0872
 9056SOL    HW227885   3.971   2.760   1.791 -1.7811  0.2609 -0.4880
 9057SOL     OW27886   5.166   5.519   1.021  0.1334 -0.3199 -0.2630
 9057SOL    HW127887   5.219   5.585   0.976  0.6956 -0.4298  0.2344
 9057SOL    HW227888   5.138   5.562   1.101 -0.5877 -0.2397 -0.5565
 9058SOL     OW27889   5.120   6.529   3.627 -0.2453  0.3482  0.4210
 9058SOL    HW127890   5.118   6.434   3.624 -2.0316  0.2302  3.3332
 9058SOL    HW227891   5.212   6.551   3.634  0.2458 -1.1164 -1.2242
 9059SOL     OW27892   6.114   4.778   4.317 -0.2074  0.2545  0.1383
 9059SOL    HW127893   6.042   4.717   4.303  1.2213 -1.4147 -0.1742
 9059SOL    HW227894   6.092   4.824   4.398 -0.9853 -1.1415  0.7207
 9060SOL     OW27895   4.707   5.035   6.044 -0.4340  0.3241  0.1379
 9060SOL    HW127896   4.623   5.074   6.019 -0.4433  0.4157  0.3138
 9060SOL    HW227897   4.749   5.101   6.099 -0.1809  0.3379 -0.0738
 9061SOL     OW27898   5.470   3.241   0.670 -0.0684  0.0221  0.1239
 9061SOL    HW127899   5.466   3.307   0.738 -1.8548 -0.4456  0.4897
 9061SOL    HW227900   5.379   3.220   0.651  0.4323 -0.8573 -1.4333
 9062SOL     OW27901   5.430   4.777   5.525  0.1243 -0.2948  0.6515
 9062SOL    HW127902   5.352   4.728   5.550 -1.7243  1.7067 -0.9442
 9062SOL    HW227903   5.443   4.756   5.433 -1.3740  2.9576 -0.3762
 9063SOL     OW27904   5.969   2.168   3.782 -0.4945  0.5127  0.3867
 9063SOL    HW127905   5.999   2.097   3.725  1.8385 -0.2026  2.4581
 9063SOL    HW227906   5.915   2.124   3.848  0.2472  0.7874  1.1746
 9064SOL     OW27907   3.602   5.091   3.563  0.7545  0.2031  0.2877
 9064SOL    HW127908   3.645   5.064   3.482  0.0948  2.2064 -0.7698
 9064SOL    HW227909   3.653   5.167   3.593 -1.0113  1.5545 -0.0741
 9065SOL     OW27910   5.605   4.919   3.361 -0.2207  0.2681  0.1713
 9065SOL    HW127911   5.552   4.840   3.372 -1.4489  1.0548  0.0292
 9065SOL    HW227912   5.690   4.896   3.398 -0.8227 -0.8399  0.9043
 9066SOL     OW27913   2.554   1.413   1.017 -0.3245 -0.0343  0.1238
 9066SOL    HW127914   2.486   1.435   0.954  0.3355  0.3547 -0.4709
 9066SOL    HW227915   2.622   1.371   0.964 -0.1586 -0.5457  0.7282
 9067SOL     OW27916   0.465   0.969   2.310  0.6027  0.1946  0.3464
 9067SOL    HW127917   0.476   0.918   2.231  2.9470  0.2991  0.5691
 9067SOL    HW227918   0.475   1.060   2.281  1.9942  0.2084  0.8016
 9068SOL     OW27919   4.905   2.290   3.203  0.6022  0.1302  0.4301
 9068SOL    HW127920   4.969   2.237   3.156 -1.8759 -1.2088 -1.5289
 9068SOL    HW227921   4.900   2.251   3.290  4.1259  1.7161  1.4462
 9069SOL     OW27922   2.771   2.727   4.676 -0.4242 -0.5198  0.0556
 9069SOL    HW127923   2.681   2.758   4.670  0.0641  1.1581  0.9398
 9069SOL    HW227924   2.805   2.734   4.587 -0.3219  1.6030  0.2312
 9070SOL     OW27925   1.914   0.227   5.131 -0.3042 -0.0974 -0.3783
 9070SOL    HW127926   1.954   0.149   5.093  0.7606  0.2507 -0.0057
 9070SOL    HW227927   1.891   0.282   5.056 -1.4637 -0.9544 -0.6599
 9071SOL     OW27928   3.851   5.877   4.678 -0.2060  0.1918 -0.0641
 9071SOL    HW127929   3.832   5.965   4.712  0.7067  1.9205 -3.7038
 9071SOL    HW227930   3.768   5.847   4.643 -0.1538  0.3540 -0.3331
 9072SOL     OW27931   2.114   3.300   2.710  0.1887 -0.3468  0.4133
 9072SOL    HW127932   2.145   3.235   2.773  1.1035 -1.8219 -1.4984
 9072SOL    HW227933   2.157   3.275   2.628  1.7677  3.5787 -0.0502
 9073SOL     OW27934   1.452   4.056   5.751 -0.4486  0.1556  0.5220
 9073SOL    HW127935   1.420   3.980   5.799  0.1920 -0.5350 -0.1223
 9073SOL    HW227936   1.533   4.080   5.796 -0.3592  0.1064  0.3888
 9074SOL     OW27937   3.468   1.235   5.677  0.0216 -0.2874 -0.2193
 9074SOL    HW127938   3.494   1.248   5.585 -1.2648 -0.5793 -0.6382
 9074SOL    HW227939   3.413   1.311   5.696  0.6068 -0.0316  0.4299
 9075SOL     OW27940   4.932   4.793   2.772 -0.1270  0.3935  0.5325
 9075SOL    HW127941   4.869   4.806   2.700 -0.8951 -2.9975  0.4994
 9075SOL    HW227942   4.959   4.702   2.763  0.9287  0.3544  3.6686
 9076SOL     OW27943   6.516   2.403   0.255  0.2891 -0.2585 -0.3741
 9076SOL    HW127944   6.505   2.498   0.253 -0.1561 -0.3143 -3.5597
 9076SOL    HW227945   6.533   2.382   0.347  1.5237  3.0052  0.1926
 9077SOL     OW27946   5.358   2.399   1.747  1.1452  0.2510  0.4680
 9077SOL    HW127947   5.288   2.336   1.731  0.0323  1.2624  1.2767
 9077SOL    HW227948   5.425   2.378   1.681 -0.9451  0.8370 -1.8895
 9078SOL     OW27949   4.769   2.191   2.913  0.6746  0.6668  0.3249
 9078SOL    HW127950   4.702   2.189   2.982 -0.5119  1.6140 -0.7780
 9078SOL    HW227951   4.824   2.115   2.931 -0.3634  0.1905  1.5791
 9079SOL     OW27952   0.039   6.706   2.285 -0.1294  0.7156 -0.6030
 9079SOL    HW127953   0.001   6.666   2.206 -1.5775  3.5662 -1.4088
 9079SOL    HW227954   0.086   6.782   2.253  1.7285  0.2896  1.0212
 9080SOL     OW27955   6.000   2.544   2.670  0.2107 -0.1306  0.2954
 9080SOL    HW127956   6.025   2.537   2.578  0.7587  1.1755  0.3388
 9080SOL    HW227957   5.908   2.570   2.668 -0.0714 -1.0997  0.1335
 9081SOL     OW27958   1.148   3.514   6.135 -0.1875  0.5377 -0.9571
 9081SOL    HW127959   1.224   3.535   6.189  0.0421 -0.7733 -0.7547
 9081SOL    HW227960   1.145   3.584   6.069  1.1303  0.6452 -0.9109
 9082SOL     OW27961   4.457   1.734   0.168 -0.2705 -0.2596 -0.7830
 9082SOL    HW127962   4.444   1.648   0.207  2.6887  0.3034  1.7037
 9082SOL    HW227963   4.374   1.779   0.181 -0.9072 -1.7644  0.5439
 9083SOL     OW27964   1.265   1.331   2.425 -0.0434  0.0004 -0.1406
 9083SOL    HW127965   1.171   1.324   2.441  0.1034 -1.1644  0.1875
 9083SOL    HW227966   1.304   1.262   2.477  1.0925  1.0612  0.4403
 9084SOL     OW27967   2.177   4.889   0.691  0.3253  0.2812  0.1183
 9084SOL    HW127968   2.233   4.816   0.720 -2.1768 -1.7007  0.1474
 9084SOL    HW227969   2.168   4.876   0.597 -0.3959  0.3493  0.1747
 9085SOL     OW27970   2.020   2.018   5.789  0.4904  0.0345  0.3498
 9085SOL    HW127971   1.939   2.044   5.832  0.1399 -0.6878  0.1383
 9085SOL    HW227972   2.085   2.082   5.819  0.0301  0.1257  1.1704
 9086SOL     OW27973   4.297   1.575   3.745 -0.1780 -0.4925 -0.1935
 9086SOL    HW127974   4.221   1.596   3.800 -0.1681  0.3221 -0.4919
 9086SOL    HW227975   4.276   1.610   3.659 -0.2024 -1.7967 -0.7310
 9087SOL     OW27976   1.364   0.988   0.733  0.0730  0.1254  0.5697
 9087SOL    HW127977   1.361   0.906   0.683  0.5403  0.8705 -0.6798
 9087SOL    HW227978   1.272   1.013   0.742 -0.0104  0.0165  0.0385
 9088SOL     OW27979   4.574   0.709   2.530 -0.1459 -0.8839  0.4077
 9088SOL    HW127980   4.622   0.791   2.538  0.3221 -1.2130  1.0096
 9088SOL    HW227981   4.641   0.641   2.534 -0.5451 -1.3006  0.0596
 9089SOL     OW27982   4.444   5.175   4.108 -0.2698 -0.5840  0.4629
 9089SOL    HW127983   4.436   5.238   4.036 -0.8885  1.8870  2.6208
 9089SOL    HW227984   4.531   5.137   4.098  0.0845  0.5566 -0.9336
 9090SOL     OW27985   4.753   3.981   6.516 -0.2217  0.5979 -0.1806
 9090SOL    HW127986   4.715   3.961   6.431  0.4206 -0.6102 -0.1816
 9090SOL    HW227987   4.715   4.066   6.539 -1.0627  0.5293 -1.2733
 9091SOL     OW27988   2.441   0.487   1.628  0.3232 -0.3543 -0.7531
 9091SOL    HW127989   2.450   0.454   1.718  1.1817  0.3648 -0.5692
 9091SOL    HW227990   2.351   0.466   1.604  0.1114 -0.6197  0.2531
 9092SOL     OW27991   3.529   1.042   4.474  0.4687 -0.1571  0.2253
 9092SOL    HW127992   3.585   1.112   4.440  0.6107 -1.4282 -2.3104
 9092SOL    HW227993   3.582   0.996   4.538  0.2094  2.3161  2.2967
 9093SOL     OW27994   3.412   2.016   0.188 -0.0553 -0.4056  0.3094
 9093SOL    HW127995   3.406   2.092   0.246  0.6295 -0.2834  0.2145
 9093SOL    HW227996   3.356   1.951   0.230 -1.7773  0.6066 -0.3263
 9094SOL     OW27997   3.477   2.002   3.344 -0.1791  0.0265 -0.1798
 9094SOL    HW127998   3.565   2.032   3.322 -0.8078  1.6669 -0.4986
 9094SOL    HW227999   3.436   1.982   3.260  0.0967 -1.3862  0.0034
 9095SOL     OW28000   4.515   0.312   6.262 -0.1734 -0.4694  0.1978
 9095SOL    HW128001   4.597   0.307   6.311 -0.1755 -2.2308  0.0484
 9095SOL    HW228002   4.525   0.389   6.206  0.4343  0.6703  1.8450
 9096SOL     OW28003   0.293   6.643   0.688 -0.1711 -0.2592  0.6900
 9096SOL    HW128004   0.266   6.730   0.659 -0.3881 -0.1726  1.1542
 9096SOL    HW228005   0.254   6.583   0.623  1.5514  0.0992 -0.7313
 9097SOL     OW28006   5.186   0.471   5.536  0.0209 -0.0289  0.4936
 9097SOL    HW128007   5.246   0.526   5.486 -0.3372  0.1486  0.2603
 9097SOL    HW228008   5.171   0.519   5.617 -1.7196  1.0898 -0.4684
 9098SOL     OW28009   0.744   4.983   4.567 -0.0104  0.0791  0.2259
 9098SOL    HW128010   0.807   5.045   4.604 -0.7297  3.3851 -3.7688
 9098SOL    HW228011   0.658   5.020   4.587 -0.6869 -2.3502  2.1586
 9099SOL     OW28012   6.661   6.112   1.599  0.3342  0.0423 -0.0172
 9099SOL    HW128013   6.687   6.048   1.665 -1.1892  0.3402  0.8819
 9099SOL    HW228014   6.621   6.060   1.530  0.0563 -0.0786  0.2341
 9100SOL     OW28015   2.203   5.636   0.986 -0.0693 -0.4745  0.2338
 9100SOL    HW128016   2.142   5.678   1.047 -0.5571 -1.2310  0.2797
 9100SOL    HW228017   2.152   5.565   0.946  0.5995 -0.7283 -0.1808
 9101SOL     OW28018   6.226   2.614   1.447  0.2697  0.5897 -0.0251
 9101SOL    HW128019   6.154   2.587   1.505 -0.5520  0.7805 -0.9459
 9101SOL    HW228020   6.183   2.634   1.364  1.3649  0.9622 -0.5021
 9102SOL     OW28021   1.138   1.833   1.076  0.2818  0.2188 -0.7131
 9102SOL    HW128022   1.051   1.867   1.098  0.9522  1.1193  0.5770
 9102SOL    HW228023   1.147   1.753   1.129 -0.9947 -1.6410 -3.1918
 9103SOL     OW28024   3.262   1.200   2.669 -0.4233  0.0130  0.2806
 9103SOL    HW128025   3.243   1.273   2.610  2.0707 -0.4621 -1.1841
 9103SOL    HW228026   3.307   1.241   2.744  0.2490  0.0947 -0.1620
 9104SOL     OW28027   3.102   5.105   4.502 -0.0100  0.4809  0.7176
 9104SOL    HW128028   3.078   5.025   4.549  0.4415  0.7112  1.3562
 9104SOL    HW228029   3.020   5.154   4.495 -0.1439  0.2975  0.9830
 9105SOL     OW28030   0.342   5.396   1.185  0.4289 -0.1541  0.0165
 9105SOL    HW128031   0.357   5.358   1.271  0.8284  0.2491  0.1276
 9105SOL    HW228032   0.294   5.477   1.203  0.4012 -0.1339 -0.1482
 9106SOL     OW28033   3.110   6.494   3.337 -0.2003 -0.3370 -0.0836
 9106SOL    HW128034   3.042   6.546   3.379  1.5136  1.5651  0.3961
 9106SOL    HW228035   3.100   6.513   3.243 -1.3012 -1.2763 -0.1692
 9107SOL     OW28036   6.207   1.418   0.455 -0.7528 -0.8974 -0.4286
 9107SOL    HW128037   6.229   1.464   0.536  0.7570 -1.3271 -0.5844
 9107SOL    HW228038   6.194   1.327   0.482  1.4535 -1.3831 -0.9030
 9108SOL     OW28039   2.209   3.752   5.580 -0.0602  0.3041 -0.2498
 9108SOL    HW128040   2.224   3.715   5.667 -1.5634  1.3266  0.4746
 9108SOL    HW228041   2.266   3.702   5.522  1.7289  0.2771  1.4753
 9109SOL     OW28042   2.074   1.550   5.800 -0.5166  0.5838 -0.1158
 9109SOL    HW128043   2.078   1.484   5.870 -1.7213  0.6775  0.0504
 9109SOL    HW228044   2.067   1.633   5.846  1.0526  0.8524 -0.3281
 9110SOL     OW28045   6.314   3.754   2.117  0.3373  0.1254  0.4805
 9110SOL    HW128046   6.263   3.721   2.191  0.0081  1.9921  1.1175
 9110SOL    HW228047   6.261   3.826   2.082  1.1169  0.1131 -0.7463
 9111SOL     OW28048   0.779   3.128   5.801  0.1370  0.3453 -0.2151
 9111SOL    HW128049   0.692   3.108   5.766  0.4234 -0.5194 -0.4399
 9111SOL    HW228050   0.789   3.223   5.788 -1.2654  0.6636  0.9163
 9112SOL     OW28051   4.051   2.992   0.812 -0.5061  0.2324 -0.4145
 9112SOL    HW128052   4.130   2.945   0.840 -1.0740  0.1250  1.0341
 9112SOL    HW228053   4.042   3.064   0.875 -0.8480  1.0203 -1.3440
 9113SOL     OW28054   1.811   1.766   4.397  0.6546 -0.2126 -0.0566
 9113SOL    HW128055   1.732   1.807   4.433  0.7902  1.3029 -1.4115
 9113SOL    HW228056   1.868   1.840   4.375  1.6143 -1.2047 -0.9541
 9114SOL     OW28057   5.142   1.811   3.171  0.0918  0.2223  0.2141
 9114SOL    HW128058   5.049   1.831   3.180  0.0222  0.1713 -0.3695
 9114SOL    HW228059   5.147   1.716   3.181  0.3539  0.4272  2.4116
 9115SOL     OW28060   4.415   0.840   2.691  0.6747  0.6874 -0.0353
 9115SOL    HW128061   4.338   0.890   2.662 -1.5818 -1.7285  1.5704
 9115SOL    HW228062   4.434   0.781   2.618  0.7424  0.9790 -0.2555
 9116SOL     OW28063   6.499   4.695   3.074 -0.2767 -0.0358 -0.0563
 9116SOL    HW128064   6.408   4.695   3.044 -0.6791 -0.4750  1.1424
 9116SOL    HW228065   6.549   4.670   2.997 -1.2706 -0.8287 -0.4643
 9117SOL     OW28066   6.495   5.879   2.569  0.1376 -0.8227 -0.2785
 9117SOL    HW128067   6.440   5.955   2.589  1.5656 -0.3686  2.1493
 9117SOL    HW228068   6.563   5.914   2.512  0.3246 -0.4357  0.1716
 9118SOL     OW28069   0.063   1.767   2.964 -0.6012 -0.1154 -0.1018
 9118SOL    HW128070   0.095   1.704   2.900 -2.3592 -1.7507  0.5939
 9118SOL    HW228071   0.013   1.714   3.027 -0.4594  1.7015  1.5854
 9119SOL     OW28072   0.411   3.171   0.646  0.2508 -0.3437  0.2109
 9119SOL    HW128073   0.475   3.103   0.625  0.2177 -0.4113  0.3337
 9119SOL    HW228074   0.446   3.250   0.604 -0.1769 -0.6406 -0.7186
 9120SOL     OW28075   2.503   0.881   5.296 -0.2534  0.2035  0.0470
 9120SOL    HW128076   2.592   0.890   5.262  0.4179  0.7348  1.8562
 9120SOL    HW228077   2.507   0.804   5.354 -0.7502  0.7388  0.8009
 9121SOL     OW28078   5.603   2.898   4.448  0.5069  0.6319  0.2219
 9121SOL    HW128079   5.584   2.805   4.442  0.7788  0.5802  0.1517
 9121SOL    HW228080   5.534   2.941   4.397  0.7248  0.4320 -0.2442
 9122SOL     OW28081   5.946   3.367   0.364  0.2180  0.8175 -0.3966
 9122SOL    HW128082   6.034   3.384   0.330  0.6439 -0.9631 -0.2174
 9122SOL    HW228083   5.888   3.383   0.289  0.8460  0.3809 -0.9801
 9123SOL     OW28084   2.086   0.620   4.202 -0.0758 -0.3367 -0.0253
 9123SOL    HW128085   2.060   0.580   4.285 -0.2322  0.0126  0.0933
 9123SOL    HW228086   2.056   0.711   4.208  0.6993 -0.0681 -0.0980
 9124SOL     OW28087   5.519   3.995   3.839 -0.0319 -0.2328 -0.0848
 9124SOL    HW128088   5.583   4.058   3.806 -2.0260  0.0623 -3.6201
 9124SOL    HW228089   5.459   4.048   3.892 -1.7042  0.9377 -3.0380
 9125SOL     OW28090   0.042   1.200   2.188  0.0908 -0.1806 -0.4722
 9125SOL    HW128091   0.050   1.105   2.178 -0.1434 -0.1312 -1.1401
 9125SOL    HW228092   0.045   1.215   2.283 -1.9915 -1.0258 -0.2580
 9126SOL     OW28093   3.602   6.545   3.541  0.0786 -0.1413 -0.8002
 9126SOL    HW128094   3.512   6.513   3.537 -0.5009  1.6253 -2.1628
 9126SOL    HW228095   3.639   6.526   3.455  0.4271  0.7914 -0.8647
 9127SOL     OW28096   4.438   4.273   0.840 -0.0887  0.1363 -0.0363
 9127SOL    HW128097   4.520   4.323   0.832 -0.4145  0.9161  1.4134
 9127SOL    HW228098   4.465   4.190   0.879  0.0930  0.1411 -0.1485
 9128SOL     OW28099   3.615   3.848   3.917 -0.3520  0.1833 -0.4365
 9128SOL    HW128100   3.610   3.919   3.981 -0.4965  0.2308 -0.5004
 9128SOL    HW228101   3.581   3.886   3.836  1.0960  0.5387 -0.9033
 9129SOL     OW28102   1.213   4.947   2.057 -0.5409  0.4216 -0.4991
 9129SOL    HW128103   1.122   4.978   2.053  0.0659  2.1437 -1.0806
 9129SOL    HW228104   1.234   4.924   1.967 -0.8115 -1.2274 -0.1563
 9130SOL     OW28105   1.581   4.357   1.131 -0.0949 -0.1828  0.1086
 9130SOL    HW128106   1.648   4.381   1.194 -1.0003 -0.0322  1.0220
 9130SOL    HW228107   1.623   4.368   1.046  0.0907  2.8115  0.5556
 9131SOL     OW28108   0.106   0.811   3.433 -0.1730 -0.2691 -0.3608
 9131SOL    HW128109   0.133   0.823   3.342 -1.2751  0.9715 -0.5451
 9131SOL    HW228110   0.186   0.819   3.484  0.3243 -0.1595 -1.1631
 9132SOL     OW28111   4.287   3.666   4.627  0.3136 -0.1788  0.6039
 9132SOL    HW128112   4.192   3.656   4.624  0.2981  0.3789 -0.8812
 9132SOL    HW228113   4.317   3.638   4.541  1.4492  0.1787  0.8818
 9133SOL     OW28114   2.230   2.388   3.727  0.0937  0.5693  0.6889
 9133SOL    HW128115   2.188   2.305   3.708  0.1096  0.4730  1.0642
 9133SOL    HW228116   2.169   2.433   3.786 -0.5040  1.3599 -0.5120
 9134SOL     OW28117   2.041   5.571   2.276 -0.4922  0.3104  0.0676
 9134SOL    HW128118   2.072   5.641   2.335 -1.7455  0.7144  0.2682
 9134SOL    HW228119   1.952   5.553   2.306 -1.5432  1.2340 -2.3348
 9135SOL     OW28120   4.800   6.256   0.346  0.1723 -0.8004  0.3321
 9135SOL    HW128121   4.722   6.263   0.291  1.1754  0.3219 -0.9896
 9135SOL    HW228122   4.872   6.241   0.284  1.6680  2.8305  1.0424
 9136SOL     OW28123   4.809   6.205   2.769  0.2664  0.0165 -0.1833
 9136SOL    HW128124   4.727   6.213   2.720 -0.0400 -0.8690  0.1843
 9136SOL    HW228125   4.782   6.192   2.860  0.7744 -1.9300 -0.2942
 9137SOL     OW28126   0.385   0.216   3.848 -0.8076  0.1815 -0.0707
 9137SOL    HW128127   0.446   0.152   3.885 -0.6042  0.6842  0.4686
 9137SOL    HW228128   0.429   0.300   3.859 -0.9773  0.3888 -0.9937
 9138SOL     OW28129   5.978   4.496   3.554 -0.5659  0.2499  0.5477
 9138SOL    HW128130   5.963   4.491   3.648  2.8095  1.3928  1.2048
 9138SOL    HW228131   5.948   4.583   3.529 -1.7487 -0.1655  0.4761
 9139SOL     OW28132   5.547   6.117   2.190  0.4161 -0.1156 -0.5360
 9139SOL    HW128133   5.635   6.117   2.152  0.7779 -1.7308  0.2608
 9139SOL    HW228134   5.490   6.089   2.118  0.8975 -1.5880 -0.3646
 9140SOL     OW28135   4.272   5.231   1.875  0.0287  0.1267  0.0926
 9140SOL    HW128136   4.357   5.274   1.885 -0.6859  1.8345 -0.9972
 9140SOL    HW228137   4.265   5.213   1.781 -0.9468  0.3038  0.1272
 9141SOL     OW28138   4.835   3.461   5.995 -0.2740  0.0451 -0.4087
 9141SOL    HW128139   4.883   3.384   5.963 -0.4469 -0.5940  0.8524
 9141SOL    HW228140   4.787   3.429   6.072 -2.8665  0.6219 -1.7356
 9142SOL     OW28141   4.563   0.625   1.483  0.7543  0.1818 -0.0826
 9142SOL    HW128142   4.633   0.635   1.547  1.2340 -3.2380  0.0439
 9142SOL    HW228143   4.485   0.657   1.528  1.6915  1.1930  0.8711
 9143SOL     OW28144   2.637   0.046   4.908  0.2834  0.2105 -0.5787
 9143SOL    HW128145   2.664   0.137   4.899  0.7148 -0.0155 -1.6193
 9143SOL    HW228146   2.616   0.018   4.818 -0.2245 -0.5946 -0.2153
 9144SOL     OW28147   0.680   1.852   2.757  0.6637 -0.1848  0.0016
 9144SOL    HW128148   0.687   1.867   2.663 -0.1836  0.1454 -0.0107
 9144SOL    HW228149   0.711   1.934   2.796 -0.0927  0.1133 -0.0111
 9145SOL     OW28150   0.034   6.222   5.407  0.1603  0.2339 -0.2432
 9145SOL    HW128151   0.095   6.293   5.429 -1.7518  1.8370 -0.0001
 9145SOL    HW228152  -0.019   6.258   5.335 -2.2720 -0.1171  1.3263
 9146SOL     OW28153   3.797   6.338   5.298  0.4433 -0.1433  0.2464
 9146SOL    HW128154   3.716   6.380   5.269  1.0349  1.9378  1.5566
 9146SOL    HW228155   3.770   6.285   5.374  0.2339  0.1638  0.3863
 9147SOL     OW28156   0.672   1.306   3.411  0.1713  0.3482  0.4910
 9147SOL    HW128157   0.659   1.387   3.362 -2.2226 -0.8612 -0.9801
 9147SOL    HW228158   0.593   1.297   3.464 -0.1532 -1.6226 -0.2782
 9148SOL     OW28159   2.982   6.741   2.898  0.5118 -0.0908  0.6351
 9148SOL    HW128160   2.937   6.822   2.922 -0.9528 -0.8489  0.5043
 9148SOL    HW228161   3.041   6.767   2.827  1.0182  1.1134  1.4839
 9149SOL     OW28162   6.056   2.858   3.413  0.4391 -0.3711  0.3473
 9149SOL    HW128163   6.054   2.800   3.489 -1.0355  0.0251  0.6085
 9149SOL    HW228164   5.965   2.879   3.396  0.8835  0.8934 -0.5074
 9150SOL     OW28165   0.109   5.465   2.517  0.7511 -0.8570  0.3247
 9150SOL    HW128166   0.162   5.543   2.534 -0.0557 -0.2204  0.0007
 9150SOL    HW228167   0.019   5.499   2.512  0.4888 -1.6831 -0.6819
 9151SOL     OW28168   3.299   5.733   1.718  0.6240  0.1109  0.3669
 9151SOL    HW128169   3.393   5.753   1.721  0.2954  1.4209  2.4940
 9151SOL    HW228170   3.269   5.739   1.809 -1.3590 -1.1801 -0.1572
 9152SOL     OW28171   3.903   1.639   6.280 -0.1172 -0.2219  0.1220
 9152SOL    HW128172   3.938   1.567   6.228 -0.4488 -1.0682  1.0638
 9152SOL    HW228173   3.959   1.643   6.357 -0.5343  0.0739  0.4165
 9153SOL     OW28174   0.795   2.229   4.233  0.4209  0.0766  0.0509
 9153SOL    HW128175   0.837   2.314   4.218 -0.8626  1.0533  1.8469
 9153SOL    HW228176   0.746   2.213   4.153 -0.3787  1.6617  0.2076
 9154SOL     OW28177   3.733   2.105   3.351  0.6640  0.3922  0.1952
 9154SOL    HW128178   3.736   2.181   3.408  1.1192 -0.0851  0.8218
 9154SOL    HW228179   3.801   2.121   3.285 -2.2581  2.6060 -2.3863
 9155SOL     OW28180   0.943   3.583   3.570 -0.3610  0.1064 -0.0495
 9155SOL    HW128181   0.945   3.673   3.605  0.3376 -0.2374  0.8351
 9155SOL    HW228182   0.854   3.553   3.587  0.0973 -0.2252  1.9340
 9156SOL     OW28183   1.264   5.131   6.240 -0.0704  0.2731 -0.4621
 9156SOL    HW128184   1.237   5.040   6.249  0.9482  0.0420  0.4303
 9156SOL    HW228185   1.234   5.173   6.321 -3.1303  1.4329 -2.1300
 9157SOL     OW28186   6.450   5.940   3.763  0.2229 -0.2127 -0.0319
 9157SOL    HW128187   6.359   5.968   3.774 -0.1796 -0.8301 -1.7131
 9157SOL    HW228188   6.491   6.010   3.712  0.0095 -1.1921 -1.5572
 9158SOL     OW28189   1.609   4.408   3.750 -0.4249  0.1961  0.2063
 9158SOL    HW128190   1.524   4.449   3.769  0.3346  1.4880  0.9300
 9158SOL    HW228191   1.587   4.326   3.706 -2.0979 -0.3412  1.9770
 9159SOL     OW28192   5.581   4.557   1.366  0.1384 -0.1771  0.0983
 9159SOL    HW128193   5.487   4.577   1.364 -0.1315 -1.4366 -1.8814
 9159SOL    HW228194   5.605   4.549   1.273  1.9821 -0.8153  0.6182
 9160SOL     OW28195   0.027   5.882   0.760 -0.3414 -0.7453 -0.1459
 9160SOL    HW128196   0.051   5.931   0.682 -1.6432 -1.7908 -1.2215
 9160SOL    HW228197  -0.047   5.930   0.797  1.1635  0.5490  1.2632
 9161SOL     OW28198   5.532   2.438   0.434  0.1807 -0.2284  0.6617
 9161SOL    HW128199   5.562   2.413   0.521 -0.0429 -1.2947  0.4345
 9161SOL    HW228200   5.506   2.356   0.392 -3.1605  0.6224  0.8874
 9162SOL     OW28201   4.223   5.611   3.332  0.2029 -0.2507 -0.1236
 9162SOL    HW128202   4.143   5.559   3.341  0.2604 -0.5812 -1.4733
 9162SOL    HW228203   4.224   5.667   3.410 -0.8362 -0.9307  0.3874
 9163SOL     OW28204   2.134   3.275   4.792 -0.5694 -0.7504 -0.5124
 9163SOL    HW128205   2.172   3.189   4.774  2.2257  0.3471 -0.0209
 9163SOL    HW228206   2.127   3.317   4.706 -0.2923 -0.7805 -0.5488
 9164SOL     OW28207   5.455   6.000   1.556  0.1247  0.2523  0.3169
 9164SOL    HW128208   5.512   6.037   1.622  1.8437 -0.9781 -0.4428
 9164SOL    HW228209   5.391   6.069   1.538  0.7612  1.2781  1.8859
 9165SOL     OW28210   4.790   6.765   4.179 -0.4241  0.0062 -0.1507
 9165SOL    HW128211   4.812   6.735   4.267 -0.1321  0.2797 -0.1294
 9165SOL    HW228212   4.836   6.704   4.121  0.4784  0.6378 -0.1043
 9166SOL     OW28213   1.198   5.193   6.698  0.0766  0.3691  0.0004
 9166SOL    HW128214   1.166   5.257   6.761  0.1545 -1.3883  1.8817
 9166SOL    HW228215   1.289   5.177   6.724 -0.3247 -1.4379  0.3620
 9167SOL     OW28216   3.418   0.485   2.052  0.9324 -0.1226 -0.0342
 9167SOL    HW128217   3.429   0.433   2.131 -0.9609  1.6804  1.4926
 9167SOL    HW228218   3.328   0.469   2.025  1.1849  0.2260 -1.1136
 9168SOL     OW28219   0.956   3.262   2.364  0.3420  0.4040  0.2850
 9168SOL    HW128220   1.003   3.259   2.447  0.0329  2.2982  0.5383
 9168SOL    HW228221   0.939   3.355   2.349 -0.6020 -0.0131 -1.3343
 9169SOL     OW28222   3.823   6.450   6.709 -0.3784 -0.2760  0.3051
 9169SOL    HW128223   3.896   6.421   6.762  0.5687  0.0107 -0.8267
 9169SOL    HW228224   3.745   6.420   6.756  0.4463 -0.2141  1.7205
 9170SOL     OW28225   2.037   6.097   3.817 -0.3197 -0.1377  0.2400
 9170SOL    HW128226   2.088   6.104   3.897 -0.0860  1.9695 -0.0789
 9170SOL    HW228227   1.983   6.019   3.830  2.0322 -1.6902  1.0918
 9171SOL     OW28228   1.894   0.027   0.822 -0.1647  0.0874  0.7565
 9171SOL    HW128229   1.832   0.055   0.889 -0.0410  0.9370  0.5198
 9171SOL    HW228230   1.943   0.106   0.800 -0.6367 -0.0371 -0.7884
 9172SOL     OW28231   0.809   3.428   2.106 -0.7254  0.9023 -0.0824
 9172SOL    HW128232   0.865   3.354   2.082 -0.7085 -0.0263  2.6366
 9172SOL    HW228233   0.853   3.468   2.181 -1.6671  2.5700 -0.4083
 9173SOL     OW28234   1.012   2.916   6.466  0.2954  0.6378 -0.3805
 9173SOL    HW128235   0.953   2.866   6.523  0.8762 -0.5926 -0.8517
 9173SOL    HW228236   1.047   2.985   6.523  0.3682 -0.1827  0.5867
 9174SOL     OW28237   0.170   1.303   6.572  0.6821 -0.8671  0.7915
 9174SOL    HW128238   0.171   1.208   6.579 -0.2662 -0.8516  1.3267
 9174SOL    HW228239   0.190   1.322   6.481 -1.2134 -1.6584  0.1926
 9175SOL     OW28240   2.378   6.507   0.282 -0.3981 -0.0968  0.1992
 9175SOL    HW128241   2.459   6.538   0.242 -0.4949  0.0594  0.1244
 9175SOL    HW228242   2.309   6.535   0.222 -0.5167 -0.1392  0.3151
 9176SOL     OW28243   0.391   3.848   1.660  0.2868  0.2539  0.4599
 9176SOL    HW128244   0.439   3.838   1.578 -0.9048 -0.7545 -0.1425
 9176SOL    HW228245   0.378   3.758   1.691  0.5624  0.6220  1.6572
 9177SOL     OW28246   6.637   6.151   2.779 -0.3474 -0.9687 -0.1343
 9177SOL    HW128247   6.727   6.142   2.808 -0.2890  0.6201  0.1935
 9177SOL    HW228248   6.643   6.152   2.683  0.0454 -0.3246 -0.1077
 9178SOL     OW28249   3.666   2.218   0.930 -0.3706  0.1334  0.6856
 9178SOL    HW128250   3.622   2.270   0.863 -1.0681 -0.6802  0.4940
 9178SOL    HW228251   3.644   2.127   0.907  0.2841 -0.2074  1.3882
 9179SOL     OW28252   0.581   5.627   1.610  0.2909 -0.1453 -0.1895
 9179SOL    HW128253   0.530   5.707   1.599  0.1011 -0.2855 -0.3277
 9179SOL    HW228254   0.559   5.597   1.698  0.0632 -0.2562 -0.2839
 9180SOL     OW28255   5.064   5.984   2.573 -0.3008  0.0906 -0.4934
 9180SOL    HW128256   5.072   6.067   2.620 -3.7989 -0.0334  0.4282
 9180SOL    HW228257   4.988   5.941   2.611  0.2332 -2.6660 -2.3315
 9181SOL     OW28258   4.685   0.899   3.213  0.1850  0.0913  0.1155
 9181SOL    HW128259   4.778   0.904   3.235  0.1455  1.7076  0.0002
 9181SOL    HW228260   4.683   0.870   3.122  0.6633  2.2262 -0.5928
 9182SOL     OW28261   3.373   3.521   1.578  0.1030  0.0408  0.7998
 9182SOL    HW128262   3.467   3.515   1.559 -0.1220  1.1924 -0.7256
 9182SOL    HW228263   3.334   3.453   1.523 -0.3437  2.1280 -1.5709
 9183SOL     OW28264   2.937   0.504   6.642  0.0233  0.0697 -0.0719
 9183SOL    HW128265   2.929   0.598   6.659 -0.1389  0.1584 -0.6159
 9183SOL    HW228266   3.002   0.474   6.705  0.2810  0.6011 -0.0780
 9184SOL     OW28267   2.559   5.137   2.949 -0.0325  0.2776  0.6843
 9184SOL    HW128268   2.465   5.155   2.956 -0.2046 -0.2159 -0.3005
 9184SOL    HW228269   2.600   5.223   2.959 -0.6012  0.5250  0.9342
 9185SOL     OW28270   3.475   0.950   3.919 -0.3732 -0.3656 -0.3892
 9185SOL    HW128271   3.516   0.994   3.994 -0.3665 -2.4579  0.8655
 9185SOL    HW228272   3.383   0.945   3.943 -0.5920  0.1415 -1.1255
 9186SOL     OW28273   2.656   3.154   6.011 -0.2834  0.1852  0.0385
 9186SOL    HW128274   2.601   3.182   6.084 -0.3635  0.2733 -0.0558
 9186SOL    HW228275   2.632   3.062   5.997  1.5248 -0.6009  1.7747
 9187SOL     OW28276   1.674   2.637   5.590 -0.1265  0.2250 -0.1564
 9187SOL    HW128277   1.587   2.670   5.612  0.0507  0.6263 -0.0668
 9187SOL    HW228278   1.707   2.600   5.672  0.0981  0.7612 -0.0017
 9188SOL     OW28279   5.066   2.479   0.557 -0.1691  0.0794 -0.0769
 9188SOL    HW128280   5.132   2.465   0.625  0.4238  0.5610 -0.5442
 9188SOL    HW228281   4.990   2.428   0.586 -0.0756  0.6241  1.1597
 9189SOL     OW28282   0.793   6.655   1.913  0.5721 -0.3008  0.6844
 9189SOL    HW128283   0.855   6.646   1.840 -1.5464 -1.3663 -1.0374
 9189SOL    HW228284   0.818   6.587   1.975 -0.0160 -1.9662 -0.8764
 9190SOL     OW28285   4.526   6.605   1.205 -0.0579  0.5001 -0.4686
 9190SOL    HW128286   4.606   6.652   1.231 -0.1609  0.5577 -0.2549
 9190SOL    HW228287   4.512   6.632   1.114 -0.4479  1.3575 -0.1630
 9191SOL     OW28288   4.805   3.640   3.722  0.2993 -0.2345 -0.1160
 9191SOL    HW128289   4.721   3.595   3.723  0.4477 -0.5222  1.6639
 9191SOL    HW228290   4.784   3.730   3.697 -0.6075 -0.2086  0.6938
 9192SOL     OW28291   5.241   2.692   3.708  0.4271  0.0911  0.3334
 9192SOL    HW128292   5.207   2.719   3.793  0.2906  1.9937 -0.2990
 9192SOL    HW228293   5.212   2.760   3.647 -0.6517 -1.9321 -1.5123
 9193SOL     OW28294   4.223   6.760   5.798 -0.0883  0.1216  0.9483
 9193SOL    HW128295   4.251   6.670   5.782  0.1959  0.1839  1.0989
 9193SOL    HW228296   4.202   6.795   5.712  2.8747  0.9532  0.5161
 9194SOL     OW28297   3.975   3.946   1.845 -0.1784 -0.2813 -0.0431
 9194SOL    HW128298   3.954   3.860   1.883 -0.0853 -0.6486 -0.8154
 9194SOL    HW228299   3.898   4.000   1.864 -1.0151 -1.0562 -1.1206
 9195SOL     OW28300   5.235   6.001   2.355  0.6824  0.4365 -0.1668
 9195SOL    HW128301   5.193   6.067   2.300 -0.4340 -0.2626 -0.1746
 9195SOL    HW228302   5.182   5.998   2.435  0.6926 -0.4583 -0.1814
 9196SOL     OW28303   6.060   2.010   3.419  0.1030 -0.1416  0.1937
 9196SOL    HW128304   6.059   1.933   3.361  1.1134  0.5617 -0.7770
 9196SOL    HW228305   5.997   2.070   3.379 -1.9014 -1.0729  1.8452
 9197SOL     OW28306   5.904   3.782   3.626  0.0643 -0.4156 -0.5442
 9197SOL    HW128307   5.941   3.807   3.542  1.3155  0.4186  0.2380
 9197SOL    HW228308   5.980   3.754   3.678 -0.4344  1.0272  0.9852
 9198SOL     OW28309   3.877   1.085   6.420 -0.2789 -0.4057 -0.4652
 9198SOL    HW128310   3.783   1.092   6.439 -0.1659 -0.8507  0.2822
 9198SOL    HW228311   3.881   1.042   6.335 -0.7488 -0.9374 -0.2272
 9199SOL     OW28312   5.671   3.638   6.679 -0.3663  0.0597 -0.3756
 9199SOL    HW128313   5.691   3.721   6.635 -1.4796 -0.3299 -1.6119
 9199SOL    HW228314   5.638   3.665   6.765  2.4407  0.7979  0.5381
 9200SOL     OW28315   0.557   5.265   2.805  0.6747 -0.3160 -0.1304
 9200SOL    HW128316   0.465   5.237   2.799  0.2847  0.9624 -0.2898
 9200SOL    HW228317   0.577   5.259   2.899 -0.2617  1.4980  0.2065
 9201SOL     OW28318   1.124   0.856   3.831 -0.4146 -0.3587 -0.7910
 9201SOL    HW128319   1.178   0.805   3.892 -2.0547 -1.1503  0.0284
 9201SOL    HW228320   1.181   0.928   3.803 -0.3374  1.3652  3.4397
 9202SOL     OW28321   3.506   6.530   0.715 -0.0498  0.2005 -0.1501
 9202SOL    HW128322   3.591   6.517   0.757  0.0176  0.5269 -0.1825
 9202SOL    HW228323   3.442   6.524   0.787 -0.2293 -2.6344 -0.4989
 9203SOL     OW28324   3.490   1.635   3.746 -0.1225 -0.2226 -0.0143
 9203SOL    HW128325   3.505   1.678   3.830 -1.9714 -1.4104  0.9671
 9203SOL    HW228326   3.410   1.675   3.712  0.7245  0.4039 -1.3518
 9204SOL     OW28327   5.267   2.921   1.915 -0.0554 -0.4086  0.2132
 9204SOL    HW128328   5.335   2.951   1.856 -0.6337 -0.0903 -0.3018
 9204SOL    HW228329   5.264   2.826   1.902  0.1410 -0.3967  0.0826
 9205SOL     OW28330   3.594   5.715   1.877 -0.4820 -0.4200  0.2419
 9205SOL    HW128331   3.623   5.756   1.795  0.9297  0.5567  1.2144
 9205SOL    HW228332   3.652   5.639   1.887 -0.7439 -0.6166  0.2696
 9206SOL     OW28333   3.558   0.310   6.475  0.2724 -0.3448 -0.7309
 9206SOL    HW128334   3.638   0.338   6.519  0.2649 -1.9756  0.3512
 9206SOL    HW228335   3.586   0.289   6.385  1.0033 -0.6489 -0.4366
 9207SOL     OW28336   3.766   1.858   2.180 -0.3138  0.3662  0.1083
 9207SOL    HW128337   3.741   1.922   2.247 -1.8861  0.1615 -0.2726
 9207SOL    HW228338   3.788   1.779   2.231 -0.7570  0.4492  0.4356
 9208SOL     OW28339   5.414   1.210   0.927  0.2823  0.1586 -0.3072
 9208SOL    HW128340   5.440   1.119   0.913  2.0641  0.7325 -0.8338
 9208SOL    HW228341   5.483   1.247   0.982  0.6771  1.7450 -1.8358
 9209SOL     OW28342   1.732   2.826   6.755  0.1493 -0.2043 -0.3242
 9209SOL    HW128343   1.783   2.900   6.723  1.5294 -0.6814  0.7417
 9209SOL    HW228344   1.797   2.766   6.793 -1.1189 -1.1769  0.3552
 9210SOL     OW28345   3.862   4.737   6.577  0.0715 -0.0580  0.0928
 9210SOL    HW128346   3.826   4.675   6.514 -1.4699  1.2430 -0.3392
 9210SOL    HW228347   3.933   4.689   6.620 -0.5967 -1.8468 -0.7493
 9211SOL     OW28348   6.136   1.197   0.964  0.1072  0.3476  0.6141
 9211SOL    HW128349   6.136   1.259   0.891  2.2031 -2.8259 -2.2604
 9211SOL    HW228350   6.225   1.162   0.965 -0.3733 -0.9168  3.6808
 9212SOL     OW28351   4.365   4.526   2.122  0.1694  0.4228  0.0537
 9212SOL    HW128352   4.332   4.436   2.118  0.8097  0.1950 -0.0547
 9212SOL    HW228353   4.402   4.534   2.209 -1.6762  1.2081  0.7902
 9213SOL     OW28354   4.582   4.281   5.441 -0.1550  1.0903 -0.2248
 9213SOL    HW128355   4.540   4.300   5.357 -0.7844  1.6214  0.1969
 9213SOL    HW228356   4.547   4.348   5.500  1.8180  1.9639 -0.0261
 9214SOL     OW28357   6.101   4.556   2.386 -0.1031  0.1792  0.3807
 9214SOL    HW128358   6.083   4.609   2.463  0.6422  0.7099  0.2022
 9214SOL    HW228359   6.167   4.494   2.415  1.4695  1.5050 -0.2618
 9215SOL     OW28360   2.424   0.867   3.939 -0.3840 -0.0933 -0.1795
 9215SOL    HW128361   2.422   0.953   3.896 -0.0720  0.7697  1.4527
 9215SOL    HW228362   2.377   0.882   4.022 -0.9177 -1.6744 -0.1877
 9216SOL     OW28363   1.659   0.965   1.761  0.7592  0.1991  0.0232
 9216SOL    HW128364   1.615   1.023   1.823  2.2324  1.9524 -0.5266
 9216SOL    HW228365   1.693   0.893   1.815  1.8861  1.6093  1.2229
 9217SOL     OW28366   2.883   3.174   4.144  0.2449 -0.6482  0.3516
 9217SOL    HW128367   2.829   3.251   4.123  2.0916  0.3248 -0.9315
 9217SOL    HW228368   2.972   3.201   4.123  1.4672 -1.7417  3.8448
 9218SOL     OW28369   1.846   0.902   0.337 -0.0673 -0.0610  0.4640
 9218SOL    HW128370   1.927   0.952   0.346 -0.0815  0.1019 -0.2515
 9218SOL    HW228371   1.830   0.865   0.424  0.4687  0.3731  0.7474
 9219SOL     OW28372   0.621   6.682   2.588  0.2530 -0.1695 -0.2598
 9219SOL    HW128373   0.688   6.614   2.579 -0.9373 -1.1357 -2.2427
 9219SOL    HW228374   0.541   6.640   2.557 -0.4246  2.2569 -1.8933
 9220SOL     OW28375   5.623   3.217   0.327  0.2709 -0.0734 -0.2240
 9220SOL    HW128376   5.533   3.216   0.359  0.5337 -1.1201  0.5186
 9220SOL    HW228377   5.616   3.196   0.234 -0.1907 -0.9917  0.0132
 9221SOL     OW28378   2.609   0.111   3.176  0.1817  0.2162 -0.1496
 9221SOL    HW128379   2.547   0.067   3.234 -0.5640 -0.2046 -1.2318
 9221SOL    HW228380   2.667   0.159   3.234 -0.6330 -0.0842  0.9320
 9222SOL     OW28381   1.794   2.154   2.380 -0.5082  0.0271 -0.3080
 9222SOL    HW128382   1.857   2.225   2.394  0.7137 -0.9283 -0.8466
 9222SOL    HW228383   1.733   2.189   2.316  1.1472 -0.0201 -1.9588
 9223SOL     OW28384   0.337   4.434   2.416 -0.2025 -0.0100  0.3306
 9223SOL    HW128385   0.274   4.362   2.418 -0.5106  0.2618  0.4227
 9223SOL    HW228386   0.301   4.499   2.476  0.1498  0.1602  0.3587
 9224SOL     OW28387   4.037   5.851   5.794  0.2594 -0.4090 -0.3372
 9224SOL    HW128388   4.129   5.825   5.802  0.8621  1.8544  0.5289
 9224SOL    HW228389   4.006   5.858   5.884 -0.8524 -1.4258 -0.6294
 9225SOL     OW28390   2.066   6.192   5.390  0.3304  0.1514 -0.2408
 9225SOL    HW128391   2.141   6.201   5.449  0.1423  0.3171 -0.0287
 9225SOL    HW228392   2.082   6.257   5.322  0.6404 -0.1650 -0.4703
 9226SOL     OW28393   4.960   5.795   6.671  0.2450  0.0823  0.4007
 9226SOL    HW128394   5.014   5.723   6.704 -0.3703 -0.7463 -0.3790
 9226SOL    HW228395   4.956   5.780   6.576  0.1442  1.1647  0.2283
 9227SOL     OW28396   3.267   4.957   5.132 -0.1174 -0.0976  0.2540
 9227SOL    HW128397   3.231   4.880   5.087  0.3909 -0.5323  0.5851
 9227SOL    HW228398   3.345   4.924   5.177  0.0272  0.5854  0.5056
 9228SOL     OW28399   3.911   3.256   4.236 -0.8538  0.0728  0.3523
 9228SOL    HW128400   3.837   3.199   4.257 -1.5563  1.3756  1.4553
 9228SOL    HW228401   3.988   3.208   4.269 -1.3198 -0.7186  0.3115
 9229SOL     OW28402   5.310   4.524   6.398  0.5571  0.0448 -0.9894
 9229SOL    HW128403   5.272   4.449   6.352  0.6482  0.8914 -2.4850
 9229SOL    HW228404   5.235   4.579   6.419  0.6844  0.4872 -1.6729
 9230SOL     OW28405   3.770   6.554   1.093  0.4261  0.1914  0.6902
 9230SOL    HW128406   3.805   6.469   1.119  1.8020  0.3963 -0.4316
 9230SOL    HW228407   3.822   6.618   1.142  1.6637  0.4965 -0.9667
 9231SOL     OW28408   0.583   1.710   5.648 -0.1343 -0.5716  0.0008
 9231SOL    HW128409   0.548   1.677   5.565 -0.9211  0.9493 -0.2834
 9231SOL    HW228410   0.678   1.717   5.633 -0.3859  0.6645 -1.1213
 9232SOL     OW28411   0.514   1.020   5.967  0.6887 -0.1835 -0.0530
 9232SOL    HW128412   0.552   1.036   6.053 -0.5207 -1.4071  0.7215
 9232SOL    HW228413   0.589   1.000   5.910  1.4661  0.4403  0.7517
 9233SOL     OW28414   0.090   4.116   0.236  0.2521 -0.3998  0.4036
 9233SOL    HW128415   0.128   4.073   0.313 -2.0692  0.4873  2.1141
 9233SOL    HW228416   0.035   4.049   0.196 -2.7172  0.6448  2.5995
 9234SOL     OW28417   1.498   3.742   0.186 -0.3514  0.3935 -0.4265
 9234SOL    HW128418   1.417   3.709   0.225 -0.5269 -1.5605 -2.3504
 9234SOL    HW228419   1.469   3.797   0.113  0.0572  0.1493 -0.7701
 9235SOL     OW28420   5.350   5.500   5.445 -0.4418 -0.1275 -0.6557
 9235SOL    HW128421   5.372   5.543   5.529 -2.9679 -0.4751  0.2062
 9235SOL    HW228422   5.435   5.487   5.403  0.7636  1.4294  1.1762
 9236SOL     OW28423   3.416   1.501   4.239 -0.6246  0.6695 -0.5825
 9236SOL    HW128424   3.406   1.513   4.333  1.6967 -3.2286  0.2342
 9236SOL    HW228425   3.507   1.525   4.221 -0.1598 -1.5451 -1.2864
 9237SOL     OW28426   4.848   3.996   0.354 -0.0740 -0.0916  0.3657
 9237SOL    HW128427   4.804   3.947   0.284 -0.8836 -0.3352  1.0239
 9237SOL    HW228428   4.859   3.932   0.424  3.1126 -0.5348 -0.4968
 9238SOL     OW28429   4.874   0.283   2.899  0.0398  0.0832  0.0774
 9238SOL    HW128430   4.954   0.324   2.929 -0.1869  0.1228  0.6368
 9238SOL    HW228431   4.807   0.310   2.962 -0.6266  0.8501 -0.9315
 9239SOL     OW28432   1.036   4.676   3.655 -0.3030  0.7698  0.3444
 9239SOL    HW128433   1.057   4.583   3.645  1.5963  1.2983 -0.9106
 9239SOL    HW228434   0.949   4.686   3.616 -0.7041 -0.5410  0.8695
 9240SOL     OW28435   6.519   0.482   1.436 -0.0139  0.2953 -0.2418
 9240SOL    HW128436   6.460   0.432   1.380 -0.9342  1.4060 -0.2980
 9240SOL    HW228437   6.577   0.417   1.475 -2.9118 -1.1422  1.7946
 9241SOL     OW28438   4.343   0.499   0.940 -0.5133 -0.4324  0.2010
 9241SOL    HW128439   4.390   0.553   1.003 -1.6139  0.0302  0.6442
 9241SOL    HW228440   4.379   0.411   0.953  1.0722  0.1197 -0.3180
 9242SOL     OW28441   3.185   1.899   3.746  0.4554 -0.1094 -0.2290
 9242SOL    HW128442   3.133   1.927   3.822  0.2180  1.1949 -0.8520
 9242SOL    HW228443   3.274   1.926   3.767  0.4534 -0.0849 -0.2530
 9243SOL     OW28444   6.609   1.233   1.951 -0.0960  0.0640  0.3342
 9243SOL    HW128445   6.535   1.174   1.936 -1.8187  1.6707  2.3080
 9243SOL    HW228446   6.663   1.189   2.016  0.8953 -1.2615 -1.3498
 9244SOL     OW28447   3.639   6.478   4.727  0.0353 -0.7683  0.3238
 9244SOL    HW128448   3.650   6.474   4.822  0.8406  0.9329  0.3259
 9244SOL    HW228449   3.615   6.569   4.710 -0.1612 -1.0733 -1.1032
 9245SOL     OW28450   6.743   3.168   3.825 -0.4467  0.1362  0.2808
 9245SOL    HW128451   6.713   3.223   3.898 -1.2321  0.1840 -0.0715
 9245SOL    HW228452   6.820   3.213   3.791 -1.1128  1.0487 -0.0324
 9246SOL     OW28453   1.960   1.320   2.888  0.7335  0.4444  0.6326
 9246SOL    HW128454   1.972   1.387   2.820  0.8769  0.2617  0.4750
 9246SOL    HW228455   1.989   1.239   2.846 -0.4027  0.1067  0.4862
 9247SOL     OW28456   1.997   1.519   4.382 -0.1448 -0.0602  0.0429
 9247SOL    HW128457   1.959   1.603   4.407  0.9016  0.2564  0.5920
 9247SOL    HW228458   2.049   1.493   4.457  0.1001 -0.8655 -0.4013
 9248SOL     OW28459   5.376   6.319   3.224  0.2840  0.2535 -0.4150
 9248SOL    HW128460   5.312   6.391   3.230  0.6088  0.5958 -1.0321
 9248SOL    HW228461   5.461   6.363   3.220  0.4729 -0.1559 -0.9768
 9249SOL     OW28462   3.290   3.043   5.520  0.5018  0.2951 -0.4970
 9249SOL    HW128463   3.262   2.997   5.441  0.0193 -0.2189 -0.0370
 9249SOL    HW228464   3.301   2.973   5.585  0.0743  0.7998  0.1179
 9250SOL     OW28465   5.161   6.265   3.030  0.2619 -0.3293 -0.1718
 9250SOL    HW128466   5.244   6.310   3.018  0.3172 -0.2005  0.7179
 9250SOL    HW228467   5.118   6.310   3.102 -0.8009 -0.0863 -0.9369
 9251SOL     OW28468   3.981   2.104   3.623 -0.0186 -0.6463  0.3135
 9251SOL    HW128469   3.917   2.033   3.617  1.3243 -1.8409  0.0534
 9251SOL    HW228470   3.999   2.112   3.717 -1.0453  0.1619  0.4569
 9252SOL     OW28471   0.964   4.979   6.362 -0.0399 -0.3292  0.1122
 9252SOL    HW128472   1.057   4.984   6.382 -0.0496  2.9652 -0.2532
 9252SOL    HW228473   0.921   5.017   6.439 -0.8472  0.8711 -0.8967
 9253SOL     OW28474   0.600   3.026   6.245  0.0566 -0.3646 -0.0564
 9253SOL    HW128475   0.578   3.073   6.326  0.9426 -0.5830  0.3146
 9253SOL    HW228476   0.696   3.025   6.243  0.0406 -0.5310 -1.0160
 9254SOL     OW28477   1.473   1.050   6.086 -0.5019 -0.1966 -0.2732
 9254SOL    HW128478   1.566   1.033   6.093 -0.7435 -2.0323 -1.2926
 9254SOL    HW228479   1.448   1.085   6.172  0.8789 -0.8621  0.4057
 9255SOL     OW28480   4.789   2.698   4.862  0.4134 -0.0551  0.1923
 9255SOL    HW128481   4.721   2.733   4.919 -0.1258 -0.0712 -0.4281
 9255SOL    HW228482   4.856   2.766   4.858  0.4035 -0.0106  0.7499
 9256SOL     OW28483   5.312   5.913   5.094 -0.1279  0.4133  0.2461
 9256SOL    HW128484   5.375   5.958   5.152  1.3023  0.2128 -1.1242
 9256SOL    HW228485   5.278   5.842   5.147 -1.2269  2.1324  1.9242
 9257SOL     OW28486   6.106   4.945   6.091 -0.3369 -0.1527 -0.3387
 9257SOL    HW128487   6.131   4.961   6.182 -0.0762  1.9745 -0.7458
 9257SOL    HW228488   6.054   4.865   6.094 -0.5710  0.0391  1.7274
 9258SOL     OW28489   2.590   5.034   4.999 -0.5615  0.1188  0.0874
 9258SOL    HW128490   2.553   4.953   5.034 -0.4168 -0.1255 -0.3272
 9258SOL    HW228491   2.683   5.015   4.987 -0.8622 -0.2615 -1.7664
 9259SOL     OW28492   1.524   3.915   4.457 -0.2702 -0.1234  0.1831
 9259SOL    HW128493   1.618   3.934   4.454 -0.2971  0.1057  0.8001
 9259SOL    HW228494   1.501   3.897   4.366  0.1238  1.0057 -0.1526
 9260SOL     OW28495   2.872   1.899   0.958  0.5897  0.1115 -0.2042
 9260SOL    HW128496   2.896   1.894   1.050 -1.4833 -1.0688  0.3028
 9260SOL    HW228497   2.827   1.983   0.950 -0.1409 -0.2516  0.0856
 9261SOL     OW28498   1.027   0.410   3.953  0.3182  0.0381  0.0004
 9261SOL    HW128499   1.094   0.341   3.948 -1.2899 -1.6110  0.5407
 9261SOL    HW228500   1.076   0.489   3.976  2.4822 -0.4621 -2.6865
 9262SOL     OW28501   5.656   0.573   0.089  0.0322  0.5849 -0.3183
 9262SOL    HW128502   5.612   0.493   0.063 -0.9379  0.9983  0.0366
 9262SOL    HW228503   5.611   0.643   0.042  2.7667  0.6694 -2.9398
 9263SOL     OW28504   2.444   5.633   4.541  0.6170  0.7285 -0.0005
 9263SOL    HW128505   2.530   5.591   4.541  0.1974 -0.1523  0.4632
 9263SOL    HW228506   2.419   5.637   4.449  1.1498  0.9626 -0.1307
 9264SOL     OW28507   3.457   6.240   1.683  0.5174  0.0655  0.0097
 9264SOL    HW128508   3.361   6.234   1.686  0.5882 -0.7425  0.9385
 9264SOL    HW228509   3.485   6.211   1.770  1.6305 -0.1531 -0.4198
 9265SOL     OW28510   1.624   0.912   0.778 -0.0287  0.1960 -0.1917
 9265SOL    HW128511   1.539   0.956   0.780 -0.0114  0.1997  0.8279
 9265SOL    HW228512   1.647   0.908   0.685 -0.1666  2.0630 -0.3268
 9266SOL     OW28513   5.491   5.769   3.747 -0.4103 -0.7685 -0.3887
 9266SOL    HW128514   5.586   5.775   3.733 -0.2178  1.7350  1.5811
 9266SOL    HW228515   5.453   5.799   3.664  0.4632 -2.7749 -1.5645
 9267SOL     OW28516   0.688   2.755   6.125 -0.1315 -0.4620 -0.1681
 9267SOL    HW128517   0.647   2.841   6.114 -0.4708 -0.6390 -0.2827
 9267SOL    HW228518   0.776   2.766   6.088  0.5656  0.4262  1.6676
 9268SOL     OW28519   4.001   6.388   4.780  0.0539  0.5681 -0.0037
 9268SOL    HW128520   4.094   6.374   4.796  0.0258  0.2507 -0.1089
 9268SOL    HW228521   3.957   6.334   4.846 -0.0515  0.9416  0.2274
 9269SOL     OW28522   5.412   6.680   3.085 -0.3232  0.7297  0.2389
 9269SOL    HW128523   5.334   6.631   3.111  0.4419 -0.0533  1.0961
 9269SOL    HW228524   5.405   6.764   3.130 -1.1245  1.0152 -0.4151
 9270SOL     OW28525   3.688   1.687   2.596 -0.2503 -0.0501  0.2721
 9270SOL    HW128526   3.666   1.739   2.674 -0.5003  0.8199 -0.3671
 9270SOL    HW228527   3.619   1.621   2.592 -0.4244  0.1050  0.6065
 9271SOL     OW28528   6.707   2.232   1.641 -0.3792 -0.0206 -0.1301
 9271SOL    HW128529   6.678   2.147   1.608 -0.3697  0.2704 -0.8983
 9271SOL    HW228530   6.766   2.265   1.573  0.8034 -0.0632  0.8702
 9272SOL     OW28531   0.255   4.110   0.636 -0.1388  0.5692  0.0006
 9272SOL    HW128532   0.290   4.033   0.592 -0.7706 -0.0831  0.6426
 9272SOL    HW228533   0.268   4.094   0.729 -0.4110  1.1712  0.1491
 9273SOL     OW28534   4.364   6.606   0.850  0.3067  0.3190 -0.4072
 9273SOL    HW128535   4.426   6.543   0.814  2.3618  0.6006  2.4833
 9273SOL    HW228536   4.387   6.689   0.806  1.5275  0.2674  0.1093
 9274SOL     OW28537   6.289   4.433   1.398 -0.0154 -0.5833  0.3288
 9274SOL    HW128538   6.334   4.446   1.482 -0.8013  0.5296  0.6004
 9274SOL    HW228539   6.347   4.473   1.333 -0.5069  0.7115  0.6588
 9275SOL     OW28540   0.066   3.647   2.083  0.0276 -0.2428 -0.3675
 9275SOL    HW128541   0.010   3.686   2.150  1.3981 -1.0164  1.2409
 9275SOL    HW228542   0.118   3.719   2.050 -0.8567  0.1959 -0.8189
 9276SOL     OW28543   5.817   6.451   4.658  0.1589  0.4591  0.0248
 9276SOL    HW128544   5.815   6.530   4.604  0.7354  1.0103  0.8028
 9276SOL    HW228545   5.880   6.471   4.727  0.1402 -0.5987  0.3548
 9277SOL     OW28546   6.458   4.852   1.331  0.3550  0.4949 -0.1385
 9277SOL    HW128547   6.520   4.849   1.404  1.3029  0.7419 -0.9305
 9277SOL    HW228548   6.443   4.760   1.309  0.9758  0.4588 -0.4025
 9278SOL     OW28549   5.502   6.422   5.563 -0.1957 -0.0390  0.2517
 9278SOL    HW128550   5.469   6.384   5.482 -0.4359  0.2826  0.1984
 9278SOL    HW228551   5.521   6.513   5.541 -2.5007  0.6989  1.1492
 9279SOL     OW28552   3.521   0.881   0.930  0.3561  0.0812 -0.6187
 9279SOL    HW128553   3.558   0.808   0.879  0.8438  0.1735 -0.4011
 9279SOL    HW228554   3.597   0.922   0.972  0.0319  0.4322 -0.3691
 9280SOL     OW28555   0.638   5.627   5.776 -0.0327 -0.1277  0.0852
 9280SOL    HW128556   0.574   5.677   5.725  0.3633 -0.4356 -0.7242
 9280SOL    HW228557   0.599   5.540   5.784  0.4091 -0.3962 -0.6516
 9281SOL     OW28558   2.474   1.437   6.505  0.0506  0.2215 -0.2277
 9281SOL    HW128559   2.411   1.389   6.558  0.5946  1.5851  1.6942
 9281SOL    HW228560   2.428   1.516   6.478  0.8241  1.0947  0.9628
 9282SOL     OW28561   5.165   2.123   5.691  0.3009 -0.6107  0.1660
 9282SOL    HW128562   5.117   2.111   5.773  1.2909 -0.0356  0.8419
 9282SOL    HW228563   5.098   2.146   5.627 -0.3460  0.1286  1.0936
 9283SOL     OW28564   4.275   5.840   4.528 -0.2440 -0.2230 -0.1848
 9283SOL    HW128565   4.212   5.782   4.571 -0.0409  0.1968  0.6925
 9283SOL    HW228566   4.222   5.911   4.491 -0.5682 -1.3046 -1.8542
 9284SOL     OW28567   2.319   1.849   3.392 -0.0592 -0.1826  0.7225
 9284SOL    HW128568   2.299   1.773   3.446 -0.8395 -0.5473 -0.0577
 9284SOL    HW228569   2.237   1.868   3.347  1.2404 -1.5705 -2.3821
 9285SOL     OW28570   3.954   4.455   3.662  0.1846  0.2217  0.3616
 9285SOL    HW128571   4.019   4.419   3.722  2.0931  0.4868 -1.4867
 9285SOL    HW228572   3.963   4.550   3.670 -0.8901  0.2666  1.0632
 9286SOL     OW28573   4.416   4.251   5.960  0.0627  0.0853  0.1382
 9286SOL    HW128574   4.460   4.290   5.884 -0.9534  0.2790 -0.3527
 9286SOL    HW228575   4.401   4.160   5.935  0.6719 -0.1242  0.5214
 9287SOL     OW28576   5.534   4.347   4.711 -0.2248 -0.3219  0.6141
 9287SOL    HW128577   5.615   4.348   4.762 -1.2234 -0.5695  2.2435
 9287SOL    HW228578   5.550   4.409   4.640  1.6686 -0.9502  0.4687
 9288SOL     OW28579   1.399   3.630   0.518 -0.0467  0.4207  0.3362
 9288SOL    HW128580   1.305   3.615   0.510  0.1950 -1.4011  0.6326
 9288SOL    HW228581   1.413   3.716   0.479 -1.9170  0.9818  0.8518
 9289SOL     OW28582   4.225   3.164   1.287  0.2956  0.0483  0.4838
 9289SOL    HW128583   4.199   3.224   1.356 -0.3482 -1.1376  1.2997
 9289SOL    HW228584   4.181   3.082   1.309  0.5342 -0.5020 -1.0301
 9290SOL     OW28585   1.399   6.228   2.366 -0.2059 -0.4932 -0.2557
 9290SOL    HW128586   1.406   6.166   2.293  0.0004 -0.4214 -0.2952
 9290SOL    HW228587   1.482   6.221   2.412 -0.0984 -0.0870 -0.3850
 9291SOL     OW28588   0.951   6.149   4.641 -0.3910 -0.1323  0.0058
 9291SOL    HW128589   0.928   6.217   4.577 -1.2913 -1.0217 -0.6438
 9291SOL    HW228590   0.881   6.084   4.632  0.6621 -1.3208  0.3485
 9292SOL     OW28591   2.502   2.450   0.016  0.1996 -0.0557  0.3377
 9292SOL    HW128592   2.577   2.397   0.044  0.7275  1.2324  1.4002
 9292SOL    HW228593   2.434   2.430   0.080  0.2122  0.1345  0.4082
 9293SOL     OW28594   6.400   2.205   6.612 -0.1095 -0.2602  0.1792
 9293SOL    HW128595   6.334   2.181   6.547 -1.6752  0.5803  1.4245
 9293SOL    HW228596   6.429   2.292   6.586 -0.1296 -0.2660  0.1383
 9294SOL     OW28597   5.489   4.598   1.928 -0.2926  0.1465 -0.2787
 9294SOL    HW128598   5.408   4.635   1.892 -1.0145 -0.0339  1.1176
 9294SOL    HW228599   5.528   4.670   1.977 -1.1594 -0.5958  1.5584
 9295SOL     OW28600   3.395   6.056   2.044 -0.8023  0.1412  0.1503
 9295SOL    HW128601   3.299   6.056   2.045 -0.8033  0.2749  0.0750
 9295SOL    HW228602   3.419   5.964   2.055 -0.9050  0.3555  2.4717
 9296SOL     OW28603   1.698   5.229   5.818  0.1682  0.0520  0.0029
 9296SOL    HW128604   1.773   5.212   5.875  0.8278 -0.5721 -1.0264
 9296SOL    HW228605   1.679   5.322   5.830  0.9339  0.1540  0.4783
 9297SOL     OW28606   0.727   6.051   1.120  0.5088 -0.5103  0.0114
 9297SOL    HW128607   0.795   6.079   1.059  0.0267  2.6700  0.8342
 9297SOL    HW228608   0.645   6.071   1.075  0.1471 -0.2242  0.7861
 9298SOL     OW28609   5.836   6.565   3.957 -0.0287 -0.6600 -0.5326
 9298SOL    HW128610   5.869   6.620   3.885 -2.9626  0.3425 -1.1518
 9298SOL    HW228611   5.748   6.540   3.930 -0.1942 -2.4786  1.5600
 9299SOL     OW28612   1.004   4.421   1.454  0.0911  0.1085  0.5281
 9299SOL    HW128613   0.952   4.430   1.534 -1.4436 -0.7759 -0.3438
 9299SOL    HW228614   0.948   4.458   1.386  0.3979 -1.3403 -0.5136
 9300SOL     OW28615   2.231   5.233   1.741 -0.0890 -0.2088  0.3092
 9300SOL    HW128616   2.166   5.301   1.727  0.9604  0.8816  0.6804
 9300SOL    HW228617   2.302   5.276   1.789  0.5766 -1.5602  0.5679
 9301SOL     OW28618   2.683   1.322   3.769  0.0462  0.1027  0.2511
 9301SOL    HW128619   2.657   1.350   3.681 -1.9066 -1.2135  0.3930
 9301SOL    HW228620   2.732   1.241   3.754 -1.9870 -1.1989  0.4983
 9302SOL     OW28621   4.440   3.470   6.152 -0.3777  0.6042  0.4132
 9302SOL    HW128622   4.476   3.551   6.117 -2.0940  1.2533  0.0859
 9302SOL    HW228623   4.516   3.422   6.186  0.5899  2.6148  1.1725
 9303SOL     OW28624   5.217   1.023   1.518 -0.0400  0.0855 -0.0385
 9303SOL    HW128625   5.152   1.084   1.551 -1.2835 -0.1433 -1.9192
 9303SOL    HW228626   5.167   0.962   1.463  1.4227 -1.5301  0.3396
 9304SOL     OW28627   2.090   0.200   1.709 -0.4538 -0.2216 -0.4936
 9304SOL    HW128628   2.072   0.113   1.744 -2.1986  0.5745  0.7223
 9304SOL    HW228629   2.030   0.209   1.635 -0.7738  0.1673 -0.1962
 9305SOL     OW28630   2.426   2.969   4.058  0.0132  1.1061  0.4258
 9305SOL    HW128631   2.457   3.059   4.064  1.1436  0.7175  0.3594
 9305SOL    HW228632   2.480   2.929   3.991  1.2798 -0.3610  2.2894
 9306SOL     OW28633   3.389   4.858   2.566  0.4393  0.2795  0.3382
 9306SOL    HW128634   3.398   4.837   2.659  1.3333 -0.6399  0.0451
 9306SOL    HW228635   3.295   4.853   2.550  0.5458 -2.8457  0.4319
 9307SOL     OW28636   0.523   1.528   0.620  0.1037  0.3782 -0.0945
 9307SOL    HW128637   0.434   1.546   0.649 -0.1124 -0.3830 -0.2845
 9307SOL    HW228638   0.546   1.446   0.663  0.0541 -0.3779 -1.5023
 9308SOL     OW28639   5.909   6.358   3.432  0.1932 -0.4773 -0.0630
 9308SOL    HW128640   5.880   6.444   3.400  1.9732 -0.6924 -2.3703
 9308SOL    HW228641   5.892   6.361   3.526 -0.1285  2.2711 -0.1587
 9309SOL     OW28642   3.251   5.148   2.342  0.0712  0.2990  0.2112
 9309SOL    HW128643   3.185   5.093   2.301  1.2595 -0.3293 -0.9001
 9309SOL    HW228644   3.300   5.185   2.269  0.8110  0.9498  1.0176
 9310SOL     OW28645   0.930   4.613   6.651 -0.3017  0.1615  0.8267
 9310SOL    HW128646   0.951   4.561   6.574 -1.5607  2.9909 -1.5514
 9310SOL    HW228647   0.843   4.582   6.678 -1.3201  1.3471 -0.9454
 9311SOL     OW28648   5.877   3.974   2.245 -0.0407  0.3005  0.0426
 9311SOL    HW128649   5.813   3.958   2.175  0.4510 -3.1501  0.2879
 9311SOL    HW228650   5.836   4.040   2.300 -2.1215  0.2872 -1.4282
 9312SOL     OW28651   0.926   5.137   4.680 -0.2733 -0.4504  0.3077
 9312SOL    HW128652   0.961   5.081   4.749 -1.5805 -0.4897  0.9615
 9312SOL    HW228653   0.889   5.212   4.726 -0.8802 -0.3262 -0.3691
 9313SOL     OW28654   4.224   0.984   1.894  0.0777 -0.8039 -0.4024
 9313SOL    HW128655   4.139   0.949   1.920  0.0481  0.3162  1.0401
 9313SOL    HW228656   4.287   0.916   1.921 -0.1873 -0.7820  0.2846
 9314SOL     OW28657   2.463   0.039   5.323 -0.2228  0.0200 -0.3213
 9314SOL    HW128658   2.489  -0.049   5.347 -1.1288 -0.6635 -1.7972
 9314SOL    HW228659   2.371   0.046   5.350 -0.2749  0.3618 -0.5689
 9315SOL     OW28660   4.389   4.390   5.624 -0.3315  0.0368 -0.5342
 9315SOL    HW128661   4.452   4.363   5.690 -1.9686 -2.7978 -0.0593
 9315SOL    HW228662   4.334   4.455   5.667  1.8151  2.1017 -0.7791
 9316SOL     OW28663   3.077   3.762   5.752 -0.3863 -0.5584 -0.4374
 9316SOL    HW128664   3.144   3.757   5.820 -0.6045 -1.8079 -0.3099
 9316SOL    HW228665   2.997   3.734   5.796 -0.6030 -0.9812 -1.1044
 9317SOL     OW28666   4.696   2.681   0.371  0.4177  0.7436 -0.0920
 9317SOL    HW128667   4.669   2.596   0.337 -1.6101  0.1131  2.8145
 9317SOL    HW228668   4.783   2.666   0.408  0.2261 -0.0069  0.0696
 9318SOL     OW28669   2.914   5.580   3.887 -0.2150 -0.4770 -0.3070
 9318SOL    HW128670   2.983   5.645   3.903  0.5346 -1.0966 -0.9281
 9318SOL    HW228671   2.932   5.548   3.798 -2.5986  0.8915 -1.3228
 9319SOL     OW28672   6.252   0.465   2.794 -0.0209  0.4219  0.1481
 9319SOL    HW128673   6.166   0.446   2.831 -0.7904 -0.6743 -2.1300
 9319SOL    HW228674   6.287   0.379   2.769  0.8192  1.0481 -0.8905
 9320SOL     OW28675   6.295   2.871   5.610 -0.3424  0.2128  0.0490
 9320SOL    HW128676   6.348   2.793   5.628 -0.1571  0.2693 -0.2568
 9320SOL    HW228677   6.320   2.898   5.522 -3.1077 -1.5364 -1.3291
 9321SOL     OW28678   3.526   4.281   1.890 -0.0046 -0.1953  0.8791
 9321SOL    HW128679   3.472   4.251   1.963 -1.4097  1.0324  0.3622
 9321SOL    HW228680   3.519   4.376   1.892  3.0664  0.0545  1.4770
 9322SOL     OW28681   0.519   2.625   5.873 -0.1081 -0.2509  0.1053
 9322SOL    HW128682   0.553   2.658   5.956 -1.0624  0.6992  0.1198
 9322SOL    HW228683   0.459   2.555   5.898  1.4255 -1.6015  0.0994
 9323SOL     OW28684   5.617   4.356   2.021 -0.1684 -0.6135 -0.3011
 9323SOL    HW128685   5.557   4.286   1.995 -0.3490 -0.5500 -0.0609
 9323SOL    HW228686   5.579   4.435   1.984  0.3441 -0.7188 -1.0620
 9324SOL     OW28687   1.908   6.063   6.466  0.6415 -0.3113  0.5082
 9324SOL    HW128688   1.914   6.073   6.561 -0.2322  2.2122  0.3313
 9324SOL    HW228689   1.815   6.055   6.448  0.6495  1.1758 -0.2918
 9325SOL     OW28690   6.333   4.495   5.272  0.4058  0.3237 -0.2846
 9325SOL    HW128691   6.339   4.404   5.299 -0.5685  0.4748  0.4943
 9325SOL    HW228692   6.388   4.543   5.334  0.2493  0.3630 -0.1760
 9326SOL     OW28693   1.640   0.606   0.252 -0.5098 -0.6676  0.1486
 9326SOL    HW128694   1.637   0.665   0.328  0.7638  1.0133 -1.0535
 9326SOL    HW228695   1.720   0.555   0.265 -0.2246 -0.2914 -0.1183
 9327SOL     OW28696   5.626   5.774   6.015 -0.2017  0.0797 -0.3875
 9327SOL    HW128697   5.643   5.716   6.089  2.0464 -0.5777 -1.3625
 9327SOL    HW228698   5.558   5.729   5.964 -1.8099  0.5766  1.2837
 9328SOL     OW28699   4.616   0.785   2.225 -0.3463  0.2132 -0.3240
 9328SOL    HW128700   4.628   0.843   2.150  0.8969  1.5226  0.8606
 9328SOL    HW228701   4.592   0.843   2.297 -0.7662 -0.9431  0.4902
 9329SOL     OW28702   0.723   2.864   5.134 -0.2706 -0.1546  0.5398
 9329SOL    HW128703   0.718   2.770   5.153 -1.3375 -0.3745 -0.7406
 9329SOL    HW228704   0.710   2.906   5.219  0.1704 -1.1640  1.1175
 9330SOL     OW28705   3.788   0.290   5.238 -0.2634  0.4631  0.2113
 9330SOL    HW128706   3.696   0.291   5.263 -0.2073 -1.5491  0.5804
 9330SOL    HW228707   3.789   0.251   5.150  0.1877  1.0245 -0.0392
 9331SOL     OW28708   0.241   3.994   3.025  0.3499 -0.4710 -0.1175
 9331SOL    HW128709   0.303   4.013   2.955  0.4087 -0.3160 -0.0258
 9331SOL    HW228710   0.163   4.045   3.002  0.2183 -0.7534 -0.2901
 9332SOL     OW28711   4.546   4.432   4.695  0.2307 -0.4146  0.4608
 9332SOL    HW128712   4.472   4.473   4.741 -0.3998 -0.5762 -0.3952
 9332SOL    HW228713   4.591   4.381   4.762  0.5651  1.0455  1.3777
 9333SOL     OW28714   3.952   0.377   3.849  0.1198 -0.1912  0.0869
 9333SOL    HW128715   3.870   0.409   3.886 -0.3707 -0.7464 -0.4939
 9333SOL    HW228716   3.999   0.339   3.923  0.0743  0.5712  0.5109
 9334SOL     OW28717   5.533   2.104   0.944  0.5304  0.3986 -0.5488
 9334SOL    HW128718   5.547   2.187   0.989  0.5051  0.2352 -0.2403
 9334SOL    HW228719   5.443   2.107   0.914 -0.0702 -0.2985  1.0951
 9335SOL     OW28720   5.422   4.717   5.222 -0.1371  0.4136 -0.1556
 9335SOL    HW128721   5.391   4.666   5.147  0.4954 -0.4609  0.1692
 9335SOL    HW228722   5.486   4.778   5.186  0.6563 -0.4571 -0.2331
 9336SOL     OW28723   0.212   5.934   3.106 -0.0440 -0.5447  0.7410
 9336SOL    HW128724   0.283   5.987   3.142  0.5981 -0.5017 -0.5510
 9336SOL    HW228725   0.168   5.898   3.183 -0.2158  1.4934  1.6086
 9337SOL     OW28726   6.038   0.152   4.381 -0.5082 -0.5030 -0.1080
 9337SOL    HW128727   6.113   0.207   4.403 -1.4187  1.4455 -1.7838
 9337SOL    HW228728   6.024   0.166   4.287 -2.7358 -1.1551  0.1009
 9338SOL     OW28729   3.303   3.787   0.626  0.1268 -0.2809  0.1782
 9338SOL    HW128730   3.267   3.828   0.547 -0.9527 -0.9358  0.3118
 9338SOL    HW228731   3.365   3.721   0.593 -1.2532 -1.4292 -0.1891
 9339SOL     OW28732   4.805   4.542   3.837  0.6860 -0.9109 -0.1624
 9339SOL    HW128733   4.874   4.547   3.904  0.2712  1.1760  0.1344
 9339SOL    HW228734   4.851   4.554   3.754  0.7501  0.0455  0.0068
 9340SOL     OW28735   2.727   3.703   3.632  0.3174 -0.2498 -0.2165
 9340SOL    HW128736   2.684   3.769   3.578 -1.3061  1.2106  2.8030
 9340SOL    HW228737   2.810   3.743   3.658  1.8636 -1.5684 -2.7849
 9341SOL     OW28738   4.173   5.559   5.088 -0.3153 -0.0482 -0.1041
 9341SOL    HW128739   4.195   5.622   5.157 -1.2367 -0.7291  0.8128
 9341SOL    HW228740   4.168   5.613   5.008  0.6241  0.7578  0.3627
 9342SOL     OW28741   6.256   0.987   5.450  0.0347 -0.2746  0.3271
 9342SOL    HW128742   6.253   0.966   5.543  0.3978  2.4871  1.0025
 9342SOL    HW228743   6.318   0.925   5.413 -0.1536 -1.4323  1.9079
 9343SOL     OW28744   3.014   5.605   5.161 -0.0523 -0.2159  0.2710
 9343SOL    HW128745   3.043   5.696   5.146  0.1513 -0.6487 -2.1757
 9343SOL    HW228746   3.033   5.589   5.253  1.5208  1.6791  0.3176
 9344SOL     OW28747   0.863   1.758   6.620 -0.3910 -0.1194  0.5079
 9344SOL    HW128748   0.843   1.818   6.692  0.3511  0.8485 -0.0898
 9344SOL    HW228749   0.932   1.701   6.655  0.8085  1.1076  0.1765
 9345SOL     OW28750   1.979   0.300   2.572 -0.1471 -0.3141 -0.4470
 9345SOL    HW128751   2.019   0.266   2.492  0.9323 -0.0733 -0.0217
 9345SOL    HW228752   2.048   0.291   2.638 -0.9772 -0.3713  0.4193
 9346SOL     OW28753   2.427   3.142   5.817 -0.0730 -0.0700  0.3116
 9346SOL    HW128754   2.452   3.051   5.829 -0.8736 -0.3365  0.0246
 9346SOL    HW228755   2.426   3.178   5.906  1.8627  0.1091  0.2642
 9347SOL     OW28756   4.348   6.222   0.959  0.4426  0.0097 -0.8181
 9347SOL    HW128757   4.283   6.199   0.892  0.2952 -1.1502 -0.2966
 9347SOL    HW228758   4.406   6.284   0.915  0.1515 -0.4776 -1.9297
 9348SOL     OW28759   2.414   5.869   3.021  0.0741  0.4710 -0.1735
 9348SOL    HW128760   2.409   5.854   2.927 -4.0451 -0.5139  0.1160
 9348SOL    HW228761   2.375   5.955   3.034 -1.1725 -0.2234  0.7824
 9349SOL     OW28762   1.681   1.926   5.981  0.1458 -0.1604 -0.6636
 9349SOL    HW128763   1.676   1.886   5.894 -1.5126 -1.7907  0.1507
 9349SOL    HW228764   1.591   1.926   6.013  0.4606  2.0590  0.3600
 9350SOL     OW28765   0.987   3.935   2.596 -0.3676 -0.1926  0.8385
 9350SOL    HW128766   1.006   4.028   2.586 -0.8671 -0.2389 -0.8292
 9350SOL    HW228767   1.072   3.892   2.585 -0.3309  0.0051  0.3032
 9351SOL     OW28768   4.240   6.340   5.086 -0.2163 -0.1805 -0.3706
 9351SOL    HW128769   4.273   6.252   5.072 -1.3019 -0.6798  0.1231
 9351SOL    HW228770   4.260   6.359   5.178 -0.0179  0.0760 -0.4657
 9352SOL     OW28771   1.775   0.748   0.562 -0.5390 -0.6491  0.1004
 9352SOL    HW128772   1.854   0.776   0.607 -0.6806  0.4434 -0.3147
 9352SOL    HW228773   1.775   0.652   0.569  0.4899 -0.6077  0.6331
 9353SOL     OW28774   1.983   1.879   1.119 -0.1303 -0.6191 -0.5305
 9353SOL    HW128775   1.985   1.864   1.213  2.7696 -0.0579 -0.4398
 9353SOL    HW228776   1.891   1.893   1.098 -0.7289 -0.0504  2.3209
 9354SOL     OW28777   2.543   0.920   6.570 -0.0631 -0.0629 -0.3250
 9354SOL    HW128778   2.457   0.930   6.530 -0.0960  0.6215 -0.0869
 9354SOL    HW228779   2.525   0.898   6.661  0.0099  0.7834 -0.1016
 9355SOL     OW28780   0.317   0.414   2.532 -0.3001 -0.3782 -0.1370
 9355SOL    HW128781   0.346   0.485   2.476  0.5988 -1.5838 -1.2322
 9355SOL    HW228782   0.221   0.414   2.523 -0.2853  0.5464 -0.2953
 9356SOL     OW28783   3.296   2.078   1.718  0.0524 -0.0147  0.0273
 9356SOL    HW128784   3.229   2.016   1.691 -0.7527  0.7342  0.2996
 9356SOL    HW228785   3.364   2.023   1.759 -0.3272 -0.7816 -0.3595
 9357SOL     OW28786   4.849   3.368   0.200 -0.1572  0.3948  0.1146
 9357SOL    HW128787   4.822   3.330   0.116 -1.2156  0.1528  0.5575
 9357SOL    HW228788   4.810   3.311   0.266  2.1465 -0.4403  0.7997
 9358SOL     OW28789   3.217   5.455   4.726  0.0281  0.6954  0.2397
 9358SOL    HW128790   3.122   5.464   4.715  0.1587  1.6762 -0.1513
 9358SOL    HW228791   3.248   5.420   4.642  0.3174  2.7542 -0.5260
 9359SOL     OW28792   5.261   4.323   4.748 -0.2531 -0.3166 -0.1304
 9359SOL    HW128793   5.220   4.264   4.685 -0.6469  0.4044 -0.5625
 9359SOL    HW228794   5.338   4.357   4.703 -0.0970 -0.4060  0.0693
 9360SOL     OW28795   5.087   1.505   5.797  0.0675 -0.4423  0.0086
 9360SOL    HW128796   5.035   1.519   5.877  0.6927 -2.0393  0.7238
 9360SOL    HW228797   5.142   1.584   5.790 -1.0187  0.3590  0.3444
 9361SOL     OW28798   3.417   1.062   6.183  0.5054 -0.3978 -0.2025
 9361SOL    HW128799   3.444   1.125   6.116  2.4705 -1.9052 -0.8836
 9361SOL    HW228800   3.326   1.041   6.162  0.1034  1.5278 -0.4800
 9362SOL     OW28801   0.544   4.734   2.605 -0.6269 -0.1174  0.0622
 9362SOL    HW128802   0.475   4.706   2.664 -0.7949 -3.8903 -1.7497
 9362SOL    HW228803   0.609   4.664   2.609  1.8483  2.0791 -0.2987
 9363SOL     OW28804   5.936   6.197   6.447  0.1850  0.3427  0.3128
 9363SOL    HW128805   5.921   6.258   6.519 -0.7822  0.8934 -0.3508
 9363SOL    HW228806   5.950   6.112   6.490 -1.8595  0.3793  1.1039
 9364SOL     OW28807   3.025   2.922   2.251  0.0474 -0.1600 -0.4109
 9364SOL    HW128808   2.994   3.011   2.231  1.3118  0.5639  0.7391
 9364SOL    HW228809   3.054   2.887   2.167 -0.7863  0.3836 -0.9323
 9365SOL     OW28810   6.158   1.311   4.963  0.4242  0.2127 -0.5444
 9365SOL    HW128811   6.072   1.317   4.922  0.0593 -1.7242 -0.1117
 9365SOL    HW228812   6.214   1.366   4.908 -0.8558  0.6631 -1.4375
 9366SOL     OW28813   2.115   4.315   5.877 -0.3220 -0.1351 -0.3327
 9366SOL    HW128814   2.116   4.286   5.786 -3.3607 -0.5799 -0.2899
 9366SOL    HW228815   2.066   4.397   5.875 -0.0006  0.0958  0.8486
 9367SOL     OW28816   4.822   0.284   4.264 -0.2230  0.1901  0.3810
 9367SOL    HW128817   4.815   0.199   4.220  0.1042  0.2808  0.1537
 9367SOL    HW228818   4.732   0.306   4.288 -0.4818  0.4433 -0.8024
 9368SOL     OW28819   1.794   3.918   4.587  0.0227 -0.2451 -0.4351
 9368SOL    HW128820   1.875   3.970   4.587 -0.2481  0.2056  0.6827
 9368SOL    HW228821   1.822   3.831   4.616  0.0201  0.0781  0.5671
 9369SOL     OW28822   2.904   6.085   3.987 -0.2345  0.2254  0.1983
 9369SOL    HW128823   2.817   6.109   3.955 -0.1495 -0.1712 -0.3239
 9369SOL    HW228824   2.962   6.099   3.912 -0.2469 -2.0548 -0.2673
 9370SOL     OW28825   6.457   0.588   3.443 -0.7686 -0.2241 -0.1872
 9370SOL    HW128826   6.500   0.672   3.428  0.1852 -0.6282  0.2645
 9370SOL    HW228827   6.369   0.612   3.475 -0.0950  0.6063  1.1013
 9371SOL     OW28828   4.982   5.575   0.423  0.1945  0.1771 -0.2985
 9371SOL    HW128829   4.946   5.488   0.403 -1.4552  1.1185 -1.6250
 9371SOL    HW228830   4.916   5.616   0.479  0.9102  0.6021  0.2336
 9372SOL     OW28831   2.904   5.623   5.718  0.1108 -0.3401  0.4995
 9372SOL    HW128832   2.900   5.533   5.684 -0.4079 -0.3301  0.5208
 9372SOL    HW228833   2.961   5.618   5.794  0.4773 -0.5578  0.2112
 9373SOL     OW28834   6.040   5.904   1.730 -0.4197  0.3657 -0.2505
 9373SOL    HW128835   5.988   5.835   1.689 -0.5885 -1.3620  2.6715
 9373SOL    HW228836   5.976   5.970   1.756 -0.5378  0.5967 -1.1331
 9374SOL     OW28837   4.184   4.929   1.206 -0.4821  0.0558 -0.3483
 9374SOL    HW128838   4.126   4.863   1.167  1.0327 -0.4826 -1.7056
 9374SOL    HW228839   4.188   4.999   1.141 -1.0796  0.9462  0.5567
 9375SOL     OW28840   1.405   0.719   2.145  0.1214 -0.1396  0.1948
 9375SOL    HW128841   1.367   0.807   2.152  1.0223  0.2385  0.3609
 9375SOL    HW228842   1.411   0.689   2.236 -1.6295 -1.0052  0.0511
 9376SOL     OW28843   3.886   6.352   5.977 -0.5017  0.1781  0.4243
 9376SOL    HW128844   3.870   6.426   6.036 -2.2660  0.1932 -0.0519
 9376SOL    HW228845   3.975   6.368   5.943 -0.3494  1.3677  1.3295
 9377SOL     OW28846   3.731   2.868   4.606 -0.0992 -0.4600 -0.2449
 9377SOL    HW128847   3.818   2.836   4.581  0.3816  0.3207  0.3966
 9377SOL    HW228848   3.708   2.819   4.685 -0.5458 -1.1562 -0.8013
 9378SOL     OW28849   6.616   1.197   1.136 -0.2043  0.0417  0.1254
 9378SOL    HW128850   6.673   1.156   1.202 -0.7545  0.4791  0.8745
 9378SOL    HW228851   6.574   1.269   1.182 -0.3666  0.5433 -0.7951
 9379SOL     OW28852   1.102   1.834   6.504 -0.2036 -0.4257 -0.2715
 9379SOL    HW128853   1.018   1.831   6.548  0.2025 -2.2999  0.4167
 9379SOL    HW228854   1.142   1.916   6.534 -1.3318 -0.0512  0.2202
 9380SOL     OW28855   3.424   1.212   0.130 -0.1789  0.9130  0.0793
 9380SOL    HW128856   3.434   1.306   0.143  1.5379  0.7700 -0.1048
 9380SOL    HW228857   3.384   1.204   0.043  1.2814  1.4251 -0.6538
 9381SOL     OW28858   0.192   3.405   5.245 -0.1316 -0.7268 -0.7104
 9381SOL    HW128859   0.107   3.430   5.283  0.1373 -1.0764  0.1312
 9381SOL    HW228860   0.184   3.311   5.228  0.3553 -0.9240  0.1046
 9382SOL     OW28861   6.128   3.607   5.408 -0.9223 -0.2198 -0.0058
 9382SOL    HW128862   6.167   3.624   5.494  0.2270  0.2455 -0.6077
 9382SOL    HW228863   6.142   3.688   5.359 -2.3846 -0.1616 -0.3464
 9383SOL     OW28864   4.539   5.205   2.573 -0.1325  0.1898 -0.1609
 9383SOL    HW128865   4.485   5.240   2.503  0.5947  2.7937  0.5320
 9383SOL    HW228866   4.626   5.197   2.535  0.2908  1.7253  0.4648
 9384SOL     OW28867   6.734   5.656   0.491 -0.3880  0.3179 -0.4466
 9384SOL    HW128868   6.813   5.703   0.461  0.3132 -0.0911  0.7137
 9384SOL    HW228869   6.762   5.565   0.499 -0.9706  0.1810  0.0385
 9385SOL     OW28870   3.967   0.919   1.520  0.0025 -0.2270 -0.1096
 9385SOL    HW128871   3.982   0.996   1.575 -1.7242 -0.4765  0.7427
 9385SOL    HW228872   4.040   0.919   1.458  1.5326  0.5059  1.6692
 9386SOL     OW28873   2.950   4.132   4.890  0.5566 -0.1427 -0.1177
 9386SOL    HW128874   3.016   4.102   4.953  1.0154 -1.4357 -1.1842
 9386SOL    HW228875   2.890   4.185   4.941  2.2709  0.8344  0.9403
 9387SOL     OW28876   2.665   5.656   6.476  0.6806  0.0418  0.3895
 9387SOL    HW128877   2.625   5.743   6.476  2.0656  0.6994 -0.2278
 9387SOL    HW228878   2.602   5.600   6.431  1.1870  1.4199 -2.1110
 9388SOL     OW28879   4.973   0.353   0.622  0.5101  0.0386 -0.0853
 9388SOL    HW128880   5.069   0.349   0.618  0.7169 -0.8920  3.9277
 9388SOL    HW228881   4.944   0.285   0.560  2.4841 -0.6747 -0.2741
 9389SOL     OW28882   6.470   2.344   2.853  0.0622 -0.3791  0.5682
 9389SOL    HW128883   6.385   2.374   2.820  0.3844  0.0528  0.1081
 9389SOL    HW228884   6.451   2.303   2.937 -0.2715  2.2835  1.8609
 9390SOL     OW28885   5.478   0.709   4.923 -0.0843  0.3337 -0.1405
 9390SOL    HW128886   5.449   0.652   4.852 -1.3050  1.4597 -0.5777
 9390SOL    HW228887   5.521   0.782   4.879 -1.0493  1.1511  0.2370
 9391SOL     OW28888   3.118   3.242   4.064 -0.2301 -0.6057  0.0922
 9391SOL    HW128889   3.127   3.256   3.969  0.2059  0.8422  0.3233
 9391SOL    HW228890   3.184   3.176   4.085 -0.7222 -1.3527 -0.7082
 9392SOL     OW28891   1.849   2.510   6.293 -0.1867  0.3734 -0.2459
 9392SOL    HW128892   1.803   2.426   6.289 -0.4838  0.4948  0.5525
 9392SOL    HW228893   1.780   2.575   6.282 -0.2648  0.5657  1.2660
 9393SOL     OW28894   4.016   3.045   0.180 -0.8581 -0.2890  0.5623
 9393SOL    HW128895   4.008   3.128   0.226  1.1167  0.1590  0.1726
 9393SOL    HW228896   3.985   3.063   0.091  2.0126  0.8066 -0.2987
 9394SOL     OW28897   4.960   0.716   5.137 -0.1043  0.4834 -0.2026
 9394SOL    HW128898   5.055   0.719   5.129 -0.1379 -1.1172 -1.4819
 9394SOL    HW228899   4.928   0.714   5.047 -1.3636  1.2080  0.2168
 9395SOL     OW28900   5.342   3.863   3.110 -0.4184 -0.0677  0.2001
 9395SOL    HW128901   5.248   3.851   3.119 -0.5226  0.9861  0.5849
 9395SOL    HW228902   5.379   3.833   3.193 -0.3710 -0.8555 -0.0981
 9396SOL     OW28903   5.489   4.782   6.349  0.2571  0.5285  0.3919
 9396SOL    HW128904   5.404   4.741   6.364  0.2890  0.3798  0.1533
 9396SOL    HW228905   5.520   4.745   6.267 -0.2720  1.9458 -0.4689
 9397SOL     OW28906   3.500   3.484   5.550  0.1168 -0.5876  0.7499
 9397SOL    HW128907   3.506   3.569   5.596  0.7960 -0.2901  0.1274
 9397SOL    HW228908   3.410   3.455   5.564 -0.4179  0.7228  0.1285
 9398SOL     OW28909   1.136   4.609   0.915  1.0120  0.0963 -0.0421
 9398SOL    HW128910   1.221   4.576   0.944  0.5325 -1.8975 -0.8145
 9398SOL    HW228911   1.123   4.569   0.829 -0.5048  0.7379 -0.1292
 9399SOL     OW28912   5.497   2.791   2.237 -0.3664 -0.5479 -0.1000
 9399SOL    HW128913   5.422   2.733   2.224  1.2564 -2.2053 -2.3920
 9399SOL    HW228914   5.572   2.732   2.245  1.2766  1.1976 -2.1907
 9400SOL     OW28915   4.343   6.489   0.455 -0.3033  0.0703 -0.2856
 9400SOL    HW128916   4.291   6.558   0.415 -0.7705 -0.0595  0.0855
 9400SOL    HW228917   4.375   6.437   0.381 -0.7350  0.1277 -0.5141
 9401SOL     OW28918   2.733   6.252   6.763 -0.0153 -0.1979 -0.0466
 9401SOL    HW128919   2.752   6.245   6.670  0.1168 -0.9595  0.0377
 9401SOL    HW228920   2.639   6.272   6.766  0.5922  3.0730 -0.4414
 9402SOL     OW28921   4.069   6.757   5.534 -0.4699 -0.3526 -0.2283
 9402SOL    HW128922   4.126   6.728   5.462  0.3783  0.3312  0.1569
 9402SOL    HW228923   3.985   6.715   5.516  0.0295 -1.0349 -1.0470
 9403SOL     OW28924   5.196   6.149   1.154  0.6274 -0.2530 -0.0946
 9403SOL    HW128925   5.283   6.141   1.191  0.1561  0.2247  1.1327
 9403SOL    HW228926   5.206   6.212   1.083  1.0030  0.9029  0.9674
 9404SOL     OW28927   3.316   4.745   6.033  0.3060 -0.4512  0.1980
 9404SOL    HW128928   3.323   4.687   6.109  0.5413 -0.3649  0.2430
 9404SOL    HW228929   3.365   4.700   5.964 -0.2518 -0.7204 -0.0187
 9405SOL     OW28930   3.508   1.253   5.985  0.2044 -0.0053 -0.1051
 9405SOL    HW128931   3.601   1.240   6.003  0.9686  2.7638 -1.7637
 9405SOL    HW228932   3.497   1.228   5.894 -0.2688  1.4689 -0.4644
 9406SOL     OW28933   1.445   5.231   1.380  0.8088  0.2112  0.1654
 9406SOL    HW128934   1.499   5.299   1.422  0.4828  0.9761 -0.6441
 9406SOL    HW228935   1.425   5.170   1.451 -1.2138  2.3993  1.5685
 9407SOL     OW28936   2.134   0.926   4.704 -0.0023 -1.0141 -0.4148
 9407SOL    HW128937   2.194   0.976   4.758 -2.4797  0.3387  1.1917
 9407SOL    HW228938   2.132   0.974   4.620  0.2456 -0.3884 -0.0676
 9408SOL     OW28939   3.248   1.356   2.452  0.3695  0.5296 -0.0092
 9408SOL    HW128940   3.186   1.342   2.380  0.2960 -0.6478  0.2664
 9408SOL    HW228941   3.301   1.276   2.453  0.7446  0.7893  0.8769
 9409SOL     OW28942   3.269   5.198   5.515  0.3851  0.0757 -0.1866
 9409SOL    HW128943   3.234   5.282   5.545  0.1743 -0.1829  0.3013
 9409SOL    HW228944   3.246   5.194   5.422 -2.0173 -0.6417  0.3925
 9410SOL     OW28945   2.418   6.545   5.407 -0.0420 -0.3215  0.1689
 9410SOL    HW128946   2.457   6.467   5.368 -0.9026 -1.0307  0.6907
 9410SOL    HW228947   2.325   6.540   5.384 -0.1348  0.4706  0.3370
 9411SOL     OW28948   2.264   1.645   1.581  0.1256  0.0907 -0.7319
 9411SOL    HW128949   2.213   1.653   1.500 -0.5411  1.6150 -0.1918
 9411SOL    HW228950   2.213   1.693   1.646  0.3882 -1.5676  0.7309
 9412SOL     OW28951   5.211   1.526   0.416  0.1275  0.4223  0.8482
 9412SOL    HW128952   5.190   1.549   0.506  0.9709 -0.0995  1.1764
 9412SOL    HW228953   5.216   1.430   0.416 -0.7907  0.3567  0.0438
 9413SOL     OW28954   3.176   4.687   5.054  0.2174  0.4252  0.3771
 9413SOL    HW128955   3.097   4.676   5.001  1.9585 -3.4413 -1.6588
 9413SOL    HW228956   3.164   4.627   5.128  1.8539 -1.4726 -0.8289
 9414SOL     OW28957   1.358   0.779   5.709 -0.0108  0.2359 -0.3429
 9414SOL    HW128958   1.283   0.784   5.649  0.8028  0.3168 -1.3624
 9414SOL    HW228959   1.321   0.800   5.795 -0.9131  1.6363 -1.0493
 9415SOL     OW28960   5.202   6.271   6.433 -0.4901  0.3487 -0.1522
 9415SOL    HW128961   5.277   6.263   6.375  0.6172  3.0469  0.8639
 9415SOL    HW228962   5.126   6.256   6.376  0.6842  0.0764 -1.6751
 9416SOL     OW28963   2.367   2.660   6.426  0.5619  0.1158 -0.0184
 9416SOL    HW128964   2.274   2.677   6.442  0.7230  1.8350 -0.8025
 9416SOL    HW228965   2.392   2.724   6.360  2.6720  0.6656  1.2692
 9417SOL     OW28966   2.795   1.871   0.692 -0.4354 -0.6499 -0.0988
 9417SOL    HW128967   2.729   1.802   0.703 -0.0531 -1.0441 -0.2872
 9417SOL    HW228968   2.841   1.874   0.776 -0.2923 -0.7938 -0.1707
 9418SOL     OW28969   4.869   5.399   4.597  0.0083 -0.3475  0.2395
 9418SOL    HW128970   4.955   5.360   4.582  0.2736  0.3140 -0.0126
 9418SOL    HW228971   4.820   5.333   4.645  0.4732 -0.9472 -0.1068
 9419SOL     OW28972   4.659   1.358   2.560 -0.4122 -0.1463 -0.3673
 9419SOL    HW128973   4.602   1.285   2.583 -1.4034  0.4395 -0.9324
 9419SOL    HW228974   4.663   1.356   2.464 -0.3133  0.4317 -0.3787
 9420SOL     OW28975   6.477   3.084   4.788  0.2594 -0.1104  0.8775
 9420SOL    HW128976   6.566   3.049   4.795  0.6929  1.1569  1.9386
 9420SOL    HW228977   6.439   3.070   4.875 -0.6108 -0.6981  0.4123
 9421SOL     OW28978   1.369   0.166   4.501 -0.3281 -0.1974  0.4504
 9421SOL    HW128979   1.366   0.088   4.446  0.9586 -0.6785  1.0576
 9421SOL    HW228980   1.300   0.152   4.567 -2.6225  0.8734 -1.6480
 9422SOL     OW28981   0.520   0.870   1.436  0.0391  0.1998 -0.4703
 9422SOL    HW128982   0.528   0.918   1.353 -1.1074  0.8753 -0.1867
 9422SOL    HW228983   0.583   0.912   1.494 -0.6736  1.0968 -0.3463
 9423SOL     OW28984   3.072   4.015   4.411  0.0205  0.1837 -0.2335
 9423SOL    HW128985   3.005   4.031   4.478  0.0069 -0.5960 -0.0520
 9423SOL    HW228986   3.122   3.941   4.446  0.9714  0.7499 -0.3707
 9424SOL     OW28987   6.162   4.302   3.876  0.0689  0.7912  0.4569
 9424SOL    HW128988   6.241   4.323   3.826 -0.6486 -1.1259 -1.5590
 9424SOL    HW228989   6.160   4.207   3.880 -3.0007  0.7110 -1.0057
 9425SOL     OW28990   1.769   1.099   6.153 -0.0847  0.6424  0.0951
 9425SOL    HW128991   1.752   1.189   6.127 -0.6713  0.5329  0.0887
 9425SOL    HW228992   1.789   1.104   6.246  0.0060  0.7940  0.0679
 9426SOL     OW28993   1.068   5.051   2.339  0.2924 -0.3280  0.1268
 9426SOL    HW128994   1.049   4.959   2.354 -0.3374 -0.3605 -0.7939
 9426SOL    HW228995   1.050   5.064   2.245 -0.3915  0.8982  0.4144
 9427SOL     OW28996   5.238   0.786   2.323 -0.1642 -0.2129 -0.3786
 9427SOL    HW128997   5.219   0.718   2.388 -2.0257 -0.9406 -1.6583
 9427SOL    HW228998   5.308   0.748   2.269 -0.4077 -0.6439 -0.3908
 9428SOL     OW28999   0.305   0.567   3.275 -0.1587  0.0098 -0.3478
 9428SOL    HW129000   0.253   0.646   3.256  1.0105  0.5631 -1.3661
 9428SOL    HW229001   0.242   0.495   3.268 -0.8757  0.6976 -1.2486
 9429SOL     OW29002   3.452   4.464   3.430  0.3916  0.7412  0.0531
 9429SOL    HW129003   3.359   4.475   3.449  0.4775  1.5637  0.0005
 9429SOL    HW229004   3.470   4.527   3.361  0.3467 -1.4118 -1.9795
 9430SOL     OW29005   2.174   3.873   6.598 -0.3533  0.2043 -0.1813
 9430SOL    HW129006   2.167   3.835   6.686  1.4384  1.7954  0.6792
 9430SOL    HW229007   2.186   3.798   6.540  2.5458 -0.6062  1.3985
 9431SOL     OW29008   4.613   3.423   3.508  0.3296  0.0637 -0.0108
 9431SOL    HW129009   4.683   3.457   3.454  0.1871 -0.6062 -0.6293
 9431SOL    HW229010   4.650   3.419   3.597  1.0827 -0.3316 -0.3410
 9432SOL     OW29011   4.977   1.261   3.231  0.0411 -0.7065  0.1467
 9432SOL    HW129012   5.045   1.243   3.296  1.0404  1.3059 -0.3062
 9432SOL    HW229013   4.902   1.290   3.284  0.6905  0.4494  0.4615
 9433SOL     OW29014   2.493   5.483   1.267  0.2624 -0.1749  0.5155
 9433SOL    HW129015   2.498   5.491   1.172 -1.1799 -0.5952  0.3924
 9433SOL    HW229016   2.404   5.453   1.284  0.6406 -0.5106  1.9774
 9434SOL     OW29017   6.087   3.197   5.877 -0.2875 -0.0593  0.0708
 9434SOL    HW129018   6.161   3.245   5.914  0.1780 -0.1989 -0.6654
 9434SOL    HW229019   6.122   3.110   5.856 -0.8441 -0.3608  0.3794
 9435SOL     OW29020   4.169   0.072   6.059  0.0028  0.0722  0.6841
 9435SOL    HW129021   4.165   0.036   5.970  0.0823 -0.3983  0.8694
 9435SOL    HW229022   4.156  -0.004   6.116 -0.3267  0.4147  1.0702
 9436SOL     OW29023   5.008   2.676   2.155  0.7259  0.7610 -0.2984
 9436SOL    HW129024   4.968   2.709   2.074 -2.1844 -0.8049  0.4143
 9436SOL    HW229025   5.050   2.594   2.128  0.8454  0.8750 -0.4626
 9437SOL     OW29026   0.017   2.475   4.720 -0.3129  0.1869  0.9596
 9437SOL    HW129027   0.031   2.444   4.630 -0.0729 -0.3214  1.1698
 9437SOL    HW229028  -0.073   2.509   4.720 -0.0883  0.7867  0.3590
 9438SOL     OW29029   1.085   0.678   1.620 -0.4033 -0.4691  0.0847
 9438SOL    HW129030   1.079   0.583   1.608 -0.5097 -0.3245 -1.0667
 9438SOL    HW229031   0.995   0.706   1.637 -0.3768 -0.5615  0.3902
 9439SOL     OW29032   6.118   6.155   1.674  0.1957 -0.2929 -0.3491
 9439SOL    HW129033   6.056   6.180   1.742 -0.0594  0.1998 -0.7691
 9439SOL    HW229034   6.155   6.072   1.706  0.8450  0.4520  0.8996
 9440SOL     OW29035   1.089   0.831   0.173  0.1151 -0.3369  0.0084
 9440SOL    HW129036   1.043   0.886   0.110  1.4210  1.1560  0.3242
 9440SOL    HW229037   1.171   0.878   0.191  0.3417 -1.3773  1.8325
 9441SOL     OW29038   6.514   0.536   4.194 -0.4278 -0.1558 -0.0394
 9441SOL    HW129039   6.505   0.443   4.174 -0.0632  0.4162 -3.0183
 9441SOL    HW229040   6.603   0.545   4.227 -0.8664 -1.0445  1.4177
 9442SOL     OW29041   4.757   6.018   1.909  0.3004 -0.0361  0.1858
 9442SOL    HW129042   4.751   5.932   1.950 -0.9190  0.1842  0.5069
 9442SOL    HW229043   4.666   6.050   1.907  0.8017  1.5097  0.6875
 9443SOL     OW29044   6.740   0.929   3.003  0.1770  0.2927 -0.1846
 9443SOL    HW129045   6.655   0.918   3.046  0.6650  0.2059  0.7616
 9443SOL    HW229046   6.757   0.845   2.961  1.0337 -0.5961  1.8777
 9444SOL     OW29047   0.035   4.205   3.742  0.1263 -0.3451 -0.8956
 9444SOL    HW129048  -0.035   4.259   3.706 -0.3703 -0.5246 -0.2010
 9444SOL    HW229049   0.116   4.251   3.716 -0.3184  2.0160  1.6386
 9445SOL     OW29050   0.021   2.175   5.126  0.7331  0.7470  0.5197
 9445SOL    HW129051  -0.023   2.092   5.112  3.0387 -0.1947 -1.7215
 9445SOL    HW229052  -0.049   2.237   5.146 -1.5843 -0.7531 -2.4611
 9446SOL     OW29053   0.145   3.877   5.849  0.6195 -0.0678 -0.0409
 9446SOL    HW129054   0.218   3.816   5.844  0.7372  0.1589 -1.3873
 9446SOL    HW229055   0.165   3.944   5.782  0.1908  1.0981  0.9808
 9447SOL     OW29056   0.721   3.041   1.365  0.1847 -0.3844 -0.3177
 9447SOL    HW129057   0.654   3.108   1.378 -0.1658 -1.2048  2.4269
 9447SOL    HW229058   0.791   3.086   1.317 -0.2299  1.8195  1.0775
 9448SOL     OW29059   3.040   0.494   3.621 -0.1452 -0.5486 -0.4546
 9448SOL    HW129060   3.018   0.588   3.624  1.3122 -0.1436 -1.6203
 9448SOL    HW229061   3.026   0.470   3.530 -2.1691 -1.9119  0.1936
 9449SOL     OW29062   1.636   4.923   4.742 -0.0486 -0.1022  0.3997
 9449SOL    HW129063   1.572   4.925   4.813  0.8006 -1.1262  1.2218
 9449SOL    HW229064   1.639   4.831   4.715  0.7814  0.0014  0.1152
 9450SOL     OW29065   2.261   1.184   4.319  0.5965 -0.7067 -0.1353
 9450SOL    HW129066   2.331   1.196   4.383 -1.1580  0.6445  1.5785
 9450SOL    HW229067   2.288   1.238   4.244  0.9902  0.4753  0.8442
 9451SOL     OW29068   0.101   5.595   1.999  0.2171 -0.5858 -0.3560
 9451SOL    HW129069   0.061   5.598   1.912  1.3290 -1.0841 -0.8911
 9451SOL    HW229070   0.049   5.529   2.047  0.4594 -1.3167 -1.0833
 9452SOL     OW29071   1.783   4.532   2.069  0.1809  0.0454 -0.0863
 9452SOL    HW129072   1.818   4.564   1.986  1.8934 -0.2083  0.5207
 9452SOL    HW229073   1.746   4.446   2.048 -0.4239  0.4729 -0.8066
 9453SOL     OW29074   4.935   2.976   3.427 -0.3820  0.1500 -0.1343
 9453SOL    HW129075   4.905   3.058   3.467  0.9407  0.5365  0.1216
 9453SOL    HW229076   4.918   2.988   3.334  0.1658  0.8909 -0.1494
 9454SOL     OW29077   1.779   0.113   5.349 -0.2654  0.3961 -0.4201
 9454SOL    HW129078   1.832   0.160   5.285  0.3565  0.0739 -0.1407
 9454SOL    HW229079   1.842   0.062   5.400 -0.8724 -0.2415 -0.3055
 9455SOL     OW29080   5.606   5.356   5.767 -0.1387  0.1589  0.8977
 9455SOL    HW129081   5.666   5.338   5.695 -0.2001  0.8164  0.6779
 9455SOL    HW229082   5.579   5.447   5.754 -1.8917 -0.4059  0.4765
 9456SOL     OW29083   2.830   4.352   4.506  0.5124  0.4264  0.0944
 9456SOL    HW129084   2.909   4.404   4.489  1.2841 -0.7548  0.0157
 9456SOL    HW229085   2.758   4.408   4.476  1.3666  1.2032 -0.5546
 9457SOL     OW29086   5.371   0.670   5.424 -0.1344  0.2091 -0.9554
 9457SOL    HW129087   5.432   0.662   5.351  1.3979  0.7359  0.2324
 9457SOL    HW229088   5.329   0.755   5.412 -0.1412  0.1402 -1.4060
 9458SOL     OW29089   6.536   0.658   0.253  0.1797 -0.3038  0.0508
 9458SOL    HW129090   6.512   0.623   0.339 -1.1851  0.5031  0.0218
 9458SOL    HW229091   6.630   0.672   0.257  0.7782 -3.7342  0.1617
 9459SOL     OW29092   3.449   2.845   6.389  0.7355  0.6104  0.1834
 9459SOL    HW129093   3.420   2.756   6.409 -1.1715  1.3445  0.7520
 9459SOL    HW229094   3.427   2.857   6.296  1.2146  0.4049  0.0426
 9460SOL     OW29095   0.021   3.921   4.461 -0.5604 -0.6562 -0.1603
 9460SOL    HW129096  -0.056   3.927   4.517 -0.2521  3.5544 -0.0144
 9460SOL    HW229097   0.094   3.905   4.521 -0.3755  2.7969  0.6446
 9461SOL     OW29098   6.129   1.261   3.072  0.3841  0.3328  0.2339
 9461SOL    HW129099   6.197   1.299   3.016  0.2523 -0.5719 -0.5469
 9461SOL    HW229100   6.127   1.318   3.149  0.3070  1.8172 -0.8412
 9462SOL     OW29101   3.844   2.287   6.087  0.1735 -0.4528  0.3881
 9462SOL    HW129102   3.778   2.309   6.153  0.3076 -2.0617  1.0620
 9462SOL    HW229103   3.794   2.271   6.007 -0.1341 -0.2995  0.5499
 9463SOL     OW29104   0.429   4.952   0.350 -0.0070 -0.2032 -0.4507
 9463SOL    HW129105   0.358   4.938   0.288  0.7444  0.3955 -1.4552
 9463SOL    HW229106   0.474   4.867   0.354 -0.4190 -0.4130 -0.2666
 9464SOL     OW29107   0.275   4.658   3.558  0.8090  0.2610  0.0274
 9464SOL    HW129108   0.359   4.690   3.526  0.3687  0.0125 -1.4311
 9464SOL    HW229109   0.261   4.576   3.511 -0.8770  0.9842 -0.7798
 9465SOL     OW29110   2.022   2.847   5.769  0.0754 -0.4715 -0.6493
 9465SOL    HW129111   2.043   2.935   5.739  2.3650 -0.5361  0.6339
 9465SOL    HW229112   2.063   2.840   5.855 -2.0413 -2.0234  0.2734
 9466SOL     OW29113   4.114   5.014   0.441  0.1553 -0.2091 -0.2218
 9466SOL    HW129114   4.031   4.970   0.426  0.4946 -1.0610  0.3471
 9466SOL    HW229115   4.166   4.997   0.363  0.5132 -1.3577  0.2619
 9467SOL     OW29116   0.578   2.970   0.520  0.1145 -0.0436 -0.1465
 9467SOL    HW129117   0.576   2.905   0.451  1.1034 -0.7342  0.4597
 9467SOL    HW229118   0.669   2.969   0.552  0.3412  2.1539 -0.6371
 9468SOL     OW29119   3.062   1.091   6.363  0.9855  0.2325  0.0754
 9468SOL    HW129120   3.018   1.006   6.366 -3.9049  2.5728 -0.1651
 9468SOL    HW229121   3.072   1.117   6.454 -1.8068  1.3853  0.0910
 9469SOL     OW29122   5.943   5.947   6.600  0.2885  0.6219 -0.2048
 9469SOL    HW129123   5.950   5.853   6.620 -1.2845 -0.0243 -2.4426
 9469SOL    HW229124   5.922   5.988   6.683  0.1073 -1.1292  0.6361
 9470SOL     OW29125   4.221   0.328   5.818 -0.6679 -0.6938 -0.0175
 9470SOL    HW129126   4.274   0.274   5.877 -0.3256 -1.4033 -0.9438
 9470SOL    HW229127   4.274   0.333   5.738 -0.7908  0.8640 -0.0060
 9471SOL     OW29128   0.795   4.855   0.214 -0.0635  0.0806  0.7443
 9471SOL    HW129129   0.805   4.950   0.225  2.8030  0.0095 -0.5749
 9471SOL    HW229130   0.719   4.846   0.156  0.4268  1.6820 -0.2057
 9472SOL     OW29131   5.482   5.179   0.498  0.1186 -0.3725  0.0273
 9472SOL    HW129132   5.572   5.146   0.492  0.1469 -0.7075  1.9794
 9472SOL    HW229133   5.435   5.113   0.549 -0.5585  1.0923  1.3506
 9473SOL     OW29134   2.644   2.924   5.546  0.0946 -0.1755 -0.3284
 9473SOL    HW129135   2.548   2.922   5.556  0.1408  2.0651  0.6963
 9473SOL    HW229136   2.661   2.997   5.487  1.2699  0.3257  0.6155
 9474SOL     OW29137   5.060   1.754   4.169  0.4433 -0.3395  0.7904
 9474SOL    HW129138   5.007   1.802   4.106 -0.4102  0.1669  1.8644
 9474SOL    HW229139   5.119   1.820   4.205  0.4217 -0.4560  1.0426
 9475SOL     OW29140   0.075   0.981   3.797 -0.1548  0.0103  0.2500
 9475SOL    HW129141   0.003   0.939   3.843  0.9711 -0.3270  1.7347
 9475SOL    HW229142   0.081   1.069   3.835  1.3235 -0.5601  1.3801
 9476SOL     OW29143   1.669   5.995   0.463 -0.3034 -0.0618  0.1942
 9476SOL    HW129144   1.665   5.995   0.559  1.1306  1.5667  0.2944
 9476SOL    HW229145   1.630   6.079   0.439  1.1613  0.4290 -0.5219
 9477SOL     OW29146   0.210   2.053   0.246  0.0795 -0.0752 -0.0925
 9477SOL    HW129147   0.279   2.020   0.189 -0.3918 -0.0887 -0.6667
 9477SOL    HW229148   0.134   2.064   0.188 -0.1805  0.6664  0.3744
 9478SOL     OW29149   4.050   0.823   2.372 -0.0625  0.5610 -0.0166
 9478SOL    HW129150   4.046   0.906   2.324  0.7041  0.3925 -0.3916
 9478SOL    HW229151   4.019   0.758   2.309  0.6415  0.3830 -0.1882
 9479SOL     OW29152   4.778   6.525   1.759  0.3804  0.1967  0.3349
 9479SOL    HW129153   4.701   6.495   1.711  1.4889  0.1743 -1.4796
 9479SOL    HW229154   4.788   6.617   1.733  3.0764 -0.7882 -2.3688
 9480SOL     OW29155   5.090   0.707   4.787 -0.4142  0.3000 -0.4917
 9480SOL    HW129156   5.113   0.714   4.694  0.2560 -0.0550 -0.3534
 9480SOL    HW229157   5.173   0.713   4.833 -0.6621 -0.2941  0.0449
 9481SOL     OW29158   0.445   5.240   4.256  0.0051 -0.0867 -0.9458
 9481SOL    HW129159   0.510   5.174   4.280  0.6145  0.3108 -1.4970
 9481SOL    HW229160   0.361   5.195   4.265  0.3990 -0.8466 -1.0249
 9482SOL     OW29161   1.903   6.085   0.977 -0.0035  0.0021  0.0670
 9482SOL    HW129162   1.933   6.018   0.915  0.2704  1.0895 -0.9889
 9482SOL    HW229163   1.976   6.096   1.038  0.1106 -0.3640 -0.0036
 9483SOL     OW29164   4.739   3.652   2.935 -0.1944 -0.2144  0.2791
 9483SOL    HW129165   4.788   3.733   2.948 -1.2049  0.4996 -0.2945
 9483SOL    HW229166   4.709   3.628   3.023 -0.2445  0.2687  0.3954
 9484SOL     OW29167   5.257   3.007   0.230  0.3645 -0.2204 -0.5804
 9484SOL    HW129168   5.176   3.044   0.195  1.5079  0.3978 -2.6542
 9484SOL    HW229169   5.295   2.959   0.157  0.8594 -2.2697  0.9715
 9485SOL     OW29170   6.484   4.464   3.386 -0.2876 -0.6525 -0.4712
 9485SOL    HW129171   6.552   4.505   3.332  0.0653 -1.0907 -0.3614
 9485SOL    HW229172   6.529   4.392   3.430 -0.0135  1.0066  2.1239
 9486SOL     OW29173   0.246   2.972   6.531  0.3480  0.6828  0.5947
 9486SOL    HW129174   0.295   2.932   6.459  0.7658  2.6357 -0.2321
 9486SOL    HW229175   0.159   2.931   6.525  0.5726  0.3488 -0.6204
 9487SOL     OW29176   5.918   5.673   4.422  0.8647 -0.1644  0.3532
 9487SOL    HW129177   5.986   5.680   4.489  0.3117 -0.3093  0.9364
 9487SOL    HW229178   5.910   5.579   4.405  0.3230 -0.2027  0.7986
 9488SOL     OW29179   1.852   4.641   1.351  0.0570  0.0030 -0.0132
 9488SOL    HW129180   1.944   4.668   1.348  0.1624 -0.2144  1.0299
 9488SOL    HW229181   1.814   4.695   1.421  0.0052 -1.7017  1.3127
 9489SOL     OW29182   5.354   1.421   6.714 -0.3080 -0.0925 -0.2896
 9489SOL    HW129183   5.419   1.470   6.764  0.8514  0.4746 -2.2712
 9489SOL    HW229184   5.316   1.485   6.654 -0.4512 -1.0918 -1.2981
 9490SOL     OW29185   3.341   5.925   1.503 -0.5570  0.1351 -0.7926
 9490SOL    HW129186   3.341   6.017   1.530  0.4972  0.1412 -0.7965
 9490SOL    HW229187   3.308   5.878   1.580 -0.4950  0.4546 -0.5688
 9491SOL     OW29188   1.099   6.262   1.540 -0.3405  0.3954  0.0197
 9491SOL    HW129189   1.149   6.340   1.564  1.3472 -1.0536  1.2938
 9491SOL    HW229190   1.081   6.218   1.623 -1.0561 -0.7184 -0.7076
 9492SOL     OW29191   3.264   3.790   5.955  0.3566  0.5005 -0.3354
 9492SOL    HW129192   3.246   3.877   5.990  0.3271  0.7836 -1.0442
 9492SOL    HW229193   3.360   3.781   5.961  0.2269  0.0101  1.0602
 9493SOL     OW29194   6.628   4.081   6.175 -0.2026 -0.3622  0.7279
 9493SOL    HW129195   6.656   4.119   6.091  1.0352 -0.0244  1.2868
 9493SOL    HW229196   6.698   4.103   6.236 -0.1705 -2.3221  1.4086
 9494SOL     OW29197   5.426   3.262   6.313  0.4902 -0.2664 -0.2691
 9494SOL    HW129198   5.466   3.300   6.235  2.0713 -1.1013  0.1254
 9494SOL    HW229199   5.453   3.171   6.313 -0.4316 -0.5577  0.6648
 9495SOL     OW29200   4.332   5.240   5.767 -0.2685 -0.1235  0.0675
 9495SOL    HW129201   4.251   5.280   5.798  0.9127  0.9736  1.8653
 9495SOL    HW229202   4.374   5.308   5.714 -0.7424 -0.8563 -1.2558
 9496SOL     OW29203   6.504   3.749   3.212  0.6863 -0.3046 -0.1127
 9496SOL    HW129204   6.566   3.785   3.149  1.7737  0.8562  1.5907
 9496SOL    HW229205   6.418   3.764   3.171  1.3961 -0.0799 -1.5642
 9497SOL     OW29206   0.344   5.143   0.569 -0.0795  0.3335 -0.4052
 9497SOL    HW129207   0.303   5.164   0.653  1.5731  0.8988  0.2944
 9497SOL    HW229208   0.356   5.048   0.571 -0.6349  0.2617 -0.2922
 9498SOL     OW29209   0.985   4.242   6.133  0.1069 -0.4696  0.0212
 9498SOL    HW129210   0.955   4.153   6.115 -1.2057 -0.0387  0.0424
 9498SOL    HW229211   0.910   4.298   6.111  1.9675  0.9299 -3.0354
 9499SOL     OW29212   5.894   3.948   3.885 -0.0591 -0.9947  0.5881
 9499SOL    HW129213   5.933   3.892   3.953 -0.2925 -2.6088 -0.5701
 9499SOL    HW229214   5.876   3.888   3.813 -0.9614  0.4819 -0.4308
 9500SOL     OW29215   2.641   2.403   5.957 -0.2972  0.1362 -0.3319
 9500SOL    HW129216   2.686   2.353   6.025 -2.8180 -1.7809  0.0054
 9500SOL    HW229217   2.698   2.394   5.880  1.6126  0.7125  0.9702
 9501SOL     OW29218   5.069   4.461   1.324  0.0398 -0.1222  0.4097
 9501SOL    HW129219   4.980   4.477   1.354 -0.3246 -0.4358 -0.4728
 9501SOL    HW229220   5.069   4.492   1.233  0.8385 -0.0929  0.4178
 9502SOL     OW29221   1.401   0.361   4.293 -0.0787  0.4273  0.1504
 9502SOL    HW129222   1.309   0.389   4.293 -0.3109 -0.2987 -0.8580
 9502SOL    HW229223   1.404   0.287   4.353 -0.2196  0.2514 -0.0577
 9503SOL     OW29224   1.487   1.603   5.695 -0.6610 -0.1500  0.3633
 9503SOL    HW129225   1.528   1.575   5.777 -0.6377  0.4085  0.5446
 9503SOL    HW229226   1.406   1.552   5.691 -0.6561 -0.1921  0.7294
 9504SOL     OW29227   3.379   0.214   2.761 -0.5048  0.1919  1.1251
 9504SOL    HW129228   3.425   0.186   2.840 -1.2999  2.2267  2.3557
 9504SOL    HW229229   3.448   0.244   2.702 -0.0247  0.4799  1.8172
 9505SOL     OW29230   4.684   6.605   2.018 -0.3311  0.5108 -0.3234
 9505SOL    HW129231   4.729   6.535   2.065  0.0334  1.4350  0.7324
 9505SOL    HW229232   4.713   6.596   1.928  2.1891  1.2044  0.3650
 9506SOL     OW29233   0.637   1.389   3.006  0.2280 -0.6946  0.0233
 9506SOL    HW129234   0.702   1.326   2.974  0.5544 -1.5772  2.2756
 9506SOL    HW229235   0.670   1.474   2.979  3.2615 -0.9748  2.5148
 9507SOL     OW29236   1.114   5.772   4.416 -0.0751  0.2918  0.5122
 9507SOL    HW129237   1.052   5.737   4.351 -0.8047  2.0308  0.2614
 9507SOL    HW229238   1.084   5.736   4.499 -0.8540  0.3658  0.2636
 9508SOL     OW29239   2.133   3.448   6.302 -0.2413 -0.0701  0.2614
 9508SOL    HW129240   2.062   3.389   6.277 -1.5170  1.1392  0.9835
 9508SOL    HW229241   2.197   3.440   6.232 -1.8383  0.0438 -1.2328
 9509SOL     OW29242   1.289   0.830   5.971  0.3456  0.1422  0.4383
 9509SOL    HW129243   1.357   0.897   5.977  0.2944  0.2070  0.3036
 9509SOL    HW229244   1.328   0.752   6.009  0.3621  0.2844  0.7127
 9510SOL     OW29245   2.143   5.452   2.071 -0.0977  0.5280  0.0104
 9510SOL    HW129246   2.101   5.495   1.996  0.8653  2.3464  0.5030
 9510SOL    HW229247   2.107   5.496   2.148 -1.6114 -1.8038  0.7034
 9511SOL     OW29248   2.614   1.910   4.861 -0.2681  0.1088  0.0436
 9511SOL    HW129249   2.615   1.929   4.767  0.4511 -0.3541 -0.0463
 9511SOL    HW229250   2.621   1.996   4.902  0.2362  0.2597 -0.3403
 9512SOL     OW29251   6.277   4.800   4.124  0.2906  0.7001 -0.3509
 9512SOL    HW129252   6.203   4.796   4.184  0.9372 -0.4937  0.3864
 9512SOL    HW229253   6.238   4.797   4.037 -0.5464  0.4555  0.0313
 9513SOL     OW29254   3.022   5.026   2.245  0.3382 -0.6726 -0.1854
 9513SOL    HW129255   2.988   5.000   2.159 -0.5928 -0.6463  0.1703
 9513SOL    HW229256   2.950   5.074   2.286  0.7371 -0.7799  0.6568
 9514SOL     OW29257   5.715   1.108   0.350 -0.1426  0.1888 -0.0280
 9514SOL    HW129258   5.676   1.066   0.427 -1.3882  1.0179 -0.1895
 9514SOL    HW229259   5.807   1.081   0.351 -0.5348 -1.1490  0.8186
 9515SOL     OW29260   2.110   0.362   4.617  0.5460  0.3556 -0.3187
 9515SOL    HW129261   2.046   0.304   4.659 -0.9080  0.8999 -1.7014
 9515SOL    HW229262   2.155   0.405   4.689 -0.6385 -0.0840  0.6993
 9516SOL     OW29263   2.539   3.091   4.484 -0.1569  0.0460 -0.4200
 9516SOL    HW129264   2.516   3.181   4.460  0.7420 -0.2878 -2.5933
 9516SOL    HW229265   2.625   3.076   4.446 -0.3138 -1.7629 -0.1286
 9517SOL     OW29266   0.081   2.473   4.442  0.4169 -0.0729  0.0017
 9517SOL    HW129267   0.044   2.558   4.419 -1.8360 -0.8606  0.6280
 9517SOL    HW229268   0.138   2.451   4.369  1.4858  2.2278  0.0990
 9518SOL     OW29269   0.011   4.648   1.433  0.0557  0.3947 -0.4357
 9518SOL    HW129270  -0.002   4.579   1.498 -0.1880 -0.6496 -1.5570
 9518SOL    HW229271   0.034   4.726   1.484  3.1058 -1.1564  0.7503
 9519SOL     OW29272   6.253   4.657   3.805  0.5230  0.9535 -0.0337
 9519SOL    HW129273   6.321   4.656   3.738  0.9370 -0.1574  0.3835
 9519SOL    HW229274   6.172   4.639   3.757  0.4941  2.3785 -0.5459
 9520SOL     OW29275   4.154   4.451   4.113  0.4510 -0.1984  0.3661
 9520SOL    HW129276   4.178   4.358   4.114  2.7417  0.3871  0.4340
 9520SOL    HW229277   4.087   4.458   4.181  0.8529 -1.6296  0.9395
 9521SOL     OW29278   6.714   1.227   4.341  0.3375 -0.6115  0.0504
 9521SOL    HW129279   6.807   1.205   4.350  0.8606  1.0276 -1.0471
 9521SOL    HW229280   6.681   1.229   4.431  1.3942 -1.0741  0.4545
 9522SOL     OW29281   0.065   5.936   5.424 -0.2861  1.0226 -0.4951
 9522SOL    HW129282   0.057   6.031   5.424 -0.5836  1.0057 -1.2420
 9522SOL    HW229283  -0.025   5.904   5.434  0.0432  0.8087  2.0727
 9523SOL     OW29284   3.796   3.078   2.202  0.7091  0.0365 -0.1201
 9523SOL    HW129285   3.860   3.022   2.246  0.3849 -0.4074 -0.2042
 9523SOL    HW229286   3.834   3.096   2.116  0.6891 -0.2944 -0.2008
 9524SOL     OW29287   5.840   5.584   5.762  0.0123  0.1745  0.5096
 9524SOL    HW129288   5.873   5.507   5.716 -1.8945 -0.7140  0.5862
 9524SOL    HW229289   5.832   5.557   5.853  1.0225  1.0340  0.8663
 9525SOL     OW29290   1.125   6.341   3.019  0.0867  0.4059 -0.0004
 9525SOL    HW129291   1.149   6.398   2.946  0.4006  2.0723  1.3735
 9525SOL    HW229292   1.183   6.368   3.090  0.0226 -1.4389  0.7679
 9526SOL     OW29293   4.315   5.313   2.421 -0.1070 -0.1065  0.0829
 9526SOL    HW129294   4.275   5.377   2.362 -1.4104 -0.7313  0.2573
 9526SOL    HW229295   4.269   5.325   2.504 -2.7795 -3.5027 -0.7943
 9527SOL     OW29296   0.016   2.680   0.577  0.3338  0.0013 -0.2692
 9527SOL    HW129297   0.007   2.590   0.546 -1.2893  0.0071  0.1234
 9527SOL    HW229298  -0.007   2.733   0.501 -0.5734  0.0479  0.0264
 9528SOL     OW29299   1.605   6.642   4.119 -0.1555 -0.0239  0.0601
 9528SOL    HW129300   1.535   6.654   4.055 -0.8452  1.2081  1.0248
 9528SOL    HW229301   1.568   6.583   4.185  0.3569 -0.8230 -0.3452
 9529SOL     OW29302   5.189   4.349   2.103 -0.5494 -0.4460 -0.2277
 9529SOL    HW129303   5.145   4.432   2.120 -0.1530 -0.4420  0.8175
 9529SOL    HW229304   5.215   4.354   2.011  1.4838  1.5629  0.4058
 9530SOL     OW29305   6.262   3.849   5.217  0.0439  0.5110 -0.1987
 9530SOL    HW129306   6.199   3.878   5.151 -2.4800 -2.7895  0.5978
 9530SOL    HW229307   6.247   3.906   5.292 -0.5323  1.1027 -0.7600
 9531SOL     OW29308   2.703   5.771   0.751  0.3633  0.6315 -0.1028
 9531SOL    HW129309   2.778   5.755   0.809  0.5834  0.7113 -0.3691
 9531SOL    HW229310   2.626   5.756   0.807  0.5683 -0.5480 -0.1235
 9532SOL     OW29311   0.701   4.935   5.181  0.1428 -0.4124 -0.0116
 9532SOL    HW129312   0.633   4.872   5.204 -0.2613  0.6700  1.8563
 9532SOL    HW229313   0.780   4.883   5.170 -0.5035 -1.4114 -0.0227
 9533SOL     OW29314   0.961   0.258   6.291  0.2123 -0.1842  0.4045
 9533SOL    HW129315   1.026   0.258   6.222 -1.1269 -0.3472 -0.8813
 9533SOL    HW229316   0.941   0.351   6.305 -0.2689 -0.1950 -0.1716
 9534SOL     OW29317   3.750   0.902   1.330  0.1410  0.2632 -0.1261
 9534SOL    HW129318   3.817   0.888   1.397  0.6167 -1.1532 -0.8703
 9534SOL    HW229319   3.719   0.991   1.346 -0.5547 -0.4226  2.6972
 9535SOL     OW29320   4.758   6.742   3.384  0.1378  0.4809 -0.3751
 9535SOL    HW129321   4.759   6.732   3.480 -2.3387  0.3059 -0.3262
 9535SOL    HW229322   4.805   6.824   3.368 -0.6017  1.2184  1.0989
 9536SOL     OW29323   4.822   2.158   3.993 -0.6223  0.4803  0.0835
 9536SOL    HW129324   4.781   2.161   3.907  0.5838  0.3363 -0.5031
 9536SOL    HW229325   4.893   2.222   3.988  0.5564 -0.7763  0.3853
 9537SOL     OW29326   1.018   0.641   4.092 -0.6847  0.1572  0.1258
 9537SOL    HW129327   0.966   0.718   4.116 -0.8060  0.0400  0.2344
 9537SOL    HW229328   0.978   0.569   4.139 -0.9336 -0.0796 -0.4521
 9538SOL     OW29329   5.785   6.208   2.098  0.6653 -0.1793 -0.2637
 9538SOL    HW129330   5.767   6.267   2.025 -0.4888  1.0869  1.0098
 9538SOL    HW229331   5.849   6.255   2.152  0.1493 -0.2966  0.4704
 9539SOL     OW29332   3.691   1.026   2.380  0.2352  0.7142 -0.2521
 9539SOL    HW129333   3.678   0.947   2.434 -1.8362  1.4914  0.4427
 9539SOL    HW229334   3.650   1.004   2.296  1.4403  0.3374 -0.7511
 9540SOL     OW29335   3.877   5.096   5.202  0.5536 -0.2483  0.5950
 9540SOL    HW129336   3.827   5.020   5.232  1.4754 -1.0780  0.0593
 9540SOL    HW229337   3.814   5.147   5.151  0.0937 -0.9627  0.4369
 9541SOL     OW29338   3.420   1.747   5.246 -0.4864 -0.3060 -0.1269
 9541SOL    HW129339   3.483   1.675   5.247 -1.9172 -1.6012 -0.5156
 9541SOL    HW229340   3.458   1.811   5.186  2.6532  1.0336  3.1418
 9542SOL     OW29341   0.895   3.297   1.836 -0.2354  0.0662 -0.2312
 9542SOL    HW129342   0.966   3.360   1.824 -0.4064  0.5125  1.0659
 9542SOL    HW229343   0.822   3.350   1.868 -0.3252 -0.8247  1.0543
 9543SOL     OW29344   0.897   5.358   3.729  0.8099 -0.2779  0.3661
 9543SOL    HW129345   0.815   5.397   3.698  1.4424  0.8256  0.0301
 9543SOL    HW229346   0.926   5.417   3.799  1.8108 -0.1041 -0.1820
 9544SOL     OW29347   2.174   0.296   5.310  0.9453 -0.1125 -0.4056
 9544SOL    HW129348   2.216   0.210   5.311  0.5135 -0.3314  1.2642
 9544SOL    HW229349   2.096   0.284   5.255  1.6192 -0.4120 -1.3056
 9545SOL     OW29350   4.278   4.027   1.121 -1.0253  0.2921 -0.0047
 9545SOL    HW129351   4.237   4.034   1.207  0.2390 -0.1228  0.6402
 9545SOL    HW229352   4.272   3.934   1.099 -1.1459  0.3611 -0.2635
 9546SOL     OW29353   1.398   4.354   2.778 -0.4740 -0.2946  0.0156
 9546SOL    HW129354   1.362   4.297   2.845  1.5186  0.7525  2.0418
 9546SOL    HW229355   1.488   4.323   2.767  0.5848  2.3099  1.0469
 9547SOL     OW29356   4.667   4.013   3.055  0.0978 -0.0888 -0.0951
 9547SOL    HW129357   4.721   3.975   3.125 -1.4559 -0.5638  0.8673
 9547SOL    HW229358   4.728   4.023   2.981  1.8233  0.6316  1.3758
 9548SOL     OW29359   3.999   2.761   6.041 -0.1943 -0.6524  0.2449
 9548SOL    HW129360   3.998   2.705   5.964  1.8709 -0.3754 -0.0127
 9548SOL    HW229361   4.038   2.707   6.110  1.1514  0.1995  0.1755
 9549SOL     OW29362   0.509   5.897   3.887  0.0700 -0.0622 -0.0060
 9549SOL    HW129363   0.602   5.882   3.871  0.1090 -0.7615  0.8152
 9549SOL    HW229364   0.475   5.931   3.805  1.4980  2.3000  0.3413
 9550SOL     OW29365   3.056   5.265   1.154 -0.6625 -0.0328 -0.8170
 9550SOL    HW129366   2.971   5.299   1.180 -0.0019  0.8337  0.2880
 9550SOL    HW229367   3.083   5.320   1.080  0.1403  1.5088  0.5894
 9551SOL     OW29368   5.653   1.843   6.617 -0.4376 -0.1540 -0.4364
 9551SOL    HW129369   5.608   1.785   6.555 -0.7612  0.9591 -1.2692
 9551SOL    HW229370   5.643   1.930   6.578  1.2480  0.2760  0.0824
 9552SOL     OW29371   3.588   2.038   0.745 -0.4434  0.0058  0.1585
 9552SOL    HW129372   3.538   1.976   0.692 -0.1986 -0.0272 -0.0335
 9552SOL    HW229373   3.554   2.124   0.720 -0.0861  0.0130 -0.3075
 9553SOL     OW29374   3.094   2.958   4.299 -0.4126 -0.4582  0.3635
 9553SOL    HW129375   3.163   2.970   4.365 -0.5407 -0.2678  0.4631
 9553SOL    HW229376   3.135   2.986   4.217 -1.0607  1.7780  0.7699
 9554SOL     OW29377   5.045   4.913   5.753  0.3738  0.1579 -0.9351
 9554SOL    HW129378   4.998   4.854   5.812  0.2854 -0.5998 -1.7390
 9554SOL    HW229379   5.138   4.893   5.769  0.4296  1.3671  0.3599
 9555SOL     OW29380   5.684   6.419   6.681 -0.3917  0.4156  0.0797
 9555SOL    HW129381   5.779   6.411   6.685 -0.5006 -0.5474  0.9891
 9555SOL    HW229382   5.659   6.453   6.767 -1.0437 -1.3892  0.6230
 9556SOL     OW29383   3.669   3.340   6.062  0.1501  0.1207 -0.0991
 9556SOL    HW129384   3.608   3.398   6.016 -0.0291 -1.1882 -1.5590
 9556SOL    HW229385   3.728   3.399   6.109 -1.9184  1.4228  0.9513
 9557SOL     OW29386   0.071   0.752   1.200 -0.0470 -0.5854  0.1618
 9557SOL    HW129387  -0.009   0.756   1.252  0.1238 -2.5764  0.5943
 9557SOL    HW229388   0.136   0.712   1.258  1.4254  1.4766 -0.0042
 9558SOL     OW29389   5.570   1.122   5.683 -0.2775 -0.1324 -0.3066
 9558SOL    HW129390   5.619   1.040   5.694 -1.6885 -0.5611  3.8753
 9558SOL    HW229391   5.479   1.094   5.674 -0.7194  0.9140  0.7636
 9559SOL     OW29392   1.166   1.901   5.401 -0.3460 -0.1931 -0.0879
 9559SOL    HW129393   1.193   1.818   5.439 -1.2911 -0.0694  0.8790
 9559SOL    HW229394   1.113   1.877   5.325  0.3208 -0.4543 -0.4742
 9560SOL     OW29395   0.886   4.751   6.210 -0.0264 -0.1455  0.3876
 9560SOL    HW129396   0.932   4.827   6.246  2.7016 -0.7763 -1.6185
 9560SOL    HW229397   0.923   4.676   6.255  0.0751 -0.5698 -0.3828
 9561SOL     OW29398   1.335   1.778   6.265 -0.1174 -0.4355  0.1863
 9561SOL    HW129399   1.392   1.790   6.341  1.8081 -1.7296 -1.0061
 9561SOL    HW229400   1.300   1.866   6.247  0.9793  0.2556  1.3387
 9562SOL     OW29401   6.303   1.987   4.868 -0.4667 -0.4116  0.2437
 9562SOL    HW129402   6.305   2.034   4.951  1.0700  1.3423 -0.7362
 9562SOL    HW229403   6.352   1.906   4.885  3.1382  1.6323  0.1292
 9563SOL     OW29404   0.241   3.352   4.469 -0.1802  0.0880  0.0551
 9563SOL    HW129405   0.232   3.302   4.550  0.0977  1.5632  1.0100
 9563SOL    HW229406   0.325   3.397   4.478  0.3055 -0.4886 -1.4789
 9564SOL     OW29407   1.494   0.430   3.873 -1.0601 -0.4293  0.5610
 9564SOL    HW129408   1.528   0.363   3.813 -0.5149  0.1054  0.2727
 9564SOL    HW229409   1.400   0.413   3.877 -1.0901 -0.4963 -0.3993
 9565SOL     OW29410   2.932   1.502   3.423 -0.6086 -0.3091  0.5058
 9565SOL    HW129411   2.921   1.596   3.440  1.8797 -0.2818  2.2535
 9565SOL    HW229412   2.965   1.467   3.506  1.2080 -2.2092 -0.9711
 9566SOL     OW29413   2.455   5.516   3.883 -0.0159  0.6280  0.4760
 9566SOL    HW129414   2.521   5.541   3.948 -0.7710  0.7910  1.1872
 9566SOL    HW229415   2.385   5.580   3.894  0.0792  0.9753 -0.8649
 9567SOL     OW29416   3.207   6.118   1.691  0.0953  0.0128 -0.8067
 9567SOL    HW129417   3.153   6.082   1.761  0.3383  0.6293 -0.2951
 9567SOL    HW229418   3.145   6.159   1.630 -0.2711 -2.1135 -1.9186
 9568SOL     OW29419   4.142   5.922   1.209 -0.0083  0.2227 -0.1806
 9568SOL    HW129420   4.048   5.930   1.195 -0.3119 -0.0764  1.4946
 9568SOL    HW229421   4.181   5.931   1.122 -1.6815 -1.3306 -1.1312
 9569SOL     OW29422   5.248   0.935   2.631 -0.0156 -0.3866 -0.1932
 9569SOL    HW129423   5.222   0.879   2.558 -0.5324  1.1806 -1.2217
 9569SOL    HW229424   5.185   0.915   2.701  0.0806 -1.4050 -0.3894
 9570SOL     OW29425   2.515   6.486   1.824 -0.2323  0.2405  0.2314
 9570SOL    HW129426   2.528   6.404   1.777  0.1669 -0.0849  0.9028
 9570SOL    HW229427   2.594   6.538   1.806  0.2943 -0.2062  1.1838
 9571SOL     OW29428   0.011   6.316   6.262 -0.7610  0.1706  0.0358
 9571SOL    HW129429  -0.041   6.298   6.184 -1.0344  3.1152 -0.4975
 9571SOL    HW229430   0.095   6.271   6.246 -1.0133  0.3070 -1.6796
 9572SOL     OW29431   4.212   0.084   4.153 -0.2295 -0.3147  0.8325
 9572SOL    HW129432   4.169   0.054   4.233 -2.4021  0.8563  0.1380
 9572SOL    HW229433   4.291   0.129   4.183 -0.7871 -0.2925  2.2743
 9573SOL     OW29434   2.347   4.623   2.447  0.8458  0.2361  0.0952
 9573SOL    HW129435   2.358   4.589   2.536 -0.3231  0.0736  0.1848
 9573SOL    HW229436   2.432   4.606   2.405  1.1261 -0.4675  0.9134
 9574SOL     OW29437   2.428   5.699   2.181  0.1516 -0.3664  0.0960
 9574SOL    HW129438   2.405   5.627   2.240 -1.2829 -0.1932 -0.2228
 9574SOL    HW229439   2.421   5.662   2.093  2.4811 -0.6746  0.0112
 9575SOL     OW29440   3.865   0.405   2.925 -0.3374 -0.7352 -0.1420
 9575SOL    HW129441   3.941   0.406   2.867  1.1792  0.3204  1.8283
 9575SOL    HW229442   3.822   0.322   2.906  0.8048 -0.9678 -1.8749
 9576SOL     OW29443   4.459   5.981   4.682  0.5499  0.3398 -0.0783
 9576SOL    HW129444   4.514   6.009   4.608  0.4151  0.8040 -0.0026
 9576SOL    HW229445   4.389   5.931   4.642  1.4969 -0.9906 -0.1079
 9577SOL     OW29446   1.329   2.881   5.245 -0.4353 -0.3064 -0.1290
 9577SOL    HW129447   1.289   2.816   5.186  0.3353 -1.3769  0.5242
 9577SOL    HW229448   1.364   2.948   5.186 -1.0618 -0.5690 -0.8154
 9578SOL     OW29449   2.858   6.396   3.974  0.1582 -0.2377  0.1163
 9578SOL    HW129450   2.938   6.355   4.009  0.2213  0.3703  0.7072
 9578SOL    HW229451   2.884   6.430   3.889  0.2296 -1.0256 -0.1764
 9579SOL     OW29452   5.661   2.493   3.946 -0.1321  0.6059 -0.3630
 9579SOL    HW129453   5.701   2.466   4.029 -1.1689  1.3136  0.3792
 9579SOL    HW229454   5.723   2.463   3.879  1.5955  1.6062  0.7462
 9580SOL     OW29455   5.392   3.601   1.458  0.0786  0.1317 -0.4399
 9580SOL    HW129456   5.432   3.579   1.373  1.2741 -0.2943  0.2292
 9580SOL    HW229457   5.392   3.519   1.507  0.2461  0.5918  0.3329
 9581SOL     OW29458   5.339   4.522   2.908 -0.2018 -0.7431  0.6506
 9581SOL    HW129459   5.252   4.520   2.867  0.0942  0.0199 -0.0289
 9581SOL    HW229460   5.394   4.469   2.850 -0.1294 -0.9372  0.8943
 9582SOL     OW29461   5.549   1.239   3.879 -0.5105  0.2939 -0.0561
 9582SOL    HW129462   5.508   1.153   3.872 -2.7121  1.4514 -1.6890
 9582SOL    HW229463   5.477   1.299   3.896  0.9391  1.9112  0.5609
 9583SOL     OW29464   2.818   1.827   4.193  0.3244  0.4153 -0.4370
 9583SOL    HW129465   2.865   1.906   4.217 -0.3141  0.3677  1.0428
 9583SOL    HW229466   2.822   1.824   4.097  0.2522  2.2894 -0.5164
 9584SOL     OW29467   4.885   5.978   3.132 -0.4716 -0.5084  0.2230
 9584SOL    HW129468   4.808   5.926   3.155 -1.2739 -0.4586 -2.1951
 9584SOL    HW229469   4.949   5.958   3.200 -1.4107 -3.2018  0.3687
 9585SOL     OW29470   4.296   1.378   2.936 -0.3053  0.2275 -0.3671
 9585SOL    HW129471   4.367   1.429   2.976  0.3208 -0.9276  0.0192
 9585SOL    HW229472   4.270   1.316   3.004 -1.6709  0.6216 -0.5240
 9586SOL     OW29473   4.762   6.068   3.414  0.3972 -0.1399  0.0190
 9586SOL    HW129474   4.732   6.083   3.504  0.0980 -1.3916  0.1341
 9586SOL    HW229475   4.685   6.033   3.369  0.2161  1.5227 -1.0237
 9587SOL     OW29476   0.098   0.141   1.025 -0.2298  0.7535 -0.5316
 9587SOL    HW129477   0.036   0.182   1.085 -0.4361 -1.1002  0.5501
 9587SOL    HW229478   0.184   0.172   1.052 -0.5915  2.6042 -1.4516
 9588SOL     OW29479   0.361   0.112   0.430  0.0604 -0.2524  0.4700
 9588SOL    HW129480   0.358   0.137   0.337  1.1499  2.3075  1.0778
 9588SOL    HW229481   0.272   0.087   0.451  0.0821 -2.2592 -1.6200
 9589SOL     OW29482   2.960   0.965   1.760 -0.7874 -0.5095  0.1668
 9589SOL    HW129483   2.870   0.983   1.787 -1.1848 -1.7911 -0.2493
 9589SOL    HW229484   2.988   0.894   1.817  0.3851  0.6925  1.1048
 9590SOL     OW29485   0.700   5.889   4.278 -0.3353 -0.2367  0.1171
 9590SOL    HW129486   0.718   5.951   4.348 -0.7184  0.7368 -0.6402
 9590SOL    HW229487   0.659   5.941   4.209  0.9069 -0.9805 -1.2316
 9591SOL     OW29488   3.731   2.039   0.190  0.1991 -0.0560  0.3550
 9591SOL    HW129489   3.744   2.084   0.273 -0.4704  0.4193  0.2059
 9591SOL    HW229490   3.683   1.959   0.213 -3.4644  1.9446 -0.0095
 9592SOL     OW29491   2.718   5.613   1.307  0.3464 -0.3010  0.4232
 9592SOL    HW129492   2.632   5.582   1.281  1.5452 -3.1415 -0.3456
 9592SOL    HW229493   2.734   5.571   1.392  0.8010  0.5351  0.7601
 9593SOL     OW29494   1.636   5.053   3.259 -0.4521  0.2662  0.0618
 9593SOL    HW129495   1.684   5.102   3.193  1.7229 -1.3058  0.4348
 9593SOL    HW229496   1.563   5.110   3.284  1.4904  2.8781 -0.1645
 9594SOL     OW29497   3.166   4.678   4.028  0.6326 -0.1524  0.3576
 9594SOL    HW129498   3.209   4.742   3.971  0.8798 -0.8771 -0.2811
 9594SOL    HW229499   3.192   4.593   3.992 -2.5755 -0.6285 -0.9860
 9595SOL     OW29500   3.574   6.709   6.738 -0.2114  0.4640  0.1629
 9595SOL    HW129501   3.610   6.620   6.738  1.7287  1.2310 -1.0424
 9595SOL    HW229502   3.488   6.699   6.695  0.9146 -0.4759 -1.9470
 9596SOL     OW29503   0.519   2.739   3.189 -0.2000  0.3380 -0.2329
 9596SOL    HW129504   0.462   2.751   3.265  0.1775 -0.2877  0.1525
 9596SOL    HW229505   0.460   2.737   3.115 -0.4957  1.9739 -0.0702
 9597SOL     OW29506   1.946   4.098   5.513  0.1854 -0.0557  0.1502
 9597SOL    HW129507   1.868   4.130   5.559  0.8394  1.2934  0.3492
 9597SOL    HW229508   1.959   4.009   5.547 -1.5178 -0.4770 -0.2243
 9598SOL     OW29509   5.508   6.706   5.547 -0.4000  0.1673 -0.2535
 9598SOL    HW129510   5.566   6.780   5.529 -2.7093  1.9256 -0.6589
 9598SOL    HW229511   5.453   6.699   5.469 -0.8470 -1.3755  0.1855
 9599SOL     OW29512   4.698   2.485   0.629 -0.1459 -0.0920  0.0165
 9599SOL    HW129513   4.691   2.437   0.546  1.3472  0.5366 -0.4925
 9599SOL    HW229514   4.733   2.421   0.691 -1.4638 -0.6215  0.2281
 9600SOL     OW29515   3.407   0.821   1.300 -0.1501 -0.2374  0.3779
 9600SOL    HW129516   3.369   0.795   1.216 -0.2279  1.5087 -0.1518
 9600SOL    HW229517   3.335   0.862   1.347 -0.1929 -1.5139  1.4597
 9601SOL     OW29518   0.615   6.586   1.339  0.4928 -0.2243  0.1306
 9601SOL    HW129519   0.527   6.623   1.340  0.0531 -1.1817 -1.4690
 9601SOL    HW229520   0.671   6.660   1.314 -0.0999 -0.0772 -0.7872
 9602SOL     OW29521   0.698   1.674   3.760  0.1331 -0.1893  0.3980
 9602SOL    HW129522   0.785   1.714   3.761  0.7280 -1.4262  0.1404
 9602SOL    HW229523   0.716   1.580   3.769 -1.0770 -0.6170 -1.4000
 9603SOL     OW29524   5.026   6.115   1.784 -0.8073  0.6405  0.2994
 9603SOL    HW129525   4.937   6.125   1.818 -0.3069 -0.8874  2.1621
 9603SOL    HW229526   5.048   6.024   1.803 -0.6537 -0.4537 -4.6560
 9604SOL     OW29527   5.845   5.083   1.390 -1.0573 -0.2673  0.1782
 9604SOL    HW129528   5.755   5.114   1.397 -1.5672 -1.7242  0.0703
 9604SOL    HW229529   5.853   5.014   1.455 -0.9858 -2.4175 -2.0413
 9605SOL     OW29530   4.963   2.479   3.609 -0.7640  0.3891  0.0910
 9605SOL    HW129531   5.048   2.482   3.653 -1.2243 -2.4241  1.3072
 9605SOL    HW229532   4.903   2.525   3.668 -0.4155  0.9504  0.0128
 9606SOL     OW29533   2.633   3.025   2.208 -0.2646 -0.1765  0.1126
 9606SOL    HW129534   2.624   2.934   2.182  1.6841 -0.2403 -0.4176
 9606SOL    HW229535   2.724   3.047   2.188 -1.5937  2.8996 -2.9910
 9607SOL     OW29536   3.062   6.764   1.517 -0.3650  0.5987 -0.3571
 9607SOL    HW129537   3.149   6.725   1.524 -0.5820 -0.0168 -1.0024
 9607SOL    HW229538   3.003   6.690   1.505 -0.7721  1.1312 -1.7409
 9608SOL     OW29539   0.239   6.700   5.966  0.5447  0.1840  0.3902
 9608SOL    HW129540   0.251   6.622   5.912  2.7439  1.0794 -0.4875
 9608SOL    HW229541   0.170   6.749   5.921  0.5693 -0.2902 -0.1826
 9609SOL     OW29542   0.671   5.990   2.630  0.4218  0.4062 -0.0628
 9609SOL    HW129543   0.764   6.012   2.628  0.5813 -0.2313  0.2199
 9609SOL    HW229544   0.662   5.928   2.702 -0.3647  1.0791  0.4165
 9610SOL     OW29545   0.535   4.343   0.285  0.1253  0.2826 -0.2287
 9610SOL    HW129546   0.538   4.300   0.199  0.8037 -1.4051  0.6150
 9610SOL    HW229547   0.607   4.406   0.282  1.3298 -1.0604 -0.2580
 9611SOL     OW29548   0.016   6.208   2.000 -0.5916 -0.4984 -0.0678
 9611SOL    HW129549  -0.007   6.216   2.093 -1.2115 -1.3094 -0.1532
 9611SOL    HW229550   0.043   6.117   1.989 -0.1482 -0.3045 -0.6045
 9612SOL     OW29551   3.634   0.001   3.667 -0.1776  0.4859 -0.1566
 9612SOL    HW129552   3.724   0.025   3.689 -0.1479 -0.2462  0.5357
 9612SOL    HW229553   3.643  -0.073   3.607 -0.3102  0.3276  0.0147
 9613SOL     OW29554   2.744   4.899   0.361 -0.2026  0.6798 -0.1118
 9613SOL    HW129555   2.737   4.966   0.429 -1.7506  0.1043  0.3328
 9613SOL    HW229556   2.818   4.845   0.387  0.0943  1.3150  0.3526
 9614SOL     OW29557   0.600   3.237   2.160 -0.1005  0.1512  0.0950
 9614SOL    HW129558   0.643   3.153   2.141 -0.9003 -0.6147  1.5339
 9614SOL    HW229559   0.667   3.303   2.143  0.4778 -0.7667 -1.2533
 9615SOL     OW29560   3.906   6.738   1.549  0.0265  0.3824  0.1504
 9615SOL    HW129561   3.903   6.731   1.644 -2.4556 -1.8574 -0.0192
 9615SOL    HW229562   3.925   6.830   1.532 -0.8851  1.1185  2.8118
 9616SOL     OW29563   6.450   6.213   1.375 -0.5824 -0.4182  0.1493
 9616SOL    HW129564   6.471   6.292   1.425 -0.2423  0.7040 -1.7047
 9616SOL    HW229565   6.481   6.232   1.287 -4.2860 -0.9635 -1.3726
 9617SOL     OW29566   3.108   1.979   4.423 -0.2716  0.4419 -0.0993
 9617SOL    HW129567   3.054   2.002   4.347 -0.1613  2.9161  0.5081
 9617SOL    HW229568   3.139   1.891   4.405 -0.5015  0.8626 -2.7753
 9618SOL     OW29569   1.303   0.162   0.311 -0.4388  0.1476  0.6197
 9618SOL    HW129570   1.361   0.233   0.338 -0.1863 -0.2367  1.1094
 9618SOL    HW229571   1.339   0.132   0.227 -1.9097  2.1102 -0.7372
 9619SOL     OW29572   2.605   2.014   4.035  0.2602  0.7341 -0.3817
 9619SOL    HW129573   2.564   1.935   4.000  0.1760  1.9510 -3.1735
 9619SOL    HW229574   2.586   2.012   4.129 -0.1193 -2.3053 -0.4890
 9620SOL     OW29575   4.109   5.376   1.434 -0.1543 -0.0797 -0.3548
 9620SOL    HW129576   4.121   5.282   1.419 -0.9976 -0.2405 -0.0472
 9620SOL    HW229577   4.055   5.405   1.361  1.4572  0.4920 -1.3342
 9621SOL     OW29578   3.120   2.795   2.867  0.1057  0.0411  0.1887
 9621SOL    HW129579   3.038   2.776   2.912 -0.3440 -1.0677 -1.0635
 9621SOL    HW229580   3.095   2.853   2.795  0.2416 -1.1603 -0.8428
 9622SOL     OW29581   2.915   4.853   3.874 -0.2624  0.6506  0.2490
 9622SOL    HW129582   2.838   4.881   3.925  0.0516  0.3682  0.8935
 9622SOL    HW229583   2.973   4.815   3.940 -0.3434 -0.7955 -0.4910
 9623SOL     OW29584   5.388   3.133   1.286 -0.7162  0.3074 -0.3709
 9623SOL    HW129585   5.453   3.063   1.285 -2.0064 -0.9135  0.1013
 9623SOL    HW229586   5.304   3.088   1.284 -1.5554  1.9021 -1.7039
 9624SOL     OW29587   5.341   3.195   2.126  0.3652  0.0104  0.3269
 9624SOL    HW129588   5.311   3.116   2.170  0.2009  0.1168  0.4066
 9624SOL    HW229589   5.338   3.173   2.033  1.9322 -0.6505  0.4182
 9625SOL     OW29590   6.671   1.816   2.545 -0.2127  0.4635 -0.5168
 9625SOL    HW129591   6.593   1.773   2.579  0.7705 -1.2078 -0.3467
 9625SOL    HW229592   6.672   1.902   2.588 -0.3782 -0.6282  1.7103
 9626SOL     OW29593   0.595   6.692   0.529 -1.0078 -0.4262  0.1992
 9626SOL    HW129594   0.647   6.773   0.524  0.3912 -1.3447 -0.6481
 9626SOL    HW229595   0.504   6.721   0.521 -0.6307  1.2254  1.7663
 9627SOL     OW29596   3.065   2.154   5.406 -0.3537 -0.0988  0.5739
 9627SOL    HW129597   3.113   2.137   5.487 -0.9553 -0.2689  0.8980
 9627SOL    HW229598   2.988   2.098   5.412 -0.1235 -0.5211 -0.3689
 9628SOL     OW29599   2.910   6.614   0.573 -0.2959  0.4468  0.0110
 9628SOL    HW129600   2.960   6.534   0.557 -0.3876  0.6399 -1.2578
 9628SOL    HW229601   2.837   6.585   0.628 -1.0587 -0.5883 -1.5185
 9629SOL     OW29602   0.986   6.739   6.477 -0.7104  0.2745 -0.5812
 9629SOL    HW129603   0.914   6.790   6.514 -0.3326  0.7128 -0.4490
 9629SOL    HW229604   0.996   6.665   6.538 -0.5284  0.6377 -0.1641
 9630SOL     OW29605   3.159   0.069   2.305 -0.3594  0.3243  0.0770
 9630SOL    HW129606   3.225   0.012   2.344  0.6507  1.1303 -0.4363
 9630SOL    HW229607   3.109   0.011   2.247  0.5227 -0.0918 -0.2843
 9631SOL     OW29608   2.584   2.084   5.437 -0.5065  0.3517  0.0866
 9631SOL    HW129609   2.556   2.175   5.432  0.7474  0.7132 -0.7923
 9631SOL    HW229610   2.591   2.065   5.531 -2.5277  0.5814  0.3043
 9632SOL     OW29611   4.065   6.465   4.361 -0.2100  0.1975  0.2325
 9632SOL    HW129612   4.102   6.431   4.280  0.2067 -0.2315  0.5976
 9632SOL    HW229613   4.007   6.396   4.392  0.0227  0.1523  0.5636
 9633SOL     OW29614   2.082   2.712   6.517  0.5576 -0.5379 -0.0409
 9633SOL    HW129615   2.055   2.620   6.515  1.2854 -0.7274 -2.5002
 9633SOL    HW229616   2.019   2.754   6.575 -3.3631 -1.4905 -3.3731
 9634SOL     OW29617   5.199   1.056   3.223  0.0162  0.2217 -0.1188
 9634SOL    HW129618   5.250   0.980   3.196 -0.3290 -0.2638  0.5725
 9634SOL    HW229619   5.195   1.112   3.146  1.6110  0.2715 -0.1738
 9635SOL     OW29620   1.789   5.446   3.146 -0.2370 -0.2398 -0.3045
 9635SOL    HW129621   1.874   5.448   3.101 -0.1138  1.2777 -0.0330
 9635SOL    HW229622   1.747   5.528   3.120 -1.6272 -0.9985 -0.4419
 9636SOL     OW29623   6.171   0.386   3.270 -0.3636 -0.0729 -0.1410
 9636SOL    HW129624   6.180   0.481   3.279 -1.1458  0.2276 -2.2579
 9636SOL    HW229625   6.250   0.358   3.225  0.3445 -0.5803  1.3992
 9637SOL     OW29626   1.237   0.332   3.153  0.2301  0.4863  0.9788
 9637SOL    HW129627   1.320   0.372   3.180  1.9444 -2.5966  0.6275
 9637SOL    HW229628   1.251   0.306   3.062 -0.6753 -1.0792  1.2575
 9638SOL     OW29629   0.945   0.826   0.432 -0.1647  0.3261  0.2874
 9638SOL    HW129630   0.965   0.909   0.475  0.4371  0.2777  0.1144
 9638SOL    HW229631   0.986   0.834   0.345 -0.0891 -0.1556  0.2764
 9639SOL     OW29632   4.028   3.043   5.072 -0.2605 -0.1375  0.2138
 9639SOL    HW129633   3.952   3.100   5.085 -0.8343 -1.1156  1.2226
 9639SOL    HW229634   4.104   3.101   5.082 -0.8277  0.4197  1.4053
 9640SOL     OW29635   5.400   3.983   4.975 -0.5593 -0.4050 -0.2810
 9640SOL    HW129636   5.413   3.976   4.881 -1.3598  0.4672 -0.4724
 9640SOL    HW229637   5.360   3.900   5.000  2.5556 -1.9282 -0.1554
 9641SOL     OW29638   4.403   1.241   5.844 -0.1719  0.4953  0.0257
 9641SOL    HW129639   4.449   1.185   5.782 -0.0049  0.3229  0.3040
 9641SOL    HW229640   4.315   1.250   5.807  0.6567  2.5184 -1.5877
 9642SOL     OW29641   6.237   6.637   3.042 -0.1854 -0.4934 -0.4510
 9642SOL    HW129642   6.331   6.621   3.043 -0.0944  0.0790  0.6827
 9642SOL    HW229643   6.228   6.731   3.029 -0.6052 -0.6108 -1.0099
 9643SOL     OW29644   4.361   1.333   0.497  0.5018 -0.5382  0.1043
 9643SOL    HW129645   4.288   1.278   0.469  0.3222 -0.4239  0.3447
 9643SOL    HW229646   4.374   1.311   0.590  0.1851  0.0973  0.2994
 9644SOL     OW29647   1.548   0.167   0.609  0.1912  0.1169  0.2269
 9644SOL    HW129648   1.555   0.074   0.631 -0.3602  0.1005  0.3360
 9644SOL    HW229649   1.472   0.198   0.659  1.2621  0.9608  1.3753
 9645SOL     OW29650   1.878   2.316   4.799  0.0979  0.9145  0.0424
 9645SOL    HW129651   1.869   2.404   4.764  0.3288  1.1597  0.5876
 9645SOL    HW229652   1.790   2.292   4.828  0.1370  1.1877  0.3987
 9646SOL     OW29653   4.467   0.102   0.730 -0.3917  0.5196  0.4954
 9646SOL    HW129654   4.539   0.161   0.751 -2.2657  2.1454  2.5490
 9646SOL    HW229655   4.410   0.153   0.673  0.3990 -0.9964 -1.6927
 9647SOL     OW29656   0.768   6.495   4.138  0.0236  0.3444  0.2792
 9647SOL    HW129657   0.782   6.534   4.225  0.1436 -1.0060  0.8666
 9647SOL    HW229658   0.732   6.409   4.156 -0.4720  0.2721 -1.0390
 9648SOL     OW29659   4.096   4.024   3.842  0.1674  0.0002 -0.5755
 9648SOL    HW129660   4.181   3.984   3.827  1.1283  1.3427  1.1505
 9648SOL    HW229661   4.038   3.983   3.777  2.1228 -0.8814 -1.7937
 9649SOL     OW29662   1.715   5.040   0.787 -0.0484 -1.1562 -0.0960
 9649SOL    HW129663   1.792   5.048   0.730  0.8597 -2.6814  0.9018
 9649SOL    HW229664   1.751   5.033   0.875 -1.3885 -0.5639  0.5043
 9650SOL     OW29665   3.682   3.424   4.512 -0.4898 -0.3684  0.3028
 9650SOL    HW129666   3.590   3.397   4.519 -0.1702 -1.3407  0.8296
 9650SOL    HW229667   3.696   3.481   4.587 -0.4764 -0.7551  0.5908
 9651SOL     OW29668   4.486   6.066   1.137 -0.1242  0.2357 -0.0313
 9651SOL    HW129669   4.478   6.137   1.201 -1.4640 -1.1391  1.3687
 9651SOL    HW229670   4.428   6.092   1.066  0.8060  1.4232 -0.3709
 9652SOL     OW29671   4.593   5.806   6.326  0.4769 -0.0115  0.1222
 9652SOL    HW129672   4.570   5.847   6.242 -1.6537 -2.0354 -0.3136
 9652SOL    HW229673   4.516   5.756   6.351  2.3355 -2.2841  1.5541
 9653SOL     OW29674   3.821   1.387   1.246 -0.4270 -0.1048 -0.0752
 9653SOL    HW129675   3.882   1.330   1.199  1.4850  0.4593  1.6421
 9653SOL    HW229676   3.761   1.419   1.179  0.8672 -1.0856 -1.7340
 9654SOL     OW29677   4.302   0.671   2.438  0.1441 -0.7227 -0.2394
 9654SOL    HW129678   4.254   0.717   2.370 -1.1054 -0.6108  0.7035
 9654SOL    HW229679   4.394   0.685   2.416 -0.2015  1.7879 -0.2694
 9655SOL     OW29680   1.586   4.820   5.726 -0.0984  0.5033  0.6026
 9655SOL    HW129681   1.568   4.789   5.815 -0.6322  2.0975  1.0713
 9655SOL    HW229682   1.500   4.833   5.687  0.1385 -0.5056 -0.2740
 9656SOL     OW29683   4.227   2.294   3.860  0.6651 -0.6161 -0.4568
 9656SOL    HW129684   4.295   2.361   3.864  0.0839  0.1035 -2.3168
 9656SOL    HW229685   4.146   2.341   3.878  0.7049 -1.6071  2.5203
 9657SOL     OW29686   5.165   0.687   4.260  0.8406  0.3057  0.3616
 9657SOL    HW129687   5.091   0.632   4.235  1.0191  0.0542  0.3940
 9657SOL    HW229688   5.237   0.626   4.277  0.2434  0.3027  3.2359
 9658SOL     OW29689   2.907   2.947   6.091 -0.2933 -0.0095 -0.4337
 9658SOL    HW129690   2.857   2.925   6.169 -0.6602 -1.7686 -1.1398
 9658SOL    HW229691   2.849   2.925   6.018  0.4039  0.7102 -1.2238
 9659SOL     OW29692   2.816   5.520   3.216  0.0434  0.2411 -0.1372
 9659SOL    HW129693   2.817   5.603   3.168  0.6076 -0.1537 -0.8236
 9659SOL    HW229694   2.908   5.500   3.231 -0.0481 -0.7070 -0.7754
 9660SOL     OW29695   3.901   2.247   2.947 -0.4728  0.3697  0.2343
 9660SOL    HW129696   3.949   2.247   2.864 -0.9633 -0.5954 -0.0442
 9660SOL    HW229697   3.873   2.338   2.958  0.2815  0.6711 -0.2501
 9661SOL     OW29698   4.206   6.045   2.188 -0.2612  0.5994 -0.1541
 9661SOL    HW129699   4.179   6.109   2.254  0.5986  0.0328  0.7559
 9661SOL    HW229700   4.298   6.063   2.172  0.7544 -2.1642  2.1830
 9662SOL     OW29701   5.599   5.969   5.714 -0.6258  0.1542  0.1802
 9662SOL    HW129702   5.644   5.898   5.668  0.6509  0.4121  1.0311
 9662SOL    HW229703   5.641   6.049   5.682 -0.4910  0.3966  0.9699
 9663SOL     OW29704   6.690   2.230   2.324  0.0175  0.8683 -0.1925
 9663SOL    HW129705   6.695   2.254   2.416 -1.6051 -1.6183  0.6137
 9663SOL    HW229706   6.769   2.178   2.308 -0.3932  0.0959  0.2194
 9664SOL     OW29707   0.024   1.172   2.858  0.3665  0.2092 -0.0322
 9664SOL    HW129708   0.012   1.081   2.886 -2.0113  0.2935 -0.6940
 9664SOL    HW229709   0.092   1.168   2.791  0.8573 -0.9720  0.5223
 9665SOL     OW29710   1.553   4.689   0.431  0.2750 -0.2331  0.3629
 9665SOL    HW129711   1.492   4.716   0.363 -0.2151 -1.1531  0.4352
 9665SOL    HW229712   1.639   4.715   0.396 -0.1869  1.7120  0.5835
 9666SOL     OW29713   2.523   4.306   5.686  0.3609  0.0736 -0.4864
 9666SOL    HW129714   2.454   4.338   5.628 -1.5711 -0.7913  1.2754
 9666SOL    HW229715   2.546   4.220   5.651 -1.1932 -0.6875  0.3243
 9667SOL     OW29716   3.931   3.510   0.985 -0.2195  0.2190 -0.3314
 9667SOL    HW129717   3.962   3.424   1.014 -0.8297  0.6202  1.6166
 9667SOL    HW229718   3.838   3.497   0.966 -0.2630  0.3853 -0.2359
 9668SOL     OW29719   0.025   1.172   2.477 -0.1434 -0.1366  0.0659
 9668SOL    HW129720   0.100   1.168   2.536 -0.0180  1.3744  0.0111
 9668SOL    HW229721  -0.039   1.113   2.516  0.1951  0.3456  1.3575
 9669SOL     OW29722   4.471   4.786   5.793  0.1958  0.3137 -0.5585
 9669SOL    HW129723   4.446   4.871   5.755 -1.5009 -1.1373 -2.7995
 9669SOL    HW229724   4.519   4.741   5.723 -0.4996 -1.2800 -0.0315
 9670SOL     OW29725   0.502   3.851   6.012 -0.3570 -0.0876 -0.4592
 9670SOL    HW129726   0.429   3.800   5.977  1.1651 -2.4212 -0.4221
 9670SOL    HW229727   0.554   3.875   5.935 -0.1594 -0.1302 -0.3427
 9671SOL     OW29728   1.104   1.936   3.600  0.0755  0.4982 -0.2915
 9671SOL    HW129729   1.124   1.984   3.680 -0.6701  1.6820 -0.7979
 9671SOL    HW229730   1.050   1.863   3.628  0.0267  0.7703  0.3183
 9672SOL     OW29731   1.454   1.499   5.268  0.0691 -0.2200  0.4258
 9672SOL    HW129732   1.475   1.431   5.331 -0.8044 -1.6220 -0.7563
 9672SOL    HW229733   1.481   1.462   5.183  0.2224  1.1799 -0.1500
 9673SOL     OW29734   0.847   6.455   1.462  0.3270 -0.2231  0.0528
 9673SOL    HW129735   0.899   6.408   1.528 -2.0627 -1.6193  1.0139
 9673SOL    HW229736   0.882   6.544   1.463  0.9264 -0.4513  2.5858
 9674SOL     OW29737   6.382   2.660   0.933  0.2961  0.5304 -0.0233
 9674SOL    HW129738   6.308   2.720   0.921 -0.2799 -0.2307 -0.2860
 9674SOL    HW229739   6.389   2.652   1.028 -0.3076  0.1824 -0.0028
 9675SOL     OW29740   3.626   0.218   0.840  0.2843  0.1194 -0.5438
 9675SOL    HW129741   3.696   0.211   0.905  0.1426  0.9217 -0.2975
 9675SOL    HW229742   3.606   0.312   0.837 -1.7330 -0.2678  0.3775
 9676SOL     OW29743   1.259   0.250   3.942 -1.0486 -0.6896  0.3655
 9676SOL    HW129744   1.242   0.193   4.018 -0.9676 -0.6895  0.3837
 9676SOL    HW229745   1.277   0.189   3.870  3.4052 -0.6874  1.3579
 9677SOL     OW29746   4.912   6.619   2.634  0.0416 -0.7880  0.1976
 9677SOL    HW129747   4.900   6.711   2.657 -0.6574 -0.9095  0.3319
 9677SOL    HW229748   4.824   6.587   2.616  0.3472 -1.2533 -0.5314
 9678SOL     OW29749   2.328   3.383   6.553  0.3407  0.1071 -0.7054
 9678SOL    HW129750   2.238   3.387   6.587  0.5472  1.6260 -0.2654
 9678SOL    HW229751   2.376   3.334   6.619 -0.1512 -0.6607 -0.9111
 9679SOL     OW29752   3.485   2.044   4.441  0.3980  0.5132 -0.3909
 9679SOL    HW129753   3.428   2.121   4.439 -0.4076 -0.1204 -2.0822
 9679SOL    HW229754   3.567   2.077   4.479 -0.2412  1.9999 -0.2534
 9680SOL     OW29755   1.830   6.444   4.360 -0.2340 -0.1293 -0.2748
 9680SOL    HW129756   1.850   6.536   4.346  0.9756 -0.5141 -1.2492
 9680SOL    HW229757   1.860   6.425   4.449  0.2749  0.2166 -0.3740
 9681SOL     OW29758   4.179   2.513   5.655  0.7825  0.0650  0.0892
 9681SOL    HW129759   4.153   2.598   5.690 -0.0963 -0.3311  0.4017
 9681SOL    HW229760   4.215   2.533   5.568  0.8684  0.7861  0.2893
 9682SOL     OW29761   5.679   3.843   4.076 -0.1959 -0.4738  0.3924
 9682SOL    HW129762   5.677   3.752   4.045  0.9276 -0.9268  1.6253
 9682SOL    HW229763   5.700   3.894   3.998 -1.4153 -1.2170 -0.4315
 9683SOL     OW29764   4.434   2.778   4.764 -0.1743 -0.7708 -0.1617
 9683SOL    HW129765   4.347   2.805   4.735  0.9225  1.7390 -1.2206
 9683SOL    HW229766   4.485   2.770   4.684  1.0006 -0.6453  0.5557
 9684SOL     OW29767   6.273   1.697   5.242 -0.0417 -0.4348 -0.4438
 9684SOL    HW129768   6.244   1.775   5.289  1.8643 -0.0653  0.1780
 9684SOL    HW229769   6.285   1.631   5.311 -0.2466 -0.8406 -0.7948
 9685SOL     OW29770   6.396   0.590   1.006  0.0243  0.3930 -0.1284
 9685SOL    HW129771   6.367   0.504   0.978  0.4166  0.9059 -2.1683
 9685SOL    HW229772   6.482   0.575   1.045  1.0344  0.1236 -2.3999
 9686SOL     OW29773   6.251   0.316   0.485  0.1260 -0.5855  0.3166
 9686SOL    HW129774   6.317   0.247   0.495 -1.3566 -1.9952  0.6252
 9686SOL    HW229775   6.219   0.331   0.574 -0.4117 -0.3401  0.0848
 9687SOL     OW29776   5.005   2.139   4.945  0.1154 -0.4835 -0.4204
 9687SOL    HW129777   5.078   2.088   4.909 -0.4689 -0.8278 -1.1236
 9687SOL    HW229778   4.941   2.073   4.972 -0.6702 -0.1268 -1.3897
 9688SOL     OW29779   4.373   2.101   4.469  0.3675 -0.5167 -0.0149
 9688SOL    HW129780   4.434   2.142   4.530  0.4475  0.4758 -0.7477
 9688SOL    HW229781   4.315   2.050   4.525  0.2511  0.6184  0.9362
 9689SOL     OW29782   2.415   0.331   1.938  0.4505  0.3122  0.3107
 9689SOL    HW129783   2.494   0.302   1.984 -0.8770  1.7578  3.6867
 9689SOL    HW229784   2.363   0.251   1.927  1.4265 -0.2905 -0.0217
 9690SOL     OW29785   0.268   4.997   3.140 -0.6516  0.3172  0.0230
 9690SOL    HW129786   0.310   4.912   3.156  0.9933  1.5143  2.2921
 9690SOL    HW229787   0.175   4.976   3.131 -0.2179 -1.7793  0.0865
 9691SOL     OW29788   5.956   4.097   4.336 -0.3235  0.5217  0.1920
 9691SOL    HW129789   5.993   4.125   4.252 -0.4025 -0.1727 -0.0765
 9691SOL    HW229790   6.013   4.026   4.364 -0.5457  0.4772  0.5316
 9692SOL     OW29791   5.744   3.103   6.107  0.3679  0.4673 -0.6784
 9692SOL    HW129792   5.790   3.187   6.115  1.5608 -0.2207 -0.1349
 9692SOL    HW229793   5.798   3.052   6.046  0.8092 -0.6567  0.6216
 9693SOL     OW29794   0.659   1.672   0.189 -0.5254  0.3729 -0.3773
 9693SOL    HW129795   0.744   1.716   0.196  0.1408 -0.6907 -1.5420
 9693SOL    HW229796   0.653   1.617   0.267 -1.7658  3.1736  1.5579
 9694SOL     OW29797   0.954   4.391   1.033 -0.0738  0.0365 -0.1626
 9694SOL    HW129798   0.969   4.479   1.000  0.0322  0.2759  0.5217
 9694SOL    HW229799   0.884   4.356   0.977  1.5196 -0.3266 -2.0109
 9695SOL     OW29800   5.838   4.284   2.282  0.1369  0.6776  0.4046
 9695SOL    HW129801   5.790   4.329   2.352 -0.6307 -0.0134  0.3328
 9695SOL    HW229802   5.782   4.292   2.205 -0.4404 -1.1468  0.6080
 9696SOL     OW29803   5.013   0.140   3.285  0.2082 -0.0215 -0.6259
 9696SOL    HW129804   5.063   0.178   3.213  1.4048 -1.7779 -0.7559
 9696SOL    HW229805   5.011   0.046   3.266 -2.6175 -0.0824 -0.2963
 9697SOL     OW29806   3.003   4.441   4.826  0.4960 -0.2611 -0.0650
 9697SOL    HW129807   2.969   4.516   4.875  1.0912  0.0560 -0.1328
 9697SOL    HW229808   2.925   4.397   4.793  0.0872 -0.5488  1.2645
 9698SOL     OW29809   5.511   0.738   3.425  0.5736  0.2855 -0.7500
 9698SOL    HW129810   5.424   0.699   3.428  0.9152 -0.4485 -0.3884
 9698SOL    HW229811   5.570   0.671   3.459  1.3061  0.7195 -1.1283
 9699SOL     OW29812   4.281   6.424   4.776  0.1719  0.0219 -0.2842
 9699SOL    HW129813   4.330   6.463   4.704  0.4015  0.4868  0.1265
 9699SOL    HW229814   4.348   6.399   4.840 -0.1265  0.7284  0.3108
 9700SOL     OW29815   2.819   5.133   2.519 -0.1822 -0.4937 -0.2151
 9700SOL    HW129816   2.764   5.135   2.441 -0.4374 -0.4522 -0.0322
 9700SOL    HW229817   2.759   5.143   2.592  0.1982  0.7323 -0.0673
 9701SOL     OW29818   2.433   3.073   2.958 -0.3359  0.5423  0.0856
 9701SOL    HW129819   2.462   3.144   2.902  1.2813  0.0876  0.3272
 9701SOL    HW229820   2.462   3.098   3.046 -2.0465  0.8195  0.5903
 9702SOL     OW29821   3.345   6.265   5.424  0.1249 -0.3268  0.1199
 9702SOL    HW129822   3.332   6.214   5.504  1.4241 -1.3481 -0.2863
 9702SOL    HW229823   3.355   6.355   5.453 -2.4454 -0.2466  0.8387
 9703SOL     OW29824   5.689   0.198   0.773  0.0222 -0.1441  0.3273
 9703SOL    HW129825   5.670   0.177   0.864 -0.9758  1.7797  0.6032
 9703SOL    HW229826   5.784   0.186   0.765 -0.0481 -1.3783  1.3261
 9704SOL     OW29827   6.503   2.934   1.141 -0.5067 -0.2156 -0.0928
 9704SOL    HW129828   6.509   3.025   1.172  0.2436 -0.8445  1.6749
 9704SOL    HW229829   6.409   2.916   1.140 -0.6011  0.1379  0.9587
 9705SOL     OW29830   3.217   0.152   5.901  0.4156 -0.0103 -0.2799
 9705SOL    HW129831   3.290   0.203   5.935 -0.4934 -0.9240  3.2551
 9705SOL    HW229832   3.253   0.065   5.884  0.6875  0.2347 -1.0058
 9706SOL     OW29833   5.788   1.507   4.419 -0.0161 -0.3936  0.3140
 9706SOL    HW129834   5.717   1.546   4.470 -0.9081 -1.6400  0.0454
 9706SOL    HW229835   5.853   1.577   4.411 -1.1651  0.7284  0.6459
 9707SOL     OW29836   5.725   6.699   6.513 -0.1299  0.7545 -0.5635
 9707SOL    HW129837   5.705   6.614   6.551  0.1322  1.0779  0.3086
 9707SOL    HW229838   5.664   6.759   6.554  0.0856  1.0908 -0.7322
 9708SOL     OW29839   1.009   2.323   1.780  0.2505  0.0905 -0.2239
 9708SOL    HW129840   0.937   2.383   1.765 -2.2587 -3.0099 -1.1817
 9708SOL    HW229841   0.991   2.284   1.865 -0.9352 -2.8385 -1.7206
 9709SOL     OW29842   5.154   1.712   4.783  0.1837  0.0596 -0.3197
 9709SOL    HW129843   5.162   1.650   4.856 -1.7405  2.8709  2.4235
 9709SOL    HW229844   5.068   1.694   4.746 -0.2879  0.8999  0.3445
 9710SOL     OW29845   3.016   6.206   4.886  0.2175  0.5090  0.4405
 9710SOL    HW129846   3.066   6.271   4.936  1.2347 -0.7472  1.0937
 9710SOL    HW229847   2.984   6.145   4.952 -0.5948  0.2517 -0.1902
 9711SOL     OW29848   4.130   2.584   1.614  0.3795 -0.4809  0.1343
 9711SOL    HW129849   4.048   2.594   1.662 -1.1657 -0.0325 -2.4624
 9711SOL    HW229850   4.142   2.489   1.607 -0.1735 -0.5567  0.1691
 9712SOL     OW29851   1.746   1.113   3.301  0.1625 -0.2916  0.6789
 9712SOL    HW129852   1.657   1.092   3.274  0.4498 -1.4434  0.6186
 9712SOL    HW229853   1.737   1.148   3.389 -0.1538 -2.3132  1.4737
 9713SOL     OW29854   4.452   4.136   1.352 -0.0255 -0.0904  0.6135
 9713SOL    HW129855   4.463   4.065   1.415  2.6106  0.9813  1.4394
 9713SOL    HW229856   4.359   4.159   1.357 -0.7532 -2.9123  0.8980
 9714SOL     OW29857   5.021   0.066   3.853 -0.6580  0.2231  0.2172
 9714SOL    HW129858   5.094   0.126   3.868  1.2728 -1.8114 -0.8215
 9714SOL    HW229859   5.019   0.054   3.758 -3.1144  1.1332  0.1085
 9715SOL     OW29860   2.236   5.324   3.220 -0.0994 -0.4413  0.0296
 9715SOL    HW129861   2.285   5.272   3.156  0.4029  0.2334 -0.1350
 9715SOL    HW229862   2.176   5.376   3.168 -0.2062 -0.4405  0.1542
 9716SOL     OW29863   4.832   1.533   2.972  0.2587  0.2670  1.1511
 9716SOL    HW129864   4.854   1.566   3.059  0.9902  0.1899  0.9918
 9716SOL    HW229865   4.916   1.522   2.928 -0.1769  2.0201 -0.1881
 9717SOL     OW29866   2.990   4.468   6.531 -0.6862  0.4532  0.1540
 9717SOL    HW129867   3.058   4.501   6.471  0.3065 -1.2516  0.3169
 9717SOL    HW229868   2.911   4.515   6.505  0.4355  2.1271 -0.3591
 9718SOL     OW29869   6.695   3.540   6.326 -0.0396 -0.2705 -0.7214
 9718SOL    HW129870   6.666   3.612   6.271  1.0354  1.6464  1.1576
 9718SOL    HW229871   6.790   3.544   6.325  0.0131 -0.1659  1.2641
 9719SOL     OW29872   3.730   4.580   1.457  0.0486  0.0377 -0.6768
 9719SOL    HW129873   3.711   4.522   1.531  0.2857 -0.8433 -1.3162
 9719SOL    HW229874   3.644   4.599   1.419  0.0940 -0.8379 -1.1985
 9720SOL     OW29875   3.189   5.767   1.961  0.3757  0.1294 -0.2966
 9720SOL    HW129876   3.257   5.792   2.023 -0.3983  1.3717  0.0730
 9720SOL    HW229877   3.107   5.790   2.005 -0.2248  0.0544 -1.3607
 9721SOL     OW29878   4.005   5.598   2.771 -0.2224 -0.0825 -0.0643
 9721SOL    HW129879   3.927   5.617   2.720  0.5222 -0.2224 -1.2635
 9721SOL    HW229880   3.974   5.540   2.841 -1.3244  0.4724 -0.0827
 9722SOL     OW29881   1.455   4.792   4.195  0.5898  0.7401  0.7731
 9722SOL    HW129882   1.473   4.776   4.288 -0.6010 -1.1138  0.6983
 9722SOL    HW229883   1.366   4.826   4.194  1.0405  1.9310  0.3988
 9723SOL     OW29884   2.461   0.891   1.064 -0.4814  0.8198  0.2093
 9723SOL    HW129885   2.371   0.924   1.068 -0.6815  0.4152 -0.6677
 9723SOL    HW229886   2.482   0.868   1.154 -0.3471  3.2751  0.8298
 9724SOL     OW29887   0.135   3.534   0.879  0.2753  0.2032  0.2840
 9724SOL    HW129888   0.175   3.453   0.911  0.4976  0.0659 -0.3308
 9724SOL    HW229889   0.041   3.521   0.893  0.3337 -0.0390  0.4616
 9725SOL     OW29890   6.178   5.487   1.169  0.3281 -0.0015  0.3591
 9725SOL    HW129891   6.105   5.427   1.154  0.8717 -0.3723 -0.8221
 9725SOL    HW229892   6.193   5.482   1.264 -0.6532 -0.5362  0.4930
 9726SOL     OW29893   3.775   4.423   1.670  0.1473 -0.2140  0.4534
 9726SOL    HW129894   3.847   4.461   1.721  1.3430 -1.6367 -0.1508
 9726SOL    HW229895   3.697   4.444   1.721  1.1787 -0.3977  2.1764
 9727SOL     OW29896   6.297   6.549   2.026  0.4939 -0.1157 -0.0420
 9727SOL    HW129897   6.202   6.560   2.036  0.5102  0.6397 -0.7447
 9727SOL    HW229898   6.306   6.488   1.953  0.5576  0.0833 -0.1999
 9728SOL     OW29899   6.009   2.630   0.151  0.0201 -0.2058  0.0150
 9728SOL    HW129900   5.932   2.633   0.209 -1.2274  0.6937 -1.6186
 9728SOL    HW229901   6.075   2.583   0.201 -1.8771 -1.7645  1.1525
 9729SOL     OW29902   5.686   0.557   4.299 -0.4251 -0.2184  0.6062
 9729SOL    HW129903   5.672   0.619   4.228 -0.6552 -1.8695 -0.8138
 9729SOL    HW229904   5.768   0.513   4.277  0.3870  0.3986  2.2442
 9730SOL     OW29905   3.812   5.585   4.838  0.2266  0.5286 -0.0898
 9730SOL    HW129906   3.758   5.652   4.880 -1.3524 -0.3300 -0.7059
 9730SOL    HW229907   3.886   5.633   4.802 -0.2474  1.7666  0.5778
 9731SOL     OW29908   4.252   4.463   1.551 -0.3914 -0.1832  0.0288
 9731SOL    HW129909   4.228   4.546   1.509 -1.8540 -0.3544  0.5120
 9731SOL    HW229910   4.325   4.486   1.609  1.2811  0.1681 -2.1203
 9732SOL     OW29911   5.522   4.850   0.828  0.5439  0.3941 -0.3183
 9732SOL    HW129912   5.499   4.937   0.859  0.0975  1.0245 -2.3327
 9732SOL    HW229913   5.442   4.798   0.838  1.1335 -0.1222  1.9546
 9733SOL     OW29914   4.736   4.351   3.233 -0.1461 -0.0559 -0.0953
 9733SOL    HW129915   4.707   4.395   3.313 -0.4651  1.9472 -1.2788
 9733SOL    HW229916   4.670   4.373   3.168  0.1901 -1.5469 -0.9746
 9734SOL     OW29917   2.359   1.797   4.135  0.4421 -0.5030 -0.0453
 9734SOL    HW129918   2.408   1.810   4.054  1.1508 -1.2536  0.2546
 9734SOL    HW229919   2.268   1.817   4.112  0.8188  0.4701 -0.7153
 9735SOL     OW29920   3.396   3.484   6.271  0.4338  0.1508 -0.5893
 9735SOL    HW129921   3.410   3.401   6.227 -0.5794  0.5899 -1.7928
 9735SOL    HW229922   3.432   3.472   6.358  0.9397 -1.3078 -0.9870
 9736SOL     OW29923   0.226   1.671   6.418 -0.4335  0.2096 -0.1660
 9736SOL    HW129924   0.236   1.744   6.356 -2.6890  0.2684 -0.4735
 9736SOL    HW229925   0.294   1.687   6.483  0.2219  1.6408 -1.1634
 9737SOL     OW29926   4.465   2.529   3.270  0.0510  0.0984 -0.6824
 9737SOL    HW129927   4.539   2.488   3.226  0.0546 -0.0357 -0.5525
 9737SOL    HW229928   4.501   2.609   3.308  0.9114 -1.5854  2.1872
 9738SOL     OW29929   1.022   2.161   6.642 -0.2978  0.2581 -0.2050
 9738SOL    HW129930   0.991   2.153   6.732  0.1003  0.6086 -0.0335
 9738SOL    HW229931   0.943   2.160   6.589 -0.6164  1.1788  0.2280
 9739SOL     OW29932   4.576   3.310   5.773 -0.3084 -0.4576 -0.2401
 9739SOL    HW129933   4.521   3.301   5.694 -2.5278  1.5379  1.0320
 9739SOL    HW229934   4.628   3.388   5.757 -0.7261 -0.0795  0.2650
 9740SOL     OW29935   4.636   0.466   4.469  0.0313 -0.0815 -0.5684
 9740SOL    HW129936   4.728   0.493   4.470 -0.2559  1.0367 -1.7875
 9740SOL    HW229937   4.587   0.548   4.471 -0.9535 -0.6842  0.4969
 9741SOL     OW29938   5.663   0.913   0.552 -0.2520 -0.4458  0.1932
 9741SOL    HW129939   5.670   0.854   0.478 -0.6819 -0.9614  0.5610
 9741SOL    HW229940   5.664   0.856   0.629 -0.1570  0.0582  0.5718
 9742SOL     OW29941   6.154   1.290   1.323 -0.2885 -0.5881  0.4638
 9742SOL    HW129942   6.096   1.290   1.247  0.2188  2.0435  0.0350
 9742SOL    HW229943   6.226   1.232   1.298 -0.6638 -0.5963 -0.6263
 9743SOL     OW29944   2.509   0.101   2.150  0.5914 -0.0953 -0.7314
 9743SOL    HW129945   2.569   0.052   2.207  1.4288  1.8879  0.1669
 9743SOL    HW229946   2.557   0.182   2.131 -0.2214 -0.1909 -3.2425
 9744SOL     OW29947   6.465   5.254   1.427 -0.2040  0.5564  0.2510
 9744SOL    HW129948   6.459   5.251   1.523  0.5169  1.1670  0.3197
 9744SOL    HW229949   6.427   5.339   1.403  2.9354  2.0150  0.2812
 9745SOL     OW29950   6.246   3.078   4.383  0.7866 -0.2479 -0.3708
 9745SOL    HW129951   6.204   3.160   4.409  1.0246 -0.8551  2.1203
 9745SOL    HW229952   6.340   3.096   4.391  0.8824 -0.3272 -1.2756
 9746SOL     OW29953   0.195   0.989   1.188 -0.4898 -0.4667  0.0193
 9746SOL    HW129954   0.153   0.903   1.193 -0.0782 -0.6457  0.4989
 9746SOL    HW229955   0.206   1.015   1.280 -0.5639  0.0739 -0.1220
 9747SOL     OW29956   1.022   3.552   2.779 -0.3783 -0.3159  0.0932
 9747SOL    HW129957   1.046   3.612   2.849  1.0266 -1.0889  0.3065
 9747SOL    HW229958   0.993   3.473   2.824 -0.1673 -0.5529 -0.1783
 9748SOL     OW29959   3.418   3.469   4.628 -0.1116 -0.5478 -0.4415
 9748SOL    HW129960   3.354   3.399   4.637 -0.7158  0.1743  1.1006
 9748SOL    HW229961   3.366   3.549   4.625  0.6326 -0.0650 -0.7568
 9749SOL     OW29962   6.230   2.551   4.500  0.4432  0.0520 -0.2927
 9749SOL    HW129963   6.279   2.472   4.477 -1.6732 -1.3151 -0.2505
 9749SOL    HW229964   6.217   2.597   4.418  2.2890  0.7267 -0.2201
 9750SOL     OW29965   6.732   4.160   5.920 -0.3401  0.1818  0.3647
 9750SOL    HW129966   6.788   4.222   5.966  0.6525 -0.5863  0.2134
 9750SOL    HW229967   6.784   4.133   5.843 -0.3754 -1.4901  0.8913
 9751SOL     OW29968   6.368   0.285   4.742 -0.0539  0.0049 -0.3082
 9751SOL    HW129969   6.360   0.202   4.790  1.1220  0.8846  1.4684
 9751SOL    HW229970   6.316   0.347   4.792  1.1953  0.9413 -0.1493
 9752SOL     OW29971   3.962   1.904   0.424  0.0533 -0.2659  0.0308
 9752SOL    HW129972   3.876   1.866   0.402  0.7974 -0.4966 -2.6033
 9752SOL    HW229973   4.025   1.841   0.388  1.3094  1.5711 -1.0399
 9753SOL     OW29974   6.487   1.859   1.052  0.1149  0.4916  0.1916
 9753SOL    HW129975   6.515   1.793   1.115 -0.3960  0.2956  0.2207
 9753SOL    HW229976   6.435   1.921   1.104 -3.6107 -1.7483 -0.6721
 9754SOL     OW29977   5.443   6.052   2.780  0.1972  0.2326 -0.2247
 9754SOL    HW129978   5.421   6.024   2.691 -2.5018 -0.4390  0.5834
 9754SOL    HW229979   5.360   6.044   2.828  1.5749  0.7121  2.3117
 9755SOL     OW29980   2.141   2.168   6.530  0.4165 -0.3515  0.1406
 9755SOL    HW129981   2.125   2.203   6.618  1.1164 -2.4400  1.1234
 9755SOL    HW229982   2.181   2.240   6.482 -0.5008  0.9941  1.3542
 9756SOL     OW29983   3.838   0.727   1.702  0.1997  0.4355  0.2287
 9756SOL    HW129984   3.878   0.788   1.640 -0.0885 -0.3917 -0.7779
 9756SOL    HW229985   3.785   0.782   1.759 -1.1952  0.9982 -1.5589
 9757SOL     OW29986   6.537   2.701   5.349 -0.1411  0.0928 -0.5245
 9757SOL    HW129987   6.510   2.619   5.391  0.6757  1.0216  1.9097
 9757SOL    HW229988   6.632   2.694   5.342  0.0629  1.2942  0.7894
 9758SOL     OW29989   3.828   5.619   6.538  0.3549  0.0781 -0.4179
 9758SOL    HW129990   3.734   5.623   6.559  1.3735  1.3355  4.3483
 9758SOL    HW229991   3.851   5.527   6.549 -0.5228 -0.4952 -2.9619
 9759SOL     OW29992   3.293   4.263   2.897  0.7951  0.2984  0.4597
 9759SOL    HW129993   3.306   4.268   2.803  0.2715 -0.4282  0.3462
 9759SOL    HW229994   3.205   4.298   2.911  1.5195  1.9665  0.8552
 9760SOL     OW29995   6.540   6.642   3.038  0.0878 -0.1793  0.4524
 9760SOL    HW129996   6.532   6.630   3.132 -2.1186  3.8939  0.8715
 9760SOL    HW229997   6.613   6.702   3.027  0.0911 -0.3292 -0.4261
 9761SOL     OW29998   5.837   5.769   0.827 -0.1251 -0.3923  0.1330
 9761SOL    HW129999   5.923   5.747   0.792 -1.7881 -1.9787 -3.1557
 9761SOL    HW230000   5.806   5.688   0.867 -1.1533 -0.5466 -0.9788
 9762SOL     OW30001   4.980   5.374   2.152  0.2621 -0.5443 -0.3087
 9762SOL    HW130002   5.050   5.379   2.086  0.8457  1.7038  0.4376
 9762SOL    HW230003   4.927   5.452   2.135 -1.8447 -2.0134 -0.5864
 9763SOL     OW30004   0.681   3.339   5.210  0.6176 -0.1019 -0.3668
 9763SOL    HW130005   0.768   3.345   5.249  0.6291  0.3974 -0.4742
 9763SOL    HW230006   0.696   3.348   5.116  0.4763 -0.2769 -0.4079
 9764SOL     OW30007   3.083   5.932   2.392 -0.2439  0.0377  0.0534
 9764SOL    HW130008   3.027   5.915   2.468 -2.2440 -0.5334 -1.4972
 9764SOL    HW230009   3.109   5.846   2.361  0.5942  0.2696  0.1031
 9765SOL     OW30010   0.120   1.279   5.250  0.6447  0.0041  0.2605
 9765SOL    HW130011   0.028   1.304   5.247  1.2634  2.3104 -0.3017
 9765SOL    HW230012   0.120   1.186   5.227 -1.4837  0.1183 -0.3374
 9766SOL     OW30013   5.374   6.376   4.078  0.1660 -0.5524 -0.7323
 9766SOL    HW130014   5.282   6.353   4.097  0.3170 -0.6419 -0.1048
 9766SOL    HW230015   5.399   6.315   4.009  0.0354 -1.1558 -0.2550
 9767SOL     OW30016   4.501   2.257   3.973  0.2283 -0.0592 -0.0401
 9767SOL    HW130017   4.425   2.198   3.981  0.2318  0.0969  1.3693
 9767SOL    HW230018   4.546   2.228   3.894 -0.7503 -0.8133 -0.3313
 9768SOL     OW30019   3.403   0.040   5.621 -0.4079 -0.3783 -0.3115
 9768SOL    HW130020   3.421   0.102   5.551 -0.0372  0.2705  0.3536
 9768SOL    HW230021   3.470   0.057   5.686  0.7753 -2.6813 -0.8914
 9769SOL     OW30022   0.633   4.765   4.010  0.5908  0.0874  0.2378
 9769SOL    HW130023   0.644   4.754   3.915 -2.4091 -1.1532 -0.0268
 9769SOL    HW230024   0.637   4.676   4.045 -3.2216 -0.0402  0.6081
 9770SOL     OW30025   4.906   1.603   0.005  0.6621 -0.0079 -0.0892
 9770SOL    HW130026   4.832   1.618   0.064  1.1344  1.4753  0.1673
 9770SOL    HW230027   4.979   1.650   0.047  1.3329 -0.0750 -1.1731
 9771SOL     OW30028   1.164   6.180   0.898  0.1364 -0.5561  0.3513
 9771SOL    HW130029   1.141   6.087   0.897 -0.3035 -0.4505  0.6277
 9771SOL    HW230030   1.208   6.194   0.982 -1.5967 -0.0883  1.2079
 9772SOL     OW30031   2.945   4.798   3.229  0.0257 -0.7324  0.2598
 9772SOL    HW130032   2.969   4.740   3.301 -0.9907 -1.6623 -0.1356
 9772SOL    HW230033   2.909   4.739   3.162  0.0884  0.2234 -0.6261
 9773SOL     OW30034   0.259   0.940   1.835 -0.3409 -0.2797 -0.1004
 9773SOL    HW130035   0.315   0.863   1.845 -0.5008 -0.1891  1.5963
 9773SOL    HW230036   0.264   0.962   1.742  1.7949 -0.7633 -0.1167
 9774SOL     OW30037   1.877   3.210   2.141 -0.0287 -0.0489 -0.2481
 9774SOL    HW130038   1.798   3.172   2.180 -1.0870  0.7211 -1.5723
 9774SOL    HW230039   1.844   3.259   2.065  1.5192  1.8788  0.2951
 9775SOL     OW30040   0.444   3.574   6.518  0.0004  0.3349 -0.6683
 9775SOL    HW130041   0.483   3.494   6.551  1.1617  1.0842 -0.1758
 9775SOL    HW230042   0.450   3.566   6.422 -1.4567 -0.9066 -0.6680
 9776SOL     OW30043   5.306   5.068   6.313  0.5539 -0.1983  0.3231
 9776SOL    HW130044   5.218   5.033   6.331  1.0313 -1.3391  0.4482
 9776SOL    HW230045   5.300   5.103   6.224  0.2614 -1.2119 -0.0660
 9777SOL     OW30046   1.208   6.028   5.321  0.5664  0.0657 -0.2066
 9777SOL    HW130047   1.119   6.060   5.328  0.0258 -1.0857 -1.6657
 9777SOL    HW230048   1.245   6.075   5.247  0.0966 -1.8523 -1.7035
 9778SOL     OW30049   4.711   2.877   1.707 -0.3487 -0.8228 -0.0725
 9778SOL    HW130050   4.701   2.893   1.801 -1.8150 -0.9910 -0.1848
 9778SOL    HW230051   4.709   2.782   1.699  0.0508 -0.8152 -0.2466
 9779SOL     OW30052   2.121   1.750   0.926  0.1978  0.0069 -0.6320
 9779SOL    HW130053   2.167   1.816   0.874  1.2083 -0.9221 -0.9255
 9779SOL    HW230054   2.087   1.798   1.001  3.5171  0.3035  0.7404
 9780SOL     OW30055   4.436   4.482   6.108 -0.1443  0.2642 -0.6945
 9780SOL    HW130056   4.411   4.389   6.104 -0.5347  0.2546  1.5721
 9780SOL    HW230057   4.370   4.527   6.056 -0.8010 -0.5518 -0.5715
 9781SOL     OW30058   3.060   4.070   6.559 -0.3277 -0.3338 -0.1446
 9781SOL    HW130059   3.050   4.001   6.493  1.5044 -0.1302 -0.6572
 9781SOL    HW230060   3.072   4.023   6.641 -1.8024 -0.5943 -0.0663
 9782SOL     OW30061   5.860   5.126   4.656 -0.1542  0.4528  0.0992
 9782SOL    HW130062   5.767   5.112   4.674 -0.2568  1.7567  0.6446
 9782SOL    HW230063   5.862   5.168   4.570 -0.0458  0.1394 -0.0532
 9783SOL     OW30064   5.892   0.708   0.407  0.4041  0.4223  0.6062
 9783SOL    HW130065   5.809   0.731   0.366 -0.2851 -1.9700  0.6028
 9783SOL    HW230066   5.951   0.692   0.333 -0.0463 -1.0446  0.5420
 9784SOL     OW30067   4.745   6.258   6.445  0.3678 -0.4528  0.4738
 9784SOL    HW130068   4.658   6.295   6.459  0.7783  0.3237  0.9808
 9784SOL    HW230069   4.733   6.164   6.458 -0.6209 -0.4822 -0.5441
 9785SOL     OW30070   3.315   0.983   2.298  0.2607 -0.6001  0.4920
 9785SOL    HW130071   3.372   1.059   2.285 -1.6844  1.1519  1.8695
 9785SOL    HW230072   3.248   0.991   2.231  0.8654 -1.9451 -0.2986
 9786SOL     OW30073   2.287   0.661   3.763  0.9835 -0.5874  0.1843
 9786SOL    HW130074   2.196   0.691   3.760  1.0865 -0.3991 -1.3083
 9786SOL    HW230075   2.338   0.742   3.763  1.1697 -0.7015  0.6494
 9787SOL     OW30076   1.597   3.318   2.769  0.0812 -0.6746  0.5946
 9787SOL    HW130077   1.691   3.335   2.776  0.2331 -2.0639  2.1636
 9787SOL    HW230078   1.588   3.224   2.787 -1.9523  0.0875  3.9136
 9788SOL     OW30079   1.900   4.367   5.301  0.5811 -0.5127  0.3092
 9788SOL    HW130080   1.879   4.274   5.294 -1.4082 -0.0779  0.2397
 9788SOL    HW230081   1.932   4.391   5.214 -1.8251 -0.4432 -0.5803
 9789SOL     OW30082   0.032   3.926   3.519 -0.6966  0.2070 -0.4069
 9789SOL    HW130083   0.027   3.943   3.424  1.1300  3.1511 -0.0578
 9789SOL    HW230084  -0.047   3.967   3.554 -0.4086  0.8241 -0.4665
 9790SOL     OW30085   5.139   6.585   4.243  0.0695  0.1601  0.2335
 9790SOL    HW130086   5.117   6.672   4.209 -0.7026 -0.0089  0.2836
 9790SOL    HW230087   5.210   6.600   4.305 -0.8523  0.9036  1.1316
 9791SOL     OW30088   6.362   2.329   2.030  0.6536  0.2657 -0.1857
 9791SOL    HW130089   6.397   2.254   2.078 -1.1890 -0.4139  0.1141
 9791SOL    HW230090   6.397   2.317   1.941  2.4546  0.4631  0.4702
 9792SOL     OW30091   0.147   6.535   1.169  0.7177 -0.0828  0.6380
 9792SOL    HW130092   0.118   6.587   1.094  2.8057 -0.7137 -0.6427
 9792SOL    HW230093   0.066   6.504   1.209 -0.4303 -0.1264 -1.6314
 9793SOL     OW30094   3.527   0.800   6.118 -0.2017  0.3382  0.8357
 9793SOL    HW130095   3.621   0.794   6.139 -0.4836 -0.6030  1.8539
 9793SOL    HW230096   3.502   0.887   6.149  0.6709  1.2409 -0.8844
 9794SOL     OW30097   5.909   5.325   0.061  0.0471  0.4178 -0.1678
 9794SOL    HW130098   5.961   5.380   0.002 -0.2863  1.6652  0.6754
 9794SOL    HW230099   5.857   5.387   0.112  2.1513 -0.4424  3.1818
 9795SOL     OW30100   5.978   2.247   2.438  0.5197 -0.1820 -0.2503
 9795SOL    HW130101   5.919   2.250   2.514  1.0297 -0.2419  0.1544
 9795SOL    HW230102   5.991   2.338   2.413  2.1393  0.0033  1.1473
 9796SOL     OW30103   5.071   2.333   5.128  0.0712  0.3736 -0.6648
 9796SOL    HW130104   5.000   2.384   5.090 -0.2777  0.3444 -0.0525
 9796SOL    HW230105   5.086   2.263   5.065  0.3985  1.0946 -1.3988
 9797SOL     OW30106   2.527   0.673   3.513 -0.0337  0.4462  0.0943
 9797SOL    HW130107   2.467   0.598   3.514 -0.3965  0.7315 -0.1901
 9797SOL    HW230108   2.482   0.740   3.565  0.2784  0.4787  0.3234
 9798SOL     OW30109   6.449   3.627   4.369  0.0414 -0.3132  0.0724
 9798SOL    HW130110   6.443   3.535   4.396  0.8719 -1.0537 -2.1444
 9798SOL    HW230111   6.542   3.648   4.373 -0.0471  0.1560 -0.2783
 9799SOL     OW30112   4.409   3.249   1.623  0.3908  0.3912  0.4217
 9799SOL    HW130113   4.417   3.291   1.708 -1.5019 -0.8821  1.2650
 9799SOL    HW230114   4.319   3.218   1.620  1.3819 -2.5288 -0.6518
 9800SOL     OW30115   0.002   0.806   5.901  0.1773  0.7753  1.0951
 9800SOL    HW130116  -0.069   0.858   5.939 -0.1666  0.4726  0.8663
 9800SOL    HW230117   0.005   0.726   5.953 -0.6968  0.0924  0.1060
 9801SOL     OW30118   2.588   6.594   6.712 -0.8985 -0.0933  0.3518
 9801SOL    HW130119   2.555   6.649   6.640 -2.8264 -0.2609  1.0802
 9801SOL    HW230120   2.543   6.510   6.700  0.2619 -0.7529  0.6087
 9802SOL     OW30121   1.021   6.589   6.059  0.0949  0.0924 -0.1175
 9802SOL    HW130122   0.948   6.612   6.118  1.4336  0.6521  1.3612
 9802SOL    HW230123   1.051   6.504   6.091 -0.5661 -0.6381 -1.3935
 9803SOL     OW30124   3.316   3.058   4.122 -0.2296 -0.4905  0.6330
 9803SOL    HW130125   3.339   2.966   4.135 -1.0399 -0.4460  2.6392
 9803SOL    HW230126   3.400   3.104   4.116  0.1922 -1.1330  1.5170
 9804SOL     OW30127   0.060   1.231   4.780 -0.1069 -0.6225  0.4024
 9804SOL    HW130128   0.126   1.171   4.817  1.5530  0.8340 -0.1088
 9804SOL    HW230129   0.112   1.301   4.740 -1.9976  0.6433  0.1266
 9805SOL     OW30130   6.412   3.419   1.087 -0.1337 -0.6203 -0.0378
 9805SOL    HW130131   6.323   3.383   1.091 -0.1808 -0.4468  0.5372
 9805SOL    HW230132   6.467   3.351   1.127 -0.1171 -0.3863  0.3382
 9806SOL     OW30133   3.783   0.363   1.312 -0.0421 -0.0528  0.3088
 9806SOL    HW130134   3.873   0.394   1.311 -0.5155  1.4556  2.2566
 9806SOL    HW230135   3.731   0.442   1.295 -1.1086 -0.3319  2.1548
 9807SOL     OW30136   1.243   1.436   5.639  0.4556 -0.5908 -0.6205
 9807SOL    HW130137   1.157   1.408   5.669  0.2331  0.5688 -0.1289
 9807SOL    HW230138   1.294   1.356   5.632 -1.0538 -1.4473 -2.1979
 9808SOL     OW30139   0.103   5.832   3.966 -0.4561 -0.5423 -0.2239
 9808SOL    HW130140   0.175   5.775   3.940  0.8952  1.0433 -0.0912
 9808SOL    HW230141   0.146   5.903   4.014 -2.2328 -0.1061  0.7534
 9809SOL     OW30142   1.950   1.246   4.303  0.5204 -0.5839 -0.5593
 9809SOL    HW130143   1.979   1.240   4.212  1.2276 -1.2073 -0.2922
 9809SOL    HW230144   1.981   1.332   4.332 -0.9400  0.2247 -1.3297
 9810SOL     OW30145   3.478   1.258   1.176  0.0246 -0.1700 -0.1212
 9810SOL    HW130146   3.538   1.245   1.102 -0.3410  0.1498 -0.4760
 9810SOL    HW230147   3.391   1.243   1.139 -0.1230 -0.5484  0.3758
 9811SOL     OW30148   5.522   2.005   1.883 -0.0915 -0.9275 -0.3986
 9811SOL    HW130149   5.565   2.012   1.968  1.7604 -2.5355 -1.1535
 9811SOL    HW230150   5.590   2.028   1.820 -0.9907 -1.2999 -1.5173
 9812SOL     OW30151   5.599   6.455   3.092  0.3006  0.4455 -0.0159
 9812SOL    HW130152   5.616   6.403   3.014  0.1476  0.0011  0.2448
 9812SOL    HW230153   5.528   6.515   3.066 -0.6359 -0.5670  0.1552
 9813SOL     OW30154   0.855   0.173   6.003  0.3454  0.1422  0.0531
 9813SOL    HW130155   0.941   0.214   5.991  0.6966 -0.2083  1.2493
 9813SOL    HW230156   0.876   0.081   6.022 -0.1546  0.5666  2.8706
 9814SOL     OW30157   1.115   2.267   4.358 -0.3924 -0.0681 -0.1094
 9814SOL    HW130158   1.198   2.312   4.341 -0.2703 -0.4028 -0.4122
 9814SOL    HW230159   1.055   2.335   4.388  0.4236 -0.0439  1.5537
 9815SOL     OW30160   3.904   0.290   4.970 -0.2567 -0.7026 -0.1311
 9815SOL    HW130161   3.831   0.339   4.931  1.3663 -0.0437 -2.4290
 9815SOL    HW230162   3.911   0.211   4.917  0.2940 -1.0834  0.4960
 9816SOL     OW30163   4.349   3.879   3.246 -0.5686  0.6071 -0.1272
 9816SOL    HW130164   4.353   3.967   3.208 -1.1035 -0.2566 -2.2037
 9816SOL    HW230165   4.360   3.820   3.172 -1.8422 -1.1225  1.0354
 9817SOL     OW30166   0.637   1.239   4.163 -0.0484 -0.1740  0.1478
 9817SOL    HW130167   0.706   1.301   4.187 -0.2255 -0.1739  0.6896
 9817SOL    HW230168   0.621   1.190   4.244 -2.0726  1.2036  0.6399
 9818SOL     OW30169   5.091   5.652   6.176 -0.2174 -0.4164  0.2234
 9818SOL    HW130170   5.115   5.682   6.264 -0.2595 -0.3557  0.2142
 9818SOL    HW230171   5.157   5.585   6.155 -0.3472 -0.5976  0.3939
 9819SOL     OW30172   2.404   0.087   2.735  0.1980  0.4235  0.7883
 9819SOL    HW130173   2.494   0.105   2.762  0.2040  1.3665  0.1740
 9819SOL    HW230174   2.388  -0.003   2.763  0.9493  0.6300  1.9118
 9820SOL     OW30175   5.219   4.114   4.212 -0.3369 -0.7347  0.0378
 9820SOL    HW130176   5.293   4.067   4.174  0.4670  1.2704 -0.9801
 9820SOL    HW230177   5.241   4.125   4.304  2.0604  2.3751 -0.8260
 9821SOL     OW30178   3.960   3.467   4.355 -0.1628 -0.6760 -0.1905
 9821SOL    HW130179   3.979   3.538   4.295  0.3133 -0.7387 -0.1172
 9821SOL    HW230180   3.943   3.391   4.299  1.1371 -0.9496 -0.2481
 9822SOL     OW30181   6.453   4.139   4.817 -0.0773 -0.2924 -0.0063
 9822SOL    HW130182   6.385   4.147   4.750  1.4517  0.3044 -1.5116
 9822SOL    HW230183   6.523   4.089   4.774  0.2629 -1.2865  1.6722
 9823SOL     OW30184   5.042   5.950   0.106 -0.7094 -0.0952  0.1716
 9823SOL    HW130185   4.975   5.914   0.049 -1.4953  1.7501 -0.0893
 9823SOL    HW230186   5.122   5.903   0.081 -1.3952 -0.5651 -1.2038
 9824SOL     OW30187   1.722   0.152   0.244 -0.1057  0.1830 -0.0290
 9824SOL    HW130188   1.635   0.120   0.266  0.2574 -0.2864  0.7551
 9824SOL    HW230189   1.767   0.160   0.329  0.6511  0.2939 -0.4376
 9825SOL     OW30190   4.824   2.768   4.033  0.4731 -0.1412 -0.4729
 9825SOL    HW130191   4.767   2.751   4.108 -0.4930  0.6797 -1.0089
 9825SOL    HW230192   4.895   2.821   4.069  0.1869 -0.0204 -0.0724
 9826SOL     OW30193   6.327   5.079   1.269  0.0365  0.8455  0.0020
 9826SOL    HW130194   6.377   5.136   1.326  1.1341 -0.0512 -0.0360
 9826SOL    HW230195   6.350   4.990   1.297 -0.9169  0.4116 -0.5424
 9827SOL     OW30196   3.312   4.831   0.302 -0.4612 -0.0772  0.6089
 9827SOL    HW130197   3.221   4.858   0.311 -0.8506 -1.2877  0.3985
 9827SOL    HW230198   3.311   4.737   0.319  0.4835 -0.4086 -1.0419
 9828SOL     OW30199   3.751   0.208   4.587 -0.0278  0.0946 -0.1962
 9828SOL    HW130200   3.847   0.202   4.589 -0.1657 -2.0239  1.1307
 9828SOL    HW230201   3.730   0.275   4.652  0.5474  0.6062 -0.5287
 9829SOL     OW30202   1.812   6.604   3.663 -0.8338 -0.7700  0.1339
 9829SOL    HW130203   1.839   6.516   3.688  0.0144 -0.1431  1.5302
 9829SOL    HW230204   1.718   6.598   3.651 -1.0407 -1.5126  1.8829
 9830SOL     OW30205   4.938   4.823   0.433  0.0661  0.4964 -0.5930
 9830SOL    HW130206   4.961   4.854   0.345  2.1937 -3.0297 -1.4141
 9830SOL    HW230207   4.867   4.761   0.418 -0.2079  0.5919  0.2965
 9831SOL     OW30208   6.476   4.373   2.013  0.4276 -0.6899 -0.3234
 9831SOL    HW130209   6.520   4.439   2.066 -0.4720  0.5258 -1.0672
 9831SOL    HW230210   6.524   4.372   1.931 -0.7451  0.4469 -1.0366
 9832SOL     OW30211   0.542   0.313   0.447 -0.5319 -0.1345 -0.0243
 9832SOL    HW130212   0.484   0.237   0.444  2.2126 -2.3426  0.8427
 9832SOL    HW230213   0.612   0.293   0.385  0.1757  1.7320  0.1397
 9833SOL     OW30214   3.900   3.191   2.525  0.0565 -0.0601  0.6052
 9833SOL    HW130215   3.814   3.232   2.516  0.0991 -0.5264 -2.5205
 9833SOL    HW230216   3.907   3.133   2.448  1.8254 -2.5042  2.5300
 9834SOL     OW30217   3.671   6.380   1.640  1.1079  0.2893  0.3434
 9834SOL    HW130218   3.609   6.332   1.695  2.1022  1.3894  2.4953
 9834SOL    HW230219   3.747   6.394   1.697  1.5608  2.8150 -0.8460
 9835SOL     OW30220   5.181   1.020   6.662  1.0426  0.3414  0.2638
 9835SOL    HW130221   5.238   1.041   6.737  0.2870  2.6069  0.2491
 9835SOL    HW230222   5.194   1.093   6.602 -1.0459  0.3220 -0.2287
 9836SOL     OW30223   0.142   4.008   1.930  0.3041 -0.5054 -0.0555
 9836SOL    HW130224   0.226   4.025   1.973 -0.2692  1.3079  0.3887
 9836SOL    HW230225   0.166   3.976   1.843  1.4524 -0.6497  0.3022
 9837SOL     OW30226   3.065   6.689   2.081 -0.0683  0.8107 -0.4301
 9837SOL    HW130227   2.973   6.661   2.082 -0.2676  1.3512 -2.7694
 9837SOL    HW230228   3.080   6.722   1.993  1.6879  3.0971  0.6730
 9838SOL     OW30229   1.060   3.446   5.755  0.1810 -0.3933 -0.8656
 9838SOL    HW130230   0.979   3.446   5.704  0.1257 -0.4930 -0.7778
 9838SOL    HW230231   1.049   3.518   5.818  0.6045  0.2797 -1.5531
 9839SOL     OW30232   6.573   5.880   1.415 -0.2565  0.0432 -0.2363
 9839SOL    HW130233   6.545   5.788   1.419  0.6118 -0.2910 -1.2954
 9839SOL    HW230234   6.662   5.875   1.380  0.3040  1.2099  1.0276
 9840SOL     OW30235   4.844   4.830   6.316 -0.5310  0.4180  0.3694
 9840SOL    HW130236   4.806   4.901   6.369 -0.1620  0.1491  0.9958
 9840SOL    HW230237   4.769   4.776   6.292 -0.8662  1.2195 -0.4173
 9841SOL     OW30238   4.387   3.503   3.078 -0.3121 -0.4201  0.0687
 9841SOL    HW130239   4.307   3.494   3.026 -0.6765  1.9323  0.1398
 9841SOL    HW230240   4.453   3.452   3.032 -1.0275  0.3410 -1.8410
 9842SOL     OW30241   5.949   6.469   6.271  0.2563  0.9832  0.1161
 9842SOL    HW130242   6.043   6.457   6.258  0.4666  1.8260  0.8312
 9842SOL    HW230243   5.923   6.393   6.323  0.2303 -0.0918 -1.4295
 9843SOL     OW30244   1.281   6.728   2.493  0.2374  0.4879 -0.1441
 9843SOL    HW130245   1.281   6.636   2.467  1.6556 -0.2481  2.3307
 9843SOL    HW230246   1.360   6.765   2.453 -0.2275  0.6176 -0.9709
 9844SOL     OW30247   5.716   2.984   1.698  0.4641  0.9283 -0.0026
 9844SOL    HW130248   5.759   3.049   1.753 -1.0876  1.1734  0.9665
 9844SOL    HW230249   5.761   2.990   1.614  1.9656  1.5119  0.8211
 9845SOL     OW30250   4.882   3.337   2.936 -0.3339  0.0297 -0.1674
 9845SOL    HW130251   4.814   3.404   2.928 -0.5284 -0.3430 -1.7539
 9845SOL    HW230252   4.840   3.256   2.908  0.7407 -0.2166 -1.1027
 9846SOL     OW30253   2.897   3.172   2.100 -0.0384  0.4388 -0.1594
 9846SOL    HW130254   2.866   3.237   2.164 -1.2128  1.1175 -1.3808
 9846SOL    HW230255   2.835   3.179   2.028 -0.0849 -1.9395 -0.3986
 9847SOL     OW30256   1.068   5.944   0.858  0.3997 -0.2024  0.5720
 9847SOL    HW130257   1.102   5.926   0.770  1.9435  2.4562  0.5843
 9847SOL    HW230258   1.012   5.869   0.878  1.6252 -1.8069 -1.8585
 9848SOL     OW30259   2.830   4.767   6.545 -0.0883 -0.1878  0.7017
 9848SOL    HW130260   2.865   4.776   6.634 -1.5956 -1.4059  1.4409
 9848SOL    HW230261   2.747   4.720   6.556 -0.6260  0.2319 -1.2858
 9849SOL     OW30262   5.213   4.371   2.682 -0.1627 -0.4273 -0.3001
 9849SOL    HW130263   5.208   4.398   2.590 -0.1162  0.4777 -0.0377
 9849SOL    HW230264   5.263   4.289   2.680 -1.6780 -1.3497 -1.2688
 9850SOL     OW30265   4.564   2.200   5.907 -0.1242  0.2152  0.4171
 9850SOL    HW130266   4.642   2.204   5.852  1.2213  0.1759  2.2539
 9850SOL    HW230267   4.526   2.287   5.900 -0.4213 -0.0211 -1.1729
 9851SOL     OW30268   5.222   3.683   2.413 -0.4644  0.0618  0.1009
 9851SOL    HW130269   5.297   3.721   2.458  0.6559 -0.6790 -1.1154
 9851SOL    HW230270   5.173   3.639   2.482  0.5782 -0.0370  0.7918
 9852SOL     OW30271   5.239   5.364   3.247 -0.2191  0.4345  0.2796
 9852SOL    HW130272   5.288   5.367   3.329  1.4447 -2.2575 -0.5359
 9852SOL    HW230273   5.215   5.272   3.237 -0.4835  0.7333 -2.1877
 9853SOL     OW30274   6.646   0.321   0.769 -0.3568 -0.1948  0.2655
 9853SOL    HW130275   6.633   0.229   0.745  0.0502  0.3718 -2.2029
 9853SOL    HW230276   6.740   0.335   0.765 -0.5157  0.6663 -0.6572
 9854SOL     OW30277   3.693   1.210   1.413  0.0612 -0.2433 -0.2098
 9854SOL    HW130278   3.759   1.277   1.396  0.7401 -0.6805  0.6271
 9854SOL    HW230279   3.623   1.229   1.351  0.2258  1.2656  0.0334
 9855SOL     OW30280   1.054   1.196   4.003  0.1870 -0.3487  0.4256
 9855SOL    HW130281   1.055   1.281   3.959  1.1706 -0.9802 -0.7921
 9855SOL    HW230282   0.962   1.170   4.003  0.4605 -1.7551 -4.0946
 9856SOL     OW30283   2.833   1.930   6.373 -0.2739 -0.0870  0.3488
 9856SOL    HW130284   2.885   1.942   6.294 -1.6701  1.4109 -0.3745
 9856SOL    HW230285   2.773   1.858   6.352  1.4582 -1.8300  1.1906
 9857SOL     OW30286   0.803   5.626   4.300  0.2026  0.6241  0.1485
 9857SOL    HW130287   0.864   5.605   4.229 -0.5204  0.7170 -0.4997
 9857SOL    HW230288   0.767   5.711   4.276 -0.8365  0.1760  0.0834
 9858SOL     OW30289   5.313   3.810   1.954 -0.0239  0.5406  0.0876
 9858SOL    HW130290   5.268   3.762   2.023 -1.2288  2.0487  0.3668
 9858SOL    HW230291   5.243   3.840   1.896  0.7236  1.9636 -0.0910
 9859SOL     OW30292   1.911   0.613   2.470 -0.4321 -0.6365 -0.0720
 9859SOL    HW130293   1.824   0.618   2.511 -0.0610  0.0456  0.6483
 9859SOL    HW230294   1.896   0.642   2.380 -0.5667  1.7349  0.6753
 9860SOL     OW30295   4.482   3.025   0.311  0.1516  0.3134  0.0944
 9860SOL    HW130296   4.471   3.068   0.226 -0.2894 -1.1339 -0.5982
 9860SOL    HW230297   4.393   3.010   0.341  0.2914 -1.0109 -0.1363
 9861SOL     OW30298   6.227   0.243   6.351  1.0051 -0.7675 -0.1351
 9861SOL    HW130299   6.172   0.321   6.355  2.9112  0.6369 -0.6465
 9861SOL    HW230300   6.170   0.176   6.314 -0.7206  0.3217  0.4749
 9862SOL     OW30301   3.690   5.314   5.181  0.1962 -0.1952  0.5641
 9862SOL    HW130302   3.670   5.407   5.166 -0.3592 -0.4275 -0.1423
 9862SOL    HW230303   3.765   5.315   5.240  0.9245  0.7149 -0.3740
 9863SOL     OW30304   3.060   2.227   4.974 -0.0092 -0.9012  0.4732
 9863SOL    HW130305   2.974   2.244   5.011 -1.4165 -2.4476 -1.9405
 9863SOL    HW230306   3.118   2.216   5.049 -1.9172  0.0717  2.1166
 9864SOL     OW30307   6.009   6.269   5.039  0.1168  0.2254  0.5094
 9864SOL    HW130308   6.085   6.324   5.019  0.0436  0.2877  0.3993
 9864SOL    HW230309   6.032   6.182   5.007 -0.1553  0.4117 -0.1901
 9865SOL     OW30310   2.255   4.667   5.130  0.5345  0.6722 -0.1228
 9865SOL    HW130311   2.224   4.678   5.041  2.1808 -0.7815 -0.8995
 9865SOL    HW230312   2.320   4.597   5.125  1.2078  1.0854  2.0806
 9866SOL     OW30313   4.890   5.730   4.893 -0.6922  0.3848  0.1086
 9866SOL    HW130314   4.851   5.724   4.806  0.3361  0.6654 -0.3765
 9866SOL    HW230315   4.886   5.823   4.915  1.0098  0.6269 -0.5564
 9867SOL     OW30316   0.410   0.192   3.516 -0.5875  0.0020 -0.1222
 9867SOL    HW130317   0.476   0.223   3.577 -0.6074  0.8550 -0.5187
 9867SOL    HW230318   0.460   0.155   3.443 -0.5499 -0.1881  0.0028
 9868SOL     OW30319   2.460   3.789   4.571  0.0307 -0.7158  0.2700
 9868SOL    HW130320   2.392   3.843   4.613 -0.1401  0.2793 -1.2426
 9868SOL    HW230321   2.426   3.700   4.577 -0.2456 -0.5291  1.7322
 9869SOL     OW30322   2.558   3.911   1.519  0.4423 -0.3469 -0.0242
 9869SOL    HW130323   2.564   3.816   1.530 -0.4143 -0.6311 -1.8455
 9869SOL    HW230324   2.472   3.934   1.555  0.3634 -0.3451 -0.2185
 9870SOL     OW30325   2.050   1.253   2.281  0.2505 -0.1113  0.0989
 9870SOL    HW130326   1.993   1.312   2.330 -0.4961  0.3477 -1.3229
 9870SOL    HW230327   2.002   1.170   2.277  0.6003 -0.3528  0.6880
 9871SOL     OW30328   6.294   6.358   3.090 -0.6280 -0.3364 -0.2245
 9871SOL    HW130329   6.322   6.277   3.047  0.1618  0.4034 -1.1068
 9871SOL    HW230330   6.371   6.390   3.136 -1.5465 -1.2980  2.0866
 9872SOL     OW30331   2.038   4.472   1.689 -0.4259  0.3988  0.0590
 9872SOL    HW130332   1.999   4.390   1.658  0.8500 -0.1229 -0.2007
 9872SOL    HW230333   1.985   4.541   1.649  0.0049 -0.2795 -1.6988
 9873SOL     OW30334   5.606   3.044   0.797  0.0488 -0.0410 -0.0076
 9873SOL    HW130335   5.558   3.001   0.868  0.3762  0.5633  0.5835
 9873SOL    HW230336   5.544   3.107   0.761  0.0851  0.0713  0.1288
 9874SOL     OW30337   6.731   3.682   0.121 -0.2193 -0.1126  0.0065
 9874SOL    HW130338   6.638   3.661   0.133  0.1585 -0.4262  2.5248
 9874SOL    HW230339   6.731   3.745   0.049 -2.3883 -0.1419 -0.0708
 9875SOL     OW30340   1.229   4.580   1.430 -0.3088  0.3627  0.8228
 9875SOL    HW130341   1.150   4.525   1.436  0.1160 -0.2556  0.7680
 9875SOL    HW230342   1.213   4.637   1.356 -0.4766 -0.1340  0.4741
 9876SOL     OW30343   5.779   4.896   2.547  1.1163  0.0938 -0.0446
 9876SOL    HW130344   5.719   4.967   2.568  0.5511 -0.1957 -0.6747
 9876SOL    HW230345   5.851   4.937   2.498  0.8090  0.2331 -0.3754
 9877SOL     OW30346   1.223   5.943   2.438  0.1671  0.0681 -0.3277
 9877SOL    HW130347   1.260   5.883   2.372  2.5774 -0.4609  1.4372
 9877SOL    HW230348   1.159   5.890   2.485  0.3314 -0.3189 -0.5305
 9878SOL     OW30349   0.990   1.723   0.572 -0.1762  0.3785 -0.2790
 9878SOL    HW130350   1.025   1.743   0.659  0.9489  2.4414 -1.1836
 9878SOL    HW230351   0.897   1.705   0.587  0.0390  0.5971  1.3566
 9879SOL     OW30352   6.737   4.212   4.726 -0.2175 -0.3570  0.4073
 9879SOL    HW130353   6.664   4.228   4.667 -0.2427 -1.2765  0.1834
 9879SOL    HW230354   6.740   4.290   4.782 -0.7808  0.0960 -0.1815
 9880SOL     OW30355   5.812   4.757   5.958  0.8681  0.0458  0.1331
 9880SOL    HW130356   5.826   4.709   5.876  2.1605  1.9728 -0.8047
 9880SOL    HW230357   5.763   4.835   5.933 -0.0090 -0.0623  1.4401
 9881SOL     OW30358   1.080   1.486   1.912 -0.4641 -0.0321  0.5748
 9881SOL    HW130359   1.169   1.515   1.891  0.5552 -3.9824 -0.9916
 9881SOL    HW230360   1.029   1.508   1.834  0.3517 -2.4517 -0.6959
 9882SOL     OW30361   0.445   2.324   0.736  0.1870 -0.1547 -0.4279
 9882SOL    HW130362   0.361   2.292   0.704  0.9931 -1.3173 -1.4533
 9882SOL    HW230363   0.426   2.410   0.772 -1.9387 -1.5096  1.8178
 9883SOL     OW30364   6.712   4.490   5.113  0.0585 -0.0282 -0.3566
 9883SOL    HW130365   6.691   4.569   5.064 -0.7459 -0.3594 -0.5658
 9883SOL    HW230366   6.634   4.435   5.104  0.6997 -0.9485 -0.4214
 9884SOL     OW30367   0.429   4.615   1.509  0.0432 -0.2039  0.3257
 9884SOL    HW130368   0.454   4.524   1.493 -1.4855 -0.7576  0.9675
 9884SOL    HW230369   0.476   4.665   1.443  1.1747 -1.4242  0.1843
 9885SOL     OW30370   6.495   5.005   0.355 -0.1932 -0.1313 -0.0678
 9885SOL    HW130371   6.447   4.925   0.334 -0.9483  0.3088 -0.0643
 9885SOL    HW230372   6.569   5.006   0.295 -0.1550 -0.8592 -0.0323
 9886SOL     OW30373   4.088   4.666   6.729 -0.6248  0.0221 -0.2157
 9886SOL    HW130374   4.044   4.738   6.774  2.5699  1.5635  0.5700
 9886SOL    HW230375   4.147   4.709   6.668 -0.2640 -1.9967 -1.3085
 9887SOL     OW30376   3.879   5.398   6.301 -0.3108  0.2385  0.4067
 9887SOL    HW130377   3.936   5.470   6.273 -0.7875  0.4150 -0.1100
 9887SOL    HW230378   3.938   5.339   6.348 -0.0052  1.1800  1.2211
 9888SOL     OW30379   0.578   2.066   0.059  0.0128  0.2681  0.2451
 9888SOL    HW130380   0.616   1.990   0.016 -1.0278  0.1662 -0.5206
 9888SOL    HW230381   0.494   2.079   0.015 -0.2314  1.3002  0.9901
 9889SOL     OW30382   4.947   0.117   2.689 -0.2783 -0.1975 -0.0623
 9889SOL    HW130383   4.947   0.173   2.767 -1.2057 -0.3002  0.0220
 9889SOL    HW230384   4.861   0.131   2.650  0.3076  0.1158 -1.2745
 9890SOL     OW30385   6.263   2.841   0.239  0.0063 -0.1183  0.7307
 9890SOL    HW130386   6.203   2.896   0.189  1.7235  0.2890 -0.9350
 9890SOL    HW230387   6.207   2.795   0.302 -1.6886  2.2028  0.9857
 9891SOL     OW30388   5.961   4.501   3.835 -0.2528  0.0588  0.4913
 9891SOL    HW130389   5.871   4.474   3.854  0.1419 -0.7686  1.2448
 9891SOL    HW230390   6.015   4.429   3.869  0.6319 -0.0487 -1.0887
 9892SOL     OW30391   4.285   1.006   3.833 -0.0948  0.0640 -0.4094
 9892SOL    HW130392   4.208   1.028   3.781 -0.4068 -0.1549 -0.0389
 9892SOL    HW230393   4.272   0.914   3.857 -0.3394  0.3851  0.7235
 9893SOL     OW30394   0.916   2.518   5.873 -0.0870 -0.2343  0.3959
 9893SOL    HW130395   0.991   2.461   5.856 -0.5165 -0.9631  0.9266
 9893SOL    HW230396   0.865   2.515   5.792  1.4642  1.8243 -0.6820
 9894SOL     OW30397   5.378   5.825   4.357  0.1514 -0.0314  0.1117
 9894SOL    HW130398   5.438   5.821   4.431  0.0054 -0.1867  0.2223
 9894SOL    HW230399   5.298   5.865   4.393 -1.0560 -2.9403  0.8109
 9895SOL     OW30400   1.229   6.494   1.616  0.2568  0.0767  0.1688
 9895SOL    HW130401   1.312   6.448   1.627  0.6668  1.0528  1.2705
 9895SOL    HW230402   1.248   6.585   1.639 -1.0012  0.4212 -0.0665
 9896SOL     OW30403   3.083   5.719   4.577  1.2670  0.1812 -0.2918
 9896SOL    HW130404   3.051   5.750   4.662 -0.1258 -1.5779 -0.1562
 9896SOL    HW230405   3.097   5.799   4.526 -2.6254  1.0851 -0.0886
 9897SOL     OW30406   2.638   3.470   3.348  0.3280 -0.0130  0.0867
 9897SOL    HW130407   2.709   3.466   3.412  1.1796  0.3479 -0.8188
 9897SOL    HW230408   2.676   3.436   3.267  0.1713  2.3892 -1.0291
 9898SOL     OW30409   4.621   0.499   5.849 -0.4362 -0.5238 -0.0103
 9898SOL    HW130410   4.692   0.435   5.852  0.6148  0.5580 -0.9000
 9898SOL    HW230411   4.565   0.478   5.924  0.9669 -1.2293  0.8502
 9899SOL     OW30412   5.706   3.182   6.473 -0.1885 -0.2482  0.2922
 9899SOL    HW130413   5.743   3.125   6.540  1.7601  0.4548 -0.1424
 9899SOL    HW230414   5.650   3.125   6.420 -0.7125 -1.0753  1.7326
 9900SOL     OW30415   5.829   2.753   0.512 -0.4036 -0.3926 -0.6608
 9900SOL    HW130416   5.825   2.658   0.501  1.1345 -0.7240  1.3444
 9900SOL    HW230417   5.808   2.768   0.604 -0.2190  1.1658 -0.8587
 9901SOL     OW30418   2.350   4.813   5.715  0.2084  0.2971 -0.3036
 9901SOL    HW130419   2.282   4.852   5.660  0.0751  0.5054  0.0160
 9901SOL    HW230420   2.414   4.883   5.728 -1.2156  1.1603  2.2957
 9902SOL     OW30421   2.374   4.886   1.593  0.2335 -0.2169 -0.0356
 9902SOL    HW130422   2.466   4.897   1.570  0.7206 -2.5002  0.6914
 9902SOL    HW230423   2.340   4.826   1.527 -0.6989  0.4959 -0.2047
 9903SOL     OW30424   5.970   1.578   5.609 -0.3303 -0.6738 -0.5686
 9903SOL    HW130425   5.976   1.566   5.514  1.7517 -0.0781 -0.5552
 9903SOL    HW230426   6.025   1.509   5.645  0.3619  0.2106  0.1078
 9904SOL     OW30427   4.636   0.245   3.519  0.2601  0.3851 -0.2117
 9904SOL    HW130428   4.604   0.252   3.429 -1.0172  1.7694  0.3271
 9904SOL    HW230429   4.624   0.333   3.556  0.2497 -0.2980  1.4768
 9905SOL     OW30430   6.066   6.409   2.409  0.1296 -0.5020  0.3556
 9905SOL    HW130431   6.076   6.503   2.421  1.3666 -0.4596 -0.8788
 9905SOL    HW230432   5.977   6.390   2.439 -0.0893  1.0399  0.7103
 9906SOL     OW30433   2.664   2.659   3.034 -0.1887 -0.1834 -0.5723
 9906SOL    HW130434   2.602   2.630   3.100 -0.2920  0.7040 -0.2767
 9906SOL    HW230435   2.623   2.736   2.994 -0.6776 -1.4211 -2.5003
 9907SOL     OW30436   3.281   1.790   4.005  0.2581 -0.1073 -1.0527
 9907SOL    HW130437   3.249   1.712   3.959  0.7478 -1.2069  0.4569
 9907SOL    HW230438   3.304   1.759   4.092  1.3817  1.5360 -0.7447
 9908SOL     OW30439   0.103   5.223   1.166 -0.3516 -0.0842  1.0002
 9908SOL    HW130440   0.089   5.149   1.108  0.1463  1.4715 -1.2057
 9908SOL    HW230441   0.175   5.272   1.125  0.1283  0.9772  3.0297
 9909SOL     OW30442   4.328   5.902   6.335  0.1589 -0.5210 -0.2517
 9909SOL    HW130443   4.334   5.939   6.247 -0.8132 -0.2138 -0.2034
 9909SOL    HW230444   4.267   5.829   6.327  0.7035 -1.0059  0.0061
 9910SOL     OW30445   2.284   0.619   3.097  0.2125  0.5206  0.2346
 9910SOL    HW130446   2.211   0.632   3.037  0.6832 -0.8898 -0.6684
 9910SOL    HW230447   2.264   0.676   3.172 -0.8922  1.5169 -0.7927
 9911SOL     OW30448   6.531   1.426   6.711 -0.1484  0.3297 -0.2594
 9911SOL    HW130449   6.528   1.376   6.630 -0.9501  1.7186 -1.1043
 9911SOL    HW230450   6.621   1.418   6.741 -0.3525 -1.9491 -0.1526
 9912SOL     OW30451   0.134   0.475   0.740 -0.0202 -0.2963  0.2669
 9912SOL    HW130452   0.113   0.479   0.833  1.2700 -2.0633  0.6618
 9912SOL    HW230453   0.217   0.521   0.732 -1.4485  2.2699 -0.4909
 9913SOL     OW30454   3.751   4.578   6.357 -0.1656  0.2807  0.7240
 9913SOL    HW130455   3.825   4.523   6.332  0.0209  1.1300 -0.6807
 9913SOL    HW230456   3.682   4.517   6.381  0.0325 -0.5758 -0.8083
 9914SOL     OW30457   6.161   2.089   2.908 -0.1887  0.3678 -0.2195
 9914SOL    HW130458   6.171   2.063   2.817  1.0314 -0.0810  0.0328
 9914SOL    HW230459   6.109   2.169   2.905  1.2122  1.2593 -1.4192
 9915SOL     OW30460   4.898   0.934   2.561 -0.2045 -0.1188 -0.4061
 9915SOL    HW130461   4.922   0.863   2.501  0.9805  1.4264 -1.7974
 9915SOL    HW230462   4.873   0.889   2.642  1.9421 -2.0754 -0.7761
 9916SOL     OW30463   0.784   3.631   6.536 -0.6875 -0.0007 -0.1115
 9916SOL    HW130464   0.742   3.606   6.454  0.5213  1.6519 -1.2860
 9916SOL    HW230465   0.860   3.573   6.543 -0.1807  0.5854 -0.7290
 9917SOL     OW30466   2.299   1.941   3.749  0.4461 -0.1329 -0.4443
 9917SOL    HW130467   2.331   1.987   3.671  1.0598  0.2592  0.0388
 9917SOL    HW230468   2.250   2.007   3.798 -0.7337 -0.6171 -0.9554
 9918SOL     OW30469   6.373   1.664   6.427  1.0305  0.3732 -0.5314
 9918SOL    HW130470   6.303   1.667   6.362  0.4398  0.0799  0.0841
 9918SOL    HW230471   6.336   1.706   6.504  1.4178 -0.0912 -0.0878
 9919SOL     OW30472   5.180   5.613   0.645 -0.4841 -0.3061  0.4118
 9919SOL    HW130473   5.153   5.587   0.556 -0.0778 -0.3454  0.2989
 9919SOL    HW230474   5.177   5.709   0.643  0.5716 -0.2698  0.0190
 9920SOL     OW30475   6.026   3.738   1.149 -0.1913  0.6893  0.2952
 9920SOL    HW130476   6.079   3.806   1.190 -1.7695  0.7886  2.2426
 9920SOL    HW230477   5.937   3.773   1.151 -0.6656 -0.4137 -0.9053
 9921SOL     OW30478   4.389   1.491   2.711 -0.1741  0.1359 -0.2460
 9921SOL    HW130479   4.368   1.437   2.788 -1.6090  0.1932 -0.5828
 9921SOL    HW230480   4.344   1.446   2.639  0.6483  0.4338 -0.9392
 9922SOL     OW30481   1.527   1.121   6.353 -0.0694  0.3805 -0.1843
 9922SOL    HW130482   1.465   1.152   6.420  0.9827  1.0573  0.4923
 9922SOL    HW230483   1.607   1.101   6.402  0.3419 -0.2175 -1.0935
 9923SOL     OW30484   4.223   1.247   4.843 -0.2174 -0.4843 -0.1477
 9923SOL    HW130485   4.230   1.294   4.926 -0.7835 -0.4600 -0.1133
 9923SOL    HW230486   4.285   1.174   4.851  0.2369 -0.0792  0.0207
 9924SOL     OW30487   2.655   6.451   4.625  0.3243  0.3619  0.1637
 9924SOL    HW130488   2.687   6.426   4.539  0.9628 -0.5191  0.6446
 9924SOL    HW230489   2.711   6.403   4.686 -1.9530 -1.2565  1.0280
 9925SOL     OW30490   0.834   5.764   0.052 -0.3597 -0.0598  0.1982
 9925SOL    HW130491   0.922   5.778   0.015  0.2972 -3.1589  0.4371
 9925SOL    HW230492   0.841   5.796   0.142  0.1896  0.7176 -0.1087
 9926SOL     OW30493   1.913   2.206   3.289  0.1583  0.4347 -0.3272
 9926SOL    HW130494   1.843   2.207   3.355  1.7592  1.4459  1.4375
 9926SOL    HW230495   1.962   2.126   3.308 -0.6274 -0.3709 -1.6825
 9927SOL     OW30496   0.660   0.266   3.019  0.3434  0.5039  0.6507
 9927SOL    HW130497   0.649   0.344   2.966 -0.5648  0.1709  0.3302
 9927SOL    HW230498   0.631   0.194   2.962  0.2668  0.0440  1.2613
 9928SOL     OW30499   2.607   3.426   2.316  0.2403  0.4291 -0.2303
 9928SOL    HW130500   2.558   3.507   2.306  2.1669  1.7174  0.6315
 9928SOL    HW230501   2.688   3.440   2.265  1.1007 -0.5006  0.8529
 9929SOL     OW30502   5.709   4.973   5.853  0.0165 -0.2138  0.3804
 9929SOL    HW130503   5.635   5.027   5.878  0.1241  1.0665 -1.9962
 9929SOL    HW230504   5.695   4.952   5.761  2.1022 -0.7698  0.1529
 9930SOL     OW30505   2.307   0.906   5.104  0.2312 -0.4160  0.4861
 9930SOL    HW130506   2.304   0.987   5.052 -0.4075 -1.7072 -1.5526
 9930SOL    HW230507   2.371   0.925   5.173  1.5300  1.1913 -1.0832
 9931SOL     OW30508   1.466   6.682   3.047  0.5017 -0.2469  0.5747
 9931SOL    HW130509   1.478   6.666   3.140 -3.2346 -0.9506  1.0176
 9931SOL    HW230510   1.408   6.758   3.043 -0.5348 -1.0756 -1.0990
 9932SOL     OW30511   5.326   3.810   0.148 -0.1716 -0.2186  0.6721
 9932SOL    HW130512   5.240   3.849   0.135  0.2629  1.1251  1.5990
 9932SOL    HW230513   5.387   3.875   0.113  0.4490 -1.2296 -0.1239
 9933SOL     OW30514   1.580   3.399   3.333 -0.3595  0.0318 -0.3045
 9933SOL    HW130515   1.651   3.458   3.310 -1.4090  0.6670 -2.0109
 9933SOL    HW230516   1.582   3.331   3.265 -1.1116 -0.1710 -0.1295
 9934SOL     OW30517   0.454   3.435   2.703  0.2989  0.1975  0.7175
 9934SOL    HW130518   0.376   3.383   2.685 -0.2622  0.4731  2.3022
 9934SOL    HW230519   0.439   3.517   2.656  1.1770 -0.9987 -1.7762
 9935SOL     OW30520   0.827   0.669   2.366 -0.4468 -0.1390 -0.3684
 9935SOL    HW130521   0.734   0.662   2.349 -1.0939  2.0726  1.9487
 9935SOL    HW230522   0.840   0.761   2.392  2.2143 -0.6181  0.1503
 9936SOL     OW30523   5.894   0.490   4.036 -0.1804  0.0516  0.3159
 9936SOL    HW130524   5.953   0.434   3.985  1.8963  0.6582  1.9779
 9936SOL    HW230525   5.856   0.550   3.971  0.2716 -0.9894 -0.9320
 9937SOL     OW30526   0.396   4.064   6.573  0.0878  0.7176 -0.7591
 9937SOL    HW130527   0.408   3.984   6.523 -0.9389 -0.9908  1.6308
 9937SOL    HW230528   0.481   4.080   6.615  0.3198  0.9482 -1.3122
 9938SOL     OW30529   0.479   5.296   0.935  0.3937  0.0703 -0.4929
 9938SOL    HW130530   0.508   5.372   0.985  2.4166 -0.6930 -0.4561
 9938SOL    HW230531   0.430   5.243   0.999  0.5746  0.4495 -0.0392
 9939SOL     OW30532   5.883   1.490   2.049 -0.1071  0.8547 -0.2368
 9939SOL    HW130533   5.821   1.526   1.986 -1.1745 -0.1363  0.2415
 9939SOL    HW230534   5.959   1.464   1.997 -0.5924  0.9242 -0.9769
 9940SOL     OW30535   4.532   5.510   2.869  0.2242  0.2423 -0.0800
 9940SOL    HW130536   4.482   5.430   2.883  1.5250 -0.7551 -1.0334
 9940SOL    HW230537   4.473   5.580   2.897 -1.6628 -0.9043 -1.0414
 9941SOL     OW30538   5.600   6.252   0.911  1.0725 -0.2890 -0.0424
 9941SOL    HW130539   5.529   6.206   0.866 -0.0854  0.0600  1.3823
 9941SOL    HW230540   5.608   6.207   0.995  0.3591  1.6740  1.1064
 9942SOL     OW30541   2.965   5.057   3.253  0.0259  0.5546 -0.0455
 9942SOL    HW130542   2.957   4.962   3.238 -1.2841  0.8133 -1.0493
 9942SOL    HW230543   2.900   5.096   3.195  1.3702  2.1581 -0.5148
 9943SOL     OW30544   4.706   4.001   4.245 -0.7300 -0.0697 -0.1661
 9943SOL    HW130545   4.646   4.004   4.320  0.4448  2.1739  0.7181
 9943SOL    HW230546   4.793   4.012   4.284  0.3521 -3.6001 -1.3966
 9944SOL     OW30547   1.790   3.635   4.019  0.2611  0.0841  0.4807
 9944SOL    HW130548   1.812   3.677   4.102  3.0056 -0.9351  0.3023
 9944SOL    HW230549   1.804   3.703   3.953  1.1459 -0.0215  0.5542
 9945SOL     OW30550   0.920   4.826   2.407 -0.3334  0.1513  0.0313
 9945SOL    HW130551   0.867   4.879   2.467 -0.6787 -0.3375  0.1605
 9945SOL    HW230552   0.876   4.742   2.405 -1.1551  0.6010 -2.0155
 9946SOL     OW30553   4.248   6.491   0.069  0.4668  0.2603 -0.3179
 9946SOL    HW130554   4.192   6.535   0.006  1.0906  0.1708 -0.9405
 9946SOL    HW230555   4.293   6.424   0.018  0.0861 -0.6055  0.4622
 9947SOL     OW30556   6.412   5.956   4.127  0.0150 -0.3255 -0.6316
 9947SOL    HW130557   6.389   5.892   4.059 -0.3475 -0.8270 -0.0379
 9947SOL    HW230558   6.331   5.971   4.175  0.6889 -1.4467  0.9189
 9948SOL     OW30559   0.557   1.287   5.592 -0.6598  0.1115  0.0369
 9948SOL    HW130560   0.576   1.306   5.684  2.0878  0.7892 -0.6157
 9948SOL    HW230561   0.632   1.234   5.563 -1.6858 -0.4067 -1.7101
 9949SOL     OW30562   6.726   3.705   4.306 -0.4782  0.0972 -0.2171
 9949SOL    HW130563   6.688   3.726   4.221 -0.9370 -1.3366 -0.3685
 9949SOL    HW230564   6.741   3.791   4.347 -0.2525  0.7912 -1.7287
 9950SOL     OW30565   4.312   3.979   4.299  0.2570  0.3487  0.4831
 9950SOL    HW130566   4.301   3.910   4.234  0.4575  0.1509  0.6602
 9950SOL    HW230567   4.272   3.944   4.379  0.8289  0.2261  0.7185
 9951SOL     OW30568   3.358   0.628   4.787 -0.1085  0.3497  0.1403
 9951SOL    HW130569   3.310   0.652   4.707  0.2537 -0.7235 -0.4077
 9951SOL    HW230570   3.346   0.704   4.845 -1.5650  0.5573 -0.3884
 9952SOL     OW30571   3.767   1.950   4.669  0.0230  0.5845  1.0841
 9952SOL    HW130572   3.839   1.967   4.607  0.6901  1.0420  1.9660
 9952SOL    HW230573   3.749   1.856   4.660 -0.9815  0.9428 -0.9555
 9953SOL     OW30574   3.013   6.035   1.865  0.0067 -0.4463 -0.2860
 9953SOL    HW130575   2.925   6.004   1.885  0.4292 -2.0354 -0.7636
 9953SOL    HW230576   3.055   6.046   1.950 -0.1760 -1.1701 -0.0977
 9954SOL     OW30577   3.199   5.182   0.586  0.5175  0.2438 -0.5607
 9954SOL    HW130578   3.215   5.218   0.499  1.6149 -0.1086 -0.5260
 9954SOL    HW230579   3.178   5.090   0.570  2.8048 -0.3556 -0.3514
 9955SOL     OW30580   0.768   4.416   1.890  0.2968  0.4003  0.0799
 9955SOL    HW130581   0.702   4.412   1.821 -0.7056 -1.1092  1.0867
 9955SOL    HW230582   0.742   4.490   1.945  1.1533  1.6681 -1.1736
 9956SOL     OW30583   4.274   0.200   3.783  0.5575  0.5478 -0.4793
 9956SOL    HW130584   4.280   0.259   3.859 -2.0849 -1.4198  1.3700
 9956SOL    HW230585   4.224   0.250   3.718  0.1949  1.1470  0.2465
 9957SOL     OW30586   6.239   4.747   5.204 -0.3564 -0.1753  0.5140
 9957SOL    HW130587   6.255   4.656   5.228 -1.4372 -1.1414 -2.1361
 9957SOL    HW230588   6.325   4.788   5.200  0.2155 -1.3712  0.6648
 9958SOL     OW30589   6.181   5.980   0.959 -0.0969  0.2961 -0.4543
 9958SOL    HW130590   6.224   5.895   0.950 -1.2284 -0.4355  0.7619
 9958SOL    HW230591   6.134   5.974   1.043 -0.4785  1.9893 -0.5287
 9959SOL     OW30592   6.536   5.757   4.834 -0.5636 -0.0355 -0.0243
 9959SOL    HW130593   6.594   5.829   4.811 -1.3651  0.3330 -0.9190
 9959SOL    HW230594   6.592   5.679   4.834  0.0566  0.4138 -0.2497
 9960SOL     OW30595   5.884   6.233   5.393  0.1713  0.0655 -0.0872
 9960SOL    HW130596   5.859   6.288   5.319  0.1875 -0.5340 -0.5430
 9960SOL    HW230597   5.902   6.147   5.355 -0.6359 -0.4753  0.7114
 9961SOL     OW30598   2.535   6.164   2.270 -0.1160  0.0108  0.4385
 9961SOL    HW130599   2.542   6.071   2.249  2.3232  0.2602 -0.0275
 9961SOL    HW230600   2.476   6.199   2.204  0.6306 -0.8182 -0.6775
 9962SOL     OW30601   5.932   3.799   5.317 -0.0188  0.1194 -0.0613
 9962SOL    HW130602   5.841   3.776   5.297 -0.0384  1.1135 -1.1675
 9962SOL    HW230603   5.946   3.764   5.405 -1.2164 -0.7566 -0.1905
 9963SOL     OW30604   5.348   2.198   6.021 -0.2086  0.1989 -0.4201
 9963SOL    HW130605   5.259   2.214   5.990  0.2327  0.4187 -1.5653
 9963SOL    HW230606   5.336   2.142   6.098 -1.3472  0.3469 -0.4804
 9964SOL     OW30607   2.495   5.697   6.268 -0.3961  0.1783 -0.0404
 9964SOL    HW130608   2.404   5.686   6.241 -1.0226  1.7170  1.3795
 9964SOL    HW230609   2.526   5.773   6.218 -0.3736  0.6304  0.6566
 9965SOL     OW30610   2.540   5.135   2.562 -0.0235  0.0173 -0.7959
 9965SOL    HW130611   2.492   5.135   2.480  0.4356 -2.5147 -1.1118
 9965SOL    HW230612   2.496   5.200   2.617 -1.7243  0.1049 -2.2449
 9966SOL     OW30613   5.229   0.759   6.536  0.1013 -0.3237  0.5589
 9966SOL    HW130614   5.248   0.732   6.447 -0.4111 -0.1881  0.4054
 9966SOL    HW230615   5.250   0.852   6.538 -0.7330 -0.1271  0.3317
 9967SOL     OW30616   5.037   4.817   4.111 -0.5019 -0.2190 -0.1718
 9967SOL    HW130617   4.997   4.730   4.110  0.1174 -0.5103 -0.0498
 9967SOL    HW230618   5.065   4.829   4.202  0.7579 -0.5223 -0.5069
 9968SOL     OW30619   5.363   6.584   5.880 -0.1755  0.2985 -0.0840
 9968SOL    HW130620   5.413   6.665   5.873 -0.2919  0.2863 -1.1048
 9968SOL    HW230621   5.328   6.585   5.969  2.2174 -0.0454  0.8933
 9969SOL     OW30622   4.551   3.460   2.562  0.4106  0.7681 -0.5841
 9969SOL    HW130623   4.478   3.441   2.621  1.4928  0.2060  0.5915
 9969SOL    HW230624   4.574   3.551   2.581 -0.8560  1.3906 -1.9321
 9970SOL     OW30625   3.321   0.229   6.610 -0.3165  0.1379 -0.1207
 9970SOL    HW130626   3.343   0.261   6.698 -0.6179 -0.0662  0.0314
 9970SOL    HW230627   3.387   0.268   6.553 -0.3990  0.6533  0.1301
 9971SOL     OW30628   6.518   2.735   2.283 -0.1409  0.5793 -0.1809
 9971SOL    HW130629   6.583   2.665   2.274  0.4084  1.2286 -1.3569
 9971SOL    HW230630   6.468   2.732   2.201 -1.9188 -0.2264  0.9045
 9972SOL     OW30631   0.756   0.156   4.745  0.0900  0.1542  0.3172
 9972SOL    HW130632   0.711   0.195   4.820  0.2562  1.3015 -0.1547
 9972SOL    HW230633   0.834   0.211   4.733  0.7490 -0.8256  0.1279
 9973SOL     OW30634   4.773   1.918   2.700  0.2965 -0.5234  0.6466
 9973SOL    HW130635   4.680   1.910   2.722  0.8678 -0.2071  3.3306
 9973SOL    HW230636   4.819   1.895   2.781  2.5723 -0.8191 -0.6920
 9974SOL     OW30637   5.077   6.195   2.749  0.0974  0.2174 -0.1110
 9974SOL    HW130638   4.982   6.209   2.748 -0.3055 -2.1000  0.8197
 9974SOL    HW230639   5.104   6.226   2.835 -0.2495 -1.3860  0.6066
 9975SOL     OW30640   3.126   6.350   5.114 -0.5605  0.4878  0.4363
 9975SOL    HW130641   3.036   6.372   5.090 -0.8846 -0.7665  0.4556
 9975SOL    HW230642   3.158   6.427   5.162 -0.8435  1.8559 -1.5459
 9976SOL     OW30643   4.853   1.592   4.014  0.2360  0.0790  0.6512
 9976SOL    HW130644   4.909   1.668   4.030  0.5843 -0.1093  0.3493
 9976SOL    HW230645   4.765   1.629   4.004  0.2764  0.3583  1.3148
 9977SOL     OW30646   0.365   1.053   5.176 -0.2038  0.5091  0.6669
 9977SOL    HW130647   0.364   1.105   5.256  0.2826  0.2298  0.8634
 9977SOL    HW230648   0.326   0.969   5.201 -0.6349  0.6462  0.4509
 9978SOL     OW30649   3.668   3.794   1.718 -0.1094 -0.5239  0.4374
 9978SOL    HW130650   3.581   3.831   1.705 -0.7037 -1.5159  1.5673
 9978SOL    HW230651   3.693   3.820   1.807  0.2151 -1.3178  0.5833
 9979SOL     OW30652   6.608   3.309   4.009  0.6765  0.1695 -0.5601
 9979SOL    HW130653   6.662   3.349   4.078  0.4022 -1.1735  0.4477
 9979SOL    HW230654   6.532   3.275   4.055 -0.2613  0.6234 -1.7623
 9980SOL     OW30655   4.396   3.976   0.511  0.1688  0.1931  0.0944
 9980SOL    HW130656   4.322   3.984   0.571  0.3166 -0.0008  0.2996
 9980SOL    HW230657   4.408   4.064   0.476 -0.2420  0.2001 -0.0374
 9981SOL     OW30658   0.392   2.850   6.305 -0.1591 -0.5929  0.5581
 9981SOL    HW130659   0.455   2.913   6.270  1.1556 -2.6128 -0.8603
 9981SOL    HW230660   0.329   2.838   6.234 -1.2986  0.3023  1.4179
 9982SOL     OW30661   1.895   3.903   1.814  0.0242  0.0203 -0.3994
 9982SOL    HW130662   1.926   3.991   1.833 -1.1452  0.4175 -0.3063
 9982SOL    HW230663   1.812   3.895   1.861  0.2839 -1.2489 -0.1317
 9983SOL     OW30664   2.483   5.491   0.967  0.2981 -0.2850 -0.5194
 9983SOL    HW130665   2.507   5.582   0.948 -0.0823 -0.3132 -1.1348
 9983SOL    HW230666   2.530   5.439   0.902 -1.5953 -0.3230 -1.9020
 9984SOL     OW30667   1.207   2.311   4.076  0.4603  0.1090 -0.0417
 9984SOL    HW130668   1.115   2.337   4.075  0.2386 -0.6682 -0.3769
 9984SOL    HW230669   1.242   2.347   3.994  0.0009 -1.1612 -0.8159
 9985SOL     OW30670   0.610   2.857   6.551  0.1167  0.1105 -0.2447
 9985SOL    HW130671   0.694   2.812   6.552  0.8402  1.3940  1.7323
 9985SOL    HW230672   0.569   2.833   6.468  1.4048 -2.4054 -0.1750
 9986SOL     OW30673   4.373   1.996   1.278  0.7146 -0.1974 -0.2730
 9986SOL    HW130674   4.329   2.081   1.289  1.2525  0.3108 -1.9891
 9986SOL    HW230675   4.378   1.984   1.183 -1.2574 -3.1401 -0.0738
 9987SOL     OW30676   3.898   5.893   0.588  0.1360  0.0999  0.0917
 9987SOL    HW130677   3.843   5.971   0.579 -0.0130 -0.0107  0.0384
 9987SOL    HW230678   3.837   5.823   0.608  0.1343 -0.2320 -1.0363
 9988SOL     OW30679   1.460   0.575   1.447 -0.9433  0.0774  0.5639
 9988SOL    HW130680   1.485   0.652   1.498 -0.5166  0.2950  0.0173
 9988SOL    HW230681   1.441   0.608   1.360  0.8736 -0.6630 -0.1363
 9989SOL     OW30682   5.656   1.918   0.749 -0.2897 -0.3096 -0.7220
 9989SOL    HW130683   5.603   1.965   0.813  2.4938  2.8878 -0.6174
 9989SOL    HW230684   5.624   1.950   0.664  0.6853  0.7661 -0.6917
 9990SOL     OW30685   6.304   1.754   6.717 -0.3516 -0.2259 -0.1207
 9990SOL    HW130686   6.359   1.737   6.794 -1.0242 -2.4905 -0.1008
 9990SOL    HW230687   6.228   1.696   6.729 -1.4427  0.8815 -1.4917
 9991SOL     OW30688   2.333   4.312   3.326 -0.0764 -0.4070  0.2676
 9991SOL    HW130689   2.260   4.335   3.268 -0.3613 -0.3919  0.6306
 9991SOL    HW230690   2.375   4.395   3.347 -0.1334 -0.3856  0.2953
 9992SOL     OW30691   2.325   0.631   6.749 -0.4759  0.0528 -0.2261
 9992SOL    HW130692   2.415   0.604   6.730 -0.7191 -1.2217  0.3767
 9992SOL    HW230693   2.329   0.666   6.839 -1.0211 -2.2804  0.7477
 9993SOL     OW30694   4.750   4.858   6.682  0.3418  0.3039 -0.2095
 9993SOL    HW130695   4.780   4.945   6.708  0.6888  0.6992 -1.8917
 9993SOL    HW230696   4.668   4.873   6.636 -0.6158 -0.4557  1.1824
 9994SOL     OW30697   5.251   1.559   5.140  0.0435 -0.1772  0.4622
 9994SOL    HW130698   5.254   1.463   5.138 -1.0293 -0.1791 -1.7103
 9994SOL    HW230699   5.161   1.579   5.165  0.5027  0.2715  1.7778
 9995SOL     OW30700   0.848   0.729   6.549 -0.6210  0.0782 -0.0548
 9995SOL    HW130701   0.892   0.644   6.540 -0.1283  0.2123  1.0974
 9995SOL    HW230702   0.755   0.707   6.561 -0.3457 -0.3467  1.3662
 9996SOL     OW30703   1.145   5.830   5.110 -0.0562  0.5557 -0.6465
 9996SOL    HW130704   1.202   5.768   5.065 -0.9608 -0.4832 -0.3725
 9996SOL    HW230705   1.204   5.880   5.167  0.6017 -0.3929 -0.4978
 9997SOL     OW30706   4.566   6.343   1.316  0.5132  0.6158  0.3107
 9997SOL    HW130707   4.649   6.362   1.272  1.0417 -0.6099  0.7487
 9997SOL    HW230708   4.502   6.398   1.272  1.2586  0.3179 -1.1796
 9998SOL     OW30709   2.019   0.302   3.144 -0.0326 -0.1012  0.3492
 9998SOL    HW130710   1.940   0.332   3.188  0.0273 -0.5305  0.7506
 9998SOL    HW230711   2.070   0.258   3.212  1.3953  1.7350  0.5247
 9999SOL     OW30712   5.504   0.077   0.582 -0.0943 -0.3262  0.2860
 9999SOL    HW130713   5.528   0.126   0.661 -0.0263 -2.3648  1.5701
 9999SOL    HW230714   5.555  -0.004   0.587 -1.4908 -1.3098 -0.8838
10000SOL     OW30715   6.301   6.710   0.425  0.0811 -0.4168 -0.0197
10000SOL    HW130716   6.367   6.776   0.445  0.3793 -1.3576  2.2188
10000SOL    HW230717   6.221   6.761   0.407  0.4907  0.5931  0.9420
10001SOL     OW30718   5.686   5.269   5.216 -0.4640 -0.0675  0.1567
10001SOL    HW130719   5.628   5.279   5.140 -1.4634  1.6722  1.1187
10001SOL    HW230720   5.773   5.289   5.181 -0.6660 -0.9395 -0.8966
10002SOL     OW30721   5.643   0.356   0.531  0.1678 -0.2257  0.3402
10002SOL    HW130722   5.702   0.427   0.556 -0.4649 -0.2430  1.8759
10002SOL    HW230723   5.658   0.288   0.596  0.1782 -1.1913 -0.6530
10003SOL     OW30724   5.067   0.502   3.933 -0.0735  0.2601  0.0070
10003SOL    HW130725   5.003   0.444   3.891  0.1801  0.7200 -1.0207
10003SOL    HW230726   5.032   0.516   4.021 -0.0521 -1.5868  0.3232
10004SOL     OW30727   3.628   2.671   4.856 -0.5337  0.6601 -0.1532
10004SOL    HW130728   3.665   2.751   4.892 -0.8112  1.3443 -1.3237
10004SOL    HW230729   3.540   2.666   4.894  0.1573 -0.1175  1.3895
10005SOL     OW30730   5.746   5.746   2.919  0.2892  0.3838  0.0357
10005SOL    HW130731   5.684   5.675   2.934  1.9288 -1.5063 -1.9227
10005SOL    HW230732   5.693   5.826   2.926 -2.2220 -1.1397 -0.9818
10006NA      NA30733   4.524   0.197   5.199 -0.4643 -0.0013 -0.0394
10007NA      NA30734   2.039   4.872   2.483 -0.2932 -0.6434  0.0777
10008NA      NA30735   6.747   6.691   0.178  0.2033 -0.1517  0.5207
10009NA      NA30736   4.870   5.243   2.275 -0.0221  0.2574  0.2734
10010NA      NA30737   0.543   5.652   0.660  0.1998  0.8012 -0.0512
10011NA      NA30738   6.366   5.992   1.353  0.3177  0.4846 -0.1410
10012NA      NA30739   1.220   6.598   5.638  0.1132  0.4903  0.6574
10013NA      NA30740   3.869   4.322   3.483 -0.0461 -0.6799 -0.0775
10014NA      NA30741   6.324   1.464   0.282  0.1111  0.2608 -0.6307
10015NA      NA30742   1.478   1.714   5.262 -0.1406 -0.1564 -0.1274
10016NA      NA30743   2.742   2.063   1.996 -0.0248 -0.7929 -0.1836
10017NA      NA30744   4.362   1.483   6.587  0.2664 -0.2100 -0.2446
10018NA      NA30745   0.682   6.392   1.320  0.4403  0.0613  0.2955
10019NA      NA30746   1.452   5.218   1.163 -0.1890 -0.3979  0.1789
10020NA      NA30747   2.148   4.431   3.635 -0.4304 -0.2477  0.4954
10021NA      NA30748   2.033   4.179   6.029 -0.1151 -0.1194  0.5278
10022NA      NA30749   5.647   1.763   3.728  0.0384  0.0470 -0.4878
10023NA      NA30750   4.730   3.346   0.733  0.0107  0.3592  0.1110
10024NA      NA30751   4.799   5.582   4.531  0.1949 -0.0729 -0.2206
10025NA      NA30752   2.353   0.084   4.085 -0.1027  0.3441  0.0734
10026NA      NA30753   5.246   4.134   0.489 -0.0146 -0.2314  0.0669
10027NA      NA30754   3.038   4.842   6.452  0.0148 -0.1999 -0.3602
10028NA      NA30755   3.138   0.314   3.966 -0.3164 -0.1167  0.2191
10029NA      NA30756   3.605   2.734   2.294  0.2401 -0.1089  0.1524
10030NA      NA30757   2.609   3.864   4.411 -0.0020  0.3166  0.0790
10031NA      NA30758   2.380   1.644   4.281 -0.0048 -0.0272 -0.0406
10032NA      NA30759   4.013   6.317   1.309  0.3598 -0.6900 -0.1501
10033NA      NA30760   1.812   0.889   6.132 -0.0123  0.2116 -0.3058
10034CL      CL30761   1.871   3.698   4.314 -0.0095 -0.2261  0.1436
10035CL      CL30762   4.191   5.180   3.440 -0.0373 -0.2073  0.3197
10036CL      CL30763   1.059   4.983   1.225  0.1435  0.1310 -0.0317
10037CL      CL30764   2.329   6.094   1.756  0.7191 -0.1683 -0.0550
10038CL      CL30765   6.564   6.254   1.064  0.2100  0.1467 -0.1924
10039CL      CL30766   3.071   3.705   2.677 -0.2088  0.0077  0.2077
10040CL      CL30767   2.295   2.230   4.194  0.2252 -0.0115  0.0794
10041CL      CL30768   4.213   4.388   2.576 -0.1368  0.1466  0.3946
10042CL      CL30769   1.345   0.073   3.701 -0.1786  0.0731  0.6547
10043CL      CL30770   0.537   3.272   6.420 -0.1193 -0.0305  0.4281
10044CL      CL30771   0.085   4.411   6.050  0.0876 -0.2065  0.5061
10045CL      CL30772   0.373   4.049   2.747  0.1492 -0.1132 -0.2420
10046CL      CL30773   1.712   5.742   3.261 -0.0744  0.0122 -0.3048
10047CL      CL30774   3.487   2.319   0.680 -0.2527  0.1800  0.1325
10048CL      CL30775   0.497   0.600   2.350  0.1785 -0.1649 -0.4423
10049CL      CL30776   5.446   3.872   4.689 -0.0022  0.0620  0.4992
10050CL      CL30777   2.333   3.578   5.795 -0.2213 -0.2170  0.1575
10051CL      CL30778   3.875   4.476   5.037  0.5920 -0.1186 -0.0627
10052CL      CL30779   3.902   1.297   5.365 -0.1732  0.0203 -0.1363
10053CL      CL30780   5.115   2.397   0.120  0.3761 -0.4382  0.1540
10054CL      CL30781   5.647   2.348   1.218 -0.2939 -0.2308  0.0842
10055CL      CL30782   5.198   0.725   3.539  0.0124 -0.0792 -0.0440
10056CL      CL30783   3.898   5.897   6.070  0.0251 -0.0776 -0.1199
10057CL      CL30784   6.317   5.326   1.694  0.3689  0.4925  0.2202
10058CL      CL30785   1.413   0.666   1.121 -0.0099 -0.2088 -0.1130
10059CL      CL30786   0.459   5.955   0.215 -0.3713 -0.2983 -0.6001
10060CL      CL30787   3.558   0.141   3.046  0.0839  0.4357 -0.2547
10061CL      CL30788   6.763   1.735   1.477 -0.0180  0.1140 -0.0108
   6.76638   6.76638   6.76638
